2gCDOH_1PEG_l14
22221
    1LIG      O    1   1.947   2.006   0.044
    1LIG      C    2   2.018   2.020   0.197
    1LIG     C1    3   1.944   1.985   0.364
    1LIG     O1    4   2.001   2.030   0.518
    1LIG     C2    5   1.945   1.989   0.673
    1LIG     C3    6   2.013   2.048   0.834
    1LIG     O2    7   1.962   2.006   0.988
    1LIG     C4    8   2.026   2.043   1.138
    1LIG     C5    9   1.958   1.995   1.301
    1LIG     O3   10   2.020   2.032   1.452
    1LIG     C6   11   1.965   1.984   1.603
    1LIG     C7   12   2.031   2.034   1.765
    1LIG     O4   13   1.971   1.995   1.917
    1LIG     C8   14   2.029   2.033   2.070
    1LIG     C9   15   1.952   1.990   2.230
    1LIG     O5   16   2.005   2.034   2.384
    1LIG    C10   17   1.945   1.993   2.534
    1LIG    C11   18   2.012   2.051   2.693
    1LIG     O6   19   1.960   2.008   2.844
    1LIG    C12   20   2.023   2.044   2.993
    1LIG    C13   21   1.954   1.997   3.154
    1LIG     O7   22   2.017   2.034   3.304
    1LIG    C14   23   1.961   1.986   3.453
    1LIG    C15   24   2.028   2.036   3.614
    1LIG     O8   25   1.969   1.996   3.765
    1LIG    C16   26   2.029   2.032   3.918
    1LIG    C17   27   1.952   1.990   4.078
    1LIG     O9   28   2.005   2.033   4.230
    1LIG    C18   29   1.944   1.993   4.380
    1LIG    C19   30   2.011   2.050   4.539
    1LIG    O10   31   1.958   2.007   4.689
    1LIG    C20   32   2.023   2.044   4.837
    1LIG    C21   33   1.953   1.998   4.998
    1LIG    O11   34   2.017   2.035   5.146
    1LIG    C22   35   1.963   1.987   5.295
    1LIG    C23   36   2.034   2.037   5.454
    1LIG    O12   37   1.978   1.997   5.606
    1LIG    C24   38   2.044   2.032   5.755
    1LIG    C25   39   1.970   1.990   5.915
    1LIG    O13   40   2.025   2.036   6.065
    1LIG    C26   41   1.972   1.991   6.216
    1LIG    C27   42   2.033   2.052   6.374
    1LIG    O14   43   1.972   2.009   6.521
    1LIG    C28   44   2.027   2.044   6.671
    1LIG    C29   45   1.950   1.994   6.828
    1LIG    O15   46   2.007   2.029   6.980
    1LIG    C30   47   1.956   1.973   7.127
    1LIG    C31   48   2.019   2.028   7.289
    1LIG    O16   49   1.967   1.986   7.442
    1LIG    C32   50   2.034   2.021   7.592
    1LIG    C33   51   1.964   1.981   7.755
    1LIG    O17   52   2.025   2.024   7.906
    1LIG    C34   53   1.964   1.985   8.057
    1LIG    C35   54   2.026   2.041   8.218
    1LIG    O18   55   1.963   2.001   8.366
    1LIG    C36   56   2.016   2.039   8.518
    1LIG    C37   57   1.937   1.993   8.676
    1LIG    O19   58   1.992   2.034   8.829
    1LIG    C38   59   1.939   1.984   8.978
    1LIG    C39   60   2.010   2.031   9.138
    1LIG    O20   61   1.956   1.991   9.291
    1LIG    C40   62   2.017   2.034   9.441
    1LIG    C41   63   1.952   1.984   9.604
    1LIG    O21   64   2.010   2.029   9.753
    1LIG    C42   65   1.957   1.985   9.904
    1LIG    C43   66   2.026   2.040  10.063
    1LIG    O22   67   1.969   2.000  10.214
    1LIG    C44   68   2.028   2.039  10.364
    1LIG    C45   69   1.952   1.995  10.524
    1LIG    O23   70   2.009   2.033  10.675
    1LIG    C46   71   1.951   1.985  10.823
    1LIG    C47   72   2.020   2.031  10.985
    1LIG    O24   73   1.964   1.990  11.137
    1LIG    C48   74   2.023   2.033  11.287
    1LIG    C49   75   1.956   1.983  11.450
    1LIG    O25   76   2.013   2.027  11.600
    1LIG    C50   77   1.957   1.985  11.751
    1LIG    C51   78   2.028   2.037  11.911
    1LIG    O26   79   1.970   1.999  12.063
    1LIG    C52   80   2.029   2.038  12.215
    1LIG    C53   81   1.953   1.995  12.376
    1LIG    O27   82   2.010   2.032  12.529
    1LIG    C54   83   1.953   1.983  12.679
    1LIG    C55   84   2.021   2.029  12.844
    1LIG    O28   85   1.964   1.987  12.998
    1LIG    C56   86   2.020   2.027  13.152
    1LIG    C57   87   1.951   1.973  13.316
    1LIG    O29   88   2.006   2.008  13.473
    1LIG    C58   89   1.936   1.972  13.623
    1LIG    C59   90   2.014   1.973  13.792
    1LIG      H   91   2.052   2.125   0.204
    1LIG     H1   92   2.111   1.962   0.194
    1LIG     H2   93   1.936   1.876   0.366
    1LIG     H3   94   1.841   2.021   0.358
    1LIG     H4   95   1.950   1.880   0.679
    1LIG     H5   96   1.838   2.014   0.675
    1LIG     H6   97   2.010   2.157   0.829
    1LIG     H7   98   2.120   2.025   0.830
    1LIG     H8   99   2.035   2.152   1.142
    1LIG     H9  100   2.129   2.007   1.137
    1LIG    H10  101   1.945   1.886   1.299
    1LIG    H11  102   1.855   2.034   1.301
    1LIG    H12  103   1.969   1.875   1.603
    1LIG    H13  104   1.858   2.007   1.605
    1LIG    H14  105   2.038   2.143   1.762
    1LIG    H15  106   2.136   2.001   1.765
    1LIG    H16  107   2.045   2.141   2.073
    1LIG    H17  108   2.131   1.990   2.075
    1LIG    H18  109   1.944   1.881   2.230
    1LIG    H19  110   1.848   2.025   2.223
    1LIG    H20  111   1.948   1.883   2.539
    1LIG    H21  112   1.839   2.019   2.534
    1LIG    H22  113   2.009   2.160   2.689
    1LIG    H23  114   2.119   2.028   2.690
    1LIG    H24  115   2.034   2.153   2.997
    1LIG    H25  116   2.127   2.007   2.992
    1LIG    H26  117   1.941   1.888   3.152
    1LIG    H27  118   1.852   2.037   3.154
    1LIG    H28  119   1.966   1.876   3.453
    1LIG    H29  120   1.854   2.009   3.456
    1LIG    H30  121   2.035   2.145   3.610
    1LIG    H31  122   2.133   2.002   3.613
    1LIG    H32  123   2.047   2.140   3.921
    1LIG    H33  124   2.129   1.987   3.921
    1LIG    H34  125   1.944   1.881   4.077
    1LIG    H35  126   1.848   2.026   4.070
    1LIG    H36  127   1.946   1.883   4.385
    1LIG    H37  128   1.838   2.020   4.379
    1LIG    H38  129   2.008   2.160   4.535
    1LIG    H39  130   2.118   2.027   4.536
    1LIG    H40  131   2.034   2.153   4.840
    1LIG    H41  132   2.125   2.005   4.836
    1LIG    H42  133   1.938   1.890   4.996
    1LIG    H43  134   1.851   2.039   4.997
    1LIG    H44  135   1.967   1.877   5.295
    1LIG    H45  136   1.856   2.011   5.300
    1LIG    H46  137   2.038   2.146   5.451
    1LIG    H47  138   2.138   2.005   5.451
    1LIG    H48  139   2.064   2.139   5.758
    1LIG    H49  140   2.143   1.985   5.755
    1LIG    H50  141   1.963   1.881   5.916
    1LIG    H51  142   1.867   2.025   5.909
    1LIG    H52  143   1.980   1.881   6.221
    1LIG    H53  144   1.865   2.011   6.219
    1LIG    H54  145   2.029   2.161   6.368
    1LIG    H55  146   2.140   2.029   6.376
    1LIG    H56  147   2.037   2.154   6.677
    1LIG    H57  148   2.129   2.006   6.674
    1LIG    H58  149   1.938   1.885   6.823
    1LIG    H59  150   1.847   2.033   6.824
    1LIG    H60  151   1.972   1.865   7.126
    1LIG    H61  152   1.847   1.983   7.129
    1LIG    H62  153   2.020   2.136   7.285
    1LIG    H63  154   2.123   2.000   7.286
    1LIG    H64  155   2.056   2.129   7.594
    1LIG    H65  156   2.134   1.974   7.592
    1LIG    H66  157   1.955   1.872   7.756
    1LIG    H67  158   1.861   2.019   7.753
    1LIG    H68  159   1.961   1.876   8.063
    1LIG    H69  160   1.860   2.017   8.058
    1LIG    H70  161   2.028   2.151   8.214
    1LIG    H71  162   2.133   2.015   8.220
    1LIG    H72  163   2.028   2.148   8.520
    1LIG    H73  164   2.118   1.999   8.522
    1LIG    H74  165   1.928   1.884   8.675
    1LIG    H75  166   1.834   2.031   8.669
    1LIG    H76  167   1.942   1.874   8.976
    1LIG    H77  168   1.832   2.009   8.984
    1LIG    H78  169   2.018   2.140   9.135
    1LIG    H79  170   2.113   1.994   9.133
    1LIG    H80  171   2.022   2.143   9.442
    1LIG    H81  172   2.122   2.001   9.441
    1LIG    H82  173   1.953   1.874   9.602
    1LIG    H83  174   1.846   2.012   9.602
    1LIG    H84  175   1.959   1.876   9.908
    1LIG    H85  176   1.850   2.012   9.908
    1LIG    H86  177   2.030   2.149  10.059
    1LIG    H87  178   2.132   2.011  10.060
    1LIG    H88  179   2.039   2.148  10.366
    1LIG    H89  180   2.130   2.000  10.368
    1LIG    H90  181   1.938   1.887  10.522
    1LIG    H91  182   1.850   2.036  10.519
    1LIG    H92  183   1.951   1.875  10.822
    1LIG    H93  184   1.846   2.014  10.826
    1LIG    H94  185   2.028   2.140  10.982
    1LIG    H95  186   2.124   1.995  10.981
    1LIG    H96  187   2.026   2.143  11.289
    1LIG    H97  188   2.128   2.001  11.288
    1LIG    H98  189   1.956   1.873  11.447
    1LIG    H99  190   1.850   2.011  11.447
    1LIG   H100  191   1.955   1.876  11.754
    1LIG   H101  192   1.852   2.016  11.754
    1LIG   H102  193   2.037   2.146  11.907
    1LIG   H103  194   2.133   2.004  11.907
    1LIG   H104  195   2.040   2.147  12.216
    1LIG   H105  196   2.131   1.999  12.218
    1LIG   H106  197   1.940   1.886  12.374
    1LIG   H107  198   1.851   2.035  12.371
    1LIG   H108  199   1.953   1.874  12.677
    1LIG   H109  200   1.847   2.011  12.682
    1LIG   H110  201   2.027   2.138  12.842
    1LIG   H111  202   2.124   1.994  12.839
    1LIG   H112  203   2.023   2.137  13.156
    1LIG   H113  204   2.126   1.997  13.155
    1LIG   H114  205   1.948   1.864  13.309
    1LIG   H115  206   1.846   2.005  13.313
    1LIG   H116  207   1.904   1.868  13.612
    1LIG   H117  208   1.842   2.027  13.629
    1LIG   H118  209   2.110   2.027  13.784
    1LIG   H119  210   2.042   1.868  13.800
    2MOL     C1  211   1.307   2.202   6.424
    2MOL     H1  212   1.202   2.168   6.424
    2MOL     O1  213   1.339   2.263   6.552
    2MOL     C2  214   1.473   2.317   6.566
    2MOL     H2  215   1.545   2.236   6.556
    2MOL     C3  216   1.494   2.377   6.709
    2MOL     H3  217   1.599   2.407   6.721
    2MOL     H4  218   1.478   2.297   6.783
    2MOL     O2  219   1.409   2.489   6.738
    2MOL     H5  220   1.440   2.529   6.823
    2MOL     C4  221   1.325   2.304   6.308
    2MOL     H6  222   1.255   2.387   6.325
    2MOL     O3  223   1.301   2.244   6.181
    2MOL     H7  224   1.317   2.147   6.192
    2MOL     C5  225   1.469   2.359   6.311
    2MOL     H8  226   1.538   2.274   6.296
    2MOL     O4  227   1.490   2.455   6.206
    2MOL     H9  228   1.419   2.439   6.140
    2MOL     C6  229   1.498   2.419   6.451
    2MOL    H10  230   1.433   2.506   6.464
    2MOL     O5  231   1.636   2.457   6.450
    2MOL     C7  232   1.664   2.585   6.509
    2MOL    H11  233   1.574   2.628   6.554
    2MOL     O6  234   1.764   2.566   6.611
    2MOL     C8  235   1.890   2.513   6.563
    2MOL    H12  236   1.874   2.418   6.511
    2MOL     C9  237   1.978   2.485   6.686
    2MOL    H13  238   2.065   2.425   6.658
    2MOL    H14  239   1.918   2.425   6.756
    2MOL     O7  240   2.020   2.606   6.748
    2MOL    H15  241   2.111   2.623   6.716
    2MOL    C10  242   1.715   2.682   6.400
    2MOL    H16  243   1.723   2.780   6.448
    2MOL     O8  244   1.619   2.689   6.295
    2MOL    H17  245   1.599   2.596   6.270
    2MOL    C11  246   1.854   2.640   6.346
    2MOL    H18  247   1.840   2.544   6.296
    2MOL     O9  248   1.909   2.737   6.255
    2MOL    H19  249   1.851   2.739   6.175
    2MOL    C12  250   1.950   2.617   6.466
    2MOL    H20  251   1.961   2.713   6.519
    2MOL    O10  252   2.078   2.571   6.415
    2MOL    C13  253   2.192   2.652   6.452
    2MOL    H21  254   2.160   2.753   6.480
    2MOL    O11  255   2.260   2.590   6.564
    2MOL    C14  256   2.330   2.464   6.540
    2MOL    H22  257   2.255   2.388   6.513
    2MOL    C15  258   2.401   2.416   6.672
    2MOL    H23  259   2.389   2.308   6.681
    2MOL    H24  260   2.350   2.463   6.756
    2MOL    O12  261   2.540   2.448   6.681
    2MOL    H25  262   2.584   2.393   6.611
    2MOL    C16  263   2.288   2.666   6.331
    2MOL    H26  264   2.366   2.739   6.357
    2MOL    O13  265   2.213   2.714   6.219
    2MOL    H27  266   2.118   2.706   6.245
    2MOL    C17  267   2.355   2.532   6.296
    2MOL    H28  268   2.277   2.460   6.269
    2MOL    O14  269   2.448   2.546   6.187
    2MOL    H29  270   2.399   2.594   6.117
    2MOL    C18  271   2.428   2.480   6.422
    2MOL    H30  272   2.507   2.552   6.449
    2MOL    O15  273   2.483   2.350   6.390
    2MOL    C19  274   2.626   2.336   6.399
    2MOL    H31  275   2.675   2.435   6.401
    2MOL    O16  276   2.655   2.259   6.518
    2MOL    C20  277   2.593   2.126   6.520
    2MOL    H32  278   2.485   2.135   6.508
    2MOL    C21  279   2.621   2.058   6.657
    2MOL    H33  280   2.552   1.973   6.669
    2MOL    H34  281   2.599   2.129   6.737
    2MOL    O17  282   2.755   2.011   6.668
    2MOL    H35  283   2.751   1.917   6.637
    2MOL    C22  284   2.677   2.261   6.273
    2MOL    H36  285   2.787   2.256   6.278
    2MOL    O18  286   2.638   2.332   6.157
    2MOL    H37  287   2.557   2.383   6.182
    2MOL    C23  288   2.621   2.118   6.266
    2MOL    H38  289   2.512   2.125   6.254
    2MOL    O19  290   2.678   2.048   6.154
    2MOL    H39  291   2.676   2.112   6.080
    2MOL    C24  292   2.651   2.046   6.400
    2MOL    H40  293   2.760   2.039   6.411
    2MOL    O20  294   2.591   1.915   6.395
    2MOL    C25  295   2.682   1.803   6.406
    2MOL    H41  296   2.787   1.835   6.396
    2MOL    O21  297   2.661   1.742   6.536
    2MOL    C26  298   2.526   1.691   6.560
    2MOL    H42  299   2.455   1.775   6.553
    2MOL    C27  300   2.516   1.635   6.705
    2MOL    H43  301   2.410   1.628   6.731
    2MOL    H44  302   2.562   1.707   6.773
    2MOL    O22  303   2.577   1.506   6.721
    2MOL    H45  304   2.654   1.518   6.780
    2MOL    C28  305   2.653   1.701   6.293
    2MOL    H46  306   2.724   1.618   6.302
    2MOL    O23  307   2.668   1.763   6.165
    2MOL    H47  308   2.644   1.859   6.179
    2MOL    C29  309   2.510   1.645   6.306
    2MOL    H48  310   2.441   1.729   6.293
    2MOL    O24  311   2.483   1.545   6.207
    2MOL    H49  312   2.508   1.583   6.120
    2MOL    C30  313   2.491   1.587   6.449
    2MOL    H50  314   2.557   1.500   6.459
    2MOL    O25  315   2.352   1.550   6.459
    2MOL    C31  316   2.326   1.419   6.512
    2MOL    H51  317   2.417   1.376   6.556
    2MOL    O26  318   2.225   1.433   6.615
    2MOL    C32  319   2.099   1.485   6.565
    2MOL    H52  320   2.116   1.582   6.519
    2MOL    C33  321   2.003   1.507   6.683
    2MOL    H53  322   1.908   1.548   6.648
    2MOL    H54  323   2.049   1.583   6.746
    2MOL    O27  324   1.977   1.389   6.759
    2MOL    H55  325   1.885   1.364   6.736
    2MOL    C34  326   2.275   1.322   6.401
    2MOL    H56  327   2.259   1.223   6.446
    2MOL    O28  328   2.375   1.310   6.300
    2MOL    H57  329   2.397   1.402   6.271
    2MOL    C35  330   2.141   1.372   6.341
    2MOL    H58  331   2.158   1.470   6.296
    2MOL    O29  332   2.084   1.282   6.242
    2MOL    H59  333   2.154   1.220   6.207
    2MOL    C36  334   2.042   1.390   6.458
    2MOL    H60  335   2.025   1.294   6.507
    2MOL    O30  336   1.919   1.443   6.404
    2MOL    C37  337   1.810   1.350   6.412
    2MOL    H61  338   1.848   1.247   6.424
    2MOL    O31  339   1.729   1.385   6.526
    2MOL    C38  340   1.664   1.515   6.520
    2MOL    H62  341   1.739   1.595   6.512
    2MOL    C39  342   1.588   1.535   6.653
    2MOL    H63  343   1.521   1.450   6.667
    2MOL    H64  344   1.527   1.626   6.647
    2MOL    O32  345   1.679   1.544   6.763
    2MOL    H65  346   1.619   1.553   6.841
    2MOL    C40  347   1.724   1.353   6.283
    2MOL    H66  348   1.648   1.275   6.293
    2MOL    O33  349   1.807   1.324   6.170
    2MOL    H67  350   1.900   1.325   6.204
    2MOL    C41  351   1.653   1.489   6.267
    2MOL    H68  352   1.730   1.566   6.256
    2MOL    O34  353   1.567   1.489   6.152
    2MOL    H69  354   1.626   1.482   6.073
    2MOL    C42  355   1.572   1.521   6.396
    2MOL    H70  356   1.492   1.446   6.408
    2MOL    O35  357   1.519   1.655   6.381
    2MOL    C43  358   1.375   1.669   6.387
    2MOL    H71  359   1.326   1.570   6.389
    2MOL    O36  360   1.341   1.742   6.508
    2MOL    C44  361   1.395   1.877   6.517
    2MOL    H72  362   1.505   1.872   6.510
    2MOL    C45  363   1.360   1.939   6.655
    2MOL    H73  364   1.251   1.938   6.668
    2MOL    H74  365   1.392   2.044   6.658
    2MOL    O37  366   1.425   1.868   6.761
    2MOL    H75  367   1.356   1.847   6.827
    2MOL    C46  368   1.325   1.747   6.263
    2MOL    H76  369   1.215   1.752   6.266
    2MOL    O38  370   1.366   1.683   6.141
    2MOL    H77  371   1.445   1.628   6.162
    2MOL    C47  372   1.379   1.892   6.265
    2MOL    H78  373   1.488   1.888   6.260
    2MOL    O39  374   1.329   1.966   6.153
    2MOL    H79  375   1.329   1.902   6.078
    2MOL    C48  376   1.340   1.960   6.399
    2MOL    H80  377   1.230   1.964   6.406
    2MOL    O40  378   1.398   2.092   6.401
    3MOL     C1  379   1.321   2.201   7.434
    3MOL     H1  380   1.217   2.167   7.438
    3MOL     O1  381   1.360   2.257   7.560
    3MOL     C2  382   1.496   2.308   7.568
    3MOL     H2  383   1.567   2.227   7.550
    3MOL     C3  384   1.517   2.361   7.710
    3MOL     H3  385   1.623   2.386   7.724
    3MOL     H4  386   1.492   2.281   7.782
    3MOL     O2  387   1.436   2.476   7.736
    3MOL     H5  388   1.475   2.512   7.820
    3MOL     C4  389   1.335   2.307   7.321
    3MOL     H6  390   1.264   2.389   7.340
    3MOL     O3  391   1.308   2.248   7.195
    3MOL     H7  392   1.344   2.156   7.200
    3MOL     C5  393   1.479   2.364   7.320
    3MOL     H8  394   1.545   2.280   7.301
    3MOL     O4  395   1.496   2.464   7.218
    3MOL     H9  396   1.444   2.435   7.140
    3MOL     C6  397   1.514   2.419   7.460
    3MOL    H10  398   1.445   2.501   7.482
    3MOL     O5  399   1.650   2.467   7.457
    3MOL     C7  400   1.673   2.599   7.514
    3MOL    H11  401   1.581   2.641   7.555
    3MOL     O6  402   1.772   2.588   7.621
    3MOL     C8  403   1.901   2.540   7.577
    3MOL    H12  404   1.887   2.447   7.524
    3MOL     C9  405   1.993   2.509   7.698
    3MOL    H13  406   2.069   2.436   7.668
    3MOL    H14  407   1.932   2.460   7.776
    3MOL     O7  408   2.056   2.627   7.748
    3MOL    H15  409   2.144   2.631   7.702
    3MOL    C10  410   1.726   2.695   7.403
    3MOL    H16  411   1.733   2.796   7.445
    3MOL     O8  412   1.636   2.695   7.294
    3MOL    H17  413   1.603   2.603   7.284
    3MOL    C11  414   1.867   2.651   7.354
    3MOL    H18  415   1.855   2.551   7.311
    3MOL     O9  416   1.924   2.741   7.258
    3MOL    H19  417   1.852   2.762   7.190
    3MOL    C12  418   1.960   2.640   7.477
    3MOL    H20  419   1.971   2.738   7.524
    3MOL    O10  420   2.086   2.590   7.428
    3MOL    C13  421   2.203   2.668   7.458
    3MOL    H21  422   2.178   2.772   7.484
    3MOL    O11  423   2.273   2.605   7.569
    3MOL    C14  424   2.327   2.472   7.544
    3MOL    H22  425   2.245   2.404   7.518
    3MOL    C15  426   2.395   2.416   7.674
    3MOL    H23  427   2.393   2.307   7.671
    3MOL    H24  428   2.335   2.448   7.760
    3MOL    O12  429   2.531   2.459   7.691
    3MOL    H25  430   2.584   2.408   7.626
    3MOL    C16  431   2.292   2.672   7.331
    3MOL    H26  432   2.374   2.743   7.346
    3MOL    O13  433   2.210   2.714   7.221
    3MOL    H27  434   2.118   2.707   7.254
    3MOL    C17  435   2.351   2.533   7.300
    3MOL    H28  436   2.268   2.464   7.279
    3MOL    O14  437   2.438   2.537   7.187
    3MOL    H29  438   2.405   2.611   7.131
    3MOL    C18  439   2.424   2.481   7.424
    3MOL    H30  440   2.505   2.550   7.449
    3MOL    O15  441   2.473   2.349   7.393
    3MOL    C19  442   2.616   2.333   7.402
    3MOL    H31  443   2.667   2.431   7.405
    3MOL    O16  444   2.644   2.259   7.524
    3MOL    C20  445   2.588   2.125   7.526
    3MOL    H32  446   2.480   2.130   7.510
    3MOL    C21  447   2.611   2.059   7.665
    3MOL    H33  448   2.539   1.977   7.678
    3MOL    H34  449   2.589   2.134   7.742
    3MOL    O17  450   2.744   2.009   7.683
    3MOL    H35  451   2.748   1.923   7.636
    3MOL    C22  452   2.667   2.258   7.277
    3MOL    H36  453   2.776   2.254   7.281
    3MOL    O18  454   2.624   2.325   7.159
    3MOL    H37  455   2.556   2.389   7.191
    3MOL    C23  456   2.613   2.113   7.276
    3MOL    H38  457   2.504   2.120   7.272
    3MOL    O19  458   2.662   2.040   7.163
    3MOL    H39  459   2.679   2.104   7.092
    3MOL    C24  460   2.652   2.045   7.409
    3MOL    H40  461   2.761   2.044   7.419
    3MOL    O20  462   2.598   1.912   7.408
    3MOL    C25  463   2.686   1.800   7.425
    3MOL    H41  464   2.792   1.831   7.418
    3MOL    O21  465   2.657   1.742   7.554
    3MOL    C26  466   2.518   1.700   7.572
    3MOL    H42  467   2.451   1.784   7.552
    3MOL    C27  468   2.498   1.660   7.720
    3MOL    H43  469   2.395   1.624   7.735
    3MOL    H44  470   2.508   1.751   7.781
    3MOL    O22  471   2.593   1.564   7.766
    3MOL    H45  472   2.647   1.538   7.688
    3MOL    C28  473   2.656   1.699   7.312
    3MOL    H46  474   2.727   1.615   7.319
    3MOL    O23  475   2.672   1.762   7.186
    3MOL    H47  476   2.660   1.861   7.205
    3MOL    C29  477   2.511   1.643   7.324
    3MOL    H48  478   2.444   1.728   7.310
    3MOL    O24  479   2.485   1.546   7.220
    3MOL    H49  480   2.515   1.589   7.137
    3MOL    C30  481   2.487   1.589   7.467
    3MOL    H50  482   2.553   1.504   7.484
    3MOL    O25  483   2.350   1.547   7.479
    3MOL    C31  484   2.326   1.415   7.537
    3MOL    H51  485   2.418   1.373   7.580
    3MOL    O26  486   2.226   1.426   7.642
    3MOL    C32  487   2.099   1.479   7.595
    3MOL    H52  488   2.122   1.575   7.549
    3MOL    C33  489   2.001   1.508   7.711
    3MOL    H53  490   1.925   1.579   7.677
    3MOL    H54  491   2.058   1.556   7.791
    3MOL    O27  492   1.939   1.390   7.762
    3MOL    H55  493   1.848   1.390   7.723
    3MOL    C34  494   2.274   1.319   7.426
    3MOL    H56  495   2.258   1.220   7.470
    3MOL    O28  496   2.370   1.311   7.323
    3MOL    H57  497   2.388   1.405   7.294
    3MOL    C35  498   2.139   1.371   7.371
    3MOL    H58  499   2.156   1.472   7.330
    3MOL    O29  500   2.085   1.285   7.270
    3MOL    H59  501   2.159   1.259   7.209
    3MOL    C36  502   2.042   1.384   7.489
    3MOL    H60  503   2.028   1.285   7.535
    3MOL    O30  504   1.917   1.434   7.436
    3MOL    C37  505   1.808   1.340   7.443
    3MOL    H61  506   1.845   1.237   7.459
    3MOL    O31  507   1.723   1.378   7.553
    3MOL    C38  508   1.660   1.509   7.543
    3MOL    H62  509   1.737   1.587   7.538
    3MOL    C39  510   1.574   1.532   7.670
    3MOL    H63  511   1.503   1.449   7.679
    3MOL    H64  512   1.516   1.624   7.658
    3MOL    O32  513   1.655   1.541   7.788
    3MOL    H65  514   1.615   1.479   7.852
    3MOL    C40  515   1.728   1.341   7.311
    3MOL    H66  516   1.653   1.262   7.320
    3MOL    O33  517   1.813   1.314   7.198
    3MOL    H67  518   1.903   1.291   7.232
    3MOL    C41  519   1.657   1.476   7.290
    3MOL    H68  520   1.734   1.553   7.278
    3MOL    O34  521   1.574   1.472   7.174
    3MOL    H69  522   1.632   1.498   7.099
    3MOL    C42  523   1.575   1.514   7.414
    3MOL    H70  524   1.490   1.446   7.424
    3MOL    O35  525   1.531   1.650   7.392
    3MOL    C43  526   1.389   1.671   7.388
    3MOL    H71  527   1.335   1.575   7.382
    3MOL    O36  528   1.352   1.741   7.508
    3MOL    C44  529   1.407   1.875   7.525
    3MOL    H72  530   1.517   1.871   7.522
    3MOL    C45  531   1.363   1.932   7.662
    3MOL    H73  532   1.255   1.947   7.661
    3MOL    H74  533   1.409   2.031   7.676
    3MOL    O37  534   1.399   1.846   7.771
    3MOL    H75  535   1.318   1.841   7.826
    3MOL    C46  536   1.351   1.755   7.262
    3MOL    H76  537   1.242   1.756   7.253
    3MOL    O38  538   1.408   1.701   7.144
    3MOL    H77  539   1.465   1.626   7.175
    3MOL    C47  540   1.402   1.899   7.275
    3MOL    H78  541   1.511   1.895   7.276
    3MOL    O39  542   1.356   1.975   7.163
    3MOL    H79  543   1.350   1.909   7.091
    3MOL    C48  544   1.355   1.961   7.406
    3MOL    H80  545   1.245   1.963   7.409
    3MOL    O40  546   1.412   2.092   7.408
    4SOL     OW  547   0.231   0.654   0.119
    4SOL    HW1  548   0.137   0.645   0.133
    4SOL    HW2  549   0.249   0.606   0.038
    5SOL     OW  550   0.224   0.289   0.983
    5SOL    HW1  551   0.247   0.249   1.067
    5SOL    HW2  552   0.130   0.276   0.976
    6SOL     OW  553   0.019   0.386   0.632
    6SOL    HW1  554   3.929   0.398   0.665
    6SOL    HW2  555   0.025   0.292   0.616
    7SOL     OW  556   0.580   1.287   1.189
    7SOL    HW1  557   0.493   1.290   1.148
    7SOL    HW2  558   0.593   1.376   1.222
    8SOL     OW  559   1.564   1.511   0.708
    8SOL    HW1  560   1.521   1.492   0.791
    8SOL    HW2  561   1.493   1.517   0.645
    9SOL     OW  562   1.133   0.698   0.699
    9SOL    HW1  563   1.180   0.780   0.686
    9SOL    HW2  564   1.085   0.710   0.781
   10SOL     OW  565   1.759   0.623   0.218
   10SOL    HW1  566   1.778   0.597   0.128
   10SOL    HW2  567   1.762   0.542   0.268
   11SOL     OW  568   0.755   1.140   1.041
   11SOL    HW1  569   0.690   1.175   1.102
   11SOL    HW2  570   0.790   1.217   0.996
   12SOL     OW  571   0.870   0.772   1.823
   12SOL    HW1  572   0.858   0.843   1.886
   12SOL    HW2  573   0.892   0.815   1.741
   13SOL     OW  574   0.685   1.003   0.647
   13SOL    HW1  575   0.750   0.990   0.715
   13SOL    HW2  576   0.616   1.054   0.689
   14SOL     OW  577   0.711   1.149   1.815
   14SOL    HW1  578   0.759   1.227   1.843
   14SOL    HW2  579   0.629   1.183   1.778
   15SOL     OW  580   0.351   1.402   1.078
   15SOL    HW1  581   0.269   1.383   1.032
   15SOL    HW2  582   0.399   1.460   1.019
   16SOL     OW  583   1.461   1.501   1.356
   16SOL    HW1  584   1.513   1.581   1.365
   16SOL    HW2  585   1.397   1.507   1.427
   17SOL     OW  586   0.456   0.408   1.496
   17SOL    HW1  587   0.537   0.357   1.494
   17SOL    HW2  588   0.387   0.342   1.499
   18SOL     OW  589   1.611   0.450   0.735
   18SOL    HW1  590   1.540   0.484   0.680
   18SOL    HW2  591   1.633   0.523   0.793
   19SOL     OW  592   0.224   1.709   0.473
   19SOL    HW1  593   0.242   1.790   0.521
   19SOL    HW2  594   0.287   1.711   0.401
   20SOL     OW  595   1.137   1.342   1.693
   20SOL    HW1  596   1.178   1.336   1.780
   20SOL    HW2  597   1.085   1.262   1.686
   21SOL     OW  598   0.245   1.446   0.543
   21SOL    HW1  599   0.223   1.538   0.528
   21SOL    HW2  600   0.171   1.412   0.593
   22SOL     OW  601   0.247   1.067   0.884
   22SOL    HW1  602   0.267   0.982   0.923
   22SOL    HW2  603   0.195   1.112   0.950
   23SOL     OW  604   0.611   1.792   1.428
   23SOL    HW1  605   0.529   1.774   1.473
   23SOL    HW2  606   0.634   1.881   1.454
   24SOL     OW  607   0.563   0.981   0.163
   24SOL    HW1  608   0.587   1.027   0.083
   24SOL    HW2  609   0.618   1.021   0.231
   25SOL     OW  610   1.580   0.139   1.456
   25SOL    HW1  611   1.609   0.212   1.401
   25SOL    HW2  612   1.550   0.180   1.537
   26SOL     OW  613   0.138   0.653   0.568
   26SOL    HW1  614   0.096   0.567   0.575
   26SOL    HW2  615   0.102   0.703   0.642
   27SOL     OW  616   0.024   1.599   0.136
   27SOL    HW1  617   0.027   1.504   0.145
   27SOL    HW2  618   3.970   1.629   0.210
   28SOL     OW  619   1.687   0.917   0.643
   28SOL    HW1  620   1.771   0.876   0.624
   28SOL    HW2  621   1.667   0.968   0.565
   29SOL     OW  622   1.648   1.106   0.430
   29SOL    HW1  623   1.737   1.108   0.393
   29SOL    HW2  624   1.653   1.167   0.503
   30SOL     OW  625   0.139   0.756   1.589
   30SOL    HW1  626   0.235   0.750   1.586
   30SOL    HW2  627   0.121   0.845   1.619
   31SOL     OW  628   0.613   1.386   0.736
   31SOL    HW1  629   0.566   1.303   0.745
   31SOL    HW2  630   0.597   1.413   0.645
   32SOL     OW  631   1.288   1.238   1.423
   32SOL    HW1  632   1.320   1.170   1.363
   32SOL    HW2  633   1.346   1.232   1.498
   33SOL     OW  634   0.822   0.003   0.520
   33SOL    HW1  635   0.866   0.084   0.493
   33SOL    HW2  636   0.729   0.025   0.519
   34SOL     OW  637   0.185   0.951   1.277
   34SOL    HW1  638   0.273   0.916   1.265
   34SOL    HW2  639   0.132   0.907   1.211
   35SOL     OW  640   1.530   0.997   0.204
   35SOL    HW1  641   1.462   0.938   0.238
   35SOL    HW2  642   1.572   1.033   0.283
   36SOL     OW  643   1.185   1.808   1.623
   36SOL    HW1  644   1.194   1.867   1.549
   36SOL    HW2  645   1.202   1.721   1.587
   37SOL     OW  646   0.344   0.252   1.836
   37SOL    HW1  647   0.387   0.336   1.818
   37SOL    HW2  648   0.253   0.275   1.854
   38SOL     OW  649   1.465   1.420   0.950
   38SOL    HW1  650   1.398   1.435   1.016
   38SOL    HW2  651   1.453   1.328   0.924
   39SOL     OW  652   1.668   1.738   0.577
   39SOL    HW1  653   1.627   1.725   0.492
   39SOL    HW2  654   1.646   1.660   0.627
   40SOL     OW  655   0.595   0.717   0.264
   40SOL    HW1  656   0.597   0.800   0.217
   40SOL    HW2  657   0.535   0.731   0.337
   41SOL     OW  658   1.275   0.367   0.940
   41SOL    HW1  659   1.188   0.329   0.947
   41SOL    HW2  660   1.332   0.306   0.986
   42SOL     OW  661   1.560   1.725   0.315
   42SOL    HW1  662   1.633   1.662   0.319
   42SOL    HW2  663   1.525   1.715   0.227
   43SOL     OW  664   0.794   0.616   1.454
   43SOL    HW1  665   0.765   0.591   1.541
   43SOL    HW2  666   0.756   0.551   1.395
   44SOL     OW  667   1.392   0.476   1.677
   44SOL    HW1  668   1.398   0.521   1.762
   44SOL    HW2  669   1.450   0.401   1.686
   45SOL     OW  670   0.953   0.887   1.584
   45SOL    HW1  671   1.008   0.818   1.547
   45SOL    HW2  672   0.904   0.922   1.509
   46SOL     OW  673   0.992   0.403   1.239
   46SOL    HW1  674   0.907   0.425   1.278
   46SOL    HW2  675   0.970   0.373   1.151
   47SOL     OW  676   1.051   0.702   0.428
   47SOL    HW1  677   1.068   0.693   0.522
   47SOL    HW2  678   0.969   0.656   0.414
   48SOL     OW  679   0.082   0.827   0.790
   48SOL    HW1  680   0.156   0.794   0.842
   48SOL    HW2  681   0.099   0.921   0.780
   49SOL     OW  682   0.130   1.861   1.576
   49SOL    HW1  683   0.137   1.826   1.665
   49SOL    HW2  684   0.037   1.849   1.553
   50SOL     OW  685   0.874   0.361   0.220
   50SOL    HW1  686   0.911   0.419   0.153
   50SOL    HW2  687   0.879   0.273   0.182
   51SOL     OW  688   1.709   0.576   1.829
   51SOL    HW1  689   1.671   0.649   1.781
   51SOL    HW2  690   1.733   0.512   1.761
   52SOL     OW  691   1.379   1.142   0.543
   52SOL    HW1  692   1.457   1.129   0.488
   52SOL    HW2  693   1.325   1.204   0.494
   53SOL     OW  694   0.561   0.196   0.882
   53SOL    HW1  695   0.565   0.219   0.975
   53SOL    HW2  696   0.549   0.280   0.837
   54SOL     OW  697   1.005   1.443   0.475
   54SOL    HW1  698   0.971   1.516   0.424
   54SOL    HW2  699   0.983   1.464   0.566
   55SOL     OW  700   0.365   1.817   0.870
   55SOL    HW1  701   0.429   1.746   0.878
   55SOL    HW2  702   0.415   1.896   0.886
   56SOL     OW  703   1.799   1.052   0.871
   56SOL    HW1  704   1.745   1.037   0.793
   56SOL    HW2  705   1.737   1.060   0.943
   57SOL     OW  706   1.228   1.539   1.513
   57SOL    HW1  707   1.215   1.466   1.574
   57SOL    HW2  708   1.164   1.524   1.444
   58SOL     OW  709   0.310   0.932   0.241
   58SOL    HW1  710   0.401   0.946   0.214
   58SOL    HW2  711   0.297   0.837   0.234
   59SOL     OW  712   1.478   0.747   0.730
   59SOL    HW1  713   1.472   0.704   0.816
   59SOL    HW2  714   1.556   0.801   0.736
   60SOL     OW  715   0.467   1.261   1.737
   60SOL    HW1  716   0.441   1.269   1.645
   60SOL    HW2  717   0.385   1.264   1.786
   61SOL     OW  718   1.120   1.779   0.230
   61SOL    HW1  719   1.057   1.732   0.285
   61SOL    HW2  720   1.149   1.714   0.166
   62SOL     OW  721   0.200   0.295   1.500
   62SOL    HW1  722   0.107   0.315   1.498
   62SOL    HW2  723   0.209   0.224   1.564
   63SOL     OW  724   1.632   1.374   0.089
   63SOL    HW1  725   1.597   1.456   0.054
   63SOL    HW2  726   1.564   1.309   0.069
   64SOL     OW  727   0.478   1.732   0.323
   64SOL    HW1  728   0.518   1.791   0.387
   64SOL    HW2  729   0.552   1.699   0.272
   65SOL     OW  730   1.440   0.141   0.395
   65SOL    HW1  731   1.394   0.057   0.389
   65SOL    HW2  732   1.520   0.122   0.444
   66SOL     OW  733   0.251   1.791   1.231
   66SOL    HW1  734   0.298   1.727   1.285
   66SOL    HW2  735   0.248   1.752   1.144
   67SOL     OW  736   0.937   1.699   0.898
   67SOL    HW1  737   1.016   1.648   0.920
   67SOL    HW2  738   0.895   1.648   0.829
   68SOL     OW  739   0.396   0.695   0.471
   68SOL    HW1  740   0.421   0.603   0.483
   68SOL    HW2  741   0.304   0.699   0.498
   69SOL     OW  742   1.529   0.230   1.727
   69SOL    HW1  743   1.526   0.255   1.819
   69SOL    HW2  744   1.508   0.136   1.727
   70SOL     OW  745   0.628   0.109   0.122
   70SOL    HW1  746   0.724   0.107   0.126
   70SOL    HW2  747   0.609   0.131   0.031
   71SOL     OW  748   0.777   0.283   1.766
   71SOL    HW1  749   0.849   0.220   1.769
   71SOL    HW2  750   0.719   0.257   1.838
   72SOL     OW  751   0.876   1.522   1.194
   72SOL    HW1  752   0.860   1.485   1.107
   72SOL    HW2  753   0.946   1.468   1.231
   73SOL     OW  754   1.340   0.587   1.431
   73SOL    HW1  755   1.371   0.558   1.517
   73SOL    HW2  756   1.375   0.676   1.421
   74SOL     OW  757   0.816   1.394   0.940
   74SOL    HW1  758   0.901   1.382   0.898
   74SOL    HW2  759   0.753   1.395   0.868
   75SOL     OW  760   0.929   0.512   0.900
   75SOL    HW1  761   0.905   0.503   0.808
   75SOL    HW2  762   0.955   0.423   0.926
   76SOL     OW  763   0.551   0.052   0.498
   76SOL    HW1  764   0.476   0.059   0.557
   76SOL    HW2  765   0.544   0.130   0.443
   77SOL     OW  766   1.430   1.204   0.044
   77SOL    HW1  767   1.450   1.124   0.092
   77SOL    HW2  768   1.338   1.222   0.064
   78SOL     OW  769   0.358   3.988   0.173
   78SOL    HW1  770   0.322   0.073   0.147
   78SOL    HW2  771   0.430   0.010   0.233
   79SOL     OW  772   0.941   0.249   0.466
   79SOL    HW1  773   0.910   0.288   0.384
   79SOL    HW2  774   1.037   0.250   0.457
   80SOL     OW  775   1.079   0.683   1.458
   80SOL    HW1  776   1.009   0.618   1.465
   80SOL    HW2  777   1.160   0.631   1.454
   81SOL     OW  778   1.222   1.570   0.795
   81SOL    HW1  779   1.238   1.638   0.728
   81SOL    HW2  780   1.291   1.584   0.860
   82SOL     OW  781   0.465   1.151   0.734
   82SOL    HW1  782   0.394   1.126   0.794
   82SOL    HW2  783   0.429   1.137   0.647
   83SOL     OW  784   1.265   1.794   0.607
   83SOL    HW1  785   1.311   1.858   0.553
   83SOL    HW2  786   1.199   1.846   0.654
   84SOL     OW  787   1.000   0.534   0.054
   84SOL    HW1  788   1.001   0.534  13.858
   84SOL    HW2  789   1.091   0.553   0.078
   85SOL     OW  790   0.080   0.572   1.393
   85SOL    HW1  791   0.169   0.555   1.363
   85SOL    HW2  792   0.090   0.644   1.456
   86SOL     OW  793   0.572   0.231   1.160
   86SOL    HW1  794   0.594   0.139   1.168
   86SOL    HW2  795   0.481   0.237   1.190
   87SOL     OW  796   0.871   0.462   0.638
   87SOL    HW1  797   0.823   0.515   0.574
   87SOL    HW2  798   0.891   0.381   0.592
   88SOL     OW  799   0.996   0.041   0.778
   88SOL    HW1  800   0.955   0.067   0.696
   88SOL    HW2  801   1.007   3.946   0.770
   89SOL     OW  802   1.437   1.162   0.857
   89SOL    HW1  803   1.368   1.096   0.857
   89SOL    HW2  804   1.461   1.172   0.764
   90SOL     OW  805   1.465   0.606   0.975
   90SOL    HW1  806   1.412   0.527   0.980
   90SOL    HW2  807   1.525   0.599   1.049
   91SOL     OW  808   1.846   0.818   0.384
   91SOL    HW1  809   1.899   0.763   0.441
   91SOL    HW2  810   1.812   0.758   0.318
   92SOL     OW  811   0.495   1.380   0.167
   92SOL    HW1  812   0.422   1.353   0.222
   92SOL    HW2  813   0.454   1.417   0.089
   93SOL     OW  814   1.672   1.266   0.642
   93SOL    HW1  815   1.766   1.265   0.660
   93SOL    HW2  816   1.644   1.354   0.666
   94SOL     OW  817   1.419   0.590   0.086
   94SOL    HW1  818   1.350   0.576   0.151
   94SOL    HW2  819   1.472   0.511   0.090
   95SOL     OW  820   0.527   0.258   0.326
   95SOL    HW1  821   0.565   0.209   0.253
   95SOL    HW2  822   0.506   0.344   0.289
   96SOL     OW  823   1.751   1.240   1.571
   96SOL    HW1  824   1.838   1.201   1.566
   96SOL    HW2  825   1.767   1.330   1.599
   97SOL     OW  826   1.057   1.353   1.333
   97SOL    HW1  827   0.982   1.322   1.384
   97SOL    HW2  828   1.133   1.312   1.374
   98SOL     OW  829   1.608   1.626   1.654
   98SOL    HW1  830   1.602   1.662   1.566
   98SOL    HW2  831   1.691   1.579   1.655
   99SOL     OW  832   1.131   1.205   1.104
   99SOL    HW1  833   1.071   1.243   1.169
   99SOL    HW2  834   1.099   1.238   1.020
  100SOL     OW  835   1.626   1.097   1.077
  100SOL    HW1  836   1.621   1.160   1.149
  100SOL    HW2  837   1.548   1.115   1.024
  101SOL     OW  838   0.913   0.114   1.401
  101SOL    HW1  839   0.933   0.088   1.311
  101SOL    HW2  840   0.993   0.156   1.432
  102SOL     OW  841   0.984   1.115   1.723
  102SOL    HW1  842   0.892   1.131   1.745
  102SOL    HW2  843   0.982   1.037   1.668
  103SOL     OW  844   0.715   1.060   0.376
  103SOL    HW1  845   0.700   1.043   0.469
  103SOL    HW2  846   0.789   1.004   0.353
  104SOL     OW  847   0.422   0.816   1.252
  104SOL    HW1  848   0.490   0.823   1.319
  104SOL    HW2  849   0.387   0.728   1.262
  105SOL     OW  850   1.266   0.375   1.276
  105SOL    HW1  851   1.300   0.453   1.321
  105SOL    HW2  852   1.178   0.401   1.247
  106SOL     OW  853   0.065   1.580   1.346
  106SOL    HW1  854   0.070   1.639   1.270
  106SOL    HW2  855   0.156   1.567   1.372
  107SOL     OW  856   0.365   1.104   0.481
  107SOL    HW1  857   0.357   1.181   0.425
  107SOL    HW2  858   0.380   1.031   0.421
  108SOL     OW  859   0.555   0.534   0.858
  108SOL    HW1  860   0.569   0.593   0.784
  108SOL    HW2  861   0.621   0.561   0.923
  109SOL     OW  862   1.249   1.346   0.398
  109SOL    HW1  863   1.304   1.420   0.425
  109SOL    HW2  864   1.161   1.369   0.430
  110SOL     OW  865   1.283   1.459   1.148
  110SOL    HW1  866   1.339   1.462   1.225
  110SOL    HW2  867   1.228   1.382   1.162
  111SOL     OW  868   1.581   0.636   0.490
  111SOL    HW1  869   1.536   0.693   0.552
  111SOL    HW2  870   1.614   0.695   0.422
  112SOL     OW  871   0.345   1.527   1.319
  112SOL    HW1  872   0.336   1.476   1.238
  112SOL    HW2  873   0.439   1.542   1.326
  113SOL     OW  874   0.415   0.738   1.601
  113SOL    HW1  875   0.478   0.783   1.544
  113SOL    HW2  876   0.454   0.651   1.614
  114SOL     OW  877   1.603   0.780   1.684
  114SOL    HW1  878   1.517   0.821   1.677
  114SOL    HW2  879   1.655   0.821   1.616
  115SOL     OW  880   1.013   0.131   1.778
  115SOL    HW1  881   1.063   0.204   1.742
  115SOL    HW2  882   1.003   0.070   1.705
  116SOL     OW  883   0.481   0.036   1.766
  116SOL    HW1  884   0.491   0.045   1.671
  116SOL    HW2  885   0.420   0.106   1.790
  117SOL     OW  886   0.584   0.875   1.031
  117SOL    HW1  887   0.616   0.965   1.034
  117SOL    HW2  888   0.529   0.867   1.109
  118SOL     OW  889   1.355   0.859   1.027
  118SOL    HW1  890   1.270   0.847   0.984
  118SOL    HW2  891   1.397   0.773   1.021
  119SOL     OW  892   1.217   0.549   0.268
  119SOL    HW1  893   1.223   0.469   0.320
  119SOL    HW2  894   1.160   0.606   0.320
  120SOL     OW  895   0.312   0.213   1.241
  120SOL    HW1  896   0.269   0.248   1.319
  120SOL    HW2  897   0.296   0.118   1.246
  121SOL     OW  898   0.060   1.306   1.280
  121SOL    HW1  899   0.091   1.264   1.361
  121SOL    HW2  900   0.051   1.398   1.303
  122SOL     OW  901   0.725   0.634   1.054
  122SOL    HW1  902   0.799   0.618   0.995
  122SOL    HW2  903   0.696   0.722   1.032
  123SOL     OW  904   1.736   0.959   1.854
  123SOL    HW1  905   1.690   0.896   1.798
  123SOL    HW2  906   1.676   0.974   1.927
  124SOL     OW  907   0.331   0.057   0.655
  124SOL    HW1  908   0.305   0.149   0.662
  124SOL    HW2  909   0.281   0.013   0.723
  125SOL     OW  910   1.576   0.390   0.391
  125SOL    HW1  911   1.553   0.328   0.460
  125SOL    HW2  912   1.568   0.476   0.432
  126SOL     OW  913   1.029   0.759   0.959
  126SOL    HW1  914   1.023   0.776   1.053
  126SOL    HW2  915   1.002   0.668   0.950
  127SOL     OW  916   0.982   1.566   1.718
  127SOL    HW1  917   0.967   1.610   1.635
  127SOL    HW2  918   1.026   1.484   1.695
  128SOL     OW  919   1.854   1.503   1.604
  128SOL    HW1  920   1.870   1.533   1.514
  128SOL    HW2  921   1.938   1.515   1.649
  129SOL     OW  922   0.353   0.922   1.799
  129SOL    HW1  923   0.431   0.941   1.851
  129SOL    HW2  924   0.381   0.854   1.737
  130SOL     OW  925   1.538   0.269   0.146
  130SOL    HW1  926   1.469   0.202   0.146
  130SOL    HW2  927   1.538   0.303   0.235
  131SOL     OW  928   1.290   0.832   0.056
  131SOL    HW1  929   1.337   0.748   0.061
  131SOL    HW2  930   1.308   0.864  13.867
  132SOL     OW  931   1.066   1.336   0.854
  132SOL    HW1  932   1.070   1.264   0.792
  132SOL    HW2  933   1.127   1.401   0.820
  133SOL     OW  934   0.313   0.804   0.950
  133SOL    HW1  935   0.408   0.820   0.945
  133SOL    HW2  936   0.306   0.714   0.982
  134SOL     OW  937   0.338   0.529   1.014
  134SOL    HW1  938   0.297   0.444   0.997
  134SOL    HW2  939   0.414   0.532   0.955
  135SOL     OW  940   1.133   0.381   1.696
  135SOL    HW1  941   1.085   0.436   1.758
  135SOL    HW2  942   1.220   0.421   1.691
  136SOL     OW  943   1.151   0.225   1.481
  136SOL    HW1  944   1.142   0.280   1.559
  136SOL    HW2  945   1.176   0.287   1.412
  137SOL     OW  946   0.013   1.325   0.191
  137SOL    HW1  947   3.918   1.339   0.184
  137SOL    HW2  948   0.022   1.234   0.217
  138SOL     OW  949   0.077   1.800   0.888
  138SOL    HW1  950   0.081   1.704   0.893
  138SOL    HW2  951   0.168   1.828   0.892
  139SOL     OW  952   0.502   1.571   0.911
  139SOL    HW1  953   0.571   1.632   0.936
  139SOL    HW2  954   0.545   1.508   0.853
  140SOL     OW  955   0.980   0.790   1.225
  140SOL    HW1  956   1.035   0.769   1.300
  140SOL    HW2  957   0.895   0.752   1.247
  141SOL     OW  958   0.036   0.573   1.112
  141SOL    HW1  959   0.097   0.519   1.062
  141SOL    HW2  960   0.061   0.559   1.204
  142SOL     OW  961   0.211   0.516   1.722
  142SOL    HW1  962   0.258   0.478   1.648
  142SOL    HW2  963   0.162   0.590   1.684
  143SOL     OW  964   1.378   0.937   1.657
  143SOL    HW1  965   1.399   1.031   1.655
  143SOL    HW2  966   1.375   0.911   1.566
  144SOL     OW  967   0.815   0.581   0.372
  144SOL    HW1  968   0.826   0.503   0.317
  144SOL    HW2  969   0.741   0.627   0.333
  145SOL     OW  970   1.641   0.602   1.184
  145SOL    HW1  971   1.631   0.542   1.258
  145SOL    HW2  972   1.728   0.585   1.150
  146SOL     OW  973   0.299   1.544   1.726
  146SOL    HW1  974   0.251   1.614   1.771
  146SOL    HW2  975   0.267   1.464   1.766
  147SOL     OW  976   0.708   0.455   1.257
  147SOL    HW1  977   0.658   0.377   1.232
  147SOL    HW2  978   0.698   0.514   1.182
  148SOL     OW  979   0.926   1.679   1.469
  148SOL    HW1  980   0.901   1.643   1.384
  148SOL    HW2  981   0.921   1.774   1.457
  149SOL     OW  982   0.432   0.492   0.228
  149SOL    HW1  983   0.505   0.553   0.239
  149SOL    HW2  984   0.359   0.548   0.201
  150SOL     OW  985   0.156   1.135   1.474
  150SOL    HW1  986   0.158   1.084   1.555
  150SOL    HW2  987   0.171   1.070   1.405
  151SOL     OW  988   1.324   1.046   1.222
  151SOL    HW1  989   1.347   0.982   1.154
  151SOL    HW2  990   1.255   1.099   1.183
  152SOL     OW  991   1.313   0.858   0.327
  152SOL    HW1  992   1.239   0.824   0.376
  152SOL    HW2  993   1.289   0.844   0.235
  153SOL     OW  994   1.760   1.738   1.149
  153SOL    HW1  995   1.829   1.766   1.088
  153SOL    HW2  996   1.742   1.647   1.125
  154SOL     OW  997   1.242   1.734   1.109
  154SOL    HW1  998   1.325   1.755   1.066
  154SOL    HW2  999   1.249   1.640   1.129
  155SOL     OW 1000   0.077   1.216   1.028
  155SOL    HW1 1001   0.084   1.242   1.120
  155SOL    HW2 1002   3.984   1.226   1.007
  156SOL     OW 1003   0.679   1.667   1.733
  156SOL    HW1 1004   0.621   1.743   1.725
  156SOL    HW2 1005   0.745   1.680   1.664
  157SOL     OW 1006   0.903   0.104   0.136
  157SOL    HW1 1007   0.941   0.090   0.049
  157SOL    HW2 1008   0.910   0.019   0.179
  158SOL     OW 1009   1.702   0.125   0.494
  158SOL    HW1 1010   1.783   0.134   0.444
  158SOL    HW2 1011   1.693   0.031   0.509
  159SOL     OW 1012   1.388   1.573   0.485
  159SOL    HW1 1013   1.443   1.612   0.417
  159SOL    HW2 1014   1.338   1.646   0.520
  160SOL     OW 1015   0.175   1.764   1.829
  160SOL    HW1 1016   0.117   1.714   1.887
  160SOL    HW2 1017   0.215   1.829   1.886
  161SOL     OW 1018   1.276   0.927   0.671
  161SOL    HW1 1019   1.350   0.867   0.681
  161SOL    HW2 1020   1.311   0.999   0.618
  162SOL     OW 1021   0.812   1.274   1.429
  162SOL    HW1 1022   0.783   1.314   1.511
  162SOL    HW2 1023   0.741   1.292   1.367
  163SOL     OW 1024   0.674   1.585   0.186
  163SOL    HW1 1025   0.663   1.618   0.097
  163SOL    HW2 1026   0.629   1.501   0.187
  164SOL     OW 1027   1.622   1.729   1.391
  164SOL    HW1 1028   1.672   1.733   1.309
  164SOL    HW2 1029   1.613   1.820   1.418
  165SOL     OW 1030   1.839   0.177   0.967
  165SOL    HW1 1031   1.872   0.108   0.909
  165SOL    HW2 1032   1.750   0.195   0.934
  166SOL     OW 1033   0.272   0.321   0.715
  166SOL    HW1 1034   0.187   0.357   0.691
  166SOL    HW2 1035   0.266   0.305   0.809
  167SOL     OW 1036   1.217   1.601   0.035
  167SOL    HW1 1037   1.206   1.509   0.061
  167SOL    HW2 1038   1.180   1.605  13.846
  168SOL     OW 1039   0.823   1.005   1.373
  168SOL    HW1 1040   0.867   1.000   1.288
  168SOL    HW2 1041   0.823   1.099   1.394
  169SOL     OW 1042   0.921   0.911   0.287
  169SOL    HW1 1043   0.991   0.950   0.236
  169SOL    HW2 1044   0.963   0.840   0.336
  170SOL     OW 1045   1.483   1.647   0.064
  170SOL    HW1 1046   1.390   1.627   0.055
  170SOL    HW2 1047   1.519   1.637  13.876
  171SOL     OW 1048   0.374   1.303   1.491
  171SOL    HW1 1049   0.358   1.383   1.441
  171SOL    HW2 1050   0.297   1.248   1.474
  172SOL     OW 1051   1.609   1.283   1.280
  172SOL    HW1 1052   1.670   1.272   1.352
  172SOL    HW2 1053   1.550   1.352   1.309
  173SOL     OW 1054   1.054   1.108   0.707
  173SOL    HW1 1055   0.983   1.057   0.746
  173SOL    HW2 1056   1.118   1.043   0.679
  174SOL     OW 1057   1.015   0.249   0.969
  174SOL    HW1 1058   1.004   0.199   0.888
  174SOL    HW2 1059   1.009   0.183   1.038
  175SOL     OW 1060   0.606   1.487   0.483
  175SOL    HW1 1061   0.650   1.438   0.414
  175SOL    HW2 1062   0.536   1.534   0.438
  176SOL     OW 1063   1.720   0.393   1.372
  176SOL    HW1 1064   1.793   0.456   1.376
  176SOL    HW2 1065   1.753   0.321   1.319
  177SOL     OW 1066   0.265   1.315   0.309
  177SOL    HW1 1067   0.187   1.344   0.261
  177SOL    HW2 1068   0.262   1.365   0.390
  178SOL     OW 1069   0.107   0.999   1.718
  178SOL    HW1 1070   0.047   0.991   1.792
  178SOL    HW2 1071   0.193   0.980   1.754
  179SOL     OW 1072   0.694   0.251   1.500
  179SOL    HW1 1073   0.762   0.198   1.459
  179SOL    HW2 1074   0.722   0.260   1.591
  180SOL     OW 1075   0.068   0.366   0.037
  180SOL    HW1 1076   3.977   0.370   0.066
  180SOL    HW2 1077   0.065   0.386  13.844
  181SOL     OW 1078   1.428   0.857   1.399
  181SOL    HW1 1079   1.379   0.919   1.344
  181SOL    HW2 1080   1.517   0.860   1.365
  182SOL     OW 1081   0.051   0.200   0.321
  182SOL    HW1 1082   0.074   0.273   0.264
  182SOL    HW2 1083   0.135   0.157   0.338
  183SOL     OW 1084   1.186   1.347   0.122
  183SOL    HW1 1085   1.092   1.334   0.111
  183SOL    HW2 1086   1.201   1.333   0.216
  184SOL     OW 1087   0.620   0.829   1.436
  184SOL    HW1 1088   0.677   0.904   1.420
  184SOL    HW2 1089   0.680   0.755   1.444
  185SOL     OW 1090   1.488   1.784   0.982
  185SOL    HW1 1091   1.511   1.848   0.914
  185SOL    HW2 1092   1.571   1.763   1.025
  186SOL     OW 1093   0.717   0.562   1.707
  186SOL    HW1 1094   0.761   0.624   1.765
  186SOL    HW2 1095   0.745   0.476   1.738
  187SOL     OW 1096   1.472   1.198   1.631
  187SOL    HW1 1097   1.460   1.212   1.725
  187SOL    HW2 1098   1.565   1.215   1.616
  188SOL     OW 1099   0.379   1.742   1.557
  188SOL    HW1 1100   0.292   1.780   1.545
  188SOL    HW2 1101   0.363   1.661   1.604
  189SOL     OW 1102   1.668   0.881   1.256
  189SOL    HW1 1103   1.663   0.796   1.213
  189SOL    HW2 1104   1.658   0.944   1.184
  190SOL     OW 1105   1.231   0.334   0.436
  190SOL    HW1 1106   1.294   0.262   0.432
  190SOL    HW2 1107   1.248   0.376   0.521
  191SOL     OW 1108   0.589   0.738   0.671
  191SOL    HW1 1109   0.627   0.824   0.654
  191SOL    HW2 1110   0.522   0.728   0.604
  192SOL     OW 1111   1.752   0.383   1.643
  192SOL    HW1 1112   1.733   0.388   1.549
  192SOL    HW2 1113   1.695   0.313   1.674
  193SOL     OW 1114   1.745   0.934   1.512
  193SOL    HW1 1115   1.740   1.029   1.525
  193SOL    HW2 1116   1.729   0.921   1.419
  194SOL     OW 1117   0.907   1.399   0.063
  194SOL    HW1 1118   0.839   1.379   0.127
  194SOL    HW2 1119   0.860   1.404  13.879
  195SOL     OW 1120   0.662   1.789   0.942
  195SOL    HW1 1121   0.642   1.880   0.921
  195SOL    HW2 1122   0.758   1.784   0.936
  196SOL     OW 1123   0.868   0.967   0.854
  196SOL    HW1 1124   0.918   0.896   0.892
  196SOL    HW2 1125   0.832   1.015   0.928
  197SOL     OW 1126   1.098   1.012   0.110
  197SOL    HW1 1127   1.087   1.057   0.027
  197SOL    HW2 1128   1.172   0.953   0.096
  198SOL     OW 1129   1.846   1.527   0.823
  198SOL    HW1 1130   1.759   1.533   0.784
  198SOL    HW2 1131   1.832   1.477   0.904
  199SOL     OW 1132   0.225   1.303   1.856
  199SOL    HW1 1133   0.154   1.246   1.829
  199SOL    HW2 1134   0.212   1.317   1.950
  200SOL     OW 1135   0.110   1.279   0.727
  200SOL    HW1 1136   0.128   1.230   0.807
  200SOL    HW2 1137   0.104   1.213   0.658
  201SOL     OW 1138   0.681   1.404   1.629
  201SOL    HW1 1139   0.601   1.361   1.659
  201SOL    HW2 1140   0.677   1.492   1.666
  202SOL     OW 1141   1.812   0.183   1.238
  202SOL    HW1 1142   1.814   0.089   1.253
  202SOL    HW2 1143   1.826   0.193   1.144
  203SOL     OW 1144   0.441   0.436   0.532
  203SOL    HW1 1145   0.469   0.362   0.478
  203SOL    HW2 1146   0.388   0.397   0.601
  204SOL     OW 1147   1.703   1.482   1.087
  204SOL    HW1 1148   1.619   1.462   1.044
  204SOL    HW2 1149   1.711   1.415   1.155
  205SOL     OW 1150   0.332   0.557   1.293
  205SOL    HW1 1151   0.389   0.500   1.346
  205SOL    HW2 1152   0.348   0.528   1.203
  206SOL     OW 1153   0.829   1.578   0.676
  206SOL    HW1 1154   0.814   1.638   0.603
  206SOL    HW2 1155   0.752   1.520   0.676
  207SOL     OW 1156   1.461   0.253   1.110
  207SOL    HW1 1157   1.478   0.166   1.146
  207SOL    HW2 1158   1.405   0.295   1.176
  208SOL     OW 1159   1.004   0.028   1.146
  208SOL    HW1 1160   0.925   3.988   1.112
  208SOL    HW2 1161   1.066   3.956   1.155
  209SOL     OW 1162   0.777   1.324   0.319
  209SOL    HW1 1163   0.745   1.235   0.335
  209SOL    HW2 1164   0.859   1.328   0.368
  210SOL     OW 1165   0.620   1.557   1.285
  210SOL    HW1 1166   0.622   1.638   1.335
  210SOL    HW2 1167   0.708   1.549   1.248
  211SOL     OW 1168   1.322   0.069   0.130
  211SOL    HW1 1169   1.341   3.984   0.091
  211SOL    HW2 1170   1.255   0.051   0.195
  212SOL     OW 1171   1.282   0.456   0.684
  212SOL    HW1 1172   1.235   0.539   0.679
  212SOL    HW2 1173   1.286   0.436   0.778
  213SOL     OW 1174   1.588   0.210   0.868
  213SOL    HW1 1175   1.539   0.233   0.946
  213SOL    HW2 1176   1.588   0.290   0.815
  214SOL     OW 1177   0.043   1.032   0.255
  214SOL    HW1 1178   0.137   1.015   0.250
  214SOL    HW2 1179   0.008   0.958   0.305
  215SOL     OW 1180   0.894   1.654   0.343
  215SOL    HW1 1181   0.819   1.625   0.292
  215SOL    HW2 1182   0.860   1.727   0.395
  216SOL     OW 1183   0.233   0.627   1.979
  216SOL    HW1 1184   0.140   0.632   2.001
  216SOL    HW2 1185   0.234   0.598   1.888
  217SOL     OW 1186   0.224   0.288   2.845
  217SOL    HW1 1187   0.247   0.250   2.929
  217SOL    HW2 1188   0.130   0.276   2.838
  218SOL     OW 1189   0.018   0.385   2.497
  218SOL    HW1 1190   3.928   0.398   2.527
  218SOL    HW2 1191   0.026   0.291   2.482
  219SOL     OW 1192   0.580   1.287   3.051
  219SOL    HW1 1193   0.493   1.290   3.010
  219SOL    HW2 1194   0.593   1.376   3.083
  220SOL     OW 1195   1.566   1.513   2.571
  220SOL    HW1 1196   1.522   1.493   2.654
  220SOL    HW2 1197   1.494   1.519   2.508
  221SOL     OW 1198   1.132   0.698   2.560
  221SOL    HW1 1199   1.180   0.780   2.548
  221SOL    HW2 1200   1.085   0.711   2.642
  222SOL     OW 1201   1.765   0.619   2.088
  222SOL    HW1 1202   1.744   0.611   1.995
  222SOL    HW2 1203   1.751   0.531   2.123
  223SOL     OW 1204   0.755   1.140   2.903
  223SOL    HW1 1205   0.690   1.175   2.964
  223SOL    HW2 1206   0.790   1.217   2.859
  224SOL     OW 1207   0.870   0.772   3.685
  224SOL    HW1 1208   0.858   0.843   3.748
  224SOL    HW2 1209   0.892   0.815   3.603
  225SOL     OW 1210   0.685   1.003   2.508
  225SOL    HW1 1211   0.751   0.991   2.576
  225SOL    HW2 1212   0.616   1.054   2.550
  226SOL     OW 1213   0.711   1.149   3.677
  226SOL    HW1 1214   0.759   1.227   3.705
  226SOL    HW2 1215   0.629   1.183   3.640
  227SOL     OW 1216   0.351   1.402   2.941
  227SOL    HW1 1217   0.270   1.382   2.894
  227SOL    HW2 1218   0.399   1.460   2.881
  228SOL     OW 1219   1.461   1.501   3.218
  228SOL    HW1 1220   1.513   1.581   3.227
  228SOL    HW2 1221   1.397   1.507   3.289
  229SOL     OW 1222   0.456   0.408   3.358
  229SOL    HW1 1223   0.537   0.357   3.357
  229SOL    HW2 1224   0.387   0.342   3.361
  230SOL     OW 1225   1.612   0.451   2.597
  230SOL    HW1 1226   1.541   0.482   2.540
  230SOL    HW2 1227   1.631   0.525   2.655
  231SOL     OW 1228   0.221   1.718   2.320
  231SOL    HW1 1229   0.240   1.793   2.377
  231SOL    HW2 1230   0.298   1.710   2.264
  232SOL     OW 1231   1.137   1.342   3.555
  232SOL    HW1 1232   1.178   1.336   3.642
  232SOL    HW2 1233   1.085   1.262   3.548
  233SOL     OW 1234   0.249   1.449   2.402
  233SOL    HW1 1235   0.215   1.538   2.388
  233SOL    HW2 1236   0.181   1.405   2.453
  234SOL     OW 1237   0.247   1.067   2.747
  234SOL    HW1 1238   0.266   0.982   2.786
  234SOL    HW2 1239   0.195   1.113   2.812
  235SOL     OW 1240   0.611   1.792   3.290
  235SOL    HW1 1241   0.529   1.774   3.335
  235SOL    HW2 1242   0.634   1.881   3.316
  236SOL     OW 1243   0.578   0.985   2.000
  236SOL    HW1 1244   0.626   1.030   1.930
  236SOL    HW2 1245   0.620   1.015   2.081
  237SOL     OW 1246   1.580   0.139   3.318
  237SOL    HW1 1247   1.609   0.212   3.263
  237SOL    HW2 1248   1.549   0.180   3.399
  238SOL     OW 1249   0.140   0.651   2.431
  238SOL    HW1 1250   0.097   0.566   2.436
  238SOL    HW2 1251   0.102   0.701   2.504
  239SOL     OW 1252   0.044   1.590   2.000
  239SOL    HW1 1253   0.035   1.498   2.025
  239SOL    HW2 1254   3.962   1.630   2.030
  240SOL     OW 1255   1.687   0.917   2.503
  240SOL    HW1 1256   1.772   0.876   2.484
  240SOL    HW2 1257   1.667   0.969   2.426
  241SOL     OW 1258   1.648   1.106   2.291
  241SOL    HW1 1259   1.734   1.110   2.250
  241SOL    HW2 1260   1.653   1.168   2.364
  242SOL     OW 1261   0.139   0.756   3.451
  242SOL    HW1 1262   0.235   0.750   3.447
  242SOL    HW2 1263   0.121   0.845   3.481
  243SOL     OW 1264   0.613   1.386   2.598
  243SOL    HW1 1265   0.567   1.303   2.607
  243SOL    HW2 1266   0.597   1.412   2.507
  244SOL     OW 1267   1.288   1.238   3.285
  244SOL    HW1 1268   1.319   1.170   3.225
  244SOL    HW2 1269   1.346   1.232   3.360
  245SOL     OW 1270   0.819   0.003   2.378
  245SOL    HW1 1271   0.864   0.084   2.354
  245SOL    HW2 1272   0.726   0.027   2.378
  246SOL     OW 1273   0.184   0.951   3.139
  246SOL    HW1 1274   0.273   0.916   3.127
  246SOL    HW2 1275   0.132   0.908   3.072
  247SOL     OW 1276   1.531   0.995   2.062
  247SOL    HW1 1277   1.462   0.938   2.094
  247SOL    HW2 1278   1.573   1.029   2.140
  248SOL     OW 1279   1.185   1.808   3.485
  248SOL    HW1 1280   1.194   1.867   3.411
  248SOL    HW2 1281   1.202   1.721   3.449
  249SOL     OW 1282   0.344   0.252   3.697
  249SOL    HW1 1283   0.387   0.336   3.680
  249SOL    HW2 1284   0.253   0.276   3.716
  250SOL     OW 1285   1.465   1.420   2.812
  250SOL    HW1 1286   1.398   1.435   2.878
  250SOL    HW2 1287   1.453   1.328   2.786
  251SOL     OW 1288   1.667   1.732   2.420
  251SOL    HW1 1289   1.630   1.696   2.339
  251SOL    HW2 1290   1.646   1.666   2.486
  252SOL     OW 1291   0.595   0.718   2.127
  252SOL    HW1 1292   0.601   0.802   2.082
  252SOL    HW2 1293   0.533   0.733   2.198
  253SOL     OW 1294   1.275   0.367   2.802
  253SOL    HW1 1295   1.188   0.329   2.809
  253SOL    HW2 1296   1.332   0.306   2.848
  254SOL     OW 1297   1.575   1.671   2.161
  254SOL    HW1 1298   1.661   1.708   2.140
  254SOL    HW2 1299   1.538   1.646   2.077
  255SOL     OW 1300   0.794   0.616   3.316
  255SOL    HW1 1301   0.765   0.591   3.403
  255SOL    HW2 1302   0.756   0.551   3.257
  256SOL     OW 1303   1.392   0.476   3.539
  256SOL    HW1 1304   1.398   0.521   3.624
  256SOL    HW2 1305   1.450   0.401   3.548
  257SOL     OW 1306   0.953   0.887   3.446
  257SOL    HW1 1307   1.008   0.818   3.409
  257SOL    HW2 1308   0.905   0.922   3.371
  258SOL     OW 1309   0.992   0.403   3.101
  258SOL    HW1 1310   0.907   0.425   3.140
  258SOL    HW2 1311   0.970   0.373   3.013
  259SOL     OW 1312   1.052   0.699   2.288
  259SOL    HW1 1313   1.068   0.692   2.382
  259SOL    HW2 1314   0.969   0.653   2.274
  260SOL     OW 1315   0.081   0.828   2.653
  260SOL    HW1 1316   0.155   0.795   2.703
  260SOL    HW2 1317   0.100   0.921   2.640
  261SOL     OW 1318   0.130   1.861   3.438
  261SOL    HW1 1319   0.137   1.826   3.527
  261SOL    HW2 1320   0.037   1.849   3.415
  262SOL     OW 1321   0.894   0.352   2.060
  262SOL    HW1 1322   0.936   0.411   1.998
  262SOL    HW2 1323   0.893   0.267   2.016
  263SOL     OW 1324   1.709   0.576   3.691
  263SOL    HW1 1325   1.671   0.649   3.643
  263SOL    HW2 1326   1.733   0.512   3.623
  264SOL     OW 1327   1.378   1.141   2.402
  264SOL    HW1 1328   1.458   1.131   2.350
  264SOL    HW2 1329   1.325   1.204   2.352
  265SOL     OW 1330   0.561   0.195   2.743
  265SOL    HW1 1331   0.565   0.218   2.836
  265SOL    HW2 1332   0.547   0.278   2.698
  266SOL     OW 1333   1.004   1.444   2.333
  266SOL    HW1 1334   0.968   1.518   2.283
  266SOL    HW2 1335   0.985   1.464   2.424
  267SOL     OW 1336   0.365   1.817   2.731
  267SOL    HW1 1337   0.429   1.747   2.739
  267SOL    HW2 1338   0.415   1.897   2.747
  268SOL     OW 1339   1.799   1.053   2.732
  268SOL    HW1 1340   1.745   1.038   2.655
  268SOL    HW2 1341   1.737   1.060   2.804
  269SOL     OW 1342   1.228   1.539   3.375
  269SOL    HW1 1343   1.214   1.466   3.436
  269SOL    HW2 1344   1.164   1.524   3.306
  270SOL     OW 1345   0.310   0.954   2.104
  270SOL    HW1 1346   0.394   0.976   2.064
  270SOL    HW2 1347   0.297   0.862   2.083
  271SOL     OW 1348   1.479   0.746   2.592
  271SOL    HW1 1349   1.473   0.704   2.677
  271SOL    HW2 1350   1.557   0.801   2.597
  272SOL     OW 1351   0.467   1.261   3.599
  272SOL    HW1 1352   0.441   1.269   3.507
  272SOL    HW2 1353   0.385   1.264   3.648
  273SOL     OW 1354   1.122   1.776   2.093
  273SOL    HW1 1355   1.048   1.736   2.137
  273SOL    HW2 1356   1.145   1.714   2.024
  274SOL     OW 1357   0.200   0.294   3.361
  274SOL    HW1 1358   0.107   0.315   3.360
  274SOL    HW2 1359   0.209   0.225   3.426
  275SOL     OW 1360   1.628   1.379   1.950
  275SOL    HW1 1361   1.587   1.464   1.933
  275SOL    HW2 1362   1.559   1.316   1.930
  276SOL     OW 1363   0.466   1.739   2.179
  276SOL    HW1 1364   0.509   1.796   2.243
  276SOL    HW2 1365   0.538   1.704   2.126
  277SOL     OW 1366   1.440   0.164   2.267
  277SOL    HW1 1367   1.394   0.097   2.216
  277SOL    HW2 1368   1.512   0.117   2.310
  278SOL     OW 1369   0.251   1.791   3.094
  278SOL    HW1 1370   0.298   1.727   3.147
  278SOL    HW2 1371   0.248   1.752   3.006
  279SOL     OW 1372   0.938   1.699   2.760
  279SOL    HW1 1373   1.016   1.649   2.781
  279SOL    HW2 1374   0.895   1.649   2.691
  280SOL     OW 1375   0.397   0.694   2.333
  280SOL    HW1 1376   0.423   0.604   2.348
  280SOL    HW2 1377   0.305   0.698   2.359
  281SOL     OW 1378   1.529   0.230   3.589
  281SOL    HW1 1379   1.526   0.255   3.681
  281SOL    HW2 1380   1.508   0.136   3.589
  282SOL     OW 1381   0.644   0.131   1.964
  282SOL    HW1 1382   0.669   0.049   2.005
  282SOL    HW2 1383   0.583   0.106   1.895
  283SOL     OW 1384   0.777   0.283   3.628
  283SOL    HW1 1385   0.849   0.220   3.631
  283SOL    HW2 1386   0.719   0.257   3.700
  284SOL     OW 1387   0.876   1.522   3.056
  284SOL    HW1 1388   0.860   1.485   2.969
  284SOL    HW2 1389   0.946   1.468   3.093
  285SOL     OW 1390   1.340   0.587   3.293
  285SOL    HW1 1391   1.371   0.558   3.378
  285SOL    HW2 1392   1.375   0.676   3.283
  286SOL     OW 1393   0.816   1.394   2.803
  286SOL    HW1 1394   0.901   1.382   2.760
  286SOL    HW2 1395   0.753   1.395   2.730
  287SOL     OW 1396   0.930   0.512   2.763
  287SOL    HW1 1397   0.906   0.503   2.671
  287SOL    HW2 1398   0.956   0.423   2.789
  288SOL     OW 1399   0.546   0.056   2.350
  288SOL    HW1 1400   0.472   0.064   2.410
  288SOL    HW2 1401   0.548   0.140   2.304
  289SOL     OW 1402   1.427   1.198   1.902
  289SOL    HW1 1403   1.457   1.123   1.953
  289SOL    HW2 1404   1.342   1.220   1.940
  290SOL     OW 1405   0.343   0.039   2.060
  290SOL    HW1 1406   0.361   0.086   1.978
  290SOL    HW2 1407   0.427   0.035   2.105
  291SOL     OW 1408   0.941   0.249   2.323
  291SOL    HW1 1409   0.915   0.289   2.241
  291SOL    HW2 1410   1.037   0.252   2.323
  292SOL     OW 1411   1.079   0.683   3.321
  292SOL    HW1 1412   1.009   0.618   3.327
  292SOL    HW2 1413   1.160   0.631   3.315
  293SOL     OW 1414   1.222   1.571   2.657
  293SOL    HW1 1415   1.238   1.637   2.590
  293SOL    HW2 1416   1.291   1.584   2.721
  294SOL     OW 1417   0.466   1.151   2.598
  294SOL    HW1 1418   0.395   1.126   2.657
  294SOL    HW2 1419   0.432   1.135   2.510
  295SOL     OW 1420   1.265   1.793   2.471
  295SOL    HW1 1421   1.311   1.855   2.414
  295SOL    HW2 1422   1.199   1.845   2.516
  296SOL     OW 1423   1.022   0.544   1.889
  296SOL    HW1 1424   0.979   0.627   1.870
  296SOL    HW2 1425   1.086   0.565   1.958
  297SOL     OW 1426   0.080   0.572   3.255
  297SOL    HW1 1427   0.169   0.555   3.225
  297SOL    HW2 1428   0.090   0.644   3.318
  298SOL     OW 1429   0.572   0.231   3.022
  298SOL    HW1 1430   0.594   0.139   3.030
  298SOL    HW2 1431   0.481   0.237   3.052
  299SOL     OW 1432   0.871   0.461   2.501
  299SOL    HW1 1433   0.820   0.514   2.439
  299SOL    HW2 1434   0.891   0.380   2.453
  300SOL     OW 1435   0.996   0.040   2.642
  300SOL    HW1 1436   0.960   0.068   2.558
  300SOL    HW2 1437   1.007   3.946   2.633
  301SOL     OW 1438   1.438   1.162   2.719
  301SOL    HW1 1439   1.368   1.097   2.718
  301SOL    HW2 1440   1.463   1.172   2.628
  302SOL     OW 1441   1.465   0.606   2.837
  302SOL    HW1 1442   1.412   0.527   2.842
  302SOL    HW2 1443   1.525   0.600   2.911
  303SOL     OW 1444   1.845   0.819   2.248
  303SOL    HW1 1445   1.901   0.766   2.305
  303SOL    HW2 1446   1.815   0.758   2.181
  304SOL     OW 1447   0.488   1.420   2.022
  304SOL    HW1 1448   0.412   1.389   2.072
  304SOL    HW2 1449   0.471   1.390   1.933
  305SOL     OW 1450   1.671   1.264   2.507
  305SOL    HW1 1451   1.765   1.264   2.521
  305SOL    HW2 1452   1.643   1.353   2.529
  306SOL     OW 1453   1.395   0.575   1.931
  306SOL    HW1 1454   1.332   0.556   2.001
  306SOL    HW2 1455   1.480   0.555   1.970
  307SOL     OW 1456   0.558   0.271   2.180
  307SOL    HW1 1457   0.603   0.231   2.106
  307SOL    HW2 1458   0.528   0.356   2.148
  308SOL     OW 1459   1.751   1.240   3.433
  308SOL    HW1 1460   1.839   1.201   3.428
  308SOL    HW2 1461   1.767   1.330   3.461
  309SOL     OW 1462   1.057   1.354   3.195
  309SOL    HW1 1463   0.982   1.322   3.246
  309SOL    HW2 1464   1.133   1.312   3.236
  310SOL     OW 1465   1.608   1.626   3.516
  310SOL    HW1 1466   1.602   1.662   3.428
  310SOL    HW2 1467   1.691   1.579   3.517
  311SOL     OW 1468   1.131   1.205   2.967
  311SOL    HW1 1469   1.071   1.243   3.031
  311SOL    HW2 1470   1.099   1.238   2.883
  312SOL     OW 1471   1.626   1.097   2.939
  312SOL    HW1 1472   1.621   1.159   3.011
  312SOL    HW2 1473   1.548   1.115   2.886
  313SOL     OW 1474   0.913   0.114   3.263
  313SOL    HW1 1475   0.933   0.088   3.173
  313SOL    HW2 1476   0.993   0.156   3.294
  314SOL     OW 1477   0.984   1.115   3.585
  314SOL    HW1 1478   0.892   1.131   3.607
  314SOL    HW2 1479   0.982   1.037   3.530
  315SOL     OW 1480   0.708   1.061   2.232
  315SOL    HW1 1481   0.694   1.045   2.326
  315SOL    HW2 1482   0.784   1.008   2.210
  316SOL     OW 1483   0.422   0.816   3.114
  316SOL    HW1 1484   0.490   0.823   3.181
  316SOL    HW2 1485   0.387   0.728   3.124
  317SOL     OW 1486   1.266   0.375   3.138
  317SOL    HW1 1487   1.300   0.453   3.183
  317SOL    HW2 1488   1.179   0.401   3.108
  318SOL     OW 1489   0.065   1.580   3.208
  318SOL    HW1 1490   0.070   1.640   3.133
  318SOL    HW2 1491   0.156   1.566   3.234
  319SOL     OW 1492   0.373   1.103   2.345
  319SOL    HW1 1493   0.366   1.181   2.291
  319SOL    HW2 1494   0.371   1.030   2.283
  320SOL     OW 1495   0.555   0.535   2.720
  320SOL    HW1 1496   0.569   0.594   2.646
  320SOL    HW2 1497   0.620   0.562   2.785
  321SOL     OW 1498   1.248   1.349   2.251
  321SOL    HW1 1499   1.303   1.419   2.284
  321SOL    HW2 1500   1.160   1.370   2.285
  322SOL     OW 1501   1.283   1.459   3.010
  322SOL    HW1 1502   1.339   1.462   3.087
  322SOL    HW2 1503   1.228   1.382   3.023
  323SOL     OW 1504   1.576   0.633   2.348
  323SOL    HW1 1505   1.534   0.690   2.412
  323SOL    HW2 1506   1.623   0.693   2.290
  324SOL     OW 1507   0.345   1.527   3.181
  324SOL    HW1 1508   0.336   1.476   3.100
  324SOL    HW2 1509   0.440   1.542   3.188
  325SOL     OW 1510   0.416   0.738   3.463
  325SOL    HW1 1511   0.478   0.784   3.406
  325SOL    HW2 1512   0.454   0.651   3.476
  326SOL     OW 1513   1.603   0.780   3.546
  326SOL    HW1 1514   1.517   0.821   3.539
  326SOL    HW2 1515   1.655   0.821   3.478
  327SOL     OW 1516   1.013   0.131   3.640
  327SOL    HW1 1517   1.063   0.204   3.604
  327SOL    HW2 1518   1.003   0.070   3.567
  328SOL     OW 1519   0.481   0.036   3.628
  328SOL    HW1 1520   0.491   0.045   3.533
  328SOL    HW2 1521   0.420   0.106   3.652
  329SOL     OW 1522   0.584   0.874   2.893
  329SOL    HW1 1523   0.616   0.965   2.895
  329SOL    HW2 1524   0.529   0.867   2.971
  330SOL     OW 1525   1.355   0.858   2.890
  330SOL    HW1 1526   1.271   0.847   2.846
  330SOL    HW2 1527   1.397   0.773   2.883
  331SOL     OW 1528   1.201   0.536   2.121
  331SOL    HW1 1529   1.210   0.457   2.174
  331SOL    HW2 1530   1.158   0.599   2.179
  332SOL     OW 1531   0.312   0.213   3.103
  332SOL    HW1 1532   0.269   0.249   3.180
  332SOL    HW2 1533   0.296   0.118   3.108
  333SOL     OW 1534   0.060   1.306   3.142
  333SOL    HW1 1535   0.091   1.264   3.223
  333SOL    HW2 1536   0.052   1.398   3.165
  334SOL     OW 1537   0.725   0.634   2.916
  334SOL    HW1 1538   0.799   0.618   2.858
  334SOL    HW2 1539   0.696   0.722   2.894
  335SOL     OW 1540   1.736   0.959   3.716
  335SOL    HW1 1541   1.690   0.896   3.660
  335SOL    HW2 1542   1.676   0.974   3.789
  336SOL     OW 1543   0.329   0.055   2.515
  336SOL    HW1 1544   0.300   0.146   2.516
  336SOL    HW2 1545   0.291   0.017   2.595
  337SOL     OW 1546   1.606   0.390   2.243
  337SOL    HW1 1547   1.569   0.322   2.299
  337SOL    HW2 1548   1.586   0.472   2.288
  338SOL     OW 1549   1.029   0.759   2.821
  338SOL    HW1 1550   1.023   0.776   2.915
  338SOL    HW2 1551   1.002   0.668   2.812
  339SOL     OW 1552   0.982   1.566   3.580
  339SOL    HW1 1553   0.967   1.610   3.497
  339SOL    HW2 1554   1.026   1.484   3.557
  340SOL     OW 1555   1.854   1.503   3.466
  340SOL    HW1 1556   1.870   1.533   3.377
  340SOL    HW2 1557   1.938   1.515   3.511
  341SOL     OW 1558   0.353   0.922   3.661
  341SOL    HW1 1559   0.431   0.941   3.713
  341SOL    HW2 1560   0.381   0.854   3.599
  342SOL     OW 1561   1.506   0.276   1.997
  342SOL    HW1 1562   1.432   0.216   2.009
  342SOL    HW2 1563   1.519   0.315   2.084
  343SOL     OW 1564   1.289   0.827   1.891
  343SOL    HW1 1565   1.332   0.741   1.895
  343SOL    HW2 1566   1.321   0.866   1.810
  344SOL     OW 1567   1.066   1.336   2.717
  344SOL    HW1 1568   1.070   1.264   2.654
  344SOL    HW2 1569   1.127   1.402   2.682
  345SOL     OW 1570   0.313   0.803   2.812
  345SOL    HW1 1571   0.407   0.820   2.806
  345SOL    HW2 1572   0.306   0.713   2.844
  346SOL     OW 1573   0.338   0.528   2.876
  346SOL    HW1 1574   0.297   0.443   2.858
  346SOL    HW2 1575   0.413   0.532   2.817
  347SOL     OW 1576   1.133   0.381   3.558
  347SOL    HW1 1577   1.085   0.436   3.620
  347SOL    HW2 1578   1.220   0.421   3.553
  348SOL     OW 1579   1.151   0.225   3.343
  348SOL    HW1 1580   1.142   0.280   3.421
  348SOL    HW2 1581   1.176   0.287   3.274
  349SOL     OW 1582   0.000   1.318   2.044
  349SOL    HW1 1583   3.906   1.334   2.048
  349SOL    HW2 1584   0.009   1.224   2.063
  350SOL     OW 1585   0.077   1.800   2.751
  350SOL    HW1 1586   0.082   1.705   2.756
  350SOL    HW2 1587   0.168   1.829   2.755
  351SOL     OW 1588   0.502   1.571   2.773
  351SOL    HW1 1589   0.571   1.632   2.798
  351SOL    HW2 1590   0.545   1.508   2.715
  352SOL     OW 1591   0.980   0.790   3.087
  352SOL    HW1 1592   1.036   0.769   3.162
  352SOL    HW2 1593   0.895   0.752   3.109
  353SOL     OW 1594   0.035   0.572   2.974
  353SOL    HW1 1595   0.099   0.521   2.924
  353SOL    HW2 1596   0.061   0.558   3.066
  354SOL     OW 1597   0.211   0.516   3.584
  354SOL    HW1 1598   0.258   0.478   3.510
  354SOL    HW2 1599   0.163   0.590   3.546
  355SOL     OW 1600   1.378   0.937   3.519
  355SOL    HW1 1601   1.399   1.031   3.517
  355SOL    HW2 1602   1.375   0.911   3.428
  356SOL     OW 1603   0.818   0.572   2.223
  356SOL    HW1 1604   0.824   0.495   2.166
  356SOL    HW2 1605   0.743   0.621   2.190
  357SOL     OW 1606   1.641   0.602   3.046
  357SOL    HW1 1607   1.631   0.542   3.120
  357SOL    HW2 1608   1.728   0.584   3.012
  358SOL     OW 1609   0.299   1.544   3.588
  358SOL    HW1 1610   0.251   1.614   3.633
  358SOL    HW2 1611   0.267   1.464   3.628
  359SOL     OW 1612   0.707   0.455   3.119
  359SOL    HW1 1613   0.658   0.377   3.094
  359SOL    HW2 1614   0.698   0.514   3.044
  360SOL     OW 1615   0.926   1.679   3.331
  360SOL    HW1 1616   0.901   1.643   3.246
  360SOL    HW2 1617   0.921   1.774   3.319
  361SOL     OW 1618   0.455   0.492   2.059
  361SOL    HW1 1619   0.519   0.561   2.076
  361SOL    HW2 1620   0.375   0.539   2.035
  362SOL     OW 1621   0.156   1.135   3.336
  362SOL    HW1 1622   0.158   1.084   3.417
  362SOL    HW2 1623   0.171   1.070   3.267
  363SOL     OW 1624   1.324   1.046   3.084
  363SOL    HW1 1625   1.347   0.982   3.016
  363SOL    HW2 1626   1.255   1.099   3.045
  364SOL     OW 1627   1.313   0.856   2.167
  364SOL    HW1 1628   1.238   0.827   2.219
  364SOL    HW2 1629   1.287   0.843   2.076
  365SOL     OW 1630   1.757   1.738   3.009
  365SOL    HW1 1631   1.828   1.765   2.950
  365SOL    HW2 1632   1.739   1.647   2.986
  366SOL     OW 1633   1.243   1.734   2.971
  366SOL    HW1 1634   1.325   1.755   2.928
  366SOL    HW2 1635   1.249   1.640   2.991
  367SOL     OW 1636   0.077   1.217   2.889
  367SOL    HW1 1637   0.083   1.243   2.981
  367SOL    HW2 1638   3.984   1.226   2.868
  368SOL     OW 1639   0.679   1.667   3.595
  368SOL    HW1 1640   0.621   1.743   3.587
  368SOL    HW2 1641   0.745   1.680   3.526
  369SOL     OW 1642   1.713   0.125   2.349
  369SOL    HW1 1643   1.792   0.134   2.296
  369SOL    HW2 1644   1.705   0.031   2.364
  370SOL     OW 1645   1.391   1.568   2.349
  370SOL    HW1 1646   1.447   1.601   2.278
  370SOL    HW2 1647   1.341   1.644   2.378
  371SOL     OW 1648   0.175   1.764   3.691
  371SOL    HW1 1649   0.117   1.714   3.749
  371SOL    HW2 1650   0.215   1.829   3.748
  372SOL     OW 1651   1.277   0.927   2.533
  372SOL    HW1 1652   1.351   0.867   2.543
  372SOL    HW2 1653   1.311   0.999   2.480
  373SOL     OW 1654   0.812   1.274   3.291
  373SOL    HW1 1655   0.783   1.314   3.373
  373SOL    HW2 1656   0.741   1.292   3.229
  374SOL     OW 1657   0.670   1.621   2.017
  374SOL    HW1 1658   0.681   1.633   1.923
  374SOL    HW2 1659   0.615   1.543   2.025
  375SOL     OW 1660   1.622   1.729   3.253
  375SOL    HW1 1661   1.671   1.734   3.171
  375SOL    HW2 1662   1.613   1.820   3.280
  376SOL     OW 1663   1.839   0.177   2.829
  376SOL    HW1 1664   1.871   0.108   2.771
  376SOL    HW2 1665   1.751   0.196   2.797
  377SOL     OW 1666   0.274   0.323   2.576
  377SOL    HW1 1667   0.189   0.358   2.551
  377SOL    HW2 1668   0.266   0.306   2.670
  378SOL     OW 1669   1.207   1.605   1.894
  378SOL    HW1 1670   1.197   1.513   1.920
  378SOL    HW2 1671   1.141   1.617   1.825
  379SOL     OW 1672   0.823   1.005   3.235
  379SOL    HW1 1673   0.867   1.000   3.150
  379SOL    HW2 1674   0.822   1.099   3.256
  380SOL     OW 1675   0.915   0.910   2.152
  380SOL    HW1 1676   0.977   0.943   2.086
  380SOL    HW2 1677   0.963   0.842   2.198
  381SOL     OW 1678   1.487   1.622   1.902
  381SOL    HW1 1679   1.393   1.617   1.887
  381SOL    HW2 1680   1.526   1.630   1.815
  382SOL     OW 1681   0.374   1.303   3.353
  382SOL    HW1 1682   0.359   1.383   3.303
  382SOL    HW2 1683   0.297   1.248   3.336
  383SOL     OW 1684   1.609   1.283   3.142
  383SOL    HW1 1685   1.670   1.271   3.215
  383SOL    HW2 1686   1.550   1.352   3.171
  384SOL     OW 1687   1.054   1.108   2.569
  384SOL    HW1 1688   0.983   1.057   2.608
  384SOL    HW2 1689   1.118   1.043   2.540
  385SOL     OW 1690   1.014   0.249   2.831
  385SOL    HW1 1691   1.004   0.198   2.750
  385SOL    HW2 1692   1.010   0.183   2.901
  386SOL     OW 1693   0.606   1.489   2.344
  386SOL    HW1 1694   0.650   1.439   2.275
  386SOL    HW2 1695   0.532   1.530   2.299
  387SOL     OW 1696   1.720   0.393   3.235
  387SOL    HW1 1697   1.792   0.456   3.239
  387SOL    HW2 1698   1.753   0.321   3.181
  388SOL     OW 1699   0.253   1.341   2.155
  388SOL    HW1 1700   0.160   1.349   2.135
  388SOL    HW2 1701   0.263   1.380   2.242
  389SOL     OW 1702   0.107   0.999   3.580
  389SOL    HW1 1703   0.047   0.991   3.654
  389SOL    HW2 1704   0.193   0.980   3.616
  390SOL     OW 1705   0.694   0.251   3.362
  390SOL    HW1 1706   0.762   0.198   3.321
  390SOL    HW2 1707   0.722   0.260   3.453
  391SOL     OW 1708   0.088   0.323   1.889
  391SOL    HW1 1709   3.993   0.319   1.882
  391SOL    HW2 1710   0.112   0.405   1.847
  392SOL     OW 1711   1.428   0.857   3.261
  392SOL    HW1 1712   1.379   0.919   3.206
  392SOL    HW2 1713   1.517   0.860   3.227
  393SOL     OW 1714   0.037   0.167   2.146
  393SOL    HW1 1715   0.036   0.234   2.079
  393SOL    HW2 1716   0.115   0.186   2.199
  394SOL     OW 1717   1.178   1.338   1.979
  394SOL    HW1 1718   1.088   1.307   1.981
  394SOL    HW2 1719   1.206   1.338   2.071
  395SOL     OW 1720   0.620   0.829   3.298
  395SOL    HW1 1721   0.677   0.904   3.282
  395SOL    HW2 1722   0.681   0.755   3.306
  396SOL     OW 1723   1.488   1.784   2.844
  396SOL    HW1 1724   1.510   1.848   2.777
  396SOL    HW2 1725   1.571   1.764   2.887
  397SOL     OW 1726   0.717   0.562   3.569
  397SOL    HW1 1727   0.761   0.624   3.627
  397SOL    HW2 1728   0.745   0.476   3.600
  398SOL     OW 1729   1.472   1.198   3.493
  398SOL    HW1 1730   1.460   1.212   3.587
  398SOL    HW2 1731   1.565   1.215   3.478
  399SOL     OW 1732   0.379   1.743   3.419
  399SOL    HW1 1733   0.292   1.780   3.407
  399SOL    HW2 1734   0.363   1.661   3.466
  400SOL     OW 1735   1.668   0.881   3.118
  400SOL    HW1 1736   1.663   0.796   3.075
  400SOL    HW2 1737   1.658   0.944   3.046
  401SOL     OW 1738   1.224   0.336   2.305
  401SOL    HW1 1739   1.291   0.268   2.298
  401SOL    HW2 1740   1.243   0.380   2.388
  402SOL     OW 1741   0.591   0.738   2.532
  402SOL    HW1 1742   0.628   0.825   2.516
  402SOL    HW2 1743   0.523   0.729   2.466
  403SOL     OW 1744   1.752   0.383   3.505
  403SOL    HW1 1745   1.733   0.388   3.411
  403SOL    HW2 1746   1.695   0.313   3.536
  404SOL     OW 1747   1.745   0.934   3.374
  404SOL    HW1 1748   1.740   1.029   3.387
  404SOL    HW2 1749   1.729   0.921   3.281
  405SOL     OW 1750   0.862   1.366   1.898
  405SOL    HW1 1751   0.824   1.394   1.982
  405SOL    HW2 1752   0.880   1.448   1.851
  406SOL     OW 1753   0.662   1.789   2.805
  406SOL    HW1 1754   0.642   1.880   2.783
  406SOL    HW2 1755   0.758   1.783   2.798
  407SOL     OW 1756   0.868   0.967   2.716
  407SOL    HW1 1757   0.918   0.896   2.755
  407SOL    HW2 1758   0.832   1.015   2.791
  408SOL     OW 1759   1.078   0.989   1.951
  408SOL    HW1 1760   1.057   1.040   1.873
  408SOL    HW2 1761   1.153   0.935   1.925
  409SOL     OW 1762   1.844   1.535   2.689
  409SOL    HW1 1763   1.758   1.534   2.647
  409SOL    HW2 1764   1.834   1.479   2.765
  410SOL     OW 1765   0.225   1.303   3.718
  410SOL    HW1 1766   0.153   1.246   3.691
  410SOL    HW2 1767   0.212   1.317   3.812
  411SOL     OW 1768   0.119   1.278   2.582
  411SOL    HW1 1769   0.131   1.227   2.662
  411SOL    HW2 1770   0.107   1.212   2.513
  412SOL     OW 1771   0.681   1.404   3.491
  412SOL    HW1 1772   0.601   1.361   3.521
  412SOL    HW2 1773   0.677   1.492   3.528
  413SOL     OW 1774   1.811   0.183   3.101
  413SOL    HW1 1775   1.814   0.089   3.116
  413SOL    HW2 1776   1.826   0.193   3.007
  414SOL     OW 1777   0.443   0.437   2.393
  414SOL    HW1 1778   0.459   0.362   2.336
  414SOL    HW2 1779   0.388   0.403   2.463
  415SOL     OW 1780   1.702   1.481   2.950
  415SOL    HW1 1781   1.619   1.462   2.907
  415SOL    HW2 1782   1.710   1.414   3.018
  416SOL     OW 1783   0.332   0.557   3.155
  416SOL    HW1 1784   0.389   0.500   3.208
  416SOL    HW2 1785   0.348   0.528   3.065
  417SOL     OW 1786   0.828   1.578   2.538
  417SOL    HW1 1787   0.814   1.638   2.465
  417SOL    HW2 1788   0.752   1.520   2.538
  418SOL     OW 1789   1.461   0.253   2.973
  418SOL    HW1 1790   1.478   0.166   3.009
  418SOL    HW2 1791   1.405   0.296   3.038
  419SOL     OW 1792   1.004   0.029   3.009
  419SOL    HW1 1793   0.925   3.988   2.974
  419SOL    HW2 1794   1.067   3.957   3.017
  420SOL     OW 1795   0.772   1.333   2.179
  420SOL    HW1 1796   0.743   1.242   2.185
  420SOL    HW2 1797   0.854   1.335   2.228
  421SOL     OW 1798   0.620   1.557   3.147
  421SOL    HW1 1799   0.622   1.638   3.197
  421SOL    HW2 1800   0.708   1.549   3.110
  422SOL     OW 1801   1.312   0.074   2.026
  422SOL    HW1 1802   1.326   3.997   1.971
  422SOL    HW2 1803   1.226   0.059   2.066
  423SOL     OW 1804   1.283   0.457   2.548
  423SOL    HW1 1805   1.235   0.540   2.543
  423SOL    HW2 1806   1.286   0.437   2.641
  424SOL     OW 1807   1.588   0.210   2.730
  424SOL    HW1 1808   1.539   0.234   2.808
  424SOL    HW2 1809   1.588   0.290   2.676
  425SOL     OW 1810   0.047   1.049   2.102
  425SOL    HW1 1811   0.141   1.033   2.093
  425SOL    HW2 1812   0.011   0.967   2.134
  426SOL     OW 1813   0.886   1.655   2.202
  426SOL    HW1 1814   0.812   1.638   2.144
  426SOL    HW2 1815   0.857   1.729   2.256
  427SOL     OW 1816   0.233   0.627   3.841
  427SOL    HW1 1817   0.139   0.632   3.863
  427SOL    HW2 1818   0.234   0.598   3.750
  428SOL     OW 1819   0.224   0.288   4.707
  428SOL    HW1 1820   0.247   0.250   4.791
  428SOL    HW2 1821   0.130   0.276   4.700
  429SOL     OW 1822   0.018   0.385   4.359
  429SOL    HW1 1823   3.928   0.398   4.389
  429SOL    HW2 1824   0.025   0.291   4.344
  430SOL     OW 1825   0.580   1.287   4.913
  430SOL    HW1 1826   0.493   1.289   4.872
  430SOL    HW2 1827   0.593   1.376   4.945
  431SOL     OW 1828   1.566   1.513   4.433
  431SOL    HW1 1829   1.523   1.493   4.516
  431SOL    HW2 1830   1.494   1.519   4.370
  432SOL     OW 1831   1.132   0.698   4.422
  432SOL    HW1 1832   1.180   0.780   4.410
  432SOL    HW2 1833   1.085   0.711   4.504
  433SOL     OW 1834   1.764   0.619   3.950
  433SOL    HW1 1835   1.744   0.611   3.857
  433SOL    HW2 1836   1.752   0.531   3.984
  434SOL     OW 1837   0.755   1.140   4.765
  434SOL    HW1 1838   0.690   1.175   4.826
  434SOL    HW2 1839   0.790   1.217   4.721
  435SOL     OW 1840   0.870   0.772   5.547
  435SOL    HW1 1841   0.857   0.844   5.609
  435SOL    HW2 1842   0.892   0.815   5.465
  436SOL     OW 1843   0.685   1.003   4.370
  436SOL    HW1 1844   0.751   0.991   4.438
  436SOL    HW2 1845   0.616   1.054   4.412
  437SOL     OW 1846   0.711   1.150   5.540
  437SOL    HW1 1847   0.759   1.228   5.567
  437SOL    HW2 1848   0.630   1.183   5.502
  438SOL     OW 1849   0.351   1.402   4.803
  438SOL    HW1 1850   0.270   1.382   4.756
  438SOL    HW2 1851   0.399   1.460   4.743
  439SOL     OW 1852   1.461   1.501   5.080
  439SOL    HW1 1853   1.513   1.580   5.088
  439SOL    HW2 1854   1.397   1.507   5.151
  440SOL     OW 1855   0.456   0.408   5.221
  440SOL    HW1 1856   0.537   0.357   5.219
  440SOL    HW2 1857   0.387   0.342   5.223
  441SOL     OW 1858   1.612   0.451   4.459
  441SOL    HW1 1859   1.542   0.482   4.402
  441SOL    HW2 1860   1.631   0.525   4.517
  442SOL     OW 1861   0.221   1.718   4.182
  442SOL    HW1 1862   0.240   1.793   4.239
  442SOL    HW2 1863   0.298   1.710   4.126
  443SOL     OW 1864   1.137   1.342   5.417
  443SOL    HW1 1865   1.178   1.336   5.503
  443SOL    HW2 1866   1.085   1.262   5.410
  444SOL     OW 1867   0.249   1.449   4.264
  444SOL    HW1 1868   0.215   1.538   4.250
  444SOL    HW2 1869   0.181   1.406   4.315
  445SOL     OW 1870   0.247   1.067   4.609
  445SOL    HW1 1871   0.266   0.982   4.648
  445SOL    HW2 1872   0.195   1.113   4.674
  446SOL     OW 1873   0.611   1.792   5.152
  446SOL    HW1 1874   0.528   1.774   5.197
  446SOL    HW2 1875   0.634   1.881   5.178
  447SOL     OW 1876   0.578   0.985   3.862
  447SOL    HW1 1877   0.626   1.030   3.792
  447SOL    HW2 1878   0.620   1.015   3.943
  448SOL     OW 1879   1.580   0.139   5.180
  448SOL    HW1 1880   1.609   0.212   5.125
  448SOL    HW2 1881   1.549   0.180   5.261
  449SOL     OW 1882   0.140   0.651   4.293
  449SOL    HW1 1883   0.097   0.566   4.298
  449SOL    HW2 1884   0.102   0.701   4.366
  450SOL     OW 1885   0.044   1.590   3.863
  450SOL    HW1 1886   0.035   1.498   3.887
  450SOL    HW2 1887   3.962   1.630   3.892
  451SOL     OW 1888   1.687   0.916   4.365
  451SOL    HW1 1889   1.772   0.876   4.347
  451SOL    HW2 1890   1.667   0.969   4.287
  452SOL     OW 1891   1.648   1.106   4.153
  452SOL    HW1 1892   1.734   1.110   4.112
  452SOL    HW2 1893   1.653   1.168   4.226
  453SOL     OW 1894   0.139   0.755   5.313
  453SOL    HW1 1895   0.235   0.750   5.310
  453SOL    HW2 1896   0.121   0.845   5.342
  454SOL     OW 1897   0.613   1.386   4.460
  454SOL    HW1 1898   0.567   1.303   4.469
  454SOL    HW2 1899   0.597   1.412   4.369
  455SOL     OW 1900   1.287   1.237   5.147
  455SOL    HW1 1901   1.319   1.170   5.087
  455SOL    HW2 1902   1.346   1.232   5.222
  456SOL     OW 1903   0.819   0.003   4.240
  456SOL    HW1 1904   0.864   0.084   4.216
  456SOL    HW2 1905   0.726   0.027   4.240
  457SOL     OW 1906   0.184   0.951   5.002
  457SOL    HW1 1907   0.272   0.916   4.989
  457SOL    HW2 1908   0.131   0.908   4.934
  458SOL     OW 1909   1.531   0.995   3.924
  458SOL    HW1 1910   1.462   0.938   3.956
  458SOL    HW2 1911   1.573   1.029   4.002
  459SOL     OW 1912   1.183   1.807   5.347
  459SOL    HW1 1913   1.194   1.867   5.273
  459SOL    HW2 1914   1.201   1.721   5.311
  460SOL     OW 1915   0.344   0.252   5.560
  460SOL    HW1 1916   0.386   0.336   5.541
  460SOL    HW2 1917   0.253   0.276   5.578
  461SOL     OW 1918   1.465   1.420   4.674
  461SOL    HW1 1919   1.398   1.435   4.740
  461SOL    HW2 1920   1.453   1.328   4.648
  462SOL     OW 1921   1.666   1.733   4.282
  462SOL    HW1 1922   1.630   1.697   4.201
  462SOL    HW2 1923   1.646   1.667   4.348
  463SOL     OW 1924   0.596   0.718   3.989
  463SOL    HW1 1925   0.601   0.802   3.944
  463SOL    HW2 1926   0.533   0.733   4.060
  464SOL     OW 1927   1.275   0.367   4.665
  464SOL    HW1 1928   1.188   0.328   4.671
  464SOL    HW2 1929   1.332   0.306   4.710
  465SOL     OW 1930   1.575   1.671   4.023
  465SOL    HW1 1931   1.661   1.707   4.002
  465SOL    HW2 1932   1.538   1.646   3.939
  466SOL     OW 1933   0.794   0.616   5.178
  466SOL    HW1 1934   0.765   0.591   5.265
  466SOL    HW2 1935   0.756   0.551   5.119
  467SOL     OW 1936   1.392   0.476   5.401
  467SOL    HW1 1937   1.398   0.521   5.486
  467SOL    HW2 1938   1.450   0.401   5.410
  468SOL     OW 1939   0.953   0.887   5.308
  468SOL    HW1 1940   1.008   0.818   5.271
  468SOL    HW2 1941   0.905   0.922   5.233
  469SOL     OW 1942   0.991   0.403   4.963
  469SOL    HW1 1943   0.907   0.425   5.002
  469SOL    HW2 1944   0.970   0.373   4.875
  470SOL     OW 1945   1.052   0.699   4.150
  470SOL    HW1 1946   1.068   0.692   4.244
  470SOL    HW2 1947   0.969   0.653   4.136
  471SOL     OW 1948   0.081   0.828   4.515
  471SOL    HW1 1949   0.156   0.795   4.565
  471SOL    HW2 1950   0.100   0.921   4.502
  472SOL     OW 1951   0.130   1.861   5.300
  472SOL    HW1 1952   0.137   1.826   5.389
  472SOL    HW2 1953   0.038   1.849   5.277
  473SOL     OW 1954   0.894   0.352   3.922
  473SOL    HW1 1955   0.936   0.411   3.860
  473SOL    HW2 1956   0.893   0.267   3.878
  474SOL     OW 1957   1.709   0.576   5.553
  474SOL    HW1 1958   1.671   0.649   5.504
  474SOL    HW2 1959   1.733   0.512   5.486
  475SOL     OW 1960   1.378   1.141   4.264
  475SOL    HW1 1961   1.458   1.130   4.212
  475SOL    HW2 1962   1.325   1.204   4.214
  476SOL     OW 1963   0.561   0.195   4.605
  476SOL    HW1 1964   0.565   0.218   4.698
  476SOL    HW2 1965   0.547   0.278   4.560
  477SOL     OW 1966   1.004   1.444   4.195
  477SOL    HW1 1967   0.968   1.518   4.145
  477SOL    HW2 1968   0.985   1.465   4.286
  478SOL     OW 1969   0.365   1.817   4.593
  478SOL    HW1 1970   0.429   1.747   4.601
  478SOL    HW2 1971   0.415   1.897   4.609
  479SOL     OW 1972   1.799   1.053   4.594
  479SOL    HW1 1973   1.745   1.039   4.517
  479SOL    HW2 1974   1.737   1.060   4.666
  480SOL     OW 1975   1.227   1.539   5.237
  480SOL    HW1 1976   1.214   1.466   5.298
  480SOL    HW2 1977   1.164   1.524   5.167
  481SOL     OW 1978   0.310   0.954   3.966
  481SOL    HW1 1979   0.394   0.976   3.926
  481SOL    HW2 1980   0.297   0.862   3.945
  482SOL     OW 1981   1.479   0.746   4.454
  482SOL    HW1 1982   1.473   0.704   4.539
  482SOL    HW2 1983   1.557   0.801   4.459
  483SOL     OW 1984   0.467   1.260   5.461
  483SOL    HW1 1985   0.441   1.268   5.370
  483SOL    HW2 1986   0.385   1.264   5.510
  484SOL     OW 1987   1.122   1.776   3.955
  484SOL    HW1 1988   1.047   1.736   3.999
  484SOL    HW2 1989   1.145   1.714   3.886
  485SOL     OW 1990   0.200   0.295   5.224
  485SOL    HW1 1991   0.107   0.315   5.222
  485SOL    HW2 1992   0.208   0.224   5.288
  486SOL     OW 1993   1.628   1.380   3.812
  486SOL    HW1 1994   1.587   1.465   3.795
  486SOL    HW2 1995   1.559   1.316   3.792
  487SOL     OW 1996   0.466   1.739   4.041
  487SOL    HW1 1997   0.509   1.796   4.105
  487SOL    HW2 1998   0.538   1.704   3.988
  488SOL     OW 1999   1.440   0.164   4.129
  488SOL    HW1 2000   1.394   0.097   4.078
  488SOL    HW2 2001   1.512   0.117   4.171
  489SOL     OW 2002   0.252   1.791   4.955
  489SOL    HW1 2003   0.298   1.726   5.008
  489SOL    HW2 2004   0.248   1.752   4.868
  490SOL     OW 2005   0.938   1.699   4.622
  490SOL    HW1 2006   1.017   1.649   4.643
  490SOL    HW2 2007   0.895   1.649   4.553
  491SOL     OW 2008   0.397   0.694   4.195
  491SOL    HW1 2009   0.423   0.603   4.210
  491SOL    HW2 2010   0.305   0.698   4.221
  492SOL     OW 2011   1.529   0.229   5.451
  492SOL    HW1 2012   1.526   0.254   5.543
  492SOL    HW2 2013   1.509   0.136   5.451
  493SOL     OW 2014   0.644   0.131   3.826
  493SOL    HW1 2015   0.669   0.049   3.867
  493SOL    HW2 2016   0.583   0.106   3.757
  494SOL     OW 2017   0.777   0.283   5.490
  494SOL    HW1 2018   0.849   0.220   5.493
  494SOL    HW2 2019   0.719   0.257   5.562
  495SOL     OW 2020   0.875   1.521   4.918
  495SOL    HW1 2021   0.860   1.485   4.831
  495SOL    HW2 2022   0.946   1.468   4.955
  496SOL     OW 2023   1.340   0.587   5.155
  496SOL    HW1 2024   1.371   0.558   5.240
  496SOL    HW2 2025   1.375   0.676   5.145
  497SOL     OW 2026   0.816   1.394   4.665
  497SOL    HW1 2027   0.901   1.382   4.622
  497SOL    HW2 2028   0.753   1.395   4.592
  498SOL     OW 2029   0.930   0.512   4.625
  498SOL    HW1 2030   0.906   0.503   4.533
  498SOL    HW2 2031   0.956   0.423   4.651
  499SOL     OW 2032   0.546   0.056   4.212
  499SOL    HW1 2033   0.472   0.064   4.272
  499SOL    HW2 2034   0.548   0.140   4.166
  500SOL     OW 2035   1.427   1.198   3.765
  500SOL    HW1 2036   1.457   1.123   3.815
  500SOL    HW2 2037   1.342   1.220   3.802
  501SOL     OW 2038   0.343   0.039   3.922
  501SOL    HW1 2039   0.361   0.086   3.840
  501SOL    HW2 2040   0.427   0.035   3.967
  502SOL     OW 2041   0.941   0.249   4.185
  502SOL    HW1 2042   0.915   0.289   4.103
  502SOL    HW2 2043   1.037   0.252   4.185
  503SOL     OW 2044   1.079   0.683   5.183
  503SOL    HW1 2045   1.010   0.617   5.189
  503SOL    HW2 2046   1.160   0.631   5.177
  504SOL     OW 2047   1.222   1.571   4.519
  504SOL    HW1 2048   1.238   1.637   4.452
  504SOL    HW2 2049   1.291   1.584   4.583
  505SOL     OW 2050   0.466   1.151   4.460
  505SOL    HW1 2051   0.395   1.126   4.519
  505SOL    HW2 2052   0.432   1.135   4.372
  506SOL     OW 2053   1.265   1.793   4.333
  506SOL    HW1 2054   1.311   1.855   4.276
  506SOL    HW2 2055   1.200   1.845   4.378
  507SOL     OW 2056   1.022   0.544   3.751
  507SOL    HW1 2057   0.979   0.627   3.732
  507SOL    HW2 2058   1.086   0.565   3.820
  508SOL     OW 2059   0.080   0.572   5.117
  508SOL    HW1 2060   0.169   0.555   5.087
  508SOL    HW2 2061   0.090   0.644   5.180
  509SOL     OW 2062   0.572   0.231   4.884
  509SOL    HW1 2063   0.594   0.139   4.892
  509SOL    HW2 2064   0.481   0.237   4.914
  510SOL     OW 2065   0.871   0.461   4.363
  510SOL    HW1 2066   0.820   0.514   4.301
  510SOL    HW2 2067   0.891   0.380   4.316
  511SOL     OW 2068   0.996   0.040   4.504
  511SOL    HW1 2069   0.960   0.068   4.420
  511SOL    HW2 2070   1.007   3.946   4.495
  512SOL     OW 2071   1.438   1.162   4.581
  512SOL    HW1 2072   1.368   1.097   4.579
  512SOL    HW2 2073   1.463   1.172   4.490
  513SOL     OW 2074   1.465   0.606   4.699
  513SOL    HW1 2075   1.412   0.527   4.704
  513SOL    HW2 2076   1.525   0.600   4.773
  514SOL     OW 2077   1.845   0.819   4.110
  514SOL    HW1 2078   1.901   0.767   4.167
  514SOL    HW2 2079   1.815   0.758   4.043
  515SOL     OW 2080   0.488   1.420   3.884
  515SOL    HW1 2081   0.412   1.389   3.934
  515SOL    HW2 2082   0.471   1.390   3.795
  516SOL     OW 2083   1.671   1.264   4.369
  516SOL    HW1 2084   1.765   1.264   4.383
  516SOL    HW2 2085   1.643   1.353   4.391
  517SOL     OW 2086   1.395   0.575   3.793
  517SOL    HW1 2087   1.332   0.556   3.863
  517SOL    HW2 2088   1.480   0.555   3.832
  518SOL     OW 2089   0.558   0.271   4.042
  518SOL    HW1 2090   0.603   0.231   3.968
  518SOL    HW2 2091   0.528   0.356   4.010
  519SOL     OW 2092   1.751   1.240   5.296
  519SOL    HW1 2093   1.838   1.201   5.290
  519SOL    HW2 2094   1.767   1.331   5.323
  520SOL     OW 2095   1.057   1.354   5.057
  520SOL    HW1 2096   0.982   1.322   5.108
  520SOL    HW2 2097   1.133   1.312   5.098
  521SOL     OW 2098   1.607   1.625   5.378
  521SOL    HW1 2099   1.602   1.661   5.290
  521SOL    HW2 2100   1.691   1.579   5.380
  522SOL     OW 2101   1.131   1.205   4.829
  522SOL    HW1 2102   1.071   1.243   4.893
  522SOL    HW2 2103   1.099   1.238   4.744
  523SOL     OW 2104   1.626   1.097   4.801
  523SOL    HW1 2105   1.621   1.159   4.874
  523SOL    HW2 2106   1.548   1.115   4.748
  524SOL     OW 2107   0.913   0.114   5.125
  524SOL    HW1 2108   0.933   0.088   5.035
  524SOL    HW2 2109   0.993   0.156   5.156
  525SOL     OW 2110   0.984   1.115   5.448
  525SOL    HW1 2111   0.892   1.131   5.469
  525SOL    HW2 2112   0.983   1.037   5.392
  526SOL     OW 2113   0.708   1.061   4.094
  526SOL    HW1 2114   0.694   1.045   4.188
  526SOL    HW2 2115   0.784   1.008   4.072
  527SOL     OW 2116   0.422   0.816   4.976
  527SOL    HW1 2117   0.490   0.823   5.043
  527SOL    HW2 2118   0.387   0.728   4.986
  528SOL     OW 2119   1.266   0.375   5.000
  528SOL    HW1 2120   1.300   0.453   5.045
  528SOL    HW2 2121   1.179   0.401   4.970
  529SOL     OW 2122   0.065   1.580   5.070
  529SOL    HW1 2123   0.070   1.639   4.994
  529SOL    HW2 2124   0.156   1.567   5.096
  530SOL     OW 2125   0.373   1.103   4.207
  530SOL    HW1 2126   0.366   1.181   4.153
  530SOL    HW2 2127   0.371   1.030   4.145
  531SOL     OW 2128   0.555   0.535   4.582
  531SOL    HW1 2129   0.569   0.594   4.508
  531SOL    HW2 2130   0.620   0.562   4.647
  532SOL     OW 2131   1.248   1.349   4.113
  532SOL    HW1 2132   1.303   1.419   4.145
  532SOL    HW2 2133   1.160   1.370   4.147
  533SOL     OW 2134   1.283   1.459   4.872
  533SOL    HW1 2135   1.339   1.462   4.949
  533SOL    HW2 2136   1.228   1.381   4.885
  534SOL     OW 2137   1.576   0.633   4.210
  534SOL    HW1 2138   1.534   0.691   4.274
  534SOL    HW2 2139   1.623   0.693   4.152
  535SOL     OW 2140   0.345   1.527   5.043
  535SOL    HW1 2141   0.335   1.476   4.962
  535SOL    HW2 2142   0.440   1.542   5.050
  536SOL     OW 2143   0.416   0.738   5.325
  536SOL    HW1 2144   0.478   0.784   5.268
  536SOL    HW2 2145   0.454   0.651   5.338
  537SOL     OW 2146   1.602   0.780   5.408
  537SOL    HW1 2147   1.516   0.821   5.401
  537SOL    HW2 2148   1.655   0.821   5.340
  538SOL     OW 2149   1.013   0.131   5.502
  538SOL    HW1 2150   1.063   0.204   5.466
  538SOL    HW2 2151   1.003   0.070   5.429
  539SOL     OW 2152   0.481   0.036   5.490
  539SOL    HW1 2153   0.491   0.045   5.395
  539SOL    HW2 2154   0.420   0.106   5.514
  540SOL     OW 2155   0.585   0.874   4.755
  540SOL    HW1 2156   0.616   0.965   4.757
  540SOL    HW2 2157   0.529   0.867   4.833
  541SOL     OW 2158   1.355   0.858   4.752
  541SOL    HW1 2159   1.271   0.847   4.707
  541SOL    HW2 2160   1.397   0.773   4.745
  542SOL     OW 2161   1.201   0.536   3.983
  542SOL    HW1 2162   1.210   0.457   4.036
  542SOL    HW2 2163   1.158   0.599   4.041
  543SOL     OW 2164   0.312   0.213   4.965
  543SOL    HW1 2165   0.269   0.249   5.042
  543SOL    HW2 2166   0.296   0.118   4.970
  544SOL     OW 2167   0.061   1.306   5.004
  544SOL    HW1 2168   0.091   1.264   5.085
  544SOL    HW2 2169   0.052   1.398   5.027
  545SOL     OW 2170   0.725   0.634   4.778
  545SOL    HW1 2171   0.799   0.618   4.719
  545SOL    HW2 2172   0.696   0.722   4.757
  546SOL     OW 2173   1.736   0.959   5.578
  546SOL    HW1 2174   1.690   0.896   5.522
  546SOL    HW2 2175   1.676   0.974   5.651
  547SOL     OW 2176   0.329   0.055   4.377
  547SOL    HW1 2177   0.300   0.146   4.378
  547SOL    HW2 2178   0.291   0.017   4.456
  548SOL     OW 2179   1.606   0.390   4.105
  548SOL    HW1 2180   1.569   0.322   4.161
  548SOL    HW2 2181   1.586   0.472   4.150
  549SOL     OW 2182   1.029   0.759   4.683
  549SOL    HW1 2183   1.023   0.777   4.777
  549SOL    HW2 2184   1.002   0.668   4.674
  550SOL     OW 2185   0.981   1.565   5.442
  550SOL    HW1 2186   0.966   1.610   5.359
  550SOL    HW2 2187   1.026   1.484   5.418
  551SOL     OW 2188   1.854   1.503   5.328
  551SOL    HW1 2189   1.870   1.533   5.238
  551SOL    HW2 2190   1.937   1.515   5.373
  552SOL     OW 2191   0.353   0.921   5.523
  552SOL    HW1 2192   0.431   0.941   5.575
  552SOL    HW2 2193   0.381   0.854   5.462
  553SOL     OW 2194   1.506   0.275   3.859
  553SOL    HW1 2195   1.432   0.216   3.871
  553SOL    HW2 2196   1.519   0.315   3.946
  554SOL     OW 2197   1.289   0.827   3.753
  554SOL    HW1 2198   1.332   0.741   3.757
  554SOL    HW2 2199   1.321   0.866   3.672
  555SOL     OW 2200   1.066   1.336   4.579
  555SOL    HW1 2201   1.070   1.264   4.516
  555SOL    HW2 2202   1.127   1.402   4.544
  556SOL     OW 2203   0.313   0.803   4.674
  556SOL    HW1 2204   0.407   0.820   4.668
  556SOL    HW2 2205   0.306   0.713   4.706
  557SOL     OW 2206   0.338   0.528   4.739
  557SOL    HW1 2207   0.297   0.443   4.720
  557SOL    HW2 2208   0.413   0.532   4.680
  558SOL     OW 2209   1.133   0.381   5.420
  558SOL    HW1 2210   1.085   0.436   5.482
  558SOL    HW2 2211   1.220   0.421   5.415
  559SOL     OW 2212   1.151   0.225   5.205
  559SOL    HW1 2213   1.142   0.280   5.283
  559SOL    HW2 2214   1.176   0.286   5.136
  560SOL     OW 2215   0.000   1.318   3.906
  560SOL    HW1 2216   3.906   1.334   3.910
  560SOL    HW2 2217   0.009   1.224   3.925
  561SOL     OW 2218   0.077   1.800   4.613
  561SOL    HW1 2219   0.082   1.705   4.618
  561SOL    HW2 2220   0.169   1.829   4.616
  562SOL     OW 2221   0.502   1.571   4.635
  562SOL    HW1 2222   0.571   1.632   4.660
  562SOL    HW2 2223   0.545   1.508   4.577
  563SOL     OW 2224   0.980   0.790   4.949
  563SOL    HW1 2225   1.035   0.769   5.024
  563SOL    HW2 2226   0.895   0.752   4.971
  564SOL     OW 2227   0.035   0.572   4.836
  564SOL    HW1 2228   0.099   0.521   4.786
  564SOL    HW2 2229   0.061   0.558   4.928
  565SOL     OW 2230   0.211   0.516   5.446
  565SOL    HW1 2231   0.258   0.478   5.372
  565SOL    HW2 2232   0.162   0.590   5.408
  566SOL     OW 2233   1.377   0.938   5.382
  566SOL    HW1 2234   1.400   1.031   5.378
  566SOL    HW2 2235   1.374   0.911   5.290
  567SOL     OW 2236   0.818   0.572   4.085
  567SOL    HW1 2237   0.824   0.495   4.028
  567SOL    HW2 2238   0.743   0.621   4.052
  568SOL     OW 2239   1.641   0.602   4.908
  568SOL    HW1 2240   1.631   0.541   4.982
  568SOL    HW2 2241   1.728   0.584   4.874
  569SOL     OW 2242   0.300   1.545   5.451
  569SOL    HW1 2243   0.251   1.614   5.495
  569SOL    HW2 2244   0.267   1.464   5.490
  570SOL     OW 2245   0.707   0.455   4.981
  570SOL    HW1 2246   0.658   0.377   4.956
  570SOL    HW2 2247   0.698   0.514   4.906
  571SOL     OW 2248   0.925   1.679   5.193
  571SOL    HW1 2249   0.901   1.643   5.108
  571SOL    HW2 2250   0.921   1.774   5.181
  572SOL     OW 2251   0.455   0.492   3.921
  572SOL    HW1 2252   0.519   0.561   3.938
  572SOL    HW2 2253   0.375   0.539   3.897
  573SOL     OW 2254   0.157   1.135   5.198
  573SOL    HW1 2255   0.158   1.084   5.279
  573SOL    HW2 2256   0.171   1.070   5.129
  574SOL     OW 2257   1.324   1.046   4.946
  574SOL    HW1 2258   1.347   0.982   4.878
  574SOL    HW2 2259   1.255   1.099   4.907
  575SOL     OW 2260   1.313   0.856   4.029
  575SOL    HW1 2261   1.238   0.827   4.081
  575SOL    HW2 2262   1.287   0.843   3.938
  576SOL     OW 2263   1.752   1.738   4.868
  576SOL    HW1 2264   1.826   1.763   4.812
  576SOL    HW2 2265   1.736   1.646   4.847
  577SOL     OW 2266   1.243   1.734   4.833
  577SOL    HW1 2267   1.326   1.755   4.791
  577SOL    HW2 2268   1.249   1.640   4.853
  578SOL     OW 2269   0.077   1.217   4.751
  578SOL    HW1 2270   0.083   1.243   4.843
  578SOL    HW2 2271   3.984   1.226   4.730
  579SOL     OW 2272   0.680   1.667   5.457
  579SOL    HW1 2273   0.621   1.742   5.448
  579SOL    HW2 2274   0.745   1.680   5.389
  580SOL     OW 2275   1.713   0.125   4.211
  580SOL    HW1 2276   1.792   0.134   4.158
  580SOL    HW2 2277   1.705   0.031   4.226
  581SOL     OW 2278   1.391   1.568   4.211
  581SOL    HW1 2279   1.447   1.601   4.141
  581SOL    HW2 2280   1.341   1.644   4.240
  582SOL     OW 2281   0.174   1.764   5.554
  582SOL    HW1 2282   0.117   1.714   5.611
  582SOL    HW2 2283   0.214   1.829   5.611
  583SOL     OW 2284   1.277   0.927   4.395
  583SOL    HW1 2285   1.351   0.867   4.405
  583SOL    HW2 2286   1.311   0.999   4.342
  584SOL     OW 2287   0.812   1.274   5.153
  584SOL    HW1 2288   0.783   1.314   5.235
  584SOL    HW2 2289   0.741   1.292   5.091
  585SOL     OW 2290   0.670   1.621   3.879
  585SOL    HW1 2291   0.681   1.633   3.785
  585SOL    HW2 2292   0.615   1.543   3.887
  586SOL     OW 2293   1.622   1.729   5.114
  586SOL    HW1 2294   1.670   1.734   5.032
  586SOL    HW2 2295   1.612   1.820   5.142
  587SOL     OW 2296   1.839   0.177   4.691
  587SOL    HW1 2297   1.871   0.108   4.633
  587SOL    HW2 2298   1.751   0.196   4.659
  588SOL     OW 2299   0.274   0.323   4.438
  588SOL    HW1 2300   0.189   0.358   4.413
  588SOL    HW2 2301   0.266   0.306   4.532
  589SOL     OW 2302   1.207   1.605   3.756
  589SOL    HW1 2303   1.197   1.513   3.782
  589SOL    HW2 2304   1.141   1.617   3.687
  590SOL     OW 2305   0.823   1.005   5.097
  590SOL    HW1 2306   0.867   1.000   5.012
  590SOL    HW2 2307   0.823   1.099   5.118
  591SOL     OW 2308   0.915   0.910   4.014
  591SOL    HW1 2309   0.977   0.943   3.948
  591SOL    HW2 2310   0.964   0.842   4.060
  592SOL     OW 2311   1.488   1.623   3.764
  592SOL    HW1 2312   1.393   1.617   3.749
  592SOL    HW2 2313   1.526   1.630   3.677
  593SOL     OW 2314   0.374   1.303   5.216
  593SOL    HW1 2315   0.359   1.383   5.165
  593SOL    HW2 2316   0.297   1.248   5.198
  594SOL     OW 2317   1.609   1.283   5.004
  594SOL    HW1 2318   1.671   1.272   5.076
  594SOL    HW2 2319   1.550   1.352   5.034
  595SOL     OW 2320   1.054   1.108   4.431
  595SOL    HW1 2321   0.983   1.057   4.470
  595SOL    HW2 2322   1.118   1.043   4.402
  596SOL     OW 2323   1.014   0.249   4.693
  596SOL    HW1 2324   1.004   0.199   4.612
  596SOL    HW2 2325   1.009   0.183   4.763
  597SOL     OW 2326   0.606   1.489   4.206
  597SOL    HW1 2327   0.650   1.439   4.138
  597SOL    HW2 2328   0.532   1.530   4.161
  598SOL     OW 2329   1.720   0.393   5.097
  598SOL    HW1 2330   1.793   0.456   5.101
  598SOL    HW2 2331   1.754   0.321   5.043
  599SOL     OW 2332   0.253   1.341   4.017
  599SOL    HW1 2333   0.160   1.349   3.997
  599SOL    HW2 2334   0.263   1.380   4.104
  600SOL     OW 2335   0.107   1.000   5.441
  600SOL    HW1 2336   0.047   0.991   5.515
  600SOL    HW2 2337   0.193   0.980   5.479
  601SOL     OW 2338   0.694   0.251   5.224
  601SOL    HW1 2339   0.762   0.198   5.183
  601SOL    HW2 2340   0.722   0.260   5.315
  602SOL     OW 2341   0.088   0.323   3.751
  602SOL    HW1 2342   3.993   0.319   3.744
  602SOL    HW2 2343   0.112   0.405   3.709
  603SOL     OW 2344   1.428   0.857   5.123
  603SOL    HW1 2345   1.379   0.919   5.068
  603SOL    HW2 2346   1.517   0.860   5.089
  604SOL     OW 2347   0.037   0.167   4.008
  604SOL    HW1 2348   0.036   0.234   3.941
  604SOL    HW2 2349   0.115   0.186   4.061
  605SOL     OW 2350   1.178   1.338   3.841
  605SOL    HW1 2351   1.088   1.308   3.843
  605SOL    HW2 2352   1.206   1.338   3.933
  606SOL     OW 2353   0.620   0.829   5.160
  606SOL    HW1 2354   0.677   0.904   5.144
  606SOL    HW2 2355   0.680   0.755   5.168
  607SOL     OW 2356   1.488   1.784   4.707
  607SOL    HW1 2357   1.510   1.848   4.640
  607SOL    HW2 2358   1.572   1.765   4.750
  608SOL     OW 2359   0.717   0.562   5.431
  608SOL    HW1 2360   0.761   0.624   5.489
  608SOL    HW2 2361   0.745   0.476   5.462
  609SOL     OW 2362   1.473   1.198   5.354
  609SOL    HW1 2363   1.461   1.213   5.448
  609SOL    HW2 2364   1.566   1.214   5.339
  610SOL     OW 2365   0.379   1.743   5.282
  610SOL    HW1 2366   0.292   1.780   5.269
  610SOL    HW2 2367   0.363   1.661   5.329
  611SOL     OW 2368   1.667   0.881   4.980
  611SOL    HW1 2369   1.663   0.796   4.936
  611SOL    HW2 2370   1.658   0.944   4.908
  612SOL     OW 2371   1.224   0.336   4.167
  612SOL    HW1 2372   1.291   0.268   4.160
  612SOL    HW2 2373   1.243   0.380   4.250
  613SOL     OW 2374   0.590   0.738   4.395
  613SOL    HW1 2375   0.628   0.825   4.378
  613SOL    HW2 2376   0.523   0.729   4.328
  614SOL     OW 2377   1.751   0.383   5.367
  614SOL    HW1 2378   1.734   0.388   5.273
  614SOL    HW2 2379   1.695   0.312   5.398
  615SOL     OW 2380   1.745   0.934   5.236
  615SOL    HW1 2381   1.741   1.029   5.249
  615SOL    HW2 2382   1.729   0.921   5.143
  616SOL     OW 2383   0.863   1.366   3.760
  616SOL    HW1 2384   0.824   1.395   3.844
  616SOL    HW2 2385   0.880   1.448   3.713
  617SOL     OW 2386   0.662   1.789   4.667
  617SOL    HW1 2387   0.642   1.880   4.645
  617SOL    HW2 2388   0.758   1.783   4.660
  618SOL     OW 2389   0.868   0.967   4.578
  618SOL    HW1 2390   0.918   0.896   4.617
  618SOL    HW2 2391   0.832   1.015   4.653
  619SOL     OW 2392   1.078   0.989   3.813
  619SOL    HW1 2393   1.057   1.040   3.735
  619SOL    HW2 2394   1.153   0.935   3.786
  620SOL     OW 2395   1.845   1.538   4.553
  620SOL    HW1 2396   1.760   1.536   4.509
  620SOL    HW2 2397   1.835   1.480   4.628
  621SOL     OW 2398   0.225   1.303   5.580
  621SOL    HW1 2399   0.153   1.246   5.552
  621SOL    HW2 2400   0.210   1.317   5.673
  622SOL     OW 2401   0.119   1.278   4.444
  622SOL    HW1 2402   0.131   1.227   4.524
  622SOL    HW2 2403   0.107   1.212   4.376
  623SOL     OW 2404   0.682   1.404   5.354
  623SOL    HW1 2405   0.601   1.361   5.383
  623SOL    HW2 2406   0.677   1.492   5.390
  624SOL     OW 2407   1.811   0.183   4.963
  624SOL    HW1 2408   1.814   0.089   4.977
  624SOL    HW2 2409   1.826   0.193   4.869
  625SOL     OW 2410   0.444   0.437   4.255
  625SOL    HW1 2411   0.459   0.362   4.198
  625SOL    HW2 2412   0.388   0.403   4.325
  626SOL     OW 2413   1.702   1.480   4.813
  626SOL    HW1 2414   1.619   1.461   4.769
  626SOL    HW2 2415   1.710   1.413   4.880
  627SOL     OW 2416   0.332   0.557   5.017
  627SOL    HW1 2417   0.389   0.500   5.070
  627SOL    HW2 2418   0.348   0.528   4.927
  628SOL     OW 2419   0.828   1.579   4.401
  628SOL    HW1 2420   0.814   1.638   4.327
  628SOL    HW2 2421   0.752   1.520   4.400
  629SOL     OW 2422   1.461   0.253   4.834
  629SOL    HW1 2423   1.478   0.166   4.871
  629SOL    HW2 2424   1.405   0.296   4.900
  630SOL     OW 2425   1.004   0.029   4.871
  630SOL    HW1 2426   0.925   3.987   4.836
  630SOL    HW2 2427   1.067   3.957   4.879
  631SOL     OW 2428   0.772   1.333   4.041
  631SOL    HW1 2429   0.743   1.242   4.047
  631SOL    HW2 2430   0.854   1.335   4.090
  632SOL     OW 2431   0.620   1.557   5.010
  632SOL    HW1 2432   0.622   1.639   5.059
  632SOL    HW2 2433   0.708   1.549   4.972
  633SOL     OW 2434   1.312   0.074   3.888
  633SOL    HW1 2435   1.326   3.997   3.833
  633SOL    HW2 2436   1.226   0.059   3.928
  634SOL     OW 2437   1.283   0.457   4.410
  634SOL    HW1 2438   1.235   0.540   4.405
  634SOL    HW2 2439   1.286   0.437   4.503
  635SOL     OW 2440   1.588   0.210   4.592
  635SOL    HW1 2441   1.539   0.234   4.670
  635SOL    HW2 2442   1.588   0.290   4.538
  636SOL     OW 2443   0.047   1.049   3.964
  636SOL    HW1 2444   0.141   1.033   3.955
  636SOL    HW2 2445   0.011   0.967   3.996
  637SOL     OW 2446   0.886   1.655   4.064
  637SOL    HW1 2447   0.812   1.638   4.006
  637SOL    HW2 2448   0.857   1.729   4.118
  638SOL     OW 2449   0.233   0.627   5.703
  638SOL    HW1 2450   0.139   0.632   5.725
  638SOL    HW2 2451   0.235   0.598   5.612
  639SOL     OW 2452   0.224   0.288   6.569
  639SOL    HW1 2453   0.247   0.250   6.653
  639SOL    HW2 2454   0.130   0.276   6.562
  640SOL     OW 2455   0.018   0.385   6.221
  640SOL    HW1 2456   3.928   0.398   6.251
  640SOL    HW2 2457   0.025   0.291   6.206
  641SOL     OW 2458   0.580   1.288   6.775
  641SOL    HW1 2459   0.493   1.290   6.734
  641SOL    HW2 2460   0.592   1.377   6.808
  642SOL     OW 2461   1.133   0.699   6.284
  642SOL    HW1 2462   1.180   0.781   6.271
  642SOL    HW2 2463   1.085   0.711   6.366
  643SOL     OW 2464   1.763   0.619   5.812
  643SOL    HW1 2465   1.743   0.611   5.719
  643SOL    HW2 2466   1.753   0.529   5.845
  644SOL     OW 2467   0.755   1.141   6.627
  644SOL    HW1 2468   0.690   1.175   6.688
  644SOL    HW2 2469   0.789   1.219   6.582
  645SOL     OW 2470   0.869   0.772   7.409
  645SOL    HW1 2471   0.860   0.844   7.472
  645SOL    HW2 2472   0.892   0.815   7.327
  646SOL     OW 2473   0.686   1.004   6.232
  646SOL    HW1 2474   0.751   0.990   6.301
  646SOL    HW2 2475   0.616   1.054   6.274
  647SOL     OW 2476   0.710   1.149   7.400
  647SOL    HW1 2477   0.758   1.227   7.429
  647SOL    HW2 2478   0.629   1.183   7.364
  648SOL     OW 2479   0.351   1.402   6.665
  648SOL    HW1 2480   0.269   1.381   6.619
  648SOL    HW2 2481   0.398   1.460   6.605
  649SOL     OW 2482   1.446   1.502   6.927
  649SOL    HW1 2483   1.462   1.593   6.950
  649SOL    HW2 2484   1.380   1.472   6.991
  650SOL     OW 2485   0.456   0.408   7.083
  650SOL    HW1 2486   0.537   0.357   7.081
  650SOL    HW2 2487   0.387   0.342   7.085
  651SOL     OW 2488   1.612   0.450   6.321
  651SOL    HW1 2489   1.542   0.482   6.264
  651SOL    HW2 2490   1.631   0.524   6.379
  652SOL     OW 2491   0.221   1.718   6.044
  652SOL    HW1 2492   0.240   1.793   6.101
  652SOL    HW2 2493   0.298   1.711   5.988
  653SOL     OW 2494   1.134   1.336   7.285
  653SOL    HW1 2495   1.181   1.327   7.367
  653SOL    HW2 2496   1.079   1.257   7.280
  654SOL     OW 2497   0.250   1.450   6.126
  654SOL    HW1 2498   0.215   1.538   6.112
  654SOL    HW2 2499   0.182   1.406   6.177
  655SOL     OW 2500   0.249   1.067   6.472
  655SOL    HW1 2501   0.267   0.982   6.511
  655SOL    HW2 2502   0.195   1.113   6.536
  656SOL     OW 2503   0.609   1.792   7.013
  656SOL    HW1 2504   0.527   1.773   7.058
  656SOL    HW2 2505   0.631   1.882   7.039
  657SOL     OW 2506   0.578   0.985   5.724
  657SOL    HW1 2507   0.626   1.030   5.654
  657SOL    HW2 2508   0.620   1.014   5.805
  658SOL     OW 2509   1.580   0.139   7.042
  658SOL    HW1 2510   1.609   0.212   6.987
  658SOL    HW2 2511   1.550   0.181   7.123
  659SOL     OW 2512   0.140   0.651   6.156
  659SOL    HW1 2513   0.097   0.566   6.160
  659SOL    HW2 2514   0.102   0.701   6.228
  660SOL     OW 2515   0.044   1.590   5.725
  660SOL    HW1 2516   0.036   1.498   5.750
  660SOL    HW2 2517   3.961   1.629   5.753
  661SOL     OW 2518   1.689   0.920   6.227
  661SOL    HW1 2519   1.773   0.877   6.212
  661SOL    HW2 2520   1.673   0.972   6.148
  662SOL     OW 2521   1.661   1.118   6.018
  662SOL    HW1 2522   1.739   1.102   5.965
  662SOL    HW2 2523   1.685   1.192   6.075
  663SOL     OW 2524   0.139   0.756   7.175
  663SOL    HW1 2525   0.235   0.750   7.172
  663SOL    HW2 2526   0.121   0.845   7.204
  664SOL     OW 2527   0.614   1.386   6.323
  664SOL    HW1 2528   0.567   1.303   6.332
  664SOL    HW2 2529   0.598   1.413   6.232
  665SOL     OW 2530   1.282   1.236   6.996
  665SOL    HW1 2531   1.315   1.166   6.940
  665SOL    HW2 2532   1.329   1.225   7.079
  666SOL     OW 2533   0.819   0.003   6.102
  666SOL    HW1 2534   0.864   0.084   6.078
  666SOL    HW2 2535   0.726   0.027   6.102
  667SOL     OW 2536   0.185   0.951   6.864
  667SOL    HW1 2537   0.272   0.915   6.851
  667SOL    HW2 2538   0.132   0.909   6.796
  668SOL     OW 2539   1.531   0.996   5.786
  668SOL    HW1 2540   1.462   0.939   5.818
  668SOL    HW2 2541   1.574   1.029   5.865
  669SOL     OW 2542   0.344   0.252   7.421
  669SOL    HW1 2543   0.387   0.336   7.403
  669SOL    HW2 2544   0.253   0.276   7.440
  670SOL     OW 2545   0.595   0.718   5.851
  670SOL    HW1 2546   0.600   0.802   5.805
  670SOL    HW2 2547   0.533   0.733   5.922
  671SOL     OW 2548   1.275   0.367   6.526
  671SOL    HW1 2549   1.188   0.328   6.533
  671SOL    HW2 2550   1.332   0.306   6.572
  672SOL     OW 2551   1.617   1.648   5.883
  672SOL    HW1 2552   1.630   1.743   5.874
  672SOL    HW2 2553   1.565   1.624   5.807
  673SOL     OW 2554   0.794   0.616   7.040
  673SOL    HW1 2555   0.765   0.591   7.127
  673SOL    HW2 2556   0.755   0.551   6.981
  674SOL     OW 2557   1.392   0.476   7.263
  674SOL    HW1 2558   1.398   0.521   7.347
  674SOL    HW2 2559   1.451   0.401   7.272
  675SOL     OW 2560   0.953   0.886   7.169
  675SOL    HW1 2561   1.008   0.817   7.133
  675SOL    HW2 2562   0.904   0.920   7.094
  676SOL     OW 2563   0.991   0.403   6.825
  676SOL    HW1 2564   0.907   0.425   6.864
  676SOL    HW2 2565   0.970   0.373   6.737
  677SOL     OW 2566   1.052   0.699   6.012
  677SOL    HW1 2567   1.068   0.691   6.106
  677SOL    HW2 2568   0.969   0.653   5.997
  678SOL     OW 2569   0.081   0.828   6.377
  678SOL    HW1 2570   0.156   0.795   6.427
  678SOL    HW2 2571   0.100   0.921   6.364
  679SOL     OW 2572   0.130   1.861   7.162
  679SOL    HW1 2573   0.137   1.826   7.251
  679SOL    HW2 2574   0.037   1.849   7.139
  680SOL     OW 2575   0.894   0.352   5.784
  680SOL    HW1 2576   0.936   0.411   5.722
  680SOL    HW2 2577   0.893   0.267   5.740
  681SOL     OW 2578   1.709   0.576   7.415
  681SOL    HW1 2579   1.672   0.649   7.366
  681SOL    HW2 2580   1.733   0.513   7.347
  682SOL     OW 2581   1.387   1.149   6.134
  682SOL    HW1 2582   1.463   1.132   6.079
  682SOL    HW2 2583   1.331   1.206   6.081
  683SOL     OW 2584   0.561   0.195   6.467
  683SOL    HW1 2585   0.565   0.218   6.560
  683SOL    HW2 2586   0.547   0.278   6.422
  684SOL     OW 2587   1.008   1.448   6.061
  684SOL    HW1 2588   0.972   1.519   6.008
  684SOL    HW2 2589   0.973   1.464   6.149
  685SOL     OW 2590   0.364   1.817   6.455
  685SOL    HW1 2591   0.428   1.747   6.464
  685SOL    HW2 2592   0.414   1.897   6.471
  686SOL     OW 2593   1.802   1.017   6.470
  686SOL    HW1 2594   1.743   1.005   6.395
  686SOL    HW2 2595   1.745   1.047   6.540
  687SOL     OW 2596   1.207   1.506   7.083
  687SOL    HW1 2597   1.192   1.439   7.150
  687SOL    HW2 2598   1.142   1.487   7.016
  688SOL     OW 2599   0.310   0.954   5.828
  688SOL    HW1 2600   0.394   0.977   5.788
  688SOL    HW2 2601   0.297   0.862   5.807
  689SOL     OW 2602   1.478   0.748   6.317
  689SOL    HW1 2603   1.471   0.704   6.401
  689SOL    HW2 2604   1.556   0.802   6.324
  690SOL     OW 2605   0.467   1.261   7.323
  690SOL    HW1 2606   0.441   1.268   7.231
  690SOL    HW2 2607   0.385   1.264   7.372
  691SOL     OW 2608   1.122   1.779   5.821
  691SOL    HW1 2609   1.047   1.736   5.862
  691SOL    HW2 2610   1.147   1.721   5.750
  692SOL     OW 2611   0.200   0.295   7.086
  692SOL    HW1 2612   0.107   0.315   7.084
  692SOL    HW2 2613   0.209   0.224   7.150
  693SOL     OW 2614   1.628   1.378   5.676
  693SOL    HW1 2615   1.590   1.464   5.658
  693SOL    HW2 2616   1.560   1.316   5.654
  694SOL     OW 2617   0.466   1.739   5.902
  694SOL    HW1 2618   0.508   1.796   5.966
  694SOL    HW2 2619   0.538   1.704   5.850
  695SOL     OW 2620   1.440   0.164   5.991
  695SOL    HW1 2621   1.394   0.097   5.940
  695SOL    HW2 2622   1.512   0.117   6.033
  696SOL     OW 2623   0.252   1.791   6.817
  696SOL    HW1 2624   0.298   1.726   6.871
  696SOL    HW2 2625   0.247   1.752   6.730
  697SOL     OW 2626   0.934   1.698   6.486
  697SOL    HW1 2627   0.991   1.638   6.534
  697SOL    HW2 2628   0.897   1.645   6.415
  698SOL     OW 2629   0.397   0.694   6.057
  698SOL    HW1 2630   0.423   0.603   6.072
  698SOL    HW2 2631   0.305   0.698   6.083
  699SOL     OW 2632   1.530   0.230   7.313
  699SOL    HW1 2633   1.527   0.255   7.405
  699SOL    HW2 2634   1.509   0.136   7.312
  700SOL     OW 2635   0.645   0.131   5.688
  700SOL    HW1 2636   0.669   0.049   5.729
  700SOL    HW2 2637   0.583   0.106   5.619
  701SOL     OW 2638   0.777   0.283   7.352
  701SOL    HW1 2639   0.849   0.220   7.355
  701SOL    HW2 2640   0.719   0.257   7.424
  702SOL     OW 2641   0.877   1.522   6.776
  702SOL    HW1 2642   0.857   1.480   6.692
  702SOL    HW2 2643   0.943   1.465   6.815
  703SOL     OW 2644   1.340   0.587   7.016
  703SOL    HW1 2645   1.371   0.559   7.102
  703SOL    HW2 2646   1.375   0.675   7.006
  704SOL     OW 2647   0.817   1.395   6.525
  704SOL    HW1 2648   0.900   1.382   6.479
  704SOL    HW2 2649   0.751   1.395   6.456
  705SOL     OW 2650   0.930   0.512   6.487
  705SOL    HW1 2651   0.906   0.503   6.394
  705SOL    HW2 2652   0.956   0.424   6.513
  706SOL     OW 2653   0.546   0.056   6.074
  706SOL    HW1 2654   0.472   0.064   6.134
  706SOL    HW2 2655   0.548   0.140   6.028
  707SOL     OW 2656   1.427   1.199   5.626
  707SOL    HW1 2657   1.458   1.123   5.676
  707SOL    HW2 2658   1.341   1.219   5.662
  708SOL     OW 2659   0.342   0.040   5.784
  708SOL    HW1 2660   0.361   0.086   5.702
  708SOL    HW2 2661   0.427   0.035   5.828
  709SOL     OW 2662   0.941   0.249   6.048
  709SOL    HW1 2663   0.915   0.289   5.965
  709SOL    HW2 2664   1.037   0.252   6.047
  710SOL     OW 2665   1.080   0.683   7.044
  710SOL    HW1 2666   1.010   0.617   7.051
  710SOL    HW2 2667   1.161   0.632   7.039
  711SOL     OW 2668   0.467   1.151   6.323
  711SOL    HW1 2669   0.395   1.126   6.381
  711SOL    HW2 2670   0.433   1.135   6.235
  712SOL     OW 2671   1.022   0.544   5.613
  712SOL    HW1 2672   0.979   0.627   5.594
  712SOL    HW2 2673   1.086   0.565   5.681
  713SOL     OW 2674   0.080   0.572   6.979
  713SOL    HW1 2675   0.169   0.555   6.949
  713SOL    HW2 2676   0.090   0.644   7.042
  714SOL     OW 2677   0.572   0.231   6.746
  714SOL    HW1 2678   0.594   0.139   6.754
  714SOL    HW2 2679   0.481   0.237   6.776
  715SOL     OW 2680   0.871   0.462   6.224
  715SOL    HW1 2681   0.820   0.513   6.163
  715SOL    HW2 2682   0.891   0.381   6.178
  716SOL     OW 2683   0.996   0.040   6.366
  716SOL    HW1 2684   0.960   0.068   6.282
  716SOL    HW2 2685   1.006   3.946   6.357
  717SOL     OW 2686   1.438   1.160   6.437
  717SOL    HW1 2687   1.378   1.088   6.457
  717SOL    HW2 2688   1.430   1.171   6.342
  718SOL     OW 2689   1.465   0.606   6.560
  718SOL    HW1 2690   1.411   0.526   6.566
  718SOL    HW2 2691   1.525   0.600   6.635
  719SOL     OW 2692   1.841   0.818   5.973
  719SOL    HW1 2693   1.899   0.767   6.029
  719SOL    HW2 2694   1.812   0.757   5.905
  720SOL     OW 2695   0.488   1.420   5.746
  720SOL    HW1 2696   0.412   1.389   5.796
  720SOL    HW2 2697   0.471   1.390   5.657
  721SOL     OW 2698   1.395   0.576   5.656
  721SOL    HW1 2699   1.333   0.556   5.725
  721SOL    HW2 2700   1.481   0.554   5.693
  722SOL     OW 2701   0.558   0.271   5.904
  722SOL    HW1 2702   0.603   0.231   5.830
  722SOL    HW2 2703   0.528   0.356   5.872
  723SOL     OW 2704   1.046   1.345   6.913
  723SOL    HW1 2705   0.974   1.312   6.967
  723SOL    HW2 2706   1.124   1.304   6.951
  724SOL     OW 2707   1.124   1.196   6.691
  724SOL    HW1 2708   1.072   1.241   6.758
  724SOL    HW2 2709   1.087   1.228   6.608
  725SOL     OW 2710   1.623   1.096   6.662
  725SOL    HW1 2711   1.623   1.156   6.737
  725SOL    HW2 2712   1.556   1.130   6.604
  726SOL     OW 2713   0.913   0.114   6.987
  726SOL    HW1 2714   0.932   0.088   6.897
  726SOL    HW2 2715   0.993   0.156   7.018
  727SOL     OW 2716   0.981   1.113   7.309
  727SOL    HW1 2717   0.889   1.129   7.331
  727SOL    HW2 2718   0.980   1.035   7.254
  728SOL     OW 2719   0.708   1.061   5.956
  728SOL    HW1 2720   0.694   1.045   6.049
  728SOL    HW2 2721   0.784   1.008   5.934
  729SOL     OW 2722   0.422   0.816   6.838
  729SOL    HW1 2723   0.490   0.823   6.905
  729SOL    HW2 2724   0.387   0.728   6.848
  730SOL     OW 2725   1.266   0.375   6.863
  730SOL    HW1 2726   1.300   0.452   6.907
  730SOL    HW2 2727   1.179   0.401   6.833
  731SOL     OW 2728   0.065   1.580   6.932
  731SOL    HW1 2729   0.069   1.638   6.856
  731SOL    HW2 2730   0.156   1.567   6.958
  732SOL     OW 2731   0.375   1.104   6.069
  732SOL    HW1 2732   0.364   1.181   6.014
  732SOL    HW2 2733   0.371   1.030   6.008
  733SOL     OW 2734   0.555   0.536   6.444
  733SOL    HW1 2735   0.569   0.594   6.370
  733SOL    HW2 2736   0.620   0.562   6.509
  734SOL     OW 2737   1.250   1.351   5.977
  734SOL    HW1 2738   1.305   1.426   5.997
  734SOL    HW2 2739   1.163   1.375   6.011
  735SOL     OW 2740   1.269   1.436   6.724
  735SOL    HW1 2741   1.335   1.442   6.794
  735SOL    HW2 2742   1.240   1.345   6.726
  736SOL     OW 2743   1.575   0.633   6.073
  736SOL    HW1 2744   1.534   0.692   6.136
  736SOL    HW2 2745   1.625   0.691   6.015
  737SOL     OW 2746   0.345   1.527   6.905
  737SOL    HW1 2747   0.335   1.476   6.824
  737SOL    HW2 2748   0.440   1.542   6.912
  738SOL     OW 2749   0.415   0.738   7.187
  738SOL    HW1 2750   0.478   0.784   7.130
  738SOL    HW2 2751   0.454   0.651   7.200
  739SOL     OW 2752   1.603   0.780   7.271
  739SOL    HW1 2753   1.515   0.818   7.266
  739SOL    HW2 2754   1.653   0.826   7.203
  740SOL     OW 2755   1.014   0.130   7.364
  740SOL    HW1 2756   1.063   0.204   7.328
  740SOL    HW2 2757   1.003   0.070   7.291
  741SOL     OW 2758   0.481   0.036   7.352
  741SOL    HW1 2759   0.491   0.045   7.257
  741SOL    HW2 2760   0.420   0.106   7.376
  742SOL     OW 2761   0.585   0.874   6.618
  742SOL    HW1 2762   0.614   0.965   6.619
  742SOL    HW2 2763   0.528   0.866   6.694
  743SOL     OW 2764   1.354   0.859   6.609
  743SOL    HW1 2765   1.268   0.843   6.570
  743SOL    HW2 2766   1.398   0.774   6.606
  744SOL     OW 2767   1.202   0.536   5.846
  744SOL    HW1 2768   1.211   0.457   5.898
  744SOL    HW2 2769   1.157   0.599   5.903
  745SOL     OW 2770   0.312   0.213   6.827
  745SOL    HW1 2771   0.269   0.248   6.904
  745SOL    HW2 2772   0.296   0.118   6.832
  746SOL     OW 2773   0.061   1.306   6.866
  746SOL    HW1 2774   0.091   1.264   6.947
  746SOL    HW2 2775   0.051   1.398   6.888
  747SOL     OW 2776   0.725   0.634   6.640
  747SOL    HW1 2777   0.799   0.618   6.581
  747SOL    HW2 2778   0.696   0.722   6.619
  748SOL     OW 2779   1.732   0.968   7.438
  748SOL    HW1 2780   1.687   0.904   7.384
  748SOL    HW2 2781   1.675   0.980   7.514
  749SOL     OW 2782   0.329   0.055   6.239
  749SOL    HW1 2783   0.300   0.147   6.240
  749SOL    HW2 2784   0.291   0.017   6.318
  750SOL     OW 2785   1.605   0.390   5.967
  750SOL    HW1 2786   1.569   0.322   6.024
  750SOL    HW2 2787   1.585   0.472   6.012
  751SOL     OW 2788   1.030   0.759   6.545
  751SOL    HW1 2789   1.023   0.776   6.639
  751SOL    HW2 2790   1.002   0.668   6.536
  752SOL     OW 2791   0.973   1.562   7.282
  752SOL    HW1 2792   0.960   1.604   7.197
  752SOL    HW2 2793   1.021   1.482   7.262
  753SOL     OW 2794   1.968   1.610   7.202
  753SOL    HW1 2795   1.934   1.615   7.112
  753SOL    HW2 2796   1.961   1.518   7.225
  754SOL     OW 2797   0.353   0.921   7.385
  754SOL    HW1 2798   0.431   0.941   7.437
  754SOL    HW2 2799   0.381   0.854   7.324
  755SOL     OW 2800   1.505   0.276   5.722
  755SOL    HW1 2801   1.432   0.216   5.733
  755SOL    HW2 2802   1.519   0.315   5.808
  756SOL     OW 2803   1.291   0.827   5.616
  756SOL    HW1 2804   1.332   0.741   5.619
  756SOL    HW2 2805   1.322   0.866   5.535
  757SOL     OW 2806   1.062   1.334   6.429
  757SOL    HW1 2807   1.055   1.255   6.375
  757SOL    HW2 2808   1.150   1.367   6.411
  758SOL     OW 2809   0.313   0.803   6.537
  758SOL    HW1 2810   0.407   0.819   6.530
  758SOL    HW2 2811   0.306   0.713   6.568
  759SOL     OW 2812   0.338   0.528   6.601
  759SOL    HW1 2813   0.297   0.443   6.582
  759SOL    HW2 2814   0.413   0.532   6.542
  760SOL     OW 2815   1.133   0.381   7.282
  760SOL    HW1 2816   1.085   0.436   7.344
  760SOL    HW2 2817   1.220   0.421   7.277
  761SOL     OW 2818   1.151   0.225   7.068
  761SOL    HW1 2819   1.142   0.280   7.146
  761SOL    HW2 2820   1.176   0.286   6.998
  762SOL     OW 2821   0.000   1.318   5.768
  762SOL    HW1 2822   3.906   1.334   5.772
  762SOL    HW2 2823   0.009   1.224   5.787
  763SOL     OW 2824   0.077   1.800   6.475
  763SOL    HW1 2825   0.081   1.705   6.480
  763SOL    HW2 2826   0.168   1.828   6.479
  764SOL     OW 2827   0.502   1.571   6.497
  764SOL    HW1 2828   0.571   1.632   6.522
  764SOL    HW2 2829   0.545   1.509   6.439
  765SOL     OW 2830   0.979   0.790   6.811
  765SOL    HW1 2831   1.036   0.769   6.885
  765SOL    HW2 2832   0.895   0.752   6.833
  766SOL     OW 2833   0.035   0.572   6.699
  766SOL    HW1 2834   0.098   0.520   6.648
  766SOL    HW2 2835   0.061   0.558   6.790
  767SOL     OW 2836   0.211   0.516   7.308
  767SOL    HW1 2837   0.258   0.478   7.234
  767SOL    HW2 2838   0.163   0.590   7.270
  768SOL     OW 2839   1.372   0.926   7.242
  768SOL    HW1 2840   1.389   1.021   7.240
  768SOL    HW2 2841   1.374   0.900   7.150
  769SOL     OW 2842   0.818   0.572   5.947
  769SOL    HW1 2843   0.824   0.496   5.890
  769SOL    HW2 2844   0.743   0.621   5.913
  770SOL     OW 2845   1.640   0.600   6.769
  770SOL    HW1 2846   1.631   0.542   6.844
  770SOL    HW2 2847   1.728   0.583   6.735
  771SOL     OW 2848   0.299   1.544   7.312
  771SOL    HW1 2849   0.251   1.614   7.357
  771SOL    HW2 2850   0.267   1.464   7.353
  772SOL     OW 2851   0.707   0.455   6.843
  772SOL    HW1 2852   0.658   0.377   6.818
  772SOL    HW2 2853   0.698   0.514   6.768
  773SOL     OW 2854   0.919   1.684   7.046
  773SOL    HW1 2855   0.905   1.644   6.960
  773SOL    HW2 2856   0.908   1.778   7.030
  774SOL     OW 2857   0.455   0.492   5.783
  774SOL    HW1 2858   0.519   0.561   5.800
  774SOL    HW2 2859   0.375   0.539   5.759
  775SOL     OW 2860   0.156   1.135   7.060
  775SOL    HW1 2861   0.158   1.084   7.141
  775SOL    HW2 2862   0.171   1.070   6.991
  776SOL     OW 2863   1.322   1.042   6.807
  776SOL    HW1 2864   1.351   0.982   6.739
  776SOL    HW2 2865   1.250   1.091   6.767
  777SOL     OW 2866   1.312   0.860   5.892
  777SOL    HW1 2867   1.238   0.826   5.943
  777SOL    HW2 2868   1.287   0.845   5.801
  778SOL     OW 2869   1.191   1.693   6.739
  778SOL    HW1 2870   1.259   1.716   6.675
  778SOL    HW2 2871   1.201   1.598   6.750
  779SOL     OW 2872   0.077   1.217   6.613
  779SOL    HW1 2873   0.083   1.242   6.705
  779SOL    HW2 2874   3.984   1.226   6.592
  780SOL     OW 2875   0.680   1.668   7.320
  780SOL    HW1 2876   0.621   1.743   7.310
  780SOL    HW2 2877   0.743   1.678   7.249
  781SOL     OW 2878   1.713   0.125   6.073
  781SOL    HW1 2879   1.792   0.134   6.020
  781SOL    HW2 2880   1.705   0.031   6.088
  782SOL     OW 2881   0.174   1.764   7.415
  782SOL    HW1 2882   0.117   1.714   7.474
  782SOL    HW2 2883   0.216   1.829   7.472
  783SOL     OW 2884   1.277   0.928   6.254
  783SOL    HW1 2885   1.350   0.867   6.267
  783SOL    HW2 2886   1.315   1.000   6.204
  784SOL     OW 2887   0.807   1.271   7.017
  784SOL    HW1 2888   0.779   1.312   7.099
  784SOL    HW2 2889   0.736   1.289   6.955
  785SOL     OW 2890   0.670   1.621   5.741
  785SOL    HW1 2891   0.681   1.633   5.647
  785SOL    HW2 2892   0.615   1.543   5.749
  786SOL     OW 2893   1.638   1.718   6.972
  786SOL    HW1 2894   1.697   1.737   6.899
  786SOL    HW2 2895   1.617   1.804   7.008
  787SOL     OW 2896   1.839   0.177   6.553
  787SOL    HW1 2897   1.871   0.108   6.495
  787SOL    HW2 2898   1.750   0.196   6.521
  788SOL     OW 2899   0.274   0.323   6.300
  788SOL    HW1 2900   0.189   0.358   6.275
  788SOL    HW2 2901   0.266   0.306   6.394
  789SOL     OW 2902   1.205   1.607   5.620
  789SOL    HW1 2903   1.196   1.515   5.644
  789SOL    HW2 2904   1.141   1.620   5.550
  790SOL     OW 2905   0.823   1.004   6.959
  790SOL    HW1 2906   0.868   1.000   6.875
  790SOL    HW2 2907   0.821   1.097   6.980
  791SOL     OW 2908   0.916   0.912   5.877
  791SOL    HW1 2909   0.978   0.943   5.810
  791SOL    HW2 2910   0.964   0.841   5.922
  792SOL     OW 2911   1.489   1.622   5.629
  792SOL    HW1 2912   1.394   1.619   5.614
  792SOL    HW2 2913   1.527   1.631   5.541
  793SOL     OW 2914   0.374   1.303   7.077
  793SOL    HW1 2915   0.358   1.383   7.028
  793SOL    HW2 2916   0.297   1.248   7.060
  794SOL     OW 2917   1.615   1.266   6.882
  794SOL    HW1 2918   1.681   1.277   6.952
  794SOL    HW2 2919   1.555   1.339   6.894
  795SOL     OW 2920   1.053   1.104   6.294
  795SOL    HW1 2921   0.982   1.052   6.332
  795SOL    HW2 2922   1.117   1.039   6.265
  796SOL     OW 2923   1.014   0.249   6.555
  796SOL    HW1 2924   1.004   0.199   6.474
  796SOL    HW2 2925   1.009   0.183   6.625
  797SOL     OW 2926   0.606   1.490   6.069
  797SOL    HW1 2927   0.651   1.439   6.001
  797SOL    HW2 2928   0.531   1.529   6.024
  798SOL     OW 2929   1.720   0.393   6.959
  798SOL    HW1 2930   1.792   0.456   6.963
  798SOL    HW2 2931   1.754   0.321   6.905
  799SOL     OW 2932   0.254   1.341   5.880
  799SOL    HW1 2933   0.160   1.349   5.860
  799SOL    HW2 2934   0.263   1.380   5.967
  800SOL     OW 2935   0.107   1.000   7.304
  800SOL    HW1 2936   0.047   0.991   7.378
  800SOL    HW2 2937   0.193   0.980   7.341
  801SOL     OW 2938   0.694   0.251   7.086
  801SOL    HW1 2939   0.762   0.198   7.045
  801SOL    HW2 2940   0.722   0.260   7.177
  802SOL     OW 2941   0.088   0.323   5.613
  802SOL    HW1 2942   3.993   0.319   5.606
  802SOL    HW2 2943   0.112   0.405   5.571
  803SOL     OW 2944   1.427   0.854   6.983
  803SOL    HW1 2945   1.381   0.917   6.929
  803SOL    HW2 2946   1.518   0.860   6.955
  804SOL     OW 2947   0.038   0.167   5.870
  804SOL    HW1 2948   0.036   0.234   5.803
  804SOL    HW2 2949   0.115   0.186   5.923
  805SOL     OW 2950   1.178   1.338   5.702
  805SOL    HW1 2951   1.087   1.308   5.703
  805SOL    HW2 2952   1.204   1.336   5.795
  806SOL     OW 2953   0.620   0.829   7.022
  806SOL    HW1 2954   0.677   0.904   7.006
  806SOL    HW2 2955   0.680   0.755   7.031
  807SOL     OW 2956   0.717   0.562   7.293
  807SOL    HW1 2957   0.761   0.625   7.351
  807SOL    HW2 2958   0.745   0.477   7.324
  808SOL     OW 2959   1.438   1.190   7.214
  808SOL    HW1 2960   1.433   1.199   7.309
  808SOL    HW2 2961   1.521   1.232   7.190
  809SOL     OW 2962   0.378   1.742   7.143
  809SOL    HW1 2963   0.291   1.780   7.131
  809SOL    HW2 2964   0.362   1.660   7.191
  810SOL     OW 2965   1.669   0.881   6.840
  810SOL    HW1 2966   1.663   0.796   6.795
  810SOL    HW2 2967   1.658   0.945   6.770
  811SOL     OW 2968   1.224   0.336   6.029
  811SOL    HW1 2969   1.291   0.268   6.022
  811SOL    HW2 2970   1.244   0.380   6.112
  812SOL     OW 2971   0.590   0.739   6.257
  812SOL    HW1 2972   0.628   0.825   6.239
  812SOL    HW2 2973   0.523   0.728   6.190
  813SOL     OW 2974   1.752   0.382   7.229
  813SOL    HW1 2975   1.734   0.388   7.135
  813SOL    HW2 2976   1.694   0.313   7.260
  814SOL     OW 2977   1.731   0.941   7.098
  814SOL    HW1 2978   1.785   1.020   7.107
  814SOL    HW2 2979   1.724   0.928   7.003
  815SOL     OW 2980   0.865   1.367   5.623
  815SOL    HW1 2981   0.823   1.397   5.704
  815SOL    HW2 2982   0.881   1.446   5.573
  816SOL     OW 2983   0.662   1.790   6.528
  816SOL    HW1 2984   0.640   1.880   6.507
  816SOL    HW2 2985   0.757   1.786   6.516
  817SOL     OW 2986   0.868   0.967   6.441
  817SOL    HW1 2987   0.917   0.895   6.480
  817SOL    HW2 2988   0.831   1.014   6.516
  818SOL     OW 2989   1.079   0.989   5.675
  818SOL    HW1 2990   1.057   1.039   5.597
  818SOL    HW2 2991   1.153   0.935   5.649
  819SOL     OW 2992   0.225   1.303   7.442
  819SOL    HW1 2993   0.154   1.246   7.415
  819SOL    HW2 2994   0.212   1.317   7.536
  820SOL     OW 2995   0.120   1.279   6.306
  820SOL    HW1 2996   0.130   1.228   6.387
  820SOL    HW2 2997   0.108   1.213   6.238
  821SOL     OW 2998   0.679   1.405   7.215
  821SOL    HW1 2999   0.600   1.362   7.246
  821SOL    HW2 3000   0.677   1.492   7.254
  822SOL     OW 3001   1.812   0.183   6.825
  822SOL    HW1 3002   1.815   0.088   6.839
  822SOL    HW2 3003   1.826   0.193   6.731
  823SOL     OW 3004   0.444   0.437   6.117
  823SOL    HW1 3005   0.458   0.362   6.060
  823SOL    HW2 3006   0.388   0.403   6.187
  824SOL     OW 3007   0.332   0.557   6.879
  824SOL    HW1 3008   0.389   0.500   6.932
  824SOL    HW2 3009   0.348   0.528   6.789
  825SOL     OW 3010   0.832   1.575   6.260
  825SOL    HW1 3011   0.815   1.637   6.190
  825SOL    HW2 3012   0.755   1.518   6.262
  826SOL     OW 3013   1.461   0.253   6.696
  826SOL    HW1 3014   1.478   0.166   6.733
  826SOL    HW2 3015   1.405   0.296   6.762
  827SOL     OW 3016   1.004   0.029   6.733
  827SOL    HW1 3017   0.925   3.987   6.698
  827SOL    HW2 3018   1.067   3.957   6.741
  828SOL     OW 3019   0.770   1.333   5.904
  828SOL    HW1 3020   0.739   1.242   5.908
  828SOL    HW2 3021   0.855   1.330   5.949
  829SOL     OW 3022   0.621   1.557   6.871
  829SOL    HW1 3023   0.622   1.638   6.921
  829SOL    HW2 3024   0.709   1.550   6.834
  830SOL     OW 3025   1.312   0.074   5.750
  830SOL    HW1 3026   1.328   3.997   5.696
  830SOL    HW2 3027   1.226   0.059   5.790
  831SOL     OW 3028   1.283   0.457   6.272
  831SOL    HW1 3029   1.235   0.540   6.267
  831SOL    HW2 3030   1.286   0.437   6.365
  832SOL     OW 3031   1.588   0.210   6.454
  832SOL    HW1 3032   1.539   0.234   6.532
  832SOL    HW2 3033   1.588   0.290   6.400
  833SOL     OW 3034   0.047   1.049   5.827
  833SOL    HW1 3035   0.140   1.033   5.818
  833SOL    HW2 3036   0.010   0.965   5.857
  834SOL     OW 3037   0.885   1.654   5.927
  834SOL    HW1 3038   0.812   1.636   5.867
  834SOL    HW2 3039   0.855   1.727   5.980
  835SOL     OW 3040   0.233   0.627   7.565
  835SOL    HW1 3041   0.139   0.632   7.587
  835SOL    HW2 3042   0.235   0.598   7.474
  836SOL     OW 3043   0.224   0.288   8.431
  836SOL    HW1 3044   0.247   0.250   8.515
  836SOL    HW2 3045   0.129   0.276   8.424
  837SOL     OW 3046   0.018   0.386   8.083
  837SOL    HW1 3047   3.928   0.398   8.113
  837SOL    HW2 3048   0.026   0.292   8.068
  838SOL     OW 3049   0.580   1.287   8.637
  838SOL    HW1 3050   0.493   1.290   8.596
  838SOL    HW2 3051   0.593   1.376   8.669
  839SOL     OW 3052   1.564   1.513   8.154
  839SOL    HW1 3053   1.525   1.494   8.240
  839SOL    HW2 3054   1.489   1.522   8.095
  840SOL     OW 3055   1.133   0.698   8.146
  840SOL    HW1 3056   1.180   0.781   8.133
  840SOL    HW2 3057   1.085   0.711   8.228
  841SOL     OW 3058   1.764   0.617   7.673
  841SOL    HW1 3059   1.743   0.611   7.580
  841SOL    HW2 3060   1.752   0.528   7.706
  842SOL     OW 3061   0.755   1.140   8.489
  842SOL    HW1 3062   0.690   1.175   8.551
  842SOL    HW2 3063   0.790   1.217   8.444
  843SOL     OW 3064   0.870   0.772   9.271
  843SOL    HW1 3065   0.858   0.843   9.334
  843SOL    HW2 3066   0.892   0.815   9.189
  844SOL     OW 3067   0.685   1.003   8.094
  844SOL    HW1 3068   0.751   0.991   8.163
  844SOL    HW2 3069   0.616   1.054   8.136
  845SOL     OW 3070   0.711   1.149   9.263
  845SOL    HW1 3071   0.759   1.227   9.291
  845SOL    HW2 3072   0.629   1.183   9.226
  846SOL     OW 3073   0.351   1.402   8.527
  846SOL    HW1 3074   0.270   1.382   8.480
  846SOL    HW2 3075   0.399   1.460   8.467
  847SOL     OW 3076   1.461   1.501   8.804
  847SOL    HW1 3077   1.513   1.580   8.813
  847SOL    HW2 3078   1.397   1.506   8.875
  848SOL     OW 3079   0.456   0.408   8.945
  848SOL    HW1 3080   0.537   0.357   8.943
  848SOL    HW2 3081   0.387   0.342   8.947
  849SOL     OW 3082   1.612   0.451   8.183
  849SOL    HW1 3083   1.542   0.482   8.126
  849SOL    HW2 3084   1.632   0.525   8.240
  850SOL     OW 3085   0.221   1.718   7.906
  850SOL    HW1 3086   0.240   1.792   7.963
  850SOL    HW2 3087   0.298   1.710   7.850
  851SOL     OW 3088   1.137   1.342   9.141
  851SOL    HW1 3089   1.178   1.336   9.228
  851SOL    HW2 3090   1.085   1.262   9.134
  852SOL     OW 3091   0.248   1.449   7.988
  852SOL    HW1 3092   0.215   1.538   7.973
  852SOL    HW2 3093   0.179   1.406   8.039
  853SOL     OW 3094   0.247   1.067   8.333
  853SOL    HW1 3095   0.266   0.982   8.372
  853SOL    HW2 3096   0.194   1.112   8.398
  854SOL     OW 3097   0.611   1.792   8.876
  854SOL    HW1 3098   0.529   1.774   8.921
  854SOL    HW2 3099   0.634   1.881   8.902
  855SOL     OW 3100   0.578   0.985   7.586
  855SOL    HW1 3101   0.626   1.030   7.516
  855SOL    HW2 3102   0.620   1.015   7.667
  856SOL     OW 3103   1.580   0.139   8.904
  856SOL    HW1 3104   1.609   0.212   8.849
  856SOL    HW2 3105   1.549   0.180   8.985
  857SOL     OW 3106   0.140   0.651   8.017
  857SOL    HW1 3107   0.097   0.565   8.022
  857SOL    HW2 3108   0.102   0.701   8.090
  858SOL     OW 3109   0.044   1.590   7.586
  858SOL    HW1 3110   0.035   1.498   7.611
  858SOL    HW2 3111   3.962   1.630   7.616
  859SOL     OW 3112   1.688   0.918   8.087
  859SOL    HW1 3113   1.772   0.877   8.067
  859SOL    HW2 3114   1.668   0.971   8.010
  860SOL     OW 3115   1.644   1.109   7.875
  860SOL    HW1 3116   1.729   1.110   7.831
  860SOL    HW2 3117   1.655   1.170   7.949
  861SOL     OW 3118   0.139   0.756   9.037
  861SOL    HW1 3119   0.235   0.750   9.033
  861SOL    HW2 3120   0.121   0.845   9.066
  862SOL     OW 3121   0.612   1.386   8.185
  862SOL    HW1 3122   0.566   1.302   8.194
  862SOL    HW2 3123   0.597   1.412   8.094
  863SOL     OW 3124   1.288   1.238   8.871
  863SOL    HW1 3125   1.319   1.170   8.811
  863SOL    HW2 3126   1.346   1.232   8.946
  864SOL     OW 3127   0.819   0.003   7.964
  864SOL    HW1 3128   0.864   0.084   7.940
  864SOL    HW2 3129   0.726   0.027   7.964
  865SOL     OW 3130   0.184   0.951   8.725
  865SOL    HW1 3131   0.272   0.916   8.713
  865SOL    HW2 3132   0.132   0.908   8.658
  866SOL     OW 3133   1.532   0.996   7.646
  866SOL    HW1 3134   1.462   0.941   7.681
  866SOL    HW2 3135   1.576   1.032   7.724
  867SOL     OW 3136   1.185   1.808   9.072
  867SOL    HW1 3137   1.194   1.868   8.997
  867SOL    HW2 3138   1.202   1.721   9.035
  868SOL     OW 3139   0.344   0.252   9.284
  868SOL    HW1 3140   0.387   0.336   9.266
  868SOL    HW2 3141   0.253   0.276   9.302
  869SOL     OW 3142   1.466   1.419   8.397
  869SOL    HW1 3143   1.399   1.435   8.463
  869SOL    HW2 3144   1.453   1.328   8.370
  870SOL     OW 3145   1.659   1.738   8.013
  870SOL    HW1 3146   1.664   1.691   7.929
  870SOL    HW2 3147   1.641   1.670   8.077
  871SOL     OW 3148   0.596   0.718   7.713
  871SOL    HW1 3149   0.601   0.801   7.667
  871SOL    HW2 3150   0.533   0.733   7.784
  872SOL     OW 3151   1.275   0.368   8.389
  872SOL    HW1 3152   1.188   0.329   8.395
  872SOL    HW2 3153   1.332   0.306   8.434
  873SOL     OW 3154   0.794   0.616   8.902
  873SOL    HW1 3155   0.765   0.591   8.989
  873SOL    HW2 3156   0.756   0.551   8.843
  874SOL     OW 3157   1.392   0.476   9.125
  874SOL    HW1 3158   1.398   0.521   9.210
  874SOL    HW2 3159   1.450   0.401   9.134
  875SOL     OW 3160   0.953   0.887   9.032
  875SOL    HW1 3161   1.008   0.818   8.995
  875SOL    HW2 3162   0.905   0.922   8.957
  876SOL     OW 3163   0.991   0.403   8.687
  876SOL    HW1 3164   0.907   0.425   8.726
  876SOL    HW2 3165   0.970   0.373   8.599
  877SOL     OW 3166   1.052   0.699   7.874
  877SOL    HW1 3167   1.068   0.692   7.968
  877SOL    HW2 3168   0.969   0.652   7.860
  878SOL     OW 3169   0.081   0.827   8.239
  878SOL    HW1 3170   0.155   0.795   8.289
  878SOL    HW2 3171   0.100   0.920   8.226
  879SOL     OW 3172   0.130   1.861   9.024
  879SOL    HW1 3173   0.137   1.826   9.113
  879SOL    HW2 3174   0.037   1.849   9.001
  880SOL     OW 3175   0.894   0.352   7.646
  880SOL    HW1 3176   0.936   0.411   7.584
  880SOL    HW2 3177   0.893   0.267   7.601
  881SOL     OW 3178   1.709   0.576   9.277
  881SOL    HW1 3179   1.671   0.649   9.229
  881SOL    HW2 3180   1.733   0.512   9.209
  882SOL     OW 3181   1.380   1.141   7.988
  882SOL    HW1 3182   1.459   1.129   7.937
  882SOL    HW2 3183   1.327   1.203   7.937
  883SOL     OW 3184   0.561   0.195   8.329
  883SOL    HW1 3185   0.565   0.218   8.422
  883SOL    HW2 3186   0.547   0.278   8.284
  884SOL     OW 3187   1.006   1.441   7.923
  884SOL    HW1 3188   0.963   1.512   7.874
  884SOL    HW2 3189   0.986   1.460   8.014
  885SOL     OW 3190   0.365   1.818   8.317
  885SOL    HW1 3191   0.429   1.747   8.325
  885SOL    HW2 3192   0.415   1.897   8.333
  886SOL     OW 3193   1.800   1.051   8.319
  886SOL    HW1 3194   1.747   1.038   8.240
  886SOL    HW2 3195   1.736   1.059   8.390
  887SOL     OW 3196   1.228   1.539   8.961
  887SOL    HW1 3197   1.215   1.466   9.022
  887SOL    HW2 3198   1.163   1.524   8.892
  888SOL     OW 3199   0.310   0.954   7.690
  888SOL    HW1 3200   0.394   0.976   7.649
  888SOL    HW2 3201   0.297   0.862   7.668
  889SOL     OW 3202   1.479   0.747   8.178
  889SOL    HW1 3203   1.473   0.704   8.263
  889SOL    HW2 3204   1.557   0.801   8.183
  890SOL     OW 3205   0.467   1.261   9.185
  890SOL    HW1 3206   0.441   1.269   9.094
  890SOL    HW2 3207   0.385   1.264   9.234
  891SOL     OW 3208   1.090   1.766   7.716
  891SOL    HW1 3209   1.015   1.719   7.751
  891SOL    HW2 3210   1.115   1.716   7.638
  892SOL     OW 3211   0.200   0.294   8.947
  892SOL    HW1 3212   0.107   0.315   8.946
  892SOL    HW2 3213   0.209   0.224   9.012
  893SOL     OW 3214   0.466   1.738   7.766
  893SOL    HW1 3215   0.509   1.796   7.829
  893SOL    HW2 3216   0.537   1.704   7.711
  894SOL     OW 3217   1.440   0.164   7.854
  894SOL    HW1 3218   1.395   0.098   7.801
  894SOL    HW2 3219   1.512   0.117   7.895
  895SOL     OW 3220   0.251   1.791   8.680
  895SOL    HW1 3221   0.298   1.727   8.733
  895SOL    HW2 3222   0.249   1.752   8.592
  896SOL     OW 3223   0.936   1.699   8.346
  896SOL    HW1 3224   1.012   1.647   8.370
  896SOL    HW2 3225   0.893   1.649   8.276
  897SOL     OW 3226   0.397   0.694   7.919
  897SOL    HW1 3227   0.423   0.604   7.934
  897SOL    HW2 3228   0.305   0.698   7.945
  898SOL     OW 3229   1.529   0.230   9.175
  898SOL    HW1 3230   1.526   0.255   9.267
  898SOL    HW2 3231   1.508   0.136   9.175
  899SOL     OW 3232   0.644   0.131   7.550
  899SOL    HW1 3233   0.669   0.049   7.591
  899SOL    HW2 3234   0.583   0.107   7.481
  900SOL     OW 3235   0.777   0.283   9.214
  900SOL    HW1 3236   0.849   0.220   9.217
  900SOL    HW2 3237   0.719   0.257   9.286
  901SOL     OW 3238   0.876   1.522   8.641
  901SOL    HW1 3239   0.860   1.484   8.555
  901SOL    HW2 3240   0.945   1.468   8.679
  902SOL     OW 3241   1.340   0.587   8.878
  902SOL    HW1 3242   1.371   0.558   8.964
  902SOL    HW2 3243   1.375   0.676   8.869
  903SOL     OW 3244   0.816   1.394   8.388
  903SOL    HW1 3245   0.901   1.382   8.346
  903SOL    HW2 3246   0.753   1.396   8.317
  904SOL     OW 3247   0.930   0.512   8.349
  904SOL    HW1 3248   0.905   0.504   8.256
  904SOL    HW2 3249   0.956   0.423   8.375
  905SOL     OW 3250   0.546   0.056   7.936
  905SOL    HW1 3251   0.472   0.064   7.996
  905SOL    HW2 3252   0.548   0.140   7.890
  906SOL     OW 3253   1.425   1.194   7.480
  906SOL    HW1 3254   1.464   1.127   7.537
  906SOL    HW2 3255   1.346   1.222   7.527
  907SOL     OW 3256   0.342   0.040   7.646
  907SOL    HW1 3257   0.361   0.086   7.564
  907SOL    HW2 3258   0.427   0.035   7.689
  908SOL     OW 3259   0.941   0.249   7.910
  908SOL    HW1 3260   0.915   0.289   7.827
  908SOL    HW2 3261   1.037   0.252   7.908
  909SOL     OW 3262   1.079   0.683   8.907
  909SOL    HW1 3263   1.009   0.618   8.913
  909SOL    HW2 3264   1.160   0.631   8.901
  910SOL     OW 3265   1.227   1.567   8.241
  910SOL    HW1 3266   1.239   1.641   8.181
  910SOL    HW2 3267   1.293   1.581   8.310
  911SOL     OW 3268   0.466   1.150   8.184
  911SOL    HW1 3269   0.394   1.125   8.243
  911SOL    HW2 3270   0.432   1.135   8.096
  912SOL     OW 3271   1.265   1.797   8.066
  912SOL    HW1 3272   1.329   1.868   8.060
  912SOL    HW2 3273   1.185   1.839   8.098
  913SOL     OW 3274   1.022   0.544   7.476
  913SOL    HW1 3275   0.979   0.627   7.456
  913SOL    HW2 3276   1.087   0.565   7.543
  914SOL     OW 3277   0.080   0.572   8.841
  914SOL    HW1 3278   0.169   0.555   8.811
  914SOL    HW2 3279   0.090   0.644   8.904
  915SOL     OW 3280   0.572   0.231   8.608
  915SOL    HW1 3281   0.594   0.139   8.616
  915SOL    HW2 3282   0.481   0.237   8.638
  916SOL     OW 3283   0.871   0.462   8.087
  916SOL    HW1 3284   0.820   0.514   8.024
  916SOL    HW2 3285   0.891   0.380   8.040
  917SOL     OW 3286   0.996   0.040   8.228
  917SOL    HW1 3287   0.960   0.068   8.144
  917SOL    HW2 3288   1.007   3.946   8.219
  918SOL     OW 3289   1.438   1.162   8.304
  918SOL    HW1 3290   1.368   1.096   8.303
  918SOL    HW2 3291   1.464   1.171   8.213
  919SOL     OW 3292   1.465   0.606   8.423
  919SOL    HW1 3293   1.412   0.527   8.428
  919SOL    HW2 3294   1.525   0.600   8.498
  920SOL     OW 3295   1.848   0.814   7.836
  920SOL    HW1 3296   1.904   0.760   7.892
  920SOL    HW2 3297   1.817   0.753   7.768
  921SOL     OW 3298   0.487   1.420   7.608
  921SOL    HW1 3299   0.412   1.388   7.658
  921SOL    HW2 3300   0.471   1.389   7.518
  922SOL     OW 3301   1.670   1.265   8.092
  922SOL    HW1 3302   1.765   1.263   8.103
  922SOL    HW2 3303   1.644   1.354   8.119
  923SOL     OW 3304   1.395   0.574   7.518
  923SOL    HW1 3305   1.333   0.555   7.587
  923SOL    HW2 3306   1.481   0.556   7.556
  924SOL     OW 3307   0.557   0.271   7.767
  924SOL    HW1 3308   0.603   0.231   7.693
  924SOL    HW2 3309   0.528   0.356   7.734
  925SOL     OW 3310   1.751   1.240   9.019
  925SOL    HW1 3311   1.838   1.201   9.015
  925SOL    HW2 3312   1.767   1.330   9.047
  926SOL     OW 3313   1.057   1.354   8.782
  926SOL    HW1 3314   0.982   1.323   8.832
  926SOL    HW2 3315   1.133   1.312   8.822
  927SOL     OW 3316   1.608   1.626   9.102
  927SOL    HW1 3317   1.602   1.662   9.013
  927SOL    HW2 3318   1.691   1.579   9.104
  928SOL     OW 3319   1.131   1.206   8.553
  928SOL    HW1 3320   1.071   1.243   8.617
  928SOL    HW2 3321   1.099   1.238   8.468
  929SOL     OW 3322   1.626   1.097   8.525
  929SOL    HW1 3323   1.620   1.159   8.598
  929SOL    HW2 3324   1.548   1.115   8.472
  930SOL     OW 3325   0.913   0.114   8.849
  930SOL    HW1 3326   0.932   0.088   8.759
  930SOL    HW2 3327   0.993   0.156   8.880
  931SOL     OW 3328   0.984   1.115   9.171
  931SOL    HW1 3329   0.892   1.131   9.193
  931SOL    HW2 3330   0.982   1.037   9.116
  932SOL     OW 3331   0.707   1.061   7.819
  932SOL    HW1 3332   0.694   1.044   7.912
  932SOL    HW2 3333   0.784   1.008   7.796
  933SOL     OW 3334   0.422   0.817   8.700
  933SOL    HW1 3335   0.490   0.823   8.767
  933SOL    HW2 3336   0.387   0.728   8.710
  934SOL     OW 3337   1.266   0.375   8.725
  934SOL    HW1 3338   1.300   0.453   8.769
  934SOL    HW2 3339   1.179   0.401   8.694
  935SOL     OW 3340   0.065   1.580   8.794
  935SOL    HW1 3341   0.070   1.639   8.719
  935SOL    HW2 3342   0.156   1.566   8.820
  936SOL     OW 3343   0.371   1.103   7.932
  936SOL    HW1 3344   0.367   1.181   7.877
  936SOL    HW2 3345   0.371   1.030   7.869
  937SOL     OW 3346   0.555   0.536   8.307
  937SOL    HW1 3347   0.569   0.594   8.232
  937SOL    HW2 3348   0.621   0.562   8.371
  938SOL     OW 3349   1.251   1.351   7.841
  938SOL    HW1 3350   1.303   1.426   7.870
  938SOL    HW2 3351   1.163   1.370   7.871
  939SOL     OW 3352   1.284   1.459   8.595
  939SOL    HW1 3353   1.339   1.462   8.673
  939SOL    HW2 3354   1.229   1.381   8.608
  940SOL     OW 3355   1.576   0.633   7.934
  940SOL    HW1 3356   1.534   0.691   7.997
  940SOL    HW2 3357   1.624   0.692   7.875
  941SOL     OW 3358   0.345   1.527   8.767
  941SOL    HW1 3359   0.336   1.476   8.686
  941SOL    HW2 3360   0.440   1.542   8.774
  942SOL     OW 3361   0.415   0.738   9.049
  942SOL    HW1 3362   0.478   0.784   8.992
  942SOL    HW2 3363   0.454   0.651   9.062
  943SOL     OW 3364   1.603   0.780   9.132
  943SOL    HW1 3365   1.517   0.821   9.125
  943SOL    HW2 3366   1.655   0.821   9.064
  944SOL     OW 3367   1.013   0.131   9.226
  944SOL    HW1 3368   1.063   0.204   9.190
  944SOL    HW2 3369   1.003   0.070   9.153
  945SOL     OW 3370   0.481   0.036   9.214
  945SOL    HW1 3371   0.491   0.045   9.119
  945SOL    HW2 3372   0.420   0.106   9.238
  946SOL     OW 3373   0.585   0.874   8.479
  946SOL    HW1 3374   0.616   0.965   8.481
  946SOL    HW2 3375   0.529   0.867   8.557
  947SOL     OW 3376   1.355   0.858   8.476
  947SOL    HW1 3377   1.271   0.847   8.431
  947SOL    HW2 3378   1.397   0.773   8.469
  948SOL     OW 3379   1.202   0.536   7.708
  948SOL    HW1 3380   1.210   0.457   7.761
  948SOL    HW2 3381   1.158   0.599   7.765
  949SOL     OW 3382   0.312   0.213   8.689
  949SOL    HW1 3383   0.269   0.248   8.766
  949SOL    HW2 3384   0.296   0.118   8.694
  950SOL     OW 3385   0.059   1.306   8.728
  950SOL    HW1 3386   0.090   1.264   8.809
  950SOL    HW2 3387   0.051   1.398   8.751
  951SOL     OW 3388   0.726   0.634   8.502
  951SOL    HW1 3389   0.799   0.618   8.443
  951SOL    HW2 3390   0.696   0.722   8.480
  952SOL     OW 3391   1.736   0.959   9.302
  952SOL    HW1 3392   1.690   0.896   9.246
  952SOL    HW2 3393   1.676   0.974   9.375
  953SOL     OW 3394   0.329   0.055   8.101
  953SOL    HW1 3395   0.300   0.146   8.102
  953SOL    HW2 3396   0.291   0.018   8.181
  954SOL     OW 3397   1.605   0.390   7.829
  954SOL    HW1 3398   1.568   0.323   7.886
  954SOL    HW2 3399   1.586   0.472   7.874
  955SOL     OW 3400   1.029   0.759   8.407
  955SOL    HW1 3401   1.023   0.776   8.501
  955SOL    HW2 3402   1.002   0.668   8.398
  956SOL     OW 3403   0.982   1.566   9.166
  956SOL    HW1 3404   0.967   1.610   9.083
  956SOL    HW2 3405   1.026   1.484   9.143
  957SOL     OW 3406   1.854   1.503   9.053
  957SOL    HW1 3407   1.871   1.533   8.963
  957SOL    HW2 3408   1.938   1.514   9.098
  958SOL     OW 3409   0.353   0.922   9.247
  958SOL    HW1 3410   0.431   0.941   9.299
  958SOL    HW2 3411   0.381   0.854   9.185
  959SOL     OW 3412   1.506   0.275   7.584
  959SOL    HW1 3413   1.431   0.216   7.596
  959SOL    HW2 3414   1.519   0.315   7.670
  960SOL     OW 3415   1.289   0.825   7.480
  960SOL    HW1 3416   1.331   0.740   7.483
  960SOL    HW2 3417   1.319   0.864   7.398
  961SOL     OW 3418   1.066   1.337   8.302
  961SOL    HW1 3419   1.069   1.264   8.240
  961SOL    HW2 3420   1.128   1.401   8.267
  962SOL     OW 3421   0.313   0.804   8.398
  962SOL    HW1 3422   0.407   0.820   8.392
  962SOL    HW2 3423   0.306   0.714   8.430
  963SOL     OW 3424   0.338   0.528   8.462
  963SOL    HW1 3425   0.297   0.443   8.444
  963SOL    HW2 3426   0.413   0.532   8.404
  964SOL     OW 3427   1.133   0.381   9.144
  964SOL    HW1 3428   1.085   0.436   9.206
  964SOL    HW2 3429   1.220   0.421   9.139
  965SOL     OW 3430   1.151   0.225   8.929
  965SOL    HW1 3431   1.142   0.280   9.008
  965SOL    HW2 3432   1.176   0.286   8.860
  966SOL     OW 3433   0.000   1.318   7.631
  966SOL    HW1 3434   3.906   1.334   7.634
  966SOL    HW2 3435   0.009   1.224   7.649
  967SOL     OW 3436   0.077   1.800   8.337
  967SOL    HW1 3437   0.082   1.705   8.341
  967SOL    HW2 3438   0.169   1.829   8.341
  968SOL     OW 3439   0.501   1.571   8.359
  968SOL    HW1 3440   0.571   1.632   8.384
  968SOL    HW2 3441   0.544   1.508   8.301
  969SOL     OW 3442   0.980   0.790   8.673
  969SOL    HW1 3443   1.035   0.769   8.748
  969SOL    HW2 3444   0.895   0.752   8.695
  970SOL     OW 3445   0.035   0.572   8.561
  970SOL    HW1 3446   0.098   0.521   8.510
  970SOL    HW2 3447   0.061   0.558   8.652
  971SOL     OW 3448   0.211   0.516   9.170
  971SOL    HW1 3449   0.258   0.478   9.096
  971SOL    HW2 3450   0.163   0.590   9.132
  972SOL     OW 3451   1.378   0.937   9.105
  972SOL    HW1 3452   1.399   1.031   9.103
  972SOL    HW2 3453   1.375   0.911   9.014
  973SOL     OW 3454   0.818   0.572   7.809
  973SOL    HW1 3455   0.824   0.495   7.752
  973SOL    HW2 3456   0.743   0.621   7.776
  974SOL     OW 3457   1.641   0.602   8.632
  974SOL    HW1 3458   1.631   0.541   8.706
  974SOL    HW2 3459   1.728   0.584   8.598
  975SOL     OW 3460   0.299   1.544   9.174
  975SOL    HW1 3461   0.251   1.614   9.219
  975SOL    HW2 3462   0.267   1.464   9.214
  976SOL     OW 3463   0.707   0.455   8.705
  976SOL    HW1 3464   0.658   0.377   8.680
  976SOL    HW2 3465   0.699   0.514   8.631
  977SOL     OW 3466   0.926   1.679   8.917
  977SOL    HW1 3467   0.901   1.643   8.832
  977SOL    HW2 3468   0.921   1.774   8.905
  978SOL     OW 3469   0.454   0.492   7.645
  978SOL    HW1 3470   0.519   0.561   7.662
  978SOL    HW2 3471   0.375   0.539   7.621
  979SOL     OW 3472   0.156   1.135   8.922
  979SOL    HW1 3473   0.158   1.084   9.003
  979SOL    HW2 3474   0.171   1.070   8.853
  980SOL     OW 3475   1.324   1.046   8.670
  980SOL    HW1 3476   1.347   0.982   8.602
  980SOL    HW2 3477   1.255   1.099   8.631
  981SOL     OW 3478   1.313   0.857   7.755
  981SOL    HW1 3479   1.237   0.826   7.804
  981SOL    HW2 3480   1.289   0.845   7.663
  982SOL     OW 3481   1.742   1.735   8.583
  982SOL    HW1 3482   1.818   1.758   8.528
  982SOL    HW2 3483   1.728   1.642   8.567
  983SOL     OW 3484   1.243   1.734   8.556
  983SOL    HW1 3485   1.326   1.755   8.514
  983SOL    HW2 3486   1.250   1.640   8.577
  984SOL     OW 3487   0.077   1.217   8.476
  984SOL    HW1 3488   0.083   1.243   8.568
  984SOL    HW2 3489   3.984   1.226   8.454
  985SOL     OW 3490   0.679   1.667   9.181
  985SOL    HW1 3491   0.621   1.743   9.173
  985SOL    HW2 3492   0.745   1.680   9.112
  986SOL     OW 3493   1.713   0.125   7.935
  986SOL    HW1 3494   1.792   0.134   7.882
  986SOL    HW2 3495   1.705   0.031   7.950
  987SOL     OW 3496   1.385   1.583   7.925
  987SOL    HW1 3497   1.413   1.630   7.846
  987SOL    HW2 3498   1.334   1.647   7.975
  988SOL     OW 3499   0.174   1.764   9.277
  988SOL    HW1 3500   0.117   1.714   9.335
  988SOL    HW2 3501   0.215   1.829   9.334
  989SOL     OW 3502   1.277   0.927   8.119
  989SOL    HW1 3503   1.351   0.867   8.129
  989SOL    HW2 3504   1.312   0.999   8.066
  990SOL     OW 3505   0.812   1.274   8.877
  990SOL    HW1 3506   0.783   1.314   8.959
  990SOL    HW2 3507   0.741   1.291   8.815
  991SOL     OW 3508   0.668   1.622   7.603
  991SOL    HW1 3509   0.680   1.634   7.509
  991SOL    HW2 3510   0.614   1.544   7.610
  992SOL     OW 3511   1.623   1.729   8.838
  992SOL    HW1 3512   1.667   1.734   8.753
  992SOL    HW2 3513   1.610   1.820   8.864
  993SOL     OW 3514   1.839   0.177   8.415
  993SOL    HW1 3515   1.871   0.108   8.356
  993SOL    HW2 3516   1.751   0.196   8.383
  994SOL     OW 3517   0.274   0.323   8.162
  994SOL    HW1 3518   0.189   0.358   8.137
  994SOL    HW2 3519   0.266   0.306   8.256
  995SOL     OW 3520   1.104   1.585   7.515
  995SOL    HW1 3521   1.145   1.500   7.523
  995SOL    HW2 3522   1.060   1.583   7.430
  996SOL     OW 3523   0.823   1.005   8.821
  996SOL    HW1 3524   0.867   1.000   8.736
  996SOL    HW2 3525   0.823   1.099   8.842
  997SOL     OW 3526   0.915   0.910   7.739
  997SOL    HW1 3527   0.976   0.942   7.672
  997SOL    HW2 3528   0.964   0.841   7.784
  998SOL     OW 3529   0.374   1.303   8.940
  998SOL    HW1 3530   0.359   1.383   8.889
  998SOL    HW2 3531   0.297   1.248   8.922
  999SOL     OW 3532   1.609   1.281   8.730
  999SOL    HW1 3533   1.669   1.270   8.803
  999SOL    HW2 3534   1.549   1.350   8.759
 1000SOL     OW 3535   1.055   1.108   8.156
 1000SOL    HW1 3536   0.983   1.057   8.194
 1000SOL    HW2 3537   1.118   1.043   8.126
 1001SOL     OW 3538   1.014   0.249   8.417
 1001SOL    HW1 3539   1.004   0.199   8.336
 1001SOL    HW2 3540   1.009   0.183   8.487
 1002SOL     OW 3541   0.603   1.485   7.931
 1002SOL    HW1 3542   0.650   1.438   7.862
 1002SOL    HW2 3543   0.532   1.530   7.884
 1003SOL     OW 3544   1.720   0.393   8.821
 1003SOL    HW1 3545   1.793   0.456   8.824
 1003SOL    HW2 3546   1.754   0.321   8.767
 1004SOL     OW 3547   0.254   1.341   7.741
 1004SOL    HW1 3548   0.160   1.349   7.721
 1004SOL    HW2 3549   0.263   1.380   7.828
 1005SOL     OW 3550   0.107   1.000   9.166
 1005SOL    HW1 3551   0.047   0.991   9.240
 1005SOL    HW2 3552   0.193   0.981   9.202
 1006SOL     OW 3553   0.694   0.251   8.948
 1006SOL    HW1 3554   0.762   0.198   8.907
 1006SOL    HW2 3555   0.722   0.260   9.039
 1007SOL     OW 3556   0.088   0.323   7.475
 1007SOL    HW1 3557   3.993   0.319   7.468
 1007SOL    HW2 3558   0.113   0.405   7.433
 1008SOL     OW 3559   1.428   0.857   8.847
 1008SOL    HW1 3560   1.379   0.919   8.792
 1008SOL    HW2 3561   1.517   0.859   8.812
 1009SOL     OW 3562   0.037   0.167   7.732
 1009SOL    HW1 3563   0.037   0.234   7.664
 1009SOL    HW2 3564   0.115   0.186   7.785
 1010SOL     OW 3565   1.186   1.323   7.569
 1010SOL    HW1 3566   1.096   1.292   7.572
 1010SOL    HW2 3567   1.212   1.329   7.661
 1011SOL     OW 3568   0.620   0.829   8.884
 1011SOL    HW1 3569   0.677   0.904   8.868
 1011SOL    HW2 3570   0.680   0.755   8.892
 1012SOL     OW 3571   1.489   1.784   8.428
 1012SOL    HW1 3572   1.512   1.853   8.366
 1012SOL    HW2 3573   1.571   1.763   8.473
 1013SOL     OW 3574   0.717   0.562   9.155
 1013SOL    HW1 3575   0.761   0.624   9.213
 1013SOL    HW2 3576   0.745   0.476   9.186
 1014SOL     OW 3577   1.472   1.198   9.079
 1014SOL    HW1 3578   1.460   1.212   9.173
 1014SOL    HW2 3579   1.565   1.214   9.064
 1015SOL     OW 3580   0.379   1.743   9.005
 1015SOL    HW1 3581   0.292   1.780   8.993
 1015SOL    HW2 3582   0.363   1.661   9.052
 1016SOL     OW 3583   1.668   0.881   8.704
 1016SOL    HW1 3584   1.663   0.795   8.661
 1016SOL    HW2 3585   1.658   0.944   8.632
 1017SOL     OW 3586   1.223   0.335   7.892
 1017SOL    HW1 3587   1.291   0.267   7.884
 1017SOL    HW2 3588   1.243   0.380   7.974
 1018SOL     OW 3589   0.590   0.739   8.119
 1018SOL    HW1 3590   0.628   0.825   8.102
 1018SOL    HW2 3591   0.523   0.729   8.052
 1019SOL     OW 3592   1.752   0.383   9.091
 1019SOL    HW1 3593   1.733   0.388   8.997
 1019SOL    HW2 3594   1.695   0.313   9.122
 1020SOL     OW 3595   1.745   0.934   8.960
 1020SOL    HW1 3596   1.740   1.029   8.973
 1020SOL    HW2 3597   1.729   0.921   8.867
 1021SOL     OW 3598   0.859   1.365   7.484
 1021SOL    HW1 3599   0.826   1.392   7.569
 1021SOL    HW2 3600   0.875   1.448   7.437
 1022SOL     OW 3601   0.662   1.789   8.392
 1022SOL    HW1 3602   0.641   1.880   8.369
 1022SOL    HW2 3603   0.757   1.783   8.383
 1023SOL     OW 3604   0.868   0.967   8.302
 1023SOL    HW1 3605   0.918   0.896   8.341
 1023SOL    HW2 3606   0.832   1.015   8.377
 1024SOL     OW 3607   1.076   0.987   7.537
 1024SOL    HW1 3608   1.056   1.038   7.458
 1024SOL    HW2 3609   1.152   0.934   7.512
 1025SOL     OW 3610   1.844   1.549   8.291
 1025SOL    HW1 3611   1.767   1.540   8.235
 1025SOL    HW2 3612   1.837   1.478   8.354
 1026SOL     OW 3613   0.225   1.303   9.304
 1026SOL    HW1 3614   0.154   1.246   9.277
 1026SOL    HW2 3615   0.212   1.317   9.398
 1027SOL     OW 3616   0.117   1.278   8.168
 1027SOL    HW1 3617   0.132   1.226   8.248
 1027SOL    HW2 3618   0.106   1.212   8.099
 1028SOL     OW 3619   0.681   1.404   9.077
 1028SOL    HW1 3620   0.601   1.361   9.107
 1028SOL    HW2 3621   0.677   1.492   9.114
 1029SOL     OW 3622   1.812   0.183   8.687
 1029SOL    HW1 3623   1.815   0.089   8.701
 1029SOL    HW2 3624   1.826   0.193   8.593
 1030SOL     OW 3625   0.444   0.437   7.979
 1030SOL    HW1 3626   0.459   0.362   7.922
 1030SOL    HW2 3627   0.388   0.403   8.049
 1031SOL     OW 3628   1.700   1.475   8.541
 1031SOL    HW1 3629   1.618   1.456   8.495
 1031SOL    HW2 3630   1.706   1.406   8.608
 1032SOL     OW 3631   0.332   0.557   8.741
 1032SOL    HW1 3632   0.389   0.500   8.794
 1032SOL    HW2 3633   0.348   0.528   8.650
 1033SOL     OW 3634   0.828   1.578   8.124
 1033SOL    HW1 3635   0.819   1.633   8.046
 1033SOL    HW2 3636   0.752   1.521   8.123
 1034SOL     OW 3637   1.461   0.253   8.559
 1034SOL    HW1 3638   1.477   0.166   8.595
 1034SOL    HW2 3639   1.405   0.296   8.624
 1035SOL     OW 3640   1.004   0.028   8.595
 1035SOL    HW1 3641   0.925   3.988   8.560
 1035SOL    HW2 3642   1.067   3.957   8.602
 1036SOL     OW 3643   0.772   1.331   7.764
 1036SOL    HW1 3644   0.741   1.241   7.771
 1036SOL    HW2 3645   0.854   1.332   7.813
 1037SOL     OW 3646   0.620   1.557   8.734
 1037SOL    HW1 3647   0.622   1.638   8.783
 1037SOL    HW2 3648   0.708   1.549   8.696
 1038SOL     OW 3649   1.312   0.074   7.613
 1038SOL    HW1 3650   1.325   3.998   7.556
 1038SOL    HW2 3651   1.227   0.059   7.653
 1039SOL     OW 3652   1.283   0.457   8.134
 1039SOL    HW1 3653   1.236   0.540   8.129
 1039SOL    HW2 3654   1.286   0.437   8.227
 1040SOL     OW 3655   1.588   0.210   8.316
 1040SOL    HW1 3656   1.539   0.234   8.394
 1040SOL    HW2 3657   1.588   0.290   8.262
 1041SOL     OW 3658   0.047   1.049   7.688
 1041SOL    HW1 3659   0.141   1.033   7.679
 1041SOL    HW2 3660   0.011   0.967   7.721
 1042SOL     OW 3661   0.863   1.642   7.807
 1042SOL    HW1 3662   0.797   1.632   7.739
 1042SOL    HW2 3663   0.840   1.724   7.850
 1043SOL     OW 3664   0.233   0.627   9.427
 1043SOL    HW1 3665   0.139   0.632   9.449
 1043SOL    HW2 3666   0.234   0.598   9.336
 1044SOL     OW 3667   0.224   0.288  10.293
 1044SOL    HW1 3668   0.247   0.250  10.377
 1044SOL    HW2 3669   0.130   0.276  10.286
 1045SOL     OW 3670   0.018   0.385   9.945
 1045SOL    HW1 3671   3.928   0.398   9.975
 1045SOL    HW2 3672   0.026   0.291   9.930
 1046SOL     OW 3673   0.580   1.287  10.499
 1046SOL    HW1 3674   0.493   1.290  10.458
 1046SOL    HW2 3675   0.593   1.376  10.531
 1047SOL     OW 3676   1.566   1.513  10.019
 1047SOL    HW1 3677   1.523   1.494  10.102
 1047SOL    HW2 3678   1.494   1.519   9.956
 1048SOL     OW 3679   1.132   0.698  10.008
 1048SOL    HW1 3680   1.180   0.780   9.996
 1048SOL    HW2 3681   1.085   0.711  10.090
 1049SOL     OW 3682   1.765   0.619   9.536
 1049SOL    HW1 3683   1.744   0.611   9.443
 1049SOL    HW2 3684   1.752   0.530   9.570
 1050SOL     OW 3685   0.755   1.140  10.351
 1050SOL    HW1 3686   0.690   1.175  10.412
 1050SOL    HW2 3687   0.790   1.217  10.307
 1051SOL     OW 3688   0.870   0.772  11.133
 1051SOL    HW1 3689   0.858   0.843  11.196
 1051SOL    HW2 3690   0.892   0.815  11.051
 1052SOL     OW 3691   0.685   1.003   9.956
 1052SOL    HW1 3692   0.751   0.991  10.025
 1052SOL    HW2 3693   0.616   1.054   9.998
 1053SOL     OW 3694   0.711   1.149  11.125
 1053SOL    HW1 3695   0.759   1.227  11.153
 1053SOL    HW2 3696   0.629   1.183  11.088
 1054SOL     OW 3697   0.351   1.402  10.389
 1054SOL    HW1 3698   0.270   1.382  10.342
 1054SOL    HW2 3699   0.399   1.460  10.329
 1055SOL     OW 3700   1.461   1.501  10.666
 1055SOL    HW1 3701   1.513   1.580  10.675
 1055SOL    HW2 3702   1.397   1.506  10.737
 1056SOL     OW 3703   0.456   0.408  10.807
 1056SOL    HW1 3704   0.537   0.357  10.805
 1056SOL    HW2 3705   0.387   0.342  10.809
 1057SOL     OW 3706   1.612   0.451  10.045
 1057SOL    HW1 3707   1.542   0.482   9.988
 1057SOL    HW2 3708   1.631   0.525  10.103
 1058SOL     OW 3709   0.221   1.718   9.768
 1058SOL    HW1 3710   0.240   1.793   9.825
 1058SOL    HW2 3711   0.298   1.710   9.712
 1059SOL     OW 3712   1.137   1.342  11.003
 1059SOL    HW1 3713   1.178   1.336  11.090
 1059SOL    HW2 3714   1.085   1.262  10.996
 1060SOL     OW 3715   0.249   1.449   9.850
 1060SOL    HW1 3716   0.215   1.538   9.836
 1060SOL    HW2 3717   0.181   1.405   9.901
 1061SOL     OW 3718   0.247   1.067  10.195
 1061SOL    HW1 3719   0.266   0.982  10.234
 1061SOL    HW2 3720   0.194   1.113  10.260
 1062SOL     OW 3721   0.611   1.792  10.738
 1062SOL    HW1 3722   0.529   1.774  10.783
 1062SOL    HW2 3723   0.634   1.881  10.764
 1063SOL     OW 3724   0.578   0.985   9.448
 1063SOL    HW1 3725   0.626   1.030   9.378
 1063SOL    HW2 3726   0.620   1.015   9.529
 1064SOL     OW 3727   1.580   0.139  10.766
 1064SOL    HW1 3728   1.609   0.212  10.711
 1064SOL    HW2 3729   1.550   0.180  10.847
 1065SOL     OW 3730   0.140   0.651   9.879
 1065SOL    HW1 3731   0.097   0.566   9.884
 1065SOL    HW2 3732   0.102   0.701   9.952
 1066SOL     OW 3733   0.044   1.590   9.449
 1066SOL    HW1 3734   0.035   1.498   9.473
 1066SOL    HW2 3735   3.962   1.630   9.478
 1067SOL     OW 3736   1.687   0.916   9.951
 1067SOL    HW1 3737   1.772   0.876   9.933
 1067SOL    HW2 3738   1.667   0.969   9.873
 1068SOL     OW 3739   1.648   1.106   9.739
 1068SOL    HW1 3740   1.734   1.110   9.698
 1068SOL    HW2 3741   1.653   1.168   9.812
 1069SOL     OW 3742   0.139   0.756  10.899
 1069SOL    HW1 3743   0.235   0.750  10.895
 1069SOL    HW2 3744   0.121   0.845  10.928
 1070SOL     OW 3745   0.613   1.386  10.046
 1070SOL    HW1 3746   0.567   1.303  10.055
 1070SOL    HW2 3747   0.597   1.412   9.955
 1071SOL     OW 3748   1.288   1.238  10.733
 1071SOL    HW1 3749   1.319   1.170  10.673
 1071SOL    HW2 3750   1.346   1.232  10.808
 1072SOL     OW 3751   0.819   0.003   9.826
 1072SOL    HW1 3752   0.864   0.084   9.802
 1072SOL    HW2 3753   0.726   0.027   9.826
 1073SOL     OW 3754   0.184   0.951  10.587
 1073SOL    HW1 3755   0.272   0.916  10.575
 1073SOL    HW2 3756   0.132   0.908  10.520
 1074SOL     OW 3757   1.531   0.995   9.510
 1074SOL    HW1 3758   1.462   0.938   9.542
 1074SOL    HW2 3759   1.573   1.029   9.588
 1075SOL     OW 3760   1.184   1.808  10.933
 1075SOL    HW1 3761   1.195   1.867  10.859
 1075SOL    HW2 3762   1.202   1.721  10.897
 1076SOL     OW 3763   0.344   0.252  11.145
 1076SOL    HW1 3764   0.387   0.336  11.128
 1076SOL    HW2 3765   0.253   0.276  11.164
 1077SOL     OW 3766   1.465   1.419  10.260
 1077SOL    HW1 3767   1.398   1.435  10.326
 1077SOL    HW2 3768   1.452   1.328  10.233
 1078SOL     OW 3769   1.664   1.734   9.867
 1078SOL    HW1 3770   1.630   1.696   9.786
 1078SOL    HW2 3771   1.646   1.668   9.934
 1079SOL     OW 3772   0.596   0.718   9.575
 1079SOL    HW1 3773   0.601   0.802   9.530
 1079SOL    HW2 3774   0.533   0.733   9.646
 1080SOL     OW 3775   1.275   0.367  10.251
 1080SOL    HW1 3776   1.188   0.329  10.257
 1080SOL    HW2 3777   1.332   0.306  10.296
 1081SOL     OW 3778   1.575   1.671   9.609
 1081SOL    HW1 3779   1.663   1.702   9.588
 1081SOL    HW2 3780   1.537   1.646   9.524
 1082SOL     OW 3781   0.794   0.616  10.764
 1082SOL    HW1 3782   0.765   0.591  10.851
 1082SOL    HW2 3783   0.756   0.551  10.705
 1083SOL     OW 3784   1.392   0.476  10.987
 1083SOL    HW1 3785   1.398   0.521  11.072
 1083SOL    HW2 3786   1.450   0.401  10.996
 1084SOL     OW 3787   0.953   0.887  10.894
 1084SOL    HW1 3788   1.008   0.818  10.857
 1084SOL    HW2 3789   0.905   0.922  10.819
 1085SOL     OW 3790   0.992   0.403  10.549
 1085SOL    HW1 3791   0.907   0.425  10.588
 1085SOL    HW2 3792   0.970   0.373  10.461
 1086SOL     OW 3793   1.052   0.699   9.736
 1086SOL    HW1 3794   1.068   0.692   9.830
 1086SOL    HW2 3795   0.969   0.653   9.722
 1087SOL     OW 3796   0.081   0.828  10.101
 1087SOL    HW1 3797   0.155   0.795  10.151
 1087SOL    HW2 3798   0.100   0.921  10.088
 1088SOL     OW 3799   0.130   1.861  10.886
 1088SOL    HW1 3800   0.137   1.826  10.975
 1088SOL    HW2 3801   0.037   1.849  10.863
 1089SOL     OW 3802   0.894   0.352   9.508
 1089SOL    HW1 3803   0.936   0.411   9.446
 1089SOL    HW2 3804   0.893   0.267   9.464
 1090SOL     OW 3805   1.709   0.576  11.139
 1090SOL    HW1 3806   1.671   0.649  11.091
 1090SOL    HW2 3807   1.733   0.512  11.071
 1091SOL     OW 3808   1.378   1.141   9.850
 1091SOL    HW1 3809   1.458   1.130   9.798
 1091SOL    HW2 3810   1.325   1.204   9.800
 1092SOL     OW 3811   0.561   0.195  10.191
 1092SOL    HW1 3812   0.565   0.218  10.284
 1092SOL    HW2 3813   0.547   0.278  10.146
 1093SOL     OW 3814   1.004   1.444   9.781
 1093SOL    HW1 3815   0.968   1.518   9.731
 1093SOL    HW2 3816   0.985   1.464   9.872
 1094SOL     OW 3817   0.365   1.817  10.179
 1094SOL    HW1 3818   0.429   1.747  10.187
 1094SOL    HW2 3819   0.415   1.897  10.195
 1095SOL     OW 3820   1.799   1.052  10.180
 1095SOL    HW1 3821   1.745   1.038  10.103
 1095SOL    HW2 3822   1.737   1.060  10.252
 1096SOL     OW 3823   1.228   1.539  10.823
 1096SOL    HW1 3824   1.214   1.466  10.884
 1096SOL    HW2 3825   1.164   1.524  10.754
 1097SOL     OW 3826   0.310   0.954   9.552
 1097SOL    HW1 3827   0.394   0.976   9.512
 1097SOL    HW2 3828   0.297   0.862   9.531
 1098SOL     OW 3829   1.479   0.746  10.040
 1098SOL    HW1 3830   1.473   0.704  10.125
 1098SOL    HW2 3831   1.557   0.801  10.045
 1099SOL     OW 3832   0.467   1.261  11.047
 1099SOL    HW1 3833   0.441   1.269  10.955
 1099SOL    HW2 3834   0.385   1.264  11.096
 1100SOL     OW 3835   1.122   1.777   9.541
 1100SOL    HW1 3836   1.048   1.737   9.586
 1100SOL    HW2 3837   1.145   1.715   9.472
 1101SOL     OW 3838   0.200   0.294  10.809
 1101SOL    HW1 3839   0.107   0.315  10.808
 1101SOL    HW2 3840   0.209   0.225  10.874
 1102SOL     OW 3841   1.628   1.380   9.397
 1102SOL    HW1 3842   1.586   1.465   9.381
 1102SOL    HW2 3843   1.559   1.316   9.378
 1103SOL     OW 3844   0.466   1.739   9.627
 1103SOL    HW1 3845   0.509   1.796   9.691
 1103SOL    HW2 3846   0.538   1.704   9.574
 1104SOL     OW 3847   1.440   0.164   9.715
 1104SOL    HW1 3848   1.394   0.098   9.664
 1104SOL    HW2 3849   1.512   0.117   9.757
 1105SOL     OW 3850   0.251   1.791  10.542
 1105SOL    HW1 3851   0.298   1.727  10.595
 1105SOL    HW2 3852   0.248   1.752  10.454
 1106SOL     OW 3853   0.938   1.699  10.208
 1106SOL    HW1 3854   1.017   1.649  10.229
 1106SOL    HW2 3855   0.895   1.649  10.139
 1107SOL     OW 3856   0.397   0.694   9.781
 1107SOL    HW1 3857   0.423   0.604   9.796
 1107SOL    HW2 3858   0.305   0.698   9.807
 1108SOL     OW 3859   1.529   0.230  11.037
 1108SOL    HW1 3860   1.526   0.255  11.129
 1108SOL    HW2 3861   1.508   0.136  11.037
 1109SOL     OW 3862   0.644   0.131   9.412
 1109SOL    HW1 3863   0.669   0.049   9.453
 1109SOL    HW2 3864   0.583   0.106   9.343
 1110SOL     OW 3865   0.777   0.283  11.076
 1110SOL    HW1 3866   0.849   0.220  11.079
 1110SOL    HW2 3867   0.719   0.257  11.148
 1111SOL     OW 3868   0.876   1.522  10.504
 1111SOL    HW1 3869   0.860   1.485  10.417
 1111SOL    HW2 3870   0.946   1.468  10.541
 1112SOL     OW 3871   1.340   0.587  10.740
 1112SOL    HW1 3872   1.371   0.558  10.826
 1112SOL    HW2 3873   1.375   0.676  10.731
 1113SOL     OW 3874   0.816   1.394  10.251
 1113SOL    HW1 3875   0.901   1.382  10.208
 1113SOL    HW2 3876   0.753   1.395  10.178
 1114SOL     OW 3877   0.930   0.512  10.211
 1114SOL    HW1 3878   0.906   0.503  10.119
 1114SOL    HW2 3879   0.956   0.423  10.237
 1115SOL     OW 3880   0.546   0.056   9.798
 1115SOL    HW1 3881   0.472   0.064   9.858
 1115SOL    HW2 3882   0.548   0.140   9.752
 1116SOL     OW 3883   1.427   1.198   9.351
 1116SOL    HW1 3884   1.458   1.123   9.401
 1116SOL    HW2 3885   1.342   1.220   9.388
 1117SOL     OW 3886   0.343   0.039   9.508
 1117SOL    HW1 3887   0.361   0.086   9.426
 1117SOL    HW2 3888   0.427   0.035   9.552
 1118SOL     OW 3889   0.941   0.249   9.771
 1118SOL    HW1 3890   0.915   0.289   9.689
 1118SOL    HW2 3891   1.037   0.252   9.770
 1119SOL     OW 3892   1.079   0.683  10.769
 1119SOL    HW1 3893   1.009   0.618  10.775
 1119SOL    HW2 3894   1.160   0.631  10.763
 1120SOL     OW 3895   1.222   1.571  10.105
 1120SOL    HW1 3896   1.238   1.637  10.038
 1120SOL    HW2 3897   1.291   1.584  10.169
 1121SOL     OW 3898   0.466   1.151  10.046
 1121SOL    HW1 3899   0.395   1.126  10.105
 1121SOL    HW2 3900   0.432   1.135   9.958
 1122SOL     OW 3901   1.265   1.793   9.918
 1122SOL    HW1 3902   1.310   1.856   9.862
 1122SOL    HW2 3903   1.199   1.845   9.964
 1123SOL     OW 3904   1.022   0.544   9.337
 1123SOL    HW1 3905   0.979   0.627   9.318
 1123SOL    HW2 3906   1.086   0.565   9.406
 1124SOL     OW 3907   0.080   0.572  10.703
 1124SOL    HW1 3908   0.169   0.555  10.673
 1124SOL    HW2 3909   0.090   0.644  10.766
 1125SOL     OW 3910   0.572   0.231  10.470
 1125SOL    HW1 3911   0.594   0.139  10.478
 1125SOL    HW2 3912   0.481   0.237  10.500
 1126SOL     OW 3913   0.871   0.461   9.949
 1126SOL    HW1 3914   0.820   0.514   9.887
 1126SOL    HW2 3915   0.891   0.380   9.901
 1127SOL     OW 3916   0.996   0.040  10.090
 1127SOL    HW1 3917   0.960   0.068  10.006
 1127SOL    HW2 3918   1.007   3.946  10.081
 1128SOL     OW 3919   1.438   1.162  10.167
 1128SOL    HW1 3920   1.368   1.096  10.165
 1128SOL    HW2 3921   1.463   1.172  10.076
 1129SOL     OW 3922   1.465   0.606  10.285
 1129SOL    HW1 3923   1.412   0.527  10.290
 1129SOL    HW2 3924   1.525   0.600  10.359
 1130SOL     OW 3925   1.845   0.819   9.696
 1130SOL    HW1 3926   1.901   0.767   9.753
 1130SOL    HW2 3927   1.815   0.758   9.629
 1131SOL     OW 3928   0.488   1.420   9.470
 1131SOL    HW1 3929   0.412   1.389   9.520
 1131SOL    HW2 3930   0.472   1.390   9.381
 1132SOL     OW 3931   1.670   1.264   9.955
 1132SOL    HW1 3932   1.765   1.264   9.969
 1132SOL    HW2 3933   1.643   1.353   9.977
 1133SOL     OW 3934   1.395   0.575   9.379
 1133SOL    HW1 3935   1.332   0.556   9.449
 1133SOL    HW2 3936   1.480   0.555   9.418
 1134SOL     OW 3937   0.558   0.271   9.628
 1134SOL    HW1 3938   0.603   0.231   9.554
 1134SOL    HW2 3939   0.528   0.356   9.596
 1135SOL     OW 3940   1.751   1.240  10.881
 1135SOL    HW1 3941   1.839   1.201  10.876
 1135SOL    HW2 3942   1.767   1.330  10.909
 1136SOL     OW 3943   1.057   1.354  10.643
 1136SOL    HW1 3944   0.982   1.322  10.694
 1136SOL    HW2 3945   1.133   1.312  10.684
 1137SOL     OW 3946   1.608   1.625  10.964
 1137SOL    HW1 3947   1.602   1.662  10.876
 1137SOL    HW2 3948   1.691   1.579  10.965
 1138SOL     OW 3949   1.131   1.205  10.415
 1138SOL    HW1 3950   1.071   1.243  10.479
 1138SOL    HW2 3951   1.099   1.238  10.331
 1139SOL     OW 3952   1.626   1.097  10.387
 1139SOL    HW1 3953   1.621   1.159  10.460
 1139SOL    HW2 3954   1.548   1.115  10.334
 1140SOL     OW 3955   0.913   0.114  10.711
 1140SOL    HW1 3956   0.933   0.088  10.621
 1140SOL    HW2 3957   0.993   0.156  10.742
 1141SOL     OW 3958   0.984   1.115  11.033
 1141SOL    HW1 3959   0.892   1.131  11.055
 1141SOL    HW2 3960   0.982   1.037  10.978
 1142SOL     OW 3961   0.708   1.061   9.681
 1142SOL    HW1 3962   0.694   1.045   9.774
 1142SOL    HW2 3963   0.784   1.008   9.658
 1143SOL     OW 3964   0.422   0.816  10.562
 1143SOL    HW1 3965   0.490   0.823  10.629
 1143SOL    HW2 3966   0.387   0.728  10.572
 1144SOL     OW 3967   1.266   0.375  10.586
 1144SOL    HW1 3968   1.300   0.453  10.631
 1144SOL    HW2 3969   1.179   0.401  10.556
 1145SOL     OW 3970   0.065   1.580  10.656
 1145SOL    HW1 3971   0.070   1.639  10.581
 1145SOL    HW2 3972   0.156   1.566  10.682
 1146SOL     OW 3973   0.372   1.103   9.793
 1146SOL    HW1 3974   0.366   1.181   9.739
 1146SOL    HW2 3975   0.371   1.030   9.731
 1147SOL     OW 3976   0.555   0.535  10.168
 1147SOL    HW1 3977   0.569   0.594  10.094
 1147SOL    HW2 3978   0.620   0.562  10.233
 1148SOL     OW 3979   1.248   1.348   9.699
 1148SOL    HW1 3980   1.303   1.419   9.732
 1148SOL    HW2 3981   1.160   1.369   9.733
 1149SOL     OW 3982   1.283   1.459  10.458
 1149SOL    HW1 3983   1.339   1.462  10.535
 1149SOL    HW2 3984   1.228   1.382  10.472
 1150SOL     OW 3985   1.576   0.633   9.796
 1150SOL    HW1 3986   1.534   0.691   9.860
 1150SOL    HW2 3987   1.623   0.693   9.738
 1151SOL     OW 3988   0.345   1.527  10.629
 1151SOL    HW1 3989   0.335   1.476  10.548
 1151SOL    HW2 3990   0.440   1.542  10.636
 1152SOL     OW 3991   0.416   0.738  10.911
 1152SOL    HW1 3992   0.478   0.784  10.854
 1152SOL    HW2 3993   0.454   0.651  10.924
 1153SOL     OW 3994   1.603   0.780  10.994
 1153SOL    HW1 3995   1.517   0.821  10.987
 1153SOL    HW2 3996   1.655   0.821  10.926
 1154SOL     OW 3997   1.013   0.131  11.088
 1154SOL    HW1 3998   1.063   0.204  11.052
 1154SOL    HW2 3999   1.003   0.070  11.015
 1155SOL     OW 4000   0.481   0.036  11.076
 1155SOL    HW1 4001   0.491   0.045  10.981
 1155SOL    HW2 4002   0.420   0.106  11.100
 1156SOL     OW 4003   0.585   0.874  10.341
 1156SOL    HW1 4004   0.616   0.965  10.343
 1156SOL    HW2 4005   0.529   0.867  10.419
 1157SOL     OW 4006   1.355   0.858  10.338
 1157SOL    HW1 4007   1.271   0.847  10.293
 1157SOL    HW2 4008   1.397   0.773  10.331
 1158SOL     OW 4009   1.201   0.536   9.569
 1158SOL    HW1 4010   1.210   0.457   9.622
 1158SOL    HW2 4011   1.158   0.599   9.627
 1159SOL     OW 4012   0.312   0.213  10.551
 1159SOL    HW1 4013   0.269   0.249  10.628
 1159SOL    HW2 4014   0.296   0.118  10.556
 1160SOL     OW 4015   0.060   1.306  10.590
 1160SOL    HW1 4016   0.091   1.264  10.671
 1160SOL    HW2 4017   0.052   1.398  10.613
 1161SOL     OW 4018   0.725   0.634  10.364
 1161SOL    HW1 4019   0.799   0.618  10.306
 1161SOL    HW2 4020   0.696   0.722  10.343
 1162SOL     OW 4021   1.736   0.959  11.164
 1162SOL    HW1 4022   1.690   0.896  11.108
 1162SOL    HW2 4023   1.676   0.974  11.238
 1163SOL     OW 4024   0.329   0.055   9.963
 1163SOL    HW1 4025   0.300   0.146   9.964
 1163SOL    HW2 4026   0.291   0.017  10.042
 1164SOL     OW 4027   1.606   0.390   9.691
 1164SOL    HW1 4028   1.568   0.322   9.748
 1164SOL    HW2 4029   1.586   0.472   9.736
 1165SOL     OW 4030   1.029   0.759  10.269
 1165SOL    HW1 4031   1.023   0.776  10.363
 1165SOL    HW2 4032   1.002   0.668  10.260
 1166SOL     OW 4033   0.982   1.566  11.028
 1166SOL    HW1 4034   0.967   1.610  10.945
 1166SOL    HW2 4035   1.026   1.484  11.005
 1167SOL     OW 4036   1.854   1.503  10.914
 1167SOL    HW1 4037   1.871   1.533  10.825
 1167SOL    HW2 4038   1.938   1.515  10.959
 1168SOL     OW 4039   0.353   0.921  11.109
 1168SOL    HW1 4040   0.431   0.941  11.161
 1168SOL    HW2 4041   0.381   0.854  11.048
 1169SOL     OW 4042   1.506   0.275   9.446
 1169SOL    HW1 4043   1.431   0.216   9.457
 1169SOL    HW2 4044   1.519   0.315   9.532
 1170SOL     OW 4045   1.290   0.827   9.339
 1170SOL    HW1 4046   1.332   0.741   9.343
 1170SOL    HW2 4047   1.321   0.866   9.258
 1171SOL     OW 4048   1.066   1.336  10.165
 1171SOL    HW1 4049   1.070   1.264  10.102
 1171SOL    HW2 4050   1.127   1.402  10.130
 1172SOL     OW 4051   0.313   0.804  10.260
 1172SOL    HW1 4052   0.407   0.820  10.254
 1172SOL    HW2 4053   0.306   0.713  10.292
 1173SOL     OW 4054   0.338   0.528  10.324
 1173SOL    HW1 4055   0.297   0.443  10.306
 1173SOL    HW2 4056   0.413   0.532  10.266
 1174SOL     OW 4057   1.133   0.381  11.006
 1174SOL    HW1 4058   1.085   0.436  11.068
 1174SOL    HW2 4059   1.220   0.421  11.001
 1175SOL     OW 4060   1.151   0.225  10.791
 1175SOL    HW1 4061   1.142   0.280  10.870
 1175SOL    HW2 4062   1.176   0.286  10.722
 1176SOL     OW 4063   0.000   1.318   9.492
 1176SOL    HW1 4064   3.906   1.334   9.496
 1176SOL    HW2 4065   0.009   1.224   9.511
 1177SOL     OW 4066   0.077   1.800  10.199
 1177SOL    HW1 4067   0.082   1.705  10.204
 1177SOL    HW2 4068   0.169   1.829  10.203
 1178SOL     OW 4069   0.502   1.571  10.221
 1178SOL    HW1 4070   0.571   1.632  10.246
 1178SOL    HW2 4071   0.545   1.508  10.163
 1179SOL     OW 4072   0.980   0.790  10.535
 1179SOL    HW1 4073   1.036   0.769  10.610
 1179SOL    HW2 4074   0.895   0.752  10.557
 1180SOL     OW 4075   0.035   0.572  10.423
 1180SOL    HW1 4076   0.099   0.521  10.372
 1180SOL    HW2 4077   0.061   0.558  10.514
 1181SOL     OW 4078   0.211   0.516  11.032
 1181SOL    HW1 4079   0.258   0.478  10.958
 1181SOL    HW2 4080   0.163   0.590  10.994
 1182SOL     OW 4081   1.378   0.937  10.967
 1182SOL    HW1 4082   1.399   1.031  10.965
 1182SOL    HW2 4083   1.375   0.911  10.876
 1183SOL     OW 4084   0.818   0.572   9.671
 1183SOL    HW1 4085   0.824   0.495   9.614
 1183SOL    HW2 4086   0.743   0.621   9.638
 1184SOL     OW 4087   1.641   0.602  10.494
 1184SOL    HW1 4088   1.631   0.542  10.568
 1184SOL    HW2 4089   1.728   0.584  10.460
 1185SOL     OW 4090   0.299   1.545  11.036
 1185SOL    HW1 4091   0.251   1.614  11.081
 1185SOL    HW2 4092   0.267   1.464  11.076
 1186SOL     OW 4093   0.707   0.455  10.567
 1186SOL    HW1 4094   0.658   0.377  10.542
 1186SOL    HW2 4095   0.698   0.514  10.492
 1187SOL     OW 4096   0.925   1.679  10.779
 1187SOL    HW1 4097   0.901   1.643  10.694
 1187SOL    HW2 4098   0.921   1.774  10.767
 1188SOL     OW 4099   0.455   0.492   9.507
 1188SOL    HW1 4100   0.519   0.561   9.524
 1188SOL    HW2 4101   0.375   0.539   9.483
 1189SOL     OW 4102   0.156   1.135  10.784
 1189SOL    HW1 4103   0.158   1.084  10.865
 1189SOL    HW2 4104   0.171   1.070  10.715
 1190SOL     OW 4105   1.324   1.046  10.532
 1190SOL    HW1 4106   1.347   0.982  10.464
 1190SOL    HW2 4107   1.255   1.099  10.493
 1191SOL     OW 4108   1.313   0.856   9.615
 1191SOL    HW1 4109   1.238   0.827   9.667
 1191SOL    HW2 4110   1.287   0.843   9.524
 1192SOL     OW 4111   1.743   1.735  10.447
 1192SOL    HW1 4112   1.819   1.758  10.394
 1192SOL    HW2 4113   1.728   1.642  10.430
 1193SOL     OW 4114   1.243   1.734  10.419
 1193SOL    HW1 4115   1.326   1.755  10.377
 1193SOL    HW2 4116   1.249   1.641  10.439
 1194SOL     OW 4117   0.077   1.217  10.337
 1194SOL    HW1 4118   0.083   1.243  10.429
 1194SOL    HW2 4119   3.984   1.226  10.316
 1195SOL     OW 4120   0.679   1.667  11.043
 1195SOL    HW1 4121   0.621   1.743  11.035
 1195SOL    HW2 4122   0.745   1.680  10.974
 1196SOL     OW 4123   1.713   0.125   9.797
 1196SOL    HW1 4124   1.792   0.134   9.744
 1196SOL    HW2 4125   1.705   0.031   9.812
 1197SOL     OW 4126   1.390   1.568   9.797
 1197SOL    HW1 4127   1.446   1.601   9.726
 1197SOL    HW2 4128   1.341   1.644   9.826
 1198SOL     OW 4129   0.174   1.764  11.139
 1198SOL    HW1 4130   0.117   1.714  11.197
 1198SOL    HW2 4131   0.215   1.829  11.197
 1199SOL     OW 4132   1.277   0.927   9.981
 1199SOL    HW1 4133   1.351   0.867   9.991
 1199SOL    HW2 4134   1.311   0.999   9.928
 1200SOL     OW 4135   0.812   1.274  10.739
 1200SOL    HW1 4136   0.783   1.314  10.821
 1200SOL    HW2 4137   0.741   1.292  10.677
 1201SOL     OW 4138   0.670   1.621   9.465
 1201SOL    HW1 4139   0.681   1.633   9.371
 1201SOL    HW2 4140   0.615   1.543   9.473
 1202SOL     OW 4141   1.622   1.729  10.700
 1202SOL    HW1 4142   1.667   1.734  10.616
 1202SOL    HW2 4143   1.610   1.820  10.727
 1203SOL     OW 4144   1.839   0.177  10.277
 1203SOL    HW1 4145   1.871   0.108  10.219
 1203SOL    HW2 4146   1.751   0.196  10.245
 1204SOL     OW 4147   0.274   0.323  10.024
 1204SOL    HW1 4148   0.189   0.358   9.999
 1204SOL    HW2 4149   0.266   0.306  10.118
 1205SOL     OW 4150   1.206   1.605   9.342
 1205SOL    HW1 4151   1.197   1.513   9.368
 1205SOL    HW2 4152   1.141   1.617   9.273
 1206SOL     OW 4153   0.823   1.005  10.683
 1206SOL    HW1 4154   0.867   1.000  10.598
 1206SOL    HW2 4155   0.823   1.099  10.704
 1207SOL     OW 4156   0.915   0.910   9.600
 1207SOL    HW1 4157   0.977   0.943   9.534
 1207SOL    HW2 4158   0.963   0.842   9.646
 1208SOL     OW 4159   1.487   1.623   9.350
 1208SOL    HW1 4160   1.393   1.617   9.334
 1208SOL    HW2 4161   1.526   1.630   9.263
 1209SOL     OW 4162   0.374   1.303  10.802
 1209SOL    HW1 4163   0.359   1.383  10.751
 1209SOL    HW2 4164   0.297   1.248  10.784
 1210SOL     OW 4165   1.609   1.282  10.591
 1210SOL    HW1 4166   1.670   1.271  10.663
 1210SOL    HW2 4167   1.549   1.351  10.620
 1211SOL     OW 4168   1.054   1.108  10.017
 1211SOL    HW1 4169   0.983   1.057  10.056
 1211SOL    HW2 4170   1.118   1.043   9.988
 1212SOL     OW 4171   1.014   0.249  10.279
 1212SOL    HW1 4172   1.004   0.198  10.198
 1212SOL    HW2 4173   1.009   0.183  10.349
 1213SOL     OW 4174   0.606   1.489   9.792
 1213SOL    HW1 4175   0.650   1.439   9.724
 1213SOL    HW2 4176   0.532   1.530   9.746
 1214SOL     OW 4177   1.720   0.393  10.683
 1214SOL    HW1 4178   1.792   0.456  10.687
 1214SOL    HW2 4179   1.754   0.321  10.629
 1215SOL     OW 4180   0.253   1.341   9.603
 1215SOL    HW1 4181   0.160   1.349   9.583
 1215SOL    HW2 4182   0.263   1.380   9.690
 1216SOL     OW 4183   0.107   0.999  11.028
 1216SOL    HW1 4184   0.047   0.991  11.102
 1216SOL    HW2 4185   0.193   0.980  11.064
 1217SOL     OW 4186   0.694   0.251  10.810
 1217SOL    HW1 4187   0.762   0.198  10.769
 1217SOL    HW2 4188   0.722   0.260  10.901
 1218SOL     OW 4189   0.088   0.323   9.337
 1218SOL    HW1 4190   3.993   0.319   9.330
 1218SOL    HW2 4191   0.112   0.405   9.295
 1219SOL     OW 4192   1.428   0.857  10.709
 1219SOL    HW1 4193   1.379   0.919  10.654
 1219SOL    HW2 4194   1.517   0.860  10.675
 1220SOL     OW 4195   0.037   0.167   9.594
 1220SOL    HW1 4196   0.037   0.234   9.527
 1220SOL    HW2 4197   0.115   0.186   9.647
 1221SOL     OW 4198   1.178   1.338   9.427
 1221SOL    HW1 4199   1.088   1.308   9.429
 1221SOL    HW2 4200   1.206   1.338   9.519
 1222SOL     OW 4201   0.620   0.829  10.746
 1222SOL    HW1 4202   0.677   0.904  10.730
 1222SOL    HW2 4203   0.681   0.755  10.754
 1223SOL     OW 4204   1.489   1.784  10.293
 1223SOL    HW1 4205   1.511   1.848  10.226
 1223SOL    HW2 4206   1.571   1.765  10.337
 1224SOL     OW 4207   0.717   0.562  11.017
 1224SOL    HW1 4208   0.761   0.625  11.075
 1224SOL    HW2 4209   0.745   0.476  11.048
 1225SOL     OW 4210   1.472   1.198  10.941
 1225SOL    HW1 4211   1.460   1.212  11.035
 1225SOL    HW2 4212   1.565   1.215  10.926
 1226SOL     OW 4213   0.379   1.743  10.867
 1226SOL    HW1 4214   0.292   1.780  10.855
 1226SOL    HW2 4215   0.363   1.661  10.914
 1227SOL     OW 4216   1.668   0.881  10.566
 1227SOL    HW1 4217   1.663   0.796  10.523
 1227SOL    HW2 4218   1.658   0.944  10.494
 1228SOL     OW 4219   1.224   0.336   9.753
 1228SOL    HW1 4220   1.291   0.268   9.746
 1228SOL    HW2 4221   1.243   0.380   9.836
 1229SOL     OW 4222   0.590   0.738   9.981
 1229SOL    HW1 4223   0.628   0.825   9.964
 1229SOL    HW2 4224   0.523   0.729   9.914
 1230SOL     OW 4225   1.752   0.383  10.953
 1230SOL    HW1 4226   1.733   0.388  10.859
 1230SOL    HW2 4227   1.695   0.313  10.984
 1231SOL     OW 4228   1.745   0.934  10.822
 1231SOL    HW1 4229   1.740   1.029  10.835
 1231SOL    HW2 4230   1.729   0.921  10.729
 1232SOL     OW 4231   0.863   1.366   9.346
 1232SOL    HW1 4232   0.824   1.395   9.430
 1232SOL    HW2 4233   0.880   1.448   9.299
 1233SOL     OW 4234   0.662   1.789  10.253
 1233SOL    HW1 4235   0.642   1.880  10.231
 1233SOL    HW2 4236   0.758   1.783  10.246
 1234SOL     OW 4237   0.868   0.967  10.164
 1234SOL    HW1 4238   0.918   0.896  10.203
 1234SOL    HW2 4239   0.832   1.015  10.239
 1235SOL     OW 4240   1.078   0.989   9.399
 1235SOL    HW1 4241   1.057   1.040   9.321
 1235SOL    HW2 4242   1.153   0.935   9.372
 1236SOL     OW 4243   1.846   1.542  10.145
 1236SOL    HW1 4244   1.763   1.540  10.098
 1236SOL    HW2 4245   1.834   1.482  10.219
 1237SOL     OW 4246   0.225   1.303  11.166
 1237SOL    HW1 4247   0.153   1.246  11.139
 1237SOL    HW2 4248   0.212   1.317  11.260
 1238SOL     OW 4249   0.119   1.278  10.030
 1238SOL    HW1 4250   0.131   1.227  10.110
 1238SOL    HW2 4251   0.107   1.212   9.961
 1239SOL     OW 4252   0.681   1.404  10.939
 1239SOL    HW1 4253   0.601   1.361  10.969
 1239SOL    HW2 4254   0.677   1.492  10.976
 1240SOL     OW 4255   1.811   0.183  10.549
 1240SOL    HW1 4256   1.814   0.089  10.563
 1240SOL    HW2 4257   1.826   0.193  10.455
 1241SOL     OW 4258   0.444   0.437   9.841
 1241SOL    HW1 4259   0.459   0.362   9.784
 1241SOL    HW2 4260   0.388   0.403   9.911
 1242SOL     OW 4261   1.702   1.475  10.399
 1242SOL    HW1 4262   1.619   1.457  10.355
 1242SOL    HW2 4263   1.708   1.408  10.467
 1243SOL     OW 4264   0.332   0.557  10.603
 1243SOL    HW1 4265   0.389   0.500  10.656
 1243SOL    HW2 4266   0.348   0.528  10.513
 1244SOL     OW 4267   0.828   1.579   9.986
 1244SOL    HW1 4268   0.814   1.637   9.912
 1244SOL    HW2 4269   0.752   1.520   9.986
 1245SOL     OW 4270   1.461   0.253  10.421
 1245SOL    HW1 4271   1.478   0.166  10.457
 1245SOL    HW2 4272   1.405   0.296  10.486
 1246SOL     OW 4273   1.004   0.029  10.457
 1246SOL    HW1 4274   0.925   3.987  10.422
 1246SOL    HW2 4275   1.067   3.957  10.465
 1247SOL     OW 4276   0.772   1.333   9.627
 1247SOL    HW1 4277   0.743   1.242   9.633
 1247SOL    HW2 4278   0.854   1.335   9.676
 1248SOL     OW 4279   0.620   1.557  10.595
 1248SOL    HW1 4280   0.622   1.639  10.645
 1248SOL    HW2 4281   0.708   1.549  10.558
 1249SOL     OW 4282   1.312   0.074   9.474
 1249SOL    HW1 4283   1.326   3.997   9.419
 1249SOL    HW2 4284   1.226   0.059   9.515
 1250SOL     OW 4285   1.283   0.457   9.996
 1250SOL    HW1 4286   1.235   0.540   9.991
 1250SOL    HW2 4287   1.286   0.437  10.089
 1251SOL     OW 4288   1.588   0.210  10.178
 1251SOL    HW1 4289   1.539   0.234  10.256
 1251SOL    HW2 4290   1.588   0.290  10.124
 1252SOL     OW 4291   0.047   1.049   9.550
 1252SOL    HW1 4292   0.141   1.033   9.541
 1252SOL    HW2 4293   0.011   0.967   9.583
 1253SOL     OW 4294   0.886   1.655   9.650
 1253SOL    HW1 4295   0.812   1.638   9.592
 1253SOL    HW2 4296   0.857   1.729   9.704
 1254SOL     OW 4297   0.233   0.627  11.289
 1254SOL    HW1 4298   0.139   0.632  11.311
 1254SOL    HW2 4299   0.234   0.598  11.198
 1255SOL     OW 4300   0.224   0.288  12.155
 1255SOL    HW1 4301   0.247   0.250  12.239
 1255SOL    HW2 4302   0.130   0.276  12.148
 1256SOL     OW 4303   0.018   0.385  11.807
 1256SOL    HW1 4304   3.928   0.398  11.837
 1256SOL    HW2 4305   0.026   0.291  11.792
 1257SOL     OW 4306   0.580   1.287  12.361
 1257SOL    HW1 4307   0.493   1.290  12.320
 1257SOL    HW2 4308   0.593   1.376  12.393
 1258SOL     OW 4309   1.566   1.513  11.881
 1258SOL    HW1 4310   1.523   1.494  11.964
 1258SOL    HW2 4311   1.494   1.519  11.817
 1259SOL     OW 4312   1.132   0.698  11.870
 1259SOL    HW1 4313   1.180   0.780  11.858
 1259SOL    HW2 4314   1.085   0.711  11.952
 1260SOL     OW 4315   1.764   0.619  11.398
 1260SOL    HW1 4316   1.744   0.611  11.305
 1260SOL    HW2 4317   1.752   0.530  11.432
 1261SOL     OW 4318   0.755   1.140  12.213
 1261SOL    HW1 4319   0.690   1.175  12.274
 1261SOL    HW2 4320   0.790   1.217  12.169
 1262SOL     OW 4321   0.870   0.772  12.995
 1262SOL    HW1 4322   0.858   0.844  13.057
 1262SOL    HW2 4323   0.892   0.815  12.912
 1263SOL     OW 4324   0.685   1.003  11.818
 1263SOL    HW1 4325   0.751   0.991  11.887
 1263SOL    HW2 4326   0.616   1.054  11.860
 1264SOL     OW 4327   0.711   1.149  12.987
 1264SOL    HW1 4328   0.759   1.227  13.015
 1264SOL    HW2 4329   0.629   1.183  12.950
 1265SOL     OW 4330   0.351   1.402  12.251
 1265SOL    HW1 4331   0.270   1.382  12.204
 1265SOL    HW2 4332   0.399   1.460  12.191
 1266SOL     OW 4333   1.461   1.501  12.528
 1266SOL    HW1 4334   1.513   1.580  12.537
 1266SOL    HW2 4335   1.397   1.506  12.599
 1267SOL     OW 4336   0.456   0.408  12.669
 1267SOL    HW1 4337   0.537   0.357  12.667
 1267SOL    HW2 4338   0.387   0.342  12.671
 1268SOL     OW 4339   1.612   0.451  11.907
 1268SOL    HW1 4340   1.542   0.482  11.850
 1268SOL    HW2 4341   1.631   0.525  11.965
 1269SOL     OW 4342   0.221   1.718  11.630
 1269SOL    HW1 4343   0.240   1.793  11.687
 1269SOL    HW2 4344   0.298   1.710  11.574
 1270SOL     OW 4345   1.137   1.342  12.865
 1270SOL    HW1 4346   1.178   1.336  12.951
 1270SOL    HW2 4347   1.085   1.262  12.858
 1271SOL     OW 4348   0.249   1.450  11.712
 1271SOL    HW1 4349   0.215   1.538  11.698
 1271SOL    HW2 4350   0.181   1.406  11.763
 1272SOL     OW 4351   0.247   1.067  12.057
 1272SOL    HW1 4352   0.266   0.982  12.096
 1272SOL    HW2 4353   0.195   1.113  12.122
 1273SOL     OW 4354   0.611   1.792  12.600
 1273SOL    HW1 4355   0.529   1.774  12.645
 1273SOL    HW2 4356   0.634   1.881  12.626
 1274SOL     OW 4357   0.578   0.985  11.310
 1274SOL    HW1 4358   0.626   1.030  11.240
 1274SOL    HW2 4359   0.620   1.015  11.391
 1275SOL     OW 4360   1.580   0.139  12.628
 1275SOL    HW1 4361   1.609   0.212  12.573
 1275SOL    HW2 4362   1.550   0.180  12.709
 1276SOL     OW 4363   0.140   0.651  11.742
 1276SOL    HW1 4364   0.097   0.566  11.746
 1276SOL    HW2 4365   0.102   0.701  11.814
 1277SOL     OW 4366   0.044   1.590  11.311
 1277SOL    HW1 4367   0.035   1.498  11.335
 1277SOL    HW2 4368   3.962   1.630  11.340
 1278SOL     OW 4369   1.687   0.916  11.813
 1278SOL    HW1 4370   1.772   0.876  11.794
 1278SOL    HW2 4371   1.667   0.969  11.735
 1279SOL     OW 4372   1.648   1.106  11.601
 1279SOL    HW1 4373   1.734   1.110  11.560
 1279SOL    HW2 4374   1.653   1.168  11.674
 1280SOL     OW 4375   0.139   0.755  12.761
 1280SOL    HW1 4376   0.235   0.750  12.757
 1280SOL    HW2 4377   0.121   0.845  12.790
 1281SOL     OW 4378   0.613   1.386  11.908
 1281SOL    HW1 4379   0.567   1.303  11.917
 1281SOL    HW2 4380   0.597   1.412  11.817
 1282SOL     OW 4381   1.288   1.238  12.595
 1282SOL    HW1 4382   1.319   1.170  12.535
 1282SOL    HW2 4383   1.346   1.232  12.670
 1283SOL     OW 4384   0.819   0.003  11.688
 1283SOL    HW1 4385   0.864   0.084  11.664
 1283SOL    HW2 4386   0.726   0.027  11.688
 1284SOL     OW 4387   0.184   0.951  12.449
 1284SOL    HW1 4388   0.272   0.916  12.437
 1284SOL    HW2 4389   0.132   0.908  12.382
 1285SOL     OW 4390   1.531   0.995  11.372
 1285SOL    HW1 4391   1.462   0.938  11.404
 1285SOL    HW2 4392   1.573   1.029  11.450
 1286SOL     OW 4393   1.185   1.808  12.795
 1286SOL    HW1 4394   1.195   1.867  12.721
 1286SOL    HW2 4395   1.202   1.721  12.759
 1287SOL     OW 4396   0.343   0.253  13.005
 1287SOL    HW1 4397   0.386   0.337  12.988
 1287SOL    HW2 4398   0.252   0.276  13.026
 1288SOL     OW 4399   1.465   1.419  12.122
 1288SOL    HW1 4400   1.398   1.435  12.188
 1288SOL    HW2 4401   1.452   1.328  12.095
 1289SOL     OW 4402   1.664   1.734  11.729
 1289SOL    HW1 4403   1.630   1.696  11.648
 1289SOL    HW2 4404   1.646   1.668  11.796
 1290SOL     OW 4405   0.596   0.718  11.437
 1290SOL    HW1 4406   0.601   0.802  11.392
 1290SOL    HW2 4407   0.533   0.733  11.508
 1291SOL     OW 4408   1.275   0.367  12.113
 1291SOL    HW1 4409   1.188   0.328  12.119
 1291SOL    HW2 4410   1.332   0.306  12.158
 1292SOL     OW 4411   1.575   1.671  11.470
 1292SOL    HW1 4412   1.664   1.701  11.449
 1292SOL    HW2 4413   1.537   1.647  11.386
 1293SOL     OW 4414   0.794   0.616  12.626
 1293SOL    HW1 4415   0.765   0.590  12.713
 1293SOL    HW2 4416   0.755   0.551  12.567
 1294SOL     OW 4417   1.392   0.476  12.850
 1294SOL    HW1 4418   1.398   0.521  12.934
 1294SOL    HW2 4419   1.450   0.401  12.858
 1295SOL     OW 4420   0.953   0.887  12.756
 1295SOL    HW1 4421   1.008   0.818  12.719
 1295SOL    HW2 4422   0.905   0.922  12.681
 1296SOL     OW 4423   0.992   0.403  12.411
 1296SOL    HW1 4424   0.907   0.425  12.450
 1296SOL    HW2 4425   0.970   0.373  12.323
 1297SOL     OW 4426   1.052   0.699  11.598
 1297SOL    HW1 4427   1.068   0.692  11.692
 1297SOL    HW2 4428   0.969   0.653  11.584
 1298SOL     OW 4429   0.081   0.828  11.963
 1298SOL    HW1 4430   0.155   0.795  12.013
 1298SOL    HW2 4431   0.100   0.921  11.950
 1299SOL     OW 4432   0.130   1.861  12.748
 1299SOL    HW1 4433   0.137   1.827  12.837
 1299SOL    HW2 4434   0.037   1.849  12.725
 1300SOL     OW 4435   0.894   0.352  11.370
 1300SOL    HW1 4436   0.936   0.411  11.308
 1300SOL    HW2 4437   0.893   0.267  11.326
 1301SOL     OW 4438   1.709   0.576  13.000
 1301SOL    HW1 4439   1.671   0.649  12.952
 1301SOL    HW2 4440   1.733   0.513  12.933
 1302SOL     OW 4441   1.378   1.141  11.712
 1302SOL    HW1 4442   1.458   1.130  11.660
 1302SOL    HW2 4443   1.325   1.204  11.662
 1303SOL     OW 4444   0.561   0.195  12.053
 1303SOL    HW1 4445   0.565   0.218  12.146
 1303SOL    HW2 4446   0.547   0.278  12.008
 1304SOL     OW 4447   1.004   1.444  11.643
 1304SOL    HW1 4448   0.968   1.518  11.593
 1304SOL    HW2 4449   0.985   1.465  11.734
 1305SOL     OW 4450   0.365   1.817  12.041
 1305SOL    HW1 4451   0.429   1.747  12.049
 1305SOL    HW2 4452   0.415   1.897  12.057
 1306SOL     OW 4453   1.799   1.052  12.042
 1306SOL    HW1 4454   1.745   1.038  11.965
 1306SOL    HW2 4455   1.737   1.060  12.114
 1307SOL     OW 4456   1.228   1.539  12.685
 1307SOL    HW1 4457   1.214   1.466  12.746
 1307SOL    HW2 4458   1.164   1.524  12.616
 1308SOL     OW 4459   0.310   0.954  11.414
 1308SOL    HW1 4460   0.394   0.976  11.374
 1308SOL    HW2 4461   0.297   0.862  11.393
 1309SOL     OW 4462   1.478   0.746  11.902
 1309SOL    HW1 4463   1.473   0.704  11.987
 1309SOL    HW2 4464   1.557   0.801  11.907
 1310SOL     OW 4465   0.467   1.260  12.909
 1310SOL    HW1 4466   0.441   1.268  12.817
 1310SOL    HW2 4467   0.385   1.264  12.958
 1311SOL     OW 4468   1.122   1.777  11.403
 1311SOL    HW1 4469   1.048   1.737  11.448
 1311SOL    HW2 4470   1.145   1.715  11.334
 1312SOL     OW 4471   0.200   0.294  12.671
 1312SOL    HW1 4472   0.107   0.315  12.670
 1312SOL    HW2 4473   0.209   0.224  12.736
 1313SOL     OW 4474   1.628   1.380  11.259
 1313SOL    HW1 4475   1.586   1.465  11.243
 1313SOL    HW2 4476   1.559   1.316  11.240
 1314SOL     OW 4477   0.466   1.739  11.489
 1314SOL    HW1 4478   0.509   1.796  11.553
 1314SOL    HW2 4479   0.538   1.704  11.436
 1315SOL     OW 4480   1.440   0.164  11.577
 1315SOL    HW1 4481   1.394   0.098  11.526
 1315SOL    HW2 4482   1.512   0.117  11.619
 1316SOL     OW 4483   0.251   1.791  12.404
 1316SOL    HW1 4484   0.298   1.727  12.457
 1316SOL    HW2 4485   0.248   1.752  12.316
 1317SOL     OW 4486   0.938   1.699  12.070
 1317SOL    HW1 4487   1.017   1.649  12.091
 1317SOL    HW2 4488   0.895   1.649  12.001
 1318SOL     OW 4489   0.397   0.694  11.643
 1318SOL    HW1 4490   0.423   0.603  11.658
 1318SOL    HW2 4491   0.305   0.698  11.669
 1319SOL     OW 4492   1.529   0.229  12.898
 1319SOL    HW1 4493   1.527   0.255  12.990
 1319SOL    HW2 4494   1.509   0.136  12.898
 1320SOL     OW 4495   0.644   0.131  11.274
 1320SOL    HW1 4496   0.669   0.049  11.315
 1320SOL    HW2 4497   0.583   0.106  11.205
 1321SOL     OW 4498   0.777   0.283  12.938
 1321SOL    HW1 4499   0.849   0.221  12.940
 1321SOL    HW2 4500   0.720   0.257  13.010
 1322SOL     OW 4501   0.875   1.522  12.366
 1322SOL    HW1 4502   0.860   1.485  12.279
 1322SOL    HW2 4503   0.946   1.468  12.403
 1323SOL     OW 4504   1.340   0.587  12.603
 1323SOL    HW1 4505   1.371   0.558  12.689
 1323SOL    HW2 4506   1.375   0.676  12.593
 1324SOL     OW 4507   0.816   1.393  12.113
 1324SOL    HW1 4508   0.901   1.382  12.070
 1324SOL    HW2 4509   0.753   1.395  12.040
 1325SOL     OW 4510   0.930   0.512  12.073
 1325SOL    HW1 4511   0.906   0.503  11.981
 1325SOL    HW2 4512   0.956   0.423  12.099
 1326SOL     OW 4513   0.546   0.056  11.660
 1326SOL    HW1 4514   0.472   0.064  11.720
 1326SOL    HW2 4515   0.548   0.140  11.614
 1327SOL     OW 4516   1.427   1.198  11.213
 1327SOL    HW1 4517   1.458   1.123  11.263
 1327SOL    HW2 4518   1.342   1.220  11.250
 1328SOL     OW 4519   0.343   0.039  11.370
 1328SOL    HW1 4520   0.361   0.086  11.288
 1328SOL    HW2 4521   0.427   0.035  11.414
 1329SOL     OW 4522   0.941   0.249  11.633
 1329SOL    HW1 4523   0.915   0.289  11.551
 1329SOL    HW2 4524   1.037   0.252  11.633
 1330SOL     OW 4525   1.079   0.683  12.631
 1330SOL    HW1 4526   1.010   0.617  12.637
 1330SOL    HW2 4527   1.160   0.631  12.625
 1331SOL     OW 4528   1.222   1.571  11.967
 1331SOL    HW1 4529   1.238   1.637  11.900
 1331SOL    HW2 4530   1.291   1.584  12.031
 1332SOL     OW 4531   0.466   1.151  11.908
 1332SOL    HW1 4532   0.395   1.126  11.967
 1332SOL    HW2 4533   0.432   1.135  11.820
 1333SOL     OW 4534   1.265   1.793  11.780
 1333SOL    HW1 4535   1.310   1.856  11.724
 1333SOL    HW2 4536   1.199   1.845  11.826
 1334SOL     OW 4537   1.022   0.544  11.199
 1334SOL    HW1 4538   0.979   0.627  11.180
 1334SOL    HW2 4539   1.086   0.565  11.268
 1335SOL     OW 4540   0.080   0.572  12.565
 1335SOL    HW1 4541   0.169   0.555  12.535
 1335SOL    HW2 4542   0.090   0.644  12.628
 1336SOL     OW 4543   0.572   0.231  12.332
 1336SOL    HW1 4544   0.594   0.139  12.340
 1336SOL    HW2 4545   0.481   0.237  12.362
 1337SOL     OW 4546   0.871   0.461  11.811
 1337SOL    HW1 4547   0.820   0.514  11.749
 1337SOL    HW2 4548   0.891   0.380  11.764
 1338SOL     OW 4549   0.996   0.040  11.952
 1338SOL    HW1 4550   0.960   0.068  11.868
 1338SOL    HW2 4551   1.007   3.946  11.943
 1339SOL     OW 4552   1.438   1.162  12.029
 1339SOL    HW1 4553   1.368   1.096  12.027
 1339SOL    HW2 4554   1.464   1.172  11.938
 1340SOL     OW 4555   1.465   0.606  12.147
 1340SOL    HW1 4556   1.412   0.527  12.152
 1340SOL    HW2 4557   1.525   0.600  12.222
 1341SOL     OW 4558   1.845   0.819  11.558
 1341SOL    HW1 4559   1.901   0.767  11.615
 1341SOL    HW2 4560   1.815   0.758  11.491
 1342SOL     OW 4561   0.488   1.420  11.332
 1342SOL    HW1 4562   0.412   1.389  11.382
 1342SOL    HW2 4563   0.471   1.390  11.243
 1343SOL     OW 4564   1.670   1.264  11.818
 1343SOL    HW1 4565   1.765   1.263  11.831
 1343SOL    HW2 4566   1.643   1.353  11.839
 1344SOL     OW 4567   1.395   0.575  11.241
 1344SOL    HW1 4568   1.332   0.556  11.311
 1344SOL    HW2 4569   1.480   0.555  11.280
 1345SOL     OW 4570   0.558   0.271  11.490
 1345SOL    HW1 4571   0.603   0.231  11.416
 1345SOL    HW2 4572   0.528   0.356  11.458
 1346SOL     OW 4573   1.751   1.240  12.744
 1346SOL    HW1 4574   1.839   1.201  12.737
 1346SOL    HW2 4575   1.767   1.330  12.771
 1347SOL     OW 4576   1.057   1.354  12.505
 1347SOL    HW1 4577   0.982   1.322  12.556
 1347SOL    HW2 4578   1.133   1.312  12.546
 1348SOL     OW 4579   1.608   1.625  12.826
 1348SOL    HW1 4580   1.602   1.662  12.738
 1348SOL    HW2 4581   1.691   1.579  12.827
 1349SOL     OW 4582   1.131   1.205  12.277
 1349SOL    HW1 4583   1.071   1.243  12.341
 1349SOL    HW2 4584   1.099   1.238  12.193
 1350SOL     OW 4585   1.626   1.097  12.249
 1350SOL    HW1 4586   1.620   1.159  12.322
 1350SOL    HW2 4587   1.548   1.115  12.196
 1351SOL     OW 4588   0.913   0.114  12.573
 1351SOL    HW1 4589   0.933   0.088  12.483
 1351SOL    HW2 4590   0.993   0.156  12.604
 1352SOL     OW 4591   0.984   1.115  12.895
 1352SOL    HW1 4592   0.892   1.131  12.917
 1352SOL    HW2 4593   0.982   1.037  12.840
 1353SOL     OW 4594   0.708   1.061  11.543
 1353SOL    HW1 4595   0.694   1.045  11.636
 1353SOL    HW2 4596   0.784   1.008  11.520
 1354SOL     OW 4597   0.422   0.816  12.424
 1354SOL    HW1 4598   0.490   0.823  12.491
 1354SOL    HW2 4599   0.387   0.728  12.434
 1355SOL     OW 4600   1.266   0.375  12.449
 1355SOL    HW1 4601   1.300   0.453  12.493
 1355SOL    HW2 4602   1.179   0.401  12.418
 1356SOL     OW 4603   0.065   1.580  12.518
 1356SOL    HW1 4604   0.070   1.639  12.443
 1356SOL    HW2 4605   0.156   1.566  12.544
 1357SOL     OW 4606   0.373   1.103  11.655
 1357SOL    HW1 4607   0.366   1.181  11.601
 1357SOL    HW2 4608   0.371   1.030  11.593
 1358SOL     OW 4609   0.555   0.536  12.030
 1358SOL    HW1 4610   0.569   0.594  11.956
 1358SOL    HW2 4611   0.620   0.562  12.095
 1359SOL     OW 4612   1.248   1.348  11.561
 1359SOL    HW1 4613   1.303   1.419  11.593
 1359SOL    HW2 4614   1.160   1.369  11.595
 1360SOL     OW 4615   1.283   1.459  12.320
 1360SOL    HW1 4616   1.339   1.462  12.397
 1360SOL    HW2 4617   1.228   1.382  12.334
 1361SOL     OW 4618   1.576   0.633  11.658
 1361SOL    HW1 4619   1.534   0.691  11.722
 1361SOL    HW2 4620   1.623   0.693  11.600
 1362SOL     OW 4621   0.345   1.527  12.491
 1362SOL    HW1 4622   0.336   1.476  12.410
 1362SOL    HW2 4623   0.440   1.542  12.498
 1363SOL     OW 4624   0.415   0.738  12.773
 1363SOL    HW1 4625   0.478   0.784  12.716
 1363SOL    HW2 4626   0.454   0.652  12.786
 1364SOL     OW 4627   1.603   0.780  12.856
 1364SOL    HW1 4628   1.517   0.821  12.849
 1364SOL    HW2 4629   1.655   0.821  12.787
 1365SOL     OW 4630   1.012   0.132  12.950
 1365SOL    HW1 4631   1.063   0.204  12.914
 1365SOL    HW2 4632   1.004   0.070  12.878
 1366SOL     OW 4633   0.480   0.036  12.939
 1366SOL    HW1 4634   0.491   0.044  12.844
 1366SOL    HW2 4635   0.419   0.106  12.962
 1367SOL     OW 4636   0.585   0.874  12.203
 1367SOL    HW1 4637   0.616   0.965  12.205
 1367SOL    HW2 4638   0.529   0.867  12.281
 1368SOL     OW 4639   1.355   0.858  12.200
 1368SOL    HW1 4640   1.271   0.847  12.155
 1368SOL    HW2 4641   1.397   0.773  12.193
 1369SOL     OW 4642   1.201   0.536  11.431
 1369SOL    HW1 4643   1.210   0.457  11.484
 1369SOL    HW2 4644   1.158   0.599  11.489
 1370SOL     OW 4645   0.312   0.213  12.413
 1370SOL    HW1 4646   0.269   0.249  12.490
 1370SOL    HW2 4647   0.296   0.118  12.418
 1371SOL     OW 4648   0.060   1.306  12.452
 1371SOL    HW1 4649   0.091   1.264  12.533
 1371SOL    HW2 4650   0.052   1.398  12.474
 1372SOL     OW 4651   0.725   0.634  12.226
 1372SOL    HW1 4652   0.799   0.618  12.168
 1372SOL    HW2 4653   0.696   0.722  12.205
 1373SOL     OW 4654   1.736   0.959  13.027
 1373SOL    HW1 4655   1.690   0.896  12.970
 1373SOL    HW2 4656   1.676   0.974  13.100
 1374SOL     OW 4657   0.329   0.055  11.825
 1374SOL    HW1 4658   0.300   0.146  11.826
 1374SOL    HW2 4659   0.291   0.017  11.904
 1375SOL     OW 4660   1.606   0.390  11.553
 1375SOL    HW1 4661   1.568   0.322  11.610
 1375SOL    HW2 4662   1.586   0.472  11.598
 1376SOL     OW 4663   1.029   0.759  12.131
 1376SOL    HW1 4664   1.023   0.776  12.225
 1376SOL    HW2 4665   1.002   0.668  12.122
 1377SOL     OW 4666   0.982   1.566  12.890
 1377SOL    HW1 4667   0.967   1.610  12.807
 1377SOL    HW2 4668   1.026   1.484  12.867
 1378SOL     OW 4669   1.854   1.503  12.776
 1378SOL    HW1 4670   1.870   1.533  12.687
 1378SOL    HW2 4671   1.938   1.515  12.821
 1379SOL     OW 4672   0.352   0.921  12.972
 1379SOL    HW1 4673   0.431   0.941  13.023
 1379SOL    HW2 4674   0.381   0.853  12.910
 1380SOL     OW 4675   1.506   0.275  11.307
 1380SOL    HW1 4676   1.431   0.216  11.319
 1380SOL    HW2 4677   1.519   0.315  11.394
 1381SOL     OW 4678   1.289   0.827  11.201
 1381SOL    HW1 4679   1.332   0.741  11.205
 1381SOL    HW2 4680   1.321   0.866  11.120
 1382SOL     OW 4681   1.066   1.336  12.027
 1382SOL    HW1 4682   1.070   1.264  11.964
 1382SOL    HW2 4683   1.127   1.402  11.992
 1383SOL     OW 4684   0.313   0.804  12.122
 1383SOL    HW1 4685   0.407   0.820  12.116
 1383SOL    HW2 4686   0.306   0.713  12.154
 1384SOL     OW 4687   0.338   0.528  12.187
 1384SOL    HW1 4688   0.297   0.443  12.168
 1384SOL    HW2 4689   0.413   0.532  12.128
 1385SOL     OW 4690   1.133   0.381  12.868
 1385SOL    HW1 4691   1.085   0.436  12.930
 1385SOL    HW2 4692   1.220   0.420  12.863
 1386SOL     OW 4693   1.151   0.225  12.653
 1386SOL    HW1 4694   1.142   0.280  12.732
 1386SOL    HW2 4695   1.176   0.286  12.584
 1387SOL     OW 4696   0.000   1.318  11.354
 1387SOL    HW1 4697   3.906   1.334  11.358
 1387SOL    HW2 4698   0.009   1.224  11.373
 1388SOL     OW 4699   0.077   1.800  12.061
 1388SOL    HW1 4700   0.082   1.705  12.066
 1388SOL    HW2 4701   0.168   1.829  12.065
 1389SOL     OW 4702   0.502   1.571  12.083
 1389SOL    HW1 4703   0.571   1.632  12.108
 1389SOL    HW2 4704   0.545   1.508  12.025
 1390SOL     OW 4705   0.980   0.790  12.397
 1390SOL    HW1 4706   1.036   0.769  12.472
 1390SOL    HW2 4707   0.895   0.752  12.419
 1391SOL     OW 4708   0.035   0.572  12.285
 1391SOL    HW1 4709   0.098   0.521  12.234
 1391SOL    HW2 4710   0.061   0.558  12.376
 1392SOL     OW 4711   0.211   0.516  12.894
 1392SOL    HW1 4712   0.258   0.478  12.820
 1392SOL    HW2 4713   0.163   0.590  12.856
 1393SOL     OW 4714   1.378   0.938  12.829
 1393SOL    HW1 4715   1.399   1.031  12.827
 1393SOL    HW2 4716   1.375   0.911  12.737
 1394SOL     OW 4717   0.818   0.572  11.533
 1394SOL    HW1 4718   0.824   0.495  11.476
 1394SOL    HW2 4719   0.743   0.621  11.500
 1395SOL     OW 4720   1.641   0.602  12.356
 1395SOL    HW1 4721   1.631   0.541  12.430
 1395SOL    HW2 4722   1.728   0.584  12.322
 1396SOL     OW 4723   0.299   1.545  12.899
 1396SOL    HW1 4724   0.250   1.614  12.943
 1396SOL    HW2 4725   0.267   1.464  12.938
 1397SOL     OW 4726   0.707   0.455  12.429
 1397SOL    HW1 4727   0.658   0.377  12.404
 1397SOL    HW2 4728   0.698   0.514  12.355
 1398SOL     OW 4729   0.925   1.679  12.641
 1398SOL    HW1 4730   0.901   1.643  12.556
 1398SOL    HW2 4731   0.921   1.774  12.629
 1399SOL     OW 4732   0.455   0.492  11.369
 1399SOL    HW1 4733   0.519   0.561  11.386
 1399SOL    HW2 4734   0.375   0.539  11.345
 1400SOL     OW 4735   0.156   1.135  12.646
 1400SOL    HW1 4736   0.158   1.084  12.727
 1400SOL    HW2 4737   0.171   1.070  12.577
 1401SOL     OW 4738   1.324   1.046  12.394
 1401SOL    HW1 4739   1.347   0.982  12.326
 1401SOL    HW2 4740   1.255   1.099  12.355
 1402SOL     OW 4741   1.313   0.856  11.477
 1402SOL    HW1 4742   1.238   0.827  11.529
 1402SOL    HW2 4743   1.287   0.843  11.386
 1403SOL     OW 4744   1.743   1.734  12.309
 1403SOL    HW1 4745   1.818   1.757  12.256
 1403SOL    HW2 4746   1.728   1.641  12.292
 1404SOL     OW 4747   1.243   1.734  12.281
 1404SOL    HW1 4748   1.326   1.755  12.238
 1404SOL    HW2 4749   1.249   1.640  12.301
 1405SOL     OW 4750   0.077   1.217  12.199
 1405SOL    HW1 4751   0.083   1.243  12.291
 1405SOL    HW2 4752   3.984   1.226  12.178
 1406SOL     OW 4753   0.679   1.667  12.904
 1406SOL    HW1 4754   0.621   1.743  12.897
 1406SOL    HW2 4755   0.745   1.680  12.836
 1407SOL     OW 4756   1.713   0.125  11.659
 1407SOL    HW1 4757   1.792   0.134  11.606
 1407SOL    HW2 4758   1.705   0.031  11.674
 1408SOL     OW 4759   1.391   1.568  11.659
 1408SOL    HW1 4760   1.446   1.601  11.588
 1408SOL    HW2 4761   1.341   1.644  11.688
 1409SOL     OW 4762   0.174   1.764  13.002
 1409SOL    HW1 4763   0.117   1.714  13.060
 1409SOL    HW2 4764   0.216   1.828  13.060
 1410SOL     OW 4765   1.277   0.927  11.843
 1410SOL    HW1 4766   1.351   0.867  11.853
 1410SOL    HW2 4767   1.311   0.999  11.790
 1411SOL     OW 4768   0.812   1.273  12.601
 1411SOL    HW1 4769   0.783   1.314  12.683
 1411SOL    HW2 4770   0.741   1.292  12.539
 1412SOL     OW 4771   0.670   1.621  11.327
 1412SOL    HW1 4772   0.681   1.633  11.233
 1412SOL    HW2 4773   0.615   1.543  11.335
 1413SOL     OW 4774   1.622   1.729  12.563
 1413SOL    HW1 4775   1.667   1.734  12.478
 1413SOL    HW2 4776   1.610   1.820  12.589
 1414SOL     OW 4777   1.839   0.177  12.139
 1414SOL    HW1 4778   1.871   0.108  12.081
 1414SOL    HW2 4779   1.751   0.196  12.107
 1415SOL     OW 4780   0.274   0.323  11.886
 1415SOL    HW1 4781   0.189   0.358  11.861
 1415SOL    HW2 4782   0.266   0.306  11.980
 1416SOL     OW 4783   1.206   1.605  11.204
 1416SOL    HW1 4784   1.197   1.513  11.230
 1416SOL    HW2 4785   1.141   1.617  11.135
 1417SOL     OW 4786   0.823   1.005  12.545
 1417SOL    HW1 4787   0.867   1.000  12.460
 1417SOL    HW2 4788   0.823   1.099  12.566
 1418SOL     OW 4789   0.915   0.910  11.462
 1418SOL    HW1 4790   0.977   0.943  11.396
 1418SOL    HW2 4791   0.963   0.842  11.508
 1419SOL     OW 4792   1.487   1.623  11.212
 1419SOL    HW1 4793   1.393   1.617  11.196
 1419SOL    HW2 4794   1.526   1.630  11.125
 1420SOL     OW 4795   0.374   1.303  12.664
 1420SOL    HW1 4796   0.359   1.383  12.613
 1420SOL    HW2 4797   0.297   1.249  12.646
 1421SOL     OW 4798   1.609   1.282  12.453
 1421SOL    HW1 4799   1.670   1.271  12.525
 1421SOL    HW2 4800   1.549   1.351  12.482
 1422SOL     OW 4801   1.054   1.108  11.879
 1422SOL    HW1 4802   0.983   1.057  11.918
 1422SOL    HW2 4803   1.118   1.043  11.850
 1423SOL     OW 4804   1.014   0.249  12.141
 1423SOL    HW1 4805   1.004   0.198  12.060
 1423SOL    HW2 4806   1.009   0.183  12.211
 1424SOL     OW 4807   0.606   1.489  11.654
 1424SOL    HW1 4808   0.651   1.439  11.586
 1424SOL    HW2 4809   0.532   1.530  11.608
 1425SOL     OW 4810   1.720   0.393  12.545
 1425SOL    HW1 4811   1.792   0.456  12.549
 1425SOL    HW2 4812   1.754   0.321  12.491
 1426SOL     OW 4813   0.253   1.341  11.465
 1426SOL    HW1 4814   0.160   1.349  11.445
 1426SOL    HW2 4815   0.263   1.380  11.552
 1427SOL     OW 4816   0.107   0.999  12.889
 1427SOL    HW1 4817   0.047   0.992  12.963
 1427SOL    HW2 4818   0.193   0.980  12.927
 1428SOL     OW 4819   0.694   0.251  12.672
 1428SOL    HW1 4820   0.762   0.198  12.631
 1428SOL    HW2 4821   0.722   0.259  12.763
 1429SOL     OW 4822   0.088   0.323  11.199
 1429SOL    HW1 4823   3.993   0.319  11.192
 1429SOL    HW2 4824   0.112   0.405  11.157
 1430SOL     OW 4825   1.428   0.857  12.571
 1430SOL    HW1 4826   1.379   0.919  12.516
 1430SOL    HW2 4827   1.517   0.859  12.537
 1431SOL     OW 4828   0.037   0.167  11.456
 1431SOL    HW1 4829   0.036   0.234  11.389
 1431SOL    HW2 4830   0.115   0.186  11.509
 1432SOL     OW 4831   1.178   1.338  11.289
 1432SOL    HW1 4832   1.088   1.308  11.291
 1432SOL    HW2 4833   1.206   1.338  11.381
 1433SOL     OW 4834   0.620   0.829  12.608
 1433SOL    HW1 4835   0.677   0.905  12.592
 1433SOL    HW2 4836   0.681   0.755  12.616
 1434SOL     OW 4837   1.489   1.783  12.155
 1434SOL    HW1 4838   1.511   1.848  12.088
 1434SOL    HW2 4839   1.571   1.765  12.199
 1435SOL     OW 4840   0.717   0.563  12.879
 1435SOL    HW1 4841   0.761   0.625  12.937
 1435SOL    HW2 4842   0.745   0.476  12.910
 1436SOL     OW 4843   1.472   1.198  12.803
 1436SOL    HW1 4844   1.460   1.212  12.897
 1436SOL    HW2 4845   1.565   1.215  12.788
 1437SOL     OW 4846   0.379   1.743  12.729
 1437SOL    HW1 4847   0.292   1.780  12.717
 1437SOL    HW2 4848   0.363   1.661  12.777
 1438SOL     OW 4849   1.668   0.881  12.428
 1438SOL    HW1 4850   1.663   0.796  12.385
 1438SOL    HW2 4851   1.658   0.944  12.357
 1439SOL     OW 4852   1.224   0.336  11.615
 1439SOL    HW1 4853   1.291   0.268  11.608
 1439SOL    HW2 4854   1.243   0.380  11.698
 1440SOL     OW 4855   0.590   0.738  11.843
 1440SOL    HW1 4856   0.628   0.825  11.826
 1440SOL    HW2 4857   0.523   0.729  11.776
 1441SOL     OW 4858   1.752   0.383  12.815
 1441SOL    HW1 4859   1.733   0.388  12.721
 1441SOL    HW2 4860   1.695   0.313  12.847
 1442SOL     OW 4861   1.745   0.934  12.684
 1442SOL    HW1 4862   1.740   1.029  12.697
 1442SOL    HW2 4863   1.729   0.921  12.591
 1443SOL     OW 4864   0.862   1.366  11.208
 1443SOL    HW1 4865   0.824   1.395  11.291
 1443SOL    HW2 4866   0.880   1.448  11.161
 1444SOL     OW 4867   0.662   1.789  12.115
 1444SOL    HW1 4868   0.642   1.880  12.093
 1444SOL    HW2 4869   0.758   1.783  12.108
 1445SOL     OW 4870   0.868   0.967  12.026
 1445SOL    HW1 4871   0.918   0.896  12.065
 1445SOL    HW2 4872   0.832   1.015  12.101
 1446SOL     OW 4873   1.078   0.989  11.261
 1446SOL    HW1 4874   1.057   1.040  11.183
 1446SOL    HW2 4875   1.153   0.935  11.234
 1447SOL     OW 4876   1.846   1.541  12.007
 1447SOL    HW1 4877   1.762   1.540  11.960
 1447SOL    HW2 4878   1.833   1.481  12.080
 1448SOL     OW 4879   0.226   1.304  13.028
 1448SOL    HW1 4880   0.153   1.247  13.001
 1448SOL    HW2 4881   0.212   1.317  13.122
 1449SOL     OW 4882   0.119   1.278  11.892
 1449SOL    HW1 4883   0.132   1.227  11.972
 1449SOL    HW2 4884   0.107   1.212  11.823
 1450SOL     OW 4885   0.681   1.404  12.801
 1450SOL    HW1 4886   0.601   1.362  12.831
 1450SOL    HW2 4887   0.677   1.492  12.838
 1451SOL     OW 4888   1.812   0.183  12.411
 1451SOL    HW1 4889   1.814   0.089  12.425
 1451SOL    HW2 4890   1.826   0.193  12.317
 1452SOL     OW 4891   0.444   0.437  11.703
 1452SOL    HW1 4892   0.459   0.362  11.646
 1452SOL    HW2 4893   0.388   0.403  11.773
 1453SOL     OW 4894   1.702   1.475  12.260
 1453SOL    HW1 4895   1.618   1.456  12.217
 1453SOL    HW2 4896   1.708   1.408  12.329
 1454SOL     OW 4897   0.332   0.557  12.465
 1454SOL    HW1 4898   0.389   0.500  12.517
 1454SOL    HW2 4899   0.348   0.528  12.374
 1455SOL     OW 4900   0.828   1.579  11.849
 1455SOL    HW1 4901   0.814   1.638  11.775
 1455SOL    HW2 4902   0.752   1.520  11.848
 1456SOL     OW 4903   1.461   0.253  12.283
 1456SOL    HW1 4904   1.478   0.166  12.319
 1456SOL    HW2 4905   1.405   0.296  12.348
 1457SOL     OW 4906   1.004   0.029  12.319
 1457SOL    HW1 4907   0.925   3.987  12.284
 1457SOL    HW2 4908   1.067   3.957  12.327
 1458SOL     OW 4909   0.772   1.333  11.489
 1458SOL    HW1 4910   0.743   1.242  11.495
 1458SOL    HW2 4911   0.854   1.335  11.538
 1459SOL     OW 4912   0.620   1.557  12.458
 1459SOL    HW1 4913   0.622   1.639  12.507
 1459SOL    HW2 4914   0.708   1.549  12.420
 1460SOL     OW 4915   1.312   0.074  11.336
 1460SOL    HW1 4916   1.326   3.997  11.281
 1460SOL    HW2 4917   1.226   0.059  11.377
 1461SOL     OW 4918   1.283   0.457  11.858
 1461SOL    HW1 4919   1.235   0.540  11.853
 1461SOL    HW2 4920   1.286   0.437  11.951
 1462SOL     OW 4921   1.588   0.210  12.040
 1462SOL    HW1 4922   1.539   0.234  12.118
 1462SOL    HW2 4923   1.588   0.290  11.986
 1463SOL     OW 4924   0.047   1.049  11.412
 1463SOL    HW1 4925   0.141   1.033  11.403
 1463SOL    HW2 4926   0.011   0.967  11.445
 1464SOL     OW 4927   0.886   1.655  11.512
 1464SOL    HW1 4928   0.812   1.638  11.454
 1464SOL    HW2 4929   0.857   1.729  11.566
 1465SOL     OW 4930   0.231   0.627  13.152
 1465SOL    HW1 4931   0.138   0.631  13.173
 1465SOL    HW2 4932   0.234   0.598  13.061
 1466SOL     OW 4933   0.281   0.252   0.145
 1466SOL    HW1 4934   0.331   0.317   0.195
 1466SOL    HW2 4935   0.205   0.300   0.113
 1467SOL     OW 4936   0.018   0.383  13.667
 1467SOL    HW1 4937   3.926   0.402  13.649
 1467SOL    HW2 4938   0.028   0.292  13.639
 1468SOL     OW 4939   1.526   1.499  13.728
 1468SOL    HW1 4940   1.470   1.432  13.767
 1468SOL    HW2 4941   1.482   1.522  13.646
 1469SOL     OW 4942   1.130   0.700  13.733
 1469SOL    HW1 4943   1.184   0.775  13.708
 1469SOL    HW2 4944   1.076   0.732  13.806
 1470SOL     OW 4945   1.767   0.617  13.259
 1470SOL    HW1 4946   1.745   0.612  13.166
 1470SOL    HW2 4947   1.754   0.528  13.291
 1471SOL     OW 4948   0.687   1.011  13.671
 1471SOL    HW1 4949   0.740   0.990  13.748
 1471SOL    HW2 4950   0.613   1.062  13.706
 1472SOL     OW 4951   1.617   0.455  13.761
 1472SOL    HW1 4952   1.535   0.476  13.717
 1472SOL    HW2 4953   1.647   0.538  13.798
 1473SOL     OW 4954   0.218   1.714  13.486
 1473SOL    HW1 4955   0.236   1.788  13.544
 1473SOL    HW2 4956   0.297   1.707  13.432
 1474SOL     OW 4957   0.248   1.445  13.571
 1474SOL    HW1 4958   0.218   1.535  13.561
 1474SOL    HW2 4959   0.184   1.405  13.630
 1475SOL     OW 4960   0.255   1.076   0.019
 1475SOL    HW1 4961   0.274   1.034   0.102
 1475SOL    HW2 4962   0.214   1.159   0.042
 1476SOL     OW 4963   0.578   0.985  13.170
 1476SOL    HW1 4964   0.625   1.030  13.101
 1476SOL    HW2 4965   0.619   1.015  13.251
 1477SOL     OW 4966   0.146   0.650  13.609
 1477SOL    HW1 4967   0.087   0.575  13.601
 1477SOL    HW2 4968   0.100   0.710  13.668
 1478SOL     OW 4969   0.044   1.591  13.173
 1478SOL    HW1 4970   0.035   1.499  13.197
 1478SOL    HW2 4971   3.963   1.632  13.206
 1479SOL     OW 4972   1.685   0.915  13.668
 1479SOL    HW1 4973   1.772   0.880  13.646
 1479SOL    HW2 4974   1.663   0.971  13.593
 1480SOL     OW 4975   1.648   1.105  13.460
 1480SOL    HW1 4976   1.734   1.108  13.418
 1480SOL    HW2 4977   1.654   1.168  13.531
 1481SOL     OW 4978   0.611   1.387  13.762
 1481SOL    HW1 4979   0.562   1.307  13.779
 1481SOL    HW2 4980   0.583   1.415  13.675
 1482SOL     OW 4981   0.820   0.003  13.550
 1482SOL    HW1 4982   0.864   0.084  13.524
 1482SOL    HW2 4983   0.727   0.025  13.547
 1483SOL     OW 4984   1.530   0.994  13.234
 1483SOL    HW1 4985   1.461   0.937  13.266
 1483SOL    HW2 4986   1.571   1.030  13.312
 1484SOL     OW 4987   1.663   1.733  13.594
 1484SOL    HW1 4988   1.629   1.698  13.512
 1484SOL    HW2 4989   1.657   1.660  13.655
 1485SOL     OW 4990   0.594   0.719  13.297
 1485SOL    HW1 4991   0.600   0.802  13.251
 1485SOL    HW2 4992   0.532   0.734  13.368
 1486SOL     OW 4993   1.244   0.339   0.055
 1486SOL    HW1 4994   1.153   0.325   0.082
 1486SOL    HW2 4995   1.296   0.294   0.122
 1487SOL     OW 4996   1.577   1.674  13.331
 1487SOL    HW1 4997   1.667   1.701  13.309
 1487SOL    HW2 4998   1.538   1.649  13.248
 1488SOL     OW 4999   1.049   0.697  13.460
 1488SOL    HW1 5000   1.063   0.684  13.554
 1488SOL    HW2 5001   0.967   0.651  13.441
 1489SOL     OW 5002   0.079   0.839  13.807
 1489SOL    HW1 5003   0.160   0.818  13.854
 1489SOL    HW2 5004   0.077   0.934  13.803
 1490SOL     OW 5005   0.893   0.351  13.231
 1490SOL    HW1 5006   0.935   0.411  13.169
 1490SOL    HW2 5007   0.895   0.266  13.187
 1491SOL     OW 5008   1.365   1.136  13.553
 1491SOL    HW1 5009   1.454   1.135  13.519
 1491SOL    HW2 5010   1.321   1.206  13.506
 1492SOL     OW 5011   1.001   1.441  13.503
 1492SOL    HW1 5012   0.969   1.517  13.454
 1492SOL    HW2 5013   0.970   1.455  13.592
 1493SOL     OW 5014   0.403   1.799  13.859
 1493SOL    HW1 5015   0.420   1.706  13.869
 1493SOL    HW2 5016   0.481   1.842  13.896
 1494SOL     OW 5017   1.790   1.048  13.899
 1494SOL    HW1 5018   1.733   1.042  13.823
 1494SOL    HW2 5019   1.731   1.044   0.074
 1495SOL     OW 5020   0.310   0.954  13.277
 1495SOL    HW1 5021   0.394   0.978  13.236
 1495SOL    HW2 5022   0.297   0.863  13.254
 1496SOL     OW 5023   1.490   0.734  13.752
 1496SOL    HW1 5024   1.477   0.693  13.837
 1496SOL    HW2 5025   1.560   0.798  13.766
 1497SOL     OW 5026   1.123   1.777  13.265
 1497SOL    HW1 5027   1.048   1.737  13.310
 1497SOL    HW2 5028   1.145   1.714  13.196
 1498SOL     OW 5029   1.628   1.380  13.122
 1498SOL    HW1 5030   1.586   1.465  13.105
 1498SOL    HW2 5031   1.560   1.316  13.102
 1499SOL     OW 5032   0.467   1.739  13.350
 1499SOL    HW1 5033   0.508   1.795  13.415
 1499SOL    HW2 5034   0.539   1.705  13.297
 1500SOL     OW 5035   1.428   0.156  13.447
 1500SOL    HW1 5036   1.393   0.106  13.373
 1500SOL    HW2 5037   1.520   0.130  13.452
 1501SOL     OW 5038   0.922   1.689   0.012
 1501SOL    HW1 5039   0.951   1.621   0.073
 1501SOL    HW2 5040   0.884   1.640  13.839
 1502SOL     OW 5041   0.398   0.697  13.503
 1502SOL    HW1 5042   0.425   0.606  13.516
 1502SOL    HW2 5043   0.306   0.698  13.532
 1503SOL     OW 5044   0.645   0.132  13.137
 1503SOL    HW1 5045   0.671   0.049  13.177
 1503SOL    HW2 5046   0.583   0.107  13.068
 1504SOL     OW 5047   0.550   0.056  13.523
 1504SOL    HW1 5048   0.472   0.060  13.579
 1504SOL    HW2 5049   0.550   0.138  13.475
 1505SOL     OW 5050   1.428   1.198  13.075
 1505SOL    HW1 5051   1.457   1.122  13.125
 1505SOL    HW2 5052   1.342   1.220  13.112
 1506SOL     OW 5053   0.341   0.053  13.234
 1506SOL    HW1 5054   0.360   0.090  13.148
 1506SOL    HW2 5055   0.427   0.029  13.269
 1507SOL     OW 5056   0.941   0.247  13.494
 1507SOL    HW1 5057   0.913   0.290  13.413
 1507SOL    HW2 5058   1.036   0.254  13.493
 1508SOL     OW 5059   0.470   1.144  13.769
 1508SOL    HW1 5060   0.397   1.122  13.827
 1508SOL    HW2 5061   0.434   1.133  13.680
 1509SOL     OW 5062   1.269   1.796  13.634
 1509SOL    HW1 5063   1.309   1.865  13.581
 1509SOL    HW2 5064   1.199   1.841  13.683
 1510SOL     OW 5065   1.022   0.544  13.061
 1510SOL    HW1 5066   0.979   0.627  13.042
 1510SOL    HW2 5067   1.086   0.565  13.129
 1511SOL     OW 5068   0.897   0.474  13.668
 1511SOL    HW1 5069   0.826   0.518  13.622
 1511SOL    HW2 5070   0.903   0.388  13.628
 1512SOL     OW 5071   1.001   0.039  13.795
 1512SOL    HW1 5072   0.970   0.064  13.708
 1512SOL    HW2 5073   1.023   3.946  13.787
 1513SOL     OW 5074   1.846   0.820  13.416
 1513SOL    HW1 5075   1.904   0.768  13.472
 1513SOL    HW2 5076   1.815   0.758  13.350
 1514SOL     OW 5077   0.487   1.420  13.194
 1514SOL    HW1 5078   0.412   1.388  13.244
 1514SOL    HW2 5079   0.471   1.390  13.105
 1515SOL     OW 5080   1.680   1.270  13.664
 1515SOL    HW1 5081   1.773   1.268  13.688
 1515SOL    HW2 5082   1.648   1.353  13.701
 1516SOL     OW 5083   1.395   0.576  13.104
 1516SOL    HW1 5084   1.333   0.555  13.174
 1516SOL    HW2 5085   1.480   0.554  13.142
 1517SOL     OW 5086   0.558   0.271  13.353
 1517SOL    HW1 5087   0.602   0.229  13.279
 1517SOL    HW2 5088   0.528   0.355  13.318
 1518SOL     OW 5089   0.708   1.063  13.400
 1518SOL    HW1 5090   0.694   1.048  13.493
 1518SOL    HW2 5091   0.785   1.009  13.378
 1519SOL     OW 5092   0.375   1.103  13.516
 1519SOL    HW1 5093   0.367   1.183  13.464
 1519SOL    HW2 5094   0.372   1.032  13.452
 1520SOL     OW 5095   0.567   0.540  13.863
 1520SOL    HW1 5096   0.580   0.608  13.797
 1520SOL    HW2 5097   0.624   0.566   0.036
 1521SOL     OW 5098   1.246   1.351  13.419
 1521SOL    HW1 5099   1.301   1.424  13.448
 1521SOL    HW2 5100   1.159   1.371  13.454
 1522SOL     OW 5101   1.585   0.632  13.514
 1522SOL    HW1 5102   1.545   0.685  13.583
 1522SOL    HW2 5103   1.625   0.696  13.455
 1523SOL     OW 5104   1.202   0.533  13.295
 1523SOL    HW1 5105   1.209   0.454  13.348
 1523SOL    HW2 5106   1.158   0.596  13.352
 1524SOL     OW 5107   0.332   0.049  13.679
 1524SOL    HW1 5108   0.309   0.141  13.689
 1524SOL    HW2 5109   0.274   0.003  13.740
 1525SOL     OW 5110   1.589   0.390  13.408
 1525SOL    HW1 5111   1.573   0.324  13.476
 1525SOL    HW2 5112   1.579   0.474  13.453
 1526SOL     OW 5113   1.505   0.279  13.167
 1526SOL    HW1 5114   1.432   0.218  13.181
 1526SOL    HW2 5115   1.520   0.319  13.253
 1527SOL     OW 5116   1.289   0.827  13.063
 1527SOL    HW1 5117   1.332   0.741  13.067
 1527SOL    HW2 5118   1.321   0.866  12.982
 1528SOL     OW 5119   4.000   1.318  13.215
 1528SOL    HW1 5120   3.906   1.335  13.219
 1528SOL    HW2 5121   0.009   1.225  13.233
 1529SOL     OW 5122   0.818   0.575  13.387
 1529SOL    HW1 5123   0.822   0.496  13.333
 1529SOL    HW2 5124   0.741   0.622  13.355
 1530SOL     OW 5125   0.453   0.492  13.231
 1530SOL    HW1 5126   0.518   0.561  13.247
 1530SOL    HW2 5127   0.373   0.539  13.208
 1531SOL     OW 5128   1.315   0.851  13.338
 1531SOL    HW1 5129   1.237   0.827  13.389
 1531SOL    HW2 5130   1.288   0.841  13.247
 1532SOL     OW 5131   1.696   0.120  13.463
 1532SOL    HW1 5132   1.788   0.131  13.442
 1532SOL    HW2 5133   1.694   0.053  13.531
 1533SOL     OW 5134   1.384   1.574  13.508
 1533SOL    HW1 5135   1.440   1.611  13.440
 1533SOL    HW2 5136   1.337   1.649  13.544
 1534SOL     OW 5137   1.288   0.914  13.684
 1534SOL    HW1 5138   1.366   0.859  13.671
 1534SOL    HW2 5139   1.310   0.997  13.643
 1535SOL     OW 5140   0.670   1.621  13.189
 1535SOL    HW1 5141   0.681   1.633  13.095
 1535SOL    HW2 5142   0.615   1.543  13.197
 1536SOL     OW 5143   1.829   0.172   0.064
 1536SOL    HW1 5144   1.867   0.085   0.054
 1536SOL    HW2 5145   1.736   0.159   0.044
 1537SOL     OW 5146   0.285   0.309  13.738
 1537SOL    HW1 5147   0.205   0.355  13.712
 1537SOL    HW2 5148   0.291   0.322  13.832
 1538SOL     OW 5149   1.207   1.605  13.065
 1538SOL    HW1 5150   1.197   1.513  13.091
 1538SOL    HW2 5151   1.141   1.617  12.997
 1539SOL     OW 5152   0.918   0.913  13.328
 1539SOL    HW1 5153   0.978   0.943  13.259
 1539SOL    HW2 5154   0.964   0.839  13.369
 1540SOL     OW 5155   1.487   1.622  13.074
 1540SOL    HW1 5156   1.393   1.617  13.058
 1540SOL    HW2 5157   1.526   1.630  12.987
 1541SOL     OW 5158   1.050   1.091  13.755
 1541SOL    HW1 5159   0.963   1.053  13.744
 1541SOL    HW2 5160   1.103   1.051  13.685
 1542SOL     OW 5161   0.602   1.493  13.507
 1542SOL    HW1 5162   0.647   1.441  13.440
 1542SOL    HW2 5163   0.528   1.533  13.460
 1543SOL     OW 5164   0.253   1.340  13.325
 1543SOL    HW1 5165   0.159   1.349  13.305
 1543SOL    HW2 5166   0.262   1.379  13.412
 1544SOL     OW 5167   0.088   0.324  13.062
 1544SOL    HW1 5168   3.992   0.320  13.053
 1544SOL    HW2 5169   0.112   0.405  13.018
 1545SOL     OW 5170   0.043   0.167  13.307
 1545SOL    HW1 5171   0.044   0.236  13.240
 1545SOL    HW2 5172   0.121   0.183  13.359
 1546SOL     OW 5173   1.178   1.338  13.149
 1546SOL    HW1 5174   1.087   1.308  13.152
 1546SOL    HW2 5175   1.205   1.339  13.241
 1547SOL     OW 5176   1.222   0.330  13.483
 1547SOL    HW1 5177   1.290   0.264  13.473
 1547SOL    HW2 5178   1.248   0.381  13.559
 1548SOL     OW 5179   0.594   0.750  13.692
 1548SOL    HW1 5180   0.628   0.838  13.673
 1548SOL    HW2 5181   0.524   0.737  13.628
 1549SOL     OW 5182   0.863   1.366  13.070
 1549SOL    HW1 5183   0.825   1.394  13.153
 1549SOL    HW2 5184   0.880   1.448  13.023
 1550SOL     OW 5185   0.658   1.852   0.061
 1550SOL    HW1 5186   0.674   1.946   0.047
 1550SOL    HW2 5187   0.745   1.815   0.075
 1551SOL     OW 5188   0.829   0.964  13.895
 1551SOL    HW1 5189   0.859   0.883   0.036
 1551SOL    HW2 5190   0.850   1.032   0.059
 1552SOL     OW 5191   1.077   0.987  13.123
 1552SOL    HW1 5192   1.056   1.039  13.045
 1552SOL    HW2 5193   1.152   0.934  13.096
 1553SOL     OW 5194   0.115   1.274  13.756
 1553SOL    HW1 5195   0.054   1.231  13.816
 1553SOL    HW2 5196   0.122   1.214  13.682
 1554SOL     OW 5197   0.448   0.440  13.558
 1554SOL    HW1 5198   0.469   0.365  13.501
 1554SOL    HW2 5199   0.402   0.401  13.632
 1555SOL     OW 5200   1.702   1.497   0.323
 1555SOL    HW1 5201   1.667   1.452   0.247
 1555SOL    HW2 5202   1.765   1.435   0.361
 1556SOL     OW 5203   0.821   1.552  13.707
 1556SOL    HW1 5204   0.795   1.609  13.634
 1556SOL    HW2 5205   0.744   1.496  13.721
 1557SOL     OW 5206   0.772   1.333  13.347
 1557SOL    HW1 5207   0.742   1.243  13.354
 1557SOL    HW2 5208   0.853   1.336  13.398
 1558SOL     OW 5209   1.313   0.078  13.205
 1558SOL    HW1 5210   1.337   0.003  13.150
 1558SOL    HW2 5211   1.225   0.056  13.237
 1559SOL     OW 5212   1.291   0.459  13.716
 1559SOL    HW1 5213   1.241   0.541  13.716
 1559SOL    HW2 5214   1.287   0.428  13.806
 1560SOL     OW 5215   0.046   1.049  13.270
 1560SOL    HW1 5216   0.140   1.033  13.263
 1560SOL    HW2 5217   0.010   0.968  13.305
 1561SOL     OW 5218   0.886   1.655  13.374
 1561SOL    HW1 5219   0.812   1.638  13.316
 1561SOL    HW2 5220   0.858   1.727  13.430
 1562SOL     OW 5221   0.232   2.510   0.121
 1562SOL    HW1 5222   0.137   2.505   0.134
 1562SOL    HW2 5223   0.247   2.468   0.036
 1563SOL     OW 5224   0.229   2.134   0.987
 1563SOL    HW1 5225   0.250   2.100   1.074
 1563SOL    HW2 5226   0.134   2.126   0.980
 1564SOL     OW 5227   0.011   2.225   0.632
 1564SOL    HW1 5228   3.925   2.244   0.671
 1564SOL    HW2 5229   3.991   2.190   0.545
 1565SOL     OW 5230   0.579   3.149   1.188
 1565SOL    HW1 5231   0.492   3.153   1.147
 1565SOL    HW2 5232   0.594   3.237   1.221
 1566SOL     OW 5233   1.563   3.372   0.708
 1566SOL    HW1 5234   1.518   3.350   0.789
 1566SOL    HW2 5235   1.493   3.375   0.642
 1567SOL     OW 5236   1.131   2.560   0.700
 1567SOL    HW1 5237   1.180   2.641   0.686
 1567SOL    HW2 5238   1.084   2.573   0.782
 1568SOL     OW 5239   1.760   2.464   0.227
 1568SOL    HW1 5240   1.789   2.415   0.150
 1568SOL    HW2 5241   1.722   2.398   0.284
 1569SOL     OW 5242   0.754   3.001   1.041
 1569SOL    HW1 5243   0.689   3.037   1.102
 1569SOL    HW2 5244   0.790   3.078   0.996
 1570SOL     OW 5245   0.868   2.633   1.822
 1570SOL    HW1 5246   0.859   2.704   1.886
 1570SOL    HW2 5247   0.892   2.677   1.740
 1571SOL     OW 5248   0.684   2.863   0.647
 1571SOL    HW1 5249   0.751   2.852   0.716
 1571SOL    HW2 5250   0.616   2.916   0.688
 1572SOL     OW 5251   0.711   3.012   1.815
 1572SOL    HW1 5252   0.759   3.090   1.843
 1572SOL    HW2 5253   0.630   3.045   1.778
 1573SOL     OW 5254   0.351   3.264   1.077
 1573SOL    HW1 5255   0.268   3.251   1.031
 1573SOL    HW2 5256   0.401   3.322   1.021
 1574SOL     OW 5257   1.460   3.362   1.356
 1574SOL    HW1 5258   1.513   3.441   1.366
 1574SOL    HW2 5259   1.395   3.368   1.426
 1575SOL     OW 5260   0.450   2.261   1.488
 1575SOL    HW1 5261   0.525   2.202   1.491
 1575SOL    HW2 5262   0.374   2.205   1.501
 1576SOL     OW 5263   1.608   2.304   0.735
 1576SOL    HW1 5264   1.527   2.327   0.690
 1576SOL    HW2 5265   1.628   2.380   0.790
 1577SOL     OW 5266   0.227   3.571   0.471
 1577SOL    HW1 5267   0.223   3.656   0.516
 1577SOL    HW2 5268   0.301   3.579   0.412
 1578SOL     OW 5269   1.137   3.203   1.693
 1578SOL    HW1 5270   1.178   3.198   1.780
 1578SOL    HW2 5271   1.085   3.124   1.686
 1579SOL     OW 5272   0.244   3.307   0.543
 1579SOL    HW1 5273   0.223   3.399   0.527
 1579SOL    HW2 5274   0.170   3.274   0.594
 1580SOL     OW 5275   0.246   2.929   0.883
 1580SOL    HW1 5276   0.267   2.845   0.923
 1580SOL    HW2 5277   0.194   2.975   0.949
 1581SOL     OW 5278   0.611   3.648   1.428
 1581SOL    HW1 5279   0.529   3.634   1.475
 1581SOL    HW2 5280   0.637   3.737   1.453
 1582SOL     OW 5281   0.563   2.844   0.163
 1582SOL    HW1 5282   0.588   2.888   0.082
 1582SOL    HW2 5283   0.619   2.883   0.230
 1583SOL     OW 5284   1.597   1.991   1.465
 1583SOL    HW1 5285   1.588   2.076   1.422
 1583SOL    HW2 5286   1.588   2.011   1.559
 1584SOL     OW 5287   0.140   2.516   0.573
 1584SOL    HW1 5288   0.087   2.437   0.574
 1584SOL    HW2 5289   0.106   2.569   0.644
 1585SOL     OW 5290   1.838   3.607   0.338
 1585SOL    HW1 5291   1.900   3.574   0.403
 1585SOL    HW2 5292   1.863   3.699   0.326
 1586SOL     OW 5293   0.030   3.469   0.141
 1586SOL    HW1 5294   0.032   3.374   0.154
 1586SOL    HW2 5295   3.937   3.492   0.150
 1587SOL     OW 5296   1.688   2.779   0.643
 1587SOL    HW1 5297   1.771   2.737   0.620
 1587SOL    HW2 5298   1.665   2.831   0.566
 1588SOL     OW 5299   1.648   2.966   0.432
 1588SOL    HW1 5300   1.734   2.970   0.392
 1588SOL    HW2 5301   1.651   3.030   0.503
 1589SOL     OW 5302   0.138   2.615   1.589
 1589SOL    HW1 5303   0.234   2.609   1.587
 1589SOL    HW2 5304   0.120   2.704   1.618
 1590SOL     OW 5305   0.615   3.247   0.735
 1590SOL    HW1 5306   0.567   3.165   0.744
 1590SOL    HW2 5307   0.598   3.274   0.644
 1591SOL     OW 5308   1.288   3.099   1.423
 1591SOL    HW1 5309   1.320   3.032   1.363
 1591SOL    HW2 5310   1.346   3.094   1.498
 1592SOL     OW 5311   0.821   1.862   0.511
 1592SOL    HW1 5312   0.860   1.946   0.489
 1592SOL    HW2 5313   0.727   1.880   0.519
 1593SOL     OW 5314   0.185   2.813   1.279
 1593SOL    HW1 5315   0.273   2.778   1.266
 1593SOL    HW2 5316   0.132   2.773   1.209
 1594SOL     OW 5317   1.530   2.859   0.204
 1594SOL    HW1 5318   1.462   2.800   0.237
 1594SOL    HW2 5319   1.571   2.895   0.283
 1595SOL     OW 5320   1.215   3.665   1.627
 1595SOL    HW1 5321   1.194   3.726   1.556
 1595SOL    HW2 5322   1.217   3.579   1.585
 1596SOL     OW 5323   0.341   2.109   1.815
 1596SOL    HW1 5324   0.378   2.197   1.823
 1596SOL    HW2 5325   0.249   2.120   1.840
 1597SOL     OW 5326   1.466   3.281   0.951
 1597SOL    HW1 5327   1.398   3.296   1.017
 1597SOL    HW2 5328   1.454   3.190   0.924
 1598SOL     OW 5329   1.659   3.600   0.587
 1598SOL    HW1 5330   1.643   3.576   0.496
 1598SOL    HW2 5331   1.634   3.522   0.637
 1599SOL     OW 5332   0.598   2.580   0.264
 1599SOL    HW1 5333   0.600   2.662   0.216
 1599SOL    HW2 5334   0.537   2.595   0.337
 1600SOL     OW 5335   1.279   2.220   0.934
 1600SOL    HW1 5336   1.191   2.185   0.944
 1600SOL    HW2 5337   1.334   2.164   0.989
 1601SOL     OW 5338   1.561   3.594   0.313
 1601SOL    HW1 5339   1.657   3.594   0.312
 1601SOL    HW2 5340   1.535   3.558   0.229
 1602SOL     OW 5341   0.791   2.480   1.451
 1602SOL    HW1 5342   0.765   2.455   1.540
 1602SOL    HW2 5343   0.753   2.412   1.395
 1603SOL     OW 5344   1.393   2.335   1.677
 1603SOL    HW1 5345   1.396   2.381   1.761
 1603SOL    HW2 5346   1.457   2.264   1.687
 1604SOL     OW 5347   0.953   2.749   1.583
 1604SOL    HW1 5348   1.008   2.679   1.547
 1604SOL    HW2 5349   0.905   2.783   1.508
 1605SOL     OW 5350   0.993   2.274   1.238
 1605SOL    HW1 5351   0.906   2.294   1.272
 1605SOL    HW2 5352   0.975   2.229   1.155
 1606SOL     OW 5353   1.051   2.563   0.429
 1606SOL    HW1 5354   1.068   2.554   0.523
 1606SOL    HW2 5355   0.968   2.517   0.415
 1607SOL     OW 5356   0.082   2.689   0.791
 1607SOL    HW1 5357   0.158   2.660   0.841
 1607SOL    HW2 5358   0.097   2.783   0.778
 1608SOL     OW 5359   0.127   3.716   1.577
 1608SOL    HW1 5360   0.135   3.685   1.667
 1608SOL    HW2 5361   0.035   3.704   1.554
 1609SOL     OW 5362   0.870   2.221   0.215
 1609SOL    HW1 5363   0.909   2.282   0.152
 1609SOL    HW2 5364   0.883   2.134   0.176
 1610SOL     OW 5365   1.675   2.445   1.833
 1610SOL    HW1 5366   1.650   2.516   1.774
 1610SOL    HW2 5367   1.722   2.383   1.778
 1611SOL     OW 5368   1.378   3.004   0.543
 1611SOL    HW1 5369   1.456   2.991   0.489
 1611SOL    HW2 5370   1.325   3.067   0.494
 1612SOL     OW 5371   0.546   2.041   0.894
 1612SOL    HW1 5372   0.552   2.072   0.984
 1612SOL    HW2 5373   0.547   2.121   0.841
 1613SOL     OW 5374   1.004   3.305   0.475
 1613SOL    HW1 5375   0.970   3.379   0.424
 1613SOL    HW2 5376   0.984   3.326   0.566
 1614SOL     OW 5377   0.359   3.670   0.861
 1614SOL    HW1 5378   0.437   3.616   0.873
 1614SOL    HW2 5379   0.390   3.760   0.870
 1615SOL     OW 5380   1.799   2.915   0.869
 1615SOL    HW1 5381   1.745   2.899   0.792
 1615SOL    HW2 5382   1.737   2.923   0.941
 1616SOL     OW 5383   1.228   3.399   1.511
 1616SOL    HW1 5384   1.214   3.327   1.573
 1616SOL    HW2 5385   1.160   3.387   1.444
 1617SOL     OW 5386   0.310   2.794   0.241
 1617SOL    HW1 5387   0.401   2.809   0.214
 1617SOL    HW2 5388   0.299   2.699   0.234
 1618SOL     OW 5389   1.480   2.604   0.725
 1618SOL    HW1 5390   1.473   2.564   0.811
 1618SOL    HW2 5391   1.557   2.661   0.731
 1619SOL     OW 5392   0.467   3.122   1.737
 1619SOL    HW1 5393   0.441   3.130   1.645
 1619SOL    HW2 5394   0.385   3.126   1.785
 1620SOL     OW 5395   1.126   3.639   0.232
 1620SOL    HW1 5396   1.062   3.594   0.287
 1620SOL    HW2 5397   1.152   3.575   0.167
 1621SOL     OW 5398   0.204   2.137   1.508
 1621SOL    HW1 5399   0.114   2.169   1.500
 1621SOL    HW2 5400   0.195   2.051   1.549
 1622SOL     OW 5401   1.634   3.236   0.084
 1622SOL    HW1 5402   1.598   3.319   0.055
 1622SOL    HW2 5403   1.566   3.172   0.066
 1623SOL     OW 5404   0.467   3.604   0.320
 1623SOL    HW1 5405   0.505   3.665   0.383
 1623SOL    HW2 5406   0.543   3.572   0.271
 1624SOL     OW 5407   1.403   1.970   0.431
 1624SOL    HW1 5408   1.384   1.951   0.339
 1624SOL    HW2 5409   1.491   1.935   0.445
 1625SOL     OW 5410   0.252   3.656   1.227
 1625SOL    HW1 5411   0.297   3.590   1.280
 1625SOL    HW2 5412   0.250   3.619   1.139
 1626SOL     OW 5413   0.938   3.562   0.900
 1626SOL    HW1 5414   1.016   3.511   0.921
 1626SOL    HW2 5415   0.894   3.513   0.831
 1627SOL     OW 5416   0.397   2.557   0.471
 1627SOL    HW1 5417   0.421   2.465   0.483
 1627SOL    HW2 5418   0.305   2.561   0.499
 1628SOL     OW 5419   1.536   2.086   1.725
 1628SOL    HW1 5420   1.547   2.107   1.818
 1628SOL    HW2 5421   1.464   2.023   1.723
 1629SOL     OW 5422   0.765   2.140   1.754
 1629SOL    HW1 5423   0.843   2.084   1.753
 1629SOL    HW2 5424   0.719   2.115   1.834
 1630SOL     OW 5425   0.876   3.382   1.194
 1630SOL    HW1 5426   0.860   3.347   1.107
 1630SOL    HW2 5427   0.946   3.328   1.230
 1631SOL     OW 5428   1.341   2.451   1.432
 1631SOL    HW1 5429   1.371   2.420   1.518
 1631SOL    HW2 5430   1.376   2.539   1.425
 1632SOL     OW 5431   0.817   3.255   0.941
 1632SOL    HW1 5432   0.901   3.243   0.898
 1632SOL    HW2 5433   0.753   3.257   0.869
 1633SOL     OW 5434   0.928   2.371   0.902
 1633SOL    HW1 5435   0.904   2.363   0.810
 1633SOL    HW2 5436   0.959   2.284   0.926
 1634SOL     OW 5437   0.557   1.922   0.503
 1634SOL    HW1 5438   0.475   1.921   0.553
 1634SOL    HW2 5439   0.549   2.000   0.448
 1635SOL     OW 5440   1.430   3.068   0.044
 1635SOL    HW1 5441   1.451   2.987   0.092
 1635SOL    HW2 5442   1.338   3.085   0.064
 1636SOL     OW 5443   0.263   1.871   0.217
 1636SOL    HW1 5444   0.293   1.955   0.181
 1636SOL    HW2 5445   0.343   1.824   0.240
 1637SOL     OW 5446   0.941   2.108   0.461
 1637SOL    HW1 5447   0.910   2.149   0.380
 1637SOL    HW2 5448   1.035   2.126   0.462
 1638SOL     OW 5449   1.080   2.544   1.459
 1638SOL    HW1 5450   1.013   2.476   1.464
 1638SOL    HW2 5451   1.163   2.495   1.453
 1639SOL     OW 5452   1.222   3.433   0.794
 1639SOL    HW1 5453   1.238   3.499   0.727
 1639SOL    HW2 5454   1.291   3.446   0.859
 1640SOL     OW 5455   0.465   3.012   0.734
 1640SOL    HW1 5456   0.394   2.989   0.794
 1640SOL    HW2 5457   0.428   2.998   0.646
 1641SOL     OW 5458   1.267   3.658   0.607
 1641SOL    HW1 5459   1.314   3.722   0.554
 1641SOL    HW2 5460   1.195   3.707   0.647
 1642SOL     OW 5461   0.997   2.407   0.057
 1642SOL    HW1 5462   0.996   2.394  13.862
 1642SOL    HW2 5463   1.089   2.401   0.080
 1643SOL     OW 5464   0.081   2.434   1.390
 1643SOL    HW1 5465   0.171   2.421   1.359
 1643SOL    HW2 5466   0.088   2.504   1.455
 1644SOL     OW 5467   0.567   2.089   1.165
 1644SOL    HW1 5468   0.608   2.013   1.208
 1644SOL    HW2 5469   0.475   2.086   1.195
 1645SOL     OW 5470   0.867   2.320   0.639
 1645SOL    HW1 5471   0.824   2.376   0.574
 1645SOL    HW2 5472   0.888   2.240   0.592
 1646SOL     OW 5473   1.017   1.915   0.750
 1646SOL    HW1 5474   0.958   1.909   0.675
 1646SOL    HW2 5475   0.993   1.840   0.805
 1647SOL     OW 5476   1.437   3.024   0.857
 1647SOL    HW1 5477   1.368   2.959   0.856
 1647SOL    HW2 5478   1.461   3.035   0.765
 1648SOL     OW 5479   1.465   2.468   0.974
 1648SOL    HW1 5480   1.412   2.388   0.977
 1648SOL    HW2 5481   1.524   2.461   1.049
 1649SOL     OW 5482   1.846   2.675   0.379
 1649SOL    HW1 5483   1.900   2.623   0.438
 1649SOL    HW2 5484   1.814   2.612   0.314
 1650SOL     OW 5485   0.493   3.244   0.165
 1650SOL    HW1 5486   0.420   3.215   0.220
 1650SOL    HW2 5487   0.452   3.287   0.091
 1651SOL     OW 5488   1.672   3.125   0.647
 1651SOL    HW1 5489   1.767   3.128   0.659
 1651SOL    HW2 5490   1.642   3.214   0.662
 1652SOL     OW 5491   1.420   2.444   0.087
 1652SOL    HW1 5492   1.351   2.436   0.153
 1652SOL    HW2 5493   1.463   2.358   0.087
 1653SOL     OW 5494   0.531   2.123   0.325
 1653SOL    HW1 5495   0.582   2.089   0.252
 1653SOL    HW2 5496   0.501   2.209   0.295
 1654SOL     OW 5497   1.752   3.103   1.570
 1654SOL    HW1 5498   1.839   3.063   1.568
 1654SOL    HW2 5499   1.767   3.193   1.598
 1655SOL     OW 5500   1.057   3.214   1.332
 1655SOL    HW1 5501   0.982   3.184   1.384
 1655SOL    HW2 5502   1.133   3.174   1.374
 1656SOL     OW 5503   1.609   3.488   1.656
 1656SOL    HW1 5504   1.602   3.522   1.566
 1656SOL    HW2 5505   1.692   3.440   1.656
 1657SOL     OW 5506   1.130   3.066   1.104
 1657SOL    HW1 5507   1.072   3.105   1.169
 1657SOL    HW2 5508   1.099   3.100   1.020
 1658SOL     OW 5509   1.627   2.960   1.077
 1658SOL    HW1 5510   1.622   3.022   1.149
 1658SOL    HW2 5511   1.549   2.978   1.024
 1659SOL     OW 5512   0.918   1.958   1.395
 1659SOL    HW1 5513   0.941   1.939   1.304
 1659SOL    HW2 5514   0.997   1.998   1.432
 1660SOL     OW 5515   0.984   2.977   1.722
 1660SOL    HW1 5516   0.892   2.993   1.745
 1660SOL    HW2 5517   0.982   2.899   1.667
 1661SOL     OW 5518   0.715   2.921   0.377
 1661SOL    HW1 5519   0.700   2.904   0.470
 1661SOL    HW2 5520   0.790   2.867   0.353
 1662SOL     OW 5521   0.421   2.678   1.252
 1662SOL    HW1 5522   0.490   2.686   1.318
 1662SOL    HW2 5523   0.387   2.589   1.264
 1663SOL     OW 5524   1.265   2.237   1.277
 1663SOL    HW1 5525   1.298   2.315   1.322
 1663SOL    HW2 5526   1.175   2.259   1.254
 1664SOL     OW 5527   0.065   3.441   1.346
 1664SOL    HW1 5528   0.070   3.499   1.269
 1664SOL    HW2 5529   0.156   3.429   1.372
 1665SOL     OW 5530   0.363   2.965   0.481
 1665SOL    HW1 5531   0.357   3.043   0.427
 1665SOL    HW2 5532   0.381   2.894   0.420
 1666SOL     OW 5533   0.551   2.397   0.861
 1666SOL    HW1 5534   0.565   2.454   0.786
 1666SOL    HW2 5535   0.617   2.424   0.924
 1667SOL     OW 5536   1.248   3.208   0.398
 1667SOL    HW1 5537   1.305   3.281   0.424
 1667SOL    HW2 5538   1.161   3.233   0.430
 1668SOL     OW 5539   1.283   3.321   1.148
 1668SOL    HW1 5540   1.339   3.324   1.225
 1668SOL    HW2 5541   1.227   3.245   1.162
 1669SOL     OW 5542   1.579   2.489   0.477
 1669SOL    HW1 5543   1.531   2.536   0.546
 1669SOL    HW2 5544   1.611   2.558   0.419
 1670SOL     OW 5545   0.345   3.389   1.318
 1670SOL    HW1 5546   0.335   3.339   1.237
 1670SOL    HW2 5547   0.439   3.404   1.326
 1671SOL     OW 5548   0.415   2.601   1.601
 1671SOL    HW1 5549   0.478   2.646   1.544
 1671SOL    HW2 5550   0.456   2.516   1.618
 1672SOL     OW 5551   1.600   2.647   1.675
 1672SOL    HW1 5552   1.515   2.690   1.670
 1672SOL    HW2 5553   1.654   2.691   1.609
 1673SOL     OW 5554   0.996   1.989   1.754
 1673SOL    HW1 5555   1.053   2.061   1.729
 1673SOL    HW2 5556   1.044   1.910   1.729
 1674SOL     OW 5557   0.497   1.898   1.746
 1674SOL    HW1 5558   0.453   1.845   1.679
 1674SOL    HW2 5559   0.443   1.976   1.755
 1675SOL     OW 5560   0.584   2.736   1.031
 1675SOL    HW1 5561   0.617   2.826   1.032
 1675SOL    HW2 5562   0.529   2.730   1.109
 1676SOL     OW 5563   1.355   2.720   1.027
 1676SOL    HW1 5564   1.271   2.710   0.983
 1676SOL    HW2 5565   1.397   2.634   1.020
 1677SOL     OW 5566   1.218   2.403   0.273
 1677SOL    HW1 5567   1.221   2.323   0.325
 1677SOL    HW2 5568   1.163   2.463   0.323
 1678SOL     OW 5569   0.311   2.059   1.247
 1678SOL    HW1 5570   0.264   2.096   1.323
 1678SOL    HW2 5571   0.287   1.966   1.248
 1679SOL     OW 5572   0.059   3.167   1.280
 1679SOL    HW1 5573   0.091   3.127   1.361
 1679SOL    HW2 5574   0.051   3.260   1.301
 1680SOL     OW 5575   0.723   2.493   1.056
 1680SOL    HW1 5576   0.799   2.477   0.999
 1680SOL    HW2 5577   0.696   2.582   1.035
 1681SOL     OW 5578   1.734   2.822   1.852
 1681SOL    HW1 5579   1.690   2.757   1.798
 1681SOL    HW2 5580   1.676   2.836   1.926
 1682SOL     OW 5581   0.314   1.924   0.623
 1682SOL    HW1 5582   0.292   2.015   0.644
 1682SOL    HW2 5583   0.318   1.880   0.708
 1683SOL     OW 5584   1.623   2.240   0.383
 1683SOL    HW1 5585   1.615   2.182   0.459
 1683SOL    HW2 5586   1.596   2.326   0.416
 1684SOL     OW 5587   1.028   2.621   0.960
 1684SOL    HW1 5588   1.023   2.638   1.054
 1684SOL    HW2 5589   1.002   2.529   0.951
 1685SOL     OW 5590   0.985   3.430   1.720
 1685SOL    HW1 5591   0.967   3.471   1.635
 1685SOL    HW2 5592   1.027   3.347   1.697
 1686SOL     OW 5593   1.854   3.366   1.604
 1686SOL    HW1 5594   1.873   3.394   1.515
 1686SOL    HW2 5595   1.934   3.384   1.653
 1687SOL     OW 5596   0.352   2.783   1.800
 1687SOL    HW1 5597   0.431   2.804   1.851
 1687SOL    HW2 5598   0.381   2.716   1.738
 1688SOL     OW 5599   1.515   2.161   0.142
 1688SOL    HW1 5600   1.500   2.067   0.149
 1688SOL    HW2 5601   1.562   2.184   0.223
 1689SOL     OW 5602   1.292   2.690   0.055
 1689SOL    HW1 5603   1.340   2.607   0.060
 1689SOL    HW2 5604   1.311   2.724  13.868
 1690SOL     OW 5605   1.067   3.198   0.854
 1690SOL    HW1 5606   1.070   3.126   0.792
 1690SOL    HW2 5607   1.127   3.264   0.819
 1691SOL     OW 5608   0.314   2.665   0.950
 1691SOL    HW1 5609   0.408   2.683   0.945
 1691SOL    HW2 5610   0.308   2.575   0.982
 1692SOL     OW 5611   0.330   2.382   1.014
 1692SOL    HW1 5612   0.296   2.294   0.997
 1692SOL    HW2 5613   0.406   2.390   0.956
 1693SOL     OW 5614   1.134   2.236   1.684
 1693SOL    HW1 5615   1.087   2.292   1.746
 1693SOL    HW2 5616   1.222   2.274   1.680
 1694SOL     OW 5617   1.161   2.064   1.471
 1694SOL    HW1 5618   1.150   2.126   1.542
 1694SOL    HW2 5619   1.201   2.114   1.400
 1695SOL     OW 5620   0.012   3.189   0.189
 1695SOL    HW1 5621   3.918   3.204   0.183
 1695SOL    HW2 5622   0.020   3.097   0.216
 1696SOL     OW 5623   0.075   3.664   0.895
 1696SOL    HW1 5624   0.089   3.569   0.893
 1696SOL    HW2 5625   0.163   3.701   0.893
 1697SOL     OW 5626   0.507   3.426   0.917
 1697SOL    HW1 5627   0.573   3.492   0.937
 1697SOL    HW2 5628   0.550   3.367   0.854
 1698SOL     OW 5629   0.980   2.652   1.226
 1698SOL    HW1 5630   1.038   2.631   1.299
 1698SOL    HW2 5631   0.895   2.615   1.250
 1699SOL     OW 5632   0.038   2.419   1.109
 1699SOL    HW1 5633   0.120   2.395   1.067
 1699SOL    HW2 5634   0.057   2.416   1.203
 1700SOL     OW 5635   0.206   2.375   1.727
 1700SOL    HW1 5636   0.247   2.329   1.654
 1700SOL    HW2 5637   0.159   2.448   1.687
 1701SOL     OW 5638   1.375   2.802   1.657
 1701SOL    HW1 5639   1.397   2.895   1.654
 1701SOL    HW2 5640   1.371   2.775   1.565
 1702SOL     OW 5641   0.814   2.438   0.374
 1702SOL    HW1 5642   0.826   2.363   0.315
 1702SOL    HW2 5643   0.743   2.489   0.334
 1703SOL     OW 5644   1.642   2.465   1.183
 1703SOL    HW1 5645   1.632   2.411   1.261
 1703SOL    HW2 5646   1.729   2.441   1.149
 1704SOL     OW 5647   0.299   3.408   1.727
 1704SOL    HW1 5648   0.250   3.477   1.771
 1704SOL    HW2 5649   0.267   3.327   1.767
 1705SOL     OW 5650   0.705   2.312   1.258
 1705SOL    HW1 5651   0.652   2.238   1.228
 1705SOL    HW2 5652   0.700   2.375   1.186
 1706SOL     OW 5653   0.929   3.534   1.468
 1706SOL    HW1 5654   0.901   3.497   1.384
 1706SOL    HW2 5655   0.921   3.629   1.457
 1707SOL     OW 5656   0.433   2.357   0.234
 1707SOL    HW1 5657   0.507   2.418   0.240
 1707SOL    HW2 5658   0.361   2.409   0.200
 1708SOL     OW 5659   0.156   2.997   1.475
 1708SOL    HW1 5660   0.157   2.946   1.556
 1708SOL    HW2 5661   0.171   2.933   1.406
 1709SOL     OW 5662   1.325   2.908   1.222
 1709SOL    HW1 5663   1.347   2.844   1.154
 1709SOL    HW2 5664   1.255   2.961   1.183
 1710SOL     OW 5665   1.312   2.720   0.326
 1710SOL    HW1 5666   1.238   2.685   0.375
 1710SOL    HW2 5667   1.290   2.705   0.234
 1711SOL     OW 5668   1.771   3.603   1.150
 1711SOL    HW1 5669   1.833   3.631   1.083
 1711SOL    HW2 5670   1.750   3.513   1.127
 1712SOL     OW 5671   1.244   3.595   1.110
 1712SOL    HW1 5672   1.326   3.616   1.067
 1712SOL    HW2 5673   1.250   3.502   1.129
 1713SOL     OW 5674   0.076   3.076   1.028
 1713SOL    HW1 5675   0.083   3.103   1.119
 1713SOL    HW2 5676   3.983   3.086   1.007
 1714SOL     OW 5677   0.679   3.526   1.732
 1714SOL    HW1 5678   0.622   3.603   1.735
 1714SOL    HW2 5679   0.739   3.545   1.659
 1715SOL     OW 5680   0.925   1.970   0.130
 1715SOL    HW1 5681   0.960   1.960   0.041
 1715SOL    HW2 5682   0.974   1.907   0.183
 1716SOL     OW 5683   1.389   3.434   0.485
 1716SOL    HW1 5684   1.452   3.469   0.422
 1716SOL    HW2 5685   1.342   3.511   0.517
 1717SOL     OW 5686   0.169   3.624   1.831
 1717SOL    HW1 5687   0.114   3.572   1.889
 1717SOL    HW2 5688   0.216   3.683   1.890
 1718SOL     OW 5689   1.277   2.788   0.671
 1718SOL    HW1 5690   1.351   2.727   0.678
 1718SOL    HW2 5691   1.311   2.860   0.618
 1719SOL     OW 5692   0.812   3.136   1.429
 1719SOL    HW1 5693   0.783   3.176   1.511
 1719SOL    HW2 5694   0.741   3.155   1.367
 1720SOL     OW 5695   0.674   3.447   0.189
 1720SOL    HW1 5696   0.659   3.488   0.103
 1720SOL    HW2 5697   0.627   3.364   0.184
 1721SOL     OW 5698   1.623   3.588   1.390
 1721SOL    HW1 5699   1.675   3.593   1.309
 1721SOL    HW2 5700   1.610   3.679   1.416
 1722SOL     OW 5701   0.266   2.174   0.717
 1722SOL    HW1 5702   0.180   2.209   0.692
 1722SOL    HW2 5703   0.261   2.165   0.812
 1723SOL     OW 5704   1.221   3.461   0.034
 1723SOL    HW1 5705   1.209   3.370   0.061
 1723SOL    HW2 5706   1.178   3.466  13.849
 1724SOL     OW 5707   0.823   2.868   1.373
 1724SOL    HW1 5708   0.868   2.863   1.288
 1724SOL    HW2 5709   0.822   2.961   1.394
 1725SOL     OW 5710   0.922   2.773   0.289
 1725SOL    HW1 5711   0.991   2.812   0.235
 1725SOL    HW2 5712   0.965   2.702   0.336
 1726SOL     OW 5713   1.486   3.506   0.066
 1726SOL    HW1 5714   1.393   3.485   0.056
 1726SOL    HW2 5715   1.522   3.498  13.877
 1727SOL     OW 5716   0.374   3.165   1.491
 1727SOL    HW1 5717   0.359   3.245   1.441
 1727SOL    HW2 5718   0.297   3.111   1.474
 1728SOL     OW 5719   1.610   3.145   1.280
 1728SOL    HW1 5720   1.670   3.133   1.354
 1728SOL    HW2 5721   1.550   3.213   1.310
 1729SOL     OW 5722   1.054   2.970   0.707
 1729SOL    HW1 5723   0.983   2.918   0.746
 1729SOL    HW2 5724   1.118   2.905   0.678
 1730SOL     OW 5725   1.022   2.102   0.966
 1730SOL    HW1 5726   1.019   2.055   0.883
 1730SOL    HW2 5727   1.017   2.034   1.033
 1731SOL     OW 5728   0.606   3.349   0.482
 1731SOL    HW1 5729   0.651   3.300   0.413
 1731SOL    HW2 5730   0.536   3.396   0.436
 1732SOL     OW 5731   1.724   2.255   1.377
 1732SOL    HW1 5732   1.798   2.315   1.384
 1732SOL    HW2 5733   1.751   2.190   1.312
 1733SOL     OW 5734   0.263   3.179   0.308
 1733SOL    HW1 5735   0.185   3.207   0.260
 1733SOL    HW2 5736   0.261   3.228   0.390
 1734SOL     OW 5737   0.107   2.860   1.717
 1734SOL    HW1 5738   0.046   2.853   1.791
 1734SOL    HW2 5739   0.193   2.841   1.755
 1735SOL     OW 5740   0.675   2.058   1.499
 1735SOL    HW1 5741   0.759   2.037   1.459
 1735SOL    HW2 5742   0.698   2.090   1.587
 1736SOL     OW 5743   0.051   2.221   0.037
 1736SOL    HW1 5744   3.960   2.225   0.067
 1736SOL    HW2 5745   0.047   2.233  13.843
 1737SOL     OW 5746   1.428   2.721   1.399
 1737SOL    HW1 5747   1.380   2.782   1.343
 1737SOL    HW2 5748   1.518   2.723   1.365
 1738SOL     OW 5749   0.054   2.036   0.314
 1738SOL    HW1 5750   0.080   2.102   0.250
 1738SOL    HW2 5751   0.117   1.965   0.301
 1739SOL     OW 5752   1.186   3.209   0.123
 1739SOL    HW1 5753   1.091   3.196   0.112
 1739SOL    HW2 5754   1.201   3.195   0.216
 1740SOL     OW 5755   0.619   2.692   1.436
 1740SOL    HW1 5756   0.675   2.768   1.420
 1740SOL    HW2 5757   0.680   2.619   1.444
 1741SOL     OW 5758   1.485   3.641   0.981
 1741SOL    HW1 5759   1.509   3.697   0.907
 1741SOL    HW2 5760   1.569   3.619   1.021
 1742SOL     OW 5761   0.716   2.425   1.704
 1742SOL    HW1 5762   0.760   2.487   1.763
 1742SOL    HW2 5763   0.743   2.339   1.737
 1743SOL     OW 5764   1.473   3.061   1.631
 1743SOL    HW1 5765   1.460   3.074   1.725
 1743SOL    HW2 5766   1.566   3.077   1.616
 1744SOL     OW 5767   0.378   3.607   1.559
 1744SOL    HW1 5768   0.291   3.642   1.546
 1744SOL    HW2 5769   0.364   3.524   1.605
 1745SOL     OW 5770   1.669   2.743   1.254
 1745SOL    HW1 5771   1.661   2.658   1.211
 1745SOL    HW2 5772   1.658   2.807   1.183
 1746SOL     OW 5773   1.217   2.182   0.456
 1746SOL    HW1 5774   1.282   2.112   0.449
 1746SOL    HW2 5775   1.244   2.231   0.533
 1747SOL     OW 5776   0.588   2.599   0.672
 1747SOL    HW1 5777   0.627   2.685   0.657
 1747SOL    HW2 5778   0.522   2.590   0.604
 1748SOL     OW 5779   1.756   2.239   1.657
 1748SOL    HW1 5780   1.747   2.246   1.561
 1748SOL    HW2 5781   1.685   2.180   1.683
 1749SOL     OW 5782   1.748   2.799   1.509
 1749SOL    HW1 5783   1.741   2.894   1.522
 1749SOL    HW2 5784   1.731   2.787   1.415
 1750SOL     OW 5785   0.906   3.261   0.064
 1750SOL    HW1 5786   0.838   3.242   0.128
 1750SOL    HW2 5787   0.860   3.265  13.880
 1751SOL     OW 5788   0.659   3.651   0.937
 1751SOL    HW1 5789   0.637   3.742   0.917
 1751SOL    HW2 5790   0.754   3.649   0.934
 1752SOL     OW 5791   0.868   2.829   0.854
 1752SOL    HW1 5792   0.918   2.758   0.893
 1752SOL    HW2 5793   0.833   2.877   0.928
 1753SOL     OW 5794   1.098   2.871   0.109
 1753SOL    HW1 5795   1.088   2.918   0.026
 1753SOL    HW2 5796   1.172   2.812   0.095
 1754SOL     OW 5797   1.852   3.413   0.842
 1754SOL    HW1 5798   1.773   3.404   0.789
 1754SOL    HW2 5799   1.839   3.351   0.914
 1755SOL     OW 5800   0.226   3.166   1.856
 1755SOL    HW1 5801   0.153   3.110   1.830
 1755SOL    HW2 5802   0.213   3.179   1.950
 1756SOL     OW 5803   0.106   3.139   0.726
 1756SOL    HW1 5804   0.127   3.092   0.806
 1756SOL    HW2 5805   0.104   3.072   0.658
 1757SOL     OW 5806   0.682   3.266   1.630
 1757SOL    HW1 5807   0.601   3.224   1.660
 1757SOL    HW2 5808   0.678   3.354   1.666
 1758SOL     OW 5809   0.438   2.297   0.537
 1758SOL    HW1 5810   0.465   2.224   0.480
 1758SOL    HW2 5811   0.384   2.256   0.604
 1759SOL     OW 5812   1.701   3.348   1.092
 1759SOL    HW1 5813   1.619   3.327   1.047
 1759SOL    HW2 5814   1.710   3.281   1.159
 1760SOL     OW 5815   0.334   2.418   1.292
 1760SOL    HW1 5816   0.388   2.362   1.346
 1760SOL    HW2 5817   0.349   2.387   1.202
 1761SOL     OW 5818   0.828   3.441   0.677
 1761SOL    HW1 5819   0.815   3.496   0.599
 1761SOL    HW2 5820   0.753   3.382   0.678
 1762SOL     OW 5821   1.437   2.091   1.119
 1762SOL    HW1 5822   1.448   2.004   1.157
 1762SOL    HW2 5823   1.383   2.138   1.182
 1763SOL     OW 5824   1.009   1.879   1.140
 1763SOL    HW1 5825   0.955   1.812   1.100
 1763SOL    HW2 5826   1.097   1.842   1.142
 1764SOL     OW 5827   0.777   3.185   0.320
 1764SOL    HW1 5828   0.745   3.096   0.336
 1764SOL    HW2 5829   0.859   3.191   0.368
 1765SOL     OW 5830   0.620   3.416   1.285
 1765SOL    HW1 5831   0.622   3.497   1.335
 1765SOL    HW2 5832   0.708   3.410   1.247
 1766SOL     OW 5833   1.347   1.921   0.166
 1766SOL    HW1 5834   1.376   1.869   0.091
 1766SOL    HW2 5835   1.263   1.882   0.191
 1767SOL     OW 5836   1.297   2.323   0.680
 1767SOL    HW1 5837   1.245   2.403   0.686
 1767SOL    HW2 5838   1.292   2.284   0.767
 1768SOL     OW 5839   1.572   2.054   0.870
 1768SOL    HW1 5840   1.535   2.080   0.955
 1768SOL    HW2 5841   1.587   2.136   0.824
 1769SOL     OW 5842   0.042   2.895   0.254
 1769SOL    HW1 5843   0.136   2.879   0.249
 1769SOL    HW2 5844   0.009   2.822   0.307
 1770SOL     OW 5845   0.892   3.519   0.345
 1770SOL    HW1 5846   0.819   3.489   0.292
 1770SOL    HW2 5847   0.859   3.595   0.393
 1771SOL     OW 5848   0.231   2.485   1.982
 1771SOL    HW1 5849   0.138   2.494   2.003
 1771SOL    HW2 5850   0.233   2.455   1.891
 1772SOL     OW 5851   0.229   2.134   2.849
 1772SOL    HW1 5852   0.250   2.100   2.936
 1772SOL    HW2 5853   0.134   2.126   2.842
 1773SOL     OW 5854   0.010   2.222   2.492
 1773SOL    HW1 5855   3.922   2.240   2.526
 1773SOL    HW2 5856   3.996   2.190   2.403
 1774SOL     OW 5857   0.579   3.149   3.050
 1774SOL    HW1 5858   0.492   3.153   3.009
 1774SOL    HW2 5859   0.593   3.238   3.083
 1775SOL     OW 5860   1.563   3.373   2.570
 1775SOL    HW1 5861   1.520   3.352   2.653
 1775SOL    HW2 5862   1.491   3.376   2.507
 1776SOL     OW 5863   1.131   2.560   2.561
 1776SOL    HW1 5864   1.180   2.641   2.548
 1776SOL    HW2 5865   1.084   2.574   2.644
 1777SOL     OW 5866   1.750   2.477   2.095
 1777SOL    HW1 5867   1.736   2.472   2.000
 1777SOL    HW2 5868   1.752   2.385   2.123
 1778SOL     OW 5869   0.754   3.002   2.903
 1778SOL    HW1 5870   0.689   3.037   2.964
 1778SOL    HW2 5871   0.790   3.079   2.859
 1779SOL     OW 5872   0.868   2.633   3.684
 1779SOL    HW1 5873   0.860   2.704   3.748
 1779SOL    HW2 5874   0.892   2.677   3.602
 1780SOL     OW 5875   0.685   2.864   2.508
 1780SOL    HW1 5876   0.751   2.853   2.577
 1780SOL    HW2 5877   0.616   2.916   2.550
 1781SOL     OW 5878   0.711   3.012   3.677
 1781SOL    HW1 5879   0.759   3.090   3.705
 1781SOL    HW2 5880   0.630   3.045   3.640
 1782SOL     OW 5881   0.351   3.264   2.940
 1782SOL    HW1 5882   0.268   3.249   2.893
 1782SOL    HW2 5883   0.400   3.322   2.883
 1783SOL     OW 5884   1.460   3.362   3.218
 1783SOL    HW1 5885   1.513   3.441   3.228
 1783SOL    HW2 5886   1.395   3.368   3.288
 1784SOL     OW 5887   0.450   2.261   3.350
 1784SOL    HW1 5888   0.525   2.202   3.353
 1784SOL    HW2 5889   0.374   2.205   3.363
 1785SOL     OW 5890   1.608   2.304   2.597
 1785SOL    HW1 5891   1.529   2.328   2.549
 1785SOL    HW2 5892   1.627   2.380   2.651
 1786SOL     OW 5893   0.224   3.571   2.328
 1786SOL    HW1 5894   0.225   3.653   2.377
 1786SOL    HW2 5895   0.301   3.575   2.271
 1787SOL     OW 5896   1.137   3.203   3.555
 1787SOL    HW1 5897   1.178   3.198   3.642
 1787SOL    HW2 5898   1.085   3.124   3.548
 1788SOL     OW 5899   0.249   3.305   2.402
 1788SOL    HW1 5900   0.221   3.396   2.388
 1788SOL    HW2 5901   0.179   3.267   2.455
 1789SOL     OW 5902   0.247   2.929   2.746
 1789SOL    HW1 5903   0.266   2.845   2.786
 1789SOL    HW2 5904   0.194   2.976   2.811
 1790SOL     OW 5905   0.611   3.648   3.290
 1790SOL    HW1 5906   0.529   3.634   3.336
 1790SOL    HW2 5907   0.637   3.737   3.315
 1791SOL     OW 5908   0.578   2.847   1.999
 1791SOL    HW1 5909   0.626   2.892   1.930
 1791SOL    HW2 5910   0.620   2.877   2.080
 1792SOL     OW 5911   1.597   1.991   3.327
 1792SOL    HW1 5912   1.587   2.076   3.284
 1792SOL    HW2 5913   1.587   2.011   3.420
 1793SOL     OW 5914   0.142   2.514   2.436
 1793SOL    HW1 5915   0.087   2.435   2.435
 1793SOL    HW2 5916   0.106   2.568   2.506
 1794SOL     OW 5917   1.842   3.610   2.200
 1794SOL    HW1 5918   1.910   3.586   2.263
 1794SOL    HW2 5919   1.863   3.701   2.176
 1795SOL     OW 5920   0.041   3.453   2.002
 1795SOL    HW1 5921   0.034   3.361   2.026
 1795SOL    HW2 5922   3.960   3.493   2.033
 1796SOL     OW 5923   1.690   2.781   2.504
 1796SOL    HW1 5924   1.771   2.736   2.480
 1796SOL    HW2 5925   1.666   2.831   2.426
 1797SOL     OW 5926   1.647   2.968   2.291
 1797SOL    HW1 5927   1.733   2.971   2.250
 1797SOL    HW2 5928   1.652   3.030   2.364
 1798SOL     OW 5929   0.138   2.615   3.452
 1798SOL    HW1 5930   0.234   2.609   3.449
 1798SOL    HW2 5931   0.120   2.704   3.480
 1799SOL     OW 5932   0.615   3.248   2.596
 1799SOL    HW1 5933   0.568   3.165   2.606
 1799SOL    HW2 5934   0.598   3.275   2.506
 1800SOL     OW 5935   1.288   3.099   3.285
 1800SOL    HW1 5936   1.320   3.032   3.225
 1800SOL    HW2 5937   1.346   3.094   3.360
 1801SOL     OW 5938   0.819   1.862   2.373
 1801SOL    HW1 5939   0.859   1.946   2.352
 1801SOL    HW2 5940   0.725   1.881   2.379
 1802SOL     OW 5941   0.184   2.813   3.141
 1802SOL    HW1 5942   0.272   2.778   3.127
 1802SOL    HW2 5943   0.132   2.773   3.071
 1803SOL     OW 5944   1.531   2.858   2.061
 1803SOL    HW1 5945   1.462   2.800   2.093
 1803SOL    HW2 5946   1.573   2.891   2.140
 1804SOL     OW 5947   1.215   3.665   3.489
 1804SOL    HW1 5948   1.194   3.726   3.418
 1804SOL    HW2 5949   1.217   3.579   3.447
 1805SOL     OW 5950   0.341   2.109   3.677
 1805SOL    HW1 5951   0.378   2.197   3.685
 1805SOL    HW2 5952   0.249   2.120   3.703
 1806SOL     OW 5953   1.466   3.282   2.812
 1806SOL    HW1 5954   1.399   3.297   2.878
 1806SOL    HW2 5955   1.453   3.190   2.786
 1807SOL     OW 5956   1.654   3.601   2.443
 1807SOL    HW1 5957   1.640   3.570   2.353
 1807SOL    HW2 5958   1.631   3.526   2.498
 1808SOL     OW 5959   0.596   2.579   2.127
 1808SOL    HW1 5960   0.602   2.663   2.081
 1808SOL    HW2 5961   0.533   2.595   2.197
 1809SOL     OW 5962   1.279   2.220   2.796
 1809SOL    HW1 5963   1.191   2.185   2.806
 1809SOL    HW2 5964   1.334   2.164   2.852
 1810SOL     OW 5965   1.577   3.537   2.170
 1810SOL    HW1 5966   1.670   3.561   2.165
 1810SOL    HW2 5967   1.552   3.517   2.080
 1811SOL     OW 5968   0.791   2.480   3.313
 1811SOL    HW1 5969   0.765   2.455   3.402
 1811SOL    HW2 5970   0.753   2.412   3.257
 1812SOL     OW 5971   1.393   2.335   3.539
 1812SOL    HW1 5972   1.395   2.381   3.623
 1812SOL    HW2 5973   1.457   2.264   3.549
 1813SOL     OW 5974   0.953   2.749   3.445
 1813SOL    HW1 5975   1.008   2.679   3.409
 1813SOL    HW2 5976   0.905   2.783   3.370
 1814SOL     OW 5977   0.993   2.274   3.100
 1814SOL    HW1 5978   0.906   2.294   3.134
 1814SOL    HW2 5979   0.975   2.229   3.017
 1815SOL     OW 5980   1.052   2.561   2.288
 1815SOL    HW1 5981   1.068   2.553   2.382
 1815SOL    HW2 5982   0.969   2.514   2.274
 1816SOL     OW 5983   0.082   2.690   2.652
 1816SOL    HW1 5984   0.158   2.660   2.703
 1816SOL    HW2 5985   0.098   2.783   2.638
 1817SOL     OW 5986   0.127   3.716   3.439
 1817SOL    HW1 5987   0.135   3.685   3.529
 1817SOL    HW2 5988   0.035   3.704   3.416
 1818SOL     OW 5989   0.895   2.212   2.055
 1818SOL    HW1 5990   0.936   2.274   1.995
 1818SOL    HW2 5991   0.914   2.126   2.016
 1819SOL     OW 5992   1.673   2.445   3.696
 1819SOL    HW1 5993   1.649   2.516   3.636
 1819SOL    HW2 5994   1.722   2.383   3.642
 1820SOL     OW 5995   1.378   3.004   2.403
 1820SOL    HW1 5996   1.457   2.991   2.350
 1820SOL    HW2 5997   1.325   3.066   2.352
 1821SOL     OW 5998   0.546   2.040   2.756
 1821SOL    HW1 5999   0.552   2.072   2.846
 1821SOL    HW2 6000   0.546   2.120   2.702
 1822SOL     OW 6001   1.004   3.307   2.333
 1822SOL    HW1 6002   0.967   3.380   2.284
 1822SOL    HW2 6003   0.985   3.326   2.425
 1823SOL     OW 6004   0.359   3.670   2.722
 1823SOL    HW1 6005   0.437   3.616   2.734
 1823SOL    HW2 6006   0.391   3.760   2.732
 1824SOL     OW 6007   1.800   2.917   2.731
 1824SOL    HW1 6008   1.746   2.898   2.653
 1824SOL    HW2 6009   1.737   2.923   2.802
 1825SOL     OW 6010   1.228   3.399   3.373
 1825SOL    HW1 6011   1.214   3.327   3.435
 1825SOL    HW2 6012   1.160   3.386   3.306
 1826SOL     OW 6013   0.311   2.816   2.104
 1826SOL    HW1 6014   0.394   2.839   2.064
 1826SOL    HW2 6015   0.298   2.724   2.081
 1827SOL     OW 6016   1.479   2.608   2.589
 1827SOL    HW1 6017   1.473   2.564   2.674
 1827SOL    HW2 6018   1.558   2.661   2.595
 1828SOL     OW 6019   0.467   3.122   3.599
 1828SOL    HW1 6020   0.441   3.130   3.507
 1828SOL    HW2 6021   0.385   3.126   3.647
 1829SOL     OW 6022   1.113   3.643   2.084
 1829SOL    HW1 6023   1.049   3.596   2.139
 1829SOL    HW2 6024   1.143   3.577   2.021
 1830SOL     OW 6025   0.204   2.137   3.370
 1830SOL    HW1 6026   0.114   2.169   3.362
 1830SOL    HW2 6027   0.195   2.051   3.411
 1831SOL     OW 6028   1.628   3.243   1.952
 1831SOL    HW1 6029   1.587   3.328   1.934
 1831SOL    HW2 6030   1.559   3.179   1.931
 1832SOL     OW 6031   0.468   3.601   2.183
 1832SOL    HW1 6032   0.507   3.663   2.244
 1832SOL    HW2 6033   0.541   3.573   2.128
 1833SOL     OW 6034   1.396   1.967   2.294
 1833SOL    HW1 6035   1.381   1.946   2.202
 1833SOL    HW2 6036   1.490   1.955   2.306
 1834SOL     OW 6037   0.252   3.656   3.090
 1834SOL    HW1 6038   0.297   3.591   3.143
 1834SOL    HW2 6039   0.250   3.618   3.002
 1835SOL     OW 6040   0.938   3.562   2.762
 1835SOL    HW1 6041   1.015   3.510   2.784
 1835SOL    HW2 6042   0.894   3.513   2.693
 1836SOL     OW 6043   0.398   2.555   2.333
 1836SOL    HW1 6044   0.423   2.464   2.348
 1836SOL    HW2 6045   0.306   2.559   2.360
 1837SOL     OW 6046   1.536   2.086   3.587
 1837SOL    HW1 6047   1.547   2.107   3.680
 1837SOL    HW2 6048   1.464   2.023   3.585
 1838SOL     OW 6049   0.639   1.981   1.960
 1838SOL    HW1 6050   0.703   1.912   1.979
 1838SOL    HW2 6051   0.591   1.949   1.884
 1839SOL     OW 6052   0.765   2.140   3.616
 1839SOL    HW1 6053   0.843   2.084   3.615
 1839SOL    HW2 6054   0.719   2.115   3.696
 1840SOL     OW 6055   0.876   3.383   3.056
 1840SOL    HW1 6056   0.860   3.346   2.969
 1840SOL    HW2 6057   0.946   3.328   3.092
 1841SOL     OW 6058   1.341   2.451   3.294
 1841SOL    HW1 6059   1.371   2.419   3.379
 1841SOL    HW2 6060   1.377   2.539   3.287
 1842SOL     OW 6061   0.816   3.255   2.803
 1842SOL    HW1 6062   0.901   3.243   2.760
 1842SOL    HW2 6063   0.753   3.256   2.731
 1843SOL     OW 6064   0.928   2.371   2.764
 1843SOL    HW1 6065   0.905   2.363   2.672
 1843SOL    HW2 6066   0.959   2.284   2.789
 1844SOL     OW 6067   0.555   1.924   2.358
 1844SOL    HW1 6068   0.473   1.929   2.407
 1844SOL    HW2 6069   0.559   2.007   2.310
 1845SOL     OW 6070   1.428   3.061   1.902
 1845SOL    HW1 6071   1.459   2.985   1.952
 1845SOL    HW2 6072   1.342   3.082   1.940
 1846SOL     OW 6073   0.308   1.913   2.032
 1846SOL    HW1 6074   0.372   1.951   1.972
 1846SOL    HW2 6075   0.357   1.848   2.081
 1847SOL     OW 6076   0.939   2.108   2.322
 1847SOL    HW1 6077   0.910   2.150   2.240
 1847SOL    HW2 6078   1.034   2.125   2.324
 1848SOL     OW 6079   1.080   2.543   3.321
 1848SOL    HW1 6080   1.013   2.476   3.326
 1848SOL    HW2 6081   1.163   2.495   3.315
 1849SOL     OW 6082   1.222   3.432   2.656
 1849SOL    HW1 6083   1.238   3.500   2.590
 1849SOL    HW2 6084   1.291   3.446   2.721
 1850SOL     OW 6085   0.466   3.012   2.598
 1850SOL    HW1 6086   0.395   2.989   2.657
 1850SOL    HW2 6087   0.432   2.997   2.510
 1851SOL     OW 6088   1.267   3.657   2.469
 1851SOL    HW1 6089   1.313   3.721   2.416
 1851SOL    HW2 6090   1.195   3.706   2.509
 1852SOL     OW 6091   1.023   2.402   1.886
 1852SOL    HW1 6092   0.981   2.485   1.867
 1852SOL    HW2 6093   1.090   2.423   1.951
 1853SOL     OW 6094   0.081   2.434   3.252
 1853SOL    HW1 6095   0.171   2.421   3.222
 1853SOL    HW2 6096   0.088   2.504   3.317
 1854SOL     OW 6097   0.567   2.089   3.027
 1854SOL    HW1 6098   0.608   2.013   3.069
 1854SOL    HW2 6099   0.475   2.086   3.056
 1855SOL     OW 6100   0.867   2.320   2.502
 1855SOL    HW1 6101   0.820   2.374   2.438
 1855SOL    HW2 6102   0.888   2.240   2.454
 1856SOL     OW 6103   1.016   1.915   2.613
 1856SOL    HW1 6104   0.958   1.910   2.537
 1856SOL    HW2 6105   0.993   1.840   2.667
 1857SOL     OW 6106   1.438   3.024   2.719
 1857SOL    HW1 6107   1.368   2.959   2.718
 1857SOL    HW2 6108   1.462   3.034   2.627
 1858SOL     OW 6109   1.465   2.468   2.836
 1858SOL    HW1 6110   1.412   2.388   2.839
 1858SOL    HW2 6111   1.524   2.461   2.911
 1859SOL     OW 6112   1.845   2.680   2.247
 1859SOL    HW1 6113   1.903   2.628   2.302
 1859SOL    HW2 6114   1.812   2.618   2.181
 1860SOL     OW 6115   0.488   3.280   2.021
 1860SOL    HW1 6116   0.413   3.250   2.072
 1860SOL    HW2 6117   0.469   3.254   1.931
 1861SOL     OW 6118   1.672   3.126   2.506
 1861SOL    HW1 6119   1.767   3.128   2.520
 1861SOL    HW2 6120   1.643   3.215   2.528
 1862SOL     OW 6121   1.391   2.437   1.930
 1862SOL    HW1 6122   1.338   2.413   2.006
 1862SOL    HW2 6123   1.481   2.418   1.956
 1863SOL     OW 6124   0.574   2.130   2.182
 1863SOL    HW1 6125   0.603   2.083   2.104
 1863SOL    HW2 6126   0.541   2.214   2.148
 1864SOL     OW 6127   1.752   3.103   3.432
 1864SOL    HW1 6128   1.839   3.063   3.430
 1864SOL    HW2 6129   1.767   3.193   3.460
 1865SOL     OW 6130   1.057   3.214   3.194
 1865SOL    HW1 6131   0.982   3.184   3.246
 1865SOL    HW2 6132   1.133   3.174   3.236
 1866SOL     OW 6133   1.609   3.488   3.518
 1866SOL    HW1 6134   1.602   3.522   3.428
 1866SOL    HW2 6135   1.692   3.440   3.518
 1867SOL     OW 6136   1.131   3.067   2.966
 1867SOL    HW1 6137   1.072   3.104   3.031
 1867SOL    HW2 6138   1.098   3.100   2.882
 1868SOL     OW 6139   1.627   2.960   2.938
 1868SOL    HW1 6140   1.622   3.022   3.011
 1868SOL    HW2 6141   1.548   2.977   2.886
 1869SOL     OW 6142   0.918   1.958   3.257
 1869SOL    HW1 6143   0.941   1.939   3.166
 1869SOL    HW2 6144   0.997   1.998   3.294
 1870SOL     OW 6145   0.984   2.977   3.584
 1870SOL    HW1 6146   0.892   2.993   3.607
 1870SOL    HW2 6147   0.982   2.899   3.529
 1871SOL     OW 6148   0.707   2.922   2.233
 1871SOL    HW1 6149   0.694   2.906   2.326
 1871SOL    HW2 6150   0.784   2.869   2.210
 1872SOL     OW 6151   0.421   2.678   3.114
 1872SOL    HW1 6152   0.490   2.686   3.181
 1872SOL    HW2 6153   0.387   2.589   3.126
 1873SOL     OW 6154   1.265   2.237   3.139
 1873SOL    HW1 6155   1.298   2.315   3.184
 1873SOL    HW2 6156   1.175   2.259   3.116
 1874SOL     OW 6157   0.065   3.441   3.208
 1874SOL    HW1 6158   0.070   3.501   3.132
 1874SOL    HW2 6159   0.156   3.429   3.234
 1875SOL     OW 6160   0.371   2.964   2.345
 1875SOL    HW1 6161   0.366   3.044   2.293
 1875SOL    HW2 6162   0.371   2.893   2.281
 1876SOL     OW 6163   0.550   2.399   2.723
 1876SOL    HW1 6164   0.565   2.455   2.648
 1876SOL    HW2 6165   0.617   2.425   2.787
 1877SOL     OW 6166   1.248   3.211   2.251
 1877SOL    HW1 6167   1.304   3.282   2.282
 1877SOL    HW2 6168   1.161   3.232   2.285
 1878SOL     OW 6169   1.283   3.321   3.009
 1878SOL    HW1 6170   1.339   3.324   3.087
 1878SOL    HW2 6171   1.227   3.244   3.023
 1879SOL     OW 6172   1.576   2.482   2.339
 1879SOL    HW1 6173   1.534   2.540   2.402
 1879SOL    HW2 6174   1.623   2.540   2.279
 1880SOL     OW 6175   0.345   3.389   3.180
 1880SOL    HW1 6176   0.335   3.339   3.099
 1880SOL    HW2 6177   0.439   3.404   3.188
 1881SOL     OW 6178   0.415   2.601   3.463
 1881SOL    HW1 6179   0.478   2.646   3.406
 1881SOL    HW2 6180   0.456   2.516   3.480
 1882SOL     OW 6181   1.601   2.648   3.537
 1882SOL    HW1 6182   1.515   2.691   3.532
 1882SOL    HW2 6183   1.654   2.691   3.471
 1883SOL     OW 6184   0.996   1.989   3.616
 1883SOL    HW1 6185   1.053   2.061   3.591
 1883SOL    HW2 6186   1.044   1.910   3.591
 1884SOL     OW 6187   0.497   1.898   3.608
 1884SOL    HW1 6188   0.453   1.845   3.541
 1884SOL    HW2 6189   0.442   1.976   3.617
 1885SOL     OW 6190   0.585   2.736   2.894
 1885SOL    HW1 6191   0.617   2.826   2.894
 1885SOL    HW2 6192   0.529   2.730   2.971
 1886SOL     OW 6193   1.355   2.720   2.889
 1886SOL    HW1 6194   1.271   2.710   2.845
 1886SOL    HW2 6195   1.398   2.635   2.882
 1887SOL     OW 6196   1.204   2.390   2.128
 1887SOL    HW1 6197   1.211   2.312   2.184
 1887SOL    HW2 6198   1.161   2.455   2.184
 1888SOL     OW 6199   0.311   2.059   3.109
 1888SOL    HW1 6200   0.264   2.096   3.184
 1888SOL    HW2 6201   0.287   1.966   3.110
 1889SOL     OW 6202   0.059   3.167   3.142
 1889SOL    HW1 6203   0.091   3.127   3.223
 1889SOL    HW2 6204   0.052   3.260   3.163
 1890SOL     OW 6205   0.724   2.493   2.919
 1890SOL    HW1 6206   0.799   2.477   2.862
 1890SOL    HW2 6207   0.696   2.582   2.898
 1891SOL     OW 6208   1.734   2.822   3.714
 1891SOL    HW1 6209   1.690   2.757   3.660
 1891SOL    HW2 6210   1.676   2.836   3.788
 1892SOL     OW 6211   0.313   1.924   2.482
 1892SOL    HW1 6212   0.293   2.016   2.503
 1892SOL    HW2 6213   0.319   1.881   2.567
 1893SOL     OW 6214   1.609   2.233   2.237
 1893SOL    HW1 6215   1.619   2.185   2.319
 1893SOL    HW2 6216   1.589   2.323   2.264
 1894SOL     OW 6217   1.028   2.621   2.822
 1894SOL    HW1 6218   1.023   2.638   2.916
 1894SOL    HW2 6219   1.002   2.529   2.813
 1895SOL     OW 6220   0.985   3.429   3.582
 1895SOL    HW1 6221   0.967   3.471   3.497
 1895SOL    HW2 6222   1.027   3.347   3.559
 1896SOL     OW 6223   1.854   3.366   3.466
 1896SOL    HW1 6224   1.873   3.394   3.377
 1896SOL    HW2 6225   1.934   3.384   3.515
 1897SOL     OW 6226   0.352   2.783   3.662
 1897SOL    HW1 6227   0.431   2.804   3.713
 1897SOL    HW2 6228   0.381   2.716   3.600
 1898SOL     OW 6229   1.530   2.131   1.990
 1898SOL    HW1 6230   1.462   2.069   2.018
 1898SOL    HW2 6231   1.562   2.170   2.071
 1899SOL     OW 6232   1.290   2.689   1.892
 1899SOL    HW1 6233   1.331   2.603   1.896
 1899SOL    HW2 6234   1.322   2.728   1.811
 1900SOL     OW 6235   1.066   3.198   2.716
 1900SOL    HW1 6236   1.070   3.126   2.654
 1900SOL    HW2 6237   1.127   3.264   2.681
 1901SOL     OW 6238   0.314   2.665   2.812
 1901SOL    HW1 6239   0.407   2.683   2.806
 1901SOL    HW2 6240   0.308   2.575   2.844
 1902SOL     OW 6241   0.330   2.382   2.876
 1902SOL    HW1 6242   0.296   2.294   2.859
 1902SOL    HW2 6243   0.406   2.390   2.819
 1903SOL     OW 6244   1.134   2.236   3.546
 1903SOL    HW1 6245   1.087   2.292   3.608
 1903SOL    HW2 6246   1.222   2.274   3.542
 1904SOL     OW 6247   1.161   2.064   3.333
 1904SOL    HW1 6248   1.150   2.126   3.404
 1904SOL    HW2 6249   1.201   2.114   3.262
 1905SOL     OW 6250   4.000   3.181   2.044
 1905SOL    HW1 6251   3.905   3.196   2.048
 1905SOL    HW2 6252   0.009   3.087   2.062
 1906SOL     OW 6253   0.075   3.663   2.756
 1906SOL    HW1 6254   0.089   3.568   2.756
 1906SOL    HW2 6255   0.164   3.699   2.755
 1907SOL     OW 6256   0.507   3.426   2.778
 1907SOL    HW1 6257   0.573   3.492   2.798
 1907SOL    HW2 6258   0.550   3.367   2.716
 1908SOL     OW 6259   0.980   2.653   3.088
 1908SOL    HW1 6260   1.038   2.631   3.161
 1908SOL    HW2 6261   0.895   2.615   3.112
 1909SOL     OW 6262   0.038   2.419   2.971
 1909SOL    HW1 6263   0.120   2.395   2.929
 1909SOL    HW2 6264   0.057   2.416   3.065
 1910SOL     OW 6265   0.206   2.375   3.589
 1910SOL    HW1 6266   0.247   2.329   3.516
 1910SOL    HW2 6267   0.159   2.447   3.549
 1911SOL     OW 6268   1.374   2.802   3.519
 1911SOL    HW1 6269   1.397   2.895   3.516
 1911SOL    HW2 6270   1.371   2.775   3.427
 1912SOL     OW 6271   0.818   2.431   2.223
 1912SOL    HW1 6272   0.822   2.355   2.164
 1912SOL    HW2 6273   0.744   2.482   2.191
 1913SOL     OW 6274   1.642   2.465   3.045
 1913SOL    HW1 6275   1.632   2.410   3.123
 1913SOL    HW2 6276   1.729   2.441   3.011
 1914SOL     OW 6277   0.299   3.408   3.589
 1914SOL    HW1 6278   0.250   3.477   3.633
 1914SOL    HW2 6279   0.267   3.327   3.629
 1915SOL     OW 6280   0.705   2.312   3.120
 1915SOL    HW1 6281   0.652   2.238   3.090
 1915SOL    HW2 6282   0.700   2.375   3.048
 1916SOL     OW 6283   0.928   3.534   3.331
 1916SOL    HW1 6284   0.901   3.497   3.246
 1916SOL    HW2 6285   0.920   3.629   3.319
 1917SOL     OW 6286   0.456   2.352   2.056
 1917SOL    HW1 6287   0.521   2.419   2.074
 1917SOL    HW2 6288   0.377   2.400   2.035
 1918SOL     OW 6289   0.156   2.997   3.337
 1918SOL    HW1 6290   0.157   2.946   3.418
 1918SOL    HW2 6291   0.171   2.933   3.268
 1919SOL     OW 6292   1.325   2.908   3.084
 1919SOL    HW1 6293   1.347   2.844   3.016
 1919SOL    HW2 6294   1.256   2.961   3.045
 1920SOL     OW 6295   1.312   2.719   2.168
 1920SOL    HW1 6296   1.237   2.687   2.218
 1920SOL    HW2 6297   1.287   2.705   2.076
 1921SOL     OW 6298   1.771   3.604   3.012
 1921SOL    HW1 6299   1.833   3.631   2.945
 1921SOL    HW2 6300   1.749   3.513   2.989
 1922SOL     OW 6301   1.243   3.595   2.972
 1922SOL    HW1 6302   1.326   3.616   2.928
 1922SOL    HW2 6303   1.250   3.502   2.992
 1923SOL     OW 6304   0.076   3.077   2.890
 1923SOL    HW1 6305   0.083   3.104   2.981
 1923SOL    HW2 6306   3.983   3.087   2.869
 1924SOL     OW 6307   0.679   3.526   3.594
 1924SOL    HW1 6308   0.622   3.603   3.597
 1924SOL    HW2 6309   0.739   3.545   3.521
 1925SOL     OW 6310   1.390   3.431   2.348
 1925SOL    HW1 6311   1.450   3.464   2.281
 1925SOL    HW2 6312   1.342   3.508   2.378
 1926SOL     OW 6313   0.169   3.624   3.693
 1926SOL    HW1 6314   0.114   3.572   3.751
 1926SOL    HW2 6315   0.216   3.683   3.752
 1927SOL     OW 6316   1.277   2.788   2.533
 1927SOL    HW1 6317   1.351   2.728   2.542
 1927SOL    HW2 6318   1.311   2.860   2.480
 1928SOL     OW 6319   0.812   3.136   3.291
 1928SOL    HW1 6320   0.783   3.176   3.373
 1928SOL    HW2 6321   0.741   3.155   3.229
 1929SOL     OW 6322   0.675   3.478   2.020
 1929SOL    HW1 6323   0.683   3.495   1.926
 1929SOL    HW2 6324   0.616   3.402   2.026
 1930SOL     OW 6325   1.623   3.588   3.252
 1930SOL    HW1 6326   1.674   3.594   3.171
 1930SOL    HW2 6327   1.610   3.679   3.278
 1931SOL     OW 6328   0.267   2.175   2.579
 1931SOL    HW1 6329   0.181   2.209   2.553
 1931SOL    HW2 6330   0.261   2.166   2.674
 1932SOL     OW 6331   1.207   3.467   1.897
 1932SOL    HW1 6332   1.197   3.375   1.921
 1932SOL    HW2 6333   1.146   3.480   1.825
 1933SOL     OW 6334   0.823   2.868   3.235
 1933SOL    HW1 6335   0.868   2.863   3.151
 1933SOL    HW2 6336   0.822   2.961   3.256
 1934SOL     OW 6337   0.915   2.772   2.152
 1934SOL    HW1 6338   0.976   2.804   2.086
 1934SOL    HW2 6339   0.964   2.703   2.198
 1935SOL     OW 6340   1.490   3.490   1.904
 1935SOL    HW1 6341   1.396   3.480   1.888
 1935SOL    HW2 6342   1.528   3.496   1.817
 1936SOL     OW 6343   0.374   3.165   3.353
 1936SOL    HW1 6344   0.359   3.245   3.303
 1936SOL    HW2 6345   0.297   3.111   3.336
 1937SOL     OW 6346   1.610   3.145   3.142
 1937SOL    HW1 6347   1.670   3.133   3.216
 1937SOL    HW2 6348   1.550   3.213   3.172
 1938SOL     OW 6349   1.055   2.970   2.569
 1938SOL    HW1 6350   0.983   2.919   2.608
 1938SOL    HW2 6351   1.118   2.904   2.540
 1939SOL     OW 6352   1.022   2.103   2.829
 1939SOL    HW1 6353   1.019   2.055   2.746
 1939SOL    HW2 6354   1.017   2.034   2.895
 1940SOL     OW 6355   0.605   3.352   2.342
 1940SOL    HW1 6356   0.650   3.302   2.275
 1940SOL    HW2 6357   0.534   3.396   2.297
 1941SOL     OW 6358   1.723   2.255   3.239
 1941SOL    HW1 6359   1.797   2.316   3.246
 1941SOL    HW2 6360   1.751   2.189   3.176
 1942SOL     OW 6361   0.253   3.203   2.153
 1942SOL    HW1 6362   0.160   3.212   2.134
 1942SOL    HW2 6363   0.263   3.241   2.241
 1943SOL     OW 6364   0.107   2.860   3.579
 1943SOL    HW1 6365   0.046   2.853   3.653
 1943SOL    HW2 6366   0.193   2.842   3.617
 1944SOL     OW 6367   0.675   2.058   3.362
 1944SOL    HW1 6368   0.759   2.037   3.321
 1944SOL    HW2 6369   0.698   2.090   3.449
 1945SOL     OW 6370   0.081   2.177   1.899
 1945SOL    HW1 6371   3.985   2.177   1.906
 1945SOL    HW2 6372   0.101   2.258   1.852
 1946SOL     OW 6373   1.428   2.721   3.261
 1946SOL    HW1 6374   1.380   2.782   3.205
 1946SOL    HW2 6375   1.518   2.723   3.227
 1947SOL     OW 6376   0.019   2.094   2.237
 1947SOL    HW1 6377   0.045   2.159   2.171
 1947SOL    HW2 6378   0.102   2.056   2.266
 1948SOL     OW 6379   1.178   3.200   1.979
 1948SOL    HW1 6380   1.087   3.171   1.981
 1948SOL    HW2 6381   1.205   3.199   2.071
 1949SOL     OW 6382   0.619   2.692   3.298
 1949SOL    HW1 6383   0.675   2.768   3.282
 1949SOL    HW2 6384   0.680   2.619   3.306
 1950SOL     OW 6385   1.486   3.640   2.843
 1950SOL    HW1 6386   1.509   3.698   2.770
 1950SOL    HW2 6387   1.569   3.619   2.884
 1951SOL     OW 6388   0.716   2.425   3.566
 1951SOL    HW1 6389   0.760   2.487   3.625
 1951SOL    HW2 6390   0.743   2.339   3.599
 1952SOL     OW 6391   1.473   3.061   3.493
 1952SOL    HW1 6392   1.460   3.074   3.587
 1952SOL    HW2 6393   1.566   3.077   3.478
 1953SOL     OW 6394   0.378   3.607   3.421
 1953SOL    HW1 6395   0.291   3.642   3.408
 1953SOL    HW2 6396   0.364   3.524   3.467
 1954SOL     OW 6397   1.668   2.743   3.116
 1954SOL    HW1 6398   1.661   2.658   3.073
 1954SOL    HW2 6399   1.658   2.807   3.045
 1955SOL     OW 6400   1.215   2.182   2.320
 1955SOL    HW1 6401   1.278   2.110   2.312
 1955SOL    HW2 6402   1.244   2.231   2.397
 1956SOL     OW 6403   0.589   2.600   2.534
 1956SOL    HW1 6404   0.628   2.686   2.518
 1956SOL    HW2 6405   0.523   2.591   2.465
 1957SOL     OW 6406   1.755   2.239   3.518
 1957SOL    HW1 6407   1.746   2.246   3.423
 1957SOL    HW2 6408   1.685   2.180   3.544
 1958SOL     OW 6409   1.748   2.800   3.371
 1958SOL    HW1 6410   1.741   2.894   3.383
 1958SOL    HW2 6411   1.731   2.787   3.277
 1959SOL     OW 6412   0.864   3.229   1.899
 1959SOL    HW1 6413   0.823   3.257   1.981
 1959SOL    HW2 6414   0.879   3.310   1.851
 1960SOL     OW 6415   0.659   3.651   2.799
 1960SOL    HW1 6416   0.637   3.742   2.779
 1960SOL    HW2 6417   0.754   3.648   2.796
 1961SOL     OW 6418   0.868   2.829   2.716
 1961SOL    HW1 6419   0.918   2.758   2.755
 1961SOL    HW2 6420   0.833   2.877   2.791
 1962SOL     OW 6421   1.077   2.850   1.950
 1962SOL    HW1 6422   1.057   2.901   1.872
 1962SOL    HW2 6423   1.153   2.797   1.925
 1963SOL     OW 6424   1.852   3.413   2.704
 1963SOL    HW1 6425   1.772   3.402   2.653
 1963SOL    HW2 6426   1.843   3.350   2.775
 1964SOL     OW 6427   0.226   3.166   3.718
 1964SOL    HW1 6428   0.153   3.110   3.692
 1964SOL    HW2 6429   0.213   3.179   3.812
 1965SOL     OW 6430   0.114   3.138   2.582
 1965SOL    HW1 6431   0.131   3.089   2.662
 1965SOL    HW2 6432   0.106   3.072   2.514
 1966SOL     OW 6433   0.682   3.266   3.492
 1966SOL    HW1 6434   0.601   3.224   3.522
 1966SOL    HW2 6435   0.678   3.354   3.528
 1967SOL     OW 6436   0.441   2.296   2.395
 1967SOL    HW1 6437   0.442   2.226   2.330
 1967SOL    HW2 6438   0.386   2.262   2.466
 1968SOL     OW 6439   1.700   3.349   2.955
 1968SOL    HW1 6440   1.619   3.327   2.910
 1968SOL    HW2 6441   1.710   3.281   3.022
 1969SOL     OW 6442   0.334   2.418   3.154
 1969SOL    HW1 6443   0.388   2.362   3.208
 1969SOL    HW2 6444   0.349   2.388   3.064
 1970SOL     OW 6445   0.828   3.441   2.539
 1970SOL    HW1 6446   0.813   3.493   2.460
 1970SOL    HW2 6447   0.753   3.381   2.542
 1971SOL     OW 6448   1.438   2.091   2.981
 1971SOL    HW1 6449   1.448   2.004   3.019
 1971SOL    HW2 6450   1.383   2.138   3.044
 1972SOL     OW 6451   1.009   1.879   3.002
 1972SOL    HW1 6452   0.955   1.812   2.961
 1972SOL    HW2 6453   1.097   1.842   3.004
 1973SOL     OW 6454   0.772   3.194   2.180
 1973SOL    HW1 6455   0.742   3.103   2.185
 1973SOL    HW2 6456   0.855   3.195   2.228
 1974SOL     OW 6457   0.620   3.416   3.147
 1974SOL    HW1 6458   0.622   3.498   3.197
 1974SOL    HW2 6459   0.708   3.410   3.109
 1975SOL     OW 6460   1.350   1.914   2.028
 1975SOL    HW1 6461   1.380   1.852   1.962
 1975SOL    HW2 6462   1.263   1.883   2.053
 1976SOL     OW 6463   1.297   2.323   2.542
 1976SOL    HW1 6464   1.244   2.403   2.548
 1976SOL    HW2 6465   1.292   2.285   2.630
 1977SOL     OW 6466   1.572   2.054   2.732
 1977SOL    HW1 6467   1.535   2.080   2.817
 1977SOL    HW2 6468   1.587   2.136   2.686
 1978SOL     OW 6469   0.047   2.912   2.101
 1978SOL    HW1 6470   0.141   2.896   2.093
 1978SOL    HW2 6471   0.011   2.829   2.134
 1979SOL     OW 6472   0.885   3.519   2.206
 1979SOL    HW1 6473   0.814   3.500   2.144
 1979SOL    HW2 6474   0.854   3.595   2.255
 1980SOL     OW 6475   0.231   2.485   3.844
 1980SOL    HW1 6476   0.138   2.494   3.864
 1980SOL    HW2 6477   0.233   2.455   3.753
 1981SOL     OW 6478   0.229   2.134   4.711
 1981SOL    HW1 6479   0.249   2.100   4.798
 1981SOL    HW2 6480   0.134   2.126   4.704
 1982SOL     OW 6481   0.010   2.222   4.354
 1982SOL    HW1 6482   3.922   2.240   4.388
 1982SOL    HW2 6483   3.996   2.189   4.265
 1983SOL     OW 6484   0.579   3.149   4.912
 1983SOL    HW1 6485   0.492   3.153   4.871
 1983SOL    HW2 6486   0.593   3.238   4.945
 1984SOL     OW 6487   1.563   3.373   4.432
 1984SOL    HW1 6488   1.520   3.352   4.515
 1984SOL    HW2 6489   1.491   3.376   4.369
 1985SOL     OW 6490   1.131   2.560   4.423
 1985SOL    HW1 6491   1.180   2.641   4.409
 1985SOL    HW2 6492   1.084   2.574   4.506
 1986SOL     OW 6493   1.751   2.476   3.957
 1986SOL    HW1 6494   1.736   2.472   3.862
 1986SOL    HW2 6495   1.752   2.385   3.985
 1987SOL     OW 6496   0.754   3.002   4.765
 1987SOL    HW1 6497   0.689   3.037   4.826
 1987SOL    HW2 6498   0.790   3.079   4.721
 1988SOL     OW 6499   0.869   2.633   5.546
 1988SOL    HW1 6500   0.859   2.704   5.609
 1988SOL    HW2 6501   0.892   2.676   5.464
 1989SOL     OW 6502   0.685   2.864   4.370
 1989SOL    HW1 6503   0.751   2.853   4.439
 1989SOL    HW2 6504   0.616   2.916   4.412
 1990SOL     OW 6505   0.711   3.012   5.539
 1990SOL    HW1 6506   0.759   3.090   5.567
 1990SOL    HW2 6507   0.630   3.045   5.502
 1991SOL     OW 6508   0.351   3.264   4.802
 1991SOL    HW1 6509   0.268   3.249   4.755
 1991SOL    HW2 6510   0.400   3.322   4.745
 1992SOL     OW 6511   1.460   3.362   5.080
 1992SOL    HW1 6512   1.513   3.441   5.090
 1992SOL    HW2 6513   1.395   3.368   5.150
 1993SOL     OW 6514   0.450   2.261   5.213
 1993SOL    HW1 6515   0.525   2.202   5.215
 1993SOL    HW2 6516   0.374   2.205   5.225
 1994SOL     OW 6517   1.608   2.304   4.459
 1994SOL    HW1 6518   1.528   2.328   4.411
 1994SOL    HW2 6519   1.626   2.380   4.514
 1995SOL     OW 6520   0.224   3.571   4.190
 1995SOL    HW1 6521   0.225   3.653   4.239
 1995SOL    HW2 6522   0.301   3.575   4.133
 1996SOL     OW 6523   1.137   3.203   5.417
 1996SOL    HW1 6524   1.178   3.197   5.503
 1996SOL    HW2 6525   1.085   3.124   5.410
 1997SOL     OW 6526   0.249   3.306   4.264
 1997SOL    HW1 6527   0.221   3.396   4.250
 1997SOL    HW2 6528   0.180   3.267   4.317
 1998SOL     OW 6529   0.247   2.929   4.608
 1998SOL    HW1 6530   0.266   2.845   4.648
 1998SOL    HW2 6531   0.194   2.976   4.673
 1999SOL     OW 6532   0.611   3.648   5.152
 1999SOL    HW1 6533   0.529   3.634   5.198
 1999SOL    HW2 6534   0.637   3.737   5.176
 2000SOL     OW 6535   0.578   2.847   3.861
 2000SOL    HW1 6536   0.626   2.892   3.792
 2000SOL    HW2 6537   0.620   2.877   3.942
 2001SOL     OW 6538   1.596   1.991   5.188
 2001SOL    HW1 6539   1.587   2.077   5.145
 2001SOL    HW2 6540   1.586   2.010   5.282
 2002SOL     OW 6541   0.142   2.514   4.298
 2002SOL    HW1 6542   0.087   2.435   4.297
 2002SOL    HW2 6543   0.106   2.568   4.368
 2003SOL     OW 6544   1.842   3.610   4.062
 2003SOL    HW1 6545   1.910   3.586   4.125
 2003SOL    HW2 6546   1.863   3.701   4.038
 2004SOL     OW 6547   0.041   3.453   3.864
 2004SOL    HW1 6548   0.034   3.361   3.888
 2004SOL    HW2 6549   3.960   3.493   3.895
 2005SOL     OW 6550   1.689   2.781   4.366
 2005SOL    HW1 6551   1.771   2.736   4.342
 2005SOL    HW2 6552   1.666   2.831   4.288
 2006SOL     OW 6553   1.647   2.968   4.153
 2006SOL    HW1 6554   1.733   2.971   4.112
 2006SOL    HW2 6555   1.652   3.030   4.226
 2007SOL     OW 6556   0.138   2.615   5.314
 2007SOL    HW1 6557   0.233   2.609   5.312
 2007SOL    HW2 6558   0.120   2.704   5.342
 2008SOL     OW 6559   0.615   3.248   4.458
 2008SOL    HW1 6560   0.568   3.165   4.468
 2008SOL    HW2 6561   0.598   3.275   4.368
 2009SOL     OW 6562   1.288   3.099   5.147
 2009SOL    HW1 6563   1.320   3.032   5.087
 2009SOL    HW2 6564   1.346   3.094   5.222
 2010SOL     OW 6565   0.819   1.862   4.235
 2010SOL    HW1 6566   0.859   1.946   4.214
 2010SOL    HW2 6567   0.725   1.881   4.241
 2011SOL     OW 6568   0.184   2.813   5.003
 2011SOL    HW1 6569   0.272   2.778   4.989
 2011SOL    HW2 6570   0.132   2.774   4.933
 2012SOL     OW 6571   1.531   2.858   3.923
 2012SOL    HW1 6572   1.462   2.800   3.955
 2012SOL    HW2 6573   1.573   2.891   4.002
 2013SOL     OW 6574   1.215   3.665   5.351
 2013SOL    HW1 6575   1.194   3.726   5.280
 2013SOL    HW2 6576   1.217   3.579   5.309
 2014SOL     OW 6577   0.341   2.109   5.541
 2014SOL    HW1 6578   0.377   2.198   5.545
 2014SOL    HW2 6579   0.249   2.120   5.565
 2015SOL     OW 6580   1.466   3.282   4.674
 2015SOL    HW1 6581   1.399   3.297   4.740
 2015SOL    HW2 6582   1.453   3.190   4.648
 2016SOL     OW 6583   1.654   3.601   4.305
 2016SOL    HW1 6584   1.640   3.570   4.215
 2016SOL    HW2 6585   1.631   3.527   4.360
 2017SOL     OW 6586   0.596   2.579   3.989
 2017SOL    HW1 6587   0.602   2.663   3.943
 2017SOL    HW2 6588   0.533   2.595   4.059
 2018SOL     OW 6589   1.279   2.221   4.659
 2018SOL    HW1 6590   1.191   2.185   4.668
 2018SOL    HW2 6591   1.334   2.164   4.713
 2019SOL     OW 6592   1.577   3.537   4.032
 2019SOL    HW1 6593   1.670   3.561   4.027
 2019SOL    HW2 6594   1.552   3.517   3.942
 2020SOL     OW 6595   0.791   2.480   5.175
 2020SOL    HW1 6596   0.764   2.455   5.263
 2020SOL    HW2 6597   0.753   2.413   5.119
 2021SOL     OW 6598   1.392   2.334   5.401
 2021SOL    HW1 6599   1.396   2.381   5.484
 2021SOL    HW2 6600   1.456   2.263   5.410
 2022SOL     OW 6601   0.953   2.748   5.307
 2022SOL    HW1 6602   1.008   2.679   5.271
 2022SOL    HW2 6603   0.905   2.783   5.232
 2023SOL     OW 6604   0.992   2.274   4.962
 2023SOL    HW1 6605   0.905   2.294   4.996
 2023SOL    HW2 6606   0.976   2.229   4.879
 2024SOL     OW 6607   1.052   2.561   4.150
 2024SOL    HW1 6608   1.068   2.553   4.244
 2024SOL    HW2 6609   0.969   2.514   4.136
 2025SOL     OW 6610   0.082   2.690   4.514
 2025SOL    HW1 6611   0.158   2.660   4.565
 2025SOL    HW2 6612   0.098   2.783   4.500
 2026SOL     OW 6613   0.127   3.716   5.301
 2026SOL    HW1 6614   0.134   3.685   5.391
 2026SOL    HW2 6615   0.035   3.704   5.278
 2027SOL     OW 6616   0.895   2.212   3.917
 2027SOL    HW1 6617   0.936   2.274   3.857
 2027SOL    HW2 6618   0.914   2.126   3.878
 2028SOL     OW 6619   1.669   2.444   5.559
 2028SOL    HW1 6620   1.648   2.515   5.499
 2028SOL    HW2 6621   1.722   2.383   5.507
 2029SOL     OW 6622   1.378   3.004   4.265
 2029SOL    HW1 6623   1.457   2.991   4.212
 2029SOL    HW2 6624   1.325   3.066   4.214
 2030SOL     OW 6625   0.546   2.040   4.618
 2030SOL    HW1 6626   0.552   2.073   4.708
 2030SOL    HW2 6627   0.546   2.120   4.564
 2031SOL     OW 6628   1.004   3.307   4.195
 2031SOL    HW1 6629   0.967   3.380   4.146
 2031SOL    HW2 6630   0.985   3.326   4.287
 2032SOL     OW 6631   0.359   3.670   4.584
 2032SOL    HW1 6632   0.437   3.616   4.596
 2032SOL    HW2 6633   0.391   3.760   4.594
 2033SOL     OW 6634   1.800   2.917   4.593
 2033SOL    HW1 6635   1.746   2.898   4.516
 2033SOL    HW2 6636   1.737   2.923   4.664
 2034SOL     OW 6637   1.228   3.399   5.235
 2034SOL    HW1 6638   1.214   3.327   5.297
 2034SOL    HW2 6639   1.161   3.386   5.168
 2035SOL     OW 6640   0.311   2.816   3.966
 2035SOL    HW1 6641   0.394   2.839   3.926
 2035SOL    HW2 6642   0.298   2.724   3.943
 2036SOL     OW 6643   1.479   2.608   4.451
 2036SOL    HW1 6644   1.473   2.564   4.536
 2036SOL    HW2 6645   1.558   2.661   4.457
 2037SOL     OW 6646   0.467   3.121   5.461
 2037SOL    HW1 6647   0.441   3.130   5.369
 2037SOL    HW2 6648   0.385   3.126   5.509
 2038SOL     OW 6649   1.113   3.643   3.946
 2038SOL    HW1 6650   1.049   3.596   4.001
 2038SOL    HW2 6651   1.143   3.577   3.883
 2039SOL     OW 6652   0.204   2.137   5.233
 2039SOL    HW1 6653   0.114   2.170   5.224
 2039SOL    HW2 6654   0.194   2.050   5.272
 2040SOL     OW 6655   1.628   3.243   3.814
 2040SOL    HW1 6656   1.587   3.328   3.796
 2040SOL    HW2 6657   1.559   3.179   3.793
 2041SOL     OW 6658   0.468   3.601   4.045
 2041SOL    HW1 6659   0.507   3.663   4.106
 2041SOL    HW2 6660   0.541   3.573   3.990
 2042SOL     OW 6661   1.396   1.968   4.156
 2042SOL    HW1 6662   1.381   1.946   4.064
 2042SOL    HW2 6663   1.490   1.954   4.168
 2043SOL     OW 6664   0.252   3.656   4.951
 2043SOL    HW1 6665   0.297   3.591   5.005
 2043SOL    HW2 6666   0.250   3.618   4.864
 2044SOL     OW 6667   0.938   3.562   4.624
 2044SOL    HW1 6668   1.015   3.510   4.645
 2044SOL    HW2 6669   0.894   3.513   4.555
 2045SOL     OW 6670   0.398   2.555   4.195
 2045SOL    HW1 6671   0.424   2.464   4.210
 2045SOL    HW2 6672   0.306   2.559   4.222
 2046SOL     OW 6673   1.534   2.086   5.448
 2046SOL    HW1 6674   1.545   2.107   5.540
 2046SOL    HW2 6675   1.464   2.021   5.446
 2047SOL     OW 6676   0.639   1.981   3.822
 2047SOL    HW1 6677   0.703   1.912   3.841
 2047SOL    HW2 6678   0.591   1.949   3.746
 2048SOL     OW 6679   0.766   2.141   5.479
 2048SOL    HW1 6680   0.844   2.085   5.477
 2048SOL    HW2 6681   0.717   2.111   5.556
 2049SOL     OW 6682   0.876   3.382   4.918
 2049SOL    HW1 6683   0.860   3.346   4.831
 2049SOL    HW2 6684   0.946   3.328   4.954
 2050SOL     OW 6685   1.340   2.451   5.156
 2050SOL    HW1 6686   1.371   2.419   5.241
 2050SOL    HW2 6687   1.377   2.539   5.149
 2051SOL     OW 6688   0.816   3.255   4.665
 2051SOL    HW1 6689   0.901   3.243   4.622
 2051SOL    HW2 6690   0.753   3.256   4.593
 2052SOL     OW 6691   0.928   2.371   4.626
 2052SOL    HW1 6692   0.905   2.363   4.534
 2052SOL    HW2 6693   0.959   2.284   4.651
 2053SOL     OW 6694   0.555   1.924   4.220
 2053SOL    HW1 6695   0.473   1.929   4.269
 2053SOL    HW2 6696   0.559   2.007   4.172
 2054SOL     OW 6697   1.428   3.061   3.764
 2054SOL    HW1 6698   1.459   2.985   3.814
 2054SOL    HW2 6699   1.342   3.082   3.802
 2055SOL     OW 6700   0.308   1.913   3.894
 2055SOL    HW1 6701   0.372   1.951   3.834
 2055SOL    HW2 6702   0.357   1.848   3.943
 2056SOL     OW 6703   0.939   2.109   4.184
 2056SOL    HW1 6704   0.910   2.149   4.102
 2056SOL    HW2 6705   1.034   2.125   4.186
 2057SOL     OW 6706   1.080   2.543   5.183
 2057SOL    HW1 6707   1.013   2.475   5.187
 2057SOL    HW2 6708   1.163   2.495   5.176
 2058SOL     OW 6709   1.222   3.432   4.518
 2058SOL    HW1 6710   1.238   3.500   4.452
 2058SOL    HW2 6711   1.291   3.446   4.583
 2059SOL     OW 6712   0.467   3.012   4.460
 2059SOL    HW1 6713   0.395   2.989   4.519
 2059SOL    HW2 6714   0.432   2.997   4.372
 2060SOL     OW 6715   1.267   3.657   4.331
 2060SOL    HW1 6716   1.313   3.721   4.278
 2060SOL    HW2 6717   1.195   3.706   4.371
 2061SOL     OW 6718   1.023   2.402   3.748
 2061SOL    HW1 6719   0.981   2.485   3.729
 2061SOL    HW2 6720   1.090   2.423   3.813
 2062SOL     OW 6721   0.082   2.434   5.114
 2062SOL    HW1 6722   0.171   2.421   5.084
 2062SOL    HW2 6723   0.088   2.503   5.179
 2063SOL     OW 6724   0.567   2.089   4.889
 2063SOL    HW1 6725   0.608   2.013   4.930
 2063SOL    HW2 6726   0.476   2.086   4.918
 2064SOL     OW 6727   0.867   2.320   4.364
 2064SOL    HW1 6728   0.820   2.374   4.300
 2064SOL    HW2 6729   0.888   2.240   4.316
 2065SOL     OW 6730   1.016   1.916   4.475
 2065SOL    HW1 6731   0.958   1.910   4.399
 2065SOL    HW2 6732   0.993   1.840   4.529
 2066SOL     OW 6733   1.438   3.024   4.581
 2066SOL    HW1 6734   1.368   2.959   4.580
 2066SOL    HW2 6735   1.462   3.034   4.489
 2067SOL     OW 6736   1.465   2.468   4.698
 2067SOL    HW1 6737   1.412   2.388   4.701
 2067SOL    HW2 6738   1.524   2.461   4.773
 2068SOL     OW 6739   1.844   2.680   4.108
 2068SOL    HW1 6740   1.903   2.628   4.164
 2068SOL    HW2 6741   1.812   2.618   4.043
 2069SOL     OW 6742   0.488   3.280   3.883
 2069SOL    HW1 6743   0.413   3.250   3.934
 2069SOL    HW2 6744   0.470   3.253   3.793
 2070SOL     OW 6745   1.672   3.126   4.369
 2070SOL    HW1 6746   1.767   3.128   4.382
 2070SOL    HW2 6747   1.643   3.215   4.390
 2071SOL     OW 6748   1.391   2.437   3.792
 2071SOL    HW1 6749   1.339   2.413   3.868
 2071SOL    HW2 6750   1.481   2.418   3.817
 2072SOL     OW 6751   0.574   2.130   4.044
 2072SOL    HW1 6752   0.603   2.083   3.966
 2072SOL    HW2 6753   0.541   2.214   4.010
 2073SOL     OW 6754   1.752   3.103   5.294
 2073SOL    HW1 6755   1.839   3.063   5.292
 2073SOL    HW2 6756   1.767   3.193   5.322
 2074SOL     OW 6757   1.057   3.214   5.056
 2074SOL    HW1 6758   0.982   3.184   5.108
 2074SOL    HW2 6759   1.133   3.174   5.098
 2075SOL     OW 6760   1.609   3.488   5.380
 2075SOL    HW1 6761   1.602   3.522   5.290
 2075SOL    HW2 6762   1.692   3.440   5.380
 2076SOL     OW 6763   1.131   3.067   4.828
 2076SOL    HW1 6764   1.072   3.105   4.893
 2076SOL    HW2 6765   1.098   3.100   4.744
 2077SOL     OW 6766   1.627   2.960   4.800
 2077SOL    HW1 6767   1.622   3.022   4.873
 2077SOL    HW2 6768   1.548   2.977   4.748
 2078SOL     OW 6769   0.918   1.958   5.119
 2078SOL    HW1 6770   0.941   1.939   5.028
 2078SOL    HW2 6771   0.997   1.998   5.156
 2079SOL     OW 6772   0.984   2.977   5.447
 2079SOL    HW1 6773   0.892   2.993   5.469
 2079SOL    HW2 6774   0.982   2.899   5.392
 2080SOL     OW 6775   0.708   2.922   4.095
 2080SOL    HW1 6776   0.694   2.906   4.188
 2080SOL    HW2 6777   0.784   2.869   4.072
 2081SOL     OW 6778   0.421   2.678   4.976
 2081SOL    HW1 6779   0.490   2.686   5.043
 2081SOL    HW2 6780   0.387   2.589   4.988
 2082SOL     OW 6781   1.265   2.237   5.002
 2082SOL    HW1 6782   1.298   2.315   5.046
 2082SOL    HW2 6783   1.175   2.259   4.978
 2083SOL     OW 6784   0.065   3.442   5.070
 2083SOL    HW1 6785   0.070   3.500   4.994
 2083SOL    HW2 6786   0.156   3.429   5.096
 2084SOL     OW 6787   0.371   2.964   4.207
 2084SOL    HW1 6788   0.366   3.044   4.155
 2084SOL    HW2 6789   0.371   2.893   4.143
 2085SOL     OW 6790   0.550   2.399   4.586
 2085SOL    HW1 6791   0.565   2.455   4.510
 2085SOL    HW2 6792   0.617   2.425   4.649
 2086SOL     OW 6793   1.248   3.211   4.113
 2086SOL    HW1 6794   1.304   3.282   4.144
 2086SOL    HW2 6795   1.161   3.232   4.147
 2087SOL     OW 6796   1.283   3.321   4.871
 2087SOL    HW1 6797   1.339   3.324   4.949
 2087SOL    HW2 6798   1.228   3.244   4.885
 2088SOL     OW 6799   1.576   2.482   4.201
 2088SOL    HW1 6800   1.534   2.540   4.263
 2088SOL    HW2 6801   1.623   2.541   4.141
 2089SOL     OW 6802   0.345   3.389   5.042
 2089SOL    HW1 6803   0.335   3.339   4.961
 2089SOL    HW2 6804   0.439   3.404   5.050
 2090SOL     OW 6805   0.415   2.601   5.325
 2090SOL    HW1 6806   0.478   2.647   5.269
 2090SOL    HW2 6807   0.455   2.516   5.342
 2091SOL     OW 6808   1.601   2.648   5.399
 2091SOL    HW1 6809   1.515   2.691   5.394
 2091SOL    HW2 6810   1.654   2.691   5.333
 2092SOL     OW 6811   0.995   1.989   5.478
 2092SOL    HW1 6812   1.053   2.061   5.453
 2092SOL    HW2 6813   1.043   1.910   5.453
 2093SOL     OW 6814   0.497   1.898   5.471
 2093SOL    HW1 6815   0.453   1.846   5.404
 2093SOL    HW2 6816   0.442   1.976   5.480
 2094SOL     OW 6817   0.585   2.736   4.756
 2094SOL    HW1 6818   0.617   2.826   4.755
 2094SOL    HW2 6819   0.529   2.730   4.833
 2095SOL     OW 6820   1.355   2.720   4.752
 2095SOL    HW1 6821   1.272   2.710   4.707
 2095SOL    HW2 6822   1.398   2.635   4.744
 2096SOL     OW 6823   1.204   2.389   3.991
 2096SOL    HW1 6824   1.211   2.312   4.046
 2096SOL    HW2 6825   1.161   2.454   4.046
 2097SOL     OW 6826   0.311   2.059   4.972
 2097SOL    HW1 6827   0.263   2.096   5.046
 2097SOL    HW2 6828   0.287   1.966   4.972
 2098SOL     OW 6829   0.060   3.167   5.004
 2098SOL    HW1 6830   0.091   3.127   5.085
 2098SOL    HW2 6831   0.052   3.260   5.025
 2099SOL     OW 6832   0.724   2.493   4.781
 2099SOL    HW1 6833   0.799   2.477   4.724
 2099SOL    HW2 6834   0.696   2.582   4.760
 2100SOL     OW 6835   1.735   2.823   5.576
 2100SOL    HW1 6836   1.690   2.758   5.522
 2100SOL    HW2 6837   1.677   2.836   5.651
 2101SOL     OW 6838   0.313   1.925   4.344
 2101SOL    HW1 6839   0.293   2.016   4.365
 2101SOL    HW2 6840   0.319   1.881   4.429
 2102SOL     OW 6841   1.609   2.233   4.099
 2102SOL    HW1 6842   1.617   2.184   4.181
 2102SOL    HW2 6843   1.589   2.323   4.127
 2103SOL     OW 6844   1.028   2.621   4.684
 2103SOL    HW1 6845   1.023   2.638   4.778
 2103SOL    HW2 6846   1.002   2.529   4.675
 2104SOL     OW 6847   0.985   3.429   5.444
 2104SOL    HW1 6848   0.967   3.471   5.360
 2104SOL    HW2 6849   1.027   3.346   5.421
 2105SOL     OW 6850   1.854   3.366   5.328
 2105SOL    HW1 6851   1.873   3.394   5.239
 2105SOL    HW2 6852   1.934   3.384   5.377
 2106SOL     OW 6853   0.352   2.783   5.525
 2106SOL    HW1 6854   0.431   2.804   5.574
 2106SOL    HW2 6855   0.380   2.716   5.462
 2107SOL     OW 6856   1.530   2.130   3.852
 2107SOL    HW1 6857   1.462   2.069   3.880
 2107SOL    HW2 6858   1.562   2.170   3.933
 2108SOL     OW 6859   1.290   2.689   3.754
 2108SOL    HW1 6860   1.331   2.603   3.758
 2108SOL    HW2 6861   1.322   2.728   3.673
 2109SOL     OW 6862   1.066   3.198   4.578
 2109SOL    HW1 6863   1.070   3.126   4.516
 2109SOL    HW2 6864   1.127   3.264   4.543
 2110SOL     OW 6865   0.313   2.665   4.674
 2110SOL    HW1 6866   0.407   2.683   4.668
 2110SOL    HW2 6867   0.308   2.575   4.706
 2111SOL     OW 6868   0.330   2.382   4.738
 2111SOL    HW1 6869   0.296   2.294   4.721
 2111SOL    HW2 6870   0.406   2.390   4.681
 2112SOL     OW 6871   1.134   2.236   5.408
 2112SOL    HW1 6872   1.086   2.292   5.469
 2112SOL    HW2 6873   1.221   2.274   5.404
 2113SOL     OW 6874   1.161   2.063   5.195
 2113SOL    HW1 6875   1.150   2.126   5.266
 2113SOL    HW2 6876   1.201   2.114   5.124
 2114SOL     OW 6877   4.000   3.181   3.906
 2114SOL    HW1 6878   3.905   3.196   3.910
 2114SOL    HW2 6879   0.009   3.087   3.924
 2115SOL     OW 6880   0.075   3.663   4.618
 2115SOL    HW1 6881   0.089   3.568   4.618
 2115SOL    HW2 6882   0.164   3.699   4.616
 2116SOL     OW 6883   0.507   3.426   4.640
 2116SOL    HW1 6884   0.573   3.492   4.660
 2116SOL    HW2 6885   0.550   3.367   4.578
 2117SOL     OW 6886   0.980   2.653   4.950
 2117SOL    HW1 6887   1.038   2.631   5.023
 2117SOL    HW2 6888   0.896   2.615   4.973
 2118SOL     OW 6889   0.037   2.418   4.834
 2118SOL    HW1 6890   0.120   2.395   4.791
 2118SOL    HW2 6891   0.057   2.415   4.927
 2119SOL     OW 6892   0.207   2.375   5.451
 2119SOL    HW1 6893   0.247   2.328   5.377
 2119SOL    HW2 6894   0.158   2.447   5.411
 2120SOL     OW 6895   1.374   2.802   5.381
 2120SOL    HW1 6896   1.397   2.895   5.378
 2120SOL    HW2 6897   1.371   2.775   5.289
 2121SOL     OW 6898   0.818   2.431   4.085
 2121SOL    HW1 6899   0.822   2.355   4.026
 2121SOL    HW2 6900   0.744   2.482   4.053
 2122SOL     OW 6901   1.643   2.464   4.907
 2122SOL    HW1 6902   1.632   2.410   4.985
 2122SOL    HW2 6903   1.729   2.441   4.873
 2123SOL     OW 6904   0.299   3.408   5.452
 2123SOL    HW1 6905   0.250   3.477   5.495
 2123SOL    HW2 6906   0.267   3.327   5.491
 2124SOL     OW 6907   0.704   2.312   4.982
 2124SOL    HW1 6908   0.652   2.238   4.952
 2124SOL    HW2 6909   0.700   2.375   4.910
 2125SOL     OW 6910   0.928   3.534   5.193
 2125SOL    HW1 6911   0.901   3.497   5.109
 2125SOL    HW2 6912   0.920   3.629   5.181
 2126SOL     OW 6913   0.456   2.352   3.918
 2126SOL    HW1 6914   0.521   2.419   3.936
 2126SOL    HW2 6915   0.377   2.400   3.897
 2127SOL     OW 6916   0.156   2.997   5.199
 2127SOL    HW1 6917   0.157   2.946   5.280
 2127SOL    HW2 6918   0.171   2.933   5.130
 2128SOL     OW 6919   1.325   2.908   4.946
 2128SOL    HW1 6920   1.347   2.844   4.878
 2128SOL    HW2 6921   1.256   2.961   4.907
 2129SOL     OW 6922   1.312   2.719   4.030
 2129SOL    HW1 6923   1.237   2.687   4.080
 2129SOL    HW2 6924   1.287   2.705   3.938
 2130SOL     OW 6925   1.771   3.604   4.874
 2130SOL    HW1 6926   1.833   3.631   4.807
 2130SOL    HW2 6927   1.749   3.513   4.851
 2131SOL     OW 6928   1.243   3.595   4.834
 2131SOL    HW1 6929   1.326   3.616   4.790
 2131SOL    HW2 6930   1.250   3.502   4.853
 2132SOL     OW 6931   0.076   3.077   4.752
 2132SOL    HW1 6932   0.083   3.104   4.843
 2132SOL    HW2 6933   3.983   3.087   4.731
 2133SOL     OW 6934   0.679   3.526   5.456
 2133SOL    HW1 6935   0.622   3.603   5.459
 2133SOL    HW2 6936   0.739   3.544   5.383
 2134SOL     OW 6937   1.390   3.431   4.210
 2134SOL    HW1 6938   1.450   3.464   4.143
 2134SOL    HW2 6939   1.342   3.508   4.240
 2135SOL     OW 6940   0.169   3.624   5.555
 2135SOL    HW1 6941   0.114   3.572   5.613
 2135SOL    HW2 6942   0.216   3.683   5.614
 2136SOL     OW 6943   1.277   2.789   4.395
 2136SOL    HW1 6944   1.351   2.728   4.404
 2136SOL    HW2 6945   1.311   2.860   4.342
 2137SOL     OW 6946   0.812   3.136   5.153
 2137SOL    HW1 6947   0.783   3.176   5.235
 2137SOL    HW2 6948   0.741   3.155   5.091
 2138SOL     OW 6949   0.675   3.478   3.882
 2138SOL    HW1 6950   0.683   3.495   3.788
 2138SOL    HW2 6951   0.616   3.403   3.888
 2139SOL     OW 6952   1.623   3.588   5.114
 2139SOL    HW1 6953   1.674   3.594   5.033
 2139SOL    HW2 6954   1.610   3.679   5.140
 2140SOL     OW 6955   0.267   2.175   4.441
 2140SOL    HW1 6956   0.181   2.208   4.415
 2140SOL    HW2 6957   0.261   2.166   4.536
 2141SOL     OW 6958   1.207   3.467   3.759
 2141SOL    HW1 6959   1.197   3.375   3.783
 2141SOL    HW2 6960   1.146   3.480   3.687
 2142SOL     OW 6961   0.823   2.868   5.097
 2142SOL    HW1 6962   0.868   2.863   5.013
 2142SOL    HW2 6963   0.822   2.961   5.118
 2143SOL     OW 6964   0.916   2.772   4.014
 2143SOL    HW1 6965   0.976   2.804   3.948
 2143SOL    HW2 6966   0.964   2.703   4.060
 2144SOL     OW 6967   1.490   3.490   3.766
 2144SOL    HW1 6968   1.396   3.480   3.750
 2144SOL    HW2 6969   1.528   3.496   3.679
 2145SOL     OW 6970   0.374   3.165   5.215
 2145SOL    HW1 6971   0.359   3.245   5.165
 2145SOL    HW2 6972   0.297   3.111   5.198
 2146SOL     OW 6973   1.610   3.145   5.004
 2146SOL    HW1 6974   1.670   3.133   5.078
 2146SOL    HW2 6975   1.550   3.213   5.034
 2147SOL     OW 6976   1.055   2.970   4.431
 2147SOL    HW1 6977   0.983   2.919   4.470
 2147SOL    HW2 6978   1.118   2.905   4.402
 2148SOL     OW 6979   1.022   2.103   4.691
 2148SOL    HW1 6980   1.018   2.056   4.608
 2148SOL    HW2 6981   1.017   2.034   4.758
 2149SOL     OW 6982   0.605   3.352   4.205
 2149SOL    HW1 6983   0.650   3.302   4.137
 2149SOL    HW2 6984   0.534   3.396   4.159
 2150SOL     OW 6985   1.724   2.255   5.101
 2150SOL    HW1 6986   1.798   2.315   5.108
 2150SOL    HW2 6987   1.754   2.187   5.040
 2151SOL     OW 6988   0.253   3.203   4.015
 2151SOL    HW1 6989   0.160   3.212   3.996
 2151SOL    HW2 6990   0.263   3.241   4.103
 2152SOL     OW 6991   0.107   2.860   5.441
 2152SOL    HW1 6992   0.046   2.853   5.515
 2152SOL    HW2 6993   0.193   2.841   5.479
 2153SOL     OW 6994   0.675   2.058   5.224
 2153SOL    HW1 6995   0.759   2.037   5.183
 2153SOL    HW2 6996   0.699   2.091   5.311
 2154SOL     OW 6997   0.081   2.178   3.761
 2154SOL    HW1 6998   3.985   2.177   3.768
 2154SOL    HW2 6999   0.101   2.258   3.714
 2155SOL     OW 7000   1.428   2.721   5.123
 2155SOL    HW1 7001   1.380   2.782   5.068
 2155SOL    HW2 7002   1.518   2.723   5.089
 2156SOL     OW 7003   0.019   2.094   4.099
 2156SOL    HW1 7004   0.045   2.159   4.033
 2156SOL    HW2 7005   0.102   2.056   4.128
 2157SOL     OW 7006   1.178   3.200   3.841
 2157SOL    HW1 7007   1.087   3.171   3.843
 2157SOL    HW2 7008   1.205   3.199   3.933
 2158SOL     OW 7009   0.619   2.692   5.160
 2158SOL    HW1 7010   0.675   2.768   5.144
 2158SOL    HW2 7011   0.680   2.619   5.167
 2159SOL     OW 7012   1.486   3.641   4.705
 2159SOL    HW1 7013   1.509   3.698   4.632
 2159SOL    HW2 7014   1.569   3.619   4.746
 2160SOL     OW 7015   0.716   2.425   5.428
 2160SOL    HW1 7016   0.759   2.487   5.486
 2160SOL    HW2 7017   0.742   2.339   5.461
 2161SOL     OW 7018   1.473   3.061   5.355
 2161SOL    HW1 7019   1.461   3.074   5.449
 2161SOL    HW2 7020   1.566   3.077   5.340
 2162SOL     OW 7021   0.378   3.607   5.283
 2162SOL    HW1 7022   0.291   3.642   5.270
 2162SOL    HW2 7023   0.364   3.524   5.329
 2163SOL     OW 7024   1.668   2.743   4.978
 2163SOL    HW1 7025   1.661   2.658   4.935
 2163SOL    HW2 7026   1.658   2.807   4.907
 2164SOL     OW 7027   1.215   2.181   4.182
 2164SOL    HW1 7028   1.278   2.110   4.174
 2164SOL    HW2 7029   1.244   2.231   4.259
 2165SOL     OW 7030   0.589   2.600   4.396
 2165SOL    HW1 7031   0.628   2.686   4.380
 2165SOL    HW2 7032   0.523   2.591   4.327
 2166SOL     OW 7033   1.755   2.236   5.379
 2166SOL    HW1 7034   1.745   2.245   5.284
 2166SOL    HW2 7035   1.684   2.178   5.406
 2167SOL     OW 7036   1.748   2.800   5.233
 2167SOL    HW1 7037   1.741   2.894   5.245
 2167SOL    HW2 7038   1.731   2.787   5.139
 2168SOL     OW 7039   0.864   3.229   3.761
 2168SOL    HW1 7040   0.823   3.257   3.843
 2168SOL    HW2 7041   0.879   3.310   3.713
 2169SOL     OW 7042   0.659   3.651   4.661
 2169SOL    HW1 7043   0.637   3.742   4.641
 2169SOL    HW2 7044   0.754   3.648   4.658
 2170SOL     OW 7045   0.868   2.829   4.578
 2170SOL    HW1 7046   0.918   2.758   4.617
 2170SOL    HW2 7047   0.833   2.877   4.653
 2171SOL     OW 7048   1.077   2.850   3.812
 2171SOL    HW1 7049   1.057   2.901   3.734
 2171SOL    HW2 7050   1.153   2.797   3.787
 2172SOL     OW 7051   1.852   3.413   4.566
 2172SOL    HW1 7052   1.772   3.402   4.515
 2172SOL    HW2 7053   1.844   3.350   4.637
 2173SOL     OW 7054   0.226   3.166   5.580
 2173SOL    HW1 7055   0.153   3.110   5.553
 2173SOL    HW2 7056   0.213   3.179   5.674
 2174SOL     OW 7057   0.114   3.139   4.444
 2174SOL    HW1 7058   0.131   3.089   4.524
 2174SOL    HW2 7059   0.106   3.072   4.376
 2175SOL     OW 7060   0.682   3.265   5.354
 2175SOL    HW1 7061   0.601   3.224   5.384
 2175SOL    HW2 7062   0.678   3.354   5.390
 2176SOL     OW 7063   0.441   2.296   4.257
 2176SOL    HW1 7064   0.442   2.226   4.192
 2176SOL    HW2 7065   0.385   2.262   4.328
 2177SOL     OW 7066   1.700   3.349   4.817
 2177SOL    HW1 7067   1.619   3.327   4.772
 2177SOL    HW2 7068   1.710   3.281   4.883
 2178SOL     OW 7069   0.334   2.418   5.016
 2178SOL    HW1 7070   0.389   2.362   5.070
 2178SOL    HW2 7071   0.349   2.388   4.926
 2179SOL     OW 7072   0.828   3.441   4.401
 2179SOL    HW1 7073   0.813   3.493   4.322
 2179SOL    HW2 7074   0.753   3.381   4.404
 2180SOL     OW 7075   1.437   2.091   4.843
 2180SOL    HW1 7076   1.448   2.004   4.881
 2180SOL    HW2 7077   1.383   2.138   4.906
 2181SOL     OW 7078   1.009   1.879   4.864
 2181SOL    HW1 7079   0.956   1.812   4.823
 2181SOL    HW2 7080   1.097   1.842   4.866
 2182SOL     OW 7081   0.772   3.194   4.042
 2182SOL    HW1 7082   0.742   3.103   4.047
 2182SOL    HW2 7083   0.855   3.195   4.090
 2183SOL     OW 7084   0.620   3.416   5.009
 2183SOL    HW1 7085   0.622   3.498   5.059
 2183SOL    HW2 7086   0.708   3.410   4.971
 2184SOL     OW 7087   1.350   1.914   3.891
 2184SOL    HW1 7088   1.380   1.852   3.824
 2184SOL    HW2 7089   1.263   1.883   3.915
 2185SOL     OW 7090   1.297   2.323   4.404
 2185SOL    HW1 7091   1.244   2.403   4.410
 2185SOL    HW2 7092   1.292   2.285   4.492
 2186SOL     OW 7093   1.570   2.054   4.594
 2186SOL    HW1 7094   1.534   2.080   4.679
 2186SOL    HW2 7095   1.586   2.136   4.548
 2187SOL     OW 7096   0.047   2.912   3.963
 2187SOL    HW1 7097   0.141   2.896   3.955
 2187SOL    HW2 7098   0.011   2.829   3.996
 2188SOL     OW 7099   0.885   3.519   4.068
 2188SOL    HW1 7100   0.814   3.500   4.006
 2188SOL    HW2 7101   0.854   3.595   4.117
 2189SOL     OW 7102   0.231   2.484   5.706
 2189SOL    HW1 7103   0.138   2.493   5.726
 2189SOL    HW2 7104   0.233   2.454   5.615
 2190SOL     OW 7105   0.229   2.133   6.573
 2190SOL    HW1 7106   0.249   2.100   6.660
 2190SOL    HW2 7107   0.134   2.126   6.566
 2191SOL     OW 7108   0.010   2.221   6.216
 2191SOL    HW1 7109   3.922   2.239   6.249
 2191SOL    HW2 7110   3.996   2.189   6.127
 2192SOL     OW 7111   0.579   3.149   6.774
 2192SOL    HW1 7112   0.492   3.153   6.733
 2192SOL    HW2 7113   0.593   3.237   6.807
 2193SOL     OW 7114   1.562   3.370   6.292
 2193SOL    HW1 7115   1.520   3.351   6.376
 2193SOL    HW2 7116   1.489   3.377   6.230
 2194SOL     OW 7117   1.110   2.593   6.276
 2194SOL    HW1 7118   1.176   2.662   6.273
 2194SOL    HW2 7119   1.075   2.598   6.365
 2195SOL     OW 7120   1.748   2.472   5.821
 2195SOL    HW1 7121   1.734   2.468   5.727
 2195SOL    HW2 7122   1.739   2.382   5.851
 2196SOL     OW 7123   0.754   3.002   6.627
 2196SOL    HW1 7124   0.689   3.037   6.688
 2196SOL    HW2 7125   0.790   3.079   6.583
 2197SOL     OW 7126   0.864   2.637   7.409
 2197SOL    HW1 7127   0.862   2.708   7.473
 2197SOL    HW2 7128   0.891   2.680   7.327
 2198SOL     OW 7129   0.686   2.864   6.233
 2198SOL    HW1 7130   0.751   2.852   6.301
 2198SOL    HW2 7131   0.617   2.916   6.274
 2199SOL     OW 7132   0.711   3.011   7.401
 2199SOL    HW1 7133   0.759   3.089   7.429
 2199SOL    HW2 7134   0.629   3.046   7.364
 2200SOL     OW 7135   0.351   3.264   6.664
 2200SOL    HW1 7136   0.268   3.249   6.617
 2200SOL    HW2 7137   0.400   3.322   6.607
 2201SOL     OW 7138   1.461   3.362   6.941
 2201SOL    HW1 7139   1.513   3.441   6.952
 2201SOL    HW2 7140   1.396   3.366   7.012
 2202SOL     OW 7141   0.450   2.261   7.073
 2202SOL    HW1 7142   0.525   2.201   7.078
 2202SOL    HW2 7143   0.373   2.205   7.087
 2203SOL     OW 7144   0.224   3.571   6.052
 2203SOL    HW1 7145   0.225   3.654   6.101
 2203SOL    HW2 7146   0.301   3.575   5.995
 2204SOL     OW 7147   1.137   3.204   7.279
 2204SOL    HW1 7148   1.178   3.197   7.365
 2204SOL    HW2 7149   1.085   3.124   7.271
 2205SOL     OW 7150   0.249   3.306   6.126
 2205SOL    HW1 7151   0.222   3.396   6.112
 2205SOL    HW2 7152   0.179   3.267   6.179
 2206SOL     OW 7153   0.247   2.929   6.470
 2206SOL    HW1 7154   0.266   2.845   6.511
 2206SOL    HW2 7155   0.194   2.976   6.535
 2207SOL     OW 7156   0.611   3.648   7.014
 2207SOL    HW1 7157   0.529   3.634   7.060
 2207SOL    HW2 7158   0.637   3.737   7.038
 2208SOL     OW 7159   0.579   2.847   5.724
 2208SOL    HW1 7160   0.626   2.893   5.654
 2208SOL    HW2 7161   0.620   2.877   5.805
 2209SOL     OW 7162   1.609   1.983   7.027
 2209SOL    HW1 7163   1.586   2.065   6.984
 2209SOL    HW2 7164   1.589   1.999   7.120
 2210SOL     OW 7165   0.142   2.513   6.160
 2210SOL    HW1 7166   0.086   2.436   6.159
 2210SOL    HW2 7167   0.106   2.568   6.230
 2211SOL     OW 7168   1.842   3.611   5.924
 2211SOL    HW1 7169   1.910   3.587   5.986
 2211SOL    HW2 7170   1.862   3.701   5.899
 2212SOL     OW 7171   0.041   3.453   5.726
 2212SOL    HW1 7172   0.034   3.361   5.751
 2212SOL    HW2 7173   3.959   3.493   5.756
 2213SOL     OW 7174   1.639   2.977   6.009
 2213SOL    HW1 7175   1.729   2.967   5.976
 2213SOL    HW2 7176   1.649   3.024   6.091
 2214SOL     OW 7177   0.138   2.615   7.176
 2214SOL    HW1 7178   0.233   2.609   7.174
 2214SOL    HW2 7179   0.120   2.704   7.204
 2215SOL     OW 7180   0.615   3.248   6.320
 2215SOL    HW1 7181   0.568   3.165   6.330
 2215SOL    HW2 7182   0.598   3.275   6.230
 2216SOL     OW 7183   1.288   3.100   7.009
 2216SOL    HW1 7184   1.320   3.032   6.950
 2216SOL    HW2 7185   1.345   3.093   7.086
 2217SOL     OW 7186   0.816   1.859   6.100
 2217SOL    HW1 7187   0.853   1.944   6.078
 2217SOL    HW2 7188   0.722   1.875   6.105
 2218SOL     OW 7189   0.184   2.813   6.865
 2218SOL    HW1 7190   0.272   2.778   6.851
 2218SOL    HW2 7191   0.132   2.774   6.795
 2219SOL     OW 7192   1.530   2.857   5.785
 2219SOL    HW1 7193   1.466   2.794   5.818
 2219SOL    HW2 7194   1.570   2.894   5.863
 2220SOL     OW 7195   1.216   3.665   7.213
 2220SOL    HW1 7196   1.194   3.726   7.142
 2220SOL    HW2 7197   1.217   3.579   7.171
 2221SOL     OW 7198   0.341   2.109   7.401
 2221SOL    HW1 7199   0.378   2.196   7.409
 2221SOL    HW2 7200   0.249   2.120   7.426
 2222SOL     OW 7201   1.465   3.281   6.536
 2222SOL    HW1 7202   1.398   3.297   6.602
 2222SOL    HW2 7203   1.453   3.190   6.510
 2223SOL     OW 7204   1.653   3.601   6.167
 2223SOL    HW1 7205   1.640   3.571   6.077
 2223SOL    HW2 7206   1.632   3.526   6.222
 2224SOL     OW 7207   0.596   2.580   5.851
 2224SOL    HW1 7208   0.602   2.663   5.805
 2224SOL    HW2 7209   0.533   2.595   5.922
 2225SOL     OW 7210   1.577   3.537   5.894
 2225SOL    HW1 7211   1.669   3.561   5.889
 2225SOL    HW2 7212   1.552   3.517   5.804
 2226SOL     OW 7213   0.798   2.479   7.039
 2226SOL    HW1 7214   0.768   2.456   7.127
 2226SOL    HW2 7215   0.757   2.413   6.982
 2227SOL     OW 7216   0.955   2.748   7.169
 2227SOL    HW1 7217   1.014   2.682   7.134
 2227SOL    HW2 7218   0.908   2.782   7.093
 2228SOL     OW 7219   0.983   2.273   6.812
 2228SOL    HW1 7220   0.895   2.293   6.846
 2228SOL    HW2 7221   0.967   2.231   6.728
 2229SOL     OW 7222   1.053   2.558   6.009
 2229SOL    HW1 7223   1.065   2.564   6.104
 2229SOL    HW2 7224   0.969   2.513   5.998
 2230SOL     OW 7225   0.082   2.690   6.376
 2230SOL    HW1 7226   0.158   2.660   6.427
 2230SOL    HW2 7227   0.098   2.783   6.362
 2231SOL     OW 7228   0.127   3.716   7.163
 2231SOL    HW1 7229   0.135   3.685   7.253
 2231SOL    HW2 7230   0.035   3.704   7.140
 2232SOL     OW 7231   0.901   2.210   5.781
 2232SOL    HW1 7232   0.939   2.274   5.721
 2232SOL    HW2 7233   0.906   2.127   5.734
 2233SOL     OW 7234   1.376   3.007   6.126
 2233SOL    HW1 7235   1.455   2.990   6.075
 2233SOL    HW2 7236   1.326   3.068   6.073
 2234SOL     OW 7237   0.545   2.040   6.480
 2234SOL    HW1 7238   0.552   2.072   6.570
 2234SOL    HW2 7239   0.546   2.119   6.426
 2235SOL     OW 7240   1.004   3.307   6.057
 2235SOL    HW1 7241   0.967   3.380   6.008
 2235SOL    HW2 7242   0.985   3.327   6.149
 2236SOL     OW 7243   0.359   3.670   6.446
 2236SOL    HW1 7244   0.437   3.616   6.458
 2236SOL    HW2 7245   0.391   3.760   6.456
 2237SOL     OW 7246   1.807   2.998   6.461
 2237SOL    HW1 7247   1.749   2.995   6.385
 2237SOL    HW2 7248   1.750   2.979   6.536
 2238SOL     OW 7249   1.228   3.399   7.097
 2238SOL    HW1 7250   1.214   3.327   7.159
 2238SOL    HW2 7251   1.161   3.387   7.030
 2239SOL     OW 7252   0.311   2.816   5.829
 2239SOL    HW1 7253   0.394   2.840   5.788
 2239SOL    HW2 7254   0.297   2.725   5.805
 2240SOL     OW 7255   0.467   3.122   7.323
 2240SOL    HW1 7256   0.441   3.131   7.231
 2240SOL    HW2 7257   0.385   3.127   7.372
 2241SOL     OW 7258   1.113   3.643   5.808
 2241SOL    HW1 7259   1.049   3.596   5.863
 2241SOL    HW2 7260   1.143   3.577   5.745
 2242SOL     OW 7261   0.204   2.138   7.094
 2242SOL    HW1 7262   0.114   2.169   7.086
 2242SOL    HW2 7263   0.195   2.051   7.135
 2243SOL     OW 7264   1.628   3.243   5.675
 2243SOL    HW1 7265   1.587   3.328   5.658
 2243SOL    HW2 7266   1.560   3.179   5.655
 2244SOL     OW 7267   0.468   3.601   5.907
 2244SOL    HW1 7268   0.507   3.663   5.968
 2244SOL    HW2 7269   0.541   3.573   5.852
 2245SOL     OW 7270   0.252   3.656   6.813
 2245SOL    HW1 7271   0.297   3.591   6.867
 2245SOL    HW2 7272   0.250   3.618   6.726
 2246SOL     OW 7273   0.938   3.562   6.486
 2246SOL    HW1 7274   1.015   3.510   6.507
 2246SOL    HW2 7275   0.894   3.513   6.417
 2247SOL     OW 7276   0.398   2.555   6.058
 2247SOL    HW1 7277   0.424   2.463   6.072
 2247SOL    HW2 7278   0.306   2.558   6.084
 2248SOL     OW 7279   0.643   1.982   5.682
 2248SOL    HW1 7280   0.703   1.910   5.702
 2248SOL    HW2 7281   0.591   1.950   5.608
 2249SOL     OW 7282   0.759   2.141   7.339
 2249SOL    HW1 7283   0.840   2.090   7.346
 2249SOL    HW2 7284   0.715   2.125   7.423
 2250SOL     OW 7285   0.876   3.382   6.780
 2250SOL    HW1 7286   0.860   3.346   6.693
 2250SOL    HW2 7287   0.946   3.328   6.816
 2251SOL     OW 7288   0.816   3.255   6.527
 2251SOL    HW1 7289   0.901   3.243   6.484
 2251SOL    HW2 7290   0.753   3.257   6.455
 2252SOL     OW 7291   0.931   2.373   6.488
 2252SOL    HW1 7292   0.907   2.364   6.396
 2252SOL    HW2 7293   0.955   2.285   6.516
 2253SOL     OW 7294   0.554   1.924   6.082
 2253SOL    HW1 7295   0.472   1.929   6.130
 2253SOL    HW2 7296   0.560   2.006   6.034
 2254SOL     OW 7297   1.429   3.061   5.627
 2254SOL    HW1 7298   1.459   2.986   5.677
 2254SOL    HW2 7299   1.343   3.082   5.665
 2255SOL     OW 7300   0.306   1.913   5.756
 2255SOL    HW1 7301   0.370   1.952   5.695
 2255SOL    HW2 7302   0.357   1.848   5.805
 2256SOL     OW 7303   0.928   2.104   6.045
 2256SOL    HW1 7304   0.904   2.147   5.963
 2256SOL    HW2 7305   1.023   2.104   6.044
 2257SOL     OW 7306   1.075   2.532   7.043
 2257SOL    HW1 7307   0.988   2.492   7.048
 2257SOL    HW2 7308   1.136   2.459   7.056
 2258SOL     OW 7309   1.222   3.432   6.380
 2258SOL    HW1 7310   1.238   3.500   6.314
 2258SOL    HW2 7311   1.291   3.446   6.445
 2259SOL     OW 7312   0.467   3.012   6.322
 2259SOL    HW1 7313   0.395   2.989   6.381
 2259SOL    HW2 7314   0.432   2.997   6.234
 2260SOL     OW 7315   1.267   3.657   6.193
 2260SOL    HW1 7316   1.313   3.721   6.140
 2260SOL    HW2 7317   1.195   3.707   6.233
 2261SOL     OW 7318   1.022   2.403   5.611
 2261SOL    HW1 7319   0.977   2.485   5.589
 2261SOL    HW2 7320   1.093   2.429   5.669
 2262SOL     OW 7321   0.081   2.434   6.976
 2262SOL    HW1 7322   0.171   2.421   6.946
 2262SOL    HW2 7323   0.088   2.504   7.041
 2263SOL     OW 7324   0.567   2.089   6.752
 2263SOL    HW1 7325   0.607   2.013   6.794
 2263SOL    HW2 7326   0.475   2.087   6.781
 2264SOL     OW 7327   0.869   2.320   6.227
 2264SOL    HW1 7328   0.821   2.376   6.166
 2264SOL    HW2 7329   0.882   2.238   6.178
 2265SOL     OW 7330   0.985   1.926   6.347
 2265SOL    HW1 7331   0.941   1.912   6.264
 2265SOL    HW2 7332   0.974   1.844   6.395
 2266SOL     OW 7333   1.440   3.022   6.444
 2266SOL    HW1 7334   1.375   2.952   6.446
 2266SOL    HW2 7335   1.461   3.033   6.351
 2267SOL     OW 7336   1.852   2.675   5.973
 2267SOL    HW1 7337   1.918   2.615   6.010
 2267SOL    HW2 7338   1.801   2.620   5.914
 2268SOL     OW 7339   0.488   3.280   5.745
 2268SOL    HW1 7340   0.413   3.250   5.796
 2268SOL    HW2 7341   0.469   3.254   5.655
 2269SOL     OW 7342   1.674   3.123   6.238
 2269SOL    HW1 7343   1.768   3.138   6.233
 2269SOL    HW2 7344   1.636   3.209   6.251
 2270SOL     OW 7345   1.390   2.438   5.653
 2270SOL    HW1 7346   1.343   2.413   5.732
 2270SOL    HW2 7347   1.482   2.420   5.673
 2271SOL     OW 7348   0.576   2.130   5.905
 2271SOL    HW1 7349   0.604   2.083   5.826
 2271SOL    HW2 7350   0.542   2.213   5.872
 2272SOL     OW 7351   1.752   3.104   7.158
 2272SOL    HW1 7352   1.836   3.063   7.138
 2272SOL    HW2 7353   1.775   3.194   7.184
 2273SOL     OW 7354   1.057   3.214   6.918
 2273SOL    HW1 7355   0.983   3.183   6.969
 2273SOL    HW2 7356   1.133   3.174   6.960
 2274SOL     OW 7357   1.611   3.488   7.242
 2274SOL    HW1 7358   1.602   3.522   7.153
 2274SOL    HW2 7359   1.693   3.439   7.242
 2275SOL     OW 7360   1.129   3.065   6.691
 2275SOL    HW1 7361   1.072   3.105   6.756
 2275SOL    HW2 7362   1.098   3.100   6.607
 2276SOL     OW 7363   1.625   2.959   6.662
 2276SOL    HW1 7364   1.619   3.023   6.733
 2276SOL    HW2 7365   1.548   2.976   6.608
 2277SOL     OW 7366   0.904   1.956   6.980
 2277SOL    HW1 7367   0.930   1.938   6.889
 2277SOL    HW2 7368   0.975   2.010   7.015
 2278SOL     OW 7369   0.983   2.979   7.305
 2278SOL    HW1 7370   0.891   2.992   7.328
 2278SOL    HW2 7371   0.983   2.900   7.252
 2279SOL     OW 7372   0.708   2.922   5.957
 2279SOL    HW1 7373   0.694   2.906   6.050
 2279SOL    HW2 7374   0.784   2.869   5.934
 2280SOL     OW 7375   0.422   2.678   6.838
 2280SOL    HW1 7376   0.490   2.686   6.905
 2280SOL    HW2 7377   0.387   2.589   6.850
 2281SOL     OW 7378   1.244   2.233   6.869
 2281SOL    HW1 7379   1.296   2.311   6.850
 2281SOL    HW2 7380   1.157   2.253   6.834
 2282SOL     OW 7381   0.065   3.442   6.932
 2282SOL    HW1 7382   0.070   3.500   6.856
 2282SOL    HW2 7383   0.156   3.429   6.958
 2283SOL     OW 7384   0.372   2.964   6.069
 2283SOL    HW1 7385   0.366   3.044   6.017
 2283SOL    HW2 7386   0.371   2.894   6.005
 2284SOL     OW 7387   0.550   2.399   6.447
 2284SOL    HW1 7388   0.565   2.456   6.372
 2284SOL    HW2 7389   0.618   2.425   6.510
 2285SOL     OW 7390   1.247   3.211   5.975
 2285SOL    HW1 7391   1.304   3.282   6.006
 2285SOL    HW2 7392   1.160   3.233   6.009
 2286SOL     OW 7393   1.283   3.321   6.734
 2286SOL    HW1 7394   1.340   3.325   6.811
 2286SOL    HW2 7395   1.227   3.245   6.749
 2287SOL     OW 7396   0.345   3.389   6.904
 2287SOL    HW1 7397   0.335   3.339   6.823
 2287SOL    HW2 7398   0.439   3.404   6.912
 2288SOL     OW 7399   0.415   2.601   7.187
 2288SOL    HW1 7400   0.478   2.646   7.130
 2288SOL    HW2 7401   0.456   2.516   7.205
 2289SOL     OW 7402   0.989   1.991   7.336
 2289SOL    HW1 7403   1.028   2.028   7.256
 2289SOL    HW2 7404   1.010   1.897   7.331
 2290SOL     OW 7405   0.498   1.898   7.331
 2290SOL    HW1 7406   0.453   1.846   7.264
 2290SOL    HW2 7407   0.444   1.976   7.340
 2291SOL     OW 7408   0.585   2.735   6.618
 2291SOL    HW1 7409   0.616   2.826   6.617
 2291SOL    HW2 7410   0.529   2.730   6.695
 2292SOL     OW 7411   1.348   2.727   6.605
 2292SOL    HW1 7412   1.263   2.718   6.562
 2292SOL    HW2 7413   1.362   2.643   6.650
 2293SOL     OW 7414   1.215   2.389   5.863
 2293SOL    HW1 7415   1.225   2.315   5.923
 2293SOL    HW2 7416   1.163   2.453   5.912
 2294SOL     OW 7417   0.311   2.059   6.833
 2294SOL    HW1 7418   0.264   2.096   6.908
 2294SOL    HW2 7419   0.287   1.966   6.834
 2295SOL     OW 7420   0.059   3.167   6.866
 2295SOL    HW1 7421   0.091   3.127   6.947
 2295SOL    HW2 7422   0.052   3.260   6.887
 2296SOL     OW 7423   0.725   2.493   6.643
 2296SOL    HW1 7424   0.800   2.478   6.585
 2296SOL    HW2 7425   0.696   2.582   6.621
 2297SOL     OW 7426   0.313   1.925   6.206
 2297SOL    HW1 7427   0.293   2.016   6.227
 2297SOL    HW2 7428   0.318   1.881   6.291
 2298SOL     OW 7429   1.612   2.236   5.953
 2298SOL    HW1 7430   1.623   2.154   6.002
 2298SOL    HW2 7431   1.590   2.301   6.019
 2299SOL     OW 7432   1.033   2.621   6.546
 2299SOL    HW1 7433   1.025   2.638   6.640
 2299SOL    HW2 7434   1.006   2.530   6.536
 2300SOL     OW 7435   0.985   3.430   7.306
 2300SOL    HW1 7436   0.967   3.471   7.221
 2300SOL    HW2 7437   1.027   3.347   7.283
 2301SOL     OW 7438   1.856   3.364   7.190
 2301SOL    HW1 7439   1.873   3.393   7.100
 2301SOL    HW2 7440   1.936   3.385   7.237
 2302SOL     OW 7441   0.352   2.783   7.386
 2302SOL    HW1 7442   0.431   2.804   7.437
 2302SOL    HW2 7443   0.381   2.716   7.324
 2303SOL     OW 7444   1.529   2.130   5.711
 2303SOL    HW1 7445   1.465   2.066   5.742
 2303SOL    HW2 7446   1.562   2.172   5.791
 2304SOL     OW 7447   1.290   2.690   5.617
 2304SOL    HW1 7448   1.332   2.604   5.620
 2304SOL    HW2 7449   1.322   2.729   5.536
 2305SOL     OW 7450   1.067   3.199   6.441
 2305SOL    HW1 7451   1.071   3.126   6.379
 2305SOL    HW2 7452   1.127   3.264   6.406
 2306SOL     OW 7453   0.313   2.665   6.536
 2306SOL    HW1 7454   0.407   2.682   6.530
 2306SOL    HW2 7455   0.308   2.575   6.568
 2307SOL     OW 7456   0.330   2.382   6.600
 2307SOL    HW1 7457   0.296   2.294   6.583
 2307SOL    HW2 7458   0.406   2.390   6.542
 2308SOL     OW 7459   1.109   2.103   7.070
 2308SOL    HW1 7460   1.161   2.153   7.132
 2308SOL    HW2 7461   1.144   2.127   6.984
 2309SOL     OW 7462   4.000   3.181   5.768
 2309SOL    HW1 7463   3.905   3.196   5.772
 2309SOL    HW2 7464   0.009   3.087   5.786
 2310SOL     OW 7465   0.076   3.663   6.481
 2310SOL    HW1 7466   0.089   3.568   6.480
 2310SOL    HW2 7467   0.164   3.700   6.479
 2311SOL     OW 7468   0.507   3.426   6.502
 2311SOL    HW1 7469   0.573   3.492   6.522
 2311SOL    HW2 7470   0.550   3.367   6.440
 2312SOL     OW 7471   0.983   2.653   6.811
 2312SOL    HW1 7472   1.040   2.628   6.883
 2312SOL    HW2 7473   0.898   2.616   6.834
 2313SOL     OW 7474   0.037   2.419   6.696
 2313SOL    HW1 7475   0.120   2.395   6.653
 2313SOL    HW2 7476   0.057   2.416   6.789
 2314SOL     OW 7477   0.206   2.375   7.314
 2314SOL    HW1 7478   0.247   2.329   7.240
 2314SOL    HW2 7479   0.159   2.447   7.273
 2315SOL     OW 7480   1.352   2.803   7.242
 2315SOL    HW1 7481   1.394   2.889   7.236
 2315SOL    HW2 7482   1.381   2.756   7.164
 2316SOL     OW 7483   0.817   2.432   5.947
 2316SOL    HW1 7484   0.820   2.356   5.888
 2316SOL    HW2 7485   0.743   2.483   5.915
 2317SOL     OW 7486   0.298   3.408   7.313
 2317SOL    HW1 7487   0.250   3.477   7.357
 2317SOL    HW2 7488   0.267   3.327   7.353
 2318SOL     OW 7489   0.704   2.314   6.845
 2318SOL    HW1 7490   0.652   2.239   6.816
 2318SOL    HW2 7491   0.699   2.376   6.773
 2319SOL     OW 7492   0.928   3.534   7.055
 2319SOL    HW1 7493   0.901   3.497   6.971
 2319SOL    HW2 7494   0.920   3.629   7.043
 2320SOL     OW 7495   0.457   2.352   5.781
 2320SOL    HW1 7496   0.522   2.420   5.799
 2320SOL    HW2 7497   0.377   2.400   5.759
 2321SOL     OW 7498   0.156   2.997   7.061
 2321SOL    HW1 7499   0.157   2.946   7.142
 2321SOL    HW2 7500   0.171   2.933   6.992
 2322SOL     OW 7501   1.326   2.910   6.808
 2322SOL    HW1 7502   1.351   2.851   6.737
 2322SOL    HW2 7503   1.255   2.963   6.772
 2323SOL     OW 7504   1.309   2.711   5.893
 2323SOL    HW1 7505   1.228   2.685   5.938
 2323SOL    HW2 7506   1.288   2.703   5.800
 2324SOL     OW 7507   1.772   3.604   6.737
 2324SOL    HW1 7508   1.834   3.631   6.669
 2324SOL    HW2 7509   1.749   3.514   6.714
 2325SOL     OW 7510   1.243   3.595   6.696
 2325SOL    HW1 7511   1.326   3.616   6.652
 2325SOL    HW2 7512   1.250   3.502   6.716
 2326SOL     OW 7513   0.076   3.076   6.614
 2326SOL    HW1 7514   0.083   3.104   6.705
 2326SOL    HW2 7515   3.983   3.087   6.593
 2327SOL     OW 7516   0.679   3.527   7.318
 2327SOL    HW1 7517   0.622   3.603   7.321
 2327SOL    HW2 7518   0.739   3.544   7.246
 2328SOL     OW 7519   1.669   2.001   6.078
 2328SOL    HW1 7520   1.752   1.976   6.037
 2328SOL    HW2 7521   1.646   1.927   6.133
 2329SOL     OW 7522   1.390   3.431   6.072
 2329SOL    HW1 7523   1.450   3.464   6.005
 2329SOL    HW2 7524   1.342   3.508   6.102
 2330SOL     OW 7525   0.169   3.624   7.417
 2330SOL    HW1 7526   0.114   3.572   7.476
 2330SOL    HW2 7527   0.216   3.683   7.476
 2331SOL     OW 7528   1.302   2.784   6.260
 2331SOL    HW1 7529   1.385   2.736   6.254
 2331SOL    HW2 7530   1.318   2.864   6.209
 2332SOL     OW 7531   0.812   3.135   7.015
 2332SOL    HW1 7532   0.784   3.175   7.097
 2332SOL    HW2 7533   0.741   3.155   6.953
 2333SOL     OW 7534   0.675   3.478   5.743
 2333SOL    HW1 7535   0.683   3.495   5.650
 2333SOL    HW2 7536   0.616   3.402   5.749
 2334SOL     OW 7537   1.624   3.588   6.976
 2334SOL    HW1 7538   1.675   3.593   6.896
 2334SOL    HW2 7539   1.610   3.679   7.002
 2335SOL     OW 7540   0.267   2.176   6.303
 2335SOL    HW1 7541   0.181   2.208   6.277
 2335SOL    HW2 7542   0.261   2.166   6.398
 2336SOL     OW 7543   1.207   3.467   5.621
 2336SOL    HW1 7544   1.197   3.375   5.645
 2336SOL    HW2 7545   1.146   3.480   5.549
 2337SOL     OW 7546   0.824   2.867   6.959
 2337SOL    HW1 7547   0.868   2.864   6.874
 2337SOL    HW2 7548   0.823   2.960   6.981
 2338SOL     OW 7549   0.916   2.772   5.878
 2338SOL    HW1 7550   0.976   2.804   5.810
 2338SOL    HW2 7551   0.964   2.701   5.921
 2339SOL     OW 7552   1.489   3.491   5.628
 2339SOL    HW1 7553   1.396   3.480   5.612
 2339SOL    HW2 7554   1.528   3.496   5.541
 2340SOL     OW 7555   0.374   3.165   7.077
 2340SOL    HW1 7556   0.359   3.245   7.027
 2340SOL    HW2 7557   0.296   3.111   7.060
 2341SOL     OW 7558   1.606   3.142   6.864
 2341SOL    HW1 7559   1.674   3.136   6.932
 2341SOL    HW2 7560   1.547   3.211   6.895
 2342SOL     OW 7561   1.054   2.970   6.295
 2342SOL    HW1 7562   0.983   2.919   6.334
 2342SOL    HW2 7563   1.109   2.905   6.252
 2343SOL     OW 7564   0.993   2.104   6.562
 2343SOL    HW1 7565   0.989   2.058   6.478
 2343SOL    HW2 7566   1.001   2.035   6.628
 2344SOL     OW 7567   0.605   3.352   6.067
 2344SOL    HW1 7568   0.650   3.302   5.999
 2344SOL    HW2 7569   0.534   3.397   6.021
 2345SOL     OW 7570   1.714   2.254   6.956
 2345SOL    HW1 7571   1.781   2.322   6.968
 2345SOL    HW2 7572   1.763   2.177   6.928
 2346SOL     OW 7573   0.253   3.203   5.878
 2346SOL    HW1 7574   0.160   3.212   5.858
 2346SOL    HW2 7575   0.263   3.241   5.965
 2347SOL     OW 7576   0.107   2.860   7.303
 2347SOL    HW1 7577   0.046   2.853   7.377
 2347SOL    HW2 7578   0.193   2.842   7.341
 2348SOL     OW 7579   0.668   2.060   7.086
 2348SOL    HW1 7580   0.752   2.038   7.044
 2348SOL    HW2 7581   0.693   2.091   7.174
 2349SOL     OW 7582   0.081   2.178   5.624
 2349SOL    HW1 7583   3.985   2.177   5.630
 2349SOL    HW2 7584   0.101   2.258   5.576
 2350SOL     OW 7585   1.427   2.702   6.971
 2350SOL    HW1 7586   1.378   2.774   6.931
 2350SOL    HW2 7587   1.517   2.716   6.944
 2351SOL     OW 7588   0.020   2.095   5.960
 2351SOL    HW1 7589   0.044   2.159   5.893
 2351SOL    HW2 7590   0.104   2.058   5.989
 2352SOL     OW 7591   1.178   3.200   5.703
 2352SOL    HW1 7592   1.087   3.171   5.704
 2352SOL    HW2 7593   1.205   3.200   5.794
 2353SOL     OW 7594   0.620   2.691   7.022
 2353SOL    HW1 7595   0.676   2.768   7.007
 2353SOL    HW2 7596   0.682   2.618   7.031
 2354SOL     OW 7597   1.485   3.641   6.567
 2354SOL    HW1 7598   1.509   3.698   6.494
 2354SOL    HW2 7599   1.569   3.617   6.607
 2355SOL     OW 7600   0.718   2.428   7.291
 2355SOL    HW1 7601   0.761   2.492   7.348
 2355SOL    HW2 7602   0.746   2.343   7.324
 2356SOL     OW 7603   1.474   3.059   7.216
 2356SOL    HW1 7604   1.460   3.069   7.310
 2356SOL    HW2 7605   1.567   3.077   7.203
 2357SOL     OW 7606   0.378   3.607   7.145
 2357SOL    HW1 7607   0.291   3.643   7.132
 2357SOL    HW2 7608   0.364   3.524   7.191
 2358SOL     OW 7609   1.659   2.739   6.823
 2358SOL    HW1 7610   1.702   2.672   6.768
 2358SOL    HW2 7611   1.650   2.815   6.766
 2359SOL     OW 7612   0.590   2.599   6.257
 2359SOL    HW1 7613   0.628   2.686   6.242
 2359SOL    HW2 7614   0.523   2.591   6.189
 2360SOL     OW 7615   1.747   2.176   7.225
 2360SOL    HW1 7616   1.754   2.227   7.144
 2360SOL    HW2 7617   1.671   2.213   7.270
 2361SOL     OW 7618   1.770   2.827   7.056
 2361SOL    HW1 7619   1.714   2.900   7.084
 2361SOL    HW2 7620   1.729   2.796   6.975
 2362SOL     OW 7621   0.864   3.229   5.624
 2362SOL    HW1 7622   0.823   3.258   5.705
 2362SOL    HW2 7623   0.880   3.309   5.574
 2363SOL     OW 7624   0.659   3.651   6.523
 2363SOL    HW1 7625   0.637   3.742   6.503
 2363SOL    HW2 7626   0.754   3.648   6.520
 2364SOL     OW 7627   0.868   2.829   6.441
 2364SOL    HW1 7628   0.918   2.758   6.481
 2364SOL    HW2 7629   0.832   2.878   6.515
 2365SOL     OW 7630   1.077   2.849   5.675
 2365SOL    HW1 7631   1.056   2.901   5.597
 2365SOL    HW2 7632   1.153   2.797   5.649
 2366SOL     OW 7633   1.853   3.415   6.428
 2366SOL    HW1 7634   1.771   3.398   6.381
 2366SOL    HW2 7635   1.857   3.346   6.494
 2367SOL     OW 7636   0.225   3.166   7.442
 2367SOL    HW1 7637   0.153   3.109   7.416
 2367SOL    HW2 7638   0.213   3.179   7.536
 2368SOL     OW 7639   0.114   3.139   6.307
 2368SOL    HW1 7640   0.131   3.088   6.386
 2368SOL    HW2 7641   0.106   3.072   6.238
 2369SOL     OW 7642   0.682   3.266   7.215
 2369SOL    HW1 7643   0.601   3.224   7.246
 2369SOL    HW2 7644   0.678   3.354   7.252
 2370SOL     OW 7645   0.441   2.295   6.119
 2370SOL    HW1 7646   0.437   2.227   6.053
 2370SOL    HW2 7647   0.386   2.262   6.191
 2371SOL     OW 7648   1.697   3.352   6.683
 2371SOL    HW1 7649   1.618   3.328   6.635
 2371SOL    HW2 7650   1.711   3.280   6.744
 2372SOL     OW 7651   0.334   2.419   6.877
 2372SOL    HW1 7652   0.388   2.362   6.932
 2372SOL    HW2 7653   0.349   2.388   6.788
 2373SOL     OW 7654   0.828   3.441   6.263
 2373SOL    HW1 7655   0.813   3.493   6.184
 2373SOL    HW2 7656   0.753   3.381   6.266
 2374SOL     OW 7657   0.993   1.876   6.731
 2374SOL    HW1 7658   0.933   1.819   6.683
 2374SOL    HW2 7659   1.070   1.821   6.747
 2375SOL     OW 7660   0.772   3.194   5.904
 2375SOL    HW1 7661   0.742   3.104   5.909
 2375SOL    HW2 7662   0.855   3.195   5.952
 2376SOL     OW 7663   0.620   3.416   6.871
 2376SOL    HW1 7664   0.622   3.498   6.921
 2376SOL    HW2 7665   0.708   3.410   6.833
 2377SOL     OW 7666   1.354   1.919   5.753
 2377SOL    HW1 7667   1.379   1.851   5.690
 2377SOL    HW2 7668   1.269   1.889   5.787
 2378SOL     OW 7669   1.677   2.066   6.427
 2378SOL    HW1 7670   1.631   2.030   6.504
 2378SOL    HW2 7671   1.610   2.117   6.382
 2379SOL     OW 7672   0.047   2.912   5.825
 2379SOL    HW1 7673   0.141   2.896   5.817
 2379SOL    HW2 7674   0.011   2.829   5.857
 2380SOL     OW 7675   0.885   3.519   5.930
 2380SOL    HW1 7676   0.814   3.500   5.868
 2380SOL    HW2 7677   0.854   3.595   5.979
 2381SOL     OW 7678   0.231   2.486   7.568
 2381SOL    HW1 7679   0.138   2.494   7.588
 2381SOL    HW2 7680   0.233   2.455   7.477
 2382SOL     OW 7681   0.229   2.134   8.435
 2382SOL    HW1 7682   0.249   2.100   8.522
 2382SOL    HW2 7683   0.134   2.126   8.428
 2383SOL     OW 7684   0.010   2.222   8.078
 2383SOL    HW1 7685   3.922   2.240   8.111
 2383SOL    HW2 7686   3.996   2.190   7.989
 2384SOL     OW 7687   0.579   3.149   8.636
 2384SOL    HW1 7688   0.493   3.153   8.595
 2384SOL    HW2 7689   0.593   3.238   8.669
 2385SOL     OW 7690   1.562   3.374   8.157
 2385SOL    HW1 7691   1.520   3.352   8.239
 2385SOL    HW2 7692   1.491   3.377   8.093
 2386SOL     OW 7693   1.132   2.560   8.152
 2386SOL    HW1 7694   1.179   2.642   8.135
 2386SOL    HW2 7695   1.086   2.575   8.234
 2387SOL     OW 7696   0.754   3.002   8.489
 2387SOL    HW1 7697   0.690   3.037   8.550
 2387SOL    HW2 7698   0.790   3.079   8.445
 2388SOL     OW 7699   0.869   2.633   9.270
 2388SOL    HW1 7700   0.859   2.704   9.333
 2388SOL    HW2 7701   0.892   2.677   9.188
 2389SOL     OW 7702   0.685   2.864   8.094
 2389SOL    HW1 7703   0.751   2.853   8.163
 2389SOL    HW2 7704   0.616   2.916   8.136
 2390SOL     OW 7705   0.711   3.012   9.263
 2390SOL    HW1 7706   0.759   3.090   9.291
 2390SOL    HW2 7707   0.630   3.045   9.226
 2391SOL     OW 7708   0.351   3.264   8.526
 2391SOL    HW1 7709   0.269   3.248   8.479
 2391SOL    HW2 7710   0.400   3.322   8.469
 2392SOL     OW 7711   1.460   3.362   8.804
 2392SOL    HW1 7712   1.513   3.441   8.814
 2392SOL    HW2 7713   1.395   3.368   8.874
 2393SOL     OW 7714   0.450   2.261   8.937
 2393SOL    HW1 7715   0.525   2.202   8.939
 2393SOL    HW2 7716   0.374   2.205   8.949
 2394SOL     OW 7717   1.609   2.311   8.195
 2394SOL    HW1 7718   1.538   2.326   8.133
 2394SOL    HW2 7719   1.613   2.392   8.247
 2395SOL     OW 7720   0.224   3.571   7.914
 2395SOL    HW1 7721   0.225   3.654   7.963
 2395SOL    HW2 7722   0.301   3.575   7.857
 2396SOL     OW 7723   1.137   3.203   9.141
 2396SOL    HW1 7724   1.178   3.198   9.228
 2396SOL    HW2 7725   1.085   3.124   9.134
 2397SOL     OW 7726   0.249   3.306   7.988
 2397SOL    HW1 7727   0.221   3.396   7.974
 2397SOL    HW2 7728   0.179   3.267   8.040
 2398SOL     OW 7729   0.246   2.929   8.332
 2398SOL    HW1 7730   0.266   2.845   8.372
 2398SOL    HW2 7731   0.194   2.975   8.397
 2399SOL     OW 7732   0.611   3.648   8.876
 2399SOL    HW1 7733   0.529   3.634   8.923
 2399SOL    HW2 7734   0.637   3.737   8.901
 2400SOL     OW 7735   0.578   2.848   7.585
 2400SOL    HW1 7736   0.626   2.892   7.516
 2400SOL    HW2 7737   0.620   2.877   7.666
 2401SOL     OW 7738   1.586   1.992   8.909
 2401SOL    HW1 7739   1.581   2.077   8.866
 2401SOL    HW2 7740   1.579   2.011   9.003
 2402SOL     OW 7741   0.142   2.514   8.022
 2402SOL    HW1 7742   0.087   2.435   8.021
 2402SOL    HW2 7743   0.105   2.568   8.092
 2403SOL     OW 7744   1.843   3.610   7.785
 2403SOL    HW1 7745   1.910   3.587   7.849
 2403SOL    HW2 7746   1.863   3.701   7.762
 2404SOL     OW 7747   0.041   3.454   7.588
 2404SOL    HW1 7748   0.034   3.361   7.612
 2404SOL    HW2 7749   3.959   3.493   7.618
 2405SOL     OW 7750   1.683   2.793   8.104
 2405SOL    HW1 7751   1.760   2.744   8.073
 2405SOL    HW2 7752   1.653   2.842   8.028
 2406SOL     OW 7753   1.640   2.971   7.881
 2406SOL    HW1 7754   1.724   2.976   7.836
 2406SOL    HW2 7755   1.648   3.033   7.954
 2407SOL     OW 7756   0.138   2.615   9.038
 2407SOL    HW1 7757   0.234   2.609   9.035
 2407SOL    HW2 7758   0.120   2.704   9.066
 2408SOL     OW 7759   0.615   3.248   8.182
 2408SOL    HW1 7760   0.568   3.165   8.192
 2408SOL    HW2 7761   0.598   3.275   8.092
 2409SOL     OW 7762   1.288   3.099   8.871
 2409SOL    HW1 7763   1.320   3.032   8.811
 2409SOL    HW2 7764   1.346   3.094   8.946
 2410SOL     OW 7765   0.819   1.865   7.962
 2410SOL    HW1 7766   0.859   1.948   7.938
 2410SOL    HW2 7767   0.725   1.885   7.967
 2411SOL     OW 7768   0.184   2.813   8.727
 2411SOL    HW1 7769   0.272   2.778   8.714
 2411SOL    HW2 7770   0.132   2.774   8.657
 2412SOL     OW 7771   1.517   2.862   7.658
 2412SOL    HW1 7772   1.443   2.813   7.694
 2412SOL    HW2 7773   1.563   2.895   7.736
 2413SOL     OW 7774   1.215   3.665   9.075
 2413SOL    HW1 7775   1.194   3.726   9.004
 2413SOL    HW2 7776   1.217   3.579   9.033
 2414SOL     OW 7777   0.341   2.109   9.263
 2414SOL    HW1 7778   0.378   2.197   9.270
 2414SOL    HW2 7779   0.249   2.120   9.289
 2415SOL     OW 7780   1.466   3.281   8.398
 2415SOL    HW1 7781   1.399   3.297   8.464
 2415SOL    HW2 7782   1.454   3.190   8.372
 2416SOL     OW 7783   1.655   3.601   8.028
 2416SOL    HW1 7784   1.640   3.570   7.939
 2416SOL    HW2 7785   1.631   3.526   8.083
 2417SOL     OW 7786   0.596   2.578   7.713
 2417SOL    HW1 7787   0.604   2.662   7.667
 2417SOL    HW2 7788   0.534   2.595   7.783
 2418SOL     OW 7789   1.279   2.221   8.383
 2418SOL    HW1 7790   1.191   2.185   8.392
 2418SOL    HW2 7791   1.334   2.165   8.437
 2419SOL     OW 7792   1.577   3.537   7.756
 2419SOL    HW1 7793   1.669   3.562   7.750
 2419SOL    HW2 7794   1.552   3.518   7.666
 2420SOL     OW 7795   0.791   2.480   8.899
 2420SOL    HW1 7796   0.765   2.455   8.988
 2420SOL    HW2 7797   0.753   2.413   8.843
 2421SOL     OW 7798   1.393   2.335   9.125
 2421SOL    HW1 7799   1.396   2.381   9.209
 2421SOL    HW2 7800   1.457   2.264   9.135
 2422SOL     OW 7801   0.953   2.749   9.031
 2422SOL    HW1 7802   1.008   2.679   8.995
 2422SOL    HW2 7803   0.905   2.783   8.956
 2423SOL     OW 7804   0.992   2.274   8.686
 2423SOL    HW1 7805   0.905   2.294   8.720
 2423SOL    HW2 7806   0.975   2.230   8.602
 2424SOL     OW 7807   1.045   2.574   7.884
 2424SOL    HW1 7808   1.063   2.561   7.977
 2424SOL    HW2 7809   0.966   2.522   7.867
 2425SOL     OW 7810   0.082   2.690   8.238
 2425SOL    HW1 7811   0.157   2.660   8.289
 2425SOL    HW2 7812   0.098   2.783   8.224
 2426SOL     OW 7813   0.127   3.716   9.025
 2426SOL    HW1 7814   0.135   3.685   9.115
 2426SOL    HW2 7815   0.035   3.704   9.002
 2427SOL     OW 7816   0.889   2.209   7.640
 2427SOL    HW1 7817   0.934   2.274   7.586
 2427SOL    HW2 7818   0.917   2.125   7.604
 2428SOL     OW 7819   1.704   2.439   9.281
 2428SOL    HW1 7820   1.669   2.510   9.227
 2428SOL    HW2 7821   1.735   2.374   9.218
 2429SOL     OW 7822   1.378   3.006   7.991
 2429SOL    HW1 7823   1.455   2.991   7.937
 2429SOL    HW2 7824   1.323   3.065   7.940
 2430SOL     OW 7825   0.546   2.040   8.342
 2430SOL    HW1 7826   0.552   2.073   8.431
 2430SOL    HW2 7827   0.546   2.119   8.288
 2431SOL     OW 7828   1.005   3.307   7.919
 2431SOL    HW1 7829   0.967   3.380   7.870
 2431SOL    HW2 7830   0.985   3.327   8.011
 2432SOL     OW 7831   0.359   3.670   8.308
 2432SOL    HW1 7832   0.437   3.616   8.320
 2432SOL    HW2 7833   0.391   3.760   8.318
 2433SOL     OW 7834   1.801   2.920   8.319
 2433SOL    HW1 7835   1.749   2.897   8.243
 2433SOL    HW2 7836   1.738   2.926   8.391
 2434SOL     OW 7837   1.228   3.399   8.959
 2434SOL    HW1 7838   1.214   3.327   9.021
 2434SOL    HW2 7839   1.161   3.386   8.892
 2435SOL     OW 7840   0.311   2.816   7.690
 2435SOL    HW1 7841   0.395   2.839   7.650
 2435SOL    HW2 7842   0.298   2.724   7.667
 2436SOL     OW 7843   1.479   2.615   8.189
 2436SOL    HW1 7844   1.468   2.566   8.271
 2436SOL    HW2 7845   1.552   2.674   8.207
 2437SOL     OW 7846   0.467   3.122   9.185
 2437SOL    HW1 7847   0.441   3.130   9.093
 2437SOL    HW2 7848   0.385   3.126   9.234
 2438SOL     OW 7849   1.113   3.642   7.670
 2438SOL    HW1 7850   1.049   3.596   7.725
 2438SOL    HW2 7851   1.143   3.577   7.607
 2439SOL     OW 7852   0.204   2.137   8.956
 2439SOL    HW1 7853   0.114   2.169   8.948
 2439SOL    HW2 7854   0.195   2.051   8.996
 2440SOL     OW 7855   1.627   3.243   7.537
 2440SOL    HW1 7856   1.586   3.328   7.519
 2440SOL    HW2 7857   1.559   3.179   7.517
 2441SOL     OW 7858   0.468   3.601   7.769
 2441SOL    HW1 7859   0.507   3.663   7.830
 2441SOL    HW2 7860   0.541   3.572   7.714
 2442SOL     OW 7861   0.252   3.656   8.675
 2442SOL    HW1 7862   0.297   3.591   8.729
 2442SOL    HW2 7863   0.250   3.618   8.587
 2443SOL     OW 7864   0.938   3.562   8.348
 2443SOL    HW1 7865   1.015   3.510   8.369
 2443SOL    HW2 7866   0.894   3.513   8.279
 2444SOL     OW 7867   0.398   2.556   7.920
 2444SOL    HW1 7868   0.424   2.464   7.934
 2444SOL    HW2 7869   0.306   2.559   7.946
 2445SOL     OW 7870   1.537   2.086   9.173
 2445SOL    HW1 7871   1.549   2.107   9.265
 2445SOL    HW2 7872   1.466   2.021   9.173
 2446SOL     OW 7873   0.635   1.979   7.550
 2446SOL    HW1 7874   0.702   1.913   7.566
 2446SOL    HW2 7875   0.590   1.948   7.471
 2447SOL     OW 7876   0.766   2.140   9.203
 2447SOL    HW1 7877   0.843   2.084   9.201
 2447SOL    HW2 7878   0.719   2.114   9.282
 2448SOL     OW 7879   0.876   3.382   8.642
 2448SOL    HW1 7880   0.860   3.347   8.555
 2448SOL    HW2 7881   0.946   3.328   8.678
 2449SOL     OW 7882   1.341   2.451   8.880
 2449SOL    HW1 7883   1.371   2.420   8.965
 2449SOL    HW2 7884   1.376   2.539   8.873
 2450SOL     OW 7885   0.816   3.255   8.389
 2450SOL    HW1 7886   0.901   3.243   8.346
 2450SOL    HW2 7887   0.753   3.256   8.317
 2451SOL     OW 7888   0.928   2.371   8.350
 2451SOL    HW1 7889   0.904   2.364   8.258
 2451SOL    HW2 7890   0.959   2.284   8.374
 2452SOL     OW 7891   0.555   1.924   7.944
 2452SOL    HW1 7892   0.472   1.929   7.993
 2452SOL    HW2 7893   0.559   2.007   7.895
 2453SOL     OW 7894   1.430   3.060   7.488
 2453SOL    HW1 7895   1.460   2.984   7.538
 2453SOL    HW2 7896   1.343   3.079   7.523
 2454SOL     OW 7897   0.308   1.912   7.617
 2454SOL    HW1 7898   0.373   1.952   7.559
 2454SOL    HW2 7899   0.358   1.847   7.668
 2455SOL     OW 7900   0.941   2.110   7.908
 2455SOL    HW1 7901   0.911   2.152   7.827
 2455SOL    HW2 7902   1.036   2.123   7.908
 2456SOL     OW 7903   1.080   2.543   8.907
 2456SOL    HW1 7904   1.013   2.476   8.911
 2456SOL    HW2 7905   1.162   2.495   8.901
 2457SOL     OW 7906   1.222   3.433   8.242
 2457SOL    HW1 7907   1.237   3.500   8.175
 2457SOL    HW2 7908   1.291   3.447   8.307
 2458SOL     OW 7909   0.466   3.012   8.184
 2458SOL    HW1 7910   0.395   2.989   8.243
 2458SOL    HW2 7911   0.432   2.997   8.096
 2459SOL     OW 7912   1.267   3.657   8.056
 2459SOL    HW1 7913   1.313   3.721   8.002
 2459SOL    HW2 7914   1.195   3.706   8.095
 2460SOL     OW 7915   1.017   2.399   7.468
 2460SOL    HW1 7916   0.982   2.487   7.455
 2460SOL    HW2 7917   1.070   2.406   7.547
 2461SOL     OW 7918   0.081   2.434   8.838
 2461SOL    HW1 7919   0.171   2.420   8.808
 2461SOL    HW2 7920   0.088   2.504   8.903
 2462SOL     OW 7921   0.567   2.089   8.613
 2462SOL    HW1 7922   0.607   2.013   8.655
 2462SOL    HW2 7923   0.475   2.086   8.642
 2463SOL     OW 7924   0.867   2.321   8.087
 2463SOL    HW1 7925   0.822   2.375   8.023
 2463SOL    HW2 7926   0.889   2.241   8.040
 2464SOL     OW 7927   1.022   1.909   8.193
 2464SOL    HW1 7928   0.959   1.909   8.121
 2464SOL    HW2 7929   0.994   1.837   8.250
 2465SOL     OW 7930   1.437   3.024   8.305
 2465SOL    HW1 7931   1.366   2.960   8.304
 2465SOL    HW2 7932   1.461   3.034   8.212
 2466SOL     OW 7933   1.464   2.469   8.425
 2466SOL    HW1 7934   1.413   2.387   8.425
 2466SOL    HW2 7935   1.523   2.460   8.499
 2467SOL     OW 7936   1.811   2.692   7.873
 2467SOL    HW1 7937   1.892   2.647   7.897
 2467SOL    HW2 7938   1.790   2.659   7.786
 2468SOL     OW 7939   0.488   3.281   7.607
 2468SOL    HW1 7940   0.412   3.250   7.657
 2468SOL    HW2 7941   0.470   3.253   7.518
 2469SOL     OW 7942   1.673   3.128   8.093
 2469SOL    HW1 7943   1.768   3.131   8.107
 2469SOL    HW2 7944   1.643   3.217   8.115
 2470SOL     OW 7945   0.571   2.131   7.769
 2470SOL    HW1 7946   0.601   2.082   7.693
 2470SOL    HW2 7947   0.542   2.215   7.734
 2471SOL     OW 7948   1.752   3.103   9.018
 2471SOL    HW1 7949   1.839   3.063   9.015
 2471SOL    HW2 7950   1.767   3.193   9.046
 2472SOL     OW 7951   1.057   3.215   8.781
 2472SOL    HW1 7952   0.982   3.184   8.832
 2472SOL    HW2 7953   1.133   3.174   8.822
 2473SOL     OW 7954   1.609   3.488   9.104
 2473SOL    HW1 7955   1.601   3.522   9.014
 2473SOL    HW2 7956   1.692   3.440   9.104
 2474SOL     OW 7957   1.131   3.067   8.552
 2474SOL    HW1 7958   1.071   3.104   8.617
 2474SOL    HW2 7959   1.099   3.100   8.468
 2475SOL     OW 7960   1.626   2.959   8.525
 2475SOL    HW1 7961   1.621   3.022   8.597
 2475SOL    HW2 7962   1.548   2.977   8.472
 2476SOL     OW 7963   0.918   1.958   8.843
 2476SOL    HW1 7964   0.941   1.940   8.752
 2476SOL    HW2 7965   0.997   1.997   8.880
 2477SOL     OW 7966   0.984   2.977   9.171
 2477SOL    HW1 7967   0.892   2.993   9.193
 2477SOL    HW2 7968   0.982   2.899   9.115
 2478SOL     OW 7969   0.706   2.923   7.819
 2478SOL    HW1 7970   0.694   2.906   7.913
 2478SOL    HW2 7971   0.782   2.870   7.795
 2479SOL     OW 7972   0.421   2.678   8.700
 2479SOL    HW1 7973   0.490   2.686   8.767
 2479SOL    HW2 7974   0.387   2.589   8.712
 2480SOL     OW 7975   1.264   2.237   8.726
 2480SOL    HW1 7976   1.297   2.315   8.771
 2480SOL    HW2 7977   1.174   2.259   8.703
 2481SOL     OW 7978   0.065   3.441   8.794
 2481SOL    HW1 7979   0.070   3.500   8.718
 2481SOL    HW2 7980   0.156   3.429   8.820
 2482SOL     OW 7981   0.370   2.964   7.932
 2482SOL    HW1 7982   0.367   3.044   7.879
 2482SOL    HW2 7983   0.371   2.893   7.868
 2483SOL     OW 7984   0.550   2.399   8.310
 2483SOL    HW1 7985   0.565   2.455   8.234
 2483SOL    HW2 7986   0.618   2.425   8.373
 2484SOL     OW 7987   1.248   3.211   7.838
 2484SOL    HW1 7988   1.304   3.282   7.869
 2484SOL    HW2 7989   1.161   3.233   7.871
 2485SOL     OW 7990   1.283   3.321   8.595
 2485SOL    HW1 7991   1.339   3.324   8.673
 2485SOL    HW2 7992   1.227   3.244   8.609
 2486SOL     OW 7993   1.585   2.538   7.949
 2486SOL    HW1 7994   1.548   2.571   8.030
 2486SOL    HW2 7995   1.661   2.593   7.933
 2487SOL     OW 7996   0.345   3.389   8.766
 2487SOL    HW1 7997   0.335   3.339   8.685
 2487SOL    HW2 7998   0.439   3.404   8.774
 2488SOL     OW 7999   0.415   2.601   9.049
 2488SOL    HW1 8000   0.477   2.646   8.992
 2488SOL    HW2 8001   0.455   2.516   9.066
 2489SOL     OW 8002   1.603   2.642   9.130
 2489SOL    HW1 8003   1.517   2.684   9.124
 2489SOL    HW2 8004   1.655   2.684   9.062
 2490SOL     OW 8005   0.996   1.989   9.202
 2490SOL    HW1 8006   1.053   2.061   9.177
 2490SOL    HW2 8007   1.044   1.910   9.177
 2491SOL     OW 8008   0.497   1.898   9.194
 2491SOL    HW1 8009   0.453   1.845   9.127
 2491SOL    HW2 8010   0.442   1.976   9.203
 2492SOL     OW 8011   0.585   2.735   8.480
 2492SOL    HW1 8012   0.617   2.826   8.479
 2492SOL    HW2 8013   0.529   2.730   8.557
 2493SOL     OW 8014   1.355   2.721   8.476
 2493SOL    HW1 8015   1.271   2.711   8.431
 2493SOL    HW2 8016   1.396   2.634   8.470
 2494SOL     OW 8017   1.137   2.385   7.707
 2494SOL    HW1 8018   1.193   2.318   7.748
 2494SOL    HW2 8019   1.131   2.454   7.772
 2495SOL     OW 8020   0.311   2.059   8.696
 2495SOL    HW1 8021   0.264   2.096   8.770
 2495SOL    HW2 8022   0.286   1.966   8.696
 2496SOL     OW 8023   0.058   3.167   8.728
 2496SOL    HW1 8024   0.090   3.127   8.809
 2496SOL    HW2 8025   0.051   3.260   8.749
 2497SOL     OW 8026   0.724   2.493   8.505
 2497SOL    HW1 8027   0.799   2.477   8.447
 2497SOL    HW2 8028   0.696   2.582   8.484
 2498SOL     OW 8029   1.736   2.821   9.302
 2498SOL    HW1 8030   1.691   2.757   9.247
 2498SOL    HW2 8031   1.675   2.836   9.375
 2499SOL     OW 8032   0.313   1.924   8.068
 2499SOL    HW1 8033   0.292   2.015   8.089
 2499SOL    HW2 8034   0.319   1.881   8.153
 2500SOL     OW 8035   1.028   2.621   8.408
 2500SOL    HW1 8036   1.023   2.638   8.502
 2500SOL    HW2 8037   1.001   2.529   8.399
 2501SOL     OW 8038   0.985   3.429   9.168
 2501SOL    HW1 8039   0.967   3.471   9.084
 2501SOL    HW2 8040   1.027   3.347   9.144
 2502SOL     OW 8041   1.854   3.366   9.052
 2502SOL    HW1 8042   1.873   3.394   8.963
 2502SOL    HW2 8043   1.935   3.384   9.101
 2503SOL     OW 8044   0.352   2.783   9.249
 2503SOL    HW1 8045   0.431   2.804   9.299
 2503SOL    HW2 8046   0.381   2.716   9.186
 2504SOL     OW 8047   1.287   2.702   7.485
 2504SOL    HW1 8048   1.329   2.616   7.489
 2504SOL    HW2 8049   1.314   2.738   7.401
 2505SOL     OW 8050   1.066   3.198   8.303
 2505SOL    HW1 8051   1.070   3.126   8.240
 2505SOL    HW2 8052   1.127   3.264   8.267
 2506SOL     OW 8053   0.313   2.665   8.398
 2506SOL    HW1 8054   0.407   2.683   8.391
 2506SOL    HW2 8055   0.308   2.575   8.430
 2507SOL     OW 8056   0.330   2.382   8.462
 2507SOL    HW1 8057   0.296   2.294   8.445
 2507SOL    HW2 8058   0.406   2.390   8.405
 2508SOL     OW 8059   1.134   2.236   9.132
 2508SOL    HW1 8060   1.087   2.292   9.193
 2508SOL    HW2 8061   1.222   2.275   9.128
 2509SOL     OW 8062   1.160   2.063   8.919
 2509SOL    HW1 8063   1.150   2.126   8.990
 2509SOL    HW2 8064   1.201   2.114   8.848
 2510SOL     OW 8065   4.000   3.181   7.630
 2510SOL    HW1 8066   3.905   3.196   7.634
 2510SOL    HW2 8067   0.009   3.087   7.648
 2511SOL     OW 8068   0.076   3.663   8.343
 2511SOL    HW1 8069   0.089   3.568   8.342
 2511SOL    HW2 8070   0.164   3.700   8.341
 2512SOL     OW 8071   0.507   3.426   8.364
 2512SOL    HW1 8072   0.573   3.492   8.384
 2512SOL    HW2 8073   0.550   3.367   8.302
 2513SOL     OW 8074   0.980   2.653   8.674
 2513SOL    HW1 8075   1.037   2.631   8.748
 2513SOL    HW2 8076   0.896   2.615   8.697
 2514SOL     OW 8077   0.037   2.418   8.558
 2514SOL    HW1 8078   0.120   2.395   8.515
 2514SOL    HW2 8079   0.057   2.415   8.651
 2515SOL     OW 8080   0.207   2.375   9.175
 2515SOL    HW1 8081   0.247   2.329   9.102
 2515SOL    HW2 8082   0.159   2.448   9.135
 2516SOL     OW 8083   1.378   2.800   9.106
 2516SOL    HW1 8084   1.399   2.893   9.103
 2516SOL    HW2 8085   1.375   2.773   9.014
 2517SOL     OW 8086   0.817   2.431   7.813
 2517SOL    HW1 8087   0.826   2.358   7.752
 2517SOL    HW2 8088   0.745   2.483   7.778
 2518SOL     OW 8089   1.644   2.464   8.631
 2518SOL    HW1 8090   1.633   2.409   8.708
 2518SOL    HW2 8091   1.730   2.440   8.597
 2519SOL     OW 8092   0.299   3.408   9.175
 2519SOL    HW1 8093   0.250   3.477   9.219
 2519SOL    HW2 8094   0.267   3.327   9.215
 2520SOL     OW 8095   0.705   2.312   8.706
 2520SOL    HW1 8096   0.652   2.238   8.676
 2520SOL    HW2 8097   0.700   2.375   8.634
 2521SOL     OW 8098   0.928   3.534   8.917
 2521SOL    HW1 8099   0.901   3.497   8.833
 2521SOL    HW2 8100   0.920   3.629   8.905
 2522SOL     OW 8101   0.456   2.351   7.643
 2522SOL    HW1 8102   0.521   2.419   7.660
 2522SOL    HW2 8103   0.376   2.400   7.621
 2523SOL     OW 8104   0.156   2.997   8.923
 2523SOL    HW1 8105   0.157   2.946   9.004
 2523SOL    HW2 8106   0.171   2.933   8.854
 2524SOL     OW 8107   1.325   2.908   8.670
 2524SOL    HW1 8108   1.347   2.844   8.602
 2524SOL    HW2 8109   1.256   2.962   8.631
 2525SOL     OW 8110   1.291   2.744   7.763
 2525SOL    HW1 8111   1.224   2.697   7.813
 2525SOL    HW2 8112   1.276   2.719   7.672
 2526SOL     OW 8113   1.771   3.604   8.598
 2526SOL    HW1 8114   1.833   3.631   8.531
 2526SOL    HW2 8115   1.749   3.513   8.575
 2527SOL     OW 8116   1.244   3.595   8.558
 2527SOL    HW1 8117   1.326   3.616   8.515
 2527SOL    HW2 8118   1.250   3.502   8.577
 2528SOL     OW 8119   0.076   3.076   8.476
 2528SOL    HW1 8120   0.082   3.104   8.568
 2528SOL    HW2 8121   3.983   3.087   8.455
 2529SOL     OW 8122   0.679   3.526   9.180
 2529SOL    HW1 8123   0.622   3.603   9.183
 2529SOL    HW2 8124   0.739   3.545   9.107
 2530SOL     OW 8125   1.659   2.000   7.931
 2530SOL    HW1 8126   1.739   1.985   7.881
 2530SOL    HW2 8127   1.643   1.916   7.975
 2531SOL     OW 8128   1.391   3.431   7.935
 2531SOL    HW1 8129   1.450   3.464   7.867
 2531SOL    HW2 8130   1.342   3.508   7.964
 2532SOL     OW 8131   0.169   3.624   9.279
 2532SOL    HW1 8132   0.114   3.572   9.337
 2532SOL    HW2 8133   0.216   3.683   9.338
 2533SOL     OW 8134   1.275   2.790   8.120
 2533SOL    HW1 8135   1.350   2.730   8.130
 2533SOL    HW2 8136   1.309   2.861   8.065
 2534SOL     OW 8137   0.812   3.136   8.877
 2534SOL    HW1 8138   0.783   3.176   8.959
 2534SOL    HW2 8139   0.741   3.155   8.815
 2535SOL     OW 8140   0.674   3.479   7.606
 2535SOL    HW1 8141   0.683   3.495   7.512
 2535SOL    HW2 8142   0.616   3.403   7.612
 2536SOL     OW 8143   1.623   3.588   8.838
 2536SOL    HW1 8144   1.675   3.594   8.757
 2536SOL    HW2 8145   1.610   3.679   8.864
 2537SOL     OW 8146   0.267   2.175   8.164
 2537SOL    HW1 8147   0.181   2.208   8.138
 2537SOL    HW2 8148   0.261   2.166   8.260
 2538SOL     OW 8149   1.208   3.467   7.484
 2538SOL    HW1 8150   1.197   3.375   7.508
 2538SOL    HW2 8151   1.147   3.480   7.411
 2539SOL     OW 8152   0.823   2.868   8.821
 2539SOL    HW1 8153   0.868   2.863   8.736
 2539SOL    HW2 8154   0.822   2.961   8.842
 2540SOL     OW 8155   0.912   2.774   7.737
 2540SOL    HW1 8156   0.973   2.806   7.671
 2540SOL    HW2 8157   0.962   2.708   7.786
 2541SOL     OW 8158   1.490   3.491   7.490
 2541SOL    HW1 8159   1.396   3.480   7.474
 2541SOL    HW2 8160   1.528   3.496   7.403
 2542SOL     OW 8161   0.374   3.165   8.939
 2542SOL    HW1 8162   0.359   3.245   8.889
 2542SOL    HW2 8163   0.297   3.111   8.922
 2543SOL     OW 8164   1.610   3.145   8.728
 2543SOL    HW1 8165   1.670   3.133   8.802
 2543SOL    HW2 8166   1.550   3.213   8.757
 2544SOL     OW 8167   1.054   2.971   8.156
 2544SOL    HW1 8168   0.982   2.919   8.194
 2544SOL    HW2 8169   1.117   2.906   8.125
 2545SOL     OW 8170   1.023   2.102   8.413
 2545SOL    HW1 8171   1.020   2.055   8.330
 2545SOL    HW2 8172   1.017   2.033   8.480
 2546SOL     OW 8173   0.605   3.352   7.929
 2546SOL    HW1 8174   0.651   3.302   7.861
 2546SOL    HW2 8175   0.534   3.396   7.882
 2547SOL     OW 8176   1.726   2.251   8.822
 2547SOL    HW1 8177   1.798   2.314   8.830
 2547SOL    HW2 8178   1.759   2.183   8.765
 2548SOL     OW 8179   0.253   3.203   7.739
 2548SOL    HW1 8180   0.160   3.212   7.720
 2548SOL    HW2 8181   0.263   3.241   7.827
 2549SOL     OW 8182   0.107   2.860   9.165
 2549SOL    HW1 8183   0.046   2.853   9.239
 2549SOL    HW2 8184   0.193   2.842   9.203
 2550SOL     OW 8185   0.675   2.058   8.948
 2550SOL    HW1 8186   0.759   2.037   8.907
 2550SOL    HW2 8187   0.698   2.090   9.035
 2551SOL     OW 8188   0.080   2.177   7.485
 2551SOL    HW1 8189   3.985   2.178   7.492
 2551SOL    HW2 8190   0.101   2.258   7.438
 2552SOL     OW 8191   1.428   2.720   8.847
 2552SOL    HW1 8192   1.380   2.781   8.792
 2552SOL    HW2 8193   1.518   2.723   8.814
 2553SOL     OW 8194   0.018   2.094   7.824
 2553SOL    HW1 8195   0.043   2.159   7.757
 2553SOL    HW2 8196   0.101   2.056   7.852
 2554SOL     OW 8197   1.178   3.200   7.565
 2554SOL    HW1 8198   1.088   3.169   7.566
 2554SOL    HW2 8199   1.206   3.199   7.656
 2555SOL     OW 8200   0.619   2.692   8.884
 2555SOL    HW1 8201   0.675   2.768   8.868
 2555SOL    HW2 8202   0.680   2.619   8.892
 2556SOL     OW 8203   1.485   3.640   8.429
 2556SOL    HW1 8204   1.509   3.698   8.356
 2556SOL    HW2 8205   1.569   3.619   8.470
 2557SOL     OW 8206   0.716   2.425   9.152
 2557SOL    HW1 8207   0.760   2.487   9.211
 2557SOL    HW2 8208   0.743   2.339   9.185
 2558SOL     OW 8209   1.473   3.060   9.079
 2558SOL    HW1 8210   1.460   3.074   9.173
 2558SOL    HW2 8211   1.566   3.077   9.064
 2559SOL     OW 8212   0.378   3.607   9.007
 2559SOL    HW1 8213   0.291   3.642   8.994
 2559SOL    HW2 8214   0.364   3.524   9.053
 2560SOL     OW 8215   1.669   2.743   8.703
 2560SOL    HW1 8216   1.662   2.658   8.660
 2560SOL    HW2 8217   1.658   2.806   8.632
 2561SOL     OW 8218   1.222   2.174   7.908
 2561SOL    HW1 8219   1.307   2.141   7.882
 2561SOL    HW2 8220   1.239   2.229   7.985
 2562SOL     OW 8221   0.588   2.600   8.121
 2562SOL    HW1 8222   0.628   2.686   8.104
 2562SOL    HW2 8223   0.522   2.591   8.052
 2563SOL     OW 8224   1.755   2.243   9.098
 2563SOL    HW1 8225   1.739   2.246   9.003
 2563SOL    HW2 8226   1.694   2.177   9.130
 2564SOL     OW 8227   1.744   2.797   8.959
 2564SOL    HW1 8228   1.740   2.892   8.972
 2564SOL    HW2 8229   1.729   2.784   8.866
 2565SOL     OW 8230   0.862   3.229   7.485
 2565SOL    HW1 8231   0.822   3.258   7.567
 2565SOL    HW2 8232   0.879   3.310   7.436
 2566SOL     OW 8233   0.659   3.651   8.385
 2566SOL    HW1 8234   0.637   3.742   8.365
 2566SOL    HW2 8235   0.754   3.648   8.382
 2567SOL     OW 8236   0.868   2.829   8.302
 2567SOL    HW1 8237   0.918   2.758   8.341
 2567SOL    HW2 8238   0.833   2.877   8.377
 2568SOL     OW 8239   1.070   2.854   7.535
 2568SOL    HW1 8240   1.053   2.905   7.455
 2568SOL    HW2 8241   1.148   2.803   7.514
 2569SOL     OW 8242   1.852   3.413   8.290
 2569SOL    HW1 8243   1.771   3.403   8.239
 2569SOL    HW2 8244   1.842   3.351   8.362
 2570SOL     OW 8245   0.226   3.166   9.304
 2570SOL    HW1 8246   0.153   3.110   9.278
 2570SOL    HW2 8247   0.213   3.179   9.398
 2571SOL     OW 8248   0.113   3.138   8.169
 2571SOL    HW1 8249   0.132   3.088   8.248
 2571SOL    HW2 8250   0.105   3.072   8.100
 2572SOL     OW 8251   0.682   3.265   9.078
 2572SOL    HW1 8252   0.601   3.224   9.108
 2572SOL    HW2 8253   0.678   3.354   9.114
 2573SOL     OW 8254   0.440   2.297   7.981
 2573SOL    HW1 8255   0.446   2.226   7.917
 2573SOL    HW2 8256   0.385   2.261   8.051
 2574SOL     OW 8257   1.701   3.349   8.540
 2574SOL    HW1 8258   1.619   3.327   8.495
 2574SOL    HW2 8259   1.710   3.281   8.607
 2575SOL     OW 8260   0.334   2.418   8.740
 2575SOL    HW1 8261   0.388   2.362   8.794
 2575SOL    HW2 8262   0.349   2.388   8.650
 2576SOL     OW 8263   0.827   3.441   8.125
 2576SOL    HW1 8264   0.813   3.493   8.046
 2576SOL    HW2 8265   0.753   3.381   8.128
 2577SOL     OW 8266   1.437   2.092   8.569
 2577SOL    HW1 8267   1.447   2.004   8.607
 2577SOL    HW2 8268   1.381   2.138   8.631
 2578SOL     OW 8269   1.009   1.879   8.588
 2578SOL    HW1 8270   0.955   1.812   8.548
 2578SOL    HW2 8271   1.097   1.841   8.590
 2579SOL     OW 8272   0.772   3.195   7.767
 2579SOL    HW1 8273   0.741   3.104   7.771
 2579SOL    HW2 8274   0.855   3.194   7.813
 2580SOL     OW 8275   0.620   3.416   8.733
 2580SOL    HW1 8276   0.622   3.498   8.783
 2580SOL    HW2 8277   0.708   3.410   8.695
 2581SOL     OW 8278   1.291   2.324   8.127
 2581SOL    HW1 8279   1.239   2.404   8.135
 2581SOL    HW2 8280   1.290   2.286   8.215
 2582SOL     OW 8281   1.566   2.050   8.320
 2582SOL    HW1 8282   1.532   2.082   8.404
 2582SOL    HW2 8283   1.589   2.129   8.272
 2583SOL     OW 8284   0.047   2.912   7.687
 2583SOL    HW1 8285   0.141   2.896   7.678
 2583SOL    HW2 8286   0.012   2.830   7.720
 2584SOL     OW 8287   0.885   3.519   7.792
 2584SOL    HW1 8288   0.814   3.500   7.730
 2584SOL    HW2 8289   0.854   3.595   7.841
 2585SOL     OW 8290   0.231   2.485   9.430
 2585SOL    HW1 8291   0.138   2.494   9.450
 2585SOL    HW2 8292   0.233   2.455   9.339
 2586SOL     OW 8293   0.229   2.134  10.297
 2586SOL    HW1 8294   0.249   2.100  10.384
 2586SOL    HW2 8295   0.134   2.126  10.290
 2587SOL     OW 8296   0.010   2.222   9.940
 2587SOL    HW1 8297   3.922   2.240   9.974
 2587SOL    HW2 8298   3.996   2.190   9.851
 2588SOL     OW 8299   0.579   3.149  10.498
 2588SOL    HW1 8300   0.493   3.153  10.457
 2588SOL    HW2 8301   0.593   3.238  10.531
 2589SOL     OW 8302   1.563   3.373  10.018
 2589SOL    HW1 8303   1.520   3.352  10.101
 2589SOL    HW2 8304   1.491   3.376   9.955
 2590SOL     OW 8305   1.131   2.560  10.009
 2590SOL    HW1 8306   1.180   2.641   9.996
 2590SOL    HW2 8307   1.084   2.573  10.091
 2591SOL     OW 8308   1.774   2.466   9.538
 2591SOL    HW1 8309   1.749   2.462   9.446
 2591SOL    HW2 8310   1.737   2.386   9.577
 2592SOL     OW 8311   0.754   3.002  10.351
 2592SOL    HW1 8312   0.689   3.037  10.412
 2592SOL    HW2 8313   0.790   3.079  10.307
 2593SOL     OW 8314   0.869   2.633  11.132
 2593SOL    HW1 8315   0.859   2.704  11.196
 2593SOL    HW2 8316   0.892   2.677  11.050
 2594SOL     OW 8317   0.685   2.864   9.956
 2594SOL    HW1 8318   0.751   2.853  10.025
 2594SOL    HW2 8319   0.616   2.916   9.998
 2595SOL     OW 8320   0.711   3.012  11.125
 2595SOL    HW1 8321   0.759   3.090  11.153
 2595SOL    HW2 8322   0.630   3.045  11.088
 2596SOL     OW 8323   0.351   3.264  10.388
 2596SOL    HW1 8324   0.268   3.249  10.341
 2596SOL    HW2 8325   0.400   3.322  10.331
 2597SOL     OW 8326   1.460   3.362  10.666
 2597SOL    HW1 8327   1.513   3.441  10.676
 2597SOL    HW2 8328   1.395   3.368  10.736
 2598SOL     OW 8329   0.450   2.261  10.798
 2598SOL    HW1 8330   0.525   2.202  10.801
 2598SOL    HW2 8331   0.374   2.205  10.811
 2599SOL     OW 8332   1.605   2.307  10.048
 2599SOL    HW1 8333   1.523   2.327  10.003
 2599SOL    HW2 8334   1.621   2.382  10.105
 2600SOL     OW 8335   0.224   3.571   9.776
 2600SOL    HW1 8336   0.225   3.653   9.825
 2600SOL    HW2 8337   0.301   3.575   9.719
 2601SOL     OW 8338   1.137   3.203  11.003
 2601SOL    HW1 8339   1.178   3.198  11.090
 2601SOL    HW2 8340   1.085   3.124  10.996
 2602SOL     OW 8341   0.249   3.306   9.850
 2602SOL    HW1 8342   0.221   3.396   9.836
 2602SOL    HW2 8343   0.179   3.267   9.903
 2603SOL     OW 8344   0.247   2.929  10.194
 2603SOL    HW1 8345   0.266   2.845  10.234
 2603SOL    HW2 8346   0.194   2.976  10.259
 2604SOL     OW 8347   0.611   3.648  10.738
 2604SOL    HW1 8348   0.529   3.634  10.784
 2604SOL    HW2 8349   0.637   3.737  10.762
 2605SOL     OW 8350   0.579   2.847   9.448
 2605SOL    HW1 8351   0.626   2.893   9.378
 2605SOL    HW2 8352   0.620   2.877   9.529
 2606SOL     OW 8353   1.589   1.991  10.773
 2606SOL    HW1 8354   1.585   2.076  10.729
 2606SOL    HW2 8355   1.581   2.012  10.866
 2607SOL     OW 8356   0.142   2.513   9.884
 2607SOL    HW1 8357   0.087   2.435   9.883
 2607SOL    HW2 8358   0.106   2.568   9.954
 2608SOL     OW 8359   1.842   3.610   9.648
 2608SOL    HW1 8360   1.910   3.586   9.711
 2608SOL    HW2 8361   1.863   3.701   9.624
 2609SOL     OW 8362   0.041   3.453   9.450
 2609SOL    HW1 8363   0.034   3.361   9.474
 2609SOL    HW2 8364   3.960   3.493   9.481
 2610SOL     OW 8365   1.689   2.780   9.952
 2610SOL    HW1 8366   1.771   2.737   9.930
 2610SOL    HW2 8367   1.666   2.831   9.874
 2611SOL     OW 8368   1.647   2.967   9.739
 2611SOL    HW1 8369   1.733   2.972   9.697
 2611SOL    HW2 8370   1.652   3.030   9.812
 2612SOL     OW 8371   0.138   2.615  10.900
 2612SOL    HW1 8372   0.234   2.609  10.898
 2612SOL    HW2 8373   0.120   2.704  10.928
 2613SOL     OW 8374   0.615   3.248  10.044
 2613SOL    HW1 8375   0.568   3.165  10.054
 2613SOL    HW2 8376   0.598   3.275   9.954
 2614SOL     OW 8377   1.288   3.099  10.733
 2614SOL    HW1 8378   1.320   3.032  10.673
 2614SOL    HW2 8379   1.346   3.094  10.808
 2615SOL     OW 8380   0.819   1.862   9.821
 2615SOL    HW1 8381   0.859   1.946   9.800
 2615SOL    HW2 8382   0.725   1.881   9.827
 2616SOL     OW 8383   0.184   2.813  10.589
 2616SOL    HW1 8384   0.272   2.778  10.575
 2616SOL    HW2 8385   0.132   2.773  10.519
 2617SOL     OW 8386   1.531   2.857   9.509
 2617SOL    HW1 8387   1.462   2.800   9.541
 2617SOL    HW2 8388   1.573   2.891   9.588
 2618SOL     OW 8389   1.215   3.665  10.937
 2618SOL    HW1 8390   1.194   3.726  10.866
 2618SOL    HW2 8391   1.217   3.579  10.895
 2619SOL     OW 8392   0.341   2.109  11.125
 2619SOL    HW1 8393   0.378   2.197  11.133
 2619SOL    HW2 8394   0.249   2.120  11.151
 2620SOL     OW 8395   1.466   3.282  10.260
 2620SOL    HW1 8396   1.399   3.297  10.326
 2620SOL    HW2 8397   1.454   3.190  10.234
 2621SOL     OW 8398   1.654   3.601   9.891
 2621SOL    HW1 8399   1.640   3.570   9.801
 2621SOL    HW2 8400   1.631   3.526   9.945
 2622SOL     OW 8401   0.596   2.579   9.575
 2622SOL    HW1 8402   0.602   2.663   9.529
 2622SOL    HW2 8403   0.533   2.595   9.645
 2623SOL     OW 8404   1.279   2.220  10.244
 2623SOL    HW1 8405   1.190   2.185  10.254
 2623SOL    HW2 8406   1.333   2.164  10.299
 2624SOL     OW 8407   1.577   3.537   9.618
 2624SOL    HW1 8408   1.670   3.561   9.613
 2624SOL    HW2 8409   1.552   3.517   9.528
 2625SOL     OW 8410   0.791   2.480  10.761
 2625SOL    HW1 8411   0.765   2.455  10.850
 2625SOL    HW2 8412   0.753   2.413  10.705
 2626SOL     OW 8413   1.394   2.335  10.987
 2626SOL    HW1 8414   1.397   2.380  11.071
 2626SOL    HW2 8415   1.457   2.263  10.996
 2627SOL     OW 8416   0.953   2.749  10.893
 2627SOL    HW1 8417   1.008   2.679  10.857
 2627SOL    HW2 8418   0.905   2.783  10.818
 2628SOL     OW 8419   0.992   2.274  10.548
 2628SOL    HW1 8420   0.906   2.294  10.582
 2628SOL    HW2 8421   0.976   2.229  10.465
 2629SOL     OW 8422   1.052   2.560   9.736
 2629SOL    HW1 8423   1.068   2.553   9.830
 2629SOL    HW2 8424   0.970   2.514   9.722
 2630SOL     OW 8425   0.082   2.690  10.100
 2630SOL    HW1 8426   0.158   2.660  10.151
 2630SOL    HW2 8427   0.098   2.783  10.086
 2631SOL     OW 8428   0.127   3.716  10.887
 2631SOL    HW1 8429   0.135   3.685  10.977
 2631SOL    HW2 8430   0.035   3.704  10.864
 2632SOL     OW 8431   0.896   2.211   9.503
 2632SOL    HW1 8432   0.935   2.274   9.442
 2632SOL    HW2 8433   0.913   2.126   9.464
 2633SOL     OW 8434   1.705   2.438  11.143
 2633SOL    HW1 8435   1.669   2.509  11.089
 2633SOL    HW2 8436   1.736   2.373  11.080
 2634SOL     OW 8437   1.378   3.004   9.851
 2634SOL    HW1 8438   1.457   2.991   9.798
 2634SOL    HW2 8439   1.325   3.066   9.801
 2635SOL     OW 8440   0.546   2.040  10.204
 2635SOL    HW1 8441   0.552   2.072  10.294
 2635SOL    HW2 8442   0.546   2.120  10.150
 2636SOL     OW 8443   1.004   3.307   9.781
 2636SOL    HW1 8444   0.967   3.380   9.732
 2636SOL    HW2 8445   0.985   3.327   9.873
 2637SOL     OW 8446   0.359   3.670  10.170
 2637SOL    HW1 8447   0.437   3.616  10.182
 2637SOL    HW2 8448   0.390   3.760  10.180
 2638SOL     OW 8449   1.800   2.916  10.179
 2638SOL    HW1 8450   1.746   2.898  10.102
 2638SOL    HW2 8451   1.737   2.923  10.251
 2639SOL     OW 8452   1.228   3.399  10.821
 2639SOL    HW1 8453   1.214   3.327  10.883
 2639SOL    HW2 8454   1.160   3.386  10.754
 2640SOL     OW 8455   0.311   2.816   9.552
 2640SOL    HW1 8456   0.394   2.839   9.512
 2640SOL    HW2 8457   0.297   2.724   9.529
 2641SOL     OW 8458   1.480   2.605  10.035
 2641SOL    HW1 8459   1.473   2.564  10.121
 2641SOL    HW2 8460   1.558   2.661  10.042
 2642SOL     OW 8461   0.467   3.122  11.047
 2642SOL    HW1 8462   0.441   3.130  10.955
 2642SOL    HW2 8463   0.385   3.126  11.096
 2643SOL     OW 8464   1.113   3.643   9.532
 2643SOL    HW1 8465   1.049   3.596   9.587
 2643SOL    HW2 8466   1.143   3.577   9.469
 2644SOL     OW 8467   0.204   2.137  10.818
 2644SOL    HW1 8468   0.114   2.169  10.810
 2644SOL    HW2 8469   0.195   2.051  10.858
 2645SOL     OW 8470   1.628   3.243   9.400
 2645SOL    HW1 8471   1.587   3.328   9.382
 2645SOL    HW2 8472   1.559   3.179   9.379
 2646SOL     OW 8473   0.468   3.601   9.631
 2646SOL    HW1 8474   0.507   3.663   9.692
 2646SOL    HW2 8475   0.541   3.573   9.576
 2647SOL     OW 8476   1.398   1.969   9.741
 2647SOL    HW1 8477   1.382   1.946   9.650
 2647SOL    HW2 8478   1.490   1.947   9.756
 2648SOL     OW 8479   0.252   3.656  10.537
 2648SOL    HW1 8480   0.297   3.591  10.591
 2648SOL    HW2 8481   0.250   3.618  10.450
 2649SOL     OW 8482   0.937   3.562  10.210
 2649SOL    HW1 8483   1.015   3.510  10.232
 2649SOL    HW2 8484   0.894   3.513  10.141
 2650SOL     OW 8485   0.398   2.555   9.782
 2650SOL    HW1 8486   0.424   2.464   9.796
 2650SOL    HW2 8487   0.306   2.559   9.808
 2651SOL     OW 8488   1.537   2.086  11.035
 2651SOL    HW1 8489   1.549   2.107  11.127
 2651SOL    HW2 8490   1.466   2.021  11.035
 2652SOL     OW 8491   0.640   1.981   9.408
 2652SOL    HW1 8492   0.703   1.912   9.427
 2652SOL    HW2 8493   0.591   1.949   9.332
 2653SOL     OW 8494   0.766   2.140  11.064
 2653SOL    HW1 8495   0.843   2.085  11.063
 2653SOL    HW2 8496   0.719   2.114  11.144
 2654SOL     OW 8497   0.876   3.382  10.504
 2654SOL    HW1 8498   0.860   3.346  10.417
 2654SOL    HW2 8499   0.946   3.328  10.540
 2655SOL     OW 8500   1.340   2.451  10.742
 2655SOL    HW1 8501   1.371   2.419  10.827
 2655SOL    HW2 8502   1.376   2.539  10.735
 2656SOL     OW 8503   0.816   3.255  10.251
 2656SOL    HW1 8504   0.901   3.243  10.208
 2656SOL    HW2 8505   0.753   3.256  10.179
 2657SOL     OW 8506   0.928   2.371  10.212
 2657SOL    HW1 8507   0.905   2.363  10.120
 2657SOL    HW2 8508   0.959   2.284  10.237
 2658SOL     OW 8509   0.555   1.924   9.806
 2658SOL    HW1 8510   0.473   1.929   9.855
 2658SOL    HW2 8511   0.559   2.007   9.758
 2659SOL     OW 8512   1.428   3.061   9.350
 2659SOL    HW1 8513   1.458   2.985   9.401
 2659SOL    HW2 8514   1.342   3.082   9.388
 2660SOL     OW 8515   0.308   1.913   9.480
 2660SOL    HW1 8516   0.372   1.951   9.420
 2660SOL    HW2 8517   0.357   1.848   9.529
 2661SOL     OW 8518   0.939   2.109   9.770
 2661SOL    HW1 8519   0.910   2.149   9.688
 2661SOL    HW2 8520   1.034   2.125   9.772
 2662SOL     OW 8521   1.080   2.543  10.769
 2662SOL    HW1 8522   1.013   2.476  10.774
 2662SOL    HW2 8523   1.162   2.495  10.763
 2663SOL     OW 8524   1.222   3.432  10.104
 2663SOL    HW1 8525   1.238   3.500  10.038
 2663SOL    HW2 8526   1.291   3.446  10.169
 2664SOL     OW 8527   0.467   3.012  10.046
 2664SOL    HW1 8528   0.395   2.989  10.105
 2664SOL    HW2 8529   0.432   2.997   9.958
 2665SOL     OW 8530   1.267   3.657   9.917
 2665SOL    HW1 8531   1.313   3.721   9.864
 2665SOL    HW2 8532   1.195   3.706   9.957
 2666SOL     OW 8533   1.023   2.402   9.334
 2666SOL    HW1 8534   0.980   2.485   9.314
 2666SOL    HW2 8535   1.089   2.424   9.400
 2667SOL     OW 8536   0.081   2.434  10.700
 2667SOL    HW1 8537   0.171   2.421  10.670
 2667SOL    HW2 8538   0.088   2.503  10.765
 2668SOL     OW 8539   0.567   2.089  10.475
 2668SOL    HW1 8540   0.608   2.013  10.517
 2668SOL    HW2 8541   0.475   2.086  10.504
 2669SOL     OW 8542   0.868   2.321   9.950
 2669SOL    HW1 8543   0.820   2.374   9.887
 2669SOL    HW2 8544   0.888   2.240   9.902
 2670SOL     OW 8545   1.016   1.915  10.061
 2670SOL    HW1 8546   0.958   1.910   9.985
 2670SOL    HW2 8547   0.993   1.840  10.115
 2671SOL     OW 8548   1.438   3.024  10.167
 2671SOL    HW1 8549   1.368   2.959  10.167
 2671SOL    HW2 8550   1.462   3.034  10.075
 2672SOL     OW 8551   1.465   2.468  10.284
 2672SOL    HW1 8552   1.412   2.389  10.287
 2672SOL    HW2 8553   1.524   2.461  10.359
 2673SOL     OW 8554   1.844   2.677   9.694
 2673SOL    HW1 8555   1.903   2.628   9.751
 2673SOL    HW2 8556   1.818   2.614   9.627
 2674SOL     OW 8557   0.488   3.280   9.469
 2674SOL    HW1 8558   0.413   3.250   9.520
 2674SOL    HW2 8559   0.469   3.254   9.379
 2675SOL     OW 8560   1.672   3.126   9.954
 2675SOL    HW1 8561   1.767   3.128   9.968
 2675SOL    HW2 8562   1.642   3.214   9.976
 2676SOL     OW 8563   1.393   2.435   9.380
 2676SOL    HW1 8564   1.334   2.414   9.452
 2676SOL    HW2 8565   1.479   2.405   9.409
 2677SOL     OW 8566   0.574   2.130   9.630
 2677SOL    HW1 8567   0.603   2.083   9.552
 2677SOL    HW2 8568   0.541   2.214   9.596
 2678SOL     OW 8569   1.752   3.103  10.880
 2678SOL    HW1 8570   1.839   3.063  10.877
 2678SOL    HW2 8571   1.767   3.193  10.908
 2679SOL     OW 8572   1.057   3.214  10.642
 2679SOL    HW1 8573   0.982   3.184  10.694
 2679SOL    HW2 8574   1.133   3.174  10.684
 2680SOL     OW 8575   1.609   3.488  10.966
 2680SOL    HW1 8576   1.602   3.522  10.876
 2680SOL    HW2 8577   1.692   3.440  10.966
 2681SOL     OW 8578   1.131   3.067  10.414
 2681SOL    HW1 8579   1.072   3.104  10.479
 2681SOL    HW2 8580   1.098   3.100  10.330
 2682SOL     OW 8581   1.627   2.960  10.386
 2682SOL    HW1 8582   1.622   3.022  10.459
 2682SOL    HW2 8583   1.549   2.977  10.335
 2683SOL     OW 8584   0.918   1.958  10.705
 2683SOL    HW1 8585   0.941   1.939  10.614
 2683SOL    HW2 8586   0.997   1.997  10.742
 2684SOL     OW 8587   0.984   2.977  11.033
 2684SOL    HW1 8588   0.892   2.993  11.055
 2684SOL    HW2 8589   0.982   2.899  10.977
 2685SOL     OW 8590   0.708   2.922   9.681
 2685SOL    HW1 8591   0.694   2.906   9.774
 2685SOL    HW2 8592   0.784   2.869   9.658
 2686SOL     OW 8593   0.421   2.678  10.562
 2686SOL    HW1 8594   0.490   2.686  10.629
 2686SOL    HW2 8595   0.387   2.589  10.574
 2687SOL     OW 8596   1.265   2.237  10.587
 2687SOL    HW1 8597   1.297   2.315  10.633
 2687SOL    HW2 8598   1.174   2.259  10.564
 2688SOL     OW 8599   0.065   3.441  10.656
 2688SOL    HW1 8600   0.070   3.500  10.580
 2688SOL    HW2 8601   0.156   3.429  10.682
 2689SOL     OW 8602   0.371   2.964   9.793
 2689SOL    HW1 8603   0.366   3.044   9.741
 2689SOL    HW2 8604   0.371   2.893   9.729
 2690SOL     OW 8605   0.550   2.399  10.171
 2690SOL    HW1 8606   0.565   2.455  10.096
 2690SOL    HW2 8607   0.617   2.425  10.235
 2691SOL     OW 8608   1.248   3.211   9.699
 2691SOL    HW1 8609   1.304   3.282   9.730
 2691SOL    HW2 8610   1.161   3.232   9.733
 2692SOL     OW 8611   1.283   3.321  10.457
 2692SOL    HW1 8612   1.339   3.324  10.535
 2692SOL    HW2 8613   1.227   3.244  10.471
 2693SOL     OW 8614   1.576   2.488   9.783
 2693SOL    HW1 8615   1.532   2.536   9.852
 2693SOL    HW2 8616   1.626   2.555   9.736
 2694SOL     OW 8617   0.345   3.389  10.628
 2694SOL    HW1 8618   0.335   3.339  10.547
 2694SOL    HW2 8619   0.439   3.404  10.636
 2695SOL     OW 8620   0.415   2.601  10.911
 2695SOL    HW1 8621   0.478   2.646  10.855
 2695SOL    HW2 8622   0.455   2.516  10.928
 2696SOL     OW 8623   1.603   2.641  10.992
 2696SOL    HW1 8624   1.517   2.684  10.986
 2696SOL    HW2 8625   1.655   2.684  10.924
 2697SOL     OW 8626   0.996   1.989  11.064
 2697SOL    HW1 8627   1.053   2.061  11.039
 2697SOL    HW2 8628   1.044   1.910  11.039
 2698SOL     OW 8629   0.497   1.898  11.056
 2698SOL    HW1 8630   0.453   1.845  10.989
 2698SOL    HW2 8631   0.442   1.976  11.065
 2699SOL     OW 8632   0.585   2.736  10.342
 2699SOL    HW1 8633   0.617   2.826  10.342
 2699SOL    HW2 8634   0.529   2.730  10.419
 2700SOL     OW 8635   1.355   2.721  10.337
 2700SOL    HW1 8636   1.271   2.709  10.293
 2700SOL    HW2 8637   1.397   2.635  10.330
 2701SOL     OW 8638   1.204   2.390   9.576
 2701SOL    HW1 8639   1.211   2.312   9.630
 2701SOL    HW2 8640   1.161   2.455   9.631
 2702SOL     OW 8641   0.311   2.059  10.557
 2702SOL    HW1 8642   0.264   2.096  10.632
 2702SOL    HW2 8643   0.287   1.966  10.558
 2703SOL     OW 8644   0.059   3.167  10.590
 2703SOL    HW1 8645   0.091   3.127  10.671
 2703SOL    HW2 8646   0.052   3.260  10.611
 2704SOL     OW 8647   0.724   2.493  10.367
 2704SOL    HW1 8648   0.799   2.477  10.310
 2704SOL    HW2 8649   0.696   2.582  10.346
 2705SOL     OW 8650   1.736   2.821  11.164
 2705SOL    HW1 8651   1.691   2.757  11.109
 2705SOL    HW2 8652   1.675   2.836  11.237
 2706SOL     OW 8653   0.313   1.925   9.930
 2706SOL    HW1 8654   0.293   2.016   9.951
 2706SOL    HW2 8655   0.319   1.881  10.015
 2707SOL     OW 8656   1.612   2.241   9.681
 2707SOL    HW1 8657   1.616   2.185   9.759
 2707SOL    HW2 8658   1.590   2.327   9.715
 2708SOL     OW 8659   1.028   2.621  10.270
 2708SOL    HW1 8660   1.023   2.638  10.364
 2708SOL    HW2 8661   1.002   2.529  10.261
 2709SOL     OW 8662   0.985   3.430  11.030
 2709SOL    HW1 8663   0.967   3.471  10.946
 2709SOL    HW2 8664   1.027   3.347  11.007
 2710SOL     OW 8665   1.854   3.366  10.914
 2710SOL    HW1 8666   1.873   3.394  10.825
 2710SOL    HW2 8667   1.935   3.384  10.963
 2711SOL     OW 8668   0.352   2.783  11.111
 2711SOL    HW1 8669   0.431   2.804  11.161
 2711SOL    HW2 8670   0.381   2.716  11.048
 2712SOL     OW 8671   1.526   2.135   9.439
 2712SOL    HW1 8672   1.461   2.070   9.465
 2712SOL    HW2 8673   1.559   2.171   9.521
 2713SOL     OW 8674   1.290   2.688   9.340
 2713SOL    HW1 8675   1.333   2.603   9.344
 2713SOL    HW2 8676   1.322   2.727   9.259
 2714SOL     OW 8677   1.066   3.198  10.164
 2714SOL    HW1 8678   1.070   3.126  10.102
 2714SOL    HW2 8679   1.127   3.264  10.129
 2715SOL     OW 8680   0.313   2.665  10.260
 2715SOL    HW1 8681   0.407   2.683  10.254
 2715SOL    HW2 8682   0.308   2.575  10.292
 2716SOL     OW 8683   0.330   2.382  10.324
 2716SOL    HW1 8684   0.296   2.294  10.307
 2716SOL    HW2 8685   0.406   2.390  10.267
 2717SOL     OW 8686   1.134   2.237  10.993
 2717SOL    HW1 8687   1.087   2.292  11.055
 2717SOL    HW2 8688   1.222   2.275  10.990
 2718SOL     OW 8689   1.160   2.063  10.781
 2718SOL    HW1 8690   1.150   2.126  10.852
 2718SOL    HW2 8691   1.201   2.114  10.710
 2719SOL     OW 8692   4.000   3.181   9.492
 2719SOL    HW1 8693   3.905   3.196   9.496
 2719SOL    HW2 8694   0.009   3.087   9.510
 2720SOL     OW 8695   0.075   3.663  10.204
 2720SOL    HW1 8696   0.089   3.568  10.204
 2720SOL    HW2 8697   0.164   3.700  10.203
 2721SOL     OW 8698   0.507   3.426  10.226
 2721SOL    HW1 8699   0.573   3.492  10.246
 2721SOL    HW2 8700   0.550   3.367  10.164
 2722SOL     OW 8701   0.980   2.653  10.536
 2722SOL    HW1 8702   1.038   2.631  10.609
 2722SOL    HW2 8703   0.895   2.615  10.559
 2723SOL     OW 8704   0.037   2.419  10.420
 2723SOL    HW1 8705   0.120   2.395  10.377
 2723SOL    HW2 8706   0.057   2.416  10.513
 2724SOL     OW 8707   0.207   2.375  11.037
 2724SOL    HW1 8708   0.247   2.329  10.964
 2724SOL    HW2 8709   0.159   2.447  10.997
 2725SOL     OW 8710   1.378   2.800  10.968
 2725SOL    HW1 8711   1.399   2.893  10.965
 2725SOL    HW2 8712   1.375   2.773  10.876
 2726SOL     OW 8713   0.818   2.431   9.671
 2726SOL    HW1 8714   0.822   2.356   9.612
 2726SOL    HW2 8715   0.744   2.483   9.639
 2727SOL     OW 8716   1.643   2.464  10.493
 2727SOL    HW1 8717   1.632   2.408  10.570
 2727SOL    HW2 8718   1.730   2.441  10.458
 2728SOL     OW 8719   0.299   3.408  11.037
 2728SOL    HW1 8720   0.250   3.477  11.081
 2728SOL    HW2 8721   0.267   3.327  11.077
 2729SOL     OW 8722   0.705   2.312  10.568
 2729SOL    HW1 8723   0.652   2.238  10.538
 2729SOL    HW2 8724   0.700   2.375  10.496
 2730SOL     OW 8725   0.928   3.534  10.779
 2730SOL    HW1 8726   0.901   3.497  10.695
 2730SOL    HW2 8727   0.921   3.629  10.767
 2731SOL     OW 8728   0.456   2.352   9.505
 2731SOL    HW1 8729   0.521   2.419   9.523
 2731SOL    HW2 8730   0.377   2.400   9.483
 2732SOL     OW 8731   0.156   2.997  10.785
 2732SOL    HW1 8732   0.157   2.946  10.866
 2732SOL    HW2 8733   0.171   2.933  10.716
 2733SOL     OW 8734   1.325   2.908  10.532
 2733SOL    HW1 8735   1.347   2.844  10.464
 2733SOL    HW2 8736   1.256   2.961  10.493
 2734SOL     OW 8737   1.312   2.719   9.615
 2734SOL    HW1 8738   1.237   2.688   9.666
 2734SOL    HW2 8739   1.287   2.705   9.524
 2735SOL     OW 8740   1.771   3.604  10.460
 2735SOL    HW1 8741   1.833   3.631  10.393
 2735SOL    HW2 8742   1.749   3.513  10.437
 2736SOL     OW 8743   1.243   3.595  10.420
 2736SOL    HW1 8744   1.326   3.616  10.376
 2736SOL    HW2 8745   1.250   3.502  10.439
 2737SOL     OW 8746   0.076   3.077  10.338
 2737SOL    HW1 8747   0.083   3.104  10.429
 2737SOL    HW2 8748   3.983   3.087  10.317
 2738SOL     OW 8749   0.679   3.526  11.042
 2738SOL    HW1 8750   0.622   3.603  11.045
 2738SOL    HW2 8751   0.739   3.545  10.969
 2739SOL     OW 8752   1.390   3.431   9.796
 2739SOL    HW1 8753   1.450   3.464   9.729
 2739SOL    HW2 8754   1.342   3.508   9.826
 2740SOL     OW 8755   0.169   3.624  11.141
 2740SOL    HW1 8756   0.114   3.572  11.199
 2740SOL    HW2 8757   0.216   3.683  11.200
 2741SOL     OW 8758   1.278   2.788   9.981
 2741SOL    HW1 8759   1.351   2.727   9.988
 2741SOL    HW2 8760   1.312   2.860   9.928
 2742SOL     OW 8761   0.812   3.136  10.739
 2742SOL    HW1 8762   0.783   3.176  10.821
 2742SOL    HW2 8763   0.741   3.155  10.677
 2743SOL     OW 8764   0.675   3.478   9.467
 2743SOL    HW1 8765   0.683   3.495   9.374
 2743SOL    HW2 8766   0.616   3.402   9.473
 2744SOL     OW 8767   1.623   3.588  10.700
 2744SOL    HW1 8768   1.674   3.594  10.619
 2744SOL    HW2 8769   1.610   3.679  10.726
 2745SOL     OW 8770   0.267   2.175  10.027
 2745SOL    HW1 8771   0.181   2.209  10.001
 2745SOL    HW2 8772   0.261   2.166  10.122
 2746SOL     OW 8773   1.208   3.467   9.345
 2746SOL    HW1 8774   1.197   3.375   9.369
 2746SOL    HW2 8775   1.147   3.480   9.273
 2747SOL     OW 8776   0.823   2.868  10.683
 2747SOL    HW1 8777   0.868   2.863  10.599
 2747SOL    HW2 8778   0.822   2.961  10.704
 2748SOL     OW 8779   0.916   2.772   9.600
 2748SOL    HW1 8780   0.976   2.804   9.534
 2748SOL    HW2 8781   0.965   2.703   9.646
 2749SOL     OW 8782   1.490   3.490   9.352
 2749SOL    HW1 8783   1.396   3.480   9.336
 2749SOL    HW2 8784   1.528   3.496   9.265
 2750SOL     OW 8785   0.374   3.165  10.801
 2750SOL    HW1 8786   0.359   3.245  10.751
 2750SOL    HW2 8787   0.297   3.111  10.784
 2751SOL     OW 8788   1.610   3.145  10.590
 2751SOL    HW1 8789   1.670   3.133  10.664
 2751SOL    HW2 8790   1.550   3.213  10.620
 2752SOL     OW 8791   1.055   2.970  10.018
 2752SOL    HW1 8792   0.983   2.919  10.056
 2752SOL    HW2 8793   1.118   2.904   9.988
 2753SOL     OW 8794   1.022   2.103  10.277
 2753SOL    HW1 8795   1.018   2.055  10.194
 2753SOL    HW2 8796   1.017   2.034  10.343
 2754SOL     OW 8797   0.605   3.352   9.791
 2754SOL    HW1 8798   0.650   3.302   9.723
 2754SOL    HW2 8799   0.534   3.397   9.745
 2755SOL     OW 8800   1.727   2.249  10.683
 2755SOL    HW1 8801   1.799   2.312  10.692
 2755SOL    HW2 8802   1.762   2.181  10.625
 2756SOL     OW 8803   0.253   3.203   9.601
 2756SOL    HW1 8804   0.160   3.212   9.582
 2756SOL    HW2 8805   0.263   3.241   9.689
 2757SOL     OW 8806   0.107   2.860  11.027
 2757SOL    HW1 8807   0.046   2.853  11.101
 2757SOL    HW2 8808   0.193   2.842  11.065
 2758SOL     OW 8809   0.675   2.058  10.810
 2758SOL    HW1 8810   0.759   2.037  10.769
 2758SOL    HW2 8811   0.698   2.090  10.897
 2759SOL     OW 8812   0.081   2.178   9.347
 2759SOL    HW1 8813   3.985   2.178   9.354
 2759SOL    HW2 8814   0.101   2.258   9.300
 2760SOL     OW 8815   1.428   2.720  10.709
 2760SOL    HW1 8816   1.380   2.781  10.654
 2760SOL    HW2 8817   1.518   2.723  10.676
 2761SOL     OW 8818   0.019   2.094   9.685
 2761SOL    HW1 8819   0.045   2.159   9.619
 2761SOL    HW2 8820   0.102   2.056   9.714
 2762SOL     OW 8821   1.178   3.200   9.427
 2762SOL    HW1 8822   1.087   3.171   9.428
 2762SOL    HW2 8823   1.205   3.199   9.519
 2763SOL     OW 8824   0.619   2.692  10.746
 2763SOL    HW1 8825   0.675   2.768  10.730
 2763SOL    HW2 8826   0.680   2.619  10.754
 2764SOL     OW 8827   1.486   3.640  10.290
 2764SOL    HW1 8828   1.509   3.698  10.218
 2764SOL    HW2 8829   1.569   3.619  10.332
 2765SOL     OW 8830   0.716   2.425  11.014
 2765SOL    HW1 8831   0.760   2.487  11.073
 2765SOL    HW2 8832   0.742   2.339  11.047
 2766SOL     OW 8833   1.473   3.060  10.941
 2766SOL    HW1 8834   1.460   3.074  11.035
 2766SOL    HW2 8835   1.566   3.077  10.926
 2767SOL     OW 8836   0.378   3.607  10.869
 2767SOL    HW1 8837   0.291   3.642  10.856
 2767SOL    HW2 8838   0.364   3.524  10.915
 2768SOL     OW 8839   1.669   2.743  10.565
 2768SOL    HW1 8840   1.662   2.658  10.522
 2768SOL    HW2 8841   1.658   2.806  10.494
 2769SOL     OW 8842   1.216   2.182   9.768
 2769SOL    HW1 8843   1.278   2.110   9.760
 2769SOL    HW2 8844   1.245   2.231   9.845
 2770SOL     OW 8845   0.589   2.600   9.982
 2770SOL    HW1 8846   0.628   2.686   9.966
 2770SOL    HW2 8847   0.523   2.591   9.913
 2771SOL     OW 8848   1.757   2.242  10.959
 2771SOL    HW1 8849   1.741   2.244  10.864
 2771SOL    HW2 8850   1.697   2.175  10.992
 2772SOL     OW 8851   1.744   2.797  10.822
 2772SOL    HW1 8852   1.739   2.892  10.834
 2772SOL    HW2 8853   1.729   2.785  10.728
 2773SOL     OW 8854   0.865   3.229   9.348
 2773SOL    HW1 8855   0.823   3.258   9.429
 2773SOL    HW2 8856   0.879   3.310   9.299
 2774SOL     OW 8857   0.659   3.651  10.247
 2774SOL    HW1 8858   0.637   3.742  10.227
 2774SOL    HW2 8859   0.754   3.648  10.244
 2775SOL     OW 8860   0.868   2.829  10.164
 2775SOL    HW1 8861   0.918   2.758  10.203
 2775SOL    HW2 8862   0.833   2.877  10.239
 2776SOL     OW 8863   1.078   2.850   9.399
 2776SOL    HW1 8864   1.057   2.901   9.321
 2776SOL    HW2 8865   1.153   2.796   9.372
 2777SOL     OW 8866   1.852   3.413  10.152
 2777SOL    HW1 8867   1.772   3.403  10.101
 2777SOL    HW2 8868   1.843   3.350  10.224
 2778SOL     OW 8869   0.226   3.166  11.166
 2778SOL    HW1 8870   0.153   3.110  11.140
 2778SOL    HW2 8871   0.213   3.179  11.260
 2779SOL     OW 8872   0.114   3.138  10.030
 2779SOL    HW1 8873   0.131   3.089  10.110
 2779SOL    HW2 8874   0.106   3.072   9.962
 2780SOL     OW 8875   0.682   3.265  10.940
 2780SOL    HW1 8876   0.601   3.224  10.970
 2780SOL    HW2 8877   0.678   3.354  10.976
 2781SOL     OW 8878   0.441   2.296   9.843
 2781SOL    HW1 8879   0.442   2.226   9.778
 2781SOL    HW2 8880   0.386   2.262   9.914
 2782SOL     OW 8881   1.700   3.349  10.403
 2782SOL    HW1 8882   1.619   3.327  10.358
 2782SOL    HW2 8883   1.710   3.281  10.469
 2783SOL     OW 8884   0.334   2.418  10.602
 2783SOL    HW1 8885   0.388   2.362  10.656
 2783SOL    HW2 8886   0.349   2.388  10.512
 2784SOL     OW 8887   0.828   3.441   9.987
 2784SOL    HW1 8888   0.813   3.493   9.908
 2784SOL    HW2 8889   0.753   3.381   9.990
 2785SOL     OW 8890   1.437   2.091  10.429
 2785SOL    HW1 8891   1.448   2.004  10.467
 2785SOL    HW2 8892   1.382   2.138  10.493
 2786SOL     OW 8893   1.010   1.879  10.450
 2786SOL    HW1 8894   0.956   1.812  10.409
 2786SOL    HW2 8895   1.098   1.842  10.452
 2787SOL     OW 8896   0.772   3.194   9.628
 2787SOL    HW1 8897   0.742   3.104   9.633
 2787SOL    HW2 8898   0.855   3.195   9.676
 2788SOL     OW 8899   0.620   3.416  10.595
 2788SOL    HW1 8900   0.622   3.498  10.645
 2788SOL    HW2 8901   0.708   3.410  10.557
 2789SOL     OW 8902   1.351   1.914   9.476
 2789SOL    HW1 8903   1.381   1.852   9.410
 2789SOL    HW2 8904   1.263   1.884   9.500
 2790SOL     OW 8905   1.299   2.324   9.991
 2790SOL    HW1 8906   1.245   2.403   9.996
 2790SOL    HW2 8907   1.292   2.284  10.078
 2791SOL     OW 8908   1.569   2.054  10.181
 2791SOL    HW1 8909   1.533   2.080  10.266
 2791SOL    HW2 8910   1.587   2.136  10.136
 2792SOL     OW 8911   0.047   2.912   9.549
 2792SOL    HW1 8912   0.141   2.896   9.541
 2792SOL    HW2 8913   0.011   2.829   9.582
 2793SOL     OW 8914   0.885   3.519   9.654
 2793SOL    HW1 8915   0.814   3.500   9.592
 2793SOL    HW2 8916   0.854   3.595   9.703
 2794SOL     OW 8917   0.231   2.485  11.292
 2794SOL    HW1 8918   0.138   2.494  11.312
 2794SOL    HW2 8919   0.233   2.455  11.201
 2795SOL     OW 8920   0.229   2.134  12.159
 2795SOL    HW1 8921   0.250   2.100  12.246
 2795SOL    HW2 8922   0.134   2.126  12.152
 2796SOL     OW 8923   0.010   2.222  11.802
 2796SOL    HW1 8924   3.922   2.240  11.836
 2796SOL    HW2 8925   3.996   2.190  11.713
 2797SOL     OW 8926   0.579   3.149  12.360
 2797SOL    HW1 8927   0.492   3.153  12.319
 2797SOL    HW2 8928   0.593   3.238  12.393
 2798SOL     OW 8929   1.563   3.373  11.880
 2798SOL    HW1 8930   1.520   3.352  11.963
 2798SOL    HW2 8931   1.491   3.376  11.817
 2799SOL     OW 8932   1.131   2.560  11.871
 2799SOL    HW1 8933   1.180   2.641  11.858
 2799SOL    HW2 8934   1.084   2.573  11.953
 2800SOL     OW 8935   1.774   2.466  11.400
 2800SOL    HW1 8936   1.749   2.461  11.307
 2800SOL    HW2 8937   1.737   2.386  11.439
 2801SOL     OW 8938   0.754   3.002  12.213
 2801SOL    HW1 8939   0.689   3.037  12.274
 2801SOL    HW2 8940   0.790   3.079  12.169
 2802SOL     OW 8941   0.868   2.633  12.994
 2802SOL    HW1 8942   0.860   2.705  13.057
 2802SOL    HW2 8943   0.892   2.677  12.912
 2803SOL     OW 8944   0.685   2.864  11.818
 2803SOL    HW1 8945   0.751   2.853  11.887
 2803SOL    HW2 8946   0.616   2.916  11.860
 2804SOL     OW 8947   0.711   3.012  12.987
 2804SOL    HW1 8948   0.759   3.089  13.015
 2804SOL    HW2 8949   0.630   3.046  12.950
 2805SOL     OW 8950   0.351   3.264  12.250
 2805SOL    HW1 8951   0.268   3.249  12.203
 2805SOL    HW2 8952   0.400   3.322  12.193
 2806SOL     OW 8953   1.460   3.362  12.528
 2806SOL    HW1 8954   1.513   3.441  12.538
 2806SOL    HW2 8955   1.395   3.368  12.598
 2807SOL     OW 8956   0.450   2.261  12.660
 2807SOL    HW1 8957   0.525   2.202  12.664
 2807SOL    HW2 8958   0.374   2.205  12.673
 2808SOL     OW 8959   1.604   2.308  11.911
 2808SOL    HW1 8960   1.522   2.328  11.866
 2808SOL    HW2 8961   1.619   2.383  11.968
 2809SOL     OW 8962   0.224   3.571  11.638
 2809SOL    HW1 8963   0.225   3.653  11.687
 2809SOL    HW2 8964   0.301   3.575  11.581
 2810SOL     OW 8965   1.137   3.203  12.865
 2810SOL    HW1 8966   1.177   3.198  12.952
 2810SOL    HW2 8967   1.085   3.124  12.858
 2811SOL     OW 8968   0.249   3.306  11.712
 2811SOL    HW1 8969   0.221   3.396  11.698
 2811SOL    HW2 8970   0.180   3.267  11.765
 2812SOL     OW 8971   0.247   2.929  12.056
 2812SOL    HW1 8972   0.266   2.845  12.096
 2812SOL    HW2 8973   0.194   2.976  12.121
 2813SOL     OW 8974   0.611   3.648  12.600
 2813SOL    HW1 8975   0.529   3.634  12.646
 2813SOL    HW2 8976   0.637   3.737  12.624
 2814SOL     OW 8977   0.579   2.847  11.310
 2814SOL    HW1 8978   0.626   2.893  11.240
 2814SOL    HW2 8979   0.620   2.877  11.391
 2815SOL     OW 8980   1.589   1.991  12.636
 2815SOL    HW1 8981   1.586   2.076  12.592
 2815SOL    HW2 8982   1.581   2.012  12.729
 2816SOL     OW 8983   0.142   2.514  11.746
 2816SOL    HW1 8984   0.087   2.435  11.745
 2816SOL    HW2 8985   0.106   2.568  11.816
 2817SOL     OW 8986   1.842   3.610  11.510
 2817SOL    HW1 8987   1.910   3.586  11.573
 2817SOL    HW2 8988   1.863   3.701  11.486
 2818SOL     OW 8989   0.041   3.453  11.312
 2818SOL    HW1 8990   0.034   3.361  11.336
 2818SOL    HW2 8991   3.960   3.493  11.343
 2819SOL     OW 8992   1.689   2.780  11.814
 2819SOL    HW1 8993   1.771   2.737  11.792
 2819SOL    HW2 8994   1.666   2.831  11.736
 2820SOL     OW 8995   1.647   2.967  11.601
 2820SOL    HW1 8996   1.733   2.972  11.559
 2820SOL    HW2 8997   1.652   3.030  11.674
 2821SOL     OW 8998   0.138   2.615  12.762
 2821SOL    HW1 8999   0.234   2.609  12.759
 2821SOL    HW2 9000   0.120   2.704  12.790
 2822SOL     OW 9001   0.615   3.248  11.906
 2822SOL    HW1 9002   0.568   3.165  11.916
 2822SOL    HW2 9003   0.598   3.275  11.816
 2823SOL     OW 9004   1.288   3.099  12.594
 2823SOL    HW1 9005   1.320   3.032  12.535
 2823SOL    HW2 9006   1.346   3.094  12.670
 2824SOL     OW 9007   0.819   1.862  11.683
 2824SOL    HW1 9008   0.859   1.946  11.662
 2824SOL    HW2 9009   0.725   1.881  11.689
 2825SOL     OW 9010   0.184   2.813  12.451
 2825SOL    HW1 9011   0.272   2.778  12.437
 2825SOL    HW2 9012   0.132   2.773  12.381
 2826SOL     OW 9013   1.531   2.857  11.371
 2826SOL    HW1 9014   1.462   2.800  11.403
 2826SOL    HW2 9015   1.573   2.891  11.450
 2827SOL     OW 9016   1.215   3.665  12.798
 2827SOL    HW1 9017   1.194   3.726  12.727
 2827SOL    HW2 9018   1.217   3.579  12.757
 2828SOL     OW 9019   0.341   2.109  12.987
 2828SOL    HW1 9020   0.378   2.197  12.995
 2828SOL    HW2 9021   0.249   2.120  13.013
 2829SOL     OW 9022   1.466   3.282  12.122
 2829SOL    HW1 9023   1.399   3.297  12.188
 2829SOL    HW2 9024   1.454   3.190  12.096
 2830SOL     OW 9025   1.654   3.601  11.753
 2830SOL    HW1 9026   1.640   3.570  11.663
 2830SOL    HW2 9027   1.631   3.526  11.808
 2831SOL     OW 9028   0.596   2.579  11.437
 2831SOL    HW1 9029   0.602   2.663  11.391
 2831SOL    HW2 9030   0.533   2.595  11.508
 2832SOL     OW 9031   1.279   2.220  12.106
 2832SOL    HW1 9032   1.190   2.185  12.116
 2832SOL    HW2 9033   1.333   2.164  12.161
 2833SOL     OW 9034   1.577   3.537  11.480
 2833SOL    HW1 9035   1.670   3.561  11.475
 2833SOL    HW2 9036   1.552   3.517  11.390
 2834SOL     OW 9037   0.791   2.480  12.623
 2834SOL    HW1 9038   0.765   2.455  12.712
 2834SOL    HW2 9039   0.753   2.412  12.567
 2835SOL     OW 9040   1.394   2.335  12.849
 2835SOL    HW1 9041   1.396   2.380  12.933
 2835SOL    HW2 9042   1.457   2.264  12.858
 2836SOL     OW 9043   0.953   2.748  12.755
 2836SOL    HW1 9044   1.008   2.679  12.719
 2836SOL    HW2 9045   0.905   2.783  12.680
 2837SOL     OW 9046   0.992   2.274  12.409
 2837SOL    HW1 9047   0.906   2.294  12.444
 2837SOL    HW2 9048   0.975   2.229  12.327
 2838SOL     OW 9049   1.052   2.560  11.598
 2838SOL    HW1 9050   1.068   2.553  11.692
 2838SOL    HW2 9051   0.970   2.514  11.584
 2839SOL     OW 9052   0.082   2.690  11.962
 2839SOL    HW1 9053   0.158   2.660  12.013
 2839SOL    HW2 9054   0.098   2.783  11.948
 2840SOL     OW 9055   0.127   3.717  12.749
 2840SOL    HW1 9056   0.134   3.685  12.840
 2840SOL    HW2 9057   0.035   3.704  12.727
 2841SOL     OW 9058   0.895   2.211  11.365
 2841SOL    HW1 9059   0.935   2.274  11.304
 2841SOL    HW2 9060   0.913   2.126  11.326
 2842SOL     OW 9061   1.703   2.438  13.004
 2842SOL    HW1 9062   1.668   2.508  12.950
 2842SOL    HW2 9063   1.735   2.373  12.941
 2843SOL     OW 9064   1.378   3.004  11.713
 2843SOL    HW1 9065   1.457   2.992  11.660
 2843SOL    HW2 9066   1.325   3.066  11.663
 2844SOL     OW 9067   0.546   2.040  12.066
 2844SOL    HW1 9068   0.552   2.072  12.156
 2844SOL    HW2 9069   0.546   2.120  12.012
 2845SOL     OW 9070   1.004   3.307  11.643
 2845SOL    HW1 9071   0.967   3.380  11.594
 2845SOL    HW2 9072   0.985   3.326  11.735
 2846SOL     OW 9073   0.359   3.670  12.032
 2846SOL    HW1 9074   0.437   3.616  12.044
 2846SOL    HW2 9075   0.391   3.760  12.042
 2847SOL     OW 9076   1.799   2.916  12.041
 2847SOL    HW1 9077   1.745   2.898  11.964
 2847SOL    HW2 9078   1.737   2.923  12.113
 2848SOL     OW 9079   1.228   3.399  12.683
 2848SOL    HW1 9080   1.214   3.327  12.745
 2848SOL    HW2 9081   1.160   3.386  12.616
 2849SOL     OW 9082   0.311   2.816  11.414
 2849SOL    HW1 9083   0.394   2.839  11.374
 2849SOL    HW2 9084   0.297   2.724  11.391
 2850SOL     OW 9085   1.480   2.605  11.897
 2850SOL    HW1 9086   1.472   2.565  11.983
 2850SOL    HW2 9087   1.558   2.661  11.904
 2851SOL     OW 9088   0.467   3.122  12.909
 2851SOL    HW1 9089   0.441   3.130  12.817
 2851SOL    HW2 9090   0.385   3.126  12.957
 2852SOL     OW 9091   1.113   3.643  11.394
 2852SOL    HW1 9092   1.049   3.596  11.449
 2852SOL    HW2 9093   1.143   3.577  11.331
 2853SOL     OW 9094   0.204   2.137  12.680
 2853SOL    HW1 9095   0.114   2.169  12.672
 2853SOL    HW2 9096   0.195   2.051  12.720
 2854SOL     OW 9097   1.628   3.243  11.262
 2854SOL    HW1 9098   1.587   3.328  11.244
 2854SOL    HW2 9099   1.559   3.179  11.241
 2855SOL     OW 9100   0.468   3.601  11.493
 2855SOL    HW1 9101   0.507   3.663  11.554
 2855SOL    HW2 9102   0.541   3.573  11.438
 2856SOL     OW 9103   1.398   1.969  11.603
 2856SOL    HW1 9104   1.382   1.946  11.512
 2856SOL    HW2 9105   1.490   1.947  11.618
 2857SOL     OW 9106   0.252   3.656  12.399
 2857SOL    HW1 9107   0.297   3.590  12.453
 2857SOL    HW2 9108   0.250   3.618  12.312
 2858SOL     OW 9109   0.937   3.562  12.072
 2858SOL    HW1 9110   1.015   3.510  12.094
 2858SOL    HW2 9111   0.894   3.513  12.003
 2859SOL     OW 9112   0.398   2.555  11.643
 2859SOL    HW1 9113   0.424   2.464  11.658
 2859SOL    HW2 9114   0.306   2.559  11.670
 2860SOL     OW 9115   1.537   2.086  12.897
 2860SOL    HW1 9116   1.550   2.108  12.990
 2860SOL    HW2 9117   1.466   2.022  12.898
 2861SOL     OW 9118   0.640   1.981  11.270
 2861SOL    HW1 9119   0.703   1.912  11.289
 2861SOL    HW2 9120   0.591   1.949  11.194
 2862SOL     OW 9121   0.765   2.140  12.926
 2862SOL    HW1 9122   0.843   2.084  12.925
 2862SOL    HW2 9123   0.719   2.115  13.006
 2863SOL     OW 9124   0.876   3.383  12.366
 2863SOL    HW1 9125   0.860   3.346  12.279
 2863SOL    HW2 9126   0.946   3.328  12.402
 2864SOL     OW 9127   1.340   2.451  12.604
 2864SOL    HW1 9128   1.371   2.419  12.689
 2864SOL    HW2 9129   1.376   2.539  12.597
 2865SOL     OW 9130   0.816   3.255  12.113
 2865SOL    HW1 9131   0.901   3.243  12.070
 2865SOL    HW2 9132   0.753   3.256  12.041
 2866SOL     OW 9133   0.928   2.371  12.074
 2866SOL    HW1 9134   0.905   2.363  11.982
 2866SOL    HW2 9135   0.959   2.284  12.099
 2867SOL     OW 9136   0.555   1.924  11.668
 2867SOL    HW1 9137   0.473   1.929  11.717
 2867SOL    HW2 9138   0.559   2.007  11.620
 2868SOL     OW 9139   1.428   3.061  11.212
 2868SOL    HW1 9140   1.458   2.985  11.263
 2868SOL    HW2 9141   1.342   3.082  11.250
 2869SOL     OW 9142   0.308   1.913  11.342
 2869SOL    HW1 9143   0.372   1.951  11.282
 2869SOL    HW2 9144   0.357   1.848  11.391
 2870SOL     OW 9145   0.939   2.109  11.632
 2870SOL    HW1 9146   0.910   2.149  11.550
 2870SOL    HW2 9147   1.034   2.125  11.634
 2871SOL     OW 9148   1.080   2.543  12.631
 2871SOL    HW1 9149   1.013   2.476  12.636
 2871SOL    HW2 9150   1.163   2.495  12.625
 2872SOL     OW 9151   1.222   3.432  11.966
 2872SOL    HW1 9152   1.238   3.500  11.900
 2872SOL    HW2 9153   1.291   3.446  12.031
 2873SOL     OW 9154   0.467   3.012  11.908
 2873SOL    HW1 9155   0.395   2.989  11.967
 2873SOL    HW2 9156   0.432   2.997  11.820
 2874SOL     OW 9157   1.267   3.657  11.779
 2874SOL    HW1 9158   1.313   3.721  11.726
 2874SOL    HW2 9159   1.195   3.706  11.819
 2875SOL     OW 9160   1.023   2.402  11.196
 2875SOL    HW1 9161   0.981   2.485  11.176
 2875SOL    HW2 9162   1.089   2.424  11.262
 2876SOL     OW 9163   0.081   2.434  12.562
 2876SOL    HW1 9164   0.171   2.421  12.532
 2876SOL    HW2 9165   0.088   2.503  12.627
 2877SOL     OW 9166   0.567   2.089  12.337
 2877SOL    HW1 9167   0.608   2.013  12.379
 2877SOL    HW2 9168   0.475   2.086  12.366
 2878SOL     OW 9169   0.868   2.321  11.812
 2878SOL    HW1 9170   0.820   2.374  11.749
 2878SOL    HW2 9171   0.888   2.240  11.764
 2879SOL     OW 9172   1.016   1.916  11.923
 2879SOL    HW1 9173   0.958   1.909  11.847
 2879SOL    HW2 9174   0.993   1.840  11.977
 2880SOL     OW 9175   1.438   3.024  12.029
 2880SOL    HW1 9176   1.368   2.959  12.029
 2880SOL    HW2 9177   1.461   3.034  11.937
 2881SOL     OW 9178   1.466   2.468  12.146
 2881SOL    HW1 9179   1.412   2.389  12.150
 2881SOL    HW2 9180   1.524   2.461  12.221
 2882SOL     OW 9181   1.844   2.677  11.556
 2882SOL    HW1 9182   1.903   2.628  11.613
 2882SOL    HW2 9183   1.818   2.614  11.489
 2883SOL     OW 9184   0.488   3.280  11.331
 2883SOL    HW1 9185   0.413   3.250  11.382
 2883SOL    HW2 9186   0.469   3.254  11.241
 2884SOL     OW 9187   1.672   3.126  11.816
 2884SOL    HW1 9188   1.767   3.128  11.830
 2884SOL    HW2 9189   1.642   3.214  11.838
 2885SOL     OW 9190   1.393   2.435  11.242
 2885SOL    HW1 9191   1.334   2.414  11.314
 2885SOL    HW2 9192   1.479   2.405  11.271
 2886SOL     OW 9193   0.574   2.130  11.492
 2886SOL    HW1 9194   0.603   2.083  11.414
 2886SOL    HW2 9195   0.541   2.214  11.458
 2887SOL     OW 9196   1.752   3.103  12.742
 2887SOL    HW1 9197   1.839   3.063  12.739
 2887SOL    HW2 9198   1.767   3.193  12.770
 2888SOL     OW 9199   1.057   3.214  12.504
 2888SOL    HW1 9200   0.982   3.184  12.556
 2888SOL    HW2 9201   1.133   3.174  12.546
 2889SOL     OW 9202   1.609   3.488  12.827
 2889SOL    HW1 9203   1.602   3.522  12.738
 2889SOL    HW2 9204   1.692   3.440  12.828
 2890SOL     OW 9205   1.131   3.067  12.276
 2890SOL    HW1 9206   1.072   3.104  12.342
 2890SOL    HW2 9207   1.098   3.100  12.192
 2891SOL     OW 9208   1.627   2.960  12.248
 2891SOL    HW1 9209   1.622   3.022  12.321
 2891SOL    HW2 9210   1.549   2.977  12.197
 2892SOL     OW 9211   0.918   1.958  12.567
 2892SOL    HW1 9212   0.941   1.939  12.476
 2892SOL    HW2 9213   0.997   1.998  12.604
 2893SOL     OW 9214   0.984   2.977  12.894
 2893SOL    HW1 9215   0.892   2.993  12.917
 2893SOL    HW2 9216   0.982   2.899  12.839
 2894SOL     OW 9217   0.708   2.922  11.543
 2894SOL    HW1 9218   0.694   2.906  11.636
 2894SOL    HW2 9219   0.784   2.869  11.520
 2895SOL     OW 9220   0.421   2.678  12.424
 2895SOL    HW1 9221   0.490   2.686  12.491
 2895SOL    HW2 9222   0.387   2.589  12.436
 2896SOL     OW 9223   1.265   2.237  12.449
 2896SOL    HW1 9224   1.297   2.315  12.495
 2896SOL    HW2 9225   1.174   2.259  12.426
 2897SOL     OW 9226   0.065   3.442  12.518
 2897SOL    HW1 9227   0.070   3.500  12.442
 2897SOL    HW2 9228   0.156   3.429  12.544
 2898SOL     OW 9229   0.371   2.964  11.655
 2898SOL    HW1 9230   0.366   3.044  11.603
 2898SOL    HW2 9231   0.371   2.893  11.591
 2899SOL     OW 9232   0.550   2.399  12.033
 2899SOL    HW1 9233   0.565   2.455  11.958
 2899SOL    HW2 9234   0.617   2.425  12.097
 2900SOL     OW 9235   1.248   3.211  11.561
 2900SOL    HW1 9236   1.304   3.282  11.592
 2900SOL    HW2 9237   1.161   3.232  11.595
 2901SOL     OW 9238   1.283   3.321  12.320
 2901SOL    HW1 9239   1.339   3.324  12.397
 2901SOL    HW2 9240   1.227   3.244  12.333
 2902SOL     OW 9241   1.576   2.488  11.645
 2902SOL    HW1 9242   1.532   2.536  11.715
 2902SOL    HW2 9243   1.626   2.555  11.598
 2903SOL     OW 9244   0.345   3.389  12.490
 2903SOL    HW1 9245   0.335   3.339  12.409
 2903SOL    HW2 9246   0.439   3.404  12.498
 2904SOL     OW 9247   0.415   2.601  12.773
 2904SOL    HW1 9248   0.477   2.647  12.717
 2904SOL    HW2 9249   0.456   2.516  12.790
 2905SOL     OW 9250   1.603   2.641  12.854
 2905SOL    HW1 9251   1.517   2.684  12.848
 2905SOL    HW2 9252   1.655   2.684  12.786
 2906SOL     OW 9253   0.996   1.989  12.926
 2906SOL    HW1 9254   1.053   2.061  12.901
 2906SOL    HW2 9255   1.044   1.910  12.901
 2907SOL     OW 9256   0.497   1.898  12.918
 2907SOL    HW1 9257   0.453   1.845  12.851
 2907SOL    HW2 9258   0.443   1.976  12.927
 2908SOL     OW 9259   0.585   2.736  12.204
 2908SOL    HW1 9260   0.617   2.826  12.204
 2908SOL    HW2 9261   0.529   2.730  12.281
 2909SOL     OW 9262   1.355   2.721  12.199
 2909SOL    HW1 9263   1.271   2.709  12.155
 2909SOL    HW2 9264   1.397   2.635  12.192
 2910SOL     OW 9265   1.204   2.390  11.437
 2910SOL    HW1 9266   1.211   2.312  11.492
 2910SOL    HW2 9267   1.161   2.455  11.493
 2911SOL     OW 9268   0.311   2.059  12.419
 2911SOL    HW1 9269   0.264   2.096  12.494
 2911SOL    HW2 9270   0.287   1.966  12.420
 2912SOL     OW 9271   0.060   3.167  12.452
 2912SOL    HW1 9272   0.091   3.127  12.533
 2912SOL    HW2 9273   0.052   3.260  12.473
 2913SOL     OW 9274   0.724   2.493  12.229
 2913SOL    HW1 9275   0.799   2.477  12.172
 2913SOL    HW2 9276   0.696   2.582  12.208
 2914SOL     OW 9277   1.735   2.821  13.026
 2914SOL    HW1 9278   1.691   2.757  12.971
 2914SOL    HW2 9279   1.676   2.836  13.099
 2915SOL     OW 9280   0.313   1.925  11.792
 2915SOL    HW1 9281   0.293   2.016  11.813
 2915SOL    HW2 9282   0.319   1.881  11.877
 2916SOL     OW 9283   1.612   2.241  11.543
 2916SOL    HW1 9284   1.616   2.185  11.621
 2916SOL    HW2 9285   1.589   2.328  11.577
 2917SOL     OW 9286   1.028   2.621  12.132
 2917SOL    HW1 9287   1.023   2.638  12.226
 2917SOL    HW2 9288   1.002   2.529  12.123
 2918SOL     OW 9289   0.985   3.430  12.892
 2918SOL    HW1 9290   0.967   3.471  12.807
 2918SOL    HW2 9291   1.027   3.347  12.869
 2919SOL     OW 9292   1.854   3.366  12.776
 2919SOL    HW1 9293   1.873   3.394  12.687
 2919SOL    HW2 9294   1.934   3.384  12.825
 2920SOL     OW 9295   0.352   2.783  12.973
 2920SOL    HW1 9296   0.431   2.804  13.023
 2920SOL    HW2 9297   0.380   2.716  12.911
 2921SOL     OW 9298   1.526   2.135  11.301
 2921SOL    HW1 9299   1.461   2.070  11.327
 2921SOL    HW2 9300   1.559   2.171  11.383
 2922SOL     OW 9301   1.290   2.688  11.202
 2922SOL    HW1 9302   1.333   2.603  11.206
 2922SOL    HW2 9303   1.322   2.727  11.121
 2923SOL     OW 9304   1.066   3.198  12.026
 2923SOL    HW1 9305   1.070   3.126  11.964
 2923SOL    HW2 9306   1.127   3.264  11.991
 2924SOL     OW 9307   0.313   2.665  12.122
 2924SOL    HW1 9308   0.407   2.683  12.116
 2924SOL    HW2 9309   0.308   2.575  12.154
 2925SOL     OW 9310   0.330   2.382  12.186
 2925SOL    HW1 9311   0.296   2.294  12.169
 2925SOL    HW2 9312   0.406   2.390  12.129
 2926SOL     OW 9313   1.134   2.237  12.855
 2926SOL    HW1 9314   1.087   2.292  12.918
 2926SOL    HW2 9315   1.222   2.274  12.852
 2927SOL     OW 9316   1.160   2.063  12.643
 2927SOL    HW1 9317   1.150   2.126  12.714
 2927SOL    HW2 9318   1.201   2.114  12.572
 2928SOL     OW 9319   4.000   3.181  11.354
 2928SOL    HW1 9320   3.905   3.196  11.358
 2928SOL    HW2 9321   0.009   3.087  11.372
 2929SOL     OW 9322   0.076   3.663  12.066
 2929SOL    HW1 9323   0.089   3.568  12.066
 2929SOL    HW2 9324   0.164   3.699  12.064
 2930SOL     OW 9325   0.507   3.426  12.088
 2930SOL    HW1 9326   0.573   3.492  12.108
 2930SOL    HW2 9327   0.550   3.367  12.026
 2931SOL     OW 9328   0.980   2.653  12.398
 2931SOL    HW1 9329   1.038   2.631  12.471
 2931SOL    HW2 9330   0.895   2.615  12.421
 2932SOL     OW 9331   0.037   2.419  12.282
 2932SOL    HW1 9332   0.120   2.395  12.239
 2932SOL    HW2 9333   0.057   2.416  12.375
 2933SOL     OW 9334   0.207   2.375  12.900
 2933SOL    HW1 9335   0.247   2.328  12.826
 2933SOL    HW2 9336   0.159   2.447  12.859
 2934SOL     OW 9337   1.378   2.800  12.830
 2934SOL    HW1 9338   1.399   2.893  12.827
 2934SOL    HW2 9339   1.375   2.773  12.738
 2935SOL     OW 9340   0.818   2.431  11.533
 2935SOL    HW1 9341   0.822   2.356  11.474
 2935SOL    HW2 9342   0.744   2.483  11.501
 2936SOL     OW 9343   1.644   2.464  12.355
 2936SOL    HW1 9344   1.632   2.408  12.432
 2936SOL    HW2 9345   1.730   2.440  12.320
 2937SOL     OW 9346   0.298   3.408  12.900
 2937SOL    HW1 9347   0.249   3.477  12.944
 2937SOL    HW2 9348   0.266   3.327  12.939
 2938SOL     OW 9349   0.705   2.312  12.430
 2938SOL    HW1 9350   0.652   2.238  12.400
 2938SOL    HW2 9351   0.700   2.375  12.358
 2939SOL     OW 9352   0.928   3.534  12.641
 2939SOL    HW1 9353   0.901   3.497  12.556
 2939SOL    HW2 9354   0.920   3.629  12.629
 2940SOL     OW 9355   0.456   2.352  11.366
 2940SOL    HW1 9356   0.521   2.419  11.384
 2940SOL    HW2 9357   0.377   2.400  11.345
 2941SOL     OW 9358   0.156   2.997  12.647
 2941SOL    HW1 9359   0.157   2.946  12.728
 2941SOL    HW2 9360   0.171   2.933  12.578
 2942SOL     OW 9361   1.325   2.908  12.394
 2942SOL    HW1 9362   1.347   2.844  12.326
 2942SOL    HW2 9363   1.256   2.961  12.355
 2943SOL     OW 9364   1.312   2.719  11.477
 2943SOL    HW1 9365   1.238   2.688  11.528
 2943SOL    HW2 9366   1.287   2.705  11.386
 2944SOL     OW 9367   1.771   3.604  12.322
 2944SOL    HW1 9368   1.833   3.631  12.255
 2944SOL    HW2 9369   1.749   3.513  12.299
 2945SOL     OW 9370   1.243   3.595  12.282
 2945SOL    HW1 9371   1.326   3.616  12.238
 2945SOL    HW2 9372   1.250   3.502  12.302
 2946SOL     OW 9373   0.076   3.077  12.200
 2946SOL    HW1 9374   0.083   3.104  12.291
 2946SOL    HW2 9375   3.983   3.087  12.179
 2947SOL     OW 9376   0.679   3.526  12.904
 2947SOL    HW1 9377   0.622   3.603  12.907
 2947SOL    HW2 9378   0.739   3.544  12.831
 2948SOL     OW 9379   1.390   3.431  11.658
 2948SOL    HW1 9380   1.450   3.464  11.591
 2948SOL    HW2 9381   1.342   3.508  11.688
 2949SOL     OW 9382   0.168   3.625  13.004
 2949SOL    HW1 9383   0.113   3.572  13.062
 2949SOL    HW2 9384   0.215   3.684  13.064
 2950SOL     OW 9385   1.278   2.788  11.843
 2950SOL    HW1 9386   1.351   2.727  11.850
 2950SOL    HW2 9387   1.312   2.860  11.790
 2951SOL     OW 9388   0.812   3.136  12.601
 2951SOL    HW1 9389   0.783   3.176  12.683
 2951SOL    HW2 9390   0.741   3.155  12.539
 2952SOL     OW 9391   0.675   3.478  11.330
 2952SOL    HW1 9392   0.683   3.495  11.236
 2952SOL    HW2 9393   0.616   3.402  11.336
 2953SOL     OW 9394   1.623   3.588  12.562
 2953SOL    HW1 9395   1.675   3.594  12.481
 2953SOL    HW2 9396   1.610   3.679  12.588
 2954SOL     OW 9397   0.267   2.175  11.889
 2954SOL    HW1 9398   0.181   2.209  11.863
 2954SOL    HW2 9399   0.261   2.166  11.984
 2955SOL     OW 9400   1.208   3.467  11.207
 2955SOL    HW1 9401   1.197   3.375  11.231
 2955SOL    HW2 9402   1.147   3.480  11.135
 2956SOL     OW 9403   0.823   2.868  12.545
 2956SOL    HW1 9404   0.868   2.863  12.461
 2956SOL    HW2 9405   0.822   2.961  12.566
 2957SOL     OW 9406   0.916   2.772  11.462
 2957SOL    HW1 9407   0.976   2.804  11.396
 2957SOL    HW2 9408   0.964   2.703  11.508
 2958SOL     OW 9409   1.490   3.490  11.214
 2958SOL    HW1 9410   1.396   3.480  11.198
 2958SOL    HW2 9411   1.528   3.496  11.127
 2959SOL     OW 9412   0.374   3.165  12.663
 2959SOL    HW1 9413   0.359   3.245  12.613
 2959SOL    HW2 9414   0.296   3.111  12.646
 2960SOL     OW 9415   1.610   3.145  12.452
 2960SOL    HW1 9416   1.670   3.133  12.526
 2960SOL    HW2 9417   1.550   3.213  12.482
 2961SOL     OW 9418   1.055   2.970  11.879
 2961SOL    HW1 9419   0.983   2.919  11.918
 2961SOL    HW2 9420   1.118   2.904  11.850
 2962SOL     OW 9421   1.022   2.103  12.139
 2962SOL    HW1 9422   1.018   2.055  12.056
 2962SOL    HW2 9423   1.017   2.034  12.205
 2963SOL     OW 9424   0.605   3.352  11.652
 2963SOL    HW1 9425   0.650   3.302  11.584
 2963SOL    HW2 9426   0.534   3.397  11.607
 2964SOL     OW 9427   1.728   2.248  12.544
 2964SOL    HW1 9428   1.799   2.312  12.553
 2964SOL    HW2 9429   1.764   2.181  12.487
 2965SOL     OW 9430   0.253   3.203  11.463
 2965SOL    HW1 9431   0.160   3.212  11.444
 2965SOL    HW2 9432   0.263   3.241  11.551
 2966SOL     OW 9433   0.107   2.860  12.889
 2966SOL    HW1 9434   0.046   2.854  12.963
 2966SOL    HW2 9435   0.193   2.841  12.927
 2967SOL     OW 9436   0.675   2.058  12.672
 2967SOL    HW1 9437   0.759   2.037  12.631
 2967SOL    HW2 9438   0.698   2.090  12.759
 2968SOL     OW 9439   0.081   2.178  11.210
 2968SOL    HW1 9440   3.985   2.177  11.216
 2968SOL    HW2 9441   0.101   2.258  11.162
 2969SOL     OW 9442   1.428   2.720  12.571
 2969SOL    HW1 9443   1.380   2.782  12.516
 2969SOL    HW2 9444   1.518   2.723  12.538
 2970SOL     OW 9445   0.019   2.094  11.547
 2970SOL    HW1 9446   0.045   2.159  11.481
 2970SOL    HW2 9447   0.102   2.056  11.576
 2971SOL     OW 9448   1.178   3.200  11.289
 2971SOL    HW1 9449   1.087   3.171  11.290
 2971SOL    HW2 9450   1.205   3.199  11.381
 2972SOL     OW 9451   0.619   2.692  12.608
 2972SOL    HW1 9452   0.675   2.768  12.592
 2972SOL    HW2 9453   0.680   2.619  12.616
 2973SOL     OW 9454   1.486   3.640  12.153
 2973SOL    HW1 9455   1.509   3.698  12.080
 2973SOL    HW2 9456   1.569   3.619  12.194
 2974SOL     OW 9457   0.716   2.425  12.876
 2974SOL    HW1 9458   0.760   2.487  12.935
 2974SOL    HW2 9459   0.743   2.339  12.909
 2975SOL     OW 9460   1.472   3.061  12.803
 2975SOL    HW1 9461   1.460   3.074  12.897
 2975SOL    HW2 9462   1.566   3.077  12.788
 2976SOL     OW 9463   0.378   3.607  12.731
 2976SOL    HW1 9464   0.290   3.642  12.718
 2976SOL    HW2 9465   0.364   3.524  12.778
 2977SOL     OW 9466   1.669   2.743  12.426
 2977SOL    HW1 9467   1.662   2.658  12.384
 2977SOL    HW2 9468   1.658   2.806  12.355
 2978SOL     OW 9469   1.216   2.182  11.630
 2978SOL    HW1 9470   1.278   2.110  11.622
 2978SOL    HW2 9471   1.245   2.231  11.707
 2979SOL     OW 9472   0.589   2.600  11.844
 2979SOL    HW1 9473   0.628   2.686  11.828
 2979SOL    HW2 9474   0.523   2.591  11.775
 2980SOL     OW 9475   1.757   2.241  12.820
 2980SOL    HW1 9476   1.741   2.243  12.726
 2980SOL    HW2 9477   1.698   2.175  12.854
 2981SOL     OW 9478   1.744   2.797  12.683
 2981SOL    HW1 9479   1.739   2.892  12.696
 2981SOL    HW2 9480   1.729   2.785  12.590
 2982SOL     OW 9481   0.864   3.229  11.210
 2982SOL    HW1 9482   0.823   3.257  11.291
 2982SOL    HW2 9483   0.879   3.310  11.161
 2983SOL     OW 9484   0.659   3.651  12.109
 2983SOL    HW1 9485   0.637   3.742  12.089
 2983SOL    HW2 9486   0.754   3.648  12.106
 2984SOL     OW 9487   0.868   2.829  12.026
 2984SOL    HW1 9488   0.918   2.758  12.065
 2984SOL    HW2 9489   0.833   2.877  12.101
 2985SOL     OW 9490   1.078   2.850  11.260
 2985SOL    HW1 9491   1.057   2.901  11.183
 2985SOL    HW2 9492   1.153   2.796  11.235
 2986SOL     OW 9493   1.852   3.413  12.014
 2986SOL    HW1 9494   1.772   3.403  11.963
 2986SOL    HW2 9495   1.843   3.350  12.086
 2987SOL     OW 9496   0.226   3.166  13.028
 2987SOL    HW1 9497   0.152   3.111  13.002
 2987SOL    HW2 9498   0.214   3.179  13.122
 2988SOL     OW 9499   0.114   3.139  11.892
 2988SOL    HW1 9500   0.131   3.089  11.972
 2988SOL    HW2 9501   0.106   3.072  11.824
 2989SOL     OW 9502   0.682   3.266  12.801
 2989SOL    HW1 9503   0.601   3.224  12.832
 2989SOL    HW2 9504   0.678   3.354  12.838
 2990SOL     OW 9505   0.441   2.296  11.705
 2990SOL    HW1 9506   0.442   2.226  11.640
 2990SOL    HW2 9507   0.386   2.262  11.776
 2991SOL     OW 9508   1.701   3.349  12.265
 2991SOL    HW1 9509   1.619   3.327  12.220
 2991SOL    HW2 9510   1.710   3.281  12.331
 2992SOL     OW 9511   0.334   2.418  12.464
 2992SOL    HW1 9512   0.388   2.362  12.518
 2992SOL    HW2 9513   0.349   2.388  12.374
 2993SOL     OW 9514   0.828   3.441  11.849
 2993SOL    HW1 9515   0.813   3.493  11.770
 2993SOL    HW2 9516   0.753   3.381  11.852
 2994SOL     OW 9517   1.437   2.091  12.292
 2994SOL    HW1 9518   1.448   2.004  12.329
 2994SOL    HW2 9519   1.382   2.138  12.355
 2995SOL     OW 9520   1.010   1.879  12.312
 2995SOL    HW1 9521   0.956   1.812  12.271
 2995SOL    HW2 9522   1.098   1.842  12.314
 2996SOL     OW 9523   0.772   3.194  11.490
 2996SOL    HW1 9524   0.742   3.103  11.495
 2996SOL    HW2 9525   0.855   3.195  11.538
 2997SOL     OW 9526   0.620   3.416  12.457
 2997SOL    HW1 9527   0.622   3.498  12.507
 2997SOL    HW2 9528   0.708   3.410  12.419
 2998SOL     OW 9529   1.351   1.914  11.338
 2998SOL    HW1 9530   1.381   1.852  11.273
 2998SOL    HW2 9531   1.263   1.884  11.362
 2999SOL     OW 9532   1.299   2.324  11.853
 2999SOL    HW1 9533   1.245   2.403  11.858
 2999SOL    HW2 9534   1.292   2.284  11.940
 3000SOL     OW 9535   1.569   2.054  12.044
 3000SOL    HW1 9536   1.533   2.080  12.128
 3000SOL    HW2 9537   1.587   2.136  11.999
 3001SOL     OW 9538   0.047   2.912  11.411
 3001SOL    HW1 9539   0.141   2.896  11.403
 3001SOL    HW2 9540   0.011   2.829  11.444
 3002SOL     OW 9541   0.885   3.519  11.516
 3002SOL    HW1 9542   0.814   3.500  11.454
 3002SOL    HW2 9543   0.854   3.595  11.565
 3003SOL     OW 9544   0.230   2.486  13.154
 3003SOL    HW1 9545   0.136   2.493  13.174
 3003SOL    HW2 9546   0.232   2.455  13.063
 3004SOL     OW 9547   0.285   2.129   0.131
 3004SOL    HW1 9548   0.326   2.195   0.187
 3004SOL    HW2 9549   0.201   2.168   0.106
 3005SOL     OW 9550   0.005   2.223  13.659
 3005SOL    HW1 9551   3.912   2.242  13.662
 3005SOL    HW2 9552   0.021   2.190  13.570
 3006SOL     OW 9553   1.525   3.360  13.727
 3006SOL    HW1 9554   1.470   3.293  13.767
 3006SOL    HW2 9555   1.480   3.380  13.644
 3007SOL     OW 9556   1.128   2.562  13.730
 3007SOL    HW1 9557   1.182   2.638  13.709
 3007SOL    HW2 9558   1.082   2.586  13.810
 3008SOL     OW 9559   1.781   2.464  13.258
 3008SOL    HW1 9560   1.752   2.459  13.167
 3008SOL    HW2 9561   1.737   2.390  13.301
 3009SOL     OW 9562   0.686   2.872  13.671
 3009SOL    HW1 9563   0.740   2.851  13.748
 3009SOL    HW2 9564   0.613   2.923  13.706
 3010SOL     OW 9565   1.621   2.311  13.737
 3010SOL    HW1 9566   1.528   2.324  13.717
 3010SOL    HW2 9567   1.633   2.354  13.822
 3011SOL     OW 9568   0.222   3.571  13.499
 3011SOL    HW1 9569   0.241   3.631  13.571
 3011SOL    HW2 9570   0.300   3.576  13.443
 3012SOL     OW 9571   0.247   3.303  13.571
 3012SOL    HW1 9572   0.221   3.395  13.561
 3012SOL    HW2 9573   0.183   3.266  13.631
 3013SOL     OW 9574   0.255   2.937   0.018
 3013SOL    HW1 9575   0.274   2.897   0.103
 3013SOL    HW2 9576   0.215   3.021   0.041
 3014SOL     OW 9577   0.578   2.847  13.170
 3014SOL    HW1 9578   0.626   2.892  13.101
 3014SOL    HW2 9579   0.619   2.877  13.251
 3015SOL     OW 9580   0.142   2.508  13.615
 3015SOL    HW1 9581   0.069   2.451  13.593
 3015SOL    HW2 9582   0.105   2.574  13.674
 3016SOL     OW 9583   1.844   3.611  13.372
 3016SOL    HW1 9584   1.911   3.588  13.436
 3016SOL    HW2 9585   1.863   3.702  13.349
 3017SOL     OW 9586   0.041   3.454  13.174
 3017SOL    HW1 9587   0.034   3.362  13.198
 3017SOL    HW2 9588   3.963   3.495  13.212
 3018SOL     OW 9589   1.687   2.778  13.670
 3018SOL    HW1 9590   1.773   2.741  13.648
 3018SOL    HW2 9591   1.664   2.833  13.594
 3019SOL     OW 9592   1.648   2.967  13.460
 3019SOL    HW1 9593   1.733   2.970  13.417
 3019SOL    HW2 9594   1.654   3.030  13.531
 3020SOL     OW 9595   0.614   3.247  13.761
 3020SOL    HW1 9596   0.564   3.168  13.778
 3020SOL    HW2 9597   0.584   3.276  13.675
 3021SOL     OW 9598   0.817   1.860  13.544
 3021SOL    HW1 9599   0.857   1.945  13.523
 3021SOL    HW2 9600   0.724   1.879  13.552
 3022SOL     OW 9601   1.531   2.856  13.233
 3022SOL    HW1 9602   1.461   2.799  13.266
 3022SOL    HW2 9603   1.571   2.892  13.312
 3023SOL     OW 9604   1.654   3.598  13.612
 3023SOL    HW1 9605   1.636   3.569  13.523
 3023SOL    HW2 9606   1.645   3.519  13.666
 3024SOL     OW 9607   0.594   2.580  13.297
 3024SOL    HW1 9608   0.601   2.664  13.252
 3024SOL    HW2 9609   0.532   2.596  13.368
 3025SOL     OW 9610   1.251   2.191   0.042
 3025SOL    HW1 9611   1.185   2.136   0.083
 3025SOL    HW2 9612   1.333   2.167   0.085
 3026SOL     OW 9613   1.578   3.540  13.340
 3026SOL    HW1 9614   1.671   3.562  13.336
 3026SOL    HW2 9615   1.554   3.519  13.250
 3027SOL     OW 9616   1.049   2.559  13.459
 3027SOL    HW1 9617   1.064   2.548  13.553
 3027SOL    HW2 9618   0.968   2.512  13.442
 3028SOL     OW 9619   0.082   2.702  13.806
 3028SOL    HW1 9620   0.164   2.685  13.853
 3028SOL    HW2 9621   0.075   2.797  13.803
 3029SOL     OW 9622   0.893   2.211  13.225
 3029SOL    HW1 9623   0.935   2.274  13.166
 3029SOL    HW2 9624   0.915   2.125  13.188
 3030SOL     OW 9625   1.365   2.998  13.554
 3030SOL    HW1 9626   1.454   2.996  13.519
 3030SOL    HW2 9627   1.321   3.068  13.506
 3031SOL     OW 9628   1.001   3.303  13.503
 3031SOL    HW1 9629   0.967   3.379  13.455
 3031SOL    HW2 9630   0.971   3.316  13.593
 3032SOL     OW 9631   0.411   3.677  13.810
 3032SOL    HW1 9632   0.427   3.586  13.837
 3032SOL    HW2 9633   0.454   3.729  13.878
 3033SOL     OW 9634   1.791   2.914  13.898
 3033SOL    HW1 9635   1.735   2.901  13.822
 3033SOL    HW2 9636   1.731   2.908   0.073
 3034SOL     OW 9637   0.311   2.817  13.277
 3034SOL    HW1 9638   0.394   2.840  13.236
 3034SOL    HW2 9639   0.297   2.725  13.253
 3035SOL     OW 9640   1.488   2.595  13.744
 3035SOL    HW1 9641   1.482   2.548  13.827
 3035SOL    HW2 9642   1.563   2.653  13.755
 3036SOL     OW 9643   1.112   3.643  13.255
 3036SOL    HW1 9644   1.050   3.597  13.311
 3036SOL    HW2 9645   1.143   3.577  13.193
 3037SOL     OW 9646   1.628   3.243  13.123
 3037SOL    HW1 9647   1.587   3.328  13.106
 3037SOL    HW2 9648   1.559   3.179  13.103
 3038SOL     OW 9649   0.467   3.600  13.353
 3038SOL    HW1 9650   0.505   3.661  13.416
 3038SOL    HW2 9651   0.541   3.572  13.299
 3039SOL     OW 9652   1.402   1.973  13.462
 3039SOL    HW1 9653   1.383   1.949  13.372
 3039SOL    HW2 9654   1.493   1.946  13.476
 3040SOL     OW 9655   0.930   3.548   0.011
 3040SOL    HW1 9656   0.950   3.479   0.075
 3040SOL    HW2 9657   0.886   3.502  13.839
 3041SOL     OW 9658   0.395   2.558  13.504
 3041SOL    HW1 9659   0.424   2.467  13.516
 3041SOL    HW2 9660   0.305   2.558  13.534
 3042SOL     OW 9661   0.639   1.981  13.132
 3042SOL    HW1 9662   0.703   1.913  13.151
 3042SOL    HW2 9663   0.591   1.949  13.056
 3043SOL     OW 9664   0.553   1.925  13.531
 3043SOL    HW1 9665   0.469   1.928  13.576
 3043SOL    HW2 9666   0.558   2.007  13.483
 3044SOL     OW 9667   1.428   3.060  13.075
 3044SOL    HW1 9668   1.458   2.985  13.125
 3044SOL    HW2 9669   1.343   3.082  13.112
 3045SOL     OW 9670   0.308   1.912  13.202
 3045SOL    HW1 9671   0.373   1.950  13.144
 3045SOL    HW2 9672   0.357   1.848  13.254
 3046SOL     OW 9673   0.940   2.105  13.494
 3046SOL    HW1 9674   0.909   2.149  13.415
 3046SOL    HW2 9675   1.033   2.124  13.497
 3047SOL     OW 9676   0.469   3.005  13.768
 3047SOL    HW1 9677   0.397   2.984  13.827
 3047SOL    HW2 9678   0.433   2.995  13.680
 3048SOL     OW 9679   1.269   3.659  13.630
 3048SOL    HW1 9680   1.313   3.727  13.578
 3048SOL    HW2 9681   1.201   3.707  13.678
 3049SOL     OW 9682   1.023   2.402  13.058
 3049SOL    HW1 9683   0.981   2.485  13.039
 3049SOL    HW2 9684   1.089   2.423  13.124
 3050SOL     OW 9685   0.893   2.332  13.671
 3050SOL    HW1 9686   0.826   2.379  13.621
 3050SOL    HW2 9687   0.899   2.246  13.629
 3051SOL     OW 9688   1.027   1.898  13.776
 3051SOL    HW1 9689   0.967   1.910  13.702
 3051SOL    HW2 9690   0.994   1.819  13.820
 3052SOL     OW 9691   1.844   2.678  13.413
 3052SOL    HW1 9692   1.901   2.629  13.473
 3052SOL    HW2 9693   1.819   2.614  13.346
 3053SOL     OW 9694   0.488   3.280  13.194
 3053SOL    HW1 9695   0.412   3.250  13.244
 3053SOL    HW2 9696   0.470   3.253  13.104
 3054SOL     OW 9697   1.682   3.133  13.663
 3054SOL    HW1 9698   1.775   3.133  13.688
 3054SOL    HW2 9699   1.647   3.213  13.702
 3055SOL     OW 9700   1.393   2.435  13.103
 3055SOL    HW1 9701   1.334   2.415  13.176
 3055SOL    HW2 9702   1.479   2.407  13.134
 3056SOL     OW 9703   0.572   2.130  13.353
 3056SOL    HW1 9704   0.603   2.082  13.276
 3056SOL    HW2 9705   0.542   2.214  13.318
 3057SOL     OW 9706   0.708   2.924  13.400
 3057SOL    HW1 9707   0.694   2.909  13.494
 3057SOL    HW2 9708   0.784   2.871  13.378
 3058SOL     OW 9709   0.373   2.965  13.517
 3058SOL    HW1 9710   0.367   3.046  13.466
 3058SOL    HW2 9711   0.371   2.895  13.451
 3059SOL     OW 9712   0.569   2.405  13.869
 3059SOL    HW1 9713   0.579   2.469  13.799
 3059SOL    HW2 9714   0.631   2.434   0.037
 3060SOL     OW 9715   1.246   3.214  13.418
 3060SOL    HW1 9716   1.301   3.287  13.447
 3060SOL    HW2 9717   1.159   3.233  13.454
 3061SOL     OW 9718   1.576   2.493  13.491
 3061SOL    HW1 9719   1.538   2.528  13.572
 3061SOL    HW2 9720   1.625   2.567  13.454
 3062SOL     OW 9721   1.203   2.390  13.299
 3062SOL    HW1 9722   1.210   2.312  13.354
 3062SOL    HW2 9723   1.160   2.455  13.355
 3063SOL     OW 9724   0.302   1.922  13.641
 3063SOL    HW1 9725   0.291   2.013  13.669
 3063SOL    HW2 9726   0.318   1.873  13.722
 3064SOL     OW 9727   1.614   2.240  13.409
 3064SOL    HW1 9728   1.604   2.187  13.489
 3064SOL    HW2 9729   1.592   2.329  13.437
 3065SOL     OW 9730   1.528   2.134  13.164
 3065SOL    HW1 9731   1.461   2.071  13.190
 3065SOL    HW2 9732   1.561   2.170  13.246
 3066SOL     OW 9733   1.289   2.688  13.063
 3066SOL    HW1 9734   1.332   2.602  13.067
 3066SOL    HW2 9735   1.321   2.727  12.982
 3067SOL     OW 9736   3.999   3.181  13.215
 3067SOL    HW1 9737   3.905   3.197  13.219
 3067SOL    HW2 9738   0.009   3.087  13.233
 3068SOL     OW 9739   0.818   2.433  13.387
 3068SOL    HW1 9740   0.820   2.356  13.331
 3068SOL    HW2 9741   0.742   2.483  13.357
 3069SOL     OW 9742   0.455   2.351  13.227
 3069SOL    HW1 9743   0.521   2.419  13.245
 3069SOL    HW2 9744   0.376   2.400  13.206
 3070SOL     OW 9745   1.313   2.716  13.337
 3070SOL    HW1 9746   1.237   2.689  13.389
 3070SOL    HW2 9747   1.287   2.703  13.247
 3071SOL     OW 9748   1.383   3.436  13.507
 3071SOL    HW1 9749   1.444   3.473  13.443
 3071SOL    HW2 9750   1.338   3.512  13.544
 3072SOL     OW 9751   1.288   2.776  13.685
 3072SOL    HW1 9752   1.364   2.720  13.672
 3072SOL    HW2 9753   1.311   2.859  13.644
 3073SOL     OW 9754   0.674   3.479  13.191
 3073SOL    HW1 9755   0.683   3.495  13.097
 3073SOL    HW2 9756   0.616   3.403  13.197
 3074SOL     OW 9757   0.282   2.172  13.739
 3074SOL    HW1 9758   0.198   2.216  13.721
 3074SOL    HW2 9759   0.290   2.173  13.834
 3075SOL     OW 9760   1.208   3.467  13.069
 3075SOL    HW1 9761   1.197   3.375  13.093
 3075SOL    HW2 9762   1.146   3.480  12.997
 3076SOL     OW 9763   0.918   2.774  13.327
 3076SOL    HW1 9764   0.977   2.804  13.259
 3076SOL    HW2 9765   0.964   2.701  13.370
 3077SOL     OW 9766   1.490   3.490  13.076
 3077SOL    HW1 9767   1.396   3.480  13.060
 3077SOL    HW2 9768   1.528   3.495  12.988
 3078SOL     OW 9769   1.050   2.953  13.754
 3078SOL    HW1 9770   0.964   2.913  13.743
 3078SOL    HW2 9771   1.104   2.912  13.688
 3079SOL     OW 9772   0.602   3.356  13.506
 3079SOL    HW1 9773   0.646   3.304  13.439
 3079SOL    HW2 9774   0.530   3.399  13.459
 3080SOL     OW 9775   0.252   3.202  13.324
 3080SOL    HW1 9776   0.159   3.212  13.304
 3080SOL    HW2 9777   0.263   3.240  13.411
 3081SOL     OW 9778   0.080   2.176  13.072
 3081SOL    HW1 9779   3.985   2.177  13.079
 3081SOL    HW2 9780   0.101   2.257  13.025
 3082SOL     OW 9781   0.020   2.101  13.410
 3082SOL    HW1 9782   0.047   2.159  13.338
 3082SOL    HW2 9783   0.100   2.054  13.434
 3083SOL     OW 9784   1.178   3.200  13.149
 3083SOL    HW1 9785   1.087   3.171  13.151
 3083SOL    HW2 9786   1.205   3.200  13.241
 3084SOL     OW 9787   1.216   2.181  13.491
 3084SOL    HW1 9788   1.279   2.111  13.482
 3084SOL    HW2 9789   1.245   2.231  13.567
 3085SOL     OW 9790   0.592   2.611  13.692
 3085SOL    HW1 9791   0.627   2.698  13.674
 3085SOL    HW2 9792   0.523   2.599  13.628
 3086SOL     OW 9793   0.864   3.229  13.070
 3086SOL    HW1 9794   0.824   3.256  13.153
 3086SOL    HW2 9795   0.879   3.310  13.023
 3087SOL     OW 9796   0.657   3.711   0.068
 3087SOL    HW1 9797   0.654   3.804   0.089
 3087SOL    HW2 9798   0.749   3.687   0.079
 3088SOL     OW 9799   0.828   2.826  13.896
 3088SOL    HW1 9800   0.862   2.745   0.033
 3088SOL    HW2 9801   0.852   2.893   0.059
 3089SOL     OW 9802   1.076   2.848  13.122
 3089SOL    HW1 9803   1.056   2.901  13.045
 3089SOL    HW2 9804   1.152   2.796  13.096
 3090SOL     OW 9805   0.114   3.135  13.757
 3090SOL    HW1 9806   0.053   3.091  13.816
 3090SOL    HW2 9807   0.123   3.076  13.682
 3091SOL     OW 9808   0.445   2.300  13.557
 3091SOL    HW1 9809   0.451   2.227  13.495
 3091SOL    HW2 9810   0.402   2.264  13.634
 3092SOL     OW 9811   1.680   3.323   0.343
 3092SOL    HW1 9812   1.650   3.301   0.254
 3092SOL    HW2 9813   1.767   3.284   0.349
 3093SOL     OW 9814   0.819   3.415  13.707
 3093SOL    HW1 9815   0.793   3.465  13.630
 3093SOL    HW2 9816   0.745   3.358  13.725
 3094SOL     OW 9817   0.772   3.194  13.348
 3094SOL    HW1 9818   0.742   3.104  13.355
 3094SOL    HW2 9819   0.854   3.197  13.398
 3095SOL     OW 9820   1.350   1.914  13.200
 3095SOL    HW1 9821   1.380   1.852  13.134
 3095SOL    HW2 9822   1.263   1.883  13.224
 3096SOL     OW 9823   1.304   2.322  13.710
 3096SOL    HW1 9824   1.251   2.401  13.717
 3096SOL    HW2 9825   1.288   2.276  13.793
 3097SOL     OW 9826   0.046   2.912  13.269
 3097SOL    HW1 9827   0.140   2.896  13.262
 3097SOL    HW2 9828   0.011   2.830  13.305
 3098SOL     OW 9829   0.886   3.519  13.377
 3098SOL    HW1 9830   0.814   3.501  13.317
 3098SOL    HW2 9831   0.855   3.593  13.430
 3099SOL     OW 9832   0.233   3.948   0.967
 3099SOL    HW1 9833   0.252   3.960   1.060
 3099SOL    HW2 9834   0.140   3.967   0.959
 3100SOL     OW 9835   0.018   0.097   0.635
 3100SOL    HW1 9836   3.929   0.084   0.667
 3100SOL    HW2 9837   0.019   0.054   0.550
 3101SOL     OW 9838   1.807   0.356   0.272
 3101SOL    HW1 9839   1.783   0.317   0.187
 3101SOL    HW2 9840   1.725   0.358   0.321
 3102SOL     OW 9841   0.440   0.098   1.510
 3102SOL    HW1 9842   0.511   0.059   1.459
 3102SOL    HW2 9843   0.363   0.048   1.487
 3103SOL     OW 9844   1.596   3.848   1.462
 3103SOL    HW1 9845   1.602   3.933   1.419
 3103SOL    HW2 9846   1.580   3.869   1.554
 3104SOL     OW 9847   0.806   3.727   0.506
 3104SOL    HW1 9848   0.834   3.818   0.496
 3104SOL    HW2 9849   0.711   3.732   0.516
 3105SOL     OW 9850   1.268   0.062   0.936
 3105SOL    HW1 9851   1.196   0.007   0.906
 3105SOL    HW2 9852   1.324   0.003   0.987
 3106SOL     OW 9853   0.554   3.904   0.890
 3106SOL    HW1 9854   0.551   3.926   0.983
 3106SOL    HW2 9855   0.548   3.989   0.846
 3107SOL     OW 9856   0.192   3.981   1.498
 3107SOL    HW1 9857   0.103   0.016   1.500
 3107SOL    HW2 9858   0.187   3.901   1.550
 3108SOL     OW 9859   1.409   3.839   0.429
 3108SOL    HW1 9860   1.403   3.796   0.343
 3108SOL    HW2 9861   1.500   3.827   0.455
 3109SOL     OW 9862   1.533   3.940   1.722
 3109SOL    HW1 9863   1.559   3.943   1.814
 3109SOL    HW2 9864   1.466   3.872   1.718
 3110SOL     OW 9865   0.772   3.957   1.744
 3110SOL    HW1 9866   0.829   3.929   1.815
 3110SOL    HW2 9867   0.687   3.973   1.786
 3111SOL     OW 9868   0.534   3.784   0.514
 3111SOL    HW1 9869   0.480   3.783   0.592
 3111SOL    HW2 9870   0.546   3.876   0.493
 3112SOL     OW 9871   0.266   3.736   0.184
 3112SOL    HW1 9872   0.299   3.825   0.173
 3112SOL    HW2 9873   0.338   3.689   0.226
 3113SOL     OW 9874   0.563   3.944   1.167
 3113SOL    HW1 9875   0.604   3.871   1.214
 3113SOL    HW2 9876   0.471   3.942   1.194
 3114SOL     OW 9877   1.020   3.768   0.737
 3114SOL    HW1 9878   0.955   3.757   0.668
 3114SOL    HW2 9879   0.996   3.702   0.803
 3115SOL     OW 9880   0.923   3.803   1.399
 3115SOL    HW1 9881   0.952   3.783   1.310
 3115SOL    HW2 9882   0.996   3.852   1.437
 3116SOL     OW 9883   1.266   0.075   1.265
 3116SOL    HW1 9884   1.281   0.143   1.331
 3116SOL    HW2 9885   1.199   0.111   1.208
 3117SOL     OW 9886   0.506   3.751   1.756
 3117SOL    HW1 9887   0.453   3.705   1.690
 3117SOL    HW2 9888   0.475   3.841   1.753
 3118SOL     OW 9889   0.304   3.924   1.255
 3118SOL    HW1 9890   0.258   3.942   1.338
 3118SOL    HW2 9891   0.288   3.832   1.239
 3119SOL     OW 9892   1.596   3.939   0.155
 3119SOL    HW1 9893   1.516   3.886   0.158
 3119SOL    HW2 9894   1.569   0.025   0.187
 3120SOL     OW 9895   1.164   3.923   1.473
 3120SOL    HW1 9896   1.168   3.996   1.534
 3120SOL    HW2 9897   1.205   3.955   1.393
 3121SOL     OW 9898   0.920   3.825   0.151
 3121SOL    HW1 9899   0.950   3.815   0.060
 3121SOL    HW2 9900   0.979   3.769   0.201
 3122SOL     OW 9901   1.709   3.858   0.513
 3122SOL    HW1 9902   1.788   3.848   0.459
 3122SOL    HW2 9903   1.699   3.774   0.556
 3123SOL     OW 9904   1.836   3.882   0.971
 3123SOL    HW1 9905   1.871   3.799   0.938
 3123SOL    HW2 9906   1.755   3.895   0.921
 3124SOL     OW 9907   0.676   3.910   1.491
 3124SOL    HW1 9908   0.758   3.903   1.443
 3124SOL    HW2 9909   0.702   3.932   1.580
 3125SOL     OW 9910   0.046   0.019   0.041
 3125SOL    HW1 9911   3.957   0.021   0.005
 3125SOL    HW2 9912   0.088   0.098   0.006
 3126SOL     OW 9913   0.125   3.931   0.374
 3126SOL    HW1 9914   0.073   3.975   0.307
 3126SOL    HW2 9915   0.165   3.857   0.328
 3127SOL     OW 9916   1.192   0.012   0.464
 3127SOL    HW1 9917   1.256   3.940   0.467
 3127SOL    HW2 9918   1.212   0.065   0.541
 3128SOL     OW 9919   1.785   0.043   1.640
 3128SOL    HW1 9920   1.759   0.075   1.554
 3128SOL    HW2 9921   1.706   0.005   1.677
 3129SOL     OW 9922   1.816   3.913   1.238
 3129SOL    HW1 9923   1.822   3.822   1.267
 3129SOL    HW2 9924   1.822   3.908   1.143
 3130SOL     OW 9925   1.439   3.933   1.117
 3130SOL    HW1 9926   1.472   3.855   1.161
 3130SOL    HW2 9927   1.380   3.974   1.180
 3131SOL     OW 9928   1.015   3.736   1.149
 3131SOL    HW1 9929   0.957   3.681   1.096
 3131SOL    HW2 9930   1.100   3.694   1.144
 3132SOL     OW 9931   1.351   3.783   0.151
 3132SOL    HW1 9932   1.389   3.712   0.099
 3132SOL    HW2 9933   1.268   3.747   0.183
 3133SOL     OW 9934   1.284   0.163   0.680
 3133SOL    HW1 9935   1.279   0.258   0.689
 3133SOL    HW2 9936   1.289   0.131   0.770
 3134SOL     OW 9937   1.580   3.928   0.879
 3134SOL    HW1 9938   1.529   3.932   0.960
 3134SOL    HW2 9939   1.581   0.017   0.846
 3135SOL     OW 9940   0.234   3.949   2.827
 3135SOL    HW1 9941   0.254   3.960   2.920
 3135SOL    HW2 9942   0.140   3.966   2.821
 3136SOL     OW 9943   0.012   0.104   2.489
 3136SOL    HW1 9944   3.927   0.090   2.531
 3136SOL    HW2 9945   0.011   0.046   2.413
 3137SOL     OW 9946   1.777   0.320   2.053
 3137SOL    HW1 9947   1.703   0.298   1.996
 3137SOL    HW2 9948   1.737   0.336   2.138
 3138SOL     OW 9949   0.440   0.098   3.372
 3138SOL    HW1 9950   0.511   0.059   3.321
 3138SOL    HW2 9951   0.363   0.048   3.349
 3139SOL     OW 9952   1.596   3.848   3.324
 3139SOL    HW1 9953   1.602   3.934   3.281
 3139SOL    HW2 9954   1.580   3.869   3.416
 3140SOL     OW 9955   0.805   3.729   2.366
 3140SOL    HW1 9956   0.832   3.820   2.360
 3140SOL    HW2 9957   0.710   3.732   2.377
 3141SOL     OW 9958   1.267   0.062   2.801
 3141SOL    HW1 9959   1.197   0.007   2.768
 3141SOL    HW2 9960   1.324   0.002   2.850
 3142SOL     OW 9961   0.554   3.905   2.752
 3142SOL    HW1 9962   0.551   3.925   2.846
 3142SOL    HW2 9963   0.549   3.990   2.709
 3143SOL     OW 9964   0.193   3.981   3.360
 3143SOL    HW1 9965   0.104   0.017   3.362
 3143SOL    HW2 9966   0.187   3.901   3.412
 3144SOL     OW 9967   1.407   3.833   2.292
 3144SOL    HW1 9968   1.398   3.799   2.203
 3144SOL    HW2 9969   1.500   3.825   2.312
 3145SOL     OW 9970   1.533   3.940   3.584
 3145SOL    HW1 9971   1.559   3.943   3.676
 3145SOL    HW2 9972   1.466   3.872   3.580
 3146SOL     OW 9973   0.626   3.850   1.986
 3146SOL    HW1 9974   0.717   3.821   1.989
 3146SOL    HW2 9975   0.587   3.801   1.914
 3147SOL     OW 9976   0.772   3.957   3.606
 3147SOL    HW1 9977   0.829   3.929   3.677
 3147SOL    HW2 9978   0.687   3.973   3.648
 3148SOL     OW 9979   0.534   3.786   2.375
 3148SOL    HW1 9980   0.482   3.787   2.455
 3148SOL    HW2 9981   0.544   3.878   2.351
 3149SOL     OW 9982   0.287   3.758   2.039
 3149SOL    HW1 9983   0.332   3.842   2.026
 3149SOL    HW2 9984   0.353   3.702   2.081
 3150SOL     OW 9985   0.563   3.943   3.028
 3150SOL    HW1 9986   0.604   3.872   3.077
 3150SOL    HW2 9987   0.471   3.942   3.056
 3151SOL     OW 9988   1.020   3.767   2.599
 3151SOL    HW1 9989   0.955   3.755   2.530
 3151SOL    HW2 9990   0.996   3.702   2.666
 3152SOL     OW 9991   0.923   3.803   3.261
 3152SOL    HW1 9992   0.952   3.783   3.172
 3152SOL    HW2 9993   0.996   3.852   3.299
 3153SOL     OW 9994   1.266   0.075   3.127
 3153SOL    HW1 9995   1.281   0.143   3.193
 3153SOL    HW2 9996   1.199   0.112   3.069
 3154SOL     OW 9997   0.506   3.751   3.617
 3154SOL    HW1 9998   0.453   3.705   3.552
 3154SOL    HW2 9999   0.474   3.841   3.615
 3155SOL     OW10000   0.304   3.924   3.117
 3155SOL    HW110001   0.259   3.942   3.199
 3155SOL    HW210002   0.288   3.831   3.100
 3156SOL     OW10003   1.576   3.955   1.982
 3156SOL    HW110004   1.517   3.898   2.031
 3156SOL    HW210005   1.604   0.021   2.045
 3157SOL     OW10006   1.164   3.923   3.335
 3157SOL    HW110007   1.168   3.996   3.396
 3157SOL    HW210008   1.205   3.955   3.255
 3158SOL     OW10009   0.900   3.812   1.967
 3158SOL    HW110010   0.961   3.773   1.903
 3158SOL    HW210011   0.940   3.794   2.052
 3159SOL     OW10012   1.712   3.857   2.363
 3159SOL    HW110013   1.789   3.843   2.308
 3159SOL    HW210014   1.700   3.775   2.410
 3160SOL     OW10015   1.836   3.882   2.833
 3160SOL    HW110016   1.871   3.799   2.801
 3160SOL    HW210017   1.755   3.895   2.784
 3161SOL     OW10018   0.676   3.910   3.353
 3161SOL    HW110019   0.758   3.903   3.305
 3161SOL    HW210020   0.701   3.932   3.442
 3162SOL     OW10021   0.071   0.029   1.845
 3162SOL    HW110022   3.977   0.028   1.864
 3162SOL    HW210023   0.101   0.114   1.875
 3163SOL     OW10024   0.106   3.914   2.230
 3163SOL    HW110025   0.081   3.996   2.189
 3163SOL    HW210026   0.185   3.887   2.184
 3164SOL     OW10027   1.192   0.011   2.329
 3164SOL    HW110028   1.261   3.945   2.326
 3164SOL    HW210029   1.214   0.066   2.404
 3165SOL     OW10030   1.786   0.042   3.502
 3165SOL    HW110031   1.759   0.075   3.416
 3165SOL    HW210032   1.705   0.005   3.539
 3166SOL     OW10033   1.816   3.913   3.101
 3166SOL    HW110034   1.822   3.822   3.130
 3166SOL    HW210035   1.822   3.908   3.005
 3167SOL     OW10036   1.439   3.932   2.979
 3167SOL    HW110037   1.472   3.855   3.025
 3167SOL    HW210038   1.380   3.974   3.042
 3168SOL     OW10039   1.015   3.736   3.011
 3168SOL    HW110040   0.957   3.681   2.958
 3168SOL    HW210041   1.100   3.694   3.006
 3169SOL     OW10042   1.353   3.771   2.023
 3169SOL    HW110043   1.385   3.702   1.964
 3169SOL    HW210044   1.265   3.741   2.048
 3170SOL     OW10045   1.281   0.162   2.545
 3170SOL    HW110046   1.281   0.258   2.551
 3170SOL    HW210047   1.287   0.132   2.636
 3171SOL     OW10048   1.580   3.927   2.741
 3171SOL    HW110049   1.529   3.932   2.822
 3171SOL    HW210050   1.581   0.017   2.707
 3172SOL     OW10051   0.234   3.949   4.689
 3172SOL    HW110052   0.254   3.960   4.782
 3172SOL    HW210053   0.140   3.966   4.683
 3173SOL     OW10054   0.012   0.104   4.351
 3173SOL    HW110055   3.927   0.090   4.393
 3173SOL    HW210056   0.011   0.046   4.275
 3174SOL     OW10057   1.777   0.320   3.915
 3174SOL    HW110058   1.703   0.298   3.858
 3174SOL    HW210059   1.737   0.336   4.000
 3175SOL     OW10060   0.440   0.098   5.235
 3175SOL    HW110061   0.511   0.059   5.183
 3175SOL    HW210062   0.363   0.048   5.211
 3176SOL     OW10063   1.596   3.848   5.186
 3176SOL    HW110064   1.602   3.934   5.143
 3176SOL    HW210065   1.580   3.869   5.278
 3177SOL     OW10066   0.805   3.729   4.228
 3177SOL    HW110067   0.832   3.820   4.222
 3177SOL    HW210068   0.710   3.732   4.239
 3178SOL     OW10069   1.267   0.062   4.663
 3178SOL    HW110070   1.197   0.007   4.630
 3178SOL    HW210071   1.324   0.002   4.711
 3179SOL     OW10072   0.554   3.905   4.614
 3179SOL    HW110073   0.551   3.925   4.708
 3179SOL    HW210074   0.549   3.990   4.571
 3180SOL     OW10075   0.192   3.981   5.222
 3180SOL    HW110076   0.103   0.016   5.224
 3180SOL    HW210077   0.187   3.901   5.274
 3181SOL     OW10078   1.407   3.833   4.154
 3181SOL    HW110079   1.398   3.799   4.065
 3181SOL    HW210080   1.500   3.825   4.174
 3182SOL     OW10081   1.533   3.940   5.446
 3182SOL    HW110082   1.559   3.943   5.538
 3182SOL    HW210083   1.466   3.872   5.442
 3183SOL     OW10084   0.626   3.850   3.848
 3183SOL    HW110085   0.717   3.821   3.851
 3183SOL    HW210086   0.587   3.801   3.776
 3184SOL     OW10087   0.772   3.957   5.468
 3184SOL    HW110088   0.829   3.930   5.539
 3184SOL    HW210089   0.687   3.972   5.510
 3185SOL     OW10090   0.534   3.786   4.237
 3185SOL    HW110091   0.482   3.787   4.317
 3185SOL    HW210092   0.544   3.878   4.213
 3186SOL     OW10093   0.287   3.758   3.901
 3186SOL    HW110094   0.332   3.842   3.888
 3186SOL    HW210095   0.353   3.702   3.943
 3187SOL     OW10096   0.563   3.943   4.890
 3187SOL    HW110097   0.604   3.871   4.938
 3187SOL    HW210098   0.471   3.942   4.918
 3188SOL     OW10099   1.020   3.767   4.461
 3188SOL    HW110100   0.955   3.755   4.392
 3188SOL    HW210101   0.996   3.702   4.528
 3189SOL     OW10102   0.923   3.803   5.123
 3189SOL    HW110103   0.952   3.783   5.034
 3189SOL    HW210104   0.996   3.852   5.161
 3190SOL     OW10105   1.266   0.075   4.989
 3190SOL    HW110106   1.281   0.143   5.055
 3190SOL    HW210107   1.199   0.112   4.931
 3191SOL     OW10108   0.506   3.751   5.480
 3191SOL    HW110109   0.453   3.705   5.414
 3191SOL    HW210110   0.474   3.841   5.476
 3192SOL     OW10111   0.304   3.924   4.979
 3192SOL    HW110112   0.258   3.942   5.061
 3192SOL    HW210113   0.288   3.831   4.962
 3193SOL     OW10114   1.576   3.955   3.844
 3193SOL    HW110115   1.517   3.898   3.893
 3193SOL    HW210116   1.605   0.021   3.907
 3194SOL     OW10117   1.164   3.923   5.197
 3194SOL    HW110118   1.168   3.997   5.258
 3194SOL    HW210119   1.205   3.955   5.117
 3195SOL     OW10120   0.900   3.812   3.829
 3195SOL    HW110121   0.961   3.773   3.765
 3195SOL    HW210122   0.940   3.794   3.914
 3196SOL     OW10123   1.712   3.857   4.225
 3196SOL    HW110124   1.789   3.843   4.170
 3196SOL    HW210125   1.700   3.775   4.272
 3197SOL     OW10126   1.835   3.882   4.695
 3197SOL    HW110127   1.871   3.799   4.663
 3197SOL    HW210128   1.755   3.895   4.645
 3198SOL     OW10129   0.676   3.910   5.215
 3198SOL    HW110130   0.758   3.903   5.167
 3198SOL    HW210131   0.701   3.932   5.304
 3199SOL     OW10132   0.071   0.029   3.707
 3199SOL    HW110133   3.977   0.028   3.726
 3199SOL    HW210134   0.101   0.114   3.737
 3200SOL     OW10135   0.106   3.914   4.092
 3200SOL    HW110136   0.081   3.996   4.051
 3200SOL    HW210137   0.185   3.887   4.046
 3201SOL     OW10138   1.192   0.011   4.191
 3201SOL    HW110139   1.261   3.945   4.188
 3201SOL    HW210140   1.214   0.066   4.266
 3202SOL     OW10141   1.786   0.042   5.365
 3202SOL    HW110142   1.760   0.075   5.278
 3202SOL    HW210143   1.705   0.005   5.401
 3203SOL     OW10144   1.816   3.913   4.963
 3203SOL    HW110145   1.823   3.822   4.992
 3203SOL    HW210146   1.822   3.908   4.867
 3204SOL     OW10147   1.439   3.932   4.841
 3204SOL    HW110148   1.472   3.855   4.887
 3204SOL    HW210149   1.380   3.974   4.904
 3205SOL     OW10150   1.015   3.736   4.873
 3205SOL    HW110151   0.957   3.681   4.820
 3205SOL    HW210152   1.100   3.694   4.868
 3206SOL     OW10153   1.353   3.771   3.885
 3206SOL    HW110154   1.385   3.702   3.826
 3206SOL    HW210155   1.265   3.741   3.910
 3207SOL     OW10156   1.281   0.162   4.407
 3207SOL    HW110157   1.281   0.258   4.413
 3207SOL    HW210158   1.287   0.133   4.498
 3208SOL     OW10159   1.580   3.927   4.603
 3208SOL    HW110160   1.529   3.932   4.684
 3208SOL    HW210161   1.581   0.017   4.569
 3209SOL     OW10162   0.234   3.949   6.551
 3209SOL    HW110163   0.254   3.960   6.644
 3209SOL    HW210164   0.140   3.966   6.545
 3210SOL     OW10165   0.012   0.104   6.213
 3210SOL    HW110166   3.927   0.089   6.256
 3210SOL    HW210167   0.010   0.046   6.137
 3211SOL     OW10168   1.777   0.321   5.777
 3211SOL    HW110169   1.704   0.298   5.720
 3211SOL    HW210170   1.736   0.336   5.863
 3212SOL     OW10171   0.440   0.098   7.097
 3212SOL    HW110172   0.511   0.060   7.045
 3212SOL    HW210173   0.363   0.048   7.073
 3213SOL     OW10174   1.596   3.848   7.048
 3213SOL    HW110175   1.602   3.933   7.005
 3213SOL    HW210176   1.580   3.870   7.140
 3214SOL     OW10177   0.805   3.729   6.090
 3214SOL    HW110178   0.832   3.820   6.084
 3214SOL    HW210179   0.710   3.732   6.101
 3215SOL     OW10180   1.267   0.062   6.526
 3215SOL    HW110181   1.197   0.007   6.491
 3215SOL    HW210182   1.324   0.002   6.573
 3216SOL     OW10183   0.554   3.905   6.476
 3216SOL    HW110184   0.551   3.925   6.570
 3216SOL    HW210185   0.549   3.990   6.433
 3217SOL     OW10186   0.192   3.981   7.084
 3217SOL    HW110187   0.103   0.016   7.086
 3217SOL    HW210188   0.187   3.901   7.136
 3218SOL     OW10189   1.406   3.833   6.016
 3218SOL    HW110190   1.398   3.799   5.927
 3218SOL    HW210191   1.500   3.824   6.036
 3219SOL     OW10192   1.533   3.940   7.308
 3219SOL    HW110193   1.560   3.942   7.400
 3219SOL    HW210194   1.466   3.872   7.304
 3220SOL     OW10195   0.626   3.850   5.710
 3220SOL    HW110196   0.717   3.821   5.713
 3220SOL    HW210197   0.587   3.801   5.638
 3221SOL     OW10198   0.772   3.957   7.330
 3221SOL    HW110199   0.830   3.930   7.401
 3221SOL    HW210200   0.687   3.972   7.372
 3222SOL     OW10201   0.534   3.786   6.098
 3222SOL    HW110202   0.481   3.787   6.179
 3222SOL    HW210203   0.544   3.878   6.075
 3223SOL     OW10204   0.287   3.758   5.763
 3223SOL    HW110205   0.332   3.841   5.750
 3223SOL    HW210206   0.353   3.702   5.805
 3224SOL     OW10207   0.563   3.943   6.752
 3224SOL    HW110208   0.604   3.871   6.800
 3224SOL    HW210209   0.471   3.942   6.780
 3225SOL     OW10210   1.020   3.768   6.324
 3225SOL    HW110211   0.955   3.756   6.254
 3225SOL    HW210212   0.996   3.702   6.390
 3226SOL     OW10213   0.923   3.803   6.985
 3226SOL    HW110214   0.952   3.783   6.896
 3226SOL    HW210215   0.996   3.853   7.023
 3227SOL     OW10216   1.266   0.075   6.851
 3227SOL    HW110217   1.281   0.143   6.917
 3227SOL    HW210218   1.200   0.112   6.793
 3228SOL     OW10219   0.506   3.751   7.342
 3228SOL    HW110220   0.453   3.705   7.276
 3228SOL    HW210221   0.475   3.841   7.338
 3229SOL     OW10222   0.304   3.924   6.841
 3229SOL    HW110223   0.258   3.942   6.923
 3229SOL    HW210224   0.288   3.831   6.824
 3230SOL     OW10225   1.576   3.955   5.706
 3230SOL    HW110226   1.517   3.898   5.756
 3230SOL    HW210227   1.606   0.020   5.769
 3231SOL     OW10228   1.164   3.923   7.059
 3231SOL    HW110229   1.168   3.997   7.120
 3231SOL    HW210230   1.205   3.955   6.979
 3232SOL     OW10231   0.900   3.812   5.691
 3232SOL    HW110232   0.960   3.773   5.627
 3232SOL    HW210233   0.941   3.793   5.776
 3233SOL     OW10234   1.712   3.857   6.086
 3233SOL    HW110235   1.789   3.843   6.032
 3233SOL    HW210236   1.700   3.775   6.134
 3234SOL     OW10237   1.835   3.882   6.557
 3234SOL    HW110238   1.871   3.799   6.525
 3234SOL    HW210239   1.755   3.895   6.507
 3235SOL     OW10240   0.676   3.910   7.077
 3235SOL    HW110241   0.758   3.903   7.029
 3235SOL    HW210242   0.702   3.932   7.166
 3236SOL     OW10243   0.071   0.028   5.569
 3236SOL    HW110244   3.977   0.028   5.588
 3236SOL    HW210245   0.100   0.114   5.599
 3237SOL     OW10246   0.106   3.914   5.954
 3237SOL    HW110247   0.081   3.996   5.913
 3237SOL    HW210248   0.185   3.887   5.908
 3238SOL     OW10249   1.191   0.011   6.054
 3238SOL    HW110250   1.261   3.945   6.050
 3238SOL    HW210251   1.214   0.066   6.129
 3239SOL     OW10252   1.786   0.042   7.227
 3239SOL    HW110253   1.760   0.076   7.141
 3239SOL    HW210254   1.705   0.005   7.263
 3240SOL     OW10255   1.817   3.912   6.825
 3240SOL    HW110256   1.822   3.821   6.853
 3240SOL    HW210257   1.822   3.908   6.729
 3241SOL     OW10258   1.439   3.933   6.703
 3241SOL    HW110259   1.472   3.855   6.748
 3241SOL    HW210260   1.380   3.974   6.766
 3242SOL     OW10261   1.015   3.736   6.735
 3242SOL    HW110262   0.957   3.680   6.682
 3242SOL    HW210263   1.100   3.694   6.730
 3243SOL     OW10264   1.353   3.770   5.747
 3243SOL    HW110265   1.386   3.702   5.689
 3243SOL    HW210266   1.265   3.741   5.772
 3244SOL     OW10267   1.281   0.162   6.269
 3244SOL    HW110268   1.281   0.258   6.275
 3244SOL    HW210269   1.287   0.133   6.360
 3245SOL     OW10270   1.580   3.927   6.465
 3245SOL    HW110271   1.530   3.932   6.546
 3245SOL    HW210272   1.581   0.017   6.431
 3246SOL     OW10273   0.234   3.949   8.413
 3246SOL    HW110274   0.254   3.960   8.506
 3246SOL    HW210275   0.140   3.967   8.407
 3247SOL     OW10276   0.012   0.104   8.075
 3247SOL    HW110277   3.927   0.089   8.117
 3247SOL    HW210278   0.011   0.046   7.999
 3248SOL     OW10279   1.777   0.320   7.639
 3248SOL    HW110280   1.704   0.298   7.582
 3248SOL    HW210281   1.736   0.335   7.725
 3249SOL     OW10282   0.440   0.098   8.959
 3249SOL    HW110283   0.511   0.059   8.907
 3249SOL    HW210284   0.363   0.048   8.935
 3250SOL     OW10285   1.596   3.848   8.910
 3250SOL    HW110286   1.602   3.933   8.867
 3250SOL    HW210287   1.580   3.869   9.002
 3251SOL     OW10288   0.805   3.729   7.952
 3251SOL    HW110289   0.832   3.821   7.946
 3251SOL    HW210290   0.710   3.732   7.963
 3252SOL     OW10291   1.267   0.063   8.388
 3252SOL    HW110292   1.197   0.008   8.353
 3252SOL    HW210293   1.324   0.002   8.435
 3253SOL     OW10294   0.554   3.905   8.338
 3253SOL    HW110295   0.551   3.925   8.432
 3253SOL    HW210296   0.549   3.990   8.295
 3254SOL     OW10297   0.192   3.981   8.946
 3254SOL    HW110298   0.104   0.016   8.948
 3254SOL    HW210299   0.187   3.901   8.998
 3255SOL     OW10300   1.406   3.833   7.878
 3255SOL    HW110301   1.397   3.799   7.789
 3255SOL    HW210302   1.500   3.825   7.897
 3256SOL     OW10303   1.533   3.940   9.170
 3256SOL    HW110304   1.559   3.943   9.262
 3256SOL    HW210305   1.466   3.872   9.166
 3257SOL     OW10306   0.626   3.851   7.572
 3257SOL    HW110307   0.717   3.821   7.575
 3257SOL    HW210308   0.587   3.801   7.500
 3258SOL     OW10309   0.772   3.957   9.192
 3258SOL    HW110310   0.829   3.929   9.263
 3258SOL    HW210311   0.687   3.973   9.234
 3259SOL     OW10312   0.534   3.786   7.960
 3259SOL    HW110313   0.482   3.787   8.040
 3259SOL    HW210314   0.544   3.878   7.937
 3260SOL     OW10315   0.287   3.758   7.626
 3260SOL    HW110316   0.332   3.841   7.612
 3260SOL    HW210317   0.353   3.702   7.667
 3261SOL     OW10318   0.563   3.944   8.614
 3261SOL    HW110319   0.604   3.871   8.662
 3261SOL    HW210320   0.471   3.942   8.642
 3262SOL     OW10321   1.020   3.767   8.186
 3262SOL    HW110322   0.955   3.756   8.116
 3262SOL    HW210323   0.996   3.702   8.251
 3263SOL     OW10324   0.923   3.803   8.847
 3263SOL    HW110325   0.952   3.783   8.758
 3263SOL    HW210326   0.996   3.853   8.885
 3264SOL     OW10327   1.266   0.075   8.713
 3264SOL    HW110328   1.281   0.143   8.779
 3264SOL    HW210329   1.199   0.111   8.655
 3265SOL     OW10330   0.506   3.751   9.204
 3265SOL    HW110331   0.453   3.705   9.138
 3265SOL    HW210332   0.475   3.841   9.200
 3266SOL     OW10333   0.304   3.924   8.703
 3266SOL    HW110334   0.258   3.942   8.785
 3266SOL    HW210335   0.288   3.831   8.686
 3267SOL     OW10336   1.577   3.954   7.568
 3267SOL    HW110337   1.515   3.899   7.617
 3267SOL    HW210338   1.603   0.021   7.630
 3268SOL     OW10339   1.164   3.923   8.922
 3268SOL    HW110340   1.168   3.997   8.982
 3268SOL    HW210341   1.205   3.955   8.841
 3269SOL     OW10342   0.900   3.812   7.553
 3269SOL    HW110343   0.960   3.773   7.489
 3269SOL    HW210344   0.941   3.793   7.638
 3270SOL     OW10345   1.712   3.857   7.949
 3270SOL    HW110346   1.789   3.843   7.894
 3270SOL    HW210347   1.701   3.775   7.996
 3271SOL     OW10348   1.836   3.882   8.420
 3271SOL    HW110349   1.871   3.799   8.387
 3271SOL    HW210350   1.755   3.895   8.370
 3272SOL     OW10351   0.676   3.910   8.939
 3272SOL    HW110352   0.758   3.903   8.891
 3272SOL    HW210353   0.702   3.932   9.028
 3273SOL     OW10354   0.070   0.028   7.432
 3273SOL    HW110355   3.976   0.028   7.450
 3273SOL    HW210356   0.100   0.114   7.461
 3274SOL     OW10357   0.106   3.914   7.817
 3274SOL    HW110358   0.081   3.996   7.775
 3274SOL    HW210359   0.185   3.886   7.770
 3275SOL     OW10360   1.191   0.011   7.916
 3275SOL    HW110361   1.261   3.945   7.912
 3275SOL    HW210362   1.214   0.066   7.991
 3276SOL     OW10363   1.786   0.042   9.088
 3276SOL    HW110364   1.759   0.075   9.002
 3276SOL    HW210365   1.705   0.005   9.125
 3277SOL     OW10366   1.817   3.913   8.687
 3277SOL    HW110367   1.822   3.822   8.716
 3277SOL    HW210368   1.822   3.908   8.591
 3278SOL     OW10369   1.439   3.932   8.565
 3278SOL    HW110370   1.472   3.855   8.611
 3278SOL    HW210371   1.380   3.974   8.628
 3279SOL     OW10372   1.015   3.736   8.597
 3279SOL    HW110373   0.957   3.681   8.544
 3279SOL    HW210374   1.100   3.694   8.592
 3280SOL     OW10375   1.353   3.770   7.609
 3280SOL    HW110376   1.385   3.702   7.550
 3280SOL    HW210377   1.265   3.741   7.634
 3281SOL     OW10378   1.281   0.162   8.132
 3281SOL    HW110379   1.281   0.258   8.137
 3281SOL    HW210380   1.287   0.133   8.223
 3282SOL     OW10381   1.580   3.927   8.327
 3282SOL    HW110382   1.530   3.933   8.408
 3282SOL    HW210383   1.581   0.017   8.293
 3283SOL     OW10384   0.234   3.949  10.275
 3283SOL    HW110385   0.254   3.960  10.368
 3283SOL    HW210386   0.140   3.966  10.268
 3284SOL     OW10387   0.012   0.104   9.937
 3284SOL    HW110388   3.927   0.090   9.979
 3284SOL    HW210389   0.011   0.046   9.861
 3285SOL     OW10390   1.777   0.320   9.501
 3285SOL    HW110391   1.703   0.298   9.444
 3285SOL    HW210392   1.737   0.336   9.586
 3286SOL     OW10393   0.440   0.098  10.820
 3286SOL    HW110394   0.511   0.059  10.769
 3286SOL    HW210395   0.363   0.048  10.797
 3287SOL     OW10396   1.596   3.848  10.772
 3287SOL    HW110397   1.602   3.934  10.729
 3287SOL    HW210398   1.580   3.869  10.864
 3288SOL     OW10399   0.805   3.729   9.814
 3288SOL    HW110400   0.832   3.820   9.808
 3288SOL    HW210401   0.710   3.732   9.825
 3289SOL     OW10402   1.267   0.062  10.249
 3289SOL    HW110403   1.197   0.007  10.216
 3289SOL    HW210404   1.324   0.002  10.297
 3290SOL     OW10405   0.554   3.905  10.200
 3290SOL    HW110406   0.551   3.925  10.294
 3290SOL    HW210407   0.549   3.990  10.157
 3291SOL     OW10408   0.192   3.981  10.808
 3291SOL    HW110409   0.104   0.017  10.810
 3291SOL    HW210410   0.187   3.901  10.860
 3292SOL     OW10411   1.406   3.833   9.740
 3292SOL    HW110412   1.398   3.799   9.651
 3292SOL    HW210413   1.500   3.825   9.760
 3293SOL     OW10414   1.533   3.940  11.032
 3293SOL    HW110415   1.559   3.943  11.124
 3293SOL    HW210416   1.466   3.872  11.029
 3294SOL     OW10417   0.626   3.850   9.434
 3294SOL    HW110418   0.717   3.821   9.437
 3294SOL    HW210419   0.587   3.801   9.362
 3295SOL     OW10420   0.772   3.957  11.054
 3295SOL    HW110421   0.829   3.929  11.125
 3295SOL    HW210422   0.687   3.973  11.096
 3296SOL     OW10423   0.534   3.786   9.823
 3296SOL    HW110424   0.482   3.787   9.903
 3296SOL    HW210425   0.544   3.878   9.799
 3297SOL     OW10426   0.287   3.758   9.487
 3297SOL    HW110427   0.332   3.842   9.474
 3297SOL    HW210428   0.353   3.702   9.529
 3298SOL     OW10429   0.563   3.943  10.476
 3298SOL    HW110430   0.604   3.871  10.525
 3298SOL    HW210431   0.471   3.942  10.504
 3299SOL     OW10432   1.020   3.767  10.047
 3299SOL    HW110433   0.955   3.756   9.978
 3299SOL    HW210434   0.996   3.702  10.113
 3300SOL     OW10435   0.923   3.803  10.709
 3300SOL    HW110436   0.952   3.783  10.620
 3300SOL    HW210437   0.996   3.853  10.747
 3301SOL     OW10438   1.266   0.075  10.575
 3301SOL    HW110439   1.281   0.143  10.641
 3301SOL    HW210440   1.199   0.112  10.517
 3302SOL     OW10441   0.506   3.751  11.066
 3302SOL    HW110442   0.453   3.705  11.000
 3302SOL    HW210443   0.475   3.841  11.063
 3303SOL     OW10444   0.304   3.924  10.565
 3303SOL    HW110445   0.258   3.942  10.647
 3303SOL    HW210446   0.288   3.831  10.548
 3304SOL     OW10447   1.576   3.954   9.430
 3304SOL    HW110448   1.516   3.898   9.479
 3304SOL    HW210449   1.604   0.021   9.493
 3305SOL     OW10450   1.164   3.923  10.783
 3305SOL    HW110451   1.168   3.997  10.844
 3305SOL    HW210452   1.205   3.955  10.703
 3306SOL     OW10453   0.900   3.812   9.415
 3306SOL    HW110454   0.961   3.773   9.351
 3306SOL    HW210455   0.940   3.794   9.500
 3307SOL     OW10456   1.712   3.857   9.811
 3307SOL    HW110457   1.789   3.843   9.756
 3307SOL    HW210458   1.700   3.775   9.858
 3308SOL     OW10459   1.835   3.882  10.281
 3308SOL    HW110460   1.871   3.799  10.249
 3308SOL    HW210461   1.755   3.895  10.232
 3309SOL     OW10462   0.676   3.910  10.801
 3309SOL    HW110463   0.758   3.903  10.753
 3309SOL    HW210464   0.701   3.932  10.890
 3310SOL     OW10465   0.071   0.029   9.293
 3310SOL    HW110466   3.977   0.028   9.312
 3310SOL    HW210467   0.101   0.114   9.323
 3311SOL     OW10468   0.106   3.914   9.678
 3311SOL    HW110469   0.081   3.996   9.637
 3311SOL    HW210470   0.185   3.887   9.632
 3312SOL     OW10471   1.192   0.011   9.777
 3312SOL    HW110472   1.261   3.945   9.774
 3312SOL    HW210473   1.214   0.066   9.852
 3313SOL     OW10474   1.786   0.042  10.950
 3313SOL    HW110475   1.760   0.075  10.864
 3313SOL    HW210476   1.705   0.005  10.987
 3314SOL     OW10477   1.816   3.913  10.549
 3314SOL    HW110478   1.822   3.822  10.578
 3314SOL    HW210479   1.822   3.908  10.453
 3315SOL     OW10480   1.439   3.932  10.427
 3315SOL    HW110481   1.472   3.855  10.473
 3315SOL    HW210482   1.380   3.974  10.490
 3316SOL     OW10483   1.015   3.736  10.459
 3316SOL    HW110484   0.957   3.681  10.406
 3316SOL    HW210485   1.100   3.694  10.454
 3317SOL     OW10486   1.353   3.770   9.471
 3317SOL    HW110487   1.385   3.702   9.412
 3317SOL    HW210488   1.265   3.741   9.496
 3318SOL     OW10489   1.281   0.162   9.993
 3318SOL    HW110490   1.281   0.258   9.999
 3318SOL    HW210491   1.287   0.133  10.084
 3319SOL     OW10492   1.580   3.927  10.189
 3319SOL    HW110493   1.529   3.932  10.270
 3319SOL    HW210494   1.581   0.017  10.155
 3320SOL     OW10495   0.234   3.949  12.137
 3320SOL    HW110496   0.254   3.960  12.230
 3320SOL    HW210497   0.140   3.966  12.131
 3321SOL     OW10498   0.012   0.104  11.799
 3321SOL    HW110499   3.927   0.090  11.841
 3321SOL    HW210500   0.011   0.046  11.723
 3322SOL     OW10501   1.777   0.320  11.363
 3322SOL    HW110502   1.703   0.298  11.306
 3322SOL    HW210503   1.737   0.336  11.448
 3323SOL     OW10504   0.440   0.098  12.683
 3323SOL    HW110505   0.511   0.060  12.632
 3323SOL    HW210506   0.363   0.048  12.659
 3324SOL     OW10507   1.596   3.848  12.634
 3324SOL    HW110508   1.601   3.934  12.591
 3324SOL    HW210509   1.580   3.869  12.726
 3325SOL     OW10510   0.805   3.729  11.676
 3325SOL    HW110511   0.832   3.820  11.670
 3325SOL    HW210512   0.710   3.732  11.687
 3326SOL     OW10513   1.267   0.062  12.111
 3326SOL    HW110514   1.197   0.007  12.078
 3326SOL    HW210515   1.324   0.002  12.159
 3327SOL     OW10516   0.554   3.905  12.062
 3327SOL    HW110517   0.551   3.925  12.156
 3327SOL    HW210518   0.549   3.990  12.019
 3328SOL     OW10519   0.192   3.981  12.670
 3328SOL    HW110520   0.103   0.016  12.672
 3328SOL    HW210521   0.187   3.900  12.721
 3329SOL     OW10522   1.407   3.833  11.602
 3329SOL    HW110523   1.398   3.799  11.513
 3329SOL    HW210524   1.500   3.825  11.622
 3330SOL     OW10525   1.533   3.940  12.894
 3330SOL    HW110526   1.558   3.945  12.987
 3330SOL    HW210527   1.466   3.872  12.891
 3331SOL     OW10528   0.626   3.850  11.296
 3331SOL    HW110529   0.717   3.821  11.299
 3331SOL    HW210530   0.587   3.801  11.224
 3332SOL     OW10531   0.771   3.957  12.916
 3332SOL    HW110532   0.830   3.930  12.986
 3332SOL    HW210533   0.687   3.971  12.959
 3333SOL     OW10534   0.534   3.786  11.685
 3333SOL    HW110535   0.482   3.787  11.765
 3333SOL    HW210536   0.544   3.878  11.661
 3334SOL     OW10537   0.287   3.758  11.349
 3334SOL    HW110538   0.332   3.842  11.336
 3334SOL    HW210539   0.353   3.702  11.391
 3335SOL     OW10540   0.563   3.943  12.338
 3335SOL    HW110541   0.604   3.871  12.386
 3335SOL    HW210542   0.471   3.942  12.366
 3336SOL     OW10543   1.020   3.767  11.909
 3336SOL    HW110544   0.955   3.755  11.840
 3336SOL    HW210545   0.996   3.702  11.976
 3337SOL     OW10546   0.923   3.803  12.571
 3337SOL    HW110547   0.952   3.783  12.482
 3337SOL    HW210548   0.996   3.852  12.609
 3338SOL     OW10549   1.267   0.075  12.437
 3338SOL    HW110550   1.281   0.143  12.503
 3338SOL    HW210551   1.199   0.112  12.379
 3339SOL     OW10552   0.505   3.751  12.928
 3339SOL    HW110553   0.453   3.704  12.862
 3339SOL    HW210554   0.474   3.841  12.923
 3340SOL     OW10555   0.304   3.924  12.427
 3340SOL    HW110556   0.258   3.942  12.509
 3340SOL    HW210557   0.288   3.831  12.410
 3341SOL     OW10558   1.576   3.954  11.292
 3341SOL    HW110559   1.517   3.898  11.341
 3341SOL    HW210560   1.605   0.021  11.355
 3342SOL     OW10561   1.164   3.923  12.645
 3342SOL    HW110562   1.169   3.997  12.706
 3342SOL    HW210563   1.205   3.955  12.565
 3343SOL     OW10564   0.900   3.812  11.277
 3343SOL    HW110565   0.961   3.773  11.213
 3343SOL    HW210566   0.940   3.794  11.362
 3344SOL     OW10567   1.712   3.857  11.673
 3344SOL    HW110568   1.789   3.843  11.618
 3344SOL    HW210569   1.700   3.775  11.720
 3345SOL     OW10570   1.835   3.882  12.143
 3345SOL    HW110571   1.871   3.799  12.111
 3345SOL    HW210572   1.755   3.895  12.093
 3346SOL     OW10573   0.676   3.910  12.663
 3346SOL    HW110574   0.758   3.903  12.615
 3346SOL    HW210575   0.702   3.932  12.752
 3347SOL     OW10576   0.071   0.029  11.155
 3347SOL    HW110577   3.977   0.028  11.174
 3347SOL    HW210578   0.101   0.114  11.185
 3348SOL     OW10579   0.106   3.914  11.540
 3348SOL    HW110580   0.081   3.996  11.499
 3348SOL    HW210581   0.185   3.887  11.494
 3349SOL     OW10582   1.192   0.011  11.639
 3349SOL    HW110583   1.261   3.945  11.636
 3349SOL    HW210584   1.214   0.066  11.714
 3350SOL     OW10585   1.785   0.043  12.812
 3350SOL    HW110586   1.759   0.075  12.726
 3350SOL    HW210587   1.706   0.005  12.849
 3351SOL     OW10588   1.816   3.913  12.411
 3351SOL    HW110589   1.822   3.822  12.440
 3351SOL    HW210590   1.822   3.908  12.315
 3352SOL     OW10591   1.439   3.932  12.289
 3352SOL    HW110592   1.472   3.855  12.335
 3352SOL    HW210593   1.380   3.974  12.352
 3353SOL     OW10594   1.015   3.736  12.321
 3353SOL    HW110595   0.957   3.680  12.268
 3353SOL    HW210596   1.100   3.694  12.316
 3354SOL     OW10597   1.353   3.771  11.333
 3354SOL    HW110598   1.385   3.702  11.274
 3354SOL    HW210599   1.265   3.741  11.358
 3355SOL     OW10600   1.281   0.162  11.855
 3355SOL    HW110601   1.281   0.258  11.861
 3355SOL    HW210602   1.287   0.133  11.946
 3356SOL     OW10603   1.580   3.927  12.051
 3356SOL    HW110604   1.529   3.932  12.132
 3356SOL    HW210605   1.581   0.017  12.017
 3357SOL     OW10606   0.010   0.101  13.648
 3357SOL    HW110607   3.916   0.092  13.659
 3357SOL    HW210608   0.031   0.047  13.572
 3358SOL     OW10609   1.777   0.321  13.225
 3358SOL    HW110610   1.701   0.302  13.170
 3358SOL    HW210611   1.742   0.323  13.314
 3359SOL     OW10612   1.613   0.172  13.766
 3359SOL    HW110613   1.525   0.149  13.735
 3359SOL    HW210614   1.605   0.261  13.798
 3360SOL     OW10615   0.808   3.729  13.538
 3360SOL    HW110616   0.832   3.822  13.532
 3360SOL    HW210617   0.713   3.730  13.549
 3361SOL     OW10618   1.405   3.834  13.462
 3361SOL    HW110619   1.399   3.799  13.373
 3361SOL    HW210620   1.498   3.829  13.483
 3362SOL     OW10621   0.624   3.851  13.157
 3362SOL    HW110622   0.715   3.821  13.163
 3362SOL    HW210623   0.587   3.801  13.085
 3363SOL     OW10624   0.535   3.781  13.546
 3363SOL    HW110625   0.483   3.771  13.625
 3363SOL    HW210626   0.539   3.875  13.532
 3364SOL     OW10627   0.288   3.759  13.213
 3364SOL    HW110628   0.341   3.836  13.190
 3364SOL    HW210629   0.349   3.699  13.256
 3365SOL     OW10630   1.011   3.763  13.773
 3365SOL    HW110631   0.955   3.758  13.696
 3365SOL    HW210632   0.992   3.684  13.823
 3366SOL     OW10633   1.574   3.960  13.155
 3366SOL    HW110634   1.522   3.897  13.206
 3366SOL    HW210635   1.621   0.010  13.221
 3367SOL     OW10636   0.900   3.812  13.139
 3367SOL    HW110637   0.960   3.773  13.075
 3367SOL    HW210638   0.940   3.792  13.224
 3368SOL     OW10639   1.728   3.859  13.557
 3368SOL    HW110640   1.795   3.846  13.490
 3368SOL    HW210641   1.710   3.771  13.590
 3369SOL     OW10642   1.847   3.892   0.056
 3369SOL    HW110643   1.870   3.799   0.053
 3369SOL    HW210644   1.756   3.894   0.085
 3370SOL     OW10645   0.072   0.027  13.019
 3370SOL    HW110646   3.978   0.026  13.037
 3370SOL    HW210647   0.101   0.113  13.049
 3371SOL     OW10648   0.114   3.921  13.407
 3371SOL    HW110649   0.087   3.995  13.352
 3371SOL    HW210650   0.187   3.881  13.359
 3372SOL     OW10651   1.186   0.003  13.516
 3372SOL    HW110652   1.259   3.945  13.496
 3372SOL    HW210653   1.219   0.062  13.583
 3373SOL     OW10654   1.353   3.770  13.194
 3373SOL    HW110655   1.385   3.701  13.135
 3373SOL    HW210656   1.266   3.741  13.220
 3374SOL     OW10657   1.309   0.157  13.735
 3374SOL    HW110658   1.276   0.245  13.716
 3374SOL    HW210659   1.293   0.146  13.829
 3375SOL     OW10660   2.097   0.645   0.117
 3375SOL    HW110661   2.011   0.614   0.146
 3375SOL    HW210662   2.113   0.596   0.036
 3376SOL     OW10663   2.078   0.300   0.992
 3376SOL    HW110664   2.116   0.257   1.068
 3376SOL    HW210665   1.994   0.256   0.978
 3377SOL     OW10666   1.872   0.399   0.634
 3377SOL    HW110667   1.784   0.411   0.670
 3377SOL    HW210668   1.862   0.325   0.573
 3378SOL     OW10669   2.430   1.289   1.176
 3378SOL    HW110670   2.343   1.293   1.137
 3378SOL    HW210671   2.446   1.378   1.208
 3379SOL     OW10672   3.425   1.512   0.707
 3379SOL    HW110673   3.381   1.491   0.789
 3379SOL    HW210674   3.355   1.515   0.642
 3380SOL     OW10675   2.994   0.698   0.698
 3380SOL    HW110676   3.042   0.780   0.686
 3380SOL    HW210677   2.947   0.710   0.781
 3381SOL     OW10678   3.614   0.630   0.225
 3381SOL    HW110679   3.624   0.619   0.130
 3381SOL    HW210680   3.626   0.543   0.261
 3382SOL     OW10681   2.616   1.141   1.042
 3382SOL    HW110682   2.547   1.176   1.099
 3382SOL    HW210683   2.652   1.218   0.998
 3383SOL     OW10684   2.731   0.771   1.823
 3383SOL    HW110685   2.717   0.842   1.886
 3383SOL    HW210686   2.754   0.816   1.742
 3384SOL     OW10687   2.547   1.000   0.647
 3384SOL    HW110688   2.613   0.990   0.716
 3384SOL    HW210689   2.479   1.054   0.686
 3385SOL     OW10690   2.574   1.150   1.814
 3385SOL    HW110691   2.621   1.228   1.842
 3385SOL    HW210692   2.492   1.183   1.778
 3386SOL     OW10693   2.193   1.419   1.069
 3386SOL    HW110694   2.118   1.386   1.021
 3386SOL    HW210695   2.242   1.471   1.004
 3387SOL     OW10696   3.321   1.501   1.356
 3387SOL    HW110697   3.375   1.580   1.365
 3387SOL    HW210698   3.258   1.506   1.428
 3388SOL     OW10699   2.306   0.394   1.493
 3388SOL    HW110700   2.396   0.361   1.492
 3388SOL    HW210701   2.252   0.316   1.501
 3389SOL     OW10702   3.472   0.450   0.736
 3389SOL    HW110703   3.404   0.486   0.679
 3389SOL    HW210704   3.498   0.523   0.791
 3390SOL     OW10705   2.108   1.698   0.476
 3390SOL    HW110706   2.142   1.768   0.532
 3390SOL    HW210707   2.171   1.691   0.405
 3391SOL     OW10708   2.998   1.342   1.694
 3391SOL    HW110709   3.040   1.337   1.780
 3391SOL    HW210710   2.946   1.262   1.687
 3392SOL     OW10711   2.079   1.435   0.532
 3392SOL    HW110712   2.079   1.531   0.530
 3392SOL    HW210713   2.022   1.413   0.606
 3393SOL     OW10714   2.122   1.090   0.890
 3393SOL    HW110715   2.118   1.003   0.930
 3393SOL    HW210716   2.065   1.144   0.945
 3394SOL     OW10717   2.471   1.792   1.428
 3394SOL    HW110718   2.391   1.774   1.476
 3394SOL    HW210719   2.496   1.880   1.455
 3395SOL     OW10720   2.429   0.980   0.161
 3395SOL    HW110721   2.457   1.025   0.081
 3395SOL    HW210722   2.482   1.019   0.231
 3396SOL     OW10723   3.443   0.140   1.457
 3396SOL    HW110724   3.468   0.213   1.400
 3396SOL    HW210725   3.409   0.181   1.536
 3397SOL     OW10726   1.978   0.655   0.559
 3397SOL    HW110727   1.951   0.567   0.582
 3397SOL    HW210728   1.970   0.705   0.640
 3398SOL     OW10729   3.707   1.759   0.333
 3398SOL    HW110730   3.768   1.723   0.398
 3398SOL    HW210731   3.729   1.852   0.328
 3399SOL     OW10732   1.897   1.594   0.106
 3399SOL    HW110733   1.897   1.500   0.125
 3399SOL    HW210734   1.868   1.635   0.188
 3400SOL     OW10735   3.548   0.917   0.647
 3400SOL    HW110736   3.633   0.875   0.631
 3400SOL    HW210737   3.531   0.967   0.567
 3401SOL     OW10738   3.506   1.104   0.433
 3401SOL    HW110739   3.591   1.111   0.391
 3401SOL    HW210740   3.508   1.168   0.505
 3402SOL     OW10741   1.985   0.749   1.581
 3402SOL    HW110742   2.076   0.779   1.586
 3402SOL    HW210743   1.933   0.829   1.589
 3403SOL     OW10744   2.477   1.386   0.734
 3403SOL    HW110745   2.431   1.303   0.743
 3403SOL    HW210746   2.460   1.413   0.644
 3404SOL     OW10747   3.150   1.238   1.423
 3404SOL    HW110748   3.182   1.171   1.362
 3404SOL    HW210749   3.208   1.232   1.498
 3405SOL     OW10750   2.683   0.003   0.519
 3405SOL    HW110751   2.728   0.083   0.493
 3405SOL    HW210752   2.590   0.026   0.519
 3406SOL     OW10753   2.052   0.964   1.274
 3406SOL    HW110754   2.137   0.923   1.259
 3406SOL    HW210755   1.990   0.912   1.222
 3407SOL     OW10756   3.392   0.996   0.205
 3407SOL    HW110757   3.324   0.937   0.238
 3407SOL    HW210758   3.432   1.034   0.284
 3408SOL     OW10759   3.046   1.808   1.623
 3408SOL    HW110760   3.057   1.867   1.548
 3408SOL    HW210761   3.064   1.721   1.587
 3409SOL     OW10762   2.218   0.254   1.834
 3409SOL    HW110763   2.262   0.339   1.833
 3409SOL    HW210764   2.125   0.275   1.840
 3410SOL     OW10765   3.328   1.420   0.950
 3410SOL    HW110766   3.260   1.435   1.016
 3410SOL    HW210767   3.316   1.329   0.924
 3411SOL     OW10768   3.521   1.743   0.584
 3411SOL    HW110769   3.499   1.718   0.494
 3411SOL    HW210770   3.499   1.665   0.636
 3412SOL     OW10771   2.458   0.718   0.265
 3412SOL    HW110772   2.460   0.801   0.217
 3412SOL    HW210773   2.398   0.735   0.338
 3413SOL     OW10774   3.137   0.367   0.940
 3413SOL    HW110775   3.050   0.328   0.947
 3413SOL    HW210776   3.195   0.306   0.986
 3414SOL     OW10777   3.426   1.730   0.314
 3414SOL    HW110778   3.522   1.731   0.310
 3414SOL    HW210779   3.400   1.694   0.229
 3415SOL     OW10780   2.658   0.616   1.452
 3415SOL    HW110781   2.629   0.591   1.540
 3415SOL    HW210782   2.618   0.551   1.395
 3416SOL     OW10783   3.254   0.476   1.677
 3416SOL    HW110784   3.259   0.521   1.762
 3416SOL    HW210785   3.312   0.401   1.687
 3417SOL     OW10786   2.815   0.888   1.584
 3417SOL    HW110787   2.870   0.818   1.547
 3417SOL    HW210788   2.767   0.922   1.509
 3418SOL     OW10789   2.854   0.403   1.239
 3418SOL    HW110790   2.770   0.425   1.279
 3418SOL    HW210791   2.832   0.374   1.151
 3419SOL     OW10792   2.913   0.702   0.428
 3419SOL    HW110793   2.930   0.693   0.522
 3419SOL    HW210794   2.831   0.656   0.414
 3420SOL     OW10795   1.950   0.824   0.775
 3420SOL    HW110796   2.030   0.814   0.827
 3420SOL    HW210797   1.906   0.900   0.812
 3421SOL     OW10798   2.736   0.360   0.220
 3421SOL    HW110799   2.773   0.418   0.153
 3421SOL    HW210800   2.739   0.273   0.181
 3422SOL     OW10801   3.571   0.574   1.829
 3422SOL    HW110802   3.533   0.649   1.782
 3422SOL    HW210803   3.596   0.512   1.760
 3423SOL     OW10804   3.238   1.141   0.542
 3423SOL    HW110805   3.318   1.129   0.490
 3423SOL    HW210806   3.186   1.205   0.493
 3424SOL     OW10807   2.419   0.198   0.882
 3424SOL    HW110808   2.422   0.218   0.975
 3424SOL    HW210809   2.416   0.284   0.839
 3425SOL     OW10810   2.866   1.441   0.475
 3425SOL    HW110811   2.834   1.515   0.424
 3425SOL    HW210812   2.845   1.463   0.566
 3426SOL     OW10813   2.217   1.795   0.864
 3426SOL    HW110814   2.254   1.707   0.875
 3426SOL    HW210815   2.287   1.854   0.895
 3427SOL     OW10816   3.666   1.062   0.868
 3427SOL    HW110817   3.612   1.038   0.792
 3427SOL    HW210818   3.605   1.065   0.941
 3428SOL     OW10819   3.089   1.539   1.514
 3428SOL    HW110820   3.076   1.467   1.575
 3428SOL    HW210821   3.026   1.523   1.443
 3429SOL     OW10822   2.172   0.938   0.230
 3429SOL    HW110823   2.264   0.951   0.206
 3429SOL    HW210824   2.159   0.844   0.225
 3430SOL     OW10825   3.339   0.747   0.731
 3430SOL    HW110826   3.334   0.704   0.816
 3430SOL    HW210827   3.417   0.802   0.736
 3431SOL     OW10828   2.330   1.264   1.739
 3431SOL    HW110829   2.303   1.268   1.647
 3431SOL    HW210830   2.248   1.261   1.787
 3432SOL     OW10831   2.983   1.781   0.230
 3432SOL    HW110832   2.922   1.733   0.286
 3432SOL    HW210833   3.014   1.716   0.166
 3433SOL     OW10834   2.033   0.275   1.499
 3433SOL    HW110835   1.975   0.351   1.491
 3433SOL    HW210836   2.041   0.260   1.593
 3434SOL     OW10837   3.494   1.373   0.087
 3434SOL    HW110838   3.461   1.458   0.058
 3434SOL    HW210839   3.425   1.311   0.066
 3435SOL     OW10840   2.339   1.722   0.329
 3435SOL    HW110841   2.377   1.792   0.381
 3435SOL    HW210842   2.403   1.705   0.260
 3436SOL     OW10843   3.298   0.141   0.392
 3436SOL    HW110844   3.255   0.055   0.391
 3436SOL    HW210845   3.380   0.127   0.438
 3437SOL     OW10846   2.154   1.763   1.221
 3437SOL    HW110847   2.193   1.682   1.252
 3437SOL    HW210848   2.115   1.741   1.136
 3438SOL     OW10849   2.799   1.698   0.899
 3438SOL    HW110850   2.878   1.649   0.920
 3438SOL    HW210851   2.757   1.648   0.829
 3439SOL     OW10852   2.255   0.696   0.472
 3439SOL    HW110853   2.276   0.603   0.485
 3439SOL    HW210854   2.162   0.702   0.495
 3440SOL     OW10855   3.392   0.230   1.727
 3440SOL    HW110856   3.386   0.255   1.819
 3440SOL    HW210857   3.371   0.137   1.726
 3441SOL     OW10858   2.483   0.102   0.119
 3441SOL    HW110859   2.578   0.102   0.126
 3441SOL    HW210860   2.466   0.131   0.029
 3442SOL     OW10861   2.638   0.282   1.767
 3442SOL    HW110862   2.707   0.216   1.771
 3442SOL    HW210863   2.579   0.258   1.839
 3443SOL     OW10864   2.738   1.522   1.194
 3443SOL    HW110865   2.722   1.486   1.107
 3443SOL    HW210866   2.808   1.468   1.230
 3444SOL     OW10867   3.203   0.587   1.430
 3444SOL    HW110868   3.233   0.559   1.517
 3444SOL    HW210869   3.236   0.676   1.421
 3445SOL     OW10870   2.678   1.394   0.941
 3445SOL    HW110871   2.763   1.382   0.898
 3445SOL    HW210872   2.615   1.396   0.869
 3446SOL     OW10873   2.791   0.511   0.901
 3446SOL    HW110874   2.767   0.503   0.808
 3446SOL    HW210875   2.818   0.423   0.926
 3447SOL     OW10876   2.411   0.053   0.499
 3447SOL    HW110877   2.335   0.059   0.557
 3447SOL    HW210878   2.404   0.129   0.442
 3448SOL     OW10879   3.291   1.204   0.044
 3448SOL    HW110880   3.311   1.125   0.093
 3448SOL    HW210881   3.200   1.224   0.065
 3449SOL     OW10882   2.198   0.008   0.184
 3449SOL    HW110883   2.176   0.089   0.139
 3449SOL    HW210884   2.282   0.026   0.227
 3450SOL     OW10885   2.803   0.249   0.465
 3450SOL    HW110886   2.772   0.288   0.384
 3450SOL    HW210887   2.899   0.251   0.458
 3451SOL     OW10888   2.942   0.683   1.459
 3451SOL    HW110889   2.871   0.618   1.466
 3451SOL    HW210890   3.022   0.631   1.454
 3452SOL     OW10891   3.083   1.572   0.795
 3452SOL    HW110892   3.100   1.637   0.727
 3452SOL    HW210893   3.153   1.584   0.859
 3453SOL     OW10894   2.332   1.151   0.731
 3453SOL    HW110895   2.264   1.131   0.795
 3453SOL    HW210896   2.289   1.137   0.646
 3454SOL     OW10897   3.129   1.794   0.608
 3454SOL    HW110898   3.178   1.857   0.554
 3454SOL    HW210899   3.063   1.848   0.651
 3455SOL     OW10900   2.862   0.534   0.054
 3455SOL    HW110901   2.862   0.534  13.859
 3455SOL    HW210902   2.952   0.553   0.079
 3456SOL     OW10903   1.943   0.551   1.396
 3456SOL    HW110904   2.034   0.552   1.366
 3456SOL    HW210905   1.936   0.624   1.457
 3457SOL     OW10906   2.426   0.232   1.161
 3457SOL    HW110907   2.450   0.140   1.171
 3457SOL    HW210908   2.336   0.236   1.194
 3458SOL     OW10909   2.732   0.462   0.638
 3458SOL    HW110910   2.686   0.515   0.574
 3458SOL    HW210911   2.752   0.381   0.592
 3459SOL     OW10912   2.858   0.041   0.779
 3459SOL    HW110913   2.818   0.068   0.696
 3459SOL    HW210914   2.868   3.946   0.771
 3460SOL     OW10915   3.301   1.162   0.858
 3460SOL    HW110916   3.230   1.097   0.855
 3460SOL    HW210917   3.326   1.173   0.766
 3461SOL     OW10918   3.326   0.607   0.976
 3461SOL    HW110919   3.274   0.527   0.980
 3461SOL    HW210920   3.387   0.600   1.050
 3462SOL     OW10921   3.724   0.824   0.374
 3462SOL    HW110922   3.763   0.767   0.440
 3462SOL    HW210923   3.678   0.765   0.315
 3463SOL     OW10924   2.348   1.407   0.155
 3463SOL    HW110925   2.274   1.375   0.206
 3463SOL    HW210926   2.331   1.376   0.066
 3464SOL     OW10927   3.529   1.264   0.646
 3464SOL    HW110928   3.624   1.268   0.655
 3464SOL    HW210929   3.499   1.354   0.661
 3465SOL     OW10930   3.282   0.590   0.087
 3465SOL    HW110931   3.213   0.577   0.152
 3465SOL    HW210932   3.334   0.509   0.091
 3466SOL     OW10933   2.379   0.254   0.322
 3466SOL    HW110934   2.422   0.208   0.250
 3466SOL    HW210935   2.359   0.341   0.287
 3467SOL     OW10936   3.614   1.234   1.568
 3467SOL    HW110937   3.701   1.199   1.550
 3467SOL    HW210938   3.629   1.324   1.598
 3468SOL     OW10939   2.919   1.354   1.333
 3468SOL    HW110940   2.844   1.322   1.384
 3468SOL    HW210941   2.995   1.312   1.374
 3469SOL     OW10942   3.467   1.628   1.655
 3469SOL    HW110943   3.460   1.662   1.566
 3469SOL    HW210944   3.548   1.577   1.655
 3470SOL     OW10945   2.993   1.205   1.104
 3470SOL    HW110946   2.933   1.243   1.169
 3470SOL    HW210947   2.961   1.238   1.020
 3471SOL     OW10948   3.491   1.096   1.076
 3471SOL    HW110949   3.483   1.158   1.148
 3471SOL    HW210950   3.414   1.113   1.021
 3472SOL     OW10951   2.774   0.115   1.401
 3472SOL    HW110952   2.794   0.088   1.312
 3472SOL    HW210953   2.855   0.156   1.432
 3473SOL     OW10954   2.846   1.115   1.723
 3473SOL    HW110955   2.754   1.131   1.746
 3473SOL    HW210956   2.844   1.037   1.668
 3474SOL     OW10957   2.577   1.059   0.377
 3474SOL    HW110958   2.562   1.041   0.470
 3474SOL    HW210959   2.651   1.003   0.353
 3475SOL     OW10960   2.282   0.815   1.251
 3475SOL    HW110961   2.350   0.824   1.318
 3475SOL    HW210962   2.247   0.727   1.264
 3476SOL     OW10963   3.128   0.375   1.276
 3476SOL    HW110964   3.162   0.453   1.320
 3476SOL    HW210965   3.041   0.401   1.246
 3477SOL     OW10966   1.934   1.578   1.353
 3477SOL    HW110967   1.898   1.642   1.291
 3477SOL    HW210968   2.028   1.581   1.339
 3478SOL     OW10969   2.208   1.113   0.487
 3478SOL    HW110970   2.207   1.185   0.424
 3478SOL    HW210971   2.215   1.034   0.434
 3479SOL     OW10972   2.417   0.533   0.858
 3479SOL    HW110973   2.431   0.592   0.784
 3479SOL    HW210974   2.481   0.560   0.923
 3480SOL     OW10975   3.110   1.346   0.397
 3480SOL    HW110976   3.166   1.419   0.423
 3480SOL    HW210977   3.023   1.370   0.430
 3481SOL     OW10978   3.145   1.459   1.148
 3481SOL    HW110979   3.201   1.462   1.225
 3481SOL    HW210980   3.090   1.381   1.161
 3482SOL     OW10981   3.440   0.633   0.491
 3482SOL    HW110982   3.397   0.694   0.551
 3482SOL    HW210983   3.475   0.688   0.421
 3483SOL     OW10984   2.215   1.514   1.317
 3483SOL    HW110985   2.200   1.472   1.233
 3483SOL    HW210986   2.309   1.526   1.322
 3484SOL     OW10987   2.278   0.744   1.602
 3484SOL    HW110988   2.340   0.789   1.543
 3484SOL    HW210989   2.319   0.660   1.619
 3485SOL     OW10990   3.465   0.778   1.682
 3485SOL    HW110991   3.379   0.820   1.676
 3485SOL    HW210992   3.518   0.820   1.615
 3486SOL     OW10993   2.878   0.129   1.779
 3486SOL    HW110994   2.924   0.203   1.740
 3486SOL    HW210995   2.861   0.070   1.706
 3487SOL     OW10996   2.349   0.034   1.762
 3487SOL    HW110997   2.353   0.045   1.667
 3487SOL    HW210998   2.290   0.103   1.792
 3488SOL     OW10999   2.445   0.874   1.031
 3488SOL    HW111000   2.475   0.965   1.033
 3488SOL    HW211001   2.389   0.866   1.108
 3489SOL     OW11002   3.217   0.859   1.028
 3489SOL    HW111003   3.133   0.848   0.983
 3489SOL    HW211004   3.259   0.773   1.021
 3490SOL     OW11005   3.079   0.549   0.268
 3490SOL    HW111006   3.085   0.469   0.320
 3490SOL    HW211007   3.023   0.607   0.320
 3491SOL     OW11008   2.162   0.210   1.243
 3491SOL    HW111009   2.121   0.239   1.324
 3491SOL    HW211010   2.151   0.115   1.242
 3492SOL     OW11011   1.907   1.313   1.278
 3492SOL    HW111012   1.941   1.258   1.348
 3492SOL    HW211013   1.915   1.402   1.312
 3493SOL     OW11014   2.585   0.632   1.053
 3493SOL    HW111015   2.661   0.618   0.996
 3493SOL    HW211016   2.556   0.721   1.033
 3494SOL     OW11017   3.594   0.957   1.861
 3494SOL    HW111018   3.551   0.897   1.800
 3494SOL    HW211019   3.531   0.971   1.931
 3495SOL     OW11020   2.184   0.057   0.649
 3495SOL    HW111021   2.164   0.149   0.661
 3495SOL    HW211022   2.144   0.013   0.725
 3496SOL     OW11023   3.438   0.388   0.390
 3496SOL    HW111024   3.422   0.326   0.460
 3496SOL    HW211025   3.432   0.474   0.431
 3497SOL     OW11026   2.891   0.759   0.959
 3497SOL    HW111027   2.885   0.776   1.053
 3497SOL    HW211028   2.864   0.668   0.950
 3498SOL     OW11029   2.844   1.567   1.718
 3498SOL    HW111030   2.829   1.610   1.634
 3498SOL    HW211031   2.887   1.484   1.695
 3499SOL     OW11032   3.706   1.500   1.599
 3499SOL    HW111033   3.729   1.529   1.511
 3499SOL    HW211034   3.786   1.512   1.649
 3500SOL     OW11035   2.215   0.915   1.809
 3500SOL    HW111036   2.296   0.935   1.855
 3500SOL    HW211037   2.240   0.853   1.741
 3501SOL     OW11038   3.390   0.271   0.144
 3501SOL    HW111039   3.327   0.199   0.149
 3501SOL    HW211040   3.396   0.304   0.234
 3502SOL     OW11041   3.152   0.832   0.055
 3502SOL    HW111042   3.199   0.748   0.061
 3502SOL    HW211043   3.170   0.864  13.867
 3503SOL     OW11044   2.928   1.336   0.855
 3503SOL    HW111045   2.932   1.264   0.792
 3503SOL    HW211046   2.989   1.402   0.820
 3504SOL     OW11047   2.170   0.809   0.946
 3504SOL    HW111048   2.263   0.830   0.941
 3504SOL    HW211049   2.167   0.719   0.978
 3505SOL     OW11050   2.198   0.536   1.013
 3505SOL    HW111051   2.157   0.451   0.998
 3505SOL    HW211052   2.274   0.536   0.955
 3506SOL     OW11053   2.995   0.381   1.695
 3506SOL    HW111054   2.946   0.436   1.757
 3506SOL    HW211055   3.082   0.421   1.691
 3507SOL     OW11056   3.013   0.226   1.481
 3507SOL    HW111057   3.004   0.280   1.559
 3507SOL    HW211058   3.037   0.287   1.412
 3508SOL     OW11059   1.883   1.309   0.175
 3508SOL    HW111060   1.799   1.321   0.130
 3508SOL    HW211061   1.875   1.223   0.218
 3509SOL     OW11062   1.975   1.715   0.975
 3509SOL    HW111063   1.935   1.658   0.908
 3509SOL    HW211064   2.042   1.764   0.927
 3510SOL     OW11065   2.362   1.567   0.910
 3510SOL    HW111066   2.430   1.631   0.932
 3510SOL    HW211067   2.406   1.506   0.850
 3511SOL     OW11068   2.842   0.789   1.225
 3511SOL    HW111069   2.898   0.769   1.299
 3511SOL    HW211070   2.756   0.753   1.249
 3512SOL     OW11071   1.895   0.547   1.117
 3512SOL    HW111072   1.970   0.520   1.063
 3512SOL    HW211073   1.928   0.547   1.206
 3513SOL     OW11074   2.065   0.526   1.713
 3513SOL    HW111075   2.134   0.505   1.651
 3513SOL    HW211076   2.020   0.601   1.674
 3514SOL     OW11077   3.241   0.937   1.658
 3514SOL    HW111078   3.262   1.031   1.656
 3514SOL    HW211079   3.237   0.911   1.566
 3515SOL     OW11080   2.677   0.580   0.373
 3515SOL    HW111081   2.688   0.502   0.317
 3515SOL    HW211082   2.604   0.627   0.333
 3516SOL     OW11083   3.502   0.602   1.184
 3516SOL    HW111084   3.491   0.541   1.257
 3516SOL    HW211085   3.588   0.581   1.148
 3517SOL     OW11086   2.115   1.539   1.707
 3517SOL    HW111087   2.095   1.609   1.770
 3517SOL    HW211088   2.117   1.459   1.760
 3518SOL     OW11089   2.567   0.454   1.257
 3518SOL    HW111090   2.517   0.377   1.232
 3518SOL    HW211091   2.559   0.513   1.183
 3519SOL     OW11092   2.786   1.679   1.469
 3519SOL    HW111093   2.763   1.643   1.384
 3519SOL    HW211094   2.783   1.774   1.456
 3520SOL     OW11095   2.299   0.494   0.230
 3520SOL    HW111096   2.371   0.556   0.243
 3520SOL    HW211097   2.229   0.546   0.191
 3521SOL     OW11098   2.005   1.141   1.472
 3521SOL    HW111099   2.008   1.091   1.554
 3521SOL    HW211100   2.023   1.076   1.404
 3522SOL     OW11101   3.185   1.045   1.223
 3522SOL    HW111102   3.209   0.983   1.154
 3522SOL    HW211103   3.117   1.099   1.183
 3523SOL     OW11104   3.176   0.857   0.327
 3523SOL    HW111105   3.101   0.825   0.376
 3523SOL    HW211106   3.151   0.844   0.235
 3524SOL     OW11107   3.641   1.742   1.156
 3524SOL    HW111108   3.696   1.770   1.083
 3524SOL    HW211109   3.612   1.654   1.132
 3525SOL     OW11110   3.103   1.734   1.111
 3525SOL    HW111111   3.185   1.756   1.067
 3525SOL    HW211112   3.110   1.640   1.130
 3526SOL     OW11113   1.949   1.263   1.015
 3526SOL    HW111114   1.932   1.279   1.107
 3526SOL    HW211115   1.874   1.211   0.985
 3527SOL     OW11116   2.542   1.664   1.729
 3527SOL    HW111117   2.492   1.746   1.728
 3527SOL    HW211118   2.610   1.677   1.663
 3528SOL     OW11119   2.759   0.103   0.135
 3528SOL    HW111120   2.799   0.090   0.049
 3528SOL    HW211121   2.769   0.019   0.179
 3529SOL     OW11122   3.555   0.124   0.484
 3529SOL    HW111123   3.637   0.135   0.435
 3529SOL    HW211124   3.553   0.032   0.508
 3530SOL     OW11125   3.251   1.571   0.485
 3530SOL    HW111126   3.314   1.605   0.421
 3530SOL    HW211127   3.205   1.649   0.516
 3531SOL     OW11128   2.029   1.742   1.860
 3531SOL    HW111129   1.966   1.690   1.910
 3531SOL    HW211130   2.010   1.832   1.885
 3532SOL     OW11131   3.138   0.927   0.671
 3532SOL    HW111132   3.212   0.867   0.682
 3532SOL    HW211133   3.172   0.999   0.618
 3533SOL     OW11134   2.674   1.274   1.428
 3533SOL    HW111135   2.645   1.313   1.510
 3533SOL    HW211136   2.604   1.295   1.366
 3534SOL     OW11137   2.546   1.586   0.180
 3534SOL    HW111138   2.529   1.628   0.096
 3534SOL    HW211139   2.487   1.510   0.181
 3535SOL     OW11140   3.483   1.727   1.391
 3535SOL    HW111141   3.538   1.732   1.313
 3535SOL    HW211142   3.470   1.818   1.417
 3536SOL     OW11143   3.703   0.181   0.970
 3536SOL    HW111144   3.728   0.098   0.931
 3536SOL    HW211145   3.617   0.200   0.933
 3537SOL     OW11146   2.126   0.317   0.716
 3537SOL    HW111147   2.039   0.352   0.695
 3537SOL    HW211148   2.124   0.306   0.812
 3538SOL     OW11149   3.080   1.601   0.035
 3538SOL    HW111150   3.070   1.510   0.061
 3538SOL    HW211151   3.043   1.605  13.847
 3539SOL     OW11152   2.686   1.006   1.373
 3539SOL    HW111153   2.729   1.002   1.287
 3539SOL    HW211154   2.685   1.099   1.394
 3540SOL     OW11155   2.783   0.910   0.287
 3540SOL    HW111156   2.853   0.950   0.236
 3540SOL    HW211157   2.826   0.840   0.337
 3541SOL     OW11158   3.348   1.641   0.068
 3541SOL    HW111159   3.255   1.625   0.055
 3541SOL    HW211160   3.385   1.637  13.879
 3542SOL     OW11161   2.232   1.297   1.493
 3542SOL    HW111162   2.220   1.376   1.439
 3542SOL    HW211163   2.154   1.244   1.477
 3543SOL     OW11164   3.464   1.280   1.278
 3543SOL    HW111165   3.532   1.272   1.345
 3543SOL    HW211166   3.407   1.350   1.309
 3544SOL     OW11167   2.916   1.108   0.707
 3544SOL    HW111168   2.845   1.057   0.746
 3544SOL    HW211169   2.980   1.043   0.679
 3545SOL     OW11170   2.877   0.248   0.969
 3545SOL    HW111171   2.866   0.198   0.888
 3545SOL    HW211172   2.871   0.183   1.038
 3546SOL     OW11173   2.467   1.489   0.481
 3546SOL    HW111174   2.510   1.438   0.413
 3546SOL    HW211175   2.403   1.543   0.434
 3547SOL     OW11176   3.582   0.393   1.372
 3547SOL    HW111177   3.654   0.456   1.372
 3547SOL    HW211178   3.614   0.321   1.318
 3548SOL     OW11179   2.131   1.323   0.297
 3548SOL    HW111180   2.047   1.332   0.252
 3548SOL    HW211181   2.119   1.367   0.380
 3549SOL     OW11182   1.975   1.025   1.720
 3549SOL    HW111183   1.899   1.001   1.773
 3549SOL    HW211184   2.049   0.986   1.766
 3550SOL     OW11185   2.555   0.252   1.500
 3550SOL    HW111186   2.622   0.198   1.459
 3550SOL    HW211187   2.582   0.259   1.592
 3551SOL     OW11188   1.900   0.440   0.009
 3551SOL    HW111189   1.873   0.349   0.022
 3551SOL    HW211190   1.903   0.451  13.814
 3552SOL     OW11191   3.288   0.857   1.399
 3552SOL    HW111192   3.239   0.919   1.345
 3552SOL    HW211193   3.377   0.859   1.363
 3553SOL     OW11194   1.943   0.147   0.368
 3553SOL    HW111195   1.913   0.227   0.325
 3553SOL    HW211196   2.026   0.127   0.325
 3554SOL     OW11197   3.048   1.346   0.122
 3554SOL    HW111198   2.954   1.334   0.111
 3554SOL    HW211199   3.063   1.334   0.216
 3555SOL     OW11200   2.483   0.829   1.434
 3555SOL    HW111201   2.539   0.905   1.419
 3555SOL    HW211202   2.543   0.756   1.443
 3556SOL     OW11203   3.344   1.780   0.980
 3556SOL    HW111204   3.368   1.840   0.909
 3556SOL    HW211205   3.428   1.754   1.018
 3557SOL     OW11206   2.580   0.561   1.705
 3557SOL    HW111207   2.621   0.624   1.764
 3557SOL    HW211208   2.607   0.476   1.738
 3558SOL     OW11209   3.334   1.198   1.631
 3558SOL    HW111210   3.323   1.213   1.725
 3558SOL    HW211211   3.427   1.214   1.615
 3559SOL     OW11212   2.238   1.745   1.568
 3559SOL    HW111213   2.163   1.766   1.512
 3559SOL    HW211214   2.215   1.662   1.609
 3560SOL     OW11215   3.527   0.881   1.259
 3560SOL    HW111216   3.526   0.796   1.215
 3560SOL    HW211217   3.521   0.944   1.188
 3561SOL     OW11218   3.091   0.334   0.436
 3561SOL    HW111219   3.155   0.263   0.431
 3561SOL    HW211220   3.109   0.376   0.521
 3562SOL     OW11221   2.451   0.736   0.670
 3562SOL    HW111222   2.489   0.823   0.656
 3562SOL    HW211223   2.384   0.729   0.603
 3563SOL     OW11224   3.617   0.381   1.642
 3563SOL    HW111225   3.596   0.389   1.549
 3563SOL    HW211226   3.557   0.313   1.674
 3564SOL     OW11227   3.616   0.931   1.514
 3564SOL    HW111228   3.607   1.024   1.530
 3564SOL    HW211229   3.592   0.920   1.421
 3565SOL     OW11230   2.770   1.397   0.062
 3565SOL    HW111231   2.701   1.385   0.127
 3565SOL    HW211232   2.724   1.406  13.879
 3566SOL     OW11233   2.522   1.793   0.942
 3566SOL    HW111234   2.505   1.883   0.915
 3566SOL    HW211235   2.616   1.782   0.935
 3567SOL     OW11236   2.730   0.968   0.854
 3567SOL    HW111237   2.780   0.896   0.893
 3567SOL    HW211238   2.694   1.015   0.929
 3568SOL     OW11239   2.959   1.011   0.110
 3568SOL    HW111240   2.949   1.057   0.027
 3568SOL    HW211241   3.034   0.952   0.096
 3569SOL     OW11242   3.716   1.556   0.841
 3569SOL    HW111243   3.636   1.541   0.789
 3569SOL    HW211244   3.711   1.490   0.910
 3570SOL     OW11245   2.088   1.302   1.856
 3570SOL    HW111246   2.021   1.239   1.829
 3570SOL    HW211247   2.074   1.313   1.950
 3571SOL     OW11248   1.942   1.221   0.664
 3571SOL    HW111249   1.955   1.177   0.748
 3571SOL    HW211250   2.019   1.196   0.612
 3572SOL     OW11251   2.543   1.404   1.627
 3572SOL    HW111252   2.464   1.360   1.660
 3572SOL    HW211253   2.539   1.491   1.665
 3573SOL     OW11254   3.676   0.182   1.244
 3573SOL    HW111255   3.678   0.086   1.252
 3573SOL    HW211256   3.694   0.198   1.151
 3574SOL     OW11257   2.293   0.435   0.532
 3574SOL    HW111258   2.325   0.364   0.477
 3574SOL    HW211259   2.245   0.392   0.602
 3575SOL     OW11260   3.559   1.491   1.097
 3575SOL    HW111261   3.480   1.468   1.048
 3575SOL    HW211262   3.570   1.420   1.160
 3576SOL     OW11263   2.192   0.556   1.294
 3576SOL    HW111264   2.246   0.497   1.348
 3576SOL    HW211265   2.212   0.529   1.204
 3577SOL     OW11266   2.691   1.578   0.678
 3577SOL    HW111267   2.677   1.637   0.604
 3577SOL    HW211268   2.615   1.520   0.676
 3578SOL     OW11269   3.323   0.252   1.110
 3578SOL    HW111270   3.337   0.164   1.146
 3578SOL    HW211271   3.267   0.295   1.175
 3579SOL     OW11272   2.867   0.028   1.146
 3579SOL    HW111273   2.787   3.987   1.113
 3579SOL    HW211274   2.929   3.955   1.155
 3580SOL     OW11275   2.635   1.322   0.320
 3580SOL    HW111276   2.606   1.233   0.337
 3580SOL    HW211277   2.718   1.330   0.366
 3581SOL     OW11278   2.483   1.555   1.285
 3581SOL    HW111279   2.484   1.638   1.334
 3581SOL    HW211280   2.571   1.548   1.249
 3582SOL     OW11281   3.182   0.068   0.128
 3582SOL    HW111282   3.203   3.982   0.092
 3582SOL    HW211283   3.116   0.051   0.194
 3583SOL     OW11284   3.143   0.455   0.684
 3583SOL    HW111285   3.096   0.539   0.679
 3583SOL    HW211286   3.147   0.436   0.778
 3584SOL     OW11287   3.452   0.210   0.867
 3584SOL    HW111288   3.403   0.233   0.946
 3584SOL    HW211289   3.450   0.290   0.814
 3585SOL     OW11290   1.902   1.070   0.309
 3585SOL    HW111291   1.998   1.067   0.308
 3585SOL    HW211292   1.876   0.980   0.330
 3586SOL     OW11293   2.759   1.653   0.342
 3586SOL    HW111294   2.683   1.625   0.290
 3586SOL    HW211295   2.726   1.726   0.395
 3587SOL     OW11296   2.090   0.620   1.983
 3587SOL    HW111297   2.000   0.627   2.015
 3587SOL    HW211298   2.081   0.600   1.890
 3588SOL     OW11299   2.079   0.300   2.853
 3588SOL    HW111300   2.116   0.257   2.930
 3588SOL    HW211301   1.994   0.256   2.840
 3589SOL     OW11302   1.871   0.397   2.496
 3589SOL    HW111303   1.784   0.412   2.533
 3589SOL    HW211304   1.858   0.326   2.432
 3590SOL     OW11305   2.430   1.289   3.039
 3590SOL    HW111306   2.343   1.293   2.999
 3590SOL    HW211307   2.446   1.378   3.070
 3591SOL     OW11308   3.425   1.512   2.569
 3591SOL    HW111309   3.382   1.492   2.653
 3591SOL    HW211310   3.353   1.517   2.506
 3592SOL     OW11311   2.994   0.698   2.560
 3592SOL    HW111312   3.042   0.780   2.547
 3592SOL    HW211313   2.947   0.711   2.642
 3593SOL     OW11314   3.622   0.623   2.089
 3593SOL    HW111315   3.605   0.611   1.996
 3593SOL    HW211316   3.606   0.537   2.127
 3594SOL     OW11317   2.616   1.141   2.905
 3594SOL    HW111318   2.548   1.176   2.962
 3594SOL    HW211319   2.652   1.218   2.860
 3595SOL     OW11320   2.731   0.771   3.685
 3595SOL    HW111321   2.717   0.842   3.748
 3595SOL    HW211322   2.754   0.816   3.604
 3596SOL     OW11323   2.548   1.001   2.508
 3596SOL    HW111324   2.613   0.991   2.577
 3596SOL    HW211325   2.479   1.054   2.547
 3597SOL     OW11326   2.574   1.150   3.676
 3597SOL    HW111327   2.621   1.228   3.704
 3597SOL    HW211328   2.492   1.183   3.640
 3598SOL     OW11329   2.194   1.419   2.931
 3598SOL    HW111330   2.118   1.385   2.883
 3598SOL    HW211331   2.241   1.471   2.866
 3599SOL     OW11332   3.321   1.501   3.218
 3599SOL    HW111333   3.375   1.580   3.228
 3599SOL    HW211334   3.258   1.506   3.290
 3600SOL     OW11335   2.306   0.394   3.355
 3600SOL    HW111336   2.396   0.361   3.354
 3600SOL    HW211337   2.252   0.316   3.363
 3601SOL     OW11338   3.473   0.450   2.598
 3601SOL    HW111339   3.403   0.483   2.541
 3601SOL    HW211340   3.496   0.524   2.653
 3602SOL     OW11341   2.100   1.699   2.330
 3602SOL    HW111342   2.132   1.766   2.390
 3602SOL    HW211343   2.170   1.688   2.266
 3603SOL     OW11344   2.999   1.342   3.556
 3603SOL    HW111345   3.040   1.337   3.642
 3603SOL    HW211346   2.946   1.262   3.549
 3604SOL     OW11347   2.089   1.434   2.398
 3604SOL    HW111348   2.080   1.530   2.395
 3604SOL    HW211349   2.027   1.406   2.465
 3605SOL     OW11350   2.122   1.090   2.753
 3605SOL    HW111351   2.118   1.003   2.792
 3605SOL    HW211352   2.065   1.144   2.807
 3606SOL     OW11353   2.471   1.792   3.290
 3606SOL    HW111354   2.391   1.774   3.338
 3606SOL    HW211355   2.496   1.880   3.317
 3607SOL     OW11356   2.446   0.983   1.998
 3607SOL    HW111357   2.492   1.030   1.929
 3607SOL    HW211358   2.485   1.014   2.079
 3608SOL     OW11359   3.443   0.140   3.319
 3608SOL    HW111360   3.468   0.213   3.262
 3608SOL    HW211361   3.409   0.181   3.398
 3609SOL     OW11362   1.978   0.656   2.422
 3609SOL    HW111363   1.951   0.567   2.445
 3609SOL    HW211364   1.971   0.705   2.503
 3610SOL     OW11365   3.702   1.757   2.198
 3610SOL    HW111366   3.771   1.733   2.260
 3610SOL    HW211367   3.721   1.848   2.176
 3611SOL     OW11368   1.864   1.600   2.018
 3611SOL    HW111369   1.855   1.505   2.004
 3611SOL    HW211370   1.883   1.609   2.111
 3612SOL     OW11371   3.549   0.917   2.506
 3612SOL    HW111372   3.634   0.875   2.491
 3612SOL    HW211373   3.532   0.968   2.427
 3613SOL     OW11374   3.504   1.105   2.293
 3613SOL    HW111375   3.589   1.111   2.249
 3613SOL    HW211376   3.510   1.168   2.365
 3614SOL     OW11377   1.985   0.749   3.443
 3614SOL    HW111378   2.076   0.779   3.448
 3614SOL    HW211379   1.933   0.829   3.451
 3615SOL     OW11380   2.477   1.386   2.596
 3615SOL    HW111381   2.431   1.303   2.605
 3615SOL    HW211382   2.459   1.414   2.506
 3616SOL     OW11383   3.150   1.238   3.285
 3616SOL    HW111384   3.182   1.171   3.224
 3616SOL    HW211385   3.208   1.232   3.360
 3617SOL     OW11386   2.681   0.004   2.379
 3617SOL    HW111387   2.727   0.084   2.354
 3617SOL    HW211388   2.588   0.028   2.379
 3618SOL     OW11389   2.051   0.964   3.136
 3618SOL    HW111390   2.137   0.923   3.121
 3618SOL    HW211391   1.990   0.912   3.083
 3619SOL     OW11392   3.391   0.995   2.062
 3619SOL    HW111393   3.321   0.938   2.096
 3619SOL    HW211394   3.433   1.030   2.140
 3620SOL     OW11395   3.046   1.808   3.485
 3620SOL    HW111396   3.057   1.867   3.410
 3620SOL    HW211397   3.064   1.721   3.449
 3621SOL     OW11398   2.218   0.254   3.695
 3621SOL    HW111399   2.262   0.339   3.695
 3621SOL    HW211400   2.125   0.275   3.702
 3622SOL     OW11401   3.328   1.420   2.812
 3622SOL    HW111402   3.261   1.435   2.878
 3622SOL    HW211403   3.317   1.329   2.786
 3623SOL     OW11404   3.516   1.744   2.441
 3623SOL    HW111405   3.500   1.712   2.352
 3623SOL    HW211406   3.495   1.669   2.497
 3624SOL     OW11407   2.457   0.721   2.129
 3624SOL    HW111408   2.462   0.803   2.081
 3624SOL    HW211409   2.393   0.737   2.198
 3625SOL     OW11410   3.137   0.367   2.803
 3625SOL    HW111411   3.050   0.328   2.809
 3625SOL    HW211412   3.194   0.305   2.848
 3626SOL     OW11413   3.440   1.671   2.172
 3626SOL    HW111414   3.530   1.701   2.166
 3626SOL    HW211415   3.414   1.654   2.081
 3627SOL     OW11416   2.658   0.616   3.314
 3627SOL    HW111417   2.629   0.591   3.402
 3627SOL    HW211418   2.618   0.551   3.257
 3628SOL     OW11419   3.254   0.476   3.539
 3628SOL    HW111420   3.259   0.521   3.624
 3628SOL    HW211421   3.312   0.401   3.549
 3629SOL     OW11422   2.815   0.888   3.446
 3629SOL    HW111423   2.870   0.818   3.409
 3629SOL    HW211424   2.767   0.922   3.370
 3630SOL     OW11425   2.854   0.403   3.101
 3630SOL    HW111426   2.770   0.425   3.141
 3630SOL    HW211427   2.832   0.374   3.013
 3631SOL     OW11428   2.914   0.699   2.287
 3631SOL    HW111429   2.930   0.692   2.381
 3631SOL    HW211430   2.831   0.653   2.274
 3632SOL     OW11431   1.950   0.823   2.638
 3632SOL    HW111432   2.030   0.814   2.690
 3632SOL    HW211433   1.906   0.900   2.674
 3633SOL     OW11434   2.757   0.352   2.061
 3633SOL    HW111435   2.798   0.411   1.998
 3633SOL    HW211436   2.751   0.268   2.016
 3634SOL     OW11437   3.571   0.574   3.691
 3634SOL    HW111438   3.533   0.648   3.644
 3634SOL    HW211439   3.596   0.512   3.622
 3635SOL     OW11440   3.238   1.141   2.402
 3635SOL    HW111441   3.318   1.130   2.351
 3635SOL    HW211442   3.187   1.204   2.352
 3636SOL     OW11443   2.419   0.198   2.743
 3636SOL    HW111444   2.423   0.217   2.837
 3636SOL    HW211445   2.415   0.285   2.702
 3637SOL     OW11446   2.866   1.443   2.333
 3637SOL    HW111447   2.831   1.516   2.283
 3637SOL    HW211448   2.846   1.465   2.424
 3638SOL     OW11449   2.219   1.800   2.726
 3638SOL    HW111450   2.255   1.712   2.737
 3638SOL    HW211451   2.288   1.858   2.756
 3639SOL     OW11452   3.666   1.062   2.729
 3639SOL    HW111453   3.612   1.038   2.654
 3639SOL    HW211454   3.605   1.065   2.803
 3640SOL     OW11455   3.089   1.539   3.376
 3640SOL    HW111456   3.076   1.467   3.437
 3640SOL    HW211457   3.026   1.523   3.305
 3641SOL     OW11458   2.181   0.959   2.113
 3641SOL    HW111459   2.263   0.978   2.069
 3641SOL    HW211460   2.151   0.877   2.076
 3642SOL     OW11461   3.341   0.745   2.591
 3642SOL    HW111462   3.335   0.704   2.677
 3642SOL    HW211463   3.419   0.801   2.597
 3643SOL     OW11464   2.330   1.264   3.600
 3643SOL    HW111465   2.303   1.268   3.508
 3643SOL    HW211466   2.248   1.261   3.649
 3644SOL     OW11467   2.984   1.778   2.091
 3644SOL    HW111468   2.911   1.736   2.137
 3644SOL    HW211469   3.009   1.716   2.023
 3645SOL     OW11470   2.033   0.275   3.361
 3645SOL    HW111471   1.976   0.351   3.353
 3645SOL    HW211472   2.040   0.260   3.455
 3646SOL     OW11473   3.488   1.383   1.949
 3646SOL    HW111474   3.445   1.467   1.934
 3646SOL    HW211475   3.420   1.318   1.930
 3647SOL     OW11476   2.339   1.713   2.198
 3647SOL    HW111477   2.379   1.788   2.242
 3647SOL    HW211478   2.395   1.699   2.121
 3648SOL     OW11479   3.297   0.168   2.264
 3648SOL    HW111480   3.253   0.095   2.220
 3648SOL    HW211481   3.372   0.128   2.308
 3649SOL     OW11482   2.154   1.766   3.084
 3649SOL    HW111483   2.193   1.685   3.114
 3649SOL    HW211484   2.113   1.743   3.000
 3650SOL     OW11485   2.799   1.698   2.761
 3650SOL    HW111486   2.878   1.648   2.782
 3650SOL    HW211487   2.757   1.648   2.691
 3651SOL     OW11488   2.256   0.695   2.336
 3651SOL    HW111489   2.275   0.603   2.349
 3651SOL    HW211490   2.162   0.703   2.355
 3652SOL     OW11491   3.392   0.230   3.589
 3652SOL    HW111492   3.386   0.255   3.681
 3652SOL    HW211493   3.371   0.137   3.588
 3653SOL     OW11494   2.505   0.132   1.970
 3653SOL    HW111495   2.531   0.049   2.009
 3653SOL    HW211496   2.442   0.107   1.901
 3654SOL     OW11497   2.638   0.282   3.629
 3654SOL    HW111498   2.707   0.216   3.633
 3654SOL    HW211499   2.579   0.258   3.701
 3655SOL     OW11500   2.738   1.522   3.056
 3655SOL    HW111501   2.722   1.486   2.969
 3655SOL    HW211502   2.808   1.468   3.092
 3656SOL     OW11503   3.203   0.587   3.292
 3656SOL    HW111504   3.233   0.559   3.379
 3656SOL    HW211505   3.236   0.676   3.283
 3657SOL     OW11506   2.678   1.394   2.803
 3657SOL    HW111507   2.763   1.382   2.760
 3657SOL    HW211508   2.615   1.396   2.731
 3658SOL     OW11509   2.792   0.511   2.763
 3658SOL    HW111510   2.767   0.503   2.671
 3658SOL    HW211511   2.818   0.423   2.788
 3659SOL     OW11512   2.407   0.057   2.353
 3659SOL    HW111513   2.333   0.062   2.413
 3659SOL    HW211514   2.402   0.138   2.302
 3660SOL     OW11515   3.289   1.199   1.902
 3660SOL    HW111516   3.320   1.124   1.953
 3660SOL    HW211517   3.204   1.221   1.940
 3661SOL     OW11518   2.190   0.043   2.072
 3661SOL    HW111519   2.201   0.111   2.005
 3661SOL    HW211520   2.273   0.043   2.120
 3662SOL     OW11521   2.803   0.249   2.323
 3662SOL    HW111522   2.778   0.290   2.239
 3662SOL    HW211523   2.899   0.253   2.323
 3663SOL     OW11524   2.942   0.683   3.321
 3663SOL    HW111525   2.871   0.619   3.328
 3663SOL    HW211526   3.022   0.631   3.316
 3664SOL     OW11527   3.084   1.571   2.656
 3664SOL    HW111528   3.100   1.637   2.589
 3664SOL    HW211529   3.153   1.585   2.721
 3665SOL     OW11530   2.332   1.150   2.594
 3665SOL    HW111531   2.264   1.131   2.658
 3665SOL    HW211532   2.291   1.135   2.509
 3666SOL     OW11533   3.130   1.793   2.471
 3666SOL    HW111534   3.177   1.854   2.415
 3666SOL    HW211535   3.063   1.847   2.513
 3667SOL     OW11536   2.884   0.544   1.889
 3667SOL    HW111537   2.840   0.627   1.870
 3667SOL    HW211538   2.948   0.566   1.957
 3668SOL     OW11539   1.943   0.551   3.258
 3668SOL    HW111540   2.034   0.552   3.229
 3668SOL    HW211541   1.936   0.624   3.320
 3669SOL     OW11542   2.426   0.231   3.023
 3669SOL    HW111543   2.450   0.139   3.033
 3669SOL    HW211544   2.336   0.236   3.055
 3670SOL     OW11545   2.732   0.461   2.500
 3670SOL    HW111546   2.684   0.515   2.437
 3670SOL    HW211547   2.753   0.381   2.452
 3671SOL     OW11548   2.858   0.040   2.642
 3671SOL    HW111549   2.822   0.068   2.557
 3671SOL    HW211550   2.868   3.945   2.633
 3672SOL     OW11551   3.301   1.162   2.720
 3672SOL    HW111552   3.230   1.098   2.718
 3672SOL    HW211553   3.326   1.172   2.628
 3673SOL     OW11554   3.326   0.607   2.837
 3673SOL    HW111555   3.274   0.527   2.842
 3673SOL    HW211556   3.387   0.601   2.911
 3674SOL     OW11557   3.722   0.824   2.237
 3674SOL    HW111558   3.764   0.767   2.301
 3674SOL    HW211559   3.683   0.764   2.173
 3675SOL     OW11560   2.354   1.419   2.016
 3675SOL    HW111561   2.279   1.393   2.070
 3675SOL    HW211562   2.340   1.376   1.932
 3676SOL     OW11563   3.529   1.265   2.507
 3676SOL    HW111564   3.624   1.269   2.516
 3676SOL    HW211565   3.499   1.354   2.527
 3677SOL     OW11566   3.257   0.575   1.931
 3677SOL    HW111567   3.193   0.556   2.000
 3677SOL    HW211568   3.342   0.558   1.972
 3678SOL     OW11569   2.389   0.266   2.178
 3678SOL    HW111570   2.443   0.227   2.110
 3678SOL    HW211571   2.361   0.350   2.142
 3679SOL     OW11572   3.614   1.234   3.430
 3679SOL    HW111573   3.701   1.199   3.412
 3679SOL    HW211574   3.629   1.323   3.460
 3680SOL     OW11575   2.919   1.354   3.196
 3680SOL    HW111576   2.844   1.322   3.246
 3680SOL    HW211577   2.995   1.312   3.236
 3681SOL     OW11578   3.467   1.628   3.517
 3681SOL    HW111579   3.460   1.662   3.428
 3681SOL    HW211580   3.548   1.577   3.517
 3682SOL     OW11581   2.993   1.205   2.966
 3682SOL    HW111582   2.933   1.243   3.031
 3682SOL    HW211583   2.961   1.238   2.882
 3683SOL     OW11584   3.491   1.096   2.937
 3683SOL    HW111585   3.483   1.158   3.010
 3683SOL    HW211586   3.414   1.113   2.883
 3684SOL     OW11587   2.774   0.115   3.263
 3684SOL    HW111588   2.794   0.088   3.174
 3684SOL    HW211589   2.855   0.157   3.294
 3685SOL     OW11590   2.846   1.115   3.585
 3685SOL    HW111591   2.755   1.132   3.608
 3685SOL    HW211592   2.844   1.037   3.530
 3686SOL     OW11593   2.571   1.062   2.233
 3686SOL    HW111594   2.557   1.044   2.326
 3686SOL    HW211595   2.646   1.008   2.209
 3687SOL     OW11596   2.282   0.816   3.113
 3687SOL    HW111597   2.350   0.824   3.180
 3687SOL    HW211598   2.247   0.728   3.126
 3688SOL     OW11599   3.129   0.375   3.138
 3688SOL    HW111600   3.162   0.453   3.182
 3688SOL    HW211601   3.041   0.401   3.108
 3689SOL     OW11602   1.934   1.578   3.215
 3689SOL    HW111603   1.899   1.641   3.153
 3689SOL    HW211604   2.029   1.580   3.201
 3690SOL     OW11605   2.209   1.111   2.353
 3690SOL    HW111606   2.214   1.185   2.293
 3690SOL    HW211607   2.206   1.034   2.295
 3691SOL     OW11608   2.417   0.533   2.719
 3691SOL    HW111609   2.431   0.593   2.646
 3691SOL    HW211610   2.481   0.560   2.785
 3692SOL     OW11611   3.110   1.349   2.251
 3692SOL    HW111612   3.166   1.420   2.282
 3692SOL    HW211613   3.023   1.370   2.285
 3693SOL     OW11614   3.145   1.459   3.009
 3693SOL    HW111615   3.201   1.462   3.087
 3693SOL    HW211616   3.090   1.381   3.023
 3694SOL     OW11617   3.435   0.632   2.346
 3694SOL    HW111618   3.394   0.688   2.412
 3694SOL    HW211619   3.483   0.692   2.290
 3695SOL     OW11620   2.214   1.516   3.178
 3695SOL    HW111621   2.200   1.473   3.094
 3695SOL    HW211622   2.309   1.527   3.184
 3696SOL     OW11623   2.278   0.744   3.464
 3696SOL    HW111624   2.340   0.789   3.405
 3696SOL    HW211625   2.319   0.660   3.481
 3697SOL     OW11626   3.465   0.778   3.544
 3697SOL    HW111627   3.379   0.820   3.538
 3697SOL    HW211628   3.518   0.820   3.477
 3698SOL     OW11629   2.878   0.129   3.641
 3698SOL    HW111630   2.924   0.203   3.602
 3698SOL    HW211631   2.861   0.070   3.568
 3699SOL     OW11632   2.349   0.034   3.624
 3699SOL    HW111633   2.353   0.045   3.529
 3699SOL    HW211634   2.290   0.103   3.654
 3700SOL     OW11635   2.446   0.873   2.894
 3700SOL    HW111636   2.475   0.964   2.894
 3700SOL    HW211637   2.389   0.866   2.970
 3701SOL     OW11638   3.217   0.859   2.889
 3701SOL    HW111639   3.133   0.848   2.845
 3701SOL    HW211640   3.259   0.773   2.883
 3702SOL     OW11641   3.064   0.536   2.121
 3702SOL    HW111642   3.072   0.457   2.174
 3702SOL    HW211643   3.020   0.600   2.179
 3703SOL     OW11644   2.162   0.210   3.105
 3703SOL    HW111645   2.121   0.239   3.186
 3703SOL    HW211646   2.151   0.115   3.104
 3704SOL     OW11647   1.907   1.313   3.140
 3704SOL    HW111648   1.941   1.257   3.210
 3704SOL    HW211649   1.915   1.402   3.174
 3705SOL     OW11650   2.585   0.632   2.915
 3705SOL    HW111651   2.660   0.619   2.858
 3705SOL    HW211652   2.556   0.721   2.896
 3706SOL     OW11653   3.594   0.957   3.723
 3706SOL    HW111654   3.551   0.897   3.662
 3706SOL    HW211655   3.531   0.971   3.793
 3707SOL     OW11656   2.184   0.056   2.512
 3707SOL    HW111657   2.164   0.149   2.523
 3707SOL    HW211658   2.147   0.014   2.589
 3708SOL     OW11659   3.473   0.391   2.242
 3708SOL    HW111660   3.438   0.322   2.298
 3708SOL    HW211661   3.451   0.472   2.287
 3709SOL     OW11662   2.891   0.759   2.821
 3709SOL    HW111663   2.885   0.776   2.915
 3709SOL    HW211664   2.864   0.668   2.812
 3710SOL     OW11665   2.844   1.567   3.580
 3710SOL    HW111666   2.829   1.610   3.496
 3710SOL    HW211667   2.887   1.484   3.557
 3711SOL     OW11668   3.706   1.500   3.461
 3711SOL    HW111669   3.729   1.529   3.373
 3711SOL    HW211670   3.786   1.512   3.511
 3712SOL     OW11671   2.215   0.915   3.671
 3712SOL    HW111672   2.296   0.935   3.717
 3712SOL    HW211673   2.240   0.853   3.603
 3713SOL     OW11674   3.365   0.275   1.997
 3713SOL    HW111675   3.291   0.215   2.008
 3713SOL    HW211676   3.378   0.313   2.083
 3714SOL     OW11677   3.151   0.826   1.891
 3714SOL    HW111678   3.194   0.741   1.894
 3714SOL    HW211679   3.184   0.866   1.810
 3715SOL     OW11680   2.928   1.336   2.717
 3715SOL    HW111681   2.932   1.264   2.654
 3715SOL    HW211682   2.989   1.402   2.682
 3716SOL     OW11683   2.170   0.809   2.809
 3716SOL    HW111684   2.263   0.831   2.802
 3716SOL    HW211685   2.168   0.719   2.841
 3717SOL     OW11686   2.198   0.535   2.875
 3717SOL    HW111687   2.157   0.450   2.860
 3717SOL    HW211688   2.274   0.536   2.817
 3718SOL     OW11689   2.995   0.381   3.557
 3718SOL    HW111690   2.946   0.436   3.619
 3718SOL    HW211691   3.082   0.421   3.553
 3719SOL     OW11692   3.013   0.226   3.343
 3719SOL    HW111693   3.004   0.280   3.421
 3719SOL    HW211694   3.037   0.287   3.274
 3720SOL     OW11695   1.866   1.318   2.056
 3720SOL    HW111696   1.779   1.330   2.019
 3720SOL    HW211697   1.865   1.228   2.090
 3721SOL     OW11698   1.979   1.716   2.844
 3721SOL    HW111699   1.937   1.661   2.778
 3721SOL    HW211700   2.043   1.767   2.794
 3722SOL     OW11701   2.361   1.569   2.771
 3722SOL    HW111702   2.429   1.632   2.794
 3722SOL    HW211703   2.404   1.507   2.712
 3723SOL     OW11704   2.842   0.789   3.086
 3723SOL    HW111705   2.898   0.769   3.161
 3723SOL    HW211706   2.756   0.754   3.111
 3724SOL     OW11707   1.895   0.547   2.979
 3724SOL    HW111708   1.970   0.521   2.925
 3724SOL    HW211709   1.929   0.547   3.069
 3725SOL     OW11710   2.065   0.526   3.575
 3725SOL    HW111711   2.135   0.505   3.513
 3725SOL    HW211712   2.020   0.601   3.536
 3726SOL     OW11713   3.241   0.937   3.520
 3726SOL    HW111714   3.262   1.031   3.518
 3726SOL    HW211715   3.237   0.911   3.428
 3727SOL     OW11716   2.679   0.572   2.225
 3727SOL    HW111717   2.684   0.496   2.166
 3727SOL    HW211718   2.604   0.622   2.192
 3728SOL     OW11719   3.502   0.602   3.046
 3728SOL    HW111720   3.491   0.541   3.119
 3728SOL    HW211721   3.588   0.581   3.010
 3729SOL     OW11722   2.115   1.539   3.569
 3729SOL    HW111723   2.095   1.608   3.632
 3729SOL    HW211724   2.117   1.459   3.622
 3730SOL     OW11725   2.567   0.454   3.119
 3730SOL    HW111726   2.517   0.377   3.094
 3730SOL    HW211727   2.559   0.513   3.045
 3731SOL     OW11728   2.786   1.679   3.331
 3731SOL    HW111729   2.763   1.643   3.246
 3731SOL    HW211730   2.783   1.774   3.318
 3732SOL     OW11731   2.325   0.494   2.046
 3732SOL    HW111732   2.383   0.566   2.069
 3732SOL    HW211733   2.240   0.535   2.033
 3733SOL     OW11734   2.005   1.141   3.335
 3733SOL    HW111735   2.008   1.091   3.416
 3733SOL    HW211736   2.023   1.076   3.266
 3734SOL     OW11737   3.185   1.045   3.085
 3734SOL    HW111738   3.209   0.983   3.016
 3734SOL    HW211739   3.117   1.099   3.045
 3735SOL     OW11740   3.175   0.855   2.167
 3735SOL    HW111741   3.099   0.827   2.219
 3735SOL    HW211742   3.148   0.843   2.076
 3736SOL     OW11743   3.641   1.742   3.018
 3736SOL    HW111744   3.696   1.770   2.945
 3736SOL    HW211745   3.612   1.654   2.994
 3737SOL     OW11746   3.103   1.734   2.973
 3737SOL    HW111747   3.185   1.756   2.929
 3737SOL    HW211748   3.110   1.640   2.992
 3738SOL     OW11749   1.949   1.264   2.876
 3738SOL    HW111750   1.932   1.279   2.969
 3738SOL    HW211751   1.874   1.211   2.847
 3739SOL     OW11752   2.542   1.664   3.591
 3739SOL    HW111753   2.492   1.746   3.590
 3739SOL    HW211754   2.610   1.677   3.525
 3740SOL     OW11755   3.552   0.120   2.349
 3740SOL    HW111756   3.633   0.135   2.301
 3740SOL    HW211757   3.554   0.027   2.371
 3741SOL     OW11758   3.252   1.567   2.349
 3741SOL    HW111759   3.312   1.600   2.282
 3741SOL    HW211760   3.204   1.645   2.377
 3742SOL     OW11761   2.030   1.742   3.721
 3742SOL    HW111762   1.968   1.692   3.772
 3742SOL    HW211763   2.009   1.834   3.740
 3743SOL     OW11764   3.139   0.926   2.533
 3743SOL    HW111765   3.214   0.867   2.542
 3743SOL    HW211766   3.173   0.999   2.480
 3744SOL     OW11767   2.674   1.274   3.290
 3744SOL    HW111768   2.645   1.313   3.372
 3744SOL    HW211769   2.604   1.295   3.228
 3745SOL     OW11770   2.535   1.621   2.013
 3745SOL    HW111771   2.546   1.631   1.918
 3745SOL    HW211772   2.480   1.544   2.023
 3746SOL     OW11773   3.483   1.727   3.253
 3746SOL    HW111774   3.538   1.732   3.175
 3746SOL    HW211775   3.470   1.818   3.279
 3747SOL     OW11776   3.703   0.181   2.833
 3747SOL    HW111777   3.727   0.097   2.794
 3747SOL    HW211778   3.617   0.200   2.796
 3748SOL     OW11779   2.126   0.317   2.577
 3748SOL    HW111780   2.040   0.352   2.555
 3748SOL    HW211781   2.125   0.307   2.672
 3749SOL     OW11782   3.070   1.605   1.894
 3749SOL    HW111783   3.059   1.513   1.921
 3749SOL    HW211784   3.004   1.617   1.825
 3750SOL     OW11785   2.686   1.006   3.234
 3750SOL    HW111786   2.728   1.002   3.149
 3750SOL    HW211787   2.684   1.099   3.257
 3751SOL     OW11788   2.778   0.910   2.152
 3751SOL    HW111789   2.839   0.943   2.086
 3751SOL    HW211790   2.826   0.842   2.198
 3752SOL     OW11791   3.352   1.628   1.905
 3752SOL    HW111792   3.257   1.619   1.890
 3752SOL    HW211793   3.389   1.633   1.817
 3753SOL     OW11794   2.232   1.298   3.354
 3753SOL    HW111795   2.219   1.376   3.301
 3753SOL    HW211796   2.154   1.245   3.339
 3754SOL     OW11797   3.464   1.280   3.140
 3754SOL    HW111798   3.532   1.272   3.207
 3754SOL    HW211799   3.407   1.350   3.171
 3755SOL     OW11800   2.917   1.108   2.570
 3755SOL    HW111801   2.845   1.057   2.608
 3755SOL    HW211802   2.979   1.042   2.540
 3756SOL     OW11803   2.876   0.248   2.831
 3756SOL    HW111804   2.866   0.198   2.750
 3756SOL    HW211805   2.872   0.183   2.901
 3757SOL     OW11806   2.465   1.489   2.343
 3757SOL    HW111807   2.507   1.440   2.273
 3757SOL    HW211808   2.403   1.547   2.298
 3758SOL     OW11809   3.582   0.393   3.234
 3758SOL    HW111810   3.654   0.457   3.234
 3758SOL    HW211811   3.614   0.321   3.180
 3759SOL     OW11812   2.121   1.345   2.149
 3759SOL    HW111813   2.028   1.341   2.128
 3759SOL    HW211814   2.124   1.379   2.238
 3760SOL     OW11815   1.975   1.025   3.583
 3760SOL    HW111816   1.899   1.001   3.635
 3760SOL    HW211817   2.049   0.986   3.629
 3761SOL     OW11818   2.555   0.252   3.362
 3761SOL    HW111819   2.622   0.198   3.321
 3761SOL    HW211820   2.582   0.259   3.454
 3762SOL     OW11821   1.961   0.318   1.853
 3762SOL    HW111822   1.891   0.337   1.916
 3762SOL    HW211823   1.971   0.399   1.803
 3763SOL     OW11824   3.288   0.857   3.261
 3763SOL    HW111825   3.239   0.919   3.207
 3763SOL    HW211826   3.377   0.859   3.225
 3764SOL     OW11827   1.943   0.153   2.202
 3764SOL    HW111828   1.913   0.213   2.134
 3764SOL    HW211829   2.029   0.124   2.172
 3765SOL     OW11830   3.040   1.338   1.979
 3765SOL    HW111831   2.950   1.307   1.982
 3765SOL    HW211832   3.068   1.339   2.071
 3766SOL     OW11833   2.483   0.829   3.296
 3766SOL    HW111834   2.539   0.905   3.281
 3766SOL    HW211835   2.544   0.756   3.305
 3767SOL     OW11836   3.344   1.780   2.842
 3767SOL    HW111837   3.368   1.841   2.772
 3767SOL    HW211838   3.428   1.754   2.880
 3768SOL     OW11839   2.580   0.561   3.567
 3768SOL    HW111840   2.621   0.624   3.626
 3768SOL    HW211841   2.607   0.476   3.600
 3769SOL     OW11842   3.334   1.198   3.493
 3769SOL    HW111843   3.323   1.213   3.587
 3769SOL    HW211844   3.427   1.214   3.477
 3770SOL     OW11845   2.238   1.745   3.430
 3770SOL    HW111846   2.164   1.764   3.373
 3770SOL    HW211847   2.216   1.662   3.472
 3771SOL     OW11848   3.527   0.881   3.121
 3771SOL    HW111849   3.526   0.796   3.077
 3771SOL    HW211850   3.521   0.944   3.050
 3772SOL     OW11851   3.083   0.336   2.306
 3772SOL    HW111852   3.151   0.270   2.297
 3772SOL    HW211853   3.104   0.381   2.388
 3773SOL     OW11854   2.452   0.737   2.532
 3773SOL    HW111855   2.490   0.823   2.517
 3773SOL    HW211856   2.385   0.729   2.465
 3774SOL     OW11857   3.617   0.381   3.504
 3774SOL    HW111858   3.596   0.389   3.411
 3774SOL    HW211859   3.557   0.313   3.536
 3775SOL     OW11860   3.616   0.931   3.376
 3775SOL    HW111861   3.607   1.024   3.392
 3775SOL    HW211862   3.592   0.920   3.283
 3776SOL     OW11863   2.723   1.367   1.898
 3776SOL    HW111864   2.687   1.393   1.982
 3776SOL    HW211865   2.742   1.449   1.853
 3777SOL     OW11866   2.522   1.793   2.805
 3777SOL    HW111867   2.507   1.884   2.778
 3777SOL    HW211868   2.617   1.782   2.797
 3778SOL     OW11869   2.730   0.968   2.717
 3778SOL    HW111870   2.780   0.897   2.756
 3778SOL    HW211871   2.694   1.016   2.792
 3779SOL     OW11872   2.941   0.989   1.951
 3779SOL    HW111873   2.919   1.040   1.873
 3779SOL    HW211874   3.015   0.935   1.924
 3780SOL     OW11875   3.715   1.556   2.703
 3780SOL    HW111876   3.636   1.540   2.652
 3780SOL    HW211877   3.714   1.489   2.772
 3781SOL     OW11878   2.088   1.301   3.718
 3781SOL    HW111879   2.021   1.239   3.691
 3781SOL    HW211880   2.074   1.313   3.812
 3782SOL     OW11881   1.943   1.225   2.526
 3782SOL    HW111882   1.955   1.180   2.610
 3782SOL    HW211883   2.016   1.194   2.472
 3783SOL     OW11884   2.543   1.404   3.489
 3783SOL    HW111885   2.464   1.360   3.522
 3783SOL    HW211886   2.539   1.491   3.527
 3784SOL     OW11887   3.676   0.182   3.106
 3784SOL    HW111888   3.678   0.086   3.114
 3784SOL    HW211889   3.694   0.198   3.013
 3785SOL     OW11890   2.290   0.435   2.387
 3785SOL    HW111891   2.324   0.363   2.333
 3785SOL    HW211892   2.243   0.391   2.458
 3786SOL     OW11893   3.559   1.491   2.959
 3786SOL    HW111894   3.480   1.468   2.910
 3786SOL    HW211895   3.570   1.420   3.022
 3787SOL     OW11896   2.192   0.556   3.156
 3787SOL    HW111897   2.246   0.497   3.210
 3787SOL    HW211898   2.212   0.529   3.066
 3788SOL     OW11899   2.690   1.578   2.540
 3788SOL    HW111900   2.676   1.636   2.465
 3788SOL    HW211901   2.615   1.519   2.539
 3789SOL     OW11902   3.323   0.252   2.972
 3789SOL    HW111903   3.337   0.164   3.008
 3789SOL    HW211904   3.267   0.296   3.037
 3790SOL     OW11905   2.867   0.028   3.009
 3790SOL    HW111906   2.787   3.987   2.974
 3790SOL    HW211907   2.929   3.956   3.017
 3791SOL     OW11908   2.636   1.333   2.177
 3791SOL    HW111909   2.605   1.243   2.185
 3791SOL    HW211910   2.716   1.335   2.229
 3792SOL     OW11911   2.483   1.555   3.148
 3792SOL    HW111912   2.484   1.638   3.196
 3792SOL    HW211913   2.571   1.548   3.111
 3793SOL     OW11914   3.174   0.071   2.021
 3793SOL    HW111915   3.182   3.992   1.968
 3793SOL    HW211916   3.089   0.063   2.065
 3794SOL     OW11917   3.144   0.457   2.548
 3794SOL    HW111918   3.097   0.540   2.543
 3794SOL    HW211919   3.147   0.437   2.641
 3795SOL     OW11920   3.452   0.210   2.729
 3795SOL    HW111921   3.403   0.233   2.808
 3795SOL    HW211922   3.451   0.290   2.676
 3796SOL     OW11923   1.906   1.070   2.167
 3796SOL    HW111924   2.000   1.062   2.151
 3796SOL    HW211925   1.878   0.982   2.192
 3797SOL     OW11926   2.749   1.653   2.201
 3797SOL    HW111927   2.674   1.638   2.143
 3797SOL    HW211928   2.723   1.727   2.256
 3798SOL     OW11929   2.090   0.620   3.845
 3798SOL    HW111930   2.000   0.627   3.877
 3798SOL    HW211931   2.081   0.600   3.752
 3799SOL     OW11932   2.079   0.300   4.715
 3799SOL    HW111933   2.116   0.257   4.792
 3799SOL    HW211934   1.994   0.256   4.702
 3800SOL     OW11935   1.871   0.397   4.358
 3800SOL    HW111936   1.784   0.412   4.395
 3800SOL    HW211937   1.858   0.326   4.294
 3801SOL     OW11938   2.430   1.289   4.900
 3801SOL    HW111939   2.343   1.294   4.861
 3801SOL    HW211940   2.446   1.378   4.933
 3802SOL     OW11941   3.425   1.512   4.432
 3802SOL    HW111942   3.382   1.492   4.515
 3802SOL    HW211943   3.353   1.517   4.368
 3803SOL     OW11944   2.994   0.698   4.422
 3803SOL    HW111945   3.042   0.780   4.409
 3803SOL    HW211946   2.947   0.711   4.504
 3804SOL     OW11947   3.623   0.623   3.951
 3804SOL    HW111948   3.605   0.611   3.858
 3804SOL    HW211949   3.606   0.537   3.989
 3805SOL     OW11950   2.616   1.141   4.767
 3805SOL    HW111951   2.547   1.176   4.823
 3805SOL    HW211952   2.652   1.218   4.722
 3806SOL     OW11953   2.731   0.771   5.547
 3806SOL    HW111954   2.716   0.842   5.610
 3806SOL    HW211955   2.754   0.816   5.466
 3807SOL     OW11956   2.548   1.001   4.370
 3807SOL    HW111957   2.613   0.991   4.439
 3807SOL    HW211958   2.479   1.054   4.409
 3808SOL     OW11959   2.573   1.149   5.536
 3808SOL    HW111960   2.621   1.227   5.565
 3808SOL    HW211961   2.490   1.183   5.502
 3809SOL     OW11962   2.194   1.419   4.792
 3809SOL    HW111963   2.118   1.386   4.745
 3809SOL    HW211964   2.241   1.472   4.728
 3810SOL     OW11965   3.322   1.501   5.080
 3810SOL    HW111966   3.374   1.580   5.090
 3810SOL    HW211967   3.257   1.506   5.151
 3811SOL     OW11968   2.306   0.394   5.217
 3811SOL    HW111969   2.396   0.361   5.216
 3811SOL    HW211970   2.252   0.315   5.225
 3812SOL     OW11971   3.473   0.450   4.460
 3812SOL    HW111972   3.403   0.483   4.404
 3812SOL    HW211973   3.496   0.524   4.516
 3813SOL     OW11974   2.096   1.698   4.186
 3813SOL    HW111975   2.127   1.764   4.247
 3813SOL    HW211976   2.167   1.688   4.123
 3814SOL     OW11977   2.999   1.342   5.417
 3814SOL    HW111978   3.038   1.338   5.504
 3814SOL    HW211979   2.946   1.262   5.411
 3815SOL     OW11980   2.089   1.435   4.260
 3815SOL    HW111981   2.079   1.530   4.255
 3815SOL    HW211982   2.028   1.407   4.327
 3816SOL     OW11983   2.122   1.090   4.614
 3816SOL    HW111984   2.118   1.003   4.654
 3816SOL    HW211985   2.065   1.144   4.669
 3817SOL     OW11986   2.471   1.792   5.151
 3817SOL    HW111987   2.391   1.773   5.200
 3817SOL    HW211988   2.497   1.880   5.179
 3818SOL     OW11989   2.446   0.983   3.860
 3818SOL    HW111990   2.492   1.030   3.791
 3818SOL    HW211991   2.485   1.014   3.941
 3819SOL     OW11992   3.443   0.140   5.181
 3819SOL    HW111993   3.468   0.213   5.124
 3819SOL    HW211994   3.409   0.181   5.260
 3820SOL     OW11995   1.978   0.656   4.284
 3820SOL    HW111996   1.951   0.567   4.307
 3820SOL    HW211997   1.971   0.705   4.365
 3821SOL     OW11998   3.702   1.757   4.060
 3821SOL    HW111999   3.770   1.733   4.122
 3821SOL    HW212000   3.721   1.848   4.038
 3822SOL     OW12001   1.866   1.601   3.880
 3822SOL    HW112002   1.856   1.507   3.866
 3822SOL    HW212003   1.885   1.610   3.973
 3823SOL     OW12004   3.549   0.917   4.368
 3823SOL    HW112005   3.634   0.875   4.352
 3823SOL    HW212006   3.532   0.968   4.289
 3824SOL     OW12007   3.504   1.105   4.155
 3824SOL    HW112008   3.589   1.111   4.111
 3824SOL    HW212009   3.510   1.168   4.227
 3825SOL     OW12010   1.985   0.749   5.305
 3825SOL    HW112011   2.076   0.778   5.310
 3825SOL    HW212012   1.934   0.830   5.313
 3826SOL     OW12013   2.476   1.387   4.458
 3826SOL    HW112014   2.431   1.303   4.468
 3826SOL    HW212015   2.459   1.414   4.368
 3827SOL     OW12016   3.150   1.238   5.146
 3827SOL    HW112017   3.182   1.171   5.086
 3827SOL    HW212018   3.208   1.232   5.222
 3828SOL     OW12019   2.681   0.004   4.240
 3828SOL    HW112020   2.727   0.084   4.216
 3828SOL    HW212021   2.588   0.028   4.241
 3829SOL     OW12022   2.051   0.964   4.998
 3829SOL    HW112023   2.137   0.923   4.983
 3829SOL    HW212024   1.991   0.912   4.945
 3830SOL     OW12025   3.391   0.995   3.924
 3830SOL    HW112026   3.321   0.938   3.958
 3830SOL    HW212027   3.433   1.030   4.002
 3831SOL     OW12028   3.049   1.809   5.347
 3831SOL    HW112029   3.057   1.867   5.271
 3831SOL    HW212030   3.065   1.721   5.312
 3832SOL     OW12031   2.218   0.254   5.558
 3832SOL    HW112032   2.262   0.339   5.557
 3832SOL    HW212033   2.125   0.275   5.564
 3833SOL     OW12034   3.328   1.420   4.674
 3833SOL    HW112035   3.261   1.435   4.740
 3833SOL    HW212036   3.317   1.328   4.649
 3834SOL     OW12037   3.516   1.744   4.303
 3834SOL    HW112038   3.500   1.712   4.214
 3834SOL    HW212039   3.495   1.669   4.359
 3835SOL     OW12040   2.457   0.720   3.991
 3835SOL    HW112041   2.462   0.803   3.943
 3835SOL    HW212042   2.393   0.737   4.060
 3836SOL     OW12043   3.137   0.367   4.665
 3836SOL    HW112044   3.050   0.328   4.671
 3836SOL    HW212045   3.194   0.305   4.710
 3837SOL     OW12046   3.440   1.671   4.034
 3837SOL    HW112047   3.530   1.701   4.028
 3837SOL    HW212048   3.414   1.654   3.943
 3838SOL     OW12049   2.658   0.616   5.176
 3838SOL    HW112050   2.629   0.591   5.264
 3838SOL    HW212051   2.618   0.550   5.119
 3839SOL     OW12052   3.254   0.476   5.401
 3839SOL    HW112053   3.259   0.521   5.485
 3839SOL    HW212054   3.312   0.401   5.411
 3840SOL     OW12055   2.814   0.887   5.308
 3840SOL    HW112056   2.870   0.818   5.271
 3840SOL    HW212057   2.767   0.922   5.232
 3841SOL     OW12058   2.854   0.402   4.963
 3841SOL    HW112059   2.770   0.425   5.003
 3841SOL    HW212060   2.831   0.374   4.875
 3842SOL     OW12061   2.914   0.699   4.149
 3842SOL    HW112062   2.930   0.692   4.243
 3842SOL    HW212063   2.831   0.653   4.136
 3843SOL     OW12064   1.950   0.823   4.500
 3843SOL    HW112065   2.030   0.814   4.552
 3843SOL    HW212066   1.906   0.900   4.536
 3844SOL     OW12067   2.757   0.352   3.923
 3844SOL    HW112068   2.798   0.411   3.860
 3844SOL    HW212069   2.751   0.268   3.878
 3845SOL     OW12070   3.571   0.574   5.553
 3845SOL    HW112071   3.533   0.649   5.506
 3845SOL    HW212072   3.596   0.512   5.484
 3846SOL     OW12073   3.238   1.141   4.264
 3846SOL    HW112074   3.318   1.130   4.213
 3846SOL    HW212075   3.187   1.204   4.214
 3847SOL     OW12076   2.419   0.198   4.605
 3847SOL    HW112077   2.423   0.217   4.699
 3847SOL    HW212078   2.416   0.285   4.564
 3848SOL     OW12079   2.866   1.443   4.195
 3848SOL    HW112080   2.831   1.516   4.145
 3848SOL    HW212081   2.846   1.465   4.286
 3849SOL     OW12082   2.220   1.803   4.587
 3849SOL    HW112083   2.255   1.715   4.599
 3849SOL    HW212084   2.289   1.861   4.618
 3850SOL     OW12085   3.666   1.062   4.591
 3850SOL    HW112086   3.612   1.038   4.516
 3850SOL    HW212087   3.605   1.065   4.665
 3851SOL     OW12088   3.090   1.539   5.237
 3851SOL    HW112089   3.076   1.467   5.299
 3851SOL    HW212090   3.024   1.524   5.168
 3852SOL     OW12091   2.181   0.959   3.975
 3852SOL    HW112092   2.264   0.978   3.931
 3852SOL    HW212093   2.151   0.877   3.938
 3853SOL     OW12094   3.342   0.745   4.453
 3853SOL    HW112095   3.335   0.704   4.539
 3853SOL    HW212096   3.418   0.801   4.459
 3854SOL     OW12097   2.329   1.263   5.462
 3854SOL    HW112098   2.302   1.268   5.370
 3854SOL    HW212099   2.247   1.260   5.511
 3855SOL     OW12100   2.984   1.778   3.953
 3855SOL    HW112101   2.911   1.736   3.999
 3855SOL    HW212102   3.009   1.716   3.885
 3856SOL     OW12103   2.033   0.275   5.223
 3856SOL    HW112104   1.976   0.351   5.215
 3856SOL    HW212105   2.041   0.261   5.317
 3857SOL     OW12106   3.488   1.383   3.811
 3857SOL    HW112107   3.445   1.467   3.796
 3857SOL    HW212108   3.420   1.318   3.792
 3858SOL     OW12109   2.339   1.713   4.059
 3858SOL    HW112110   2.378   1.788   4.105
 3858SOL    HW212111   2.395   1.699   3.983
 3859SOL     OW12112   3.297   0.168   4.126
 3859SOL    HW112113   3.253   0.095   4.083
 3859SOL    HW212114   3.372   0.128   4.170
 3860SOL     OW12115   2.155   1.768   4.945
 3860SOL    HW112116   2.195   1.687   4.977
 3860SOL    HW212117   2.113   1.743   4.862
 3861SOL     OW12118   2.798   1.698   4.623
 3861SOL    HW112119   2.877   1.648   4.645
 3861SOL    HW212120   2.757   1.648   4.553
 3862SOL     OW12121   2.256   0.695   4.198
 3862SOL    HW112122   2.275   0.603   4.211
 3862SOL    HW212123   2.162   0.703   4.217
 3863SOL     OW12124   3.392   0.230   5.451
 3863SOL    HW112125   3.386   0.255   5.543
 3863SOL    HW212126   3.371   0.137   5.450
 3864SOL     OW12127   2.505   0.132   3.832
 3864SOL    HW112128   2.531   0.049   3.871
 3864SOL    HW212129   2.442   0.107   3.763
 3865SOL     OW12130   2.638   0.281   5.491
 3865SOL    HW112131   2.707   0.215   5.495
 3865SOL    HW212132   2.579   0.259   5.563
 3866SOL     OW12133   2.738   1.522   4.918
 3866SOL    HW112134   2.722   1.485   4.831
 3866SOL    HW212135   2.808   1.468   4.954
 3867SOL     OW12136   3.203   0.587   5.154
 3867SOL    HW112137   3.233   0.559   5.241
 3867SOL    HW212138   3.236   0.676   5.145
 3868SOL     OW12139   2.678   1.394   4.665
 3868SOL    HW112140   2.763   1.382   4.622
 3868SOL    HW212141   2.614   1.396   4.594
 3869SOL     OW12142   2.792   0.511   4.625
 3869SOL    HW112143   2.767   0.503   4.533
 3869SOL    HW212144   2.819   0.423   4.650
 3870SOL     OW12145   2.407   0.057   4.215
 3870SOL    HW112146   2.333   0.062   4.275
 3870SOL    HW212147   2.402   0.138   4.164
 3871SOL     OW12148   3.289   1.199   3.765
 3871SOL    HW112149   3.320   1.124   3.815
 3871SOL    HW212150   3.204   1.221   3.802
 3872SOL     OW12151   2.190   0.043   3.934
 3872SOL    HW112152   2.201   0.111   3.867
 3872SOL    HW212153   2.273   0.043   3.982
 3873SOL     OW12154   2.803   0.249   4.185
 3873SOL    HW112155   2.778   0.290   4.101
 3873SOL    HW212156   2.899   0.253   4.185
 3874SOL     OW12157   2.942   0.683   5.183
 3874SOL    HW112158   2.871   0.619   5.190
 3874SOL    HW212159   3.022   0.630   5.178
 3875SOL     OW12160   3.084   1.571   4.518
 3875SOL    HW112161   3.100   1.637   4.451
 3875SOL    HW212162   3.153   1.585   4.583
 3876SOL     OW12163   2.332   1.150   4.456
 3876SOL    HW112164   2.264   1.131   4.520
 3876SOL    HW212165   2.291   1.135   4.371
 3877SOL     OW12166   3.130   1.793   4.333
 3877SOL    HW112167   3.177   1.854   4.277
 3877SOL    HW212168   3.063   1.847   4.375
 3878SOL     OW12169   2.884   0.544   3.751
 3878SOL    HW112170   2.840   0.627   3.732
 3878SOL    HW212171   2.948   0.566   3.819
 3879SOL     OW12172   1.943   0.551   5.120
 3879SOL    HW112173   2.034   0.552   5.091
 3879SOL    HW212174   1.936   0.624   5.182
 3880SOL     OW12175   2.426   0.231   4.884
 3880SOL    HW112176   2.450   0.139   4.895
 3880SOL    HW212177   2.336   0.236   4.917
 3881SOL     OW12178   2.732   0.461   4.363
 3881SOL    HW112179   2.684   0.515   4.300
 3881SOL    HW212180   2.753   0.381   4.314
 3882SOL     OW12181   2.858   0.040   4.504
 3882SOL    HW112182   2.822   0.068   4.420
 3882SOL    HW212183   2.868   3.945   4.495
 3883SOL     OW12184   3.301   1.162   4.582
 3883SOL    HW112185   3.230   1.098   4.580
 3883SOL    HW212186   3.326   1.172   4.490
 3884SOL     OW12187   3.326   0.607   4.699
 3884SOL    HW112188   3.274   0.527   4.704
 3884SOL    HW212189   3.387   0.601   4.773
 3885SOL     OW12190   3.722   0.824   4.099
 3885SOL    HW112191   3.764   0.767   4.163
 3885SOL    HW212192   3.683   0.764   4.035
 3886SOL     OW12193   2.354   1.419   3.878
 3886SOL    HW112194   2.279   1.393   3.932
 3886SOL    HW212195   2.340   1.376   3.794
 3887SOL     OW12196   3.529   1.265   4.369
 3887SOL    HW112197   3.624   1.269   4.378
 3887SOL    HW212198   3.499   1.354   4.389
 3888SOL     OW12199   3.257   0.575   3.793
 3888SOL    HW112200   3.193   0.556   3.862
 3888SOL    HW212201   3.342   0.558   3.834
 3889SOL     OW12202   2.389   0.266   4.040
 3889SOL    HW112203   2.443   0.227   3.972
 3889SOL    HW212204   2.361   0.350   4.004
 3890SOL     OW12205   3.614   1.234   5.292
 3890SOL    HW112206   3.701   1.199   5.274
 3890SOL    HW212207   3.629   1.323   5.322
 3891SOL     OW12208   2.919   1.353   5.057
 3891SOL    HW112209   2.844   1.322   5.108
 3891SOL    HW212210   2.995   1.312   5.098
 3892SOL     OW12211   3.468   1.628   5.379
 3892SOL    HW112212   3.460   1.662   5.290
 3892SOL    HW212213   3.549   1.577   5.379
 3893SOL     OW12214   2.992   1.205   4.828
 3893SOL    HW112215   2.933   1.243   4.893
 3893SOL    HW212216   2.961   1.238   4.745
 3894SOL     OW12217   3.491   1.096   4.799
 3894SOL    HW112218   3.483   1.158   4.872
 3894SOL    HW212219   3.414   1.113   4.745
 3895SOL     OW12220   2.775   0.115   5.125
 3895SOL    HW112221   2.794   0.088   5.036
 3895SOL    HW212222   2.855   0.157   5.156
 3896SOL     OW12223   2.847   1.115   5.448
 3896SOL    HW112224   2.756   1.133   5.470
 3896SOL    HW212225   2.843   1.037   5.392
 3897SOL     OW12226   2.571   1.062   4.095
 3897SOL    HW112227   2.557   1.044   4.188
 3897SOL    HW212228   2.646   1.008   4.071
 3898SOL     OW12229   2.282   0.816   4.975
 3898SOL    HW112230   2.350   0.824   5.042
 3898SOL    HW212231   2.247   0.727   4.988
 3899SOL     OW12232   3.129   0.375   5.000
 3899SOL    HW112233   3.163   0.453   5.044
 3899SOL    HW212234   3.041   0.401   4.970
 3900SOL     OW12235   1.935   1.577   5.077
 3900SOL    HW112236   1.901   1.642   5.015
 3900SOL    HW212237   2.030   1.579   5.064
 3901SOL     OW12238   2.209   1.111   4.215
 3901SOL    HW112239   2.214   1.185   4.155
 3901SOL    HW212240   2.206   1.034   4.157
 3902SOL     OW12241   2.417   0.533   4.581
 3902SOL    HW112242   2.431   0.593   4.508
 3902SOL    HW212243   2.481   0.560   4.647
 3903SOL     OW12244   3.110   1.349   4.113
 3903SOL    HW112245   3.166   1.420   4.144
 3903SOL    HW212246   3.023   1.370   4.147
 3904SOL     OW12247   3.145   1.459   4.871
 3904SOL    HW112248   3.201   1.462   4.949
 3904SOL    HW212249   3.090   1.382   4.885
 3905SOL     OW12250   3.435   0.632   4.208
 3905SOL    HW112251   3.394   0.688   4.274
 3905SOL    HW212252   3.483   0.692   4.152
 3906SOL     OW12253   2.213   1.517   5.040
 3906SOL    HW112254   2.200   1.474   4.956
 3906SOL    HW212255   2.308   1.527   5.047
 3907SOL     OW12256   2.278   0.744   5.325
 3907SOL    HW112257   2.339   0.789   5.267
 3907SOL    HW212258   2.320   0.660   5.343
 3908SOL     OW12259   3.465   0.778   5.406
 3908SOL    HW112260   3.380   0.820   5.400
 3908SOL    HW212261   3.518   0.820   5.339
 3909SOL     OW12262   2.879   0.128   5.504
 3909SOL    HW112263   2.924   0.203   5.464
 3909SOL    HW212264   2.861   0.070   5.430
 3910SOL     OW12265   2.349   0.034   5.486
 3910SOL    HW112266   2.353   0.045   5.391
 3910SOL    HW212267   2.290   0.103   5.516
 3911SOL     OW12268   2.446   0.873   4.756
 3911SOL    HW112269   2.475   0.964   4.756
 3911SOL    HW212270   2.389   0.866   4.832
 3912SOL     OW12271   3.217   0.859   4.751
 3912SOL    HW112272   3.132   0.848   4.707
 3912SOL    HW212273   3.259   0.773   4.744
 3913SOL     OW12274   3.064   0.536   3.983
 3913SOL    HW112275   3.072   0.457   4.037
 3913SOL    HW212276   3.020   0.600   4.040
 3914SOL     OW12277   2.162   0.210   4.967
 3914SOL    HW112278   2.121   0.239   5.048
 3914SOL    HW212279   2.151   0.115   4.966
 3915SOL     OW12280   1.905   1.313   5.002
 3915SOL    HW112281   1.940   1.257   5.072
 3915SOL    HW212282   1.915   1.402   5.036
 3916SOL     OW12283   2.585   0.632   4.777
 3916SOL    HW112284   2.660   0.619   4.720
 3916SOL    HW212285   2.556   0.721   4.758
 3917SOL     OW12286   3.595   0.956   5.585
 3917SOL    HW112287   3.551   0.897   5.524
 3917SOL    HW212288   3.531   0.971   5.655
 3918SOL     OW12289   2.184   0.056   4.374
 3918SOL    HW112290   2.164   0.149   4.385
 3918SOL    HW212291   2.147   0.014   4.451
 3919SOL     OW12292   3.473   0.391   4.104
 3919SOL    HW112293   3.437   0.322   4.160
 3919SOL    HW212294   3.451   0.472   4.149
 3920SOL     OW12295   2.891   0.759   4.683
 3920SOL    HW112296   2.885   0.776   4.777
 3920SOL    HW212297   2.864   0.668   4.674
 3921SOL     OW12298   2.847   1.570   5.442
 3921SOL    HW112299   2.831   1.612   5.357
 3921SOL    HW212300   2.886   1.485   5.420
 3922SOL     OW12301   3.706   1.500   5.323
 3922SOL    HW112302   3.729   1.529   5.234
 3922SOL    HW212303   3.787   1.512   5.373
 3923SOL     OW12304   2.214   0.914   5.533
 3923SOL    HW112305   2.295   0.936   5.579
 3923SOL    HW212306   2.241   0.853   5.464
 3924SOL     OW12307   3.365   0.275   3.859
 3924SOL    HW112308   3.291   0.215   3.870
 3924SOL    HW212309   3.378   0.313   3.945
 3925SOL     OW12310   3.151   0.826   3.753
 3925SOL    HW112311   3.194   0.741   3.756
 3925SOL    HW212312   3.184   0.866   3.672
 3926SOL     OW12313   2.928   1.336   4.579
 3926SOL    HW112314   2.932   1.264   4.516
 3926SOL    HW212315   2.989   1.402   4.544
 3927SOL     OW12316   2.170   0.810   4.670
 3927SOL    HW112317   2.263   0.831   4.664
 3927SOL    HW212318   2.168   0.719   4.703
 3928SOL     OW12319   2.198   0.535   4.737
 3928SOL    HW112320   2.157   0.450   4.722
 3928SOL    HW212321   2.274   0.536   4.679
 3929SOL     OW12322   2.995   0.381   5.419
 3929SOL    HW112323   2.946   0.436   5.481
 3929SOL    HW212324   3.081   0.421   5.415
 3930SOL     OW12325   3.013   0.226   5.205
 3930SOL    HW112326   3.004   0.280   5.283
 3930SOL    HW212327   3.037   0.288   5.136
 3931SOL     OW12328   1.866   1.318   3.918
 3931SOL    HW112329   1.779   1.331   3.881
 3931SOL    HW212330   1.865   1.229   3.952
 3932SOL     OW12331   1.981   1.717   4.711
 3932SOL    HW112332   1.939   1.662   4.645
 3932SOL    HW212333   2.040   1.773   4.661
 3933SOL     OW12334   2.360   1.570   4.633
 3933SOL    HW112335   2.428   1.633   4.656
 3933SOL    HW212336   2.403   1.508   4.574
 3934SOL     OW12337   2.842   0.788   4.948
 3934SOL    HW112338   2.898   0.769   5.023
 3934SOL    HW212339   2.756   0.755   4.973
 3935SOL     OW12340   1.895   0.547   4.841
 3935SOL    HW112341   1.970   0.521   4.787
 3935SOL    HW212342   1.929   0.547   4.931
 3936SOL     OW12343   2.065   0.526   5.437
 3936SOL    HW112344   2.135   0.506   5.375
 3936SOL    HW212345   2.020   0.601   5.398
 3937SOL     OW12346   3.242   0.937   5.382
 3937SOL    HW112347   3.262   1.030   5.380
 3937SOL    HW212348   3.237   0.911   5.290
 3938SOL     OW12349   2.679   0.572   4.087
 3938SOL    HW112350   2.684   0.497   4.028
 3938SOL    HW212351   2.604   0.622   4.054
 3939SOL     OW12352   3.502   0.602   4.908
 3939SOL    HW112353   3.491   0.542   4.981
 3939SOL    HW212354   3.588   0.581   4.872
 3940SOL     OW12355   2.114   1.535   5.430
 3940SOL    HW112356   2.096   1.607   5.490
 3940SOL    HW212357   2.118   1.457   5.485
 3941SOL     OW12358   2.567   0.454   4.981
 3941SOL    HW112359   2.517   0.377   4.956
 3941SOL    HW212360   2.559   0.514   4.907
 3942SOL     OW12361   2.788   1.679   5.192
 3942SOL    HW112362   2.763   1.643   5.107
 3942SOL    HW212363   2.783   1.774   5.180
 3943SOL     OW12364   2.326   0.494   3.908
 3943SOL    HW112365   2.383   0.566   3.931
 3943SOL    HW212366   2.240   0.534   3.895
 3944SOL     OW12367   2.004   1.141   5.196
 3944SOL    HW112368   2.008   1.091   5.278
 3944SOL    HW212369   2.022   1.076   5.128
 3945SOL     OW12370   3.185   1.045   4.946
 3945SOL    HW112371   3.209   0.983   4.878
 3945SOL    HW212372   3.117   1.099   4.907
 3946SOL     OW12373   3.175   0.855   4.029
 3946SOL    HW112374   3.099   0.827   4.081
 3946SOL    HW212375   3.148   0.843   3.938
 3947SOL     OW12376   3.641   1.742   4.880
 3947SOL    HW112377   3.696   1.770   4.806
 3947SOL    HW212378   3.612   1.654   4.856
 3948SOL     OW12379   3.103   1.734   4.835
 3948SOL    HW112380   3.185   1.755   4.791
 3948SOL    HW212381   3.110   1.640   4.854
 3949SOL     OW12382   1.948   1.264   4.738
 3949SOL    HW112383   1.931   1.280   4.831
 3949SOL    HW212384   1.874   1.211   4.709
 3950SOL     OW12385   2.541   1.664   5.453
 3950SOL    HW112386   2.492   1.746   5.455
 3950SOL    HW212387   2.610   1.678   5.388
 3951SOL     OW12388   3.552   0.120   4.211
 3951SOL    HW112389   3.633   0.135   4.163
 3951SOL    HW212390   3.554   0.027   4.233
 3952SOL     OW12391   3.252   1.567   4.211
 3952SOL    HW112392   3.312   1.600   4.144
 3952SOL    HW212393   3.204   1.645   4.239
 3953SOL     OW12394   2.035   1.742   5.577
 3953SOL    HW112395   1.977   1.692   5.635
 3953SOL    HW212396   2.012   1.833   5.592
 3954SOL     OW12397   3.139   0.926   4.394
 3954SOL    HW112398   3.214   0.867   4.404
 3954SOL    HW212399   3.173   0.999   4.342
 3955SOL     OW12400   2.674   1.273   5.152
 3955SOL    HW112401   2.645   1.313   5.235
 3955SOL    HW212402   2.604   1.294   5.090
 3956SOL     OW12403   2.535   1.621   3.875
 3956SOL    HW112404   2.545   1.631   3.780
 3956SOL    HW212405   2.480   1.544   3.885
 3957SOL     OW12406   3.484   1.727   5.115
 3957SOL    HW112407   3.538   1.732   5.036
 3957SOL    HW212408   3.471   1.818   5.141
 3958SOL     OW12409   3.703   0.181   4.695
 3958SOL    HW112410   3.727   0.097   4.656
 3958SOL    HW212411   3.617   0.200   4.658
 3959SOL     OW12412   2.126   0.317   4.439
 3959SOL    HW112413   2.040   0.352   4.417
 3959SOL    HW212414   2.125   0.307   4.534
 3960SOL     OW12415   3.070   1.605   3.756
 3960SOL    HW112416   3.059   1.513   3.783
 3960SOL    HW212417   3.004   1.617   3.687
 3961SOL     OW12418   2.686   1.006   5.096
 3961SOL    HW112419   2.728   1.003   5.010
 3961SOL    HW212420   2.684   1.099   5.119
 3962SOL     OW12421   2.778   0.910   4.014
 3962SOL    HW112422   2.839   0.943   3.948
 3962SOL    HW212423   2.826   0.842   4.060
 3963SOL     OW12424   3.352   1.627   3.767
 3963SOL    HW112425   3.257   1.619   3.752
 3963SOL    HW212426   3.389   1.633   3.679
 3964SOL     OW12427   2.231   1.297   5.216
 3964SOL    HW112428   2.219   1.376   5.164
 3964SOL    HW212429   2.153   1.245   5.200
 3965SOL     OW12430   3.464   1.280   5.002
 3965SOL    HW112431   3.531   1.272   5.070
 3965SOL    HW212432   3.407   1.350   5.033
 3966SOL     OW12433   2.917   1.108   4.432
 3966SOL    HW112434   2.845   1.058   4.470
 3966SOL    HW212435   2.979   1.042   4.402
 3967SOL     OW12436   2.877   0.248   4.693
 3967SOL    HW112437   2.866   0.198   4.612
 3967SOL    HW212438   2.872   0.183   4.763
 3968SOL     OW12439   2.465   1.489   4.205
 3968SOL    HW112440   2.507   1.440   4.135
 3968SOL    HW212441   2.403   1.547   4.160
 3969SOL     OW12442   3.582   0.393   5.096
 3969SOL    HW112443   3.654   0.457   5.096
 3969SOL    HW212444   3.614   0.321   5.042
 3970SOL     OW12445   2.121   1.345   4.011
 3970SOL    HW112446   2.028   1.341   3.990
 3970SOL    HW212447   2.124   1.380   4.100
 3971SOL     OW12448   1.975   1.025   5.445
 3971SOL    HW112449   1.899   1.001   5.497
 3971SOL    HW212450   2.050   0.986   5.490
 3972SOL     OW12451   2.555   0.251   5.224
 3972SOL    HW112452   2.622   0.197   5.184
 3972SOL    HW212453   2.582   0.259   5.316
 3973SOL     OW12454   1.961   0.318   3.715
 3973SOL    HW112455   1.892   0.337   3.778
 3973SOL    HW212456   1.971   0.399   3.665
 3974SOL     OW12457   3.288   0.857   5.122
 3974SOL    HW112458   3.239   0.919   5.069
 3974SOL    HW212459   3.377   0.859   5.086
 3975SOL     OW12460   1.943   0.153   4.064
 3975SOL    HW112461   1.913   0.213   3.996
 3975SOL    HW212462   2.029   0.124   4.034
 3976SOL     OW12463   3.040   1.338   3.841
 3976SOL    HW112464   2.950   1.308   3.844
 3976SOL    HW212465   3.068   1.339   3.933
 3977SOL     OW12466   2.483   0.829   5.157
 3977SOL    HW112467   2.539   0.905   5.143
 3977SOL    HW212468   2.544   0.756   5.167
 3978SOL     OW12469   3.344   1.780   4.704
 3978SOL    HW112470   3.368   1.841   4.633
 3978SOL    HW212471   3.428   1.755   4.742
 3979SOL     OW12472   2.580   0.562   5.429
 3979SOL    HW112473   2.621   0.625   5.487
 3979SOL    HW212474   2.607   0.476   5.462
 3980SOL     OW12475   3.334   1.198   5.355
 3980SOL    HW112476   3.322   1.213   5.449
 3980SOL    HW212477   3.427   1.214   5.340
 3981SOL     OW12478   2.237   1.744   5.291
 3981SOL    HW112479   2.162   1.760   5.235
 3981SOL    HW212480   2.218   1.660   5.334
 3982SOL     OW12481   3.527   0.881   4.983
 3982SOL    HW112482   3.526   0.796   4.939
 3982SOL    HW212483   3.521   0.945   4.912
 3983SOL     OW12484   3.083   0.336   4.168
 3983SOL    HW112485   3.151   0.270   4.159
 3983SOL    HW212486   3.104   0.381   4.250
 3984SOL     OW12487   2.452   0.737   4.394
 3984SOL    HW112488   2.490   0.823   4.380
 3984SOL    HW212489   2.385   0.729   4.326
 3985SOL     OW12490   3.617   0.380   5.366
 3985SOL    HW112491   3.596   0.389   5.273
 3985SOL    HW212492   3.557   0.313   5.398
 3986SOL     OW12493   3.616   0.931   5.238
 3986SOL    HW112494   3.606   1.024   5.255
 3986SOL    HW212495   3.592   0.921   5.145
 3987SOL     OW12496   2.723   1.367   3.760
 3987SOL    HW112497   2.687   1.393   3.844
 3987SOL    HW212498   2.742   1.449   3.715
 3988SOL     OW12499   2.523   1.793   4.667
 3988SOL    HW112500   2.508   1.884   4.639
 3988SOL    HW212501   2.617   1.781   4.659
 3989SOL     OW12502   2.730   0.968   4.579
 3989SOL    HW112503   2.780   0.897   4.618
 3989SOL    HW212504   2.694   1.016   4.653
 3990SOL     OW12505   2.941   0.989   3.813
 3990SOL    HW112506   2.919   1.040   3.735
 3990SOL    HW212507   3.015   0.935   3.786
 3991SOL     OW12508   3.715   1.556   4.566
 3991SOL    HW112509   3.636   1.540   4.514
 3991SOL    HW212510   3.713   1.489   4.634
 3992SOL     OW12511   2.088   1.300   5.583
 3992SOL    HW112512   2.024   1.236   5.551
 3992SOL    HW212513   2.064   1.315   5.674
 3993SOL     OW12514   1.944   1.225   4.389
 3993SOL    HW112515   1.956   1.181   4.472
 3993SOL    HW212516   2.016   1.194   4.334
 3994SOL     OW12517   2.541   1.405   5.348
 3994SOL    HW112518   2.464   1.360   5.385
 3994SOL    HW212519   2.539   1.491   5.389
 3995SOL     OW12520   3.677   0.182   4.968
 3995SOL    HW112521   3.678   0.086   4.976
 3995SOL    HW212522   3.694   0.198   4.875
 3996SOL     OW12523   2.290   0.435   4.249
 3996SOL    HW112524   2.324   0.363   4.195
 3996SOL    HW212525   2.243   0.391   4.320
 3997SOL     OW12526   3.559   1.491   4.821
 3997SOL    HW112527   3.480   1.468   4.772
 3997SOL    HW212528   3.570   1.420   4.884
 3998SOL     OW12529   2.192   0.556   5.018
 3998SOL    HW112530   2.246   0.498   5.072
 3998SOL    HW212531   2.212   0.529   4.928
 3999SOL     OW12532   2.691   1.577   4.401
 3999SOL    HW112533   2.676   1.636   4.327
 3999SOL    HW212534   2.615   1.519   4.401
 4000SOL     OW12535   3.323   0.252   4.835
 4000SOL    HW112536   3.337   0.164   4.870
 4000SOL    HW212537   3.267   0.296   4.899
 4001SOL     OW12538   2.867   0.028   4.871
 4001SOL    HW112539   2.787   3.988   4.836
 4001SOL    HW212540   2.929   3.955   4.879
 4002SOL     OW12541   2.636   1.333   4.039
 4002SOL    HW112542   2.605   1.243   4.047
 4002SOL    HW212543   2.716   1.335   4.091
 4003SOL     OW12544   2.483   1.555   5.009
 4003SOL    HW112545   2.484   1.638   5.058
 4003SOL    HW212546   2.571   1.548   4.972
 4004SOL     OW12547   3.174   0.071   3.883
 4004SOL    HW112548   3.182   3.992   3.830
 4004SOL    HW212549   3.089   0.063   3.927
 4005SOL     OW12550   3.144   0.457   4.410
 4005SOL    HW112551   3.097   0.540   4.405
 4005SOL    HW212552   3.147   0.437   4.503
 4006SOL     OW12553   3.452   0.210   4.591
 4006SOL    HW112554   3.403   0.233   4.670
 4006SOL    HW212555   3.451   0.290   4.538
 4007SOL     OW12556   1.906   1.070   4.029
 4007SOL    HW112557   2.000   1.062   4.013
 4007SOL    HW212558   1.878   0.982   4.054
 4008SOL     OW12559   2.749   1.653   4.063
 4008SOL    HW112560   2.674   1.639   4.005
 4008SOL    HW212561   2.724   1.727   4.118
 4009SOL     OW12562   2.090   0.619   5.707
 4009SOL    HW112563   2.000   0.628   5.738
 4009SOL    HW212564   2.082   0.600   5.614
 4010SOL     OW12565   2.079   0.299   6.577
 4010SOL    HW112566   2.116   0.256   6.654
 4010SOL    HW212567   1.994   0.256   6.564
 4011SOL     OW12568   1.871   0.396   6.220
 4011SOL    HW112569   1.784   0.411   6.257
 4011SOL    HW212570   1.858   0.326   6.156
 4012SOL     OW12571   2.439   1.259   6.774
 4012SOL    HW112572   2.344   1.245   6.767
 4012SOL    HW212573   2.450   1.353   6.760
 4013SOL     OW12574   3.423   1.512   6.294
 4013SOL    HW112575   3.381   1.492   6.377
 4013SOL    HW212576   3.352   1.516   6.230
 4014SOL     OW12577   2.994   0.698   6.285
 4014SOL    HW112578   3.042   0.780   6.271
 4014SOL    HW212579   2.947   0.711   6.367
 4015SOL     OW12580   3.623   0.623   5.813
 4015SOL    HW112581   3.605   0.611   5.719
 4015SOL    HW212582   3.606   0.537   5.851
 4016SOL     OW12583   2.618   1.135   6.617
 4016SOL    HW112584   2.558   1.174   6.680
 4016SOL    HW212585   2.672   1.208   6.586
 4017SOL     OW12586   2.734   0.771   7.410
 4017SOL    HW112587   2.716   0.842   7.471
 4017SOL    HW212588   2.754   0.815   7.327
 4018SOL     OW12589   2.539   1.006   6.232
 4018SOL    HW112590   2.605   0.995   6.300
 4018SOL    HW212591   2.483   1.077   6.264
 4019SOL     OW12592   2.577   1.146   7.391
 4019SOL    HW112593   2.626   1.222   7.422
 4019SOL    HW212594   2.499   1.183   7.350
 4020SOL     OW12595   3.321   1.499   6.944
 4020SOL    HW112596   3.372   1.579   6.955
 4020SOL    HW212597   3.251   1.506   7.010
 4021SOL     OW12598   2.306   0.394   7.081
 4021SOL    HW112599   2.396   0.360   7.079
 4021SOL    HW212600   2.251   0.316   7.088
 4022SOL     OW12601   3.473   0.450   6.322
 4022SOL    HW112602   3.403   0.483   6.265
 4022SOL    HW212603   3.496   0.525   6.377
 4023SOL     OW12604   2.091   1.698   6.054
 4023SOL    HW112605   2.123   1.763   6.116
 4023SOL    HW212606   2.160   1.692   5.988
 4024SOL     OW12607   2.992   1.354   7.290
 4024SOL    HW112608   3.041   1.334   7.370
 4024SOL    HW212609   2.942   1.275   7.272
 4025SOL     OW12610   2.091   1.062   6.530
 4025SOL    HW112611   2.119   0.971   6.528
 4025SOL    HW212612   1.996   1.058   6.521
 4026SOL     OW12613   2.448   1.756   6.996
 4026SOL    HW112614   2.369   1.781   7.045
 4026SOL    HW212615   2.515   1.818   7.025
 4027SOL     OW12616   2.445   0.983   5.721
 4027SOL    HW112617   2.492   1.031   5.652
 4027SOL    HW212618   2.484   1.014   5.803
 4028SOL     OW12619   3.443   0.140   7.043
 4028SOL    HW112620   3.468   0.212   6.986
 4028SOL    HW212621   3.409   0.182   7.122
 4029SOL     OW12622   1.977   0.654   6.142
 4029SOL    HW112623   1.952   0.565   6.167
 4029SOL    HW212624   1.971   0.704   6.224
 4030SOL     OW12625   3.702   1.758   5.921
 4030SOL    HW112626   3.770   1.733   5.984
 4030SOL    HW212627   3.721   1.849   5.900
 4031SOL     OW12628   1.875   1.597   5.736
 4031SOL    HW112629   1.873   1.502   5.726
 4031SOL    HW212630   1.826   1.614   5.816
 4032SOL     OW12631   3.549   0.918   6.230
 4032SOL    HW112632   3.633   0.875   6.213
 4032SOL    HW212633   3.531   0.968   6.151
 4033SOL     OW12634   3.504   1.105   6.017
 4033SOL    HW112635   3.589   1.111   5.973
 4033SOL    HW212636   3.509   1.168   6.089
 4034SOL     OW12637   1.990   0.746   7.164
 4034SOL    HW112638   2.084   0.767   7.165
 4034SOL    HW212639   1.948   0.828   7.190
 4035SOL     OW12640   3.149   1.230   7.018
 4035SOL    HW112641   3.181   1.169   6.952
 4035SOL    HW212642   3.214   1.227   7.088
 4036SOL     OW12643   2.681   0.004   6.103
 4036SOL    HW112644   2.727   0.084   6.078
 4036SOL    HW212645   2.588   0.028   6.103
 4037SOL     OW12646   2.046   0.947   6.850
 4037SOL    HW112647   2.134   0.914   6.832
 4037SOL    HW212648   1.989   0.899   6.790
 4038SOL     OW12649   3.391   0.994   5.786
 4038SOL    HW112650   3.321   0.938   5.819
 4038SOL    HW212651   3.432   1.030   5.865
 4039SOL     OW12652   3.053   1.785   7.218
 4039SOL    HW112653   3.046   1.857   7.155
 4039SOL    HW212654   3.074   1.708   7.164
 4040SOL     OW12655   2.218   0.253   7.421
 4040SOL    HW112656   2.262   0.338   7.418
 4040SOL    HW212657   2.125   0.274   7.427
 4041SOL     OW12658   3.330   1.418   6.539
 4041SOL    HW112659   3.262   1.432   6.604
 4041SOL    HW212660   3.318   1.327   6.511
 4042SOL     OW12661   3.516   1.743   6.165
 4042SOL    HW112662   3.500   1.712   6.076
 4042SOL    HW212663   3.494   1.669   6.221
 4043SOL     OW12664   2.457   0.721   5.853
 4043SOL    HW112665   2.463   0.803   5.805
 4043SOL    HW212666   2.394   0.737   5.922
 4044SOL     OW12667   3.137   0.367   6.527
 4044SOL    HW112668   3.050   0.328   6.533
 4044SOL    HW212669   3.194   0.305   6.572
 4045SOL     OW12670   3.440   1.671   5.895
 4045SOL    HW112671   3.531   1.701   5.889
 4045SOL    HW212672   3.413   1.655   5.805
 4046SOL     OW12673   2.657   0.616   7.038
 4046SOL    HW112674   2.629   0.591   7.126
 4046SOL    HW212675   2.618   0.551   6.980
 4047SOL     OW12676   3.254   0.477   7.263
 4047SOL    HW112677   3.260   0.522   7.348
 4047SOL    HW212678   3.312   0.401   7.273
 4048SOL     OW12679   2.815   0.887   7.169
 4048SOL    HW112680   2.870   0.817   7.133
 4048SOL    HW212681   2.768   0.922   7.094
 4049SOL     OW12682   2.854   0.403   6.825
 4049SOL    HW112683   2.769   0.424   6.864
 4049SOL    HW212684   2.833   0.375   6.736
 4050SOL     OW12685   2.914   0.698   6.011
 4050SOL    HW112686   2.930   0.692   6.106
 4050SOL    HW212687   2.831   0.653   5.998
 4051SOL     OW12688   1.951   0.813   6.360
 4051SOL    HW112689   2.032   0.806   6.409
 4051SOL    HW212690   1.904   0.886   6.401
 4052SOL     OW12691   2.757   0.352   5.785
 4052SOL    HW112692   2.798   0.411   5.722
 4052SOL    HW212693   2.751   0.268   5.739
 4053SOL     OW12694   3.570   0.574   7.415
 4053SOL    HW112695   3.533   0.649   7.368
 4053SOL    HW212696   3.595   0.513   7.347
 4054SOL     OW12697   3.239   1.141   6.127
 4054SOL    HW112698   3.318   1.130   6.075
 4054SOL    HW212699   3.186   1.204   6.077
 4055SOL     OW12700   2.419   0.198   6.467
 4055SOL    HW112701   2.423   0.218   6.561
 4055SOL    HW212702   2.416   0.284   6.425
 4056SOL     OW12703   2.866   1.443   6.053
 4056SOL    HW112704   2.831   1.517   6.004
 4056SOL    HW212705   2.867   1.473   6.144
 4057SOL     OW12706   2.215   1.796   6.420
 4057SOL    HW112707   2.251   1.707   6.429
 4057SOL    HW212708   2.289   1.853   6.441
 4058SOL     OW12709   3.666   1.062   6.453
 4058SOL    HW112710   3.612   1.038   6.377
 4058SOL    HW212711   3.605   1.065   6.526
 4059SOL     OW12712   3.090   1.536   7.097
 4059SOL    HW112713   3.065   1.463   7.154
 4059SOL    HW212714   3.011   1.553   7.045
 4060SOL     OW12715   2.180   0.959   5.836
 4060SOL    HW112716   2.264   0.979   5.794
 4060SOL    HW212717   2.152   0.876   5.796
 4061SOL     OW12718   3.342   0.744   6.314
 4061SOL    HW112719   3.335   0.704   6.401
 4061SOL    HW212720   3.418   0.802   6.321
 4062SOL     OW12721   2.986   1.776   5.817
 4062SOL    HW112722   2.908   1.739   5.857
 4062SOL    HW212723   3.009   1.715   5.748
 4063SOL     OW12724   2.033   0.275   7.084
 4063SOL    HW112725   1.977   0.352   7.074
 4063SOL    HW212726   2.038   0.261   7.179
 4064SOL     OW12727   3.488   1.383   5.672
 4064SOL    HW112728   3.445   1.467   5.658
 4064SOL    HW212729   3.420   1.318   5.654
 4065SOL     OW12730   2.323   1.727   5.912
 4065SOL    HW112731   2.361   1.795   5.967
 4065SOL    HW212732   2.391   1.707   5.848
 4066SOL     OW12733   3.297   0.168   5.988
 4066SOL    HW112734   3.253   0.095   5.944
 4066SOL    HW212735   3.372   0.128   6.032
 4067SOL     OW12736   2.190   1.795   6.800
 4067SOL    HW112737   2.194   1.728   6.868
 4067SOL    HW212738   2.119   1.767   6.743
 4068SOL     OW12739   2.256   0.695   6.060
 4068SOL    HW112740   2.275   0.602   6.073
 4068SOL    HW212741   2.162   0.703   6.078
 4069SOL     OW12742   3.392   0.230   7.313
 4069SOL    HW112743   3.386   0.255   7.405
 4069SOL    HW212744   3.371   0.137   7.312
 4070SOL     OW12745   2.505   0.132   5.694
 4070SOL    HW112746   2.531   0.048   5.733
 4070SOL    HW212747   2.442   0.107   5.625
 4071SOL     OW12748   2.638   0.282   7.353
 4071SOL    HW112749   2.707   0.216   7.357
 4071SOL    HW212750   2.579   0.258   7.425
 4072SOL     OW12751   3.202   0.587   7.016
 4072SOL    HW112752   3.233   0.559   7.102
 4072SOL    HW212753   3.236   0.676   7.006
 4073SOL     OW12754   2.791   0.511   6.487
 4073SOL    HW112755   2.767   0.504   6.395
 4073SOL    HW212756   2.818   0.422   6.512
 4074SOL     OW12757   2.407   0.057   6.077
 4074SOL    HW112758   2.333   0.062   6.137
 4074SOL    HW212759   2.402   0.138   6.026
 4075SOL     OW12760   3.289   1.199   5.627
 4075SOL    HW112761   3.319   1.124   5.678
 4075SOL    HW212762   3.204   1.221   5.664
 4076SOL     OW12763   2.190   0.044   5.796
 4076SOL    HW112764   2.201   0.111   5.729
 4076SOL    HW212765   2.273   0.043   5.844
 4077SOL     OW12766   2.803   0.249   6.047
 4077SOL    HW112767   2.778   0.290   5.964
 4077SOL    HW212768   2.899   0.253   6.047
 4078SOL     OW12769   2.942   0.682   7.046
 4078SOL    HW112770   2.872   0.617   7.051
 4078SOL    HW212771   3.022   0.631   7.039
 4079SOL     OW12772   3.086   1.561   6.366
 4079SOL    HW112773   3.110   1.631   6.305
 4079SOL    HW212774   3.138   1.578   6.445
 4080SOL     OW12775   3.139   1.790   6.190
 4080SOL    HW112776   3.188   1.847   6.131
 4080SOL    HW212777   3.074   1.848   6.231
 4081SOL     OW12778   2.884   0.544   5.613
 4081SOL    HW112779   2.840   0.627   5.593
 4081SOL    HW212780   2.947   0.566   5.681
 4082SOL     OW12781   1.943   0.549   6.981
 4082SOL    HW112782   2.034   0.551   6.951
 4082SOL    HW212783   1.936   0.624   7.041
 4083SOL     OW12784   2.426   0.231   6.747
 4083SOL    HW112785   2.450   0.139   6.757
 4083SOL    HW212786   2.336   0.236   6.779
 4084SOL     OW12787   2.732   0.460   6.225
 4084SOL    HW112788   2.684   0.515   6.162
 4084SOL    HW212789   2.752   0.381   6.176
 4085SOL     OW12790   2.858   0.040   6.366
 4085SOL    HW112791   2.822   0.068   6.282
 4085SOL    HW212792   2.868   3.945   6.357
 4086SOL     OW12793   3.303   1.160   6.443
 4086SOL    HW112794   3.227   1.101   6.443
 4086SOL    HW212795   3.325   1.171   6.351
 4087SOL     OW12796   3.326   0.607   6.561
 4087SOL    HW112797   3.274   0.527   6.566
 4087SOL    HW212798   3.387   0.600   6.635
 4088SOL     OW12799   3.723   0.824   5.960
 4088SOL    HW112800   3.764   0.766   6.025
 4088SOL    HW212801   3.684   0.764   5.897
 4089SOL     OW12802   2.353   1.415   5.739
 4089SOL    HW112803   2.280   1.391   5.796
 4089SOL    HW212804   2.332   1.375   5.655
 4090SOL     OW12805   3.529   1.266   6.230
 4090SOL    HW112806   3.624   1.270   6.240
 4090SOL    HW212807   3.498   1.354   6.252
 4091SOL     OW12808   3.257   0.574   5.655
 4091SOL    HW112809   3.193   0.556   5.724
 4091SOL    HW212810   3.342   0.559   5.696
 4092SOL     OW12811   2.389   0.266   5.903
 4092SOL    HW112812   2.443   0.227   5.834
 4092SOL    HW212813   2.361   0.350   5.866
 4093SOL     OW12814   3.614   1.234   7.155
 4093SOL    HW112815   3.701   1.199   7.137
 4093SOL    HW212816   3.631   1.324   7.184
 4094SOL     OW12817   2.927   1.338   6.903
 4094SOL    HW112818   2.849   1.327   6.957
 4094SOL    HW212819   2.999   1.306   6.958
 4095SOL     OW12820   3.469   1.628   7.243
 4095SOL    HW112821   3.459   1.662   7.154
 4095SOL    HW212822   3.550   1.577   7.241
 4096SOL     OW12823   2.980   1.186   6.686
 4096SOL    HW112824   2.944   1.240   6.756
 4096SOL    HW212825   2.961   1.234   6.606
 4097SOL     OW12826   3.491   1.096   6.661
 4097SOL    HW112827   3.482   1.158   6.734
 4097SOL    HW212828   3.414   1.113   6.606
 4098SOL     OW12829   2.774   0.115   6.988
 4098SOL    HW112830   2.794   0.088   6.898
 4098SOL    HW212831   2.855   0.157   7.018
 4099SOL     OW12832   2.847   1.115   7.307
 4099SOL    HW112833   2.754   1.124   7.329
 4099SOL    HW212834   2.850   1.038   7.250
 4100SOL     OW12835   2.567   1.061   5.955
 4100SOL    HW112836   2.551   1.044   6.048
 4100SOL    HW212837   2.645   1.009   5.935
 4101SOL     OW12838   2.285   0.813   6.835
 4101SOL    HW112839   2.351   0.823   6.904
 4101SOL    HW212840   2.248   0.726   6.851
 4102SOL     OW12841   3.128   0.375   6.862
 4102SOL    HW112842   3.162   0.453   6.906
 4102SOL    HW212843   3.041   0.401   6.831
 4103SOL     OW12844   1.917   1.623   6.942
 4103SOL    HW112845   1.852   1.602   6.874
 4103SOL    HW212846   1.990   1.563   6.925
 4104SOL     OW12847   2.222   1.114   6.078
 4104SOL    HW112848   2.231   1.177   6.007
 4104SOL    HW212849   2.217   1.029   6.034
 4105SOL     OW12850   2.417   0.534   6.443
 4105SOL    HW112851   2.431   0.593   6.369
 4105SOL    HW212852   2.482   0.561   6.508
 4106SOL     OW12853   3.110   1.346   5.975
 4106SOL    HW112854   3.165   1.419   6.006
 4106SOL    HW212855   3.022   1.367   6.007
 4107SOL     OW12856   3.145   1.459   6.735
 4107SOL    HW112857   3.203   1.463   6.811
 4107SOL    HW212858   3.071   1.406   6.764
 4108SOL     OW12859   3.435   0.632   6.071
 4108SOL    HW112860   3.394   0.688   6.136
 4108SOL    HW212861   3.482   0.693   6.013
 4109SOL     OW12862   2.221   1.532   6.919
 4109SOL    HW112863   2.213   1.475   6.843
 4109SOL    HW212864   2.314   1.556   6.921
 4110SOL     OW12865   2.278   0.744   7.189
 4110SOL    HW112866   2.338   0.790   7.130
 4110SOL    HW212867   2.320   0.660   7.205
 4111SOL     OW12868   3.465   0.779   7.269
 4111SOL    HW112869   3.379   0.821   7.262
 4111SOL    HW212870   3.518   0.820   7.201
 4112SOL     OW12871   2.879   0.128   7.365
 4112SOL    HW112872   2.924   0.203   7.326
 4112SOL    HW212873   2.861   0.070   7.292
 4113SOL     OW12874   2.349   0.034   7.349
 4113SOL    HW112875   2.353   0.045   7.254
 4113SOL    HW212876   2.290   0.103   7.379
 4114SOL     OW12877   2.446   0.872   6.617
 4114SOL    HW112878   2.478   0.962   6.618
 4114SOL    HW212879   2.389   0.865   6.693
 4115SOL     OW12880   3.218   0.858   6.615
 4115SOL    HW112881   3.134   0.850   6.570
 4115SOL    HW212882   3.258   0.772   6.606
 4116SOL     OW12883   3.064   0.536   5.845
 4116SOL    HW112884   3.071   0.457   5.899
 4116SOL    HW212885   3.021   0.600   5.902
 4117SOL     OW12886   2.163   0.210   6.829
 4117SOL    HW112887   2.121   0.239   6.910
 4117SOL    HW212888   2.150   0.115   6.828
 4118SOL     OW12889   2.586   0.632   6.640
 4118SOL    HW112890   2.661   0.619   6.582
 4118SOL    HW212891   2.556   0.721   6.620
 4119SOL     OW12892   3.594   0.957   7.447
 4119SOL    HW112893   3.552   0.897   7.386
 4119SOL    HW212894   3.530   0.970   7.517
 4120SOL     OW12895   2.184   0.056   6.236
 4120SOL    HW112896   2.164   0.149   6.247
 4120SOL    HW212897   2.147   0.014   6.313
 4121SOL     OW12898   3.473   0.391   5.966
 4121SOL    HW112899   3.437   0.322   6.022
 4121SOL    HW212900   3.451   0.472   6.011
 4122SOL     OW12901   2.892   0.759   6.545
 4122SOL    HW112902   2.885   0.777   6.639
 4122SOL    HW212903   2.864   0.668   6.537
 4123SOL     OW12904   3.706   1.500   7.185
 4123SOL    HW112905   3.728   1.529   7.097
 4123SOL    HW212906   3.787   1.512   7.235
 4124SOL     OW12907   2.220   0.921   7.396
 4124SOL    HW112908   2.302   0.932   7.442
 4124SOL    HW212909   2.239   0.858   7.326
 4125SOL     OW12910   3.365   0.274   5.721
 4125SOL    HW112911   3.291   0.215   5.732
 4125SOL    HW212912   3.378   0.313   5.807
 4126SOL     OW12913   3.151   0.826   5.615
 4126SOL    HW112914   3.194   0.741   5.618
 4126SOL    HW212915   3.184   0.866   5.534
 4127SOL     OW12916   2.930   1.328   6.454
 4127SOL    HW112917   2.927   1.260   6.387
 4127SOL    HW212918   2.983   1.398   6.415
 4128SOL     OW12919   2.173   0.800   6.528
 4128SOL    HW112920   2.266   0.823   6.525
 4128SOL    HW212921   2.171   0.711   6.563
 4129SOL     OW12922   2.200   0.533   6.601
 4129SOL    HW112923   2.158   0.448   6.585
 4129SOL    HW212924   2.276   0.534   6.542
 4130SOL     OW12925   2.995   0.381   7.281
 4130SOL    HW112926   2.946   0.436   7.343
 4130SOL    HW212927   3.082   0.421   7.276
 4131SOL     OW12928   3.013   0.225   7.067
 4131SOL    HW112929   3.004   0.280   7.145
 4131SOL    HW212930   3.037   0.287   6.998
 4132SOL     OW12931   1.870   1.318   5.779
 4132SOL    HW112932   1.782   1.331   5.744
 4132SOL    HW212933   1.868   1.228   5.814
 4133SOL     OW12934   1.932   1.746   6.514
 4133SOL    HW112935   1.930   1.696   6.433
 4133SOL    HW212936   1.987   1.822   6.495
 4134SOL     OW12937   2.840   0.789   6.812
 4134SOL    HW112938   2.897   0.769   6.886
 4134SOL    HW212939   2.756   0.748   6.834
 4135SOL     OW12940   1.895   0.546   6.703
 4135SOL    HW112941   1.970   0.521   6.649
 4135SOL    HW212942   1.928   0.547   6.792
 4136SOL     OW12943   2.065   0.525   7.299
 4136SOL    HW112944   2.135   0.504   7.237
 4136SOL    HW212945   2.019   0.600   7.260
 4137SOL     OW12946   3.240   0.937   7.244
 4137SOL    HW112947   3.263   1.030   7.241
 4137SOL    HW212948   3.235   0.911   7.152
 4138SOL     OW12949   2.679   0.572   5.949
 4138SOL    HW112950   2.684   0.497   5.890
 4138SOL    HW212951   2.604   0.623   5.916
 4139SOL     OW12952   3.502   0.602   6.770
 4139SOL    HW112953   3.491   0.541   6.843
 4139SOL    HW212954   3.588   0.581   6.734
 4140SOL     OW12955   2.568   0.454   6.843
 4140SOL    HW112956   2.517   0.377   6.818
 4140SOL    HW212957   2.560   0.513   6.769
 4141SOL     OW12958   2.846   1.641   7.002
 4141SOL    HW112959   2.821   1.680   6.919
 4141SOL    HW212960   2.812   1.702   7.068
 4142SOL     OW12961   2.326   0.494   5.770
 4142SOL    HW112962   2.383   0.567   5.794
 4142SOL    HW212963   2.240   0.534   5.757
 4143SOL     OW12964   2.020   1.129   7.041
 4143SOL    HW112965   2.006   1.077   7.121
 4143SOL    HW212966   2.025   1.064   6.971
 4144SOL     OW12967   3.183   1.045   6.809
 4144SOL    HW112968   3.209   0.983   6.741
 4144SOL    HW212969   3.111   1.095   6.770
 4145SOL     OW12970   3.176   0.854   5.891
 4145SOL    HW112971   3.099   0.828   5.943
 4145SOL    HW212972   3.148   0.843   5.800
 4146SOL     OW12973   3.641   1.742   6.742
 4146SOL    HW112974   3.696   1.769   6.669
 4146SOL    HW212975   3.612   1.654   6.719
 4147SOL     OW12976   3.112   1.736   6.696
 4147SOL    HW112977   3.194   1.752   6.651
 4147SOL    HW212978   3.113   1.642   6.715
 4148SOL     OW12979   3.552   0.120   6.074
 4148SOL    HW112980   3.633   0.135   6.025
 4148SOL    HW212981   3.554   0.027   6.095
 4149SOL     OW12982   3.253   1.564   6.070
 4149SOL    HW112983   3.314   1.597   6.003
 4149SOL    HW212984   3.205   1.642   6.099
 4150SOL     OW12985   2.023   1.743   7.443
 4150SOL    HW112986   1.967   1.694   7.382
 4150SOL    HW212987   1.990   1.833   7.438
 4151SOL     OW12988   3.139   0.926   6.256
 4151SOL    HW112989   3.214   0.867   6.265
 4151SOL    HW212990   3.173   0.999   6.204
 4152SOL     OW12991   2.671   1.277   7.019
 4152SOL    HW112992   2.661   1.308   7.109
 4152SOL    HW212993   2.581   1.276   6.985
 4153SOL     OW12994   2.534   1.620   5.743
 4153SOL    HW112995   2.541   1.630   5.648
 4153SOL    HW212996   2.480   1.542   5.755
 4154SOL     OW12997   3.484   1.727   6.979
 4154SOL    HW112998   3.537   1.731   6.899
 4154SOL    HW212999   3.471   1.818   7.004
 4155SOL     OW13000   3.703   0.181   6.557
 4155SOL    HW113001   3.727   0.097   6.518
 4155SOL    HW213002   3.617   0.201   6.520
 4156SOL     OW13003   2.126   0.316   6.301
 4156SOL    HW113004   2.040   0.351   6.279
 4156SOL    HW213005   2.125   0.307   6.396
 4157SOL     OW13006   3.071   1.604   5.617
 4157SOL    HW113007   3.059   1.513   5.645
 4157SOL    HW213008   3.004   1.617   5.549
 4158SOL     OW13009   2.690   1.007   6.956
 4158SOL    HW113010   2.736   0.994   6.873
 4158SOL    HW213011   2.693   1.101   6.970
 4159SOL     OW13012   2.777   0.910   5.877
 4159SOL    HW113013   2.838   0.944   5.811
 4159SOL    HW213014   2.827   0.842   5.922
 4160SOL     OW13015   3.352   1.627   5.629
 4160SOL    HW113016   3.258   1.619   5.615
 4160SOL    HW213017   3.389   1.633   5.541
 4161SOL     OW13018   2.243   1.282   7.038
 4161SOL    HW113019   2.214   1.370   7.016
 4161SOL    HW213020   2.166   1.227   7.024
 4162SOL     OW13021   3.464   1.280   6.864
 4162SOL    HW113022   3.533   1.274   6.931
 4162SOL    HW213023   3.406   1.349   6.896
 4163SOL     OW13024   2.914   1.108   6.291
 4163SOL    HW113025   2.843   1.056   6.329
 4163SOL    HW213026   2.978   1.043   6.262
 4164SOL     OW13027   2.876   0.248   6.555
 4164SOL    HW113028   2.866   0.198   6.474
 4164SOL    HW213029   2.872   0.183   6.625
 4165SOL     OW13030   3.582   0.393   6.959
 4165SOL    HW113031   3.654   0.457   6.958
 4165SOL    HW213032   3.614   0.321   6.904
 4166SOL     OW13033   2.122   1.353   5.889
 4166SOL    HW113034   2.029   1.347   5.868
 4166SOL    HW213035   2.125   1.406   5.968
 4167SOL     OW13036   1.966   0.994   7.287
 4167SOL    HW113037   1.893   0.991   7.349
 4167SOL    HW213038   2.044   0.984   7.342
 4168SOL     OW13039   2.554   0.252   7.086
 4168SOL    HW113040   2.622   0.198   7.045
 4168SOL    HW213041   2.582   0.259   7.178
 4169SOL     OW13042   1.961   0.318   5.577
 4169SOL    HW113043   1.891   0.337   5.640
 4169SOL    HW213044   1.971   0.399   5.527
 4170SOL     OW13045   3.288   0.857   6.985
 4170SOL    HW113046   3.238   0.919   6.931
 4170SOL    HW213047   3.376   0.860   6.948
 4171SOL     OW13048   1.943   0.153   5.926
 4171SOL    HW113049   1.913   0.213   5.858
 4171SOL    HW213050   2.029   0.124   5.896
 4172SOL     OW13051   3.040   1.338   5.703
 4172SOL    HW113052   2.949   1.308   5.706
 4172SOL    HW213053   3.068   1.338   5.795
 4173SOL     OW13054   2.484   0.830   7.021
 4173SOL    HW113055   2.540   0.906   7.003
 4173SOL    HW213056   2.544   0.757   7.029
 4174SOL     OW13057   3.350   1.781   6.562
 4174SOL    HW113058   3.376   1.841   6.492
 4174SOL    HW213059   3.433   1.753   6.601
 4175SOL     OW13060   2.580   0.561   7.291
 4175SOL    HW113061   2.622   0.623   7.351
 4175SOL    HW213062   2.607   0.475   7.323
 4176SOL     OW13063   3.338   1.196   7.219
 4176SOL    HW113064   3.328   1.212   7.313
 4176SOL    HW213065   3.430   1.213   7.202
 4177SOL     OW13066   2.220   1.747   7.158
 4177SOL    HW113067   2.124   1.739   7.152
 4177SOL    HW213068   2.248   1.660   7.189
 4178SOL     OW13069   3.527   0.881   6.845
 4178SOL    HW113070   3.525   0.796   6.801
 4178SOL    HW213071   3.520   0.945   6.774
 4179SOL     OW13072   3.083   0.336   6.030
 4179SOL    HW113073   3.151   0.270   6.021
 4179SOL    HW213074   3.104   0.381   6.112
 4180SOL     OW13075   2.452   0.738   6.256
 4180SOL    HW113076   2.487   0.826   6.243
 4180SOL    HW213077   2.384   0.729   6.188
 4181SOL     OW13078   3.617   0.381   7.228
 4181SOL    HW113079   3.596   0.389   7.135
 4181SOL    HW213080   3.557   0.313   7.260
 4182SOL     OW13081   3.616   0.931   7.099
 4182SOL    HW113082   3.607   1.024   7.116
 4182SOL    HW213083   3.592   0.920   7.007
 4183SOL     OW13084   2.724   1.364   5.614
 4183SOL    HW113085   2.694   1.377   5.704
 4183SOL    HW213086   2.738   1.453   5.581
 4184SOL     OW13087   2.729   0.963   6.435
 4184SOL    HW113088   2.782   0.894   6.475
 4184SOL    HW213089   2.693   1.012   6.509
 4185SOL     OW13090   2.941   0.988   5.676
 4185SOL    HW113091   2.918   1.040   5.599
 4185SOL    HW213092   3.015   0.935   5.648
 4186SOL     OW13093   3.714   1.557   6.428
 4186SOL    HW113094   3.636   1.541   6.376
 4186SOL    HW213095   3.712   1.490   6.496
 4187SOL     OW13096   3.677   0.181   6.830
 4187SOL    HW113097   3.678   0.086   6.838
 4187SOL    HW213098   3.694   0.198   6.738
 4188SOL     OW13099   2.290   0.434   6.111
 4188SOL    HW113100   2.324   0.363   6.057
 4188SOL    HW213101   2.243   0.391   6.182
 4189SOL     OW13102   3.559   1.491   6.683
 4189SOL    HW113103   3.481   1.468   6.634
 4189SOL    HW213104   3.569   1.419   6.746
 4190SOL     OW13105   2.192   0.555   6.880
 4190SOL    HW113106   2.246   0.497   6.934
 4190SOL    HW213107   2.212   0.529   6.790
 4191SOL     OW13108   3.324   0.252   6.697
 4191SOL    HW113109   3.336   0.164   6.731
 4191SOL    HW213110   3.267   0.295   6.761
 4192SOL     OW13111   2.866   0.028   6.733
 4192SOL    HW113112   2.787   3.988   6.698
 4192SOL    HW213113   2.928   3.955   6.741
 4193SOL     OW13114   2.658   1.328   5.881
 4193SOL    HW113115   2.608   1.249   5.901
 4193SOL    HW213116   2.722   1.335   5.951
 4194SOL     OW13117   3.174   0.071   5.746
 4194SOL    HW113118   3.181   3.992   5.692
 4194SOL    HW213119   3.089   0.063   5.789
 4195SOL     OW13120   3.144   0.457   6.272
 4195SOL    HW113121   3.097   0.540   6.267
 4195SOL    HW213122   3.147   0.437   6.365
 4196SOL     OW13123   3.452   0.211   6.453
 4196SOL    HW113124   3.404   0.234   6.532
 4196SOL    HW213125   3.451   0.290   6.400
 4197SOL     OW13126   1.905   1.067   5.887
 4197SOL    HW113127   2.000   1.064   5.876
 4197SOL    HW213128   1.881   0.978   5.913
 4198SOL     OW13129   2.751   1.655   5.920
 4198SOL    HW113130   2.678   1.637   5.860
 4198SOL    HW213131   2.712   1.705   5.991
 4199SOL     OW13132   2.091   0.619   7.569
 4199SOL    HW113133   2.001   0.628   7.600
 4199SOL    HW213134   2.081   0.599   7.475
 4200SOL     OW13135   2.079   0.300   8.439
 4200SOL    HW113136   2.116   0.257   8.516
 4200SOL    HW213137   1.994   0.256   8.426
 4201SOL     OW13138   1.871   0.396   8.083
 4201SOL    HW113139   1.784   0.411   8.119
 4201SOL    HW213140   1.857   0.327   8.017
 4202SOL     OW13141   2.429   1.290   8.624
 4202SOL    HW113142   2.342   1.294   8.584
 4202SOL    HW213143   2.444   1.379   8.657
 4203SOL     OW13144   3.424   1.512   8.155
 4203SOL    HW113145   3.382   1.492   8.239
 4203SOL    HW213146   3.352   1.516   8.093
 4204SOL     OW13147   2.994   0.698   8.146
 4204SOL    HW113148   3.042   0.781   8.134
 4204SOL    HW213149   2.947   0.711   8.228
 4205SOL     OW13150   3.621   0.623   7.675
 4205SOL    HW113151   3.604   0.612   7.582
 4205SOL    HW213152   3.607   0.536   7.712
 4206SOL     OW13153   2.616   1.142   8.491
 4206SOL    HW113154   2.547   1.176   8.548
 4206SOL    HW213155   2.652   1.219   8.447
 4207SOL     OW13156   2.731   0.771   9.271
 4207SOL    HW113157   2.717   0.842   9.334
 4207SOL    HW213158   2.754   0.816   9.190
 4208SOL     OW13159   2.549   1.000   8.095
 4208SOL    HW113160   2.614   0.990   8.165
 4208SOL    HW213161   2.479   1.051   8.134
 4209SOL     OW13162   2.574   1.150   9.261
 4209SOL    HW113163   2.621   1.228   9.290
 4209SOL    HW213164   2.492   1.184   9.226
 4210SOL     OW13165   2.192   1.419   8.516
 4210SOL    HW113166   2.117   1.385   8.468
 4210SOL    HW213167   2.239   1.473   8.453
 4211SOL     OW13168   3.321   1.501   8.804
 4211SOL    HW113169   3.375   1.580   8.813
 4211SOL    HW213170   3.258   1.506   8.875
 4212SOL     OW13171   2.306   0.394   8.941
 4212SOL    HW113172   2.396   0.361   8.940
 4212SOL    HW213173   2.252   0.316   8.949
 4213SOL     OW13174   3.473   0.450   8.184
 4213SOL    HW113175   3.403   0.483   8.127
 4213SOL    HW213176   3.496   0.524   8.239
 4214SOL     OW13177   2.125   1.710   7.956
 4214SOL    HW113178   2.137   1.793   8.002
 4214SOL    HW213179   2.168   1.723   7.872
 4215SOL     OW13180   2.999   1.342   9.141
 4215SOL    HW113181   3.040   1.337   9.228
 4215SOL    HW213182   2.946   1.262   9.135
 4216SOL     OW13183   2.130   1.437   8.024
 4216SOL    HW113184   2.112   1.528   8.003
 4216SOL    HW213185   2.043   1.398   8.038
 4217SOL     OW13186   2.124   1.091   8.341
 4217SOL    HW113187   2.117   1.004   8.379
 4217SOL    HW213188   2.065   1.145   8.393
 4218SOL     OW13189   2.471   1.793   8.878
 4218SOL    HW113190   2.391   1.776   8.928
 4218SOL    HW213191   2.495   1.882   8.901
 4219SOL     OW13192   2.446   0.981   7.579
 4219SOL    HW113193   2.495   1.028   7.512
 4219SOL    HW213194   2.484   1.010   7.662
 4220SOL     OW13195   3.443   0.140   8.905
 4220SOL    HW113196   3.468   0.213   8.848
 4220SOL    HW213197   3.409   0.182   8.984
 4221SOL     OW13198   1.980   0.653   8.010
 4221SOL    HW113199   1.952   0.565   8.034
 4221SOL    HW213200   1.971   0.704   8.090
 4222SOL     OW13201   3.701   1.757   7.785
 4222SOL    HW113202   3.771   1.733   7.846
 4222SOL    HW213203   3.720   1.848   7.762
 4223SOL     OW13204   3.549   0.917   8.093
 4223SOL    HW113205   3.634   0.875   8.077
 4223SOL    HW213206   3.533   0.967   8.013
 4224SOL     OW13207   3.504   1.105   7.879
 4224SOL    HW113208   3.589   1.111   7.835
 4224SOL    HW213209   3.510   1.168   7.951
 4225SOL     OW13210   1.985   0.749   9.029
 4225SOL    HW113211   2.076   0.779   9.034
 4225SOL    HW213212   1.933   0.829   9.036
 4226SOL     OW13213   2.471   1.391   8.169
 4226SOL    HW113214   2.438   1.304   8.193
 4226SOL    HW213215   2.419   1.415   8.092
 4227SOL     OW13216   3.150   1.238   8.870
 4227SOL    HW113217   3.182   1.171   8.810
 4227SOL    HW213218   3.208   1.233   8.946
 4228SOL     OW13219   2.681   0.004   7.965
 4228SOL    HW113220   2.727   0.084   7.940
 4228SOL    HW213221   2.588   0.028   7.965
 4229SOL     OW13222   2.051   0.963   8.722
 4229SOL    HW113223   2.137   0.923   8.707
 4229SOL    HW213224   1.990   0.913   8.669
 4230SOL     OW13225   3.390   0.995   7.648
 4230SOL    HW113226   3.321   0.938   7.682
 4230SOL    HW213227   3.433   1.030   7.726
 4231SOL     OW13228   3.046   1.808   9.071
 4231SOL    HW113229   3.057   1.867   8.996
 4231SOL    HW213230   3.064   1.721   9.035
 4232SOL     OW13231   2.218   0.254   9.282
 4232SOL    HW113232   2.262   0.339   9.281
 4232SOL    HW213233   2.125   0.275   9.288
 4233SOL     OW13234   3.327   1.420   8.398
 4233SOL    HW113235   3.261   1.435   8.465
 4233SOL    HW213236   3.316   1.329   8.372
 4234SOL     OW13237   3.515   1.744   8.028
 4234SOL    HW113238   3.502   1.712   7.939
 4234SOL    HW213239   3.495   1.669   8.084
 4235SOL     OW13240   2.457   0.721   7.716
 4235SOL    HW113241   2.459   0.803   7.667
 4235SOL    HW213242   2.392   0.736   7.785
 4236SOL     OW13243   3.137   0.367   8.389
 4236SOL    HW113244   3.050   0.328   8.395
 4236SOL    HW213245   3.194   0.306   8.434
 4237SOL     OW13246   3.440   1.669   7.758
 4237SOL    HW113247   3.531   1.700   7.753
 4237SOL    HW213248   3.415   1.653   7.667
 4238SOL     OW13249   2.658   0.616   8.900
 4238SOL    HW113250   2.629   0.591   8.988
 4238SOL    HW213251   2.618   0.551   8.843
 4239SOL     OW13252   3.254   0.476   9.125
 4239SOL    HW113253   3.259   0.521   9.210
 4239SOL    HW213254   3.312   0.401   9.135
 4240SOL     OW13255   2.815   0.887   9.032
 4240SOL    HW113256   2.870   0.818   8.995
 4240SOL    HW213257   2.767   0.922   8.957
 4241SOL     OW13258   2.854   0.403   8.687
 4241SOL    HW113259   2.770   0.425   8.727
 4241SOL    HW213260   2.832   0.374   8.599
 4242SOL     OW13261   2.914   0.699   7.873
 4242SOL    HW113262   2.930   0.692   7.967
 4242SOL    HW213263   2.831   0.653   7.859
 4243SOL     OW13264   1.949   0.821   8.225
 4243SOL    HW113265   2.030   0.814   8.276
 4243SOL    HW213266   1.906   0.899   8.259
 4244SOL     OW13267   2.757   0.352   7.648
 4244SOL    HW113268   2.798   0.410   7.584
 4244SOL    HW213269   2.749   0.268   7.602
 4245SOL     OW13270   3.571   0.574   9.277
 4245SOL    HW113271   3.533   0.648   9.230
 4245SOL    HW213272   3.596   0.512   9.208
 4246SOL     OW13273   3.239   1.141   7.987
 4246SOL    HW113274   3.319   1.129   7.937
 4246SOL    HW213275   3.188   1.204   7.936
 4247SOL     OW13276   2.419   0.198   8.329
 4247SOL    HW113277   2.423   0.217   8.423
 4247SOL    HW213278   2.415   0.284   8.287
 4248SOL     OW13279   2.864   1.456   7.920
 4248SOL    HW113280   2.806   1.527   7.892
 4248SOL    HW213281   2.856   1.455   8.016
 4249SOL     OW13282   2.231   1.801   8.274
 4249SOL    HW113283   2.257   1.712   8.300
 4249SOL    HW213284   2.295   1.858   8.316
 4250SOL     OW13285   3.667   1.062   8.315
 4250SOL    HW113286   3.613   1.037   8.240
 4250SOL    HW213287   3.605   1.065   8.389
 4251SOL     OW13288   3.089   1.539   8.961
 4251SOL    HW113289   3.076   1.467   9.023
 4251SOL    HW213290   3.025   1.524   8.892
 4252SOL     OW13291   2.186   0.961   7.702
 4252SOL    HW113292   2.266   0.975   7.652
 4252SOL    HW213293   2.148   0.881   7.665
 4253SOL     OW13294   3.341   0.746   8.177
 4253SOL    HW113295   3.335   0.704   8.263
 4253SOL    HW213296   3.419   0.801   8.183
 4254SOL     OW13297   2.330   1.264   9.185
 4254SOL    HW113298   2.303   1.269   9.093
 4254SOL    HW213299   2.248   1.261   9.234
 4255SOL     OW13300   2.980   1.788   7.665
 4255SOL    HW113301   2.939   1.740   7.737
 4255SOL    HW213302   3.005   1.720   7.602
 4256SOL     OW13303   2.033   0.275   8.947
 4256SOL    HW113304   1.976   0.351   8.938
 4256SOL    HW213305   2.040   0.260   9.041
 4257SOL     OW13306   3.488   1.382   7.537
 4257SOL    HW113307   3.446   1.467   7.520
 4257SOL    HW213308   3.420   1.317   7.517
 4258SOL     OW13309   3.297   0.168   7.850
 4258SOL    HW113310   3.253   0.095   7.805
 4258SOL    HW213311   3.372   0.128   7.893
 4259SOL     OW13312   2.166   1.784   8.669
 4259SOL    HW113313   2.200   1.703   8.706
 4259SOL    HW213314   2.119   1.757   8.590
 4260SOL     OW13315   2.799   1.698   8.348
 4260SOL    HW113316   2.878   1.648   8.370
 4260SOL    HW213317   2.758   1.647   8.278
 4261SOL     OW13318   2.257   0.695   7.923
 4261SOL    HW113319   2.275   0.601   7.935
 4261SOL    HW213320   2.164   0.703   7.941
 4262SOL     OW13321   3.392   0.230   9.175
 4262SOL    HW113322   3.386   0.255   9.267
 4262SOL    HW213323   3.371   0.137   9.174
 4263SOL     OW13324   2.505   0.132   7.556
 4263SOL    HW113325   2.531   0.048   7.595
 4263SOL    HW213326   2.443   0.107   7.488
 4264SOL     OW13327   2.638   0.282   9.215
 4264SOL    HW113328   2.707   0.216   9.219
 4264SOL    HW213329   2.579   0.258   9.287
 4265SOL     OW13330   2.738   1.523   8.642
 4265SOL    HW113331   2.722   1.485   8.555
 4265SOL    HW213332   2.807   1.468   8.679
 4266SOL     OW13333   3.203   0.587   8.878
 4266SOL    HW113334   3.233   0.559   8.965
 4266SOL    HW213335   3.236   0.676   8.869
 4267SOL     OW13336   2.677   1.393   8.386
 4267SOL    HW113337   2.763   1.381   8.346
 4267SOL    HW213338   2.616   1.397   8.313
 4268SOL     OW13339   2.792   0.511   8.349
 4268SOL    HW113340   2.767   0.503   8.256
 4268SOL    HW213341   2.818   0.423   8.374
 4269SOL     OW13342   2.407   0.057   7.939
 4269SOL    HW113343   2.333   0.062   7.999
 4269SOL    HW213344   2.402   0.138   7.888
 4270SOL     OW13345   3.290   1.199   7.490
 4270SOL    HW113346   3.324   1.123   7.538
 4270SOL    HW213347   3.204   1.216   7.529
 4271SOL     OW13348   2.190   0.043   7.658
 4271SOL    HW113349   2.200   0.110   7.591
 4271SOL    HW213350   2.274   0.044   7.705
 4272SOL     OW13351   2.803   0.249   7.909
 4272SOL    HW113352   2.778   0.289   7.825
 4272SOL    HW213353   2.899   0.252   7.909
 4273SOL     OW13354   2.942   0.683   8.907
 4273SOL    HW113355   2.871   0.619   8.913
 4273SOL    HW213356   3.022   0.631   8.902
 4274SOL     OW13357   3.085   1.569   8.241
 4274SOL    HW113358   3.101   1.637   8.175
 4274SOL    HW213359   3.153   1.583   8.306
 4275SOL     OW13360   2.336   1.148   8.184
 4275SOL    HW113361   2.266   1.132   8.247
 4275SOL    HW213362   2.295   1.134   8.098
 4276SOL     OW13363   3.128   1.793   8.054
 4276SOL    HW113364   3.177   1.855   8.000
 4276SOL    HW213365   3.063   1.847   8.099
 4277SOL     OW13366   2.884   0.543   7.475
 4277SOL    HW113367   2.841   0.626   7.455
 4277SOL    HW213368   2.948   0.565   7.544
 4278SOL     OW13369   1.943   0.551   8.844
 4278SOL    HW113370   2.034   0.552   8.815
 4278SOL    HW213371   1.936   0.624   8.906
 4279SOL     OW13372   2.426   0.231   8.609
 4279SOL    HW113373   2.450   0.139   8.619
 4279SOL    HW213374   2.336   0.236   8.641
 4280SOL     OW13375   2.732   0.461   8.086
 4280SOL    HW113376   2.684   0.515   8.024
 4280SOL    HW213377   2.753   0.381   8.038
 4281SOL     OW13378   2.857   0.040   8.228
 4281SOL    HW113379   2.822   0.068   8.143
 4281SOL    HW213380   2.868   3.946   8.219
 4282SOL     OW13381   3.300   1.162   8.306
 4282SOL    HW113382   3.231   1.096   8.303
 4282SOL    HW213383   3.327   1.172   8.214
 4283SOL     OW13384   3.326   0.607   8.423
 4283SOL    HW113385   3.274   0.527   8.428
 4283SOL    HW213386   3.387   0.601   8.497
 4284SOL     OW13387   3.721   0.824   7.823
 4284SOL    HW113388   3.763   0.767   7.887
 4284SOL    HW213389   3.682   0.764   7.759
 4285SOL     OW13390   3.528   1.265   8.093
 4285SOL    HW113391   3.624   1.268   8.102
 4285SOL    HW213392   3.500   1.354   8.114
 4286SOL     OW13393   3.257   0.575   7.518
 4286SOL    HW113394   3.194   0.556   7.587
 4286SOL    HW213395   3.342   0.557   7.557
 4287SOL     OW13396   2.389   0.266   7.765
 4287SOL    HW113397   2.442   0.227   7.696
 4287SOL    HW213398   2.361   0.350   7.728
 4288SOL     OW13399   3.614   1.234   9.016
 4288SOL    HW113400   3.701   1.199   8.998
 4288SOL    HW213401   3.629   1.323   9.046
 4289SOL     OW13402   2.919   1.353   8.781
 4289SOL    HW113403   2.844   1.322   8.832
 4289SOL    HW213404   2.995   1.312   8.822
 4290SOL     OW13405   3.467   1.628   9.103
 4290SOL    HW113406   3.460   1.662   9.014
 4290SOL    HW213407   3.548   1.577   9.103
 4291SOL     OW13408   2.992   1.205   8.553
 4291SOL    HW113409   2.934   1.243   8.618
 4291SOL    HW213410   2.959   1.237   8.469
 4292SOL     OW13411   3.491   1.096   8.523
 4292SOL    HW113412   3.483   1.158   8.596
 4292SOL    HW213413   3.413   1.113   8.470
 4293SOL     OW13414   2.774   0.115   8.849
 4293SOL    HW113415   2.794   0.088   8.760
 4293SOL    HW213416   2.855   0.156   8.880
 4294SOL     OW13417   2.846   1.115   9.171
 4294SOL    HW113418   2.754   1.131   9.194
 4294SOL    HW213419   2.844   1.037   9.116
 4295SOL     OW13420   2.566   1.049   7.818
 4295SOL    HW113421   2.550   1.035   7.912
 4295SOL    HW213422   2.642   0.995   7.798
 4296SOL     OW13423   2.282   0.816   8.699
 4296SOL    HW113424   2.350   0.824   8.766
 4296SOL    HW213425   2.247   0.728   8.712
 4297SOL     OW13426   3.128   0.375   8.724
 4297SOL    HW113427   3.162   0.453   8.768
 4297SOL    HW213428   3.041   0.401   8.694
 4298SOL     OW13429   1.937   1.578   8.803
 4298SOL    HW113430   1.902   1.636   8.735
 4298SOL    HW213431   2.031   1.575   8.787
 4299SOL     OW13432   2.215   1.109   7.941
 4299SOL    HW113433   2.207   1.190   7.891
 4299SOL    HW213434   2.209   1.039   7.876
 4300SOL     OW13435   2.417   0.533   8.305
 4300SOL    HW113436   2.431   0.593   8.232
 4300SOL    HW213437   2.481   0.561   8.371
 4301SOL     OW13438   3.108   1.351   7.838
 4301SOL    HW113439   3.166   1.421   7.869
 4301SOL    HW213440   3.021   1.375   7.871
 4302SOL     OW13441   3.145   1.459   8.596
 4302SOL    HW113442   3.201   1.463   8.673
 4302SOL    HW213443   3.091   1.381   8.610
 4303SOL     OW13444   3.435   0.632   7.933
 4303SOL    HW113445   3.394   0.690   7.997
 4303SOL    HW213446   3.484   0.690   7.875
 4304SOL     OW13447   2.211   1.524   8.761
 4304SOL    HW113448   2.197   1.480   8.677
 4304SOL    HW213449   2.306   1.533   8.769
 4305SOL     OW13450   2.278   0.744   9.050
 4305SOL    HW113451   2.340   0.789   8.991
 4305SOL    HW213452   2.319   0.660   9.067
 4306SOL     OW13453   3.465   0.778   9.130
 4306SOL    HW113454   3.379   0.820   9.124
 4306SOL    HW213455   3.518   0.820   9.063
 4307SOL     OW13456   2.879   0.129   9.227
 4307SOL    HW113457   2.924   0.203   9.188
 4307SOL    HW213458   2.861   0.070   9.154
 4308SOL     OW13459   2.349   0.034   9.210
 4308SOL    HW113460   2.353   0.045   9.115
 4308SOL    HW213461   2.290   0.103   9.240
 4309SOL     OW13462   2.447   0.873   8.480
 4309SOL    HW113463   2.474   0.965   8.480
 4309SOL    HW213464   2.389   0.865   8.556
 4310SOL     OW13465   3.217   0.859   8.475
 4310SOL    HW113466   3.132   0.847   8.431
 4310SOL    HW213467   3.259   0.774   8.469
 4311SOL     OW13468   3.064   0.537   7.708
 4311SOL    HW113469   3.072   0.457   7.760
 4311SOL    HW213470   3.020   0.599   7.765
 4312SOL     OW13471   2.162   0.210   8.691
 4312SOL    HW113472   2.121   0.239   8.772
 4312SOL    HW213473   2.150   0.115   8.690
 4313SOL     OW13474   1.906   1.312   8.726
 4313SOL    HW113475   1.940   1.256   8.796
 4313SOL    HW213476   1.914   1.401   8.761
 4314SOL     OW13477   2.585   0.632   8.502
 4314SOL    HW113478   2.660   0.619   8.444
 4314SOL    HW213479   2.556   0.721   8.482
 4315SOL     OW13480   3.594   0.957   9.309
 4315SOL    HW113481   3.551   0.897   9.248
 4315SOL    HW213482   3.531   0.971   9.379
 4316SOL     OW13483   2.184   0.056   8.098
 4316SOL    HW113484   2.164   0.149   8.109
 4316SOL    HW213485   2.147   0.014   8.175
 4317SOL     OW13486   3.472   0.390   7.828
 4317SOL    HW113487   3.437   0.321   7.884
 4317SOL    HW213488   3.451   0.472   7.873
 4318SOL     OW13489   2.891   0.759   8.407
 4318SOL    HW113490   2.885   0.776   8.501
 4318SOL    HW213491   2.864   0.668   8.398
 4319SOL     OW13492   2.844   1.567   9.166
 4319SOL    HW113493   2.829   1.610   9.082
 4319SOL    HW213494   2.887   1.484   9.143
 4320SOL     OW13495   3.706   1.500   9.047
 4320SOL    HW113496   3.729   1.529   8.958
 4320SOL    HW213497   3.786   1.512   9.097
 4321SOL     OW13498   2.214   0.915   9.257
 4321SOL    HW113499   2.296   0.935   9.303
 4321SOL    HW213500   2.240   0.853   9.189
 4322SOL     OW13501   3.365   0.275   7.583
 4322SOL    HW113502   3.291   0.215   7.594
 4322SOL    HW213503   3.378   0.313   7.670
 4323SOL     OW13504   3.150   0.827   7.478
 4323SOL    HW113505   3.193   0.741   7.481
 4323SOL    HW213506   3.182   0.866   7.397
 4324SOL     OW13507   2.927   1.337   8.301
 4324SOL    HW113508   2.932   1.264   8.240
 4324SOL    HW213509   2.990   1.401   8.268
 4325SOL     OW13510   2.169   0.809   8.395
 4325SOL    HW113511   2.262   0.830   8.387
 4325SOL    HW213512   2.168   0.719   8.427
 4326SOL     OW13513   2.199   0.535   8.462
 4326SOL    HW113514   2.157   0.450   8.446
 4326SOL    HW213515   2.275   0.536   8.403
 4327SOL     OW13516   2.995   0.381   9.143
 4327SOL    HW113517   2.946   0.436   9.205
 4327SOL    HW213518   3.082   0.421   9.139
 4328SOL     OW13519   3.013   0.226   8.929
 4328SOL    HW113520   3.004   0.280   9.007
 4328SOL    HW213521   3.037   0.287   8.860
 4329SOL     OW13522   1.987   1.726   8.442
 4329SOL    HW113523   1.945   1.664   8.383
 4329SOL    HW213524   2.023   1.794   8.384
 4330SOL     OW13525   2.362   1.570   8.360
 4330SOL    HW113526   2.428   1.635   8.381
 4330SOL    HW213527   2.405   1.510   8.298
 4331SOL     OW13528   2.842   0.789   8.672
 4331SOL    HW113529   2.898   0.769   8.747
 4331SOL    HW213530   2.756   0.754   8.696
 4332SOL     OW13531   1.895   0.547   8.565
 4332SOL    HW113532   1.970   0.521   8.511
 4332SOL    HW213533   1.929   0.547   8.654
 4333SOL     OW13534   2.065   0.526   9.161
 4333SOL    HW113535   2.134   0.505   9.099
 4333SOL    HW213536   2.020   0.601   9.122
 4334SOL     OW13537   3.241   0.937   9.106
 4334SOL    HW113538   3.262   1.031   9.104
 4334SOL    HW213539   3.237   0.911   9.014
 4335SOL     OW13540   2.679   0.573   7.810
 4335SOL    HW113541   2.685   0.497   7.752
 4335SOL    HW213542   2.604   0.622   7.778
 4336SOL     OW13543   3.502   0.602   8.632
 4336SOL    HW113544   3.491   0.541   8.705
 4336SOL    HW213545   3.588   0.581   8.596
 4337SOL     OW13546   2.115   1.536   9.155
 4337SOL    HW113547   2.097   1.607   9.218
 4337SOL    HW213548   2.117   1.457   9.209
 4338SOL     OW13549   2.567   0.454   8.705
 4338SOL    HW113550   2.517   0.377   8.680
 4338SOL    HW213551   2.560   0.513   8.631
 4339SOL     OW13552   2.788   1.679   8.916
 4339SOL    HW113553   2.763   1.643   8.831
 4339SOL    HW213554   2.783   1.774   8.905
 4340SOL     OW13555   2.326   0.494   7.633
 4340SOL    HW113556   2.383   0.567   7.657
 4340SOL    HW213557   2.240   0.534   7.619
 4341SOL     OW13558   2.006   1.141   8.921
 4341SOL    HW113559   2.008   1.091   9.002
 4341SOL    HW213560   2.023   1.076   8.852
 4342SOL     OW13561   3.185   1.045   8.670
 4342SOL    HW113562   3.209   0.982   8.602
 4342SOL    HW213563   3.117   1.099   8.631
 4343SOL     OW13564   3.174   0.857   7.754
 4343SOL    HW113565   3.099   0.825   7.805
 4343SOL    HW213566   3.148   0.842   7.662
 4344SOL     OW13567   3.641   1.743   8.604
 4344SOL    HW113568   3.696   1.770   8.530
 4344SOL    HW213569   3.612   1.654   8.580
 4345SOL     OW13570   3.102   1.733   8.557
 4345SOL    HW113571   3.185   1.755   8.514
 4345SOL    HW213572   3.110   1.640   8.578
 4346SOL     OW13573   1.947   1.264   8.461
 4346SOL    HW113574   1.930   1.279   8.554
 4346SOL    HW213575   1.874   1.209   8.432
 4347SOL     OW13576   2.538   1.667   9.178
 4347SOL    HW113577   2.486   1.748   9.177
 4347SOL    HW213578   2.605   1.681   9.111
 4348SOL     OW13579   3.552   0.121   7.935
 4348SOL    HW113580   3.633   0.136   7.887
 4348SOL    HW213581   3.554   0.027   7.957
 4349SOL     OW13582   3.250   1.568   7.933
 4349SOL    HW113583   3.313   1.600   7.868
 4349SOL    HW213584   3.206   1.647   7.964
 4350SOL     OW13585   2.036   1.740   9.307
 4350SOL    HW113586   1.971   1.697   9.363
 4350SOL    HW213587   2.006   1.831   9.301
 4351SOL     OW13588   3.139   0.927   8.120
 4351SOL    HW113589   3.213   0.867   8.129
 4351SOL    HW213590   3.173   0.999   8.066
 4352SOL     OW13591   2.673   1.274   8.876
 4352SOL    HW113592   2.646   1.314   8.959
 4352SOL    HW213593   2.603   1.294   8.815
 4353SOL     OW13594   3.483   1.727   8.839
 4353SOL    HW113595   3.538   1.732   8.760
 4353SOL    HW213596   3.470   1.818   8.865
 4354SOL     OW13597   3.703   0.181   8.419
 4354SOL    HW113598   3.728   0.097   8.380
 4354SOL    HW213599   3.617   0.200   8.382
 4355SOL     OW13600   2.126   0.316   8.163
 4355SOL    HW113601   2.040   0.351   8.141
 4355SOL    HW213602   2.125   0.307   8.258
 4356SOL     OW13603   3.062   1.604   7.480
 4356SOL    HW113604   3.055   1.510   7.492
 4356SOL    HW213605   3.044   1.619   7.387
 4357SOL     OW13606   2.686   1.006   8.821
 4357SOL    HW113607   2.728   1.002   8.735
 4357SOL    HW213608   2.685   1.099   8.843
 4358SOL     OW13609   2.780   0.910   7.736
 4358SOL    HW113610   2.843   0.944   7.672
 4358SOL    HW213611   2.828   0.841   7.782
 4359SOL     OW13612   3.354   1.627   7.491
 4359SOL    HW113613   3.260   1.621   7.475
 4359SOL    HW213614   3.394   1.633   7.404
 4360SOL     OW13615   2.232   1.300   8.939
 4360SOL    HW113616   2.217   1.379   8.886
 4360SOL    HW213617   2.154   1.246   8.924
 4361SOL     OW13618   3.464   1.280   8.726
 4361SOL    HW113619   3.532   1.272   8.793
 4361SOL    HW213620   3.407   1.350   8.758
 4362SOL     OW13621   2.916   1.109   8.153
 4362SOL    HW113622   2.845   1.059   8.193
 4362SOL    HW213623   2.980   1.043   8.126
 4363SOL     OW13624   2.876   0.248   8.417
 4363SOL    HW113625   2.866   0.198   8.336
 4363SOL    HW213626   2.872   0.183   8.487
 4364SOL     OW13627   3.582   0.393   8.820
 4364SOL    HW113628   3.654   0.457   8.820
 4364SOL    HW213629   3.614   0.321   8.766
 4365SOL     OW13630   1.975   1.025   9.169
 4365SOL    HW113631   1.899   1.001   9.221
 4365SOL    HW213632   2.049   0.986   9.214
 4366SOL     OW13633   2.555   0.252   8.948
 4366SOL    HW113634   2.622   0.198   8.907
 4366SOL    HW213635   2.582   0.259   9.040
 4367SOL     OW13636   1.961   0.317   7.439
 4367SOL    HW113637   1.891   0.337   7.501
 4367SOL    HW213638   1.971   0.398   7.389
 4368SOL     OW13639   3.288   0.857   8.847
 4368SOL    HW113640   3.239   0.919   8.793
 4368SOL    HW213641   3.377   0.859   8.811
 4369SOL     OW13642   1.943   0.153   7.788
 4369SOL    HW113643   1.912   0.213   7.721
 4369SOL    HW213644   2.029   0.124   7.757
 4370SOL     OW13645   3.036   1.333   7.571
 4370SOL    HW113646   2.966   1.268   7.580
 4370SOL    HW213647   3.072   1.343   7.659
 4371SOL     OW13648   2.483   0.829   8.882
 4371SOL    HW113649   2.539   0.905   8.867
 4371SOL    HW213650   2.543   0.755   8.891
 4372SOL     OW13651   3.345   1.780   8.427
 4372SOL    HW113652   3.369   1.842   8.358
 4372SOL    HW213653   3.428   1.754   8.466
 4373SOL     OW13654   2.580   0.561   9.153
 4373SOL    HW113655   2.621   0.624   9.212
 4373SOL    HW213656   2.607   0.476   9.186
 4374SOL     OW13657   3.334   1.198   9.079
 4374SOL    HW113658   3.323   1.213   9.173
 4374SOL    HW213659   3.427   1.214   9.063
 4375SOL     OW13660   2.238   1.746   9.019
 4375SOL    HW113661   2.156   1.761   8.971
 4375SOL    HW213662   2.225   1.661   9.062
 4376SOL     OW13663   3.527   0.881   8.707
 4376SOL    HW113664   3.526   0.795   8.664
 4376SOL    HW213665   3.521   0.944   8.636
 4377SOL     OW13666   3.084   0.336   7.892
 4377SOL    HW113667   3.151   0.270   7.883
 4377SOL    HW213668   3.105   0.381   7.974
 4378SOL     OW13669   2.452   0.737   8.118
 4378SOL    HW113670   2.490   0.823   8.103
 4378SOL    HW213671   2.385   0.728   8.051
 4379SOL     OW13672   3.617   0.381   9.090
 4379SOL    HW113673   3.596   0.389   8.997
 4379SOL    HW213674   3.557   0.313   9.122
 4380SOL     OW13675   3.616   0.931   8.962
 4380SOL    HW113676   3.607   1.024   8.978
 4380SOL    HW213677   3.592   0.920   8.869
 4381SOL     OW13678   2.729   1.355   7.472
 4381SOL    HW113679   2.724   1.330   7.564
 4381SOL    HW213680   2.808   1.408   7.465
 4382SOL     OW13681   2.524   1.793   8.388
 4382SOL    HW113682   2.510   1.885   8.364
 4382SOL    HW213683   2.619   1.782   8.384
 4383SOL     OW13684   2.732   0.969   8.303
 4383SOL    HW113685   2.781   0.897   8.342
 4383SOL    HW213686   2.695   1.016   8.379
 4384SOL     OW13687   2.945   0.997   7.537
 4384SOL    HW113688   2.920   1.039   7.455
 4384SOL    HW213689   3.016   0.938   7.513
 4385SOL     OW13690   3.715   1.556   8.290
 4385SOL    HW113691   3.636   1.539   8.238
 4385SOL    HW213692   3.715   1.489   8.357
 4386SOL     OW13693   2.089   1.301   9.304
 4386SOL    HW113694   2.021   1.238   9.277
 4386SOL    HW213695   2.075   1.313   9.398
 4387SOL     OW13696   1.940   1.228   8.110
 4387SOL    HW113697   1.959   1.185   8.193
 4387SOL    HW213698   2.008   1.196   8.050
 4388SOL     OW13699   2.543   1.405   9.075
 4388SOL    HW113700   2.465   1.361   9.108
 4388SOL    HW213701   2.539   1.492   9.114
 4389SOL     OW13702   3.676   0.182   8.692
 4389SOL    HW113703   3.678   0.086   8.700
 4389SOL    HW213704   3.694   0.198   8.599
 4390SOL     OW13705   2.291   0.434   7.974
 4390SOL    HW113706   2.324   0.362   7.919
 4390SOL    HW213707   2.243   0.391   8.044
 4391SOL     OW13708   3.559   1.491   8.545
 4391SOL    HW113709   3.480   1.467   8.497
 4391SOL    HW213710   3.571   1.420   8.608
 4392SOL     OW13711   2.192   0.556   8.742
 4392SOL    HW113712   2.246   0.497   8.796
 4392SOL    HW213713   2.212   0.529   8.652
 4393SOL     OW13714   2.687   1.578   8.125
 4393SOL    HW113715   2.662   1.648   8.064
 4393SOL    HW213716   2.612   1.519   8.125
 4394SOL     OW13717   3.323   0.252   8.558
 4394SOL    HW113718   3.337   0.164   8.594
 4394SOL    HW213719   3.267   0.295   8.623
 4395SOL     OW13720   2.867   0.028   8.595
 4395SOL    HW113721   2.787   3.988   8.560
 4395SOL    HW213722   2.929   3.956   8.603
 4396SOL     OW13723   2.693   1.281   7.726
 4396SOL    HW113724   2.637   1.207   7.751
 4396SOL    HW213725   2.733   1.309   7.808
 4397SOL     OW13726   2.482   1.556   8.735
 4397SOL    HW113727   2.484   1.638   8.784
 4397SOL    HW213728   2.570   1.548   8.697
 4398SOL     OW13729   3.174   0.071   7.608
 4398SOL    HW113730   3.182   3.993   7.553
 4398SOL    HW213731   3.089   0.062   7.650
 4399SOL     OW13732   3.144   0.457   8.134
 4399SOL    HW113733   3.097   0.540   8.129
 4399SOL    HW213734   3.148   0.437   8.227
 4400SOL     OW13735   3.452   0.210   8.315
 4400SOL    HW113736   3.403   0.234   8.394
 4400SOL    HW213737   3.451   0.290   8.262
 4401SOL     OW13738   1.891   1.070   7.762
 4401SOL    HW113739   1.983   1.077   7.737
 4401SOL    HW213740   1.879   0.977   7.784
 4402SOL     OW13741   2.090   0.620   9.431
 4402SOL    HW113742   2.000   0.627   9.463
 4402SOL    HW213743   2.081   0.600   9.338
 4403SOL     OW13744   2.079   0.300  10.301
 4403SOL    HW113745   2.116   0.257  10.378
 4403SOL    HW213746   1.994   0.256  10.288
 4404SOL     OW13747   1.871   0.396   9.944
 4404SOL    HW113748   1.784   0.412   9.981
 4404SOL    HW213749   1.858   0.327   9.880
 4405SOL     OW13750   2.430   1.289  10.486
 4405SOL    HW113751   2.343   1.294  10.446
 4405SOL    HW213752   2.446   1.378  10.518
 4406SOL     OW13753   3.425   1.512  10.017
 4406SOL    HW113754   3.382   1.491  10.101
 4406SOL    HW213755   3.353   1.517   9.954
 4407SOL     OW13756   2.994   0.698  10.008
 4407SOL    HW113757   3.042   0.780   9.995
 4407SOL    HW213758   2.947   0.711  10.090
 4408SOL     OW13759   3.623   0.623   9.537
 4408SOL    HW113760   3.605   0.611   9.444
 4408SOL    HW213761   3.606   0.537   9.575
 4409SOL     OW13762   2.616   1.141  10.353
 4409SOL    HW113763   2.547   1.176  10.410
 4409SOL    HW213764   2.652   1.218  10.308
 4410SOL     OW13765   2.731   0.771  11.133
 4410SOL    HW113766   2.717   0.842  11.196
 4410SOL    HW213767   2.754   0.816  11.051
 4411SOL     OW13768   2.548   1.001   9.956
 4411SOL    HW113769   2.613   0.991  10.025
 4411SOL    HW213770   2.479   1.054   9.995
 4412SOL     OW13771   2.574   1.150  11.124
 4412SOL    HW113772   2.621   1.228  11.153
 4412SOL    HW213773   2.492   1.184  11.088
 4413SOL     OW13774   2.194   1.419  10.378
 4413SOL    HW113775   2.118   1.386  10.330
 4413SOL    HW213776   2.241   1.473  10.315
 4414SOL     OW13777   3.321   1.501  10.666
 4414SOL    HW113778   3.374   1.580  10.676
 4414SOL    HW213779   3.258   1.506  10.737
 4415SOL     OW13780   2.306   0.394  10.803
 4415SOL    HW113781   2.396   0.361  10.802
 4415SOL    HW213782   2.252   0.316  10.812
 4416SOL     OW13783   3.473   0.450  10.046
 4416SOL    HW113784   3.403   0.483   9.989
 4416SOL    HW213785   3.496   0.525  10.102
 4417SOL     OW13786   2.091   1.694   9.769
 4417SOL    HW113787   2.105   1.764   9.833
 4417SOL    HW213788   2.171   1.696   9.715
 4418SOL     OW13789   2.999   1.342  11.003
 4418SOL    HW113790   3.040   1.337  11.090
 4418SOL    HW213791   2.946   1.262  10.997
 4419SOL     OW13792   2.091   1.432   9.846
 4419SOL    HW113793   2.081   1.527   9.838
 4419SOL    HW213794   2.029   1.407   9.914
 4420SOL     OW13795   2.122   1.090  10.200
 4420SOL    HW113796   2.118   1.003  10.240
 4420SOL    HW213797   2.065   1.144  10.255
 4421SOL     OW13798   2.472   1.791  10.741
 4421SOL    HW113799   2.391   1.775  10.789
 4421SOL    HW213800   2.497   1.881  10.766
 4422SOL     OW13801   2.446   0.983   9.446
 4422SOL    HW113802   2.493   1.030   9.377
 4422SOL    HW213803   2.485   1.014   9.527
 4423SOL     OW13804   3.443   0.140  10.767
 4423SOL    HW113805   3.468   0.213  10.710
 4423SOL    HW213806   3.409   0.181  10.846
 4424SOL     OW13807   1.978   0.656   9.870
 4424SOL    HW113808   1.951   0.567   9.893
 4424SOL    HW213809   1.971   0.705   9.951
 4425SOL     OW13810   3.702   1.757   9.646
 4425SOL    HW113811   3.771   1.733   9.708
 4425SOL    HW213812   3.721   1.848   9.624
 4426SOL     OW13813   1.864   1.606   9.468
 4426SOL    HW113814   1.855   1.513   9.451
 4426SOL    HW213815   1.891   1.611   9.560
 4427SOL     OW13816   3.549   0.917   9.954
 4427SOL    HW113817   3.634   0.875   9.938
 4427SOL    HW213818   3.532   0.968   9.875
 4428SOL     OW13819   3.504   1.105   9.741
 4428SOL    HW113820   3.589   1.111   9.697
 4428SOL    HW213821   3.510   1.168   9.813
 4429SOL     OW13822   1.985   0.749  10.891
 4429SOL    HW113823   2.076   0.779  10.896
 4429SOL    HW213824   1.933   0.829  10.899
 4430SOL     OW13825   2.477   1.387  10.044
 4430SOL    HW113826   2.431   1.304  10.054
 4430SOL    HW213827   2.459   1.415   9.954
 4431SOL     OW13828   3.150   1.238  10.733
 4431SOL    HW113829   3.182   1.171  10.672
 4431SOL    HW213830   3.208   1.232  10.808
 4432SOL     OW13831   2.681   0.004   9.826
 4432SOL    HW113832   2.727   0.084   9.802
 4432SOL    HW213833   2.588   0.028   9.827
 4433SOL     OW13834   2.051   0.963  10.584
 4433SOL    HW113835   2.137   0.923  10.569
 4433SOL    HW213836   1.990   0.912  10.531
 4434SOL     OW13837   3.391   0.995   9.510
 4434SOL    HW113838   3.321   0.938   9.544
 4434SOL    HW213839   3.433   1.030   9.588
 4435SOL     OW13840   3.047   1.808  10.933
 4435SOL    HW113841   3.057   1.867  10.858
 4435SOL    HW213842   3.064   1.721  10.897
 4436SOL     OW13843   2.218   0.254  11.144
 4436SOL    HW113844   2.262   0.339  11.143
 4436SOL    HW213845   2.125   0.275  11.150
 4437SOL     OW13846   3.328   1.420  10.260
 4437SOL    HW113847   3.261   1.435  10.326
 4437SOL    HW213848   3.317   1.329  10.234
 4438SOL     OW13849   3.516   1.744   9.889
 4438SOL    HW113850   3.500   1.712   9.800
 4438SOL    HW213851   3.495   1.669   9.945
 4439SOL     OW13852   2.457   0.721   9.577
 4439SOL    HW113853   2.462   0.803   9.529
 4439SOL    HW213854   2.393   0.737   9.646
 4440SOL     OW13855   3.137   0.367  10.251
 4440SOL    HW113856   3.050   0.328  10.257
 4440SOL    HW213857   3.194   0.305  10.296
 4441SOL     OW13858   3.440   1.671   9.620
 4441SOL    HW113859   3.530   1.701   9.614
 4441SOL    HW213860   3.414   1.654   9.529
 4442SOL     OW13861   2.658   0.616  10.762
 4442SOL    HW113862   2.629   0.591  10.850
 4442SOL    HW213863   2.618   0.551  10.705
 4443SOL     OW13864   3.254   0.476  10.987
 4443SOL    HW113865   3.259   0.521  11.071
 4443SOL    HW213866   3.312   0.401  10.997
 4444SOL     OW13867   2.815   0.888  10.894
 4444SOL    HW113868   2.870   0.818  10.857
 4444SOL    HW213869   2.767   0.922  10.818
 4445SOL     OW13870   2.854   0.402  10.549
 4445SOL    HW113871   2.770   0.425  10.589
 4445SOL    HW213872   2.832   0.374  10.461
 4446SOL     OW13873   2.914   0.699   9.735
 4446SOL    HW113874   2.930   0.692   9.829
 4446SOL    HW213875   2.831   0.653   9.722
 4447SOL     OW13876   1.950   0.823  10.086
 4447SOL    HW113877   2.030   0.814  10.138
 4447SOL    HW213878   1.906   0.900  10.122
 4448SOL     OW13879   2.757   0.352   9.509
 4448SOL    HW113880   2.798   0.411   9.446
 4448SOL    HW213881   2.751   0.268   9.463
 4449SOL     OW13882   3.571   0.574  11.139
 4449SOL    HW113883   3.533   0.649  11.092
 4449SOL    HW213884   3.596   0.512  11.070
 4450SOL     OW13885   3.238   1.141   9.850
 4450SOL    HW113886   3.318   1.130   9.799
 4450SOL    HW213887   3.187   1.204   9.800
 4451SOL     OW13888   2.419   0.198  10.191
 4451SOL    HW113889   2.423   0.217  10.285
 4451SOL    HW213890   2.416   0.284  10.149
 4452SOL     OW13891   2.866   1.444   9.781
 4452SOL    HW113892   2.830   1.518   9.731
 4452SOL    HW213893   2.846   1.465   9.872
 4453SOL     OW13894   2.226   1.800  10.142
 4453SOL    HW113895   2.259   1.713  10.167
 4453SOL    HW213896   2.292   1.861  10.175
 4454SOL     OW13897   3.666   1.062  10.177
 4454SOL    HW113898   3.612   1.038  10.102
 4454SOL    HW213899   3.605   1.065  10.250
 4455SOL     OW13900   3.089   1.539  10.823
 4455SOL    HW113901   3.076   1.467  10.885
 4455SOL    HW213902   3.025   1.524  10.754
 4456SOL     OW13903   2.181   0.959   9.561
 4456SOL    HW113904   2.263   0.978   9.517
 4456SOL    HW213905   2.151   0.877   9.524
 4457SOL     OW13906   3.341   0.745  10.039
 4457SOL    HW113907   3.335   0.704  10.125
 4457SOL    HW213908   3.419   0.801  10.045
 4458SOL     OW13909   2.330   1.264  11.048
 4458SOL    HW113910   2.303   1.268  10.957
 4458SOL    HW213911   2.248   1.261  11.097
 4459SOL     OW13912   2.984   1.778   9.541
 4459SOL    HW113913   2.910   1.737   9.585
 4459SOL    HW213914   3.008   1.715   9.472
 4460SOL     OW13915   2.033   0.275  10.809
 4460SOL    HW113916   1.976   0.351  10.800
 4460SOL    HW213917   2.040   0.261  10.903
 4461SOL     OW13918   3.488   1.383   9.397
 4461SOL    HW113919   3.445   1.467   9.382
 4461SOL    HW213920   3.420   1.318   9.378
 4462SOL     OW13921   2.339   1.714   9.652
 4462SOL    HW113922   2.373   1.790   9.700
 4462SOL    HW213923   2.394   1.707   9.575
 4463SOL     OW13924   3.297   0.168   9.712
 4463SOL    HW113925   3.253   0.095   9.668
 4463SOL    HW213926   3.372   0.128   9.755
 4464SOL     OW13927   2.159   1.766  10.535
 4464SOL    HW113928   2.198   1.684  10.566
 4464SOL    HW213929   2.119   1.743  10.451
 4465SOL     OW13930   2.799   1.699  10.208
 4465SOL    HW113931   2.877   1.648  10.230
 4465SOL    HW213932   2.756   1.649  10.138
 4466SOL     OW13933   2.256   0.695   9.784
 4466SOL    HW113934   2.275   0.602   9.797
 4466SOL    HW213935   2.163   0.703   9.803
 4467SOL     OW13936   3.392   0.230  11.037
 4467SOL    HW113937   3.386   0.255  11.129
 4467SOL    HW213938   3.371   0.137  11.036
 4468SOL     OW13939   2.505   0.132   9.418
 4468SOL    HW113940   2.531   0.048   9.457
 4468SOL    HW213941   2.442   0.107   9.349
 4469SOL     OW13942   2.638   0.282  11.077
 4469SOL    HW113943   2.707   0.216  11.081
 4469SOL    HW213944   2.579   0.259  11.149
 4470SOL     OW13945   2.738   1.522  10.504
 4470SOL    HW113946   2.722   1.486  10.417
 4470SOL    HW213947   2.808   1.468  10.540
 4471SOL     OW13948   3.203   0.587  10.740
 4471SOL    HW113949   3.233   0.559  10.827
 4471SOL    HW213950   3.236   0.676  10.731
 4472SOL     OW13951   2.678   1.394  10.251
 4472SOL    HW113952   2.762   1.382  10.208
 4472SOL    HW213953   2.614   1.396  10.180
 4473SOL     OW13954   2.792   0.511  10.211
 4473SOL    HW113955   2.767   0.503  10.119
 4473SOL    HW213956   2.818   0.423  10.236
 4474SOL     OW13957   2.407   0.057   9.801
 4474SOL    HW113958   2.333   0.062   9.861
 4474SOL    HW213959   2.402   0.138   9.750
 4475SOL     OW13960   3.289   1.199   9.350
 4475SOL    HW113961   3.320   1.124   9.401
 4475SOL    HW213962   3.204   1.221   9.388
 4476SOL     OW13963   2.190   0.043   9.520
 4476SOL    HW113964   2.201   0.111   9.453
 4476SOL    HW213965   2.273   0.044   9.568
 4477SOL     OW13966   2.803   0.249   9.771
 4477SOL    HW113967   2.778   0.290   9.687
 4477SOL    HW213968   2.899   0.253   9.771
 4478SOL     OW13969   2.942   0.683  10.769
 4478SOL    HW113970   2.871   0.619  10.775
 4478SOL    HW213971   3.022   0.630  10.764
 4479SOL     OW13972   3.084   1.571  10.104
 4479SOL    HW113973   3.100   1.637  10.037
 4479SOL    HW213974   3.153   1.585  10.169
 4480SOL     OW13975   2.332   1.150  10.042
 4480SOL    HW113976   2.264   1.131  10.106
 4480SOL    HW213977   2.291   1.135   9.957
 4481SOL     OW13978   3.130   1.793   9.919
 4481SOL    HW113979   3.177   1.854   9.862
 4481SOL    HW213980   3.064   1.847   9.962
 4482SOL     OW13981   2.884   0.544   9.337
 4482SOL    HW113982   2.840   0.627   9.318
 4482SOL    HW213983   2.948   0.566   9.405
 4483SOL     OW13984   1.943   0.551  10.706
 4483SOL    HW113985   2.034   0.552  10.677
 4483SOL    HW213986   1.936   0.624  10.768
 4484SOL     OW13987   2.426   0.231  10.471
 4484SOL    HW113988   2.450   0.139  10.481
 4484SOL    HW213989   2.336   0.236  10.503
 4485SOL     OW13990   2.732   0.461   9.949
 4485SOL    HW113991   2.684   0.515   9.886
 4485SOL    HW213992   2.753   0.381   9.900
 4486SOL     OW13993   2.858   0.040  10.090
 4486SOL    HW113994   2.822   0.068  10.006
 4486SOL    HW213995   2.868   3.945  10.081
 4487SOL     OW13996   3.301   1.162  10.168
 4487SOL    HW113997   3.230   1.098  10.166
 4487SOL    HW213998   3.326   1.172  10.076
 4488SOL     OW13999   3.326   0.607  10.285
 4488SOL    HW114000   3.274   0.527  10.290
 4488SOL    HW214001   3.387   0.601  10.359
 4489SOL     OW14002   3.722   0.824   9.685
 4489SOL    HW114003   3.764   0.767   9.749
 4489SOL    HW214004   3.683   0.764   9.621
 4490SOL     OW14005   2.354   1.419   9.464
 4490SOL    HW114006   2.280   1.393   9.518
 4490SOL    HW214007   2.339   1.377   9.380
 4491SOL     OW14008   3.529   1.265   9.955
 4491SOL    HW114009   3.624   1.269   9.964
 4491SOL    HW214010   3.499   1.354   9.975
 4492SOL     OW14011   3.257   0.575   9.379
 4492SOL    HW114012   3.193   0.556   9.448
 4492SOL    HW214013   3.342   0.558   9.420
 4493SOL     OW14014   2.389   0.266   9.626
 4493SOL    HW114015   2.443   0.227   9.558
 4493SOL    HW214016   2.361   0.350   9.590
 4494SOL     OW14017   3.614   1.234  10.878
 4494SOL    HW114018   3.701   1.199  10.860
 4494SOL    HW214019   3.629   1.323  10.908
 4495SOL     OW14020   2.919   1.354  10.643
 4495SOL    HW114021   2.844   1.322  10.694
 4495SOL    HW214022   2.995   1.312  10.684
 4496SOL     OW14023   3.468   1.628  10.965
 4496SOL    HW114024   3.460   1.662  10.876
 4496SOL    HW214025   3.549   1.577  10.965
 4497SOL     OW14026   2.993   1.205  10.414
 4497SOL    HW114027   2.933   1.243  10.479
 4497SOL    HW214028   2.961   1.238  10.330
 4498SOL     OW14029   3.491   1.096  10.385
 4498SOL    HW114030   3.483   1.158  10.458
 4498SOL    HW214031   3.414   1.113  10.331
 4499SOL     OW14032   2.774   0.115  10.711
 4499SOL    HW114033   2.794   0.088  10.622
 4499SOL    HW214034   2.855   0.157  10.742
 4500SOL     OW14035   2.846   1.115  11.033
 4500SOL    HW114036   2.755   1.132  11.056
 4500SOL    HW214037   2.844   1.037  10.978
 4501SOL     OW14038   2.571   1.062   9.681
 4501SOL    HW114039   2.556   1.044   9.774
 4501SOL    HW214040   2.646   1.008   9.657
 4502SOL     OW14041   2.282   0.816  10.561
 4502SOL    HW114042   2.350   0.824  10.628
 4502SOL    HW214043   2.247   0.728  10.574
 4503SOL     OW14044   3.129   0.375  10.586
 4503SOL    HW114045   3.163   0.453  10.630
 4503SOL    HW214046   3.041   0.401  10.556
 4504SOL     OW14047   1.936   1.577  10.664
 4504SOL    HW114048   1.902   1.641  10.601
 4504SOL    HW214049   2.030   1.578  10.650
 4505SOL     OW14050   2.209   1.110   9.801
 4505SOL    HW114051   2.214   1.186   9.741
 4505SOL    HW214052   2.206   1.034   9.743
 4506SOL     OW14053   2.417   0.533  10.167
 4506SOL    HW114054   2.431   0.593  10.094
 4506SOL    HW214055   2.481   0.560  10.233
 4507SOL     OW14056   3.110   1.349   9.699
 4507SOL    HW114057   3.166   1.420   9.730
 4507SOL    HW214058   3.023   1.370   9.733
 4508SOL     OW14059   3.145   1.459  10.457
 4508SOL    HW114060   3.201   1.462  10.535
 4508SOL    HW214061   3.090   1.382  10.471
 4509SOL     OW14062   3.435   0.632   9.794
 4509SOL    HW114063   3.394   0.688   9.860
 4509SOL    HW214064   3.483   0.692   9.737
 4510SOL     OW14065   2.215   1.514  10.627
 4510SOL    HW114066   2.200   1.472  10.542
 4510SOL    HW214067   2.310   1.525  10.632
 4511SOL     OW14068   2.278   0.744  10.912
 4511SOL    HW114069   2.339   0.790  10.853
 4511SOL    HW214070   2.320   0.660  10.929
 4512SOL     OW14071   3.465   0.778  10.992
 4512SOL    HW114072   3.379   0.820  10.986
 4512SOL    HW214073   3.518   0.820  10.925
 4513SOL     OW14074   2.879   0.129  11.089
 4513SOL    HW114075   2.924   0.203  11.051
 4513SOL    HW214076   2.861   0.070  11.016
 4514SOL     OW14077   2.349   0.034  11.072
 4514SOL    HW114078   2.353   0.045  10.977
 4514SOL    HW214079   2.290   0.103  11.102
 4515SOL     OW14080   2.446   0.873  10.342
 4515SOL    HW114081   2.475   0.965  10.342
 4515SOL    HW214082   2.389   0.866  10.418
 4516SOL     OW14083   3.217   0.859  10.337
 4516SOL    HW114084   3.133   0.848  10.293
 4516SOL    HW214085   3.259   0.773  10.330
 4517SOL     OW14086   3.064   0.536   9.569
 4517SOL    HW114087   3.072   0.457   9.623
 4517SOL    HW214088   3.020   0.600   9.626
 4518SOL     OW14089   2.162   0.210  10.553
 4518SOL    HW114090   2.121   0.239  10.634
 4518SOL    HW214091   2.150   0.115  10.552
 4519SOL     OW14092   1.906   1.313  10.588
 4519SOL    HW114093   1.940   1.257  10.658
 4519SOL    HW214094   1.915   1.402  10.622
 4520SOL     OW14095   2.585   0.632  10.363
 4520SOL    HW114096   2.660   0.619  10.306
 4520SOL    HW214097   2.556   0.721  10.344
 4521SOL     OW14098   3.594   0.957  11.171
 4521SOL    HW114099   3.551   0.897  11.110
 4521SOL    HW214100   3.531   0.971  11.241
 4522SOL     OW14101   2.184   0.056   9.960
 4522SOL    HW114102   2.164   0.149   9.971
 4522SOL    HW214103   2.147   0.014  10.037
 4523SOL     OW14104   3.473   0.391   9.690
 4523SOL    HW114105   3.437   0.322   9.746
 4523SOL    HW214106   3.451   0.472   9.735
 4524SOL     OW14107   2.891   0.759  10.269
 4524SOL    HW114108   2.885   0.776  10.363
 4524SOL    HW214109   2.864   0.668  10.260
 4525SOL     OW14110   2.844   1.567  11.028
 4525SOL    HW114111   2.829   1.610  10.944
 4525SOL    HW214112   2.887   1.485  11.005
 4526SOL     OW14113   3.706   1.500  10.909
 4526SOL    HW114114   3.729   1.529  10.821
 4526SOL    HW214115   3.786   1.512  10.959
 4527SOL     OW14116   2.214   0.915  11.119
 4527SOL    HW114117   2.296   0.935  11.165
 4527SOL    HW214118   2.240   0.853  11.051
 4528SOL     OW14119   3.365   0.275   9.445
 4528SOL    HW114120   3.291   0.215   9.456
 4528SOL    HW214121   3.378   0.313   9.531
 4529SOL     OW14122   3.151   0.826   9.339
 4529SOL    HW114123   3.194   0.741   9.342
 4529SOL    HW214124   3.184   0.866   9.258
 4530SOL     OW14125   2.928   1.336  10.165
 4530SOL    HW114126   2.932   1.264  10.102
 4530SOL    HW214127   2.989   1.402  10.130
 4531SOL     OW14128   2.170   0.809  10.257
 4531SOL    HW114129   2.263   0.831  10.250
 4531SOL    HW214130   2.168   0.719  10.289
 4532SOL     OW14131   2.198   0.535  10.323
 4532SOL    HW114132   2.157   0.450  10.308
 4532SOL    HW214133   2.274   0.536  10.265
 4533SOL     OW14134   2.995   0.381  11.005
 4533SOL    HW114135   2.946   0.436  11.067
 4533SOL    HW214136   3.082   0.421  11.001
 4534SOL     OW14137   3.013   0.226  10.791
 4534SOL    HW114138   3.004   0.280  10.869
 4534SOL    HW214139   3.037   0.287  10.722
 4535SOL     OW14140   1.866   1.319   9.503
 4535SOL    HW114141   1.779   1.332   9.467
 4535SOL    HW214142   1.865   1.230   9.538
 4536SOL     OW14143   1.980   1.728  10.299
 4536SOL    HW114144   1.942   1.665  10.237
 4536SOL    HW214145   2.018   1.796  10.244
 4537SOL     OW14146   2.360   1.570  10.220
 4537SOL    HW114147   2.428   1.635  10.243
 4537SOL    HW214148   2.404   1.510  10.161
 4538SOL     OW14149   2.842   0.789  10.534
 4538SOL    HW114150   2.898   0.769  10.609
 4538SOL    HW214151   2.756   0.754  10.559
 4539SOL     OW14152   1.895   0.547  10.427
 4539SOL    HW114153   1.970   0.521  10.373
 4539SOL    HW214154   1.929   0.547  10.517
 4540SOL     OW14155   2.065   0.526  11.023
 4540SOL    HW114156   2.135   0.505  10.961
 4540SOL    HW214157   2.020   0.601  10.984
 4541SOL     OW14158   3.241   0.937  10.968
 4541SOL    HW114159   3.262   1.030  10.966
 4541SOL    HW214160   3.237   0.911  10.876
 4542SOL     OW14161   2.679   0.572   9.673
 4542SOL    HW114162   2.684   0.497   9.614
 4542SOL    HW214163   2.604   0.622   9.640
 4543SOL     OW14164   3.502   0.602  10.494
 4543SOL    HW114165   3.491   0.541  10.567
 4543SOL    HW214166   3.588   0.581  10.458
 4544SOL     OW14167   2.115   1.536  11.017
 4544SOL    HW114168   2.098   1.606  11.080
 4544SOL    HW214169   2.117   1.456  11.069
 4545SOL     OW14170   2.567   0.454  10.567
 4545SOL    HW114171   2.517   0.377  10.542
 4545SOL    HW214172   2.559   0.513  10.493
 4546SOL     OW14173   2.788   1.679  10.778
 4546SOL    HW114174   2.763   1.643  10.693
 4546SOL    HW214175   2.783   1.774  10.766
 4547SOL     OW14176   2.326   0.494   9.494
 4547SOL    HW114177   2.383   0.567   9.518
 4547SOL    HW214178   2.240   0.534   9.481
 4548SOL     OW14179   2.005   1.141  10.783
 4548SOL    HW114180   2.008   1.091  10.864
 4548SOL    HW214181   2.023   1.076  10.714
 4549SOL     OW14182   3.185   1.045  10.533
 4549SOL    HW114183   3.209   0.983  10.464
 4549SOL    HW214184   3.117   1.099  10.493
 4550SOL     OW14185   3.175   0.855   9.615
 4550SOL    HW114186   3.099   0.827   9.667
 4550SOL    HW214187   3.148   0.843   9.524
 4551SOL     OW14188   3.641   1.742  10.466
 4551SOL    HW114189   3.696   1.770  10.393
 4551SOL    HW214190   3.612   1.654  10.442
 4552SOL     OW14191   3.103   1.734  10.421
 4552SOL    HW114192   3.185   1.755  10.377
 4552SOL    HW214193   3.110   1.640  10.440
 4553SOL     OW14194   1.948   1.263  10.324
 4553SOL    HW114195   1.931   1.280  10.417
 4553SOL    HW214196   1.874   1.211  10.295
 4554SOL     OW14197   2.539   1.667  11.040
 4554SOL    HW114198   2.486   1.747  11.039
 4554SOL    HW214199   2.605   1.680  10.972
 4555SOL     OW14200   3.552   0.120   9.797
 4555SOL    HW114201   3.633   0.135   9.749
 4555SOL    HW214202   3.554   0.027   9.819
 4556SOL     OW14203   3.252   1.567   9.797
 4556SOL    HW114204   3.312   1.600   9.730
 4556SOL    HW214205   3.203   1.645   9.825
 4557SOL     OW14206   2.038   1.738  11.171
 4557SOL    HW114207   1.971   1.698  11.226
 4557SOL    HW214208   2.008   1.828  11.157
 4558SOL     OW14209   3.139   0.926   9.981
 4558SOL    HW114210   3.214   0.867   9.990
 4558SOL    HW214211   3.173   0.999   9.928
 4559SOL     OW14212   2.673   1.274  10.738
 4559SOL    HW114213   2.645   1.313  10.821
 4559SOL    HW214214   2.604   1.295  10.676
 4560SOL     OW14215   2.537   1.621   9.461
 4560SOL    HW114216   2.544   1.632   9.366
 4560SOL    HW214217   2.480   1.545   9.472
 4561SOL     OW14218   3.483   1.727  10.701
 4561SOL    HW114219   3.538   1.732  10.623
 4561SOL    HW214220   3.470   1.818  10.727
 4562SOL     OW14221   3.703   0.181  10.281
 4562SOL    HW114222   3.727   0.097  10.242
 4562SOL    HW214223   3.617   0.200  10.244
 4563SOL     OW14224   2.126   0.316  10.025
 4563SOL    HW114225   2.040   0.352  10.003
 4563SOL    HW214226   2.125   0.307  10.120
 4564SOL     OW14227   3.069   1.605   9.342
 4564SOL    HW114228   3.059   1.513   9.369
 4564SOL    HW214229   3.004   1.617   9.273
 4565SOL     OW14230   2.686   1.006  10.682
 4565SOL    HW114231   2.728   1.003  10.596
 4565SOL    HW214232   2.684   1.099  10.705
 4566SOL     OW14233   2.778   0.910   9.600
 4566SOL    HW114234   2.839   0.943   9.534
 4566SOL    HW214235   2.826   0.842   9.646
 4567SOL     OW14236   3.352   1.627   9.353
 4567SOL    HW114237   3.257   1.619   9.338
 4567SOL    HW214238   3.389   1.633   9.265
 4568SOL     OW14239   2.232   1.297  10.803
 4568SOL    HW114240   2.220   1.375  10.749
 4568SOL    HW214241   2.154   1.245  10.787
 4569SOL     OW14242   3.464   1.280  10.588
 4569SOL    HW114243   3.532   1.272  10.655
 4569SOL    HW214244   3.407   1.350  10.619
 4570SOL     OW14245   2.917   1.108  10.018
 4570SOL    HW114246   2.845   1.058  10.056
 4570SOL    HW214247   2.979   1.042   9.988
 4571SOL     OW14248   2.876   0.248  10.279
 4571SOL    HW114249   2.866   0.198  10.198
 4571SOL    HW214250   2.872   0.183  10.349
 4572SOL     OW14251   2.465   1.489   9.791
 4572SOL    HW114252   2.507   1.440   9.720
 4572SOL    HW214253   2.403   1.547   9.746
 4573SOL     OW14254   3.582   0.393  10.682
 4573SOL    HW114255   3.654   0.457  10.682
 4573SOL    HW214256   3.614   0.321  10.628
 4574SOL     OW14257   2.121   1.345   9.596
 4574SOL    HW114258   2.028   1.341   9.575
 4574SOL    HW214259   2.125   1.379   9.685
 4575SOL     OW14260   1.975   1.024  11.030
 4575SOL    HW114261   1.899   1.000  11.083
 4575SOL    HW214262   2.049   0.985  11.077
 4576SOL     OW14263   2.555   0.251  10.810
 4576SOL    HW114264   2.622   0.197  10.769
 4576SOL    HW214265   2.582   0.259  10.902
 4577SOL     OW14266   1.961   0.318   9.301
 4577SOL    HW114267   1.891   0.337   9.364
 4577SOL    HW214268   1.971   0.399   9.251
 4578SOL     OW14269   3.288   0.857  10.709
 4578SOL    HW114270   3.239   0.919  10.655
 4578SOL    HW214271   3.377   0.859  10.673
 4579SOL     OW14272   1.943   0.153   9.650
 4579SOL    HW114273   1.913   0.213   9.582
 4579SOL    HW214274   2.029   0.124   9.620
 4580SOL     OW14275   3.040   1.338   9.427
 4580SOL    HW114276   2.950   1.308   9.430
 4580SOL    HW214277   3.068   1.339   9.519
 4581SOL     OW14278   2.483   0.829  10.744
 4581SOL    HW114279   2.539   0.905  10.729
 4581SOL    HW214280   2.544   0.756  10.753
 4582SOL     OW14281   3.344   1.780  10.290
 4582SOL    HW114282   3.368   1.841  10.219
 4582SOL    HW214283   3.428   1.754  10.328
 4583SOL     OW14284   2.580   0.562  11.015
 4583SOL    HW114285   2.621   0.624  11.074
 4583SOL    HW214286   2.607   0.476  11.048
 4584SOL     OW14287   3.334   1.198  10.941
 4584SOL    HW114288   3.323   1.213  11.035
 4584SOL    HW214289   3.427   1.214  10.925
 4585SOL     OW14290   2.238   1.746  10.881
 4585SOL    HW114291   2.165   1.760  10.820
 4585SOL    HW214292   2.219   1.663  10.924
 4586SOL     OW14293   3.527   0.881  10.569
 4586SOL    HW114294   3.526   0.796  10.525
 4586SOL    HW214295   3.521   0.945  10.498
 4587SOL     OW14296   3.083   0.336   9.754
 4587SOL    HW114297   3.151   0.270   9.745
 4587SOL    HW214298   3.104   0.381   9.836
 4588SOL     OW14299   2.452   0.737   9.980
 4588SOL    HW114300   2.490   0.823   9.965
 4588SOL    HW214301   2.385   0.729   9.913
 4589SOL     OW14302   3.617   0.381  10.952
 4589SOL    HW114303   3.596   0.389  10.859
 4589SOL    HW214304   3.557   0.313  10.984
 4590SOL     OW14305   3.616   0.931  10.824
 4590SOL    HW114306   3.607   1.024  10.841
 4590SOL    HW214307   3.592   0.920  10.731
 4591SOL     OW14308   2.724   1.367   9.346
 4591SOL    HW114309   2.686   1.393   9.430
 4591SOL    HW214310   2.741   1.449   9.301
 4592SOL     OW14311   2.524   1.793  10.253
 4592SOL    HW114312   2.508   1.884  10.227
 4592SOL    HW214313   2.618   1.782  10.245
 4593SOL     OW14314   2.730   0.968  10.165
 4593SOL    HW114315   2.780   0.897  10.204
 4593SOL    HW214316   2.694   1.016  10.240
 4594SOL     OW14317   2.941   0.989   9.399
 4594SOL    HW114318   2.919   1.040   9.321
 4594SOL    HW214319   3.015   0.935   9.372
 4595SOL     OW14320   3.715   1.556  10.152
 4595SOL    HW114321   3.636   1.540  10.100
 4595SOL    HW214322   3.714   1.489  10.220
 4596SOL     OW14323   2.089   1.301  11.166
 4596SOL    HW114324   2.021   1.239  11.139
 4596SOL    HW214325   2.075   1.313  11.260
 4597SOL     OW14326   1.943   1.225   9.975
 4597SOL    HW114327   1.956   1.180  10.059
 4597SOL    HW214328   2.015   1.196   9.920
 4598SOL     OW14329   2.543   1.404  10.938
 4598SOL    HW114330   2.464   1.361  10.970
 4598SOL    HW214331   2.539   1.492  10.976
 4599SOL     OW14332   3.676   0.182  10.554
 4599SOL    HW114333   3.678   0.086  10.562
 4599SOL    HW214334   3.694   0.198  10.461
 4600SOL     OW14335   2.290   0.434   9.835
 4600SOL    HW114336   2.324   0.363   9.781
 4600SOL    HW214337   2.243   0.391   9.906
 4601SOL     OW14338   3.559   1.491  10.407
 4601SOL    HW114339   3.480   1.468  10.358
 4601SOL    HW214340   3.570   1.420  10.470
 4602SOL     OW14341   2.192   0.556  10.604
 4602SOL    HW114342   2.246   0.497  10.658
 4602SOL    HW214343   2.212   0.529  10.514
 4603SOL     OW14344   2.689   1.578   9.987
 4603SOL    HW114345   2.673   1.633   9.910
 4603SOL    HW214346   2.615   1.519   9.990
 4604SOL     OW14347   3.323   0.252  10.420
 4604SOL    HW114348   3.337   0.164  10.456
 4604SOL    HW214349   3.267   0.296  10.485
 4605SOL     OW14350   2.867   0.028  10.457
 4605SOL    HW114351   2.787   3.987  10.422
 4605SOL    HW214352   2.929   3.956  10.465
 4606SOL     OW14353   2.636   1.333   9.625
 4606SOL    HW114354   2.605   1.242   9.633
 4606SOL    HW214355   2.716   1.335   9.677
 4607SOL     OW14356   2.483   1.555  10.597
 4607SOL    HW114357   2.484   1.638  10.645
 4607SOL    HW214358   2.571   1.548  10.559
 4608SOL     OW14359   3.174   0.071   9.470
 4608SOL    HW114360   3.182   3.992   9.416
 4608SOL    HW214361   3.089   0.063   9.513
 4609SOL     OW14362   3.144   0.457   9.996
 4609SOL    HW114363   3.097   0.540   9.991
 4609SOL    HW214364   3.147   0.437  10.089
 4610SOL     OW14365   3.452   0.210  10.177
 4610SOL    HW114366   3.403   0.233  10.256
 4610SOL    HW214367   3.451   0.290  10.124
 4611SOL     OW14368   1.906   1.071   9.615
 4611SOL    HW114369   2.000   1.063   9.599
 4611SOL    HW214370   1.878   0.982   9.640
 4612SOL     OW14371   2.747   1.655   9.651
 4612SOL    HW114372   2.675   1.637   9.591
 4612SOL    HW214373   2.717   1.729   9.704
 4613SOL     OW14374   2.090   0.619  11.293
 4613SOL    HW114375   2.000   0.628  11.325
 4613SOL    HW214376   2.081   0.600  11.200
 4614SOL     OW14377   2.079   0.300  12.163
 4614SOL    HW114378   2.116   0.257  12.240
 4614SOL    HW214379   1.994   0.256  12.150
 4615SOL     OW14380   1.871   0.396  11.806
 4615SOL    HW114381   1.784   0.412  11.843
 4615SOL    HW214382   1.858   0.327  11.742
 4616SOL     OW14383   2.430   1.289  12.348
 4616SOL    HW114384   2.343   1.294  12.308
 4616SOL    HW214385   2.446   1.378  12.380
 4617SOL     OW14386   3.425   1.512  11.879
 4617SOL    HW114387   3.382   1.492  11.963
 4617SOL    HW214388   3.353   1.517  11.816
 4618SOL     OW14389   2.994   0.698  11.870
 4618SOL    HW114390   3.042   0.780  11.857
 4618SOL    HW214391   2.947   0.711  11.952
 4619SOL     OW14392   3.623   0.623  11.399
 4619SOL    HW114393   3.605   0.611  11.306
 4619SOL    HW214394   3.606   0.537  11.437
 4620SOL     OW14395   2.616   1.141  12.215
 4620SOL    HW114396   2.547   1.176  12.272
 4620SOL    HW214397   2.652   1.218  12.170
 4621SOL     OW14398   2.731   0.772  12.995
 4621SOL    HW114399   2.717   0.843  13.057
 4621SOL    HW214400   2.754   0.815  12.913
 4622SOL     OW14401   2.548   1.001  11.818
 4622SOL    HW114402   2.613   0.991  11.887
 4622SOL    HW214403   2.479   1.054  11.857
 4623SOL     OW14404   2.574   1.150  12.986
 4623SOL    HW114405   2.621   1.228  13.014
 4623SOL    HW214406   2.492   1.184  12.950
 4624SOL     OW14407   2.194   1.419  12.240
 4624SOL    HW114408   2.118   1.386  12.192
 4624SOL    HW214409   2.241   1.473  12.177
 4625SOL     OW14410   3.321   1.501  12.528
 4625SOL    HW114411   3.375   1.580  12.538
 4625SOL    HW214412   3.258   1.506  12.599
 4626SOL     OW14413   2.306   0.394  12.666
 4626SOL    HW114414   2.396   0.361  12.664
 4626SOL    HW214415   2.252   0.316  12.673
 4627SOL     OW14416   3.473   0.450  11.908
 4627SOL    HW114417   3.403   0.483  11.851
 4627SOL    HW214418   3.496   0.525  11.963
 4628SOL     OW14419   2.093   1.691  11.630
 4628SOL    HW114420   2.107   1.759  11.696
 4628SOL    HW214421   2.172   1.694  11.575
 4629SOL     OW14422   2.999   1.342  12.865
 4629SOL    HW114423   3.039   1.337  12.952
 4629SOL    HW214424   2.947   1.262  12.858
 4630SOL     OW14425   2.092   1.431  11.708
 4630SOL    HW114426   2.082   1.525  11.699
 4630SOL    HW214427   2.029   1.407  11.776
 4631SOL     OW14428   2.122   1.090  12.062
 4631SOL    HW114429   2.118   1.003  12.102
 4631SOL    HW214430   2.065   1.144  12.117
 4632SOL     OW14431   2.472   1.791  12.603
 4632SOL    HW114432   2.391   1.775  12.651
 4632SOL    HW214433   2.497   1.881  12.627
 4633SOL     OW14434   2.446   0.983  11.308
 4633SOL    HW114435   2.493   1.030  11.239
 4633SOL    HW214436   2.485   1.014  11.389
 4634SOL     OW14437   3.443   0.140  12.629
 4634SOL    HW114438   3.468   0.213  12.572
 4634SOL    HW214439   3.409   0.181  12.708
 4635SOL     OW14440   1.978   0.656  11.732
 4635SOL    HW114441   1.951   0.567  11.755
 4635SOL    HW214442   1.971   0.705  11.813
 4636SOL     OW14443   3.702   1.757  11.508
 4636SOL    HW114444   3.771   1.733  11.570
 4636SOL    HW214445   3.721   1.848  11.486
 4637SOL     OW14446   1.861   1.608  11.332
 4637SOL    HW114447   1.853   1.514  11.313
 4637SOL    HW214448   1.891   1.611  11.423
 4638SOL     OW14449   3.549   0.917  11.816
 4638SOL    HW114450   3.633   0.875  11.800
 4638SOL    HW214451   3.532   0.968  11.737
 4639SOL     OW14452   3.504   1.105  11.603
 4639SOL    HW114453   3.589   1.111  11.559
 4639SOL    HW214454   3.510   1.168  11.675
 4640SOL     OW14455   1.985   0.749  12.753
 4640SOL    HW114456   2.076   0.779  12.758
 4640SOL    HW214457   1.933   0.829  12.761
 4641SOL     OW14458   2.477   1.387  11.906
 4641SOL    HW114459   2.431   1.304  11.916
 4641SOL    HW214460   2.459   1.415  11.816
 4642SOL     OW14461   3.150   1.238  12.595
 4642SOL    HW114462   3.182   1.171  12.534
 4642SOL    HW214463   3.208   1.232  12.670
 4643SOL     OW14464   2.681   0.004  11.688
 4643SOL    HW114465   2.727   0.084  11.664
 4643SOL    HW214466   2.588   0.028  11.689
 4644SOL     OW14467   2.051   0.963  12.446
 4644SOL    HW114468   2.137   0.923  12.431
 4644SOL    HW214469   1.991   0.912  12.393
 4645SOL     OW14470   3.391   0.995  11.372
 4645SOL    HW114471   3.321   0.938  11.406
 4645SOL    HW214472   3.433   1.030  11.450
 4646SOL     OW14473   3.047   1.808  12.795
 4646SOL    HW114474   3.057   1.867  12.720
 4646SOL    HW214475   3.064   1.721  12.759
 4647SOL     OW14476   2.217   0.254  13.006
 4647SOL    HW114477   2.261   0.339  13.005
 4647SOL    HW214478   2.124   0.275  13.013
 4648SOL     OW14479   3.328   1.420  12.122
 4648SOL    HW114480   3.261   1.435  12.188
 4648SOL    HW214481   3.317   1.328  12.096
 4649SOL     OW14482   3.516   1.744  11.751
 4649SOL    HW114483   3.500   1.712  11.662
 4649SOL    HW214484   3.495   1.669  11.807
 4650SOL     OW14485   2.457   0.721  11.439
 4650SOL    HW114486   2.462   0.803  11.391
 4650SOL    HW214487   2.393   0.737  11.508
 4651SOL     OW14488   3.137   0.367  12.113
 4651SOL    HW114489   3.050   0.328  12.119
 4651SOL    HW214490   3.194   0.305  12.158
 4652SOL     OW14491   3.440   1.671  11.482
 4652SOL    HW114492   3.530   1.701  11.475
 4652SOL    HW214493   3.414   1.654  11.391
 4653SOL     OW14494   2.658   0.616  12.624
 4653SOL    HW114495   2.629   0.591  12.712
 4653SOL    HW214496   2.618   0.551  12.567
 4654SOL     OW14497   3.254   0.476  12.849
 4654SOL    HW114498   3.259   0.521  12.934
 4654SOL    HW214499   3.312   0.401  12.859
 4655SOL     OW14500   2.815   0.887  12.756
 4655SOL    HW114501   2.870   0.818  12.719
 4655SOL    HW214502   2.767   0.922  12.680
 4656SOL     OW14503   2.854   0.403  12.411
 4656SOL    HW114504   2.770   0.425  12.451
 4656SOL    HW214505   2.832   0.374  12.323
 4657SOL     OW14506   2.914   0.699  11.597
 4657SOL    HW114507   2.930   0.692  11.691
 4657SOL    HW214508   2.831   0.653  11.584
 4658SOL     OW14509   1.950   0.822  11.948
 4658SOL    HW114510   2.030   0.814  12.000
 4658SOL    HW214511   1.906   0.900  11.984
 4659SOL     OW14512   2.757   0.352  11.371
 4659SOL    HW114513   2.798   0.411  11.308
 4659SOL    HW214514   2.751   0.268  11.325
 4660SOL     OW14515   3.571   0.575  13.001
 4660SOL    HW114516   3.533   0.649  12.954
 4660SOL    HW214517   3.595   0.513  12.933
 4661SOL     OW14518   3.238   1.141  11.712
 4661SOL    HW114519   3.318   1.130  11.661
 4661SOL    HW214520   3.186   1.204  11.662
 4662SOL     OW14521   2.419   0.198  12.053
 4662SOL    HW114522   2.423   0.217  12.147
 4662SOL    HW214523   2.415   0.284  12.012
 4663SOL     OW14524   2.866   1.444  11.643
 4663SOL    HW114525   2.830   1.518  11.593
 4663SOL    HW214526   2.846   1.465  11.734
 4664SOL     OW14527   2.227   1.800  12.004
 4664SOL    HW114528   2.260   1.714  12.029
 4664SOL    HW214529   2.293   1.861  12.037
 4665SOL     OW14530   3.666   1.062  12.039
 4665SOL    HW114531   3.612   1.038  11.964
 4665SOL    HW214532   3.605   1.065  12.112
 4666SOL     OW14533   3.089   1.539  12.685
 4666SOL    HW114534   3.076   1.466  12.746
 4666SOL    HW214535   3.025   1.524  12.616
 4667SOL     OW14536   2.181   0.959  11.423
 4667SOL    HW114537   2.263   0.978  11.379
 4667SOL    HW214538   2.151   0.877  11.385
 4668SOL     OW14539   3.342   0.745  11.901
 4668SOL    HW114540   3.335   0.704  11.987
 4668SOL    HW214541   3.419   0.801  11.907
 4669SOL     OW14542   2.330   1.264  12.911
 4669SOL    HW114543   2.303   1.268  12.819
 4669SOL    HW214544   2.248   1.261  12.960
 4670SOL     OW14545   2.984   1.778  11.403
 4670SOL    HW114546   2.910   1.737  11.447
 4670SOL    HW214547   3.008   1.716  11.334
 4671SOL     OW14548   2.033   0.275  12.671
 4671SOL    HW114549   1.976   0.351  12.663
 4671SOL    HW214550   2.040   0.260  12.765
 4672SOL     OW14551   3.488   1.383  11.259
 4672SOL    HW114552   3.445   1.467  11.244
 4672SOL    HW214553   3.420   1.318  11.240
 4673SOL     OW14554   2.340   1.714  11.514
 4673SOL    HW114555   2.374   1.790  11.561
 4673SOL    HW214556   2.395   1.707  11.436
 4674SOL     OW14557   3.297   0.168  11.574
 4674SOL    HW114558   3.253   0.095  11.530
 4674SOL    HW214559   3.372   0.128  11.618
 4675SOL     OW14560   2.158   1.764  12.403
 4675SOL    HW114561   2.198   1.682  12.431
 4675SOL    HW214562   2.120   1.743  12.317
 4676SOL     OW14563   2.799   1.699  12.070
 4676SOL    HW114564   2.877   1.648  12.091
 4676SOL    HW214565   2.756   1.649  12.000
 4677SOL     OW14566   2.256   0.695  11.646
 4677SOL    HW114567   2.275   0.602  11.659
 4677SOL    HW214568   2.163   0.703  11.665
 4678SOL     OW14569   3.392   0.230  12.898
 4678SOL    HW114570   3.387   0.255  12.991
 4678SOL    HW214571   3.371   0.136  12.898
 4679SOL     OW14572   2.505   0.132  11.280
 4679SOL    HW114573   2.531   0.048  11.319
 4679SOL    HW214574   2.442   0.107  11.211
 4680SOL     OW14575   2.638   0.282  12.939
 4680SOL    HW114576   2.707   0.216  12.943
 4680SOL    HW214577   2.579   0.259  13.011
 4681SOL     OW14578   2.738   1.522  12.366
 4681SOL    HW114579   2.722   1.486  12.279
 4681SOL    HW214580   2.808   1.468  12.402
 4682SOL     OW14581   3.203   0.587  12.602
 4682SOL    HW114582   3.233   0.559  12.689
 4682SOL    HW214583   3.236   0.676  12.593
 4683SOL     OW14584   2.678   1.394  12.113
 4683SOL    HW114585   2.762   1.382  12.070
 4683SOL    HW214586   2.614   1.396  12.042
 4684SOL     OW14587   2.792   0.511  12.073
 4684SOL    HW114588   2.767   0.503  11.981
 4684SOL    HW214589   2.818   0.423  12.098
 4685SOL     OW14590   2.407   0.057  11.663
 4685SOL    HW114591   2.333   0.062  11.723
 4685SOL    HW214592   2.402   0.138  11.612
 4686SOL     OW14593   3.289   1.199  11.213
 4686SOL    HW114594   3.319   1.124  11.263
 4686SOL    HW214595   3.204   1.221  11.250
 4687SOL     OW14596   2.191   0.043  11.382
 4687SOL    HW114597   2.201   0.111  11.315
 4687SOL    HW214598   2.273   0.044  11.430
 4688SOL     OW14599   2.803   0.249  11.633
 4688SOL    HW114600   2.778   0.290  11.549
 4688SOL    HW214601   2.899   0.253  11.633
 4689SOL     OW14602   2.942   0.683  12.631
 4689SOL    HW114603   2.871   0.619  12.637
 4689SOL    HW214604   3.022   0.630  12.625
 4690SOL     OW14605   3.084   1.571  11.966
 4690SOL    HW114606   3.100   1.637  11.899
 4690SOL    HW214607   3.153   1.585  12.031
 4691SOL     OW14608   2.333   1.150  11.904
 4691SOL    HW114609   2.264   1.131  11.968
 4691SOL    HW214610   2.291   1.135  11.819
 4692SOL     OW14611   3.130   1.793  11.781
 4692SOL    HW114612   3.177   1.854  11.724
 4692SOL    HW214613   3.064   1.847  11.824
 4693SOL     OW14614   2.884   0.544  11.199
 4693SOL    HW114615   2.840   0.627  11.179
 4693SOL    HW214616   2.948   0.566  11.267
 4694SOL     OW14617   1.943   0.551  12.568
 4694SOL    HW114618   2.034   0.552  12.539
 4694SOL    HW214619   1.936   0.624  12.630
 4695SOL     OW14620   2.426   0.231  12.333
 4695SOL    HW114621   2.450   0.139  12.343
 4695SOL    HW214622   2.336   0.236  12.365
 4696SOL     OW14623   2.732   0.461  11.811
 4696SOL    HW114624   2.684   0.515  11.748
 4696SOL    HW214625   2.753   0.381  11.762
 4697SOL     OW14626   2.858   0.040  11.952
 4697SOL    HW114627   2.822   0.068  11.868
 4697SOL    HW214628   2.868   3.945  11.943
 4698SOL     OW14629   3.301   1.162  12.030
 4698SOL    HW114630   3.230   1.098  12.028
 4698SOL    HW214631   3.326   1.172  11.938
 4699SOL     OW14632   3.326   0.607  12.147
 4699SOL    HW114633   3.274   0.527  12.152
 4699SOL    HW214634   3.387   0.601  12.221
 4700SOL     OW14635   3.722   0.824  11.547
 4700SOL    HW114636   3.764   0.767  11.611
 4700SOL    HW214637   3.683   0.764  11.483
 4701SOL     OW14638   2.355   1.419  11.326
 4701SOL    HW114639   2.280   1.393  11.380
 4701SOL    HW214640   2.340   1.377  11.242
 4702SOL     OW14641   3.529   1.265  11.817
 4702SOL    HW114642   3.624   1.269  11.826
 4702SOL    HW214643   3.499   1.354  11.837
 4703SOL     OW14644   3.257   0.575  11.241
 4703SOL    HW114645   3.193   0.556  11.310
 4703SOL    HW214646   3.342   0.558  11.282
 4704SOL     OW14647   2.389   0.266  11.488
 4704SOL    HW114648   2.443   0.227  11.420
 4704SOL    HW214649   2.361   0.350  11.452
 4705SOL     OW14650   3.614   1.234  12.740
 4705SOL    HW114651   3.701   1.199  12.722
 4705SOL    HW214652   3.630   1.323  12.770
 4706SOL     OW14653   2.919   1.354  12.505
 4706SOL    HW114654   2.844   1.322  12.556
 4706SOL    HW214655   2.995   1.312  12.546
 4707SOL     OW14656   3.468   1.628  12.827
 4707SOL    HW114657   3.460   1.662  12.738
 4707SOL    HW214658   3.549   1.577  12.827
 4708SOL     OW14659   2.993   1.205  12.276
 4708SOL    HW114660   2.933   1.243  12.341
 4708SOL    HW214661   2.961   1.238  12.192
 4709SOL     OW14662   3.491   1.096  12.247
 4709SOL    HW114663   3.483   1.158  12.320
 4709SOL    HW214664   3.414   1.113  12.193
 4710SOL     OW14665   2.774   0.115  12.573
 4710SOL    HW114666   2.794   0.088  12.484
 4710SOL    HW214667   2.855   0.157  12.604
 4711SOL     OW14668   2.846   1.115  12.896
 4711SOL    HW114669   2.755   1.132  12.917
 4711SOL    HW214670   2.844   1.037  12.840
 4712SOL     OW14671   2.571   1.062  11.543
 4712SOL    HW114672   2.556   1.044  11.636
 4712SOL    HW214673   2.646   1.008  11.519
 4713SOL     OW14674   2.282   0.816  12.423
 4713SOL    HW114675   2.350   0.824  12.490
 4713SOL    HW214676   2.247   0.728  12.436
 4714SOL     OW14677   3.129   0.375  12.448
 4714SOL    HW114678   3.163   0.453  12.492
 4714SOL    HW214679   3.041   0.401  12.418
 4715SOL     OW14680   1.935   1.577  12.526
 4715SOL    HW114681   1.900   1.642  12.464
 4715SOL    HW214682   2.030   1.580  12.512
 4716SOL     OW14683   2.209   1.110  11.663
 4716SOL    HW114684   2.214   1.186  11.604
 4716SOL    HW214685   2.206   1.034  11.604
 4717SOL     OW14686   2.417   0.533  12.029
 4717SOL    HW114687   2.431   0.593  11.956
 4717SOL    HW214688   2.481   0.561  12.095
 4718SOL     OW14689   3.110   1.349  11.561
 4718SOL    HW114690   3.166   1.420  11.592
 4718SOL    HW214691   3.023   1.370  11.595
 4719SOL     OW14692   3.145   1.459  12.319
 4719SOL    HW114693   3.201   1.462  12.397
 4719SOL    HW214694   3.090   1.382  12.333
 4720SOL     OW14695   3.435   0.632  11.656
 4720SOL    HW114696   3.394   0.688  11.722
 4720SOL    HW214697   3.483   0.692  11.599
 4721SOL     OW14698   2.216   1.512  12.489
 4721SOL    HW114699   2.201   1.471  12.404
 4721SOL    HW214700   2.311   1.523  12.494
 4722SOL     OW14701   2.278   0.745  12.774
 4722SOL    HW114702   2.339   0.790  12.716
 4722SOL    HW214703   2.319   0.660  12.791
 4723SOL     OW14704   3.465   0.778  12.854
 4723SOL    HW114705   3.379   0.820  12.848
 4723SOL    HW214706   3.518   0.820  12.787
 4724SOL     OW14707   2.879   0.129  12.952
 4724SOL    HW114708   2.924   0.204  12.912
 4724SOL    HW214709   2.861   0.070  12.879
 4725SOL     OW14710   2.349   0.034  12.934
 4725SOL    HW114711   2.353   0.045  12.839
 4725SOL    HW214712   2.290   0.103  12.964
 4726SOL     OW14713   2.446   0.873  12.204
 4726SOL    HW114714   2.475   0.965  12.204
 4726SOL    HW214715   2.389   0.866  12.280
 4727SOL     OW14716   3.217   0.859  12.199
 4727SOL    HW114717   3.133   0.848  12.155
 4727SOL    HW214718   3.259   0.773  12.192
 4728SOL     OW14719   3.064   0.536  11.431
 4728SOL    HW114720   3.072   0.457  11.485
 4728SOL    HW214721   3.021   0.600  11.488
 4729SOL     OW14722   2.162   0.210  12.415
 4729SOL    HW114723   2.121   0.239  12.496
 4729SOL    HW214724   2.150   0.115  12.414
 4730SOL     OW14725   1.905   1.313  12.450
 4730SOL    HW114726   1.940   1.257  12.520
 4730SOL    HW214727   1.915   1.402  12.483
 4731SOL     OW14728   2.585   0.632  12.225
 4731SOL    HW114729   2.660   0.619  12.168
 4731SOL    HW214730   2.556   0.721  12.206
 4732SOL     OW14731   3.595   0.955  13.034
 4732SOL    HW114732   3.551   0.897  12.972
 4732SOL    HW214733   3.531   0.970  13.103
 4733SOL     OW14734   2.184   0.056  11.822
 4733SOL    HW114735   2.164   0.149  11.833
 4733SOL    HW214736   2.147   0.014  11.899
 4734SOL     OW14737   3.473   0.391  11.552
 4734SOL    HW114738   3.437   0.322  11.608
 4734SOL    HW214739   3.451   0.472  11.597
 4735SOL     OW14740   2.891   0.759  12.131
 4735SOL    HW114741   2.885   0.776  12.225
 4735SOL    HW214742   2.864   0.668  12.122
 4736SOL     OW14743   2.844   1.567  12.890
 4736SOL    HW114744   2.829   1.610  12.806
 4736SOL    HW214745   2.887   1.485  12.867
 4737SOL     OW14746   3.706   1.500  12.771
 4737SOL    HW114747   3.729   1.529  12.682
 4737SOL    HW214748   3.786   1.512  12.821
 4738SOL     OW14749   2.214   0.914  12.982
 4738SOL    HW114750   2.297   0.935  13.027
 4738SOL    HW214751   2.240   0.853  12.913
 4739SOL     OW14752   3.365   0.274  11.307
 4739SOL    HW114753   3.291   0.215  11.318
 4739SOL    HW214754   3.378   0.313  11.393
 4740SOL     OW14755   3.151   0.826  11.201
 4740SOL    HW114756   3.194   0.741  11.204
 4740SOL    HW214757   3.184   0.866  11.120
 4741SOL     OW14758   2.928   1.336  12.027
 4741SOL    HW114759   2.932   1.264  11.964
 4741SOL    HW214760   2.989   1.402  11.992
 4742SOL     OW14761   2.170   0.809  12.119
 4742SOL    HW114762   2.263   0.831  12.112
 4742SOL    HW214763   2.168   0.719  12.151
 4743SOL     OW14764   2.198   0.535  12.185
 4743SOL    HW114765   2.157   0.450  12.170
 4743SOL    HW214766   2.275   0.536  12.127
 4744SOL     OW14767   2.995   0.381  12.867
 4744SOL    HW114768   2.946   0.436  12.929
 4744SOL    HW214769   3.082   0.421  12.863
 4745SOL     OW14770   3.013   0.226  12.653
 4745SOL    HW114771   3.004   0.280  12.731
 4745SOL    HW214772   3.037   0.287  12.584
 4746SOL     OW14773   1.866   1.319  11.366
 4746SOL    HW114774   1.779   1.332  11.329
 4746SOL    HW214775   1.865   1.230  11.400
 4747SOL     OW14776   1.978   1.729  12.157
 4747SOL    HW114777   1.941   1.666  12.097
 4747SOL    HW214778   2.016   1.797  12.101
 4748SOL     OW14779   2.361   1.570  12.082
 4748SOL    HW114780   2.428   1.635  12.104
 4748SOL    HW214781   2.404   1.510  12.022
 4749SOL     OW14782   2.842   0.789  12.396
 4749SOL    HW114783   2.898   0.769  12.472
 4749SOL    HW214784   2.756   0.754  12.421
 4750SOL     OW14785   1.895   0.547  12.289
 4750SOL    HW114786   1.970   0.521  12.235
 4750SOL    HW214787   1.929   0.547  12.379
 4751SOL     OW14788   2.065   0.527  12.885
 4751SOL    HW114789   2.135   0.505  12.823
 4751SOL    HW214790   2.020   0.601  12.846
 4752SOL     OW14791   3.241   0.937  12.830
 4752SOL    HW114792   3.262   1.031  12.827
 4752SOL    HW214793   3.237   0.911  12.738
 4753SOL     OW14794   2.679   0.572  11.535
 4753SOL    HW114795   2.684   0.497  11.476
 4753SOL    HW214796   2.604   0.622  11.502
 4754SOL     OW14797   3.502   0.602  12.356
 4754SOL    HW114798   3.491   0.541  12.429
 4754SOL    HW214799   3.588   0.581  12.320
 4755SOL     OW14800   2.115   1.536  12.879
 4755SOL    HW114801   2.098   1.605  12.942
 4755SOL    HW214802   2.117   1.455  12.931
 4756SOL     OW14803   2.567   0.454  12.429
 4756SOL    HW114804   2.517   0.377  12.404
 4756SOL    HW214805   2.559   0.513  12.355
 4757SOL     OW14806   2.788   1.679  12.640
 4757SOL    HW114807   2.763   1.643  12.555
 4757SOL    HW214808   2.783   1.774  12.628
 4758SOL     OW14809   2.326   0.494  11.356
 4758SOL    HW114810   2.383   0.567  11.380
 4758SOL    HW214811   2.240   0.534  11.343
 4759SOL     OW14812   2.005   1.141  12.645
 4759SOL    HW114813   2.007   1.090  12.726
 4759SOL    HW214814   2.022   1.076  12.576
 4760SOL     OW14815   3.185   1.045  12.395
 4760SOL    HW114816   3.209   0.983  12.326
 4760SOL    HW214817   3.117   1.099  12.355
 4761SOL     OW14818   3.175   0.855  11.477
 4761SOL    HW114819   3.099   0.827  11.529
 4761SOL    HW214820   3.148   0.843  11.386
 4762SOL     OW14821   3.641   1.742  12.328
 4762SOL    HW114822   3.696   1.770  12.255
 4762SOL    HW214823   3.612   1.654  12.304
 4763SOL     OW14824   3.103   1.734  12.283
 4763SOL    HW114825   3.185   1.755  12.239
 4763SOL    HW214826   3.110   1.640  12.302
 4764SOL     OW14827   1.949   1.263  12.186
 4764SOL    HW114828   1.931   1.279  12.279
 4764SOL    HW214829   1.874   1.211  12.157
 4765SOL     OW14830   2.539   1.667  12.902
 4765SOL    HW114831   2.486   1.746  12.900
 4765SOL    HW214832   2.605   1.681  12.834
 4766SOL     OW14833   3.552   0.120  11.659
 4766SOL    HW114834   3.633   0.135  11.611
 4766SOL    HW214835   3.554   0.027  11.681
 4767SOL     OW14836   3.252   1.567  11.659
 4767SOL    HW114837   3.312   1.600  11.592
 4767SOL    HW214838   3.203   1.645  11.687
 4768SOL     OW14839   2.038   1.736  13.034
 4768SOL    HW114840   1.970   1.698  13.089
 4768SOL    HW214841   2.009   1.825  13.018
 4769SOL     OW14842   3.139   0.926  11.843
 4769SOL    HW114843   3.214   0.867  11.852
 4769SOL    HW214844   3.173   0.999  11.790
 4770SOL     OW14845   2.673   1.274  12.600
 4770SOL    HW114846   2.645   1.314  12.683
 4770SOL    HW214847   2.604   1.295  12.538
 4771SOL     OW14848   2.537   1.621  11.323
 4771SOL    HW114849   2.545   1.632  11.228
 4771SOL    HW214850   2.480   1.545  11.334
 4772SOL     OW14851   3.483   1.727  12.563
 4772SOL    HW114852   3.538   1.732  12.485
 4772SOL    HW214853   3.470   1.818  12.589
 4773SOL     OW14854   3.703   0.181  12.143
 4773SOL    HW114855   3.727   0.097  12.104
 4773SOL    HW214856   3.617   0.200  12.106
 4774SOL     OW14857   2.126   0.316  11.887
 4774SOL    HW114858   2.040   0.351  11.865
 4774SOL    HW214859   2.125   0.307  11.982
 4775SOL     OW14860   3.069   1.605  11.204
 4775SOL    HW114861   3.059   1.513  11.231
 4775SOL    HW214862   3.004   1.617  11.135
 4776SOL     OW14863   2.686   1.006  12.545
 4776SOL    HW114864   2.728   1.002  12.458
 4776SOL    HW214865   2.684   1.099  12.567
 4777SOL     OW14866   2.778   0.910  11.462
 4777SOL    HW114867   2.839   0.943  11.396
 4777SOL    HW214868   2.826   0.842  11.508
 4778SOL     OW14869   3.352   1.627  11.215
 4778SOL    HW114870   3.257   1.619  11.200
 4778SOL    HW214871   3.389   1.633  11.127
 4779SOL     OW14872   2.232   1.296  12.665
 4779SOL    HW114873   2.221   1.374  12.611
 4779SOL    HW214874   2.153   1.244  12.649
 4780SOL     OW14875   3.464   1.280  12.450
 4780SOL    HW114876   3.532   1.273  12.517
 4780SOL    HW214877   3.407   1.350  12.481
 4781SOL     OW14878   2.917   1.108  11.880
 4781SOL    HW114879   2.845   1.058  11.918
 4781SOL    HW214880   2.979   1.042  11.849
 4782SOL     OW14881   2.877   0.248  12.141
 4782SOL    HW114882   2.866   0.198  12.060
 4782SOL    HW214883   2.872   0.183  12.211
 4783SOL     OW14884   2.465   1.489  11.653
 4783SOL    HW114885   2.507   1.440  11.583
 4783SOL    HW214886   2.403   1.547  11.607
 4784SOL     OW14887   3.582   0.393  12.544
 4784SOL    HW114888   3.654   0.457  12.544
 4784SOL    HW214889   3.614   0.321  12.490
 4785SOL     OW14890   2.121   1.344  11.458
 4785SOL    HW114891   2.028   1.341  11.437
 4785SOL    HW214892   2.125   1.378  11.547
 4786SOL     OW14893   1.975   1.024  12.893
 4786SOL    HW114894   1.899   1.000  12.945
 4786SOL    HW214895   2.049   0.985  12.939
 4787SOL     OW14896   2.555   0.252  12.672
 4787SOL    HW114897   2.622   0.198  12.631
 4787SOL    HW214898   2.582   0.259  12.764
 4788SOL     OW14899   1.961   0.318  11.163
 4788SOL    HW114900   1.891   0.337  11.226
 4788SOL    HW214901   1.971   0.399  11.113
 4789SOL     OW14902   3.288   0.857  12.571
 4789SOL    HW114903   3.239   0.919  12.517
 4789SOL    HW214904   3.377   0.859  12.535
 4790SOL     OW14905   1.943   0.153  11.512
 4790SOL    HW114906   1.913   0.213  11.444
 4790SOL    HW214907   2.029   0.124  11.482
 4791SOL     OW14908   3.040   1.338  11.289
 4791SOL    HW114909   2.949   1.308  11.291
 4791SOL    HW214910   3.068   1.339  11.381
 4792SOL     OW14911   2.483   0.829  12.606
 4792SOL    HW114912   2.539   0.905  12.591
 4792SOL    HW214913   2.544   0.756  12.614
 4793SOL     OW14914   3.344   1.780  12.152
 4793SOL    HW114915   3.368   1.841  12.081
 4793SOL    HW214916   3.428   1.754  12.190
 4794SOL     OW14917   2.580   0.562  12.877
 4794SOL    HW114918   2.621   0.624  12.936
 4794SOL    HW214919   2.607   0.476  12.910
 4795SOL     OW14920   3.334   1.198  12.803
 4795SOL    HW114921   3.323   1.213  12.897
 4795SOL    HW214922   3.427   1.214  12.787
 4796SOL     OW14923   2.238   1.746  12.743
 4796SOL    HW114924   2.166   1.758  12.680
 4796SOL    HW214925   2.218   1.662  12.785
 4797SOL     OW14926   3.527   0.881  12.431
 4797SOL    HW114927   3.526   0.796  12.387
 4797SOL    HW214928   3.521   0.945  12.360
 4798SOL     OW14929   3.083   0.336  11.616
 4798SOL    HW114930   3.151   0.270  11.607
 4798SOL    HW214931   3.104   0.381  11.698
 4799SOL     OW14932   2.452   0.737  11.842
 4799SOL    HW114933   2.490   0.823  11.827
 4799SOL    HW214934   2.385   0.729  11.775
 4800SOL     OW14935   3.617   0.381  12.814
 4800SOL    HW114936   3.596   0.389  12.721
 4800SOL    HW214937   3.557   0.313  12.846
 4801SOL     OW14938   3.616   0.931  12.686
 4801SOL    HW114939   3.607   1.025  12.702
 4801SOL    HW214940   3.592   0.920  12.594
 4802SOL     OW14941   2.725   1.367  11.208
 4802SOL    HW114942   2.686   1.393  11.292
 4802SOL    HW214943   2.741   1.449  11.162
 4803SOL     OW14944   2.524   1.793  12.115
 4803SOL    HW114945   2.508   1.884  12.089
 4803SOL    HW214946   2.618   1.782  12.107
 4804SOL     OW14947   2.730   0.968  12.027
 4804SOL    HW114948   2.780   0.897  12.066
 4804SOL    HW214949   2.694   1.016  12.102
 4805SOL     OW14950   2.941   0.989  11.261
 4805SOL    HW114951   2.919   1.040  11.184
 4805SOL    HW214952   3.015   0.935  11.234
 4806SOL     OW14953   3.715   1.556  12.014
 4806SOL    HW114954   3.636   1.540  11.962
 4806SOL    HW214955   3.714   1.489  12.082
 4807SOL     OW14956   2.089   1.300  13.028
 4807SOL    HW114957   2.020   1.239  13.001
 4807SOL    HW214958   2.075   1.312  13.122
 4808SOL     OW14959   1.942   1.225  11.838
 4808SOL    HW114960   1.955   1.180  11.921
 4808SOL    HW214961   2.015   1.196  11.783
 4809SOL     OW14962   2.543   1.404  12.800
 4809SOL    HW114963   2.464   1.361  12.832
 4809SOL    HW214964   2.539   1.492  12.837
 4810SOL     OW14965   3.677   0.182  12.416
 4810SOL    HW114966   3.678   0.086  12.424
 4810SOL    HW214967   3.694   0.198  12.324
 4811SOL     OW14968   2.290   0.434  11.697
 4811SOL    HW114969   2.324   0.363  11.643
 4811SOL    HW214970   2.243   0.391  11.768
 4812SOL     OW14971   3.559   1.491  12.269
 4812SOL    HW114972   3.480   1.468  12.220
 4812SOL    HW214973   3.570   1.419  12.332
 4813SOL     OW14974   2.192   0.556  12.466
 4813SOL    HW114975   2.246   0.497  12.520
 4813SOL    HW214976   2.212   0.529  12.376
 4814SOL     OW14977   2.689   1.578  11.849
 4814SOL    HW114978   2.673   1.633  11.772
 4814SOL    HW214979   2.615   1.519  11.852
 4815SOL     OW14980   3.324   0.252  12.283
 4815SOL    HW114981   3.337   0.164  12.318
 4815SOL    HW214982   3.267   0.295  12.347
 4816SOL     OW14983   2.867   0.028  12.319
 4816SOL    HW114984   2.787   3.988  12.284
 4816SOL    HW214985   2.929   3.955  12.327
 4817SOL     OW14986   2.636   1.333  11.487
 4817SOL    HW114987   2.604   1.243  11.495
 4817SOL    HW214988   2.716   1.334  11.539
 4818SOL     OW14989   2.484   1.555  12.459
 4818SOL    HW114990   2.484   1.638  12.507
 4818SOL    HW214991   2.571   1.548  12.421
 4819SOL     OW14992   3.174   0.071  11.332
 4819SOL    HW114993   3.182   3.992  11.278
 4819SOL    HW214994   3.089   0.063  11.375
 4820SOL     OW14995   3.144   0.457  11.858
 4820SOL    HW114996   3.097   0.540  11.853
 4820SOL    HW214997   3.147   0.437  11.951
 4821SOL     OW14998   3.452   0.210  12.039
 4821SOL    HW114999   3.404   0.234  12.118
 4821SOL    HW215000   3.451   0.290  11.986
 4822SOL     OW15001   1.906   1.071  11.477
 4822SOL    HW115002   2.000   1.063  11.461
 4822SOL    HW215003   1.878   0.982  11.502
 4823SOL     OW15004   2.747   1.655  11.513
 4823SOL    HW115005   2.675   1.637  11.453
 4823SOL    HW215006   2.717   1.729  11.566
 4824SOL     OW15007   2.090   0.620  13.156
 4824SOL    HW115008   1.999   0.626  13.187
 4824SOL    HW215009   2.082   0.600  13.062
 4825SOL     OW15010   2.114   0.264   0.126
 4825SOL    HW115011   2.151   0.326   0.189
 4825SOL    HW215012   2.019   0.279   0.131
 4826SOL     OW15013   1.871   0.389  13.646
 4826SOL    HW115014   1.778   0.400  13.665
 4826SOL    HW215015   1.878   0.300  13.611
 4827SOL     OW15016   3.389   1.499  13.725
 4827SOL    HW115017   3.332   1.436  13.769
 4827SOL    HW215018   3.344   1.520  13.644
 4828SOL     OW15019   2.992   0.700  13.733
 4828SOL    HW115020   3.046   0.775  13.708
 4828SOL    HW215021   2.938   0.732  13.805
 4829SOL     OW15022   3.630   0.620  13.260
 4829SOL    HW115023   3.609   0.612  13.167
 4829SOL    HW215024   3.605   0.536  13.298
 4830SOL     OW15025   2.546   1.012  13.672
 4830SOL    HW115026   2.600   0.990  13.748
 4830SOL    HW215027   2.472   1.060  13.708
 4831SOL     OW15028   3.479   0.461  13.765
 4831SOL    HW115029   3.394   0.471  13.721
 4831SOL    HW215030   3.499   0.548  13.798
 4832SOL     OW15031   2.095   1.690  13.497
 4832SOL    HW115032   2.112   1.758  13.561
 4832SOL    HW215033   2.171   1.693  13.438
 4833SOL     OW15034   2.096   1.428  13.569
 4833SOL    HW115035   2.086   1.523  13.561
 4833SOL    HW215036   2.031   1.403  13.635
 4834SOL     OW15037   2.101   1.107   0.026
 4834SOL    HW115038   2.121   1.044   0.095
 4834SOL    HW215039   2.034   1.164   0.065
 4835SOL     OW15040   2.445   0.983  13.168
 4835SOL    HW115041   2.492   1.030  13.099
 4835SOL    HW215042   2.484   1.015  13.250
 4836SOL     OW15043   1.980   0.657  13.588
 4836SOL    HW115044   1.950   0.567  13.601
 4836SOL    HW215045   1.964   0.701  13.672
 4837SOL     OW15046   3.702   1.758  13.370
 4837SOL    HW115047   3.772   1.732  13.429
 4837SOL    HW215048   3.721   1.849  13.348
 4838SOL     OW15049   1.859   1.608  13.196
 4838SOL    HW115050   1.850   1.515  13.175
 4838SOL    HW215051   1.892   1.610  13.286
 4839SOL     OW15052   3.546   0.914  13.667
 4839SOL    HW115053   3.635   0.883  13.649
 4839SOL    HW215054   3.525   0.972  13.593
 4840SOL     OW15055   3.504   1.104  13.463
 4840SOL    HW115056   3.588   1.110  13.417
 4840SOL    HW215057   3.511   1.168  13.534
 4841SOL     OW15058   2.466   1.384  13.760
 4841SOL    HW115059   2.423   1.299  13.767
 4841SOL    HW215060   2.444   1.415  13.672
 4842SOL     OW15061   2.682   0.004  13.551
 4842SOL    HW115062   2.726   0.084  13.524
 4842SOL    HW215063   2.589   0.026  13.548
 4843SOL     OW15064   3.390   0.994  13.234
 4843SOL    HW115065   3.321   0.937  13.268
 4843SOL    HW215066   3.431   1.031  13.313
 4844SOL     OW15067   3.516   1.743  13.613
 4844SOL    HW115068   3.497   1.712  13.524
 4844SOL    HW215069   3.510   1.664  13.667
 4845SOL     OW15070   2.455   0.722  13.300
 4845SOL    HW115071   2.460   0.804  13.251
 4845SOL    HW215072   2.391   0.737  13.368
 4846SOL     OW15073   3.104   0.340   0.053
 4846SOL    HW115074   3.015   0.325   0.084
 4846SOL    HW215075   3.160   0.297   0.118
 4847SOL     OW15076   3.440   1.674  13.342
 4847SOL    HW115077   3.531   1.702  13.337
 4847SOL    HW215078   3.415   1.656  13.252
 4848SOL     OW15079   2.911   0.696  13.459
 4848SOL    HW115080   2.925   0.684  13.553
 4848SOL    HW215081   2.829   0.651  13.441
 4849SOL     OW15082   1.942   0.817  13.811
 4849SOL    HW115083   2.023   0.815  13.861
 4849SOL    HW215084   1.896   0.895  13.844
 4850SOL     OW15085   2.756   0.351  13.232
 4850SOL    HW115086   2.798   0.410  13.169
 4850SOL    HW215087   2.751   0.267  13.187
 4851SOL     OW15088   3.225   1.135  13.552
 4851SOL    HW115089   3.315   1.135  13.520
 4851SOL    HW215090   3.182   1.207  13.506
 4852SOL     OW15091   2.863   1.440  13.503
 4852SOL    HW115092   2.831   1.516  13.454
 4852SOL    HW215093   2.833   1.455  13.593
 4853SOL     OW15094   2.267   1.787  13.849
 4853SOL    HW115095   2.241   1.703  13.888
 4853SOL    HW215096   2.340   1.816   0.002
 4854SOL     OW15097   3.652   1.054  13.898
 4854SOL    HW115098   3.593   1.049  13.823
 4854SOL    HW215099   3.595   1.050   0.075
 4855SOL     OW15100   2.182   0.959  13.287
 4855SOL    HW115101   2.263   0.979  13.240
 4855SOL    HW215102   2.151   0.877  13.248
 4856SOL     OW15103   3.353   0.731  13.752
 4856SOL    HW115104   3.339   0.694  13.839
 4856SOL    HW215105   3.421   0.798  13.765
 4857SOL     OW15106   2.984   1.778  13.264
 4857SOL    HW115107   2.910   1.738  13.309
 4857SOL    HW215108   3.008   1.716  13.195
 4858SOL     OW15109   3.488   1.383  13.120
 4858SOL    HW115110   3.445   1.467  13.106
 4858SOL    HW215111   3.420   1.318  13.102
 4859SOL     OW15112   2.340   1.714  13.374
 4859SOL    HW115113   2.374   1.790  13.422
 4859SOL    HW215114   2.396   1.708  13.297
 4860SOL     OW15115   3.284   0.164  13.441
 4860SOL    HW115116   3.249   0.105  13.375
 4860SOL    HW215117   3.373   0.133  13.457
 4861SOL     OW15118   2.786   1.690   0.010
 4861SOL    HW115119   2.814   1.624   0.073
 4861SOL    HW215120   2.746   1.639  13.839
 4862SOL     OW15121   2.255   0.698  13.507
 4862SOL    HW115122   2.276   0.605  13.518
 4862SOL    HW215123   2.161   0.704  13.524
 4863SOL     OW15124   2.505   0.132  13.141
 4863SOL    HW115125   2.531   0.048  13.180
 4863SOL    HW215126   2.443   0.107  13.073
 4864SOL     OW15127   2.411   0.056  13.526
 4864SOL    HW115128   2.336   0.059  13.585
 4864SOL    HW215129   2.404   0.136  13.474
 4865SOL     OW15130   3.289   1.199  13.075
 4865SOL    HW115131   3.319   1.123  13.126
 4865SOL    HW215132   3.204   1.221  13.112
 4866SOL     OW15133   2.192   0.044  13.242
 4866SOL    HW115134   2.203   0.111  13.175
 4866SOL    HW215135   2.276   0.042  13.288
 4867SOL     OW15136   2.802   0.247  13.493
 4867SOL    HW115137   2.776   0.289  13.411
 4867SOL    HW215138   2.898   0.255  13.494
 4868SOL     OW15139   2.325   1.143  13.771
 4868SOL    HW115140   2.252   1.130  13.831
 4868SOL    HW215141   2.288   1.131  13.684
 4869SOL     OW15142   3.131   1.796  13.634
 4869SOL    HW115143   3.175   1.862  13.581
 4869SOL    HW215144   3.064   1.844  13.682
 4870SOL     OW15145   2.884   0.544  13.061
 4870SOL    HW115146   2.840   0.627  13.041
 4870SOL    HW215147   2.947   0.566  13.129
 4871SOL     OW15148   2.759   0.474  13.668
 4871SOL    HW115149   2.689   0.519  13.620
 4871SOL    HW215150   2.765   0.388  13.626
 4872SOL     OW15151   2.863   0.039  13.796
 4872SOL    HW115152   2.830   0.064  13.709
 4872SOL    HW215153   2.885   3.946  13.787
 4873SOL     OW15154   3.728   0.822  13.409
 4873SOL    HW115155   3.774   0.765  13.471
 4873SOL    HW215156   3.689   0.761  13.346
 4874SOL     OW15157   2.355   1.419  13.188
 4874SOL    HW115158   2.280   1.393  13.241
 4874SOL    HW215159   2.340   1.378  13.103
 4875SOL     OW15160   3.539   1.268  13.668
 4875SOL    HW115161   3.633   1.272  13.684
 4875SOL    HW215162   3.505   1.351  13.700
 4876SOL     OW15163   3.256   0.575  13.104
 4876SOL    HW115164   3.193   0.556  13.173
 4876SOL    HW215165   3.341   0.555  13.142
 4877SOL     OW15166   2.390   0.266  13.350
 4877SOL    HW115167   2.444   0.226  13.281
 4877SOL    HW215168   2.361   0.349  13.313
 4878SOL     OW15169   2.571   1.064  13.400
 4878SOL    HW115170   2.556   1.048  13.494
 4878SOL    HW215171   2.647   1.010  13.378
 4879SOL     OW15172   2.212   1.110  13.526
 4879SOL    HW115173   2.215   1.186  13.468
 4879SOL    HW215174   2.207   1.035  13.466
 4880SOL     OW15175   2.432   0.541  13.864
 4880SOL    HW115176   2.443   0.609  13.798
 4880SOL    HW215177   2.488   0.568   0.037
 4881SOL     OW15178   3.108   1.352  13.419
 4881SOL    HW115179   3.163   1.425  13.447
 4881SOL    HW215180   3.021   1.372  13.454
 4882SOL     OW15181   3.446   0.633  13.512
 4882SOL    HW115182   3.406   0.681  13.584
 4882SOL    HW215183   3.481   0.700  13.454
 4883SOL     OW15184   3.064   0.533  13.295
 4883SOL    HW115185   3.070   0.454  13.348
 4883SOL    HW215186   3.021   0.597  13.351
 4884SOL     OW15187   2.194   0.052  13.685
 4884SOL    HW115188   2.173   0.145  13.696
 4884SOL    HW215189   2.118   0.006  13.720
 4885SOL     OW15190   3.462   0.391  13.407
 4885SOL    HW115191   3.438   0.323  13.470
 4885SOL    HW215192   3.446   0.473  13.453
 4886SOL     OW15193   3.364   0.278  13.167
 4886SOL    HW115194   3.291   0.217  13.180
 4886SOL    HW215195   3.379   0.317  13.253
 4887SOL     OW15196   3.151   0.827  13.063
 4887SOL    HW115197   3.194   0.741  13.066
 4887SOL    HW215198   3.183   0.867  12.982
 4888SOL     OW15199   1.866   1.320  13.228
 4888SOL    HW115200   1.779   1.332  13.191
 4888SOL    HW215201   1.865   1.230  13.262
 4889SOL     OW15202   2.678   0.575  13.388
 4889SOL    HW115203   2.682   0.497  13.333
 4889SOL    HW215204   2.602   0.623  13.358
 4890SOL     OW15205   2.326   0.493  13.217
 4890SOL    HW115206   2.383   0.566  13.241
 4890SOL    HW215207   2.240   0.533  13.205
 4891SOL     OW15208   3.177   0.849  13.338
 4891SOL    HW115209   3.098   0.829  13.389
 4891SOL    HW215210   3.150   0.840  13.247
 4892SOL     OW15211   3.542   0.114  13.471
 4892SOL    HW115212   3.633   0.127  13.446
 4892SOL    HW215213   3.545   0.049  13.541
 4893SOL     OW15214   3.244   1.573  13.508
 4893SOL    HW115215   3.305   1.610  13.444
 4893SOL    HW215216   3.199   1.649  13.544
 4894SOL     OW15217   3.151   0.913  13.684
 4894SOL    HW115218   3.229   0.859  13.669
 4894SOL    HW215219   3.172   0.997  13.644
 4895SOL     OW15220   2.537   1.621  13.184
 4895SOL    HW115221   2.545   1.632  13.090
 4895SOL    HW215222   2.480   1.545  13.195
 4896SOL     OW15223   3.673   0.162   0.060
 4896SOL    HW115224   3.709   0.073   0.062
 4896SOL    HW215225   3.582   0.151   0.034
 4897SOL     OW15226   2.138   0.312  13.745
 4897SOL    HW115227   2.047   0.330  13.721
 4897SOL    HW215228   2.138   0.306  13.840
 4898SOL     OW15229   3.070   1.605  13.066
 4898SOL    HW115230   3.059   1.513  13.092
 4898SOL    HW215231   3.004   1.617  12.997
 4899SOL     OW15232   2.781   0.913  13.329
 4899SOL    HW115233   2.840   0.943  13.260
 4899SOL    HW215234   2.826   0.839  13.369
 4900SOL     OW15235   3.352   1.627  13.077
 4900SOL    HW115236   3.257   1.619  13.062
 4900SOL    HW215237   3.389   1.633  12.989
 4901SOL     OW15238   2.912   1.090  13.755
 4901SOL    HW115239   2.825   1.053  13.742
 4901SOL    HW215240   2.964   1.053  13.684
 4902SOL     OW15241   2.459   1.488  13.508
 4902SOL    HW115242   2.504   1.441  13.438
 4902SOL    HW215243   2.402   1.550  13.462
 4903SOL     OW15244   2.122   1.343  13.319
 4903SOL    HW115245   2.028   1.341  13.299
 4903SOL    HW215246   2.126   1.378  13.408
 4904SOL     OW15247   1.961   0.318  13.025
 4904SOL    HW115248   1.890   0.337  13.087
 4904SOL    HW215249   1.970   0.399  12.975
 4905SOL     OW15250   1.952   0.154  13.366
 4905SOL    HW115251   1.923   0.216  13.299
 4905SOL    HW215252   2.037   0.123  13.335
 4906SOL     OW15253   3.040   1.338  13.149
 4906SOL    HW115254   2.949   1.309  13.152
 4906SOL    HW215255   3.067   1.339  13.241
 4907SOL     OW15256   3.079   0.332  13.485
 4907SOL    HW115257   3.149   0.268  13.471
 4907SOL    HW215258   3.108   0.383  13.561
 4908SOL     OW15259   2.455   0.750  13.691
 4908SOL    HW115260   2.489   0.837  13.672
 4908SOL    HW215261   2.385   0.736  13.628
 4909SOL     OW15262   2.725   1.367  13.070
 4909SOL    HW115263   2.686   1.393  13.153
 4909SOL    HW215264   2.742   1.449  13.024
 4910SOL     OW15265   2.516   1.848   0.067
 4910SOL    HW115266   2.528   1.942   0.053
 4910SOL    HW215267   2.604   1.814   0.079
 4911SOL     OW15268   2.690   0.965  13.896
 4911SOL    HW115269   2.722   0.884   0.036
 4911SOL    HW215270   2.714   1.034   0.057
 4912SOL     OW15271   2.939   0.987  13.123
 4912SOL    HW115272   2.918   1.039  13.046
 4912SOL    HW215273   3.014   0.934  13.096
 4913SOL     OW15274   1.947   1.227  13.702
 4913SOL    HW115275   1.950   1.170  13.779
 4913SOL    HW215276   2.018   1.196  13.646
 4914SOL     OW15277   2.291   0.437  13.552
 4914SOL    HW115278   2.326   0.365  13.500
 4914SOL    HW215279   2.252   0.395  13.628
 4915SOL     OW15280   3.543   1.457   0.348
 4915SOL    HW115281   3.512   1.437   0.259
 4915SOL    HW215282   3.631   1.420   0.352
 4916SOL     OW15283   2.680   1.550  13.708
 4916SOL    HW115284   2.658   1.606  13.634
 4916SOL    HW215285   2.603   1.496  13.722
 4917SOL     OW15286   2.635   1.334  13.347
 4917SOL    HW115287   2.605   1.243  13.354
 4917SOL    HW215288   2.716   1.336  13.398
 4918SOL     OW15289   3.174   0.074  13.201
 4918SOL    HW115290   3.192   3.997  13.146
 4918SOL    HW215291   3.086   0.059  13.234
 4919SOL     OW15292   3.156   0.460  13.716
 4919SOL    HW115293   3.105   0.542  13.716
 4919SOL    HW215294   3.148   0.428  13.805
 4920SOL     OW15295   1.907   1.071  13.339
 4920SOL    HW115296   2.001   1.063  13.321
 4920SOL    HW215297   1.879   0.983  13.362
 4921SOL     OW15298   2.747   1.654  13.375
 4921SOL    HW115299   2.675   1.638  13.315
 4921SOL    HW215300   2.717   1.727  13.429
 4922SOL     OW15301   2.096   2.501   0.105
 4922SOL    HW115302   2.010   2.472   0.135
 4922SOL    HW215303   2.115   2.447   0.028
 4923SOL     OW15304   1.871   2.284   0.631
 4923SOL    HW115305   1.781   2.280   0.664
 4923SOL    HW215306   1.881   2.205   0.578
 4924SOL     OW15307   2.429   3.152   1.176
 4924SOL    HW115308   2.342   3.157   1.137
 4924SOL    HW215309   2.445   3.240   1.211
 4925SOL     OW15310   3.424   3.374   0.708
 4925SOL    HW115311   3.380   3.351   0.790
 4925SOL    HW215312   3.354   3.376   0.643
 4926SOL     OW15313   2.992   2.560   0.700
 4926SOL    HW115314   3.041   2.641   0.686
 4926SOL    HW215315   2.946   2.575   0.783
 4927SOL     OW15316   3.625   2.464   0.230
 4927SOL    HW115317   3.637   2.424   0.143
 4927SOL    HW215318   3.586   2.394   0.283
 4928SOL     OW15319   2.614   3.003   1.042
 4928SOL    HW115320   2.546   3.038   1.099
 4928SOL    HW215321   2.651   3.079   0.998
 4929SOL     OW15322   2.730   2.632   1.822
 4929SOL    HW115323   2.717   2.703   1.886
 4929SOL    HW215324   2.754   2.677   1.741
 4930SOL     OW15325   2.547   2.861   0.647
 4930SOL    HW115326   2.613   2.852   0.716
 4930SOL    HW215327   2.478   2.915   0.686
 4931SOL     OW15328   2.574   3.013   1.814
 4931SOL    HW115329   2.621   3.091   1.842
 4931SOL    HW215330   2.492   3.046   1.778
 4932SOL     OW15331   2.194   3.284   1.067
 4932SOL    HW115332   2.119   3.248   1.018
 4932SOL    HW215333   2.241   3.337   1.003
 4933SOL     OW15334   3.321   3.363   1.356
 4933SOL    HW115335   3.375   3.442   1.366
 4933SOL    HW215336   3.257   3.368   1.426
 4934SOL     OW15337   2.283   2.232   1.474
 4934SOL    HW115338   2.371   2.197   1.489
 4934SOL    HW215339   2.225   2.157   1.487
 4935SOL     OW15340   3.472   2.308   0.743
 4935SOL    HW115341   3.399   2.331   0.686
 4935SOL    HW215342   3.487   2.386   0.796
 4936SOL     OW15343   2.082   3.574   0.483
 4936SOL    HW115344   2.111   3.643   0.543
 4936SOL    HW215345   2.144   3.578   0.410
 4937SOL     OW15346   2.999   3.204   1.693
 4937SOL    HW115347   3.040   3.198   1.780
 4937SOL    HW215348   2.946   3.124   1.686
 4938SOL     OW15349   2.082   3.303   0.530
 4938SOL    HW115350   2.074   3.398   0.535
 4938SOL    HW215351   2.027   3.271   0.602
 4939SOL     OW15352   2.122   2.954   0.890
 4939SOL    HW115353   2.117   2.867   0.932
 4939SOL    HW215354   2.064   3.009   0.944
 4940SOL     OW15355   2.472   3.648   1.429
 4940SOL    HW115356   2.390   3.633   1.476
 4940SOL    HW215357   2.497   3.737   1.453
 4941SOL     OW15358   2.429   2.841   0.161
 4941SOL    HW115359   2.458   2.885   0.081
 4941SOL    HW215360   2.482   2.881   0.230
 4942SOL     OW15361   3.457   1.987   1.466
 4942SOL    HW115362   3.468   2.069   1.418
 4942SOL    HW215363   3.443   2.015   1.557
 4943SOL     OW15364   1.984   2.523   0.560
 4943SOL    HW115365   1.950   2.436   0.581
 4943SOL    HW215366   1.973   2.573   0.640
 4944SOL     OW15367   3.697   3.614   0.340
 4944SOL    HW115368   3.764   3.580   0.400
 4944SOL    HW215369   3.722   3.706   0.327
 4945SOL     OW15370   1.883   3.465   0.105
 4945SOL    HW115371   1.889   3.374   0.134
 4945SOL    HW215372   1.868   3.515   0.186
 4946SOL     OW15373   3.549   2.780   0.647
 4946SOL    HW115374   3.633   2.738   0.629
 4946SOL    HW215375   3.530   2.830   0.567
 4947SOL     OW15376   3.505   2.966   0.433
 4947SOL    HW115377   3.591   2.972   0.392
 4947SOL    HW215378   3.508   3.030   0.505
 4948SOL     OW15379   1.984   2.607   1.583
 4948SOL    HW115380   2.075   2.635   1.593
 4948SOL    HW215381   1.933   2.688   1.593
 4949SOL     OW15382   2.477   3.250   0.735
 4949SOL    HW115383   2.431   3.167   0.744
 4949SOL    HW215384   2.460   3.277   0.644
 4950SOL     OW15385   3.150   3.099   1.423
 4950SOL    HW115386   3.182   3.032   1.363
 4950SOL    HW215387   3.208   3.094   1.498
 4951SOL     OW15388   2.703   1.862   0.518
 4951SOL    HW115389   2.742   1.946   0.493
 4951SOL    HW215390   2.609   1.877   0.514
 4952SOL     OW15391   2.052   2.828   1.273
 4952SOL    HW115392   2.136   2.785   1.257
 4952SOL    HW215393   1.989   2.774   1.227
 4953SOL     OW15394   3.393   2.858   0.205
 4953SOL    HW115395   3.324   2.800   0.237
 4953SOL    HW215396   3.431   2.895   0.284
 4954SOL     OW15397   3.078   3.666   1.626
 4954SOL    HW115398   3.056   3.726   1.555
 4954SOL    HW215399   3.079   3.579   1.585
 4955SOL     OW15400   3.327   3.282   0.950
 4955SOL    HW115401   3.260   3.296   1.017
 4955SOL    HW215402   3.316   3.191   0.924
 4956SOL     OW15403   3.515   3.605   0.587
 4956SOL    HW115404   3.506   3.577   0.496
 4956SOL    HW215405   3.496   3.526   0.638
 4957SOL     OW15406   2.459   2.581   0.264
 4957SOL    HW115407   2.462   2.664   0.216
 4957SOL    HW215408   2.399   2.598   0.337
 4958SOL     OW15409   3.140   2.218   0.933
 4958SOL    HW115410   3.051   2.183   0.941
 4958SOL    HW215411   3.192   2.165   0.993
 4959SOL     OW15412   3.421   3.595   0.313
 4959SOL    HW115413   3.517   3.596   0.313
 4959SOL    HW215414   3.398   3.558   0.228
 4960SOL     OW15415   2.654   2.480   1.448
 4960SOL    HW115416   2.630   2.456   1.538
 4960SOL    HW215417   2.615   2.412   1.394
 4961SOL     OW15418   3.255   2.335   1.678
 4961SOL    HW115419   3.258   2.380   1.763
 4961SOL    HW215420   3.315   2.261   1.688
 4962SOL     OW15421   2.815   2.749   1.583
 4962SOL    HW115422   2.870   2.679   1.547
 4962SOL    HW215423   2.767   2.784   1.508
 4963SOL     OW15424   2.855   2.275   1.237
 4963SOL    HW115425   2.769   2.295   1.273
 4963SOL    HW215426   2.837   2.229   1.155
 4964SOL     OW15427   2.913   2.563   0.429
 4964SOL    HW115428   2.930   2.555   0.523
 4964SOL    HW215429   2.830   2.517   0.415
 4965SOL     OW15430   1.951   2.687   0.776
 4965SOL    HW115431   2.032   2.681   0.828
 4965SOL    HW215432   1.906   2.763   0.812
 4966SOL     OW15433   1.984   3.706   1.576
 4966SOL    HW115434   1.986   3.686   1.670
 4966SOL    HW215435   1.891   3.705   1.553
 4967SOL     OW15436   2.732   2.221   0.215
 4967SOL    HW115437   2.770   2.281   0.152
 4967SOL    HW215438   2.744   2.134   0.177
 4968SOL     OW15439   3.572   2.436   1.828
 4968SOL    HW115440   3.533   2.510   1.780
 4968SOL    HW215441   3.596   2.373   1.761
 4969SOL     OW15442   3.238   3.003   0.543
 4969SOL    HW115443   3.317   2.991   0.490
 4969SOL    HW215444   3.186   3.067   0.494
 4970SOL     OW15445   2.411   2.051   0.895
 4970SOL    HW115446   2.412   2.076   0.988
 4970SOL    HW215447   2.429   2.133   0.849
 4971SOL     OW15448   2.866   3.305   0.474
 4971SOL    HW115449   2.833   3.379   0.425
 4971SOL    HW215450   2.846   3.325   0.566
 4972SOL     OW15451   2.213   3.673   0.842
 4972SOL    HW115452   2.263   3.593   0.859
 4972SOL    HW215453   2.274   3.744   0.862
 4973SOL     OW15454   3.666   2.922   0.868
 4973SOL    HW115455   3.612   2.899   0.793
 4973SOL    HW215456   3.605   2.926   0.941
 4974SOL     OW15457   3.089   3.399   1.512
 4974SOL    HW115458   3.076   3.327   1.573
 4974SOL    HW215459   3.023   3.386   1.444
 4975SOL     OW15460   2.173   2.801   0.232
 4975SOL    HW115461   2.264   2.813   0.206
 4975SOL    HW215462   2.158   2.706   0.225
 4976SOL     OW15463   3.340   2.606   0.726
 4976SOL    HW115464   3.334   2.564   0.812
 4976SOL    HW215465   3.418   2.662   0.732
 4977SOL     OW15466   2.329   3.127   1.737
 4977SOL    HW115467   2.302   3.132   1.645
 4977SOL    HW215468   2.247   3.125   1.786
 4978SOL     OW15469   2.988   3.640   0.232
 4978SOL    HW115470   2.924   3.594   0.287
 4978SOL    HW215471   3.014   3.575   0.167
 4979SOL     OW15472   3.493   3.238   0.086
 4979SOL    HW115473   3.456   3.321   0.055
 4979SOL    HW215474   3.426   3.173   0.066
 4980SOL     OW15475   2.338   3.595   0.324
 4980SOL    HW115476   2.371   3.659   0.387
 4980SOL    HW215477   2.415   3.570   0.273
 4981SOL     OW15478   3.265   1.972   0.437
 4981SOL    HW115479   3.260   1.940   0.347
 4981SOL    HW215480   3.359   1.970   0.458
 4982SOL     OW15481   2.122   3.654   1.224
 4982SOL    HW115482   2.169   3.584   1.270
 4982SOL    HW215483   2.107   3.619   1.137
 4983SOL     OW15484   2.800   3.562   0.900
 4983SOL    HW115485   2.878   3.510   0.921
 4983SOL    HW215486   2.756   3.513   0.831
 4984SOL     OW15487   2.255   2.556   0.473
 4984SOL    HW115488   2.275   2.463   0.485
 4984SOL    HW215489   2.162   2.564   0.495
 4985SOL     OW15490   3.396   2.087   1.725
 4985SOL    HW115491   3.406   2.108   1.818
 4985SOL    HW215492   3.328   2.020   1.723
 4986SOL     OW15493   2.626   2.139   1.754
 4986SOL    HW115494   2.705   2.084   1.752
 4986SOL    HW215495   2.581   2.114   1.835
 4987SOL     OW15496   2.738   3.382   1.195
 4987SOL    HW115497   2.722   3.347   1.107
 4987SOL    HW215498   2.808   3.328   1.230
 4988SOL     OW15499   3.202   2.451   1.433
 4988SOL    HW115500   3.233   2.420   1.518
 4988SOL    HW215501   3.238   2.539   1.425
 4989SOL     OW15502   2.678   3.255   0.941
 4989SOL    HW115503   2.763   3.243   0.897
 4989SOL    HW215504   2.614   3.258   0.870
 4990SOL     OW15505   2.789   2.370   0.902
 4990SOL    HW115506   2.765   2.362   0.810
 4990SOL    HW215507   2.822   2.283   0.926
 4991SOL     OW15508   2.447   1.923   0.481
 4991SOL    HW115509   2.374   1.914   0.542
 4991SOL    HW215510   2.428   2.002   0.432
 4992SOL     OW15511   3.292   3.067   0.045
 4992SOL    HW115512   3.312   2.986   0.092
 4992SOL    HW215513   3.200   3.085   0.064
 4993SOL     OW15514   2.807   2.111   0.461
 4993SOL    HW115515   2.775   2.150   0.379
 4993SOL    HW215516   2.901   2.130   0.461
 4994SOL     OW15517   2.943   2.544   1.459
 4994SOL    HW115518   2.876   2.476   1.464
 4994SOL    HW215519   3.026   2.496   1.453
 4995SOL     OW15520   3.083   3.433   0.794
 4995SOL    HW115521   3.100   3.499   0.728
 4995SOL    HW215522   3.153   3.444   0.858
 4996SOL     OW15523   2.332   3.013   0.730
 4996SOL    HW115524   2.263   2.994   0.795
 4996SOL    HW215525   2.289   3.000   0.646
 4997SOL     OW15526   3.129   3.658   0.607
 4997SOL    HW115527   3.176   3.722   0.554
 4997SOL    HW215528   3.057   3.707   0.647
 4998SOL     OW15529   2.859   2.405   0.057
 4998SOL    HW115530   2.858   2.395  13.862
 4998SOL    HW215531   2.952   2.403   0.081
 4999SOL     OW15532   1.939   2.423   1.386
 4999SOL    HW115533   2.032   2.420   1.365
 4999SOL    HW215534   1.932   2.489   1.455
 5000SOL     OW15535   2.417   2.083   1.171
 5000SOL    HW115536   2.467   2.006   1.197
 5000SOL    HW215537   2.333   2.073   1.217
 5001SOL     OW15538   2.726   2.319   0.639
 5001SOL    HW115539   2.687   2.375   0.572
 5001SOL    HW215540   2.751   2.240   0.592
 5002SOL     OW15541   2.875   1.916   0.751
 5002SOL    HW115542   2.820   1.905   0.674
 5002SOL    HW215543   2.854   1.840   0.806
 5003SOL     OW15544   3.300   3.024   0.857
 5003SOL    HW115545   3.230   2.959   0.856
 5003SOL    HW215546   3.325   3.035   0.765
 5004SOL     OW15547   3.327   2.469   0.975
 5004SOL    HW115548   3.276   2.389   0.977
 5004SOL    HW215549   3.386   2.463   1.049
 5005SOL     OW15550   3.724   2.677   0.371
 5005SOL    HW115551   3.765   2.623   0.438
 5005SOL    HW215552   3.683   2.615   0.312
 5006SOL     OW15553   2.351   3.267   0.157
 5006SOL    HW115554   2.276   3.235   0.207
 5006SOL    HW215555   2.332   3.241   0.067
 5007SOL     OW15556   3.528   3.126   0.646
 5007SOL    HW115557   3.623   3.129   0.656
 5007SOL    HW215558   3.500   3.216   0.662
 5008SOL     OW15559   3.283   2.447   0.087
 5008SOL    HW115560   3.216   2.439   0.154
 5008SOL    HW215561   3.320   2.359   0.078
 5009SOL     OW15562   2.384   2.126   0.318
 5009SOL    HW115563   2.440   2.092   0.248
 5009SOL    HW215564   2.351   2.210   0.284
 5010SOL     OW15565   3.614   3.097   1.567
 5010SOL    HW115566   3.701   3.061   1.550
 5010SOL    HW215567   3.630   3.186   1.597
 5011SOL     OW15568   2.919   3.214   1.332
 5011SOL    HW115569   2.845   3.184   1.384
 5011SOL    HW215570   2.995   3.173   1.374
 5012SOL     OW15571   3.469   3.491   1.656
 5012SOL    HW115572   3.460   3.524   1.567
 5012SOL    HW215573   3.550   3.440   1.655
 5013SOL     OW15574   2.992   3.066   1.104
 5013SOL    HW115575   2.934   3.105   1.169
 5013SOL    HW215576   2.960   3.101   1.020
 5014SOL     OW15577   3.491   2.959   1.075
 5014SOL    HW115578   3.483   3.020   1.148
 5014SOL    HW215579   3.413   2.975   1.022
 5015SOL     OW15580   2.779   1.959   1.394
 5015SOL    HW115581   2.803   1.939   1.303
 5015SOL    HW215582   2.857   1.998   1.432
 5016SOL     OW15583   2.846   2.977   1.723
 5016SOL    HW115584   2.754   2.993   1.745
 5016SOL    HW215585   2.844   2.899   1.668
 5017SOL     OW15586   2.577   2.921   0.377
 5017SOL    HW115587   2.562   2.903   0.470
 5017SOL    HW215588   2.652   2.866   0.353
 5018SOL     OW15589   2.281   2.675   1.251
 5018SOL    HW115590   2.348   2.688   1.317
 5018SOL    HW215591   2.246   2.588   1.268
 5019SOL     OW15592   3.127   2.238   1.278
 5019SOL    HW115593   3.160   2.316   1.323
 5019SOL    HW215594   3.037   2.260   1.255
 5020SOL     OW15595   1.934   3.435   1.353
 5020SOL    HW115596   1.905   3.510   1.300
 5020SOL    HW215597   2.029   3.437   1.349
 5021SOL     OW15598   2.207   2.976   0.487
 5021SOL    HW115599   2.206   3.048   0.424
 5021SOL    HW215600   2.214   2.897   0.433
 5022SOL     OW15601   2.407   2.398   0.864
 5022SOL    HW115602   2.421   2.454   0.788
 5022SOL    HW215603   2.474   2.424   0.926
 5023SOL     OW15604   3.110   3.208   0.398
 5023SOL    HW115605   3.166   3.282   0.424
 5023SOL    HW215606   3.023   3.232   0.430
 5024SOL     OW15607   3.145   3.321   1.148
 5024SOL    HW115608   3.201   3.325   1.225
 5024SOL    HW215609   3.089   3.245   1.162
 5025SOL     OW15610   3.443   2.485   0.484
 5025SOL    HW115611   3.393   2.535   0.549
 5025SOL    HW215612   3.472   2.551   0.421
 5026SOL     OW15613   2.208   3.391   1.313
 5026SOL    HW115614   2.196   3.347   1.228
 5026SOL    HW215615   2.302   3.402   1.321
 5027SOL     OW15616   2.278   2.608   1.603
 5027SOL    HW115617   2.340   2.651   1.544
 5027SOL    HW215618   2.322   2.527   1.629
 5028SOL     OW15619   3.465   2.640   1.682
 5028SOL    HW115620   3.380   2.683   1.676
 5028SOL    HW215621   3.518   2.683   1.615
 5029SOL     OW15622   2.857   1.989   1.752
 5029SOL    HW115623   2.916   2.061   1.729
 5029SOL    HW215624   2.905   1.910   1.728
 5030SOL     OW15625   2.374   1.895   1.748
 5030SOL    HW115626   2.326   1.840   1.686
 5030SOL    HW215627   2.315   1.969   1.764
 5031SOL     OW15628   2.446   2.735   1.032
 5031SOL    HW115629   2.478   2.825   1.031
 5031SOL    HW215630   2.390   2.730   1.109
 5032SOL     OW15631   3.217   2.721   1.027
 5032SOL    HW115632   3.134   2.710   0.982
 5032SOL    HW215633   3.260   2.636   1.021
 5033SOL     OW15634   3.081   2.405   0.273
 5033SOL    HW115635   3.085   2.324   0.324
 5033SOL    HW215636   3.025   2.463   0.324
 5034SOL     OW15637   1.908   3.173   1.276
 5034SOL    HW115638   1.941   3.118   1.347
 5034SOL    HW215639   1.914   3.262   1.309
 5035SOL     OW15640   2.582   2.490   1.055
 5035SOL    HW115641   2.660   2.475   1.001
 5035SOL    HW215642   2.557   2.580   1.037
 5036SOL     OW15643   3.593   2.821   1.859
 5036SOL    HW115644   3.551   2.758   1.801
 5036SOL    HW215645   3.530   2.834   1.930
 5037SOL     OW15646   2.224   1.906   0.616
 5037SOL    HW115647   2.145   1.955   0.592
 5037SOL    HW215648   2.206   1.873   0.704
 5038SOL     OW15649   3.482   2.239   0.371
 5038SOL    HW115650   3.505   2.172   0.436
 5038SOL    HW215651   3.457   2.315   0.423
 5039SOL     OW15652   2.889   2.620   0.960
 5039SOL    HW115653   2.885   2.638   1.054
 5039SOL    HW215654   2.863   2.528   0.951
 5040SOL     OW15655   2.847   3.430   1.720
 5040SOL    HW115656   2.829   3.471   1.635
 5040SOL    HW215657   2.889   3.347   1.697
 5041SOL     OW15658   3.706   3.362   1.598
 5041SOL    HW115659   3.729   3.391   1.510
 5041SOL    HW215660   3.786   3.373   1.649
 5042SOL     OW15661   2.216   2.781   1.808
 5042SOL    HW115662   2.298   2.798   1.855
 5042SOL    HW215663   2.240   2.718   1.741
 5043SOL     OW15664   3.412   2.122   0.136
 5043SOL    HW115665   3.353   2.051   0.160
 5043SOL    HW215666   3.435   2.163   0.220
 5044SOL     OW15667   3.153   2.691   0.055
 5044SOL    HW115668   3.200   2.608   0.060
 5044SOL    HW215669   3.171   2.724  13.867
 5045SOL     OW15670   2.928   3.198   0.854
 5045SOL    HW115671   2.932   3.126   0.791
 5045SOL    HW215672   2.989   3.263   0.819
 5046SOL     OW15673   2.172   2.672   0.946
 5046SOL    HW115674   2.264   2.695   0.938
 5046SOL    HW215675   2.171   2.586   0.986
 5047SOL     OW15676   2.186   2.359   1.013
 5047SOL    HW115677   2.145   2.287   0.965
 5047SOL    HW215678   2.265   2.379   0.963
 5048SOL     OW15679   2.996   2.237   1.683
 5048SOL    HW115680   2.948   2.292   1.745
 5048SOL    HW215681   3.083   2.276   1.679
 5049SOL     OW15682   3.021   2.064   1.470
 5049SOL    HW115683   3.011   2.126   1.542
 5049SOL    HW215684   3.063   2.114   1.400
 5050SOL     OW15685   1.882   3.174   0.181
 5050SOL    HW115686   1.801   3.187   0.131
 5050SOL    HW215687   1.873   3.087   0.219
 5051SOL     OW15688   1.958   3.642   0.938
 5051SOL    HW115689   1.927   3.563   0.893
 5051SOL    HW215690   2.044   3.660   0.899
 5052SOL     OW15691   2.357   3.437   0.906
 5052SOL    HW115692   2.424   3.501   0.930
 5052SOL    HW215693   2.402   3.375   0.849
 5053SOL     OW15694   2.842   2.652   1.226
 5053SOL    HW115695   2.901   2.631   1.298
 5053SOL    HW215696   2.757   2.617   1.253
 5054SOL     OW15697   1.900   2.399   1.117
 5054SOL    HW115698   1.984   2.399   1.072
 5054SOL    HW215699   1.922   2.413   1.210
 5055SOL     OW15700   2.059   2.387   1.724
 5055SOL    HW115701   2.119   2.354   1.657
 5055SOL    HW215702   2.012   2.458   1.681
 5056SOL     OW15703   3.241   2.799   1.658
 5056SOL    HW115704   3.262   2.893   1.656
 5056SOL    HW215705   3.237   2.773   1.566
 5057SOL     OW15706   2.676   2.438   0.374
 5057SOL    HW115707   2.687   2.363   0.316
 5057SOL    HW215708   2.605   2.488   0.335
 5058SOL     OW15709   3.502   2.463   1.184
 5058SOL    HW115710   3.492   2.403   1.258
 5058SOL    HW215711   3.589   2.442   1.148
 5059SOL     OW15712   2.105   3.412   1.726
 5059SOL    HW115713   2.082   3.478   1.791
 5059SOL    HW215714   2.108   3.329   1.774
 5060SOL     OW15715   2.561   2.311   1.259
 5060SOL    HW115716   2.510   2.237   1.227
 5060SOL    HW215717   2.558   2.374   1.187
 5061SOL     OW15718   2.790   3.534   1.468
 5061SOL    HW115719   2.763   3.497   1.384
 5061SOL    HW215720   2.782   3.629   1.457
 5062SOL     OW15721   2.303   2.360   0.228
 5062SOL    HW115722   2.368   2.429   0.237
 5062SOL    HW215723   2.227   2.404   0.189
 5063SOL     OW15724   2.007   3.004   1.473
 5063SOL    HW115725   2.008   2.953   1.554
 5063SOL    HW215726   2.024   2.939   1.404
 5064SOL     OW15727   3.185   2.907   1.222
 5064SOL    HW115728   3.209   2.844   1.154
 5064SOL    HW215729   3.116   2.961   1.183
 5065SOL     OW15730   3.175   2.720   0.326
 5065SOL    HW115731   3.101   2.686   0.376
 5065SOL    HW215732   3.151   2.705   0.234
 5066SOL     OW15733   3.638   3.604   1.154
 5066SOL    HW115734   3.696   3.630   1.082
 5066SOL    HW215735   3.611   3.514   1.131
 5067SOL     OW15736   3.106   3.596   1.111
 5067SOL    HW115737   3.188   3.616   1.067
 5067SOL    HW215738   3.111   3.502   1.130
 5068SOL     OW15739   1.947   3.127   1.012
 5068SOL    HW115740   1.932   3.142   1.105
 5068SOL    HW215741   1.873   3.074   0.984
 5069SOL     OW15742   2.540   3.526   1.731
 5069SOL    HW115743   2.484   3.603   1.735
 5069SOL    HW215744   2.601   3.544   1.659
 5070SOL     OW15745   2.787   1.970   0.130
 5070SOL    HW115746   2.821   1.959   0.041
 5070SOL    HW215747   2.837   1.907   0.183
 5071SOL     OW15748   3.569   2.009   0.514
 5071SOL    HW115749   3.647   2.002   0.460
 5071SOL    HW215750   3.560   1.923   0.555
 5072SOL     OW15751   3.251   3.434   0.485
 5072SOL    HW115752   3.314   3.468   0.422
 5072SOL    HW215753   3.204   3.511   0.517
 5073SOL     OW15754   1.995   3.653   1.839
 5073SOL    HW115755   1.944   3.589   1.888
 5073SOL    HW215756   2.045   3.700   1.906
 5074SOL     OW15757   3.138   2.787   0.671
 5074SOL    HW115758   3.213   2.727   0.679
 5074SOL    HW215759   3.172   2.860   0.618
 5075SOL     OW15760   2.674   3.136   1.429
 5075SOL    HW115761   2.646   3.175   1.511
 5075SOL    HW215762   2.604   3.159   1.366
 5076SOL     OW15763   2.544   3.452   0.182
 5076SOL    HW115764   2.524   3.499   0.101
 5076SOL    HW215765   2.488   3.375   0.179
 5077SOL     OW15766   3.482   3.588   1.390
 5077SOL    HW115767   3.537   3.592   1.312
 5077SOL    HW215768   3.470   3.680   1.415
 5078SOL     OW15769   3.700   2.043   0.967
 5078SOL    HW115770   3.731   1.956   0.942
 5078SOL    HW215771   3.614   2.051   0.927
 5079SOL     OW15772   3.084   3.461   0.033
 5079SOL    HW115773   3.072   3.370   0.061
 5079SOL    HW215774   3.039   3.466  13.849
 5080SOL     OW15775   2.686   2.868   1.372
 5080SOL    HW115776   2.731   2.865   1.288
 5080SOL    HW215777   2.684   2.961   1.395
 5081SOL     OW15778   2.784   2.773   0.288
 5081SOL    HW115779   2.853   2.812   0.235
 5081SOL    HW215780   2.827   2.702   0.336
 5082SOL     OW15781   3.349   3.506   0.065
 5082SOL    HW115782   3.256   3.486   0.056
 5082SOL    HW215783   3.384   3.500  13.876
 5083SOL     OW15784   2.231   3.165   1.491
 5083SOL    HW115785   2.217   3.242   1.436
 5083SOL    HW215786   2.154   3.111   1.476
 5084SOL     OW15787   3.464   3.142   1.278
 5084SOL    HW115788   3.532   3.134   1.344
 5084SOL    HW215789   3.407   3.212   1.310
 5085SOL     OW15790   2.916   2.970   0.707
 5085SOL    HW115791   2.845   2.918   0.746
 5085SOL    HW215792   2.980   2.904   0.678
 5086SOL     OW15793   2.882   2.102   0.966
 5086SOL    HW115794   2.878   2.055   0.883
 5086SOL    HW215795   2.879   2.034   1.033
 5087SOL     OW15796   2.467   3.351   0.480
 5087SOL    HW115797   2.511   3.300   0.413
 5087SOL    HW215798   2.399   3.399   0.433
 5088SOL     OW15799   3.585   2.252   1.378
 5088SOL    HW115800   3.657   2.315   1.375
 5088SOL    HW215801   3.614   2.180   1.322
 5089SOL     OW15802   2.131   3.185   0.297
 5089SOL    HW115803   2.047   3.194   0.252
 5089SOL    HW215804   2.119   3.232   0.379
 5090SOL     OW15805   1.974   2.886   1.719
 5090SOL    HW115806   1.898   2.862   1.772
 5090SOL    HW215807   2.049   2.848   1.767
 5091SOL     OW15808   2.535   2.059   1.500
 5091SOL    HW115809   2.619   2.038   1.458
 5091SOL    HW215810   2.560   2.090   1.587
 5092SOL     OW15811   1.869   2.288   0.051
 5092SOL    HW115812   1.860   2.193   0.057
 5092SOL    HW215813   1.934   2.301  13.883
 5093SOL     OW15814   3.289   2.720   1.400
 5093SOL    HW115815   3.240   2.782   1.345
 5093SOL    HW215816   3.378   2.722   1.363
 5094SOL     OW15817   3.048   3.208   0.122
 5094SOL    HW115818   2.954   3.196   0.111
 5094SOL    HW215819   3.063   3.195   0.216
 5095SOL     OW15820   2.481   2.692   1.433
 5095SOL    HW115821   2.537   2.769   1.419
 5095SOL    HW215822   2.543   2.619   1.441
 5096SOL     OW15823   3.347   3.643   0.982
 5096SOL    HW115824   3.371   3.694   0.905
 5096SOL    HW215825   3.430   3.613   1.018
 5097SOL     OW15826   2.579   2.424   1.701
 5097SOL    HW115827   2.620   2.486   1.761
 5097SOL    HW215828   2.603   2.338   1.736
 5098SOL     OW15829   3.334   3.060   1.631
 5098SOL    HW115830   3.323   3.075   1.725
 5098SOL    HW215831   3.427   3.076   1.615
 5099SOL     OW15832   2.238   3.602   1.564
 5099SOL    HW115833   2.153   3.643   1.549
 5099SOL    HW215834   2.217   3.518   1.606
 5100SOL     OW15835   3.527   2.743   1.259
 5100SOL    HW115836   3.526   2.657   1.215
 5100SOL    HW215837   3.521   2.806   1.187
 5101SOL     OW15838   3.081   2.183   0.454
 5101SOL    HW115839   3.144   2.111   0.448
 5101SOL    HW215840   3.108   2.232   0.532
 5102SOL     OW15841   2.447   2.597   0.673
 5102SOL    HW115842   2.489   2.682   0.659
 5102SOL    HW215843   2.382   2.591   0.603
 5103SOL     OW15844   3.622   2.227   1.650
 5103SOL    HW115845   3.605   2.240   1.556
 5103SOL    HW215846   3.552   2.169   1.679
 5104SOL     OW15847   3.617   2.791   1.513
 5104SOL    HW115848   3.609   2.885   1.531
 5104SOL    HW215849   3.594   2.781   1.421
 5105SOL     OW15850   2.769   3.260   0.063
 5105SOL    HW115851   2.700   3.246   0.127
 5105SOL    HW215852   2.724   3.268  13.879
 5106SOL     OW15853   2.522   3.652   0.941
 5106SOL    HW115854   2.501   3.742   0.919
 5106SOL    HW215855   2.618   3.648   0.935
 5107SOL     OW15856   2.730   2.830   0.855
 5107SOL    HW115857   2.780   2.758   0.894
 5107SOL    HW215858   2.694   2.878   0.929
 5108SOL     OW15859   2.960   2.872   0.109
 5108SOL    HW115860   2.950   2.918   0.026
 5108SOL    HW215861   3.034   2.813   0.095
 5109SOL     OW15862   3.714   3.416   0.841
 5109SOL    HW115863   3.635   3.400   0.790
 5109SOL    HW215864   3.711   3.350   0.910
 5110SOL     OW15865   2.088   3.164   1.856
 5110SOL    HW115866   2.021   3.102   1.826
 5110SOL    HW215867   2.069   3.176   1.949
 5111SOL     OW15868   1.946   3.092   0.666
 5111SOL    HW115869   1.954   3.044   0.749
 5111SOL    HW215870   2.018   3.058   0.612
 5112SOL     OW15871   2.544   3.266   1.629
 5112SOL    HW115872   2.465   3.223   1.660
 5112SOL    HW215873   2.541   3.354   1.666
 5113SOL     OW15874   3.675   2.041   1.239
 5113SOL    HW115875   3.668   1.946   1.242
 5113SOL    HW215876   3.689   2.061   1.146
 5114SOL     OW15877   2.291   2.292   0.533
 5114SOL    HW115878   2.324   2.235   0.463
 5114SOL    HW215879   2.251   2.232   0.596
 5115SOL     OW15880   3.559   3.352   1.096
 5115SOL    HW115881   3.480   3.327   1.048
 5115SOL    HW215882   3.572   3.281   1.160
 5116SOL     OW15883   2.193   2.416   1.289
 5116SOL    HW115884   2.238   2.356   1.348
 5116SOL    HW215885   2.210   2.382   1.202
 5117SOL     OW15886   2.690   3.441   0.677
 5117SOL    HW115887   2.675   3.494   0.599
 5117SOL    HW215888   2.615   3.382   0.681
 5118SOL     OW15889   3.293   2.089   1.117
 5118SOL    HW115890   3.315   2.007   1.160
 5118SOL    HW215891   3.242   2.137   1.182
 5119SOL     OW15892   2.870   1.879   1.140
 5119SOL    HW115893   2.817   1.812   1.099
 5119SOL    HW215894   2.958   1.842   1.143
 5120SOL     OW15895   2.635   3.185   0.320
 5120SOL    HW115896   2.606   3.095   0.337
 5120SOL    HW215897   2.719   3.192   0.366
 5121SOL     OW15898   2.482   3.415   1.285
 5121SOL    HW115899   2.483   3.497   1.335
 5121SOL    HW215900   2.570   3.409   1.247
 5122SOL     OW15901   3.210   1.928   0.164
 5122SOL    HW115902   3.244   1.866   0.099
 5122SOL    HW215903   3.128   1.889   0.193
 5123SOL     OW15904   3.156   2.323   0.679
 5123SOL    HW115905   3.104   2.403   0.687
 5123SOL    HW215906   3.153   2.284   0.767
 5124SOL     OW15907   3.444   2.061   0.877
 5124SOL    HW115908   3.387   2.084   0.951
 5124SOL    HW215909   3.446   2.140   0.822
 5125SOL     OW15910   1.902   2.930   0.309
 5125SOL    HW115911   1.997   2.926   0.307
 5125SOL    HW215912   1.874   2.841   0.328
 5126SOL     OW15913   2.756   3.519   0.346
 5126SOL    HW115914   2.684   3.490   0.291
 5126SOL    HW215915   2.722   3.595   0.393
 5127SOL     OW15916   2.094   2.493   1.984
 5127SOL    HW115917   2.009   2.467   2.019
 5127SOL    HW215918   2.091   2.464   1.892
 5128SOL     OW15919   1.869   2.287   2.492
 5128SOL    HW115920   1.779   2.282   2.525
 5128SOL    HW215921   1.880   2.209   2.439
 5129SOL     OW15922   2.429   3.152   3.039
 5129SOL    HW115923   2.342   3.157   2.999
 5129SOL    HW215924   2.445   3.240   3.073
 5130SOL     OW15925   3.424   3.374   2.570
 5130SOL    HW115926   3.382   3.352   2.653
 5130SOL    HW215927   3.352   3.377   2.507
 5131SOL     OW15928   2.992   2.560   2.561
 5131SOL    HW115929   3.041   2.641   2.547
 5131SOL    HW215930   2.946   2.575   2.644
 5132SOL     OW15931   3.629   2.468   2.091
 5132SOL    HW115932   3.609   2.460   1.998
 5132SOL    HW215933   3.594   2.388   2.130
 5133SOL     OW15934   2.615   3.003   2.904
 5133SOL    HW115935   2.546   3.038   2.961
 5133SOL    HW215936   2.651   3.079   2.860
 5134SOL     OW15937   2.730   2.632   3.684
 5134SOL    HW115938   2.717   2.703   3.748
 5134SOL    HW215939   2.754   2.677   3.603
 5135SOL     OW15940   2.548   2.862   2.508
 5135SOL    HW115941   2.613   2.852   2.577
 5135SOL    HW215942   2.479   2.915   2.547
 5136SOL     OW15943   2.574   3.013   3.676
 5136SOL    HW115944   2.621   3.091   3.704
 5136SOL    HW215945   2.492   3.046   3.640
 5137SOL     OW15946   2.193   3.285   2.929
 5137SOL    HW115947   2.120   3.248   2.880
 5137SOL    HW215948   2.241   3.337   2.865
 5138SOL     OW15949   3.321   3.363   3.218
 5138SOL    HW115950   3.375   3.441   3.228
 5138SOL    HW215951   3.257   3.368   3.288
 5139SOL     OW15952   2.284   2.233   3.336
 5139SOL    HW115953   2.372   2.199   3.351
 5139SOL    HW215954   2.226   2.158   3.347
 5140SOL     OW15955   3.473   2.309   2.605
 5140SOL    HW115956   3.400   2.331   2.547
 5140SOL    HW215957   3.486   2.387   2.658
 5141SOL     OW15958   2.083   3.578   2.341
 5141SOL    HW115959   2.115   3.638   2.408
 5141SOL    HW215960   2.154   3.574   2.277
 5142SOL     OW15961   2.999   3.204   3.555
 5142SOL    HW115962   3.040   3.198   3.642
 5142SOL    HW215963   2.946   3.124   3.548
 5143SOL     OW15964   2.091   3.304   2.397
 5143SOL    HW115965   2.073   3.398   2.402
 5143SOL    HW215966   2.033   3.265   2.462
 5144SOL     OW15967   2.122   2.954   2.753
 5144SOL    HW115968   2.117   2.867   2.794
 5144SOL    HW215969   2.064   3.008   2.807
 5145SOL     OW15970   2.471   3.648   3.291
 5145SOL    HW115971   2.390   3.633   3.338
 5145SOL    HW215972   2.497   3.737   3.315
 5146SOL     OW15973   2.446   2.844   1.997
 5146SOL    HW115974   2.493   2.892   1.928
 5146SOL    HW215975   2.485   2.876   2.079
 5147SOL     OW15976   3.457   1.987   3.328
 5147SOL    HW115977   3.468   2.069   3.280
 5147SOL    HW215978   3.443   2.015   3.419
 5148SOL     OW15979   1.985   2.525   2.422
 5148SOL    HW115980   1.949   2.438   2.442
 5148SOL    HW215981   1.974   2.575   2.503
 5149SOL     OW15982   3.700   3.614   2.203
 5149SOL    HW115983   3.770   3.589   2.263
 5149SOL    HW215984   3.720   3.704   2.180
 5150SOL     OW15985   1.891   3.454   1.984
 5150SOL    HW115986   1.876   3.362   2.005
 5150SOL    HW215987   1.870   3.501   2.065
 5151SOL     OW15988   3.550   2.781   2.507
 5151SOL    HW115989   3.633   2.738   2.489
 5151SOL    HW215990   3.531   2.830   2.427
 5152SOL     OW15991   3.503   2.967   2.293
 5152SOL    HW115992   3.588   2.972   2.249
 5152SOL    HW215993   3.510   3.030   2.365
 5153SOL     OW15994   1.984   2.608   3.444
 5153SOL    HW115995   2.074   2.636   3.454
 5153SOL    HW215996   1.932   2.688   3.454
 5154SOL     OW15997   2.477   3.250   2.597
 5154SOL    HW115998   2.431   3.166   2.606
 5154SOL    HW215999   2.460   3.277   2.506
 5155SOL     OW16000   3.150   3.099   3.285
 5155SOL    HW116001   3.182   3.033   3.224
 5155SOL    HW216002   3.208   3.094   3.360
 5156SOL     OW16003   2.701   1.862   2.379
 5156SOL    HW116004   2.741   1.946   2.355
 5156SOL    HW216005   2.607   1.879   2.374
 5157SOL     OW16006   2.052   2.828   3.135
 5157SOL    HW116007   2.136   2.786   3.119
 5157SOL    HW216008   1.989   2.774   3.088
 5158SOL     OW16009   3.390   2.857   2.062
 5158SOL    HW116010   3.321   2.800   2.095
 5158SOL    HW216011   3.432   2.892   2.140
 5159SOL     OW16012   3.078   3.666   3.488
 5159SOL    HW116013   3.056   3.726   3.417
 5159SOL    HW216014   3.079   3.579   3.447
 5160SOL     OW16015   3.327   3.282   2.811
 5160SOL    HW116016   3.260   3.297   2.879
 5160SOL    HW216017   3.316   3.191   2.786
 5161SOL     OW16018   3.511   3.605   2.442
 5161SOL    HW116019   3.501   3.571   2.353
 5161SOL    HW216020   3.493   3.530   2.499
 5162SOL     OW16021   2.459   2.585   2.131
 5162SOL    HW116022   2.463   2.667   2.081
 5162SOL    HW216023   2.393   2.602   2.198
 5163SOL     OW16024   3.140   2.218   2.795
 5163SOL    HW116025   3.051   2.183   2.804
 5163SOL    HW216026   3.192   2.165   2.855
 5164SOL     OW16027   3.437   3.538   2.170
 5164SOL    HW116028   3.529   3.563   2.166
 5164SOL    HW216029   3.413   3.518   2.079
 5165SOL     OW16030   2.654   2.480   3.310
 5165SOL    HW116031   2.630   2.456   3.400
 5165SOL    HW216032   2.615   2.412   3.256
 5166SOL     OW16033   3.255   2.335   3.540
 5166SOL    HW116034   3.258   2.380   3.625
 5166SOL    HW216035   3.315   2.261   3.550
 5167SOL     OW16036   2.815   2.749   3.445
 5167SOL    HW116037   2.870   2.679   3.409
 5167SOL    HW216038   2.767   2.784   3.370
 5168SOL     OW16039   2.855   2.275   3.099
 5168SOL    HW116040   2.769   2.295   3.135
 5168SOL    HW216041   2.837   2.229   3.017
 5169SOL     OW16042   2.914   2.560   2.287
 5169SOL    HW116043   2.930   2.554   2.381
 5169SOL    HW216044   2.831   2.514   2.274
 5170SOL     OW16045   1.950   2.686   2.640
 5170SOL    HW116046   2.032   2.680   2.691
 5170SOL    HW216047   1.906   2.763   2.674
 5171SOL     OW16048   1.984   3.706   3.438
 5171SOL    HW116049   1.986   3.686   3.532
 5171SOL    HW216050   1.891   3.705   3.416
 5172SOL     OW16051   2.758   2.213   2.058
 5172SOL    HW116052   2.799   2.274   1.996
 5172SOL    HW216053   2.767   2.127   2.016
 5173SOL     OW16054   3.572   2.436   3.690
 5173SOL    HW116055   3.533   2.510   3.642
 5173SOL    HW216056   3.596   2.373   3.623
 5174SOL     OW16057   3.238   3.003   2.403
 5174SOL    HW116058   3.318   2.991   2.351
 5174SOL    HW216059   3.187   3.066   2.352
 5175SOL     OW16060   2.409   2.051   2.757
 5175SOL    HW116061   2.411   2.075   2.850
 5175SOL    HW216062   2.428   2.132   2.711
 5176SOL     OW16063   2.867   3.307   2.333
 5176SOL    HW116064   2.829   3.380   2.284
 5176SOL    HW216065   2.847   3.326   2.425
 5177SOL     OW16066   2.213   3.672   2.702
 5177SOL    HW116067   2.263   3.593   2.720
 5177SOL    HW216068   2.273   3.744   2.724
 5178SOL     OW16069   3.667   2.923   2.729
 5178SOL    HW116070   3.613   2.898   2.654
 5178SOL    HW216071   3.605   2.926   2.802
 5179SOL     OW16072   3.089   3.399   3.374
 5179SOL    HW116073   3.076   3.327   3.435
 5179SOL    HW216074   3.023   3.386   3.306
 5180SOL     OW16075   2.180   2.819   2.114
 5180SOL    HW116076   2.261   2.837   2.067
 5180SOL    HW216077   2.148   2.737   2.076
 5181SOL     OW16078   3.341   2.606   2.588
 5181SOL    HW116079   3.334   2.564   2.674
 5181SOL    HW216080   3.419   2.662   2.594
 5182SOL     OW16081   2.329   3.127   3.599
 5182SOL    HW116082   2.302   3.132   3.507
 5182SOL    HW216083   2.247   3.125   3.648
 5183SOL     OW16084   2.976   3.643   2.084
 5183SOL    HW116085   2.912   3.597   2.139
 5183SOL    HW216086   3.006   3.578   2.021
 5184SOL     OW16087   3.487   3.246   1.951
 5184SOL    HW116088   3.444   3.330   1.933
 5184SOL    HW216089   3.420   3.180   1.931
 5185SOL     OW16090   2.329   3.597   2.187
 5185SOL    HW116091   2.367   3.662   2.246
 5185SOL    HW216092   2.402   3.572   2.130
 5186SOL     OW16093   3.263   1.969   2.297
 5186SOL    HW116094   3.255   1.944   2.205
 5186SOL    HW216095   3.357   1.975   2.313
 5187SOL     OW16096   2.122   3.654   3.087
 5187SOL    HW116097   2.169   3.585   3.133
 5187SOL    HW216098   2.107   3.618   2.999
 5188SOL     OW16099   2.800   3.562   2.762
 5188SOL    HW116100   2.877   3.510   2.784
 5188SOL    HW216101   2.756   3.513   2.693
 5189SOL     OW16102   2.257   2.556   2.338
 5189SOL    HW116103   2.275   2.463   2.348
 5189SOL    HW216104   2.163   2.565   2.355
 5190SOL     OW16105   3.396   2.087   3.587
 5190SOL    HW116106   3.406   2.108   3.680
 5190SOL    HW216107   3.328   2.020   3.585
 5191SOL     OW16108   2.510   1.986   1.967
 5191SOL    HW116109   2.571   1.918   1.995
 5191SOL    HW216110   2.461   1.946   1.894
 5192SOL     OW16111   2.626   2.139   3.616
 5192SOL    HW116112   2.705   2.084   3.614
 5192SOL    HW216113   2.581   2.114   3.697
 5193SOL     OW16114   2.738   3.383   3.057
 5193SOL    HW116115   2.722   3.347   2.969
 5193SOL    HW216116   2.808   3.328   3.092
 5194SOL     OW16117   3.202   2.451   3.295
 5194SOL    HW116118   3.233   2.420   3.380
 5194SOL    HW216119   3.238   2.539   3.287
 5195SOL     OW16120   2.678   3.255   2.803
 5195SOL    HW116121   2.762   3.243   2.760
 5195SOL    HW216122   2.614   3.258   2.732
 5196SOL     OW16123   2.789   2.370   2.765
 5196SOL    HW116124   2.765   2.362   2.672
 5196SOL    HW216125   2.822   2.283   2.788
 5197SOL     OW16126   2.446   1.926   2.338
 5197SOL    HW116127   2.372   1.916   2.398
 5197SOL    HW216128   2.427   2.006   2.289
 5198SOL     OW16129   3.290   3.061   1.903
 5198SOL    HW116130   3.321   2.986   1.953
 5198SOL    HW216131   3.204   3.082   1.940
 5199SOL     OW16132   2.806   2.112   2.320
 5199SOL    HW116133   2.778   2.152   2.237
 5199SOL    HW216134   2.900   2.128   2.324
 5200SOL     OW16135   2.943   2.544   3.321
 5200SOL    HW116136   2.876   2.476   3.326
 5200SOL    HW216137   3.026   2.496   3.315
 5201SOL     OW16138   3.084   3.432   2.656
 5201SOL    HW116139   3.100   3.500   2.590
 5201SOL    HW216140   3.153   3.444   2.720
 5202SOL     OW16141   2.332   3.013   2.593
 5202SOL    HW116142   2.263   2.994   2.657
 5202SOL    HW216143   2.291   2.997   2.508
 5203SOL     OW16144   3.129   3.657   2.469
 5203SOL    HW116145   3.175   3.722   2.416
 5203SOL    HW216146   3.057   3.706   2.509
 5204SOL     OW16147   2.885   2.402   1.886
 5204SOL    HW116148   2.842   2.485   1.866
 5204SOL    HW216149   2.950   2.423   1.952
 5205SOL     OW16150   1.939   2.424   3.248
 5205SOL    HW116151   2.032   2.420   3.227
 5205SOL    HW216152   1.932   2.490   3.317
 5206SOL     OW16153   2.416   2.083   3.033
 5206SOL    HW116154   2.467   2.006   3.058
 5206SOL    HW216155   2.333   2.073   3.078
 5207SOL     OW16156   2.726   2.319   2.502
 5207SOL    HW116157   2.685   2.375   2.436
 5207SOL    HW216158   2.751   2.240   2.454
 5208SOL     OW16159   2.874   1.916   2.613
 5208SOL    HW116160   2.820   1.905   2.536
 5208SOL    HW216161   2.854   1.840   2.668
 5209SOL     OW16162   3.300   3.024   2.719
 5209SOL    HW116163   3.230   2.959   2.718
 5209SOL    HW216164   3.326   3.034   2.627
 5210SOL     OW16165   3.327   2.470   2.837
 5210SOL    HW116166   3.276   2.389   2.839
 5210SOL    HW216167   3.386   2.463   2.911
 5211SOL     OW16168   3.723   2.679   2.237
 5211SOL    HW116169   3.767   2.623   2.301
 5211SOL    HW216170   3.686   2.618   2.173
 5212SOL     OW16171   2.353   3.280   2.016
 5212SOL    HW116172   2.277   3.252   2.069
 5212SOL    HW216173   2.339   3.239   1.931
 5213SOL     OW16174   3.529   3.127   2.506
 5213SOL    HW116175   3.624   3.130   2.516
 5213SOL    HW216176   3.500   3.216   2.528
 5214SOL     OW16177   3.256   2.433   1.933
 5214SOL    HW116178   3.194   2.414   2.004
 5214SOL    HW216179   3.340   2.402   1.966
 5215SOL     OW16180   2.384   2.130   2.172
 5215SOL    HW116181   2.429   2.081   2.103
 5215SOL    HW216182   2.361   2.214   2.131
 5216SOL     OW16183   3.613   3.097   3.429
 5216SOL    HW116184   3.701   3.061   3.412
 5216SOL    HW216185   3.630   3.186   3.459
 5217SOL     OW16186   2.919   3.214   3.194
 5217SOL    HW116187   2.844   3.184   3.246
 5217SOL    HW216188   2.995   3.174   3.236
 5218SOL     OW16189   3.469   3.491   3.518
 5218SOL    HW116190   3.460   3.524   3.429
 5218SOL    HW216191   3.550   3.440   3.517
 5219SOL     OW16192   2.992   3.067   2.966
 5219SOL    HW116193   2.934   3.105   3.031
 5219SOL    HW216194   2.960   3.100   2.882
 5220SOL     OW16195   3.491   2.959   2.937
 5220SOL    HW116196   3.483   3.020   3.010
 5220SOL    HW216197   3.413   2.975   2.884
 5221SOL     OW16198   2.779   1.959   3.256
 5221SOL    HW116199   2.803   1.939   3.165
 5221SOL    HW216200   2.857   1.998   3.294
 5222SOL     OW16201   2.846   2.977   3.585
 5222SOL    HW116202   2.754   2.993   3.607
 5222SOL    HW216203   2.844   2.899   3.530
 5223SOL     OW16204   2.571   2.924   2.233
 5223SOL    HW116205   2.557   2.906   2.326
 5223SOL    HW216206   2.647   2.870   2.209
 5224SOL     OW16207   2.280   2.676   3.113
 5224SOL    HW116208   2.349   2.688   3.179
 5224SOL    HW216209   2.246   2.588   3.130
 5225SOL     OW16210   3.127   2.238   3.140
 5225SOL    HW116211   3.160   2.316   3.185
 5225SOL    HW216212   3.037   2.260   3.117
 5226SOL     OW16213   1.934   3.435   3.215
 5226SOL    HW116214   1.906   3.510   3.163
 5226SOL    HW216215   2.029   3.437   3.211
 5227SOL     OW16216   2.208   2.973   2.352
 5227SOL    HW116217   2.213   3.047   2.290
 5227SOL    HW216218   2.205   2.896   2.296
 5228SOL     OW16219   2.407   2.398   2.725
 5228SOL    HW116220   2.421   2.455   2.650
 5228SOL    HW216221   2.474   2.424   2.788
 5229SOL     OW16222   3.110   3.211   2.251
 5229SOL    HW116223   3.166   3.282   2.283
 5229SOL    HW216224   3.023   3.232   2.285
 5230SOL     OW16225   3.145   3.321   3.010
 5230SOL    HW116226   3.201   3.325   3.087
 5230SOL    HW216227   3.090   3.244   3.023
 5231SOL     OW16228   3.441   2.483   2.343
 5231SOL    HW116229   3.394   2.536   2.407
 5231SOL    HW216230   3.484   2.546   2.286
 5232SOL     OW16231   2.208   3.391   3.175
 5232SOL    HW116232   2.196   3.347   3.091
 5232SOL    HW216233   2.302   3.402   3.183
 5233SOL     OW16234   2.278   2.608   3.465
 5233SOL    HW116235   2.340   2.651   3.406
 5233SOL    HW216236   2.321   2.527   3.491
 5234SOL     OW16237   3.465   2.640   3.544
 5234SOL    HW116238   3.380   2.683   3.538
 5234SOL    HW216239   3.518   2.683   3.477
 5235SOL     OW16240   2.857   1.989   3.614
 5235SOL    HW116241   2.916   2.061   3.591
 5235SOL    HW216242   2.905   1.909   3.590
 5236SOL     OW16243   2.372   1.895   3.610
 5236SOL    HW116244   2.325   1.840   3.548
 5236SOL    HW216245   2.313   1.968   3.628
 5237SOL     OW16246   2.447   2.734   2.894
 5237SOL    HW116247   2.478   2.825   2.892
 5237SOL    HW216248   2.390   2.730   2.971
 5238SOL     OW16249   3.217   2.721   2.889
 5238SOL    HW116250   3.134   2.709   2.844
 5238SOL    HW216251   3.260   2.636   2.883
 5239SOL     OW16252   3.065   2.390   2.127
 5239SOL    HW116253   3.074   2.312   2.181
 5239SOL    HW216254   3.022   2.455   2.183
 5240SOL     OW16255   1.908   3.173   3.138
 5240SOL    HW116256   1.941   3.118   3.209
 5240SOL    HW216257   1.914   3.262   3.171
 5241SOL     OW16258   2.582   2.490   2.917
 5241SOL    HW116259   2.660   2.475   2.863
 5241SOL    HW216260   2.557   2.580   2.899
 5242SOL     OW16261   3.593   2.821   3.721
 5242SOL    HW116262   3.551   2.758   3.663
 5242SOL    HW216263   3.529   2.834   3.792
 5243SOL     OW16264   2.223   1.901   2.474
 5243SOL    HW116265   2.146   1.955   2.453
 5243SOL    HW216266   2.208   1.872   2.564
 5244SOL     OW16267   3.480   2.238   2.227
 5244SOL    HW116268   3.507   2.173   2.292
 5244SOL    HW216269   3.457   2.315   2.278
 5245SOL     OW16270   2.889   2.620   2.822
 5245SOL    HW116271   2.885   2.638   2.916
 5245SOL    HW216272   2.864   2.528   2.813
 5246SOL     OW16273   2.847   3.430   3.582
 5246SOL    HW116274   2.829   3.471   3.497
 5246SOL    HW216275   2.889   3.347   3.559
 5247SOL     OW16276   3.706   3.362   3.461
 5247SOL    HW116277   3.729   3.391   3.372
 5247SOL    HW216278   3.786   3.373   3.511
 5248SOL     OW16279   2.216   2.781   3.670
 5248SOL    HW116280   2.297   2.798   3.717
 5248SOL    HW216281   2.240   2.718   3.602
 5249SOL     OW16282   3.391   2.135   1.989
 5249SOL    HW116283   3.326   2.070   2.016
 5249SOL    HW216284   3.424   2.170   2.072
 5250SOL     OW16285   3.152   2.687   1.892
 5250SOL    HW116286   3.195   2.602   1.896
 5250SOL    HW216287   3.184   2.727   1.811
 5251SOL     OW16288   2.928   3.198   2.716
 5251SOL    HW116289   2.932   3.126   2.654
 5251SOL    HW216290   2.989   3.263   2.681
 5252SOL     OW16291   2.172   2.673   2.809
 5252SOL    HW116292   2.264   2.695   2.799
 5252SOL    HW216293   2.172   2.586   2.848
 5253SOL     OW16294   2.186   2.360   2.874
 5253SOL    HW116295   2.145   2.288   2.826
 5253SOL    HW216296   2.266   2.379   2.825
 5254SOL     OW16297   2.996   2.237   3.545
 5254SOL    HW116298   2.948   2.292   3.607
 5254SOL    HW216299   3.083   2.276   3.541
 5255SOL     OW16300   3.021   2.064   3.332
 5255SOL    HW116301   3.011   2.126   3.404
 5255SOL    HW216302   3.063   2.114   3.262
 5256SOL     OW16303   1.867   3.182   2.057
 5256SOL    HW116304   1.780   3.196   2.020
 5256SOL    HW216305   1.864   3.092   2.091
 5257SOL     OW16306   1.958   3.642   2.799
 5257SOL    HW116307   1.927   3.563   2.755
 5257SOL    HW216308   2.043   3.660   2.760
 5258SOL     OW16309   2.357   3.437   2.767
 5258SOL    HW116310   2.424   3.500   2.792
 5258SOL    HW216311   2.402   3.375   2.711
 5259SOL     OW16312   2.842   2.652   3.088
 5259SOL    HW116313   2.901   2.631   3.160
 5259SOL    HW216314   2.757   2.617   3.115
 5260SOL     OW16315   1.899   2.399   2.980
 5260SOL    HW116316   1.984   2.400   2.934
 5260SOL    HW216317   1.921   2.413   3.072
 5261SOL     OW16318   2.061   2.389   3.585
 5261SOL    HW116319   2.122   2.356   3.519
 5261SOL    HW216320   2.014   2.460   3.542
 5262SOL     OW16321   3.241   2.799   3.520
 5262SOL    HW116322   3.262   2.893   3.518
 5262SOL    HW216323   3.237   2.773   3.428
 5263SOL     OW16324   2.678   2.431   2.226
 5263SOL    HW116325   2.683   2.358   2.165
 5263SOL    HW216326   2.605   2.484   2.194
 5264SOL     OW16327   3.502   2.464   3.046
 5264SOL    HW116328   3.492   2.403   3.120
 5264SOL    HW216329   3.588   2.442   3.010
 5265SOL     OW16330   2.105   3.412   3.587
 5265SOL    HW116331   2.082   3.477   3.653
 5265SOL    HW216332   2.108   3.329   3.636
 5266SOL     OW16333   2.561   2.311   3.121
 5266SOL    HW116334   2.510   2.236   3.089
 5266SOL    HW216335   2.558   2.374   3.049
 5267SOL     OW16336   2.790   3.534   3.330
 5267SOL    HW116337   2.763   3.497   3.246
 5267SOL    HW216338   2.782   3.629   3.318
 5268SOL     OW16339   2.325   2.361   2.052
 5268SOL    HW116340   2.383   2.434   2.073
 5268SOL    HW216341   2.240   2.401   2.033
 5269SOL     OW16342   2.007   3.004   3.335
 5269SOL    HW116343   2.008   2.953   3.416
 5269SOL    HW216344   2.024   2.939   3.266
 5270SOL     OW16345   3.185   2.907   3.084
 5270SOL    HW116346   3.209   2.844   3.016
 5270SOL    HW216347   3.117   2.961   3.045
 5271SOL     OW16348   3.174   2.718   2.168
 5271SOL    HW116349   3.099   2.688   2.218
 5271SOL    HW216350   3.148   2.704   2.076
 5272SOL     OW16351   3.637   3.604   3.015
 5272SOL    HW116352   3.696   3.630   2.944
 5272SOL    HW216353   3.611   3.515   2.993
 5273SOL     OW16354   3.106   3.596   2.972
 5273SOL    HW116355   3.188   3.616   2.929
 5273SOL    HW216356   3.111   3.502   2.992
 5274SOL     OW16357   1.947   3.129   2.873
 5274SOL    HW116358   1.932   3.142   2.967
 5274SOL    HW216359   1.873   3.074   2.845
 5275SOL     OW16360   2.540   3.526   3.593
 5275SOL    HW116361   2.484   3.603   3.597
 5275SOL    HW216362   2.601   3.544   3.521
 5276SOL     OW16363   3.573   2.011   2.374
 5276SOL    HW116364   3.641   1.998   2.308
 5276SOL    HW216365   3.562   1.924   2.414
 5277SOL     OW16366   3.252   3.430   2.349
 5277SOL    HW116367   3.311   3.464   2.282
 5277SOL    HW216368   3.204   3.508   2.379
 5278SOL     OW16369   1.995   3.653   3.701
 5278SOL    HW116370   1.944   3.589   3.750
 5278SOL    HW216371   2.045   3.700   3.768
 5279SOL     OW16372   3.139   2.788   2.533
 5279SOL    HW116373   3.213   2.728   2.541
 5279SOL    HW216374   3.173   2.860   2.480
 5280SOL     OW16375   2.674   3.136   3.290
 5280SOL    HW116376   2.646   3.175   3.373
 5280SOL    HW216377   2.604   3.158   3.228
 5281SOL     OW16378   2.537   3.479   2.019
 5281SOL    HW116379   2.546   3.496   1.926
 5281SOL    HW216380   2.478   3.403   2.024
 5282SOL     OW16381   3.482   3.588   3.252
 5282SOL    HW116382   3.537   3.592   3.173
 5282SOL    HW216383   3.470   3.680   3.277
 5283SOL     OW16384   3.700   2.043   2.829
 5283SOL    HW116385   3.731   1.956   2.804
 5283SOL    HW216386   3.613   2.051   2.788
 5284SOL     OW16387   3.069   3.467   1.897
 5284SOL    HW116388   3.059   3.375   1.922
 5284SOL    HW216389   3.008   3.479   1.825
 5285SOL     OW16390   2.686   2.868   3.234
 5285SOL    HW116391   2.730   2.864   3.149
 5285SOL    HW216392   2.684   2.961   3.257
 5286SOL     OW16393   2.778   2.772   2.152
 5286SOL    HW116394   2.839   2.805   2.086
 5286SOL    HW216395   2.827   2.704   2.198
 5287SOL     OW16396   3.351   3.493   1.904
 5287SOL    HW116397   3.257   3.481   1.888
 5287SOL    HW216398   3.390   3.497   1.817
 5288SOL     OW16399   2.231   3.165   3.353
 5288SOL    HW116400   2.217   3.242   3.298
 5288SOL    HW216401   2.154   3.111   3.338
 5289SOL     OW16402   3.464   3.142   3.140
 5289SOL    HW116403   3.532   3.134   3.207
 5289SOL    HW216404   3.407   3.212   3.172
 5290SOL     OW16405   2.917   2.970   2.570
 5290SOL    HW116406   2.845   2.919   2.608
 5290SOL    HW216407   2.980   2.904   2.540
 5291SOL     OW16408   2.882   2.102   2.828
 5291SOL    HW116409   2.878   2.055   2.745
 5291SOL    HW216410   2.879   2.034   2.895
 5292SOL     OW16411   2.466   3.353   2.342
 5292SOL    HW116412   2.511   3.301   2.275
 5292SOL    HW216413   2.397   3.399   2.295
 5293SOL     OW16414   3.585   2.252   3.240
 5293SOL    HW116415   3.657   2.315   3.237
 5293SOL    HW216416   3.614   2.180   3.185
 5294SOL     OW16417   2.122   3.206   2.151
 5294SOL    HW116418   2.029   3.203   2.128
 5294SOL    HW216419   2.124   3.244   2.239
 5295SOL     OW16420   1.974   2.886   3.582
 5295SOL    HW116421   1.898   2.862   3.634
 5295SOL    HW216422   2.049   2.848   3.629
 5296SOL     OW16423   2.535   2.059   3.362
 5296SOL    HW116424   2.619   2.038   3.320
 5296SOL    HW216425   2.560   2.090   3.449
 5297SOL     OW16426   1.898   2.281   1.927
 5297SOL    HW116427   1.858   2.199   1.900
 5297SOL    HW216428   1.947   2.310   1.850
 5298SOL     OW16429   3.289   2.720   3.262
 5298SOL    HW116430   3.240   2.782   3.207
 5298SOL    HW216431   3.378   2.722   3.225
 5299SOL     OW16432   3.040   3.200   1.979
 5299SOL    HW116433   2.949   3.170   1.981
 5299SOL    HW216434   3.067   3.200   2.071
 5300SOL     OW16435   2.481   2.692   3.295
 5300SOL    HW116436   2.537   2.769   3.281
 5300SOL    HW216437   2.543   2.619   3.303
 5301SOL     OW16438   3.347   3.642   2.844
 5301SOL    HW116439   3.371   3.696   2.768
 5301SOL    HW216440   3.430   3.613   2.880
 5302SOL     OW16441   2.580   2.424   3.563
 5302SOL    HW116442   2.620   2.486   3.623
 5302SOL    HW216443   2.603   2.338   3.598
 5303SOL     OW16444   3.334   3.061   3.493
 5303SOL    HW116445   3.323   3.074   3.587
 5303SOL    HW216446   3.427   3.076   3.477
 5304SOL     OW16447   2.238   3.602   3.426
 5304SOL    HW116448   2.153   3.643   3.411
 5304SOL    HW216449   2.217   3.518   3.468
 5305SOL     OW16450   3.527   2.743   3.121
 5305SOL    HW116451   3.526   2.657   3.077
 5305SOL    HW216452   3.521   2.806   3.049
 5306SOL     OW16453   3.079   2.182   2.319
 5306SOL    HW116454   3.142   2.109   2.311
 5306SOL    HW216455   3.108   2.230   2.396
 5307SOL     OW16456   2.448   2.598   2.535
 5307SOL    HW116457   2.490   2.683   2.520
 5307SOL    HW216458   2.383   2.590   2.465
 5308SOL     OW16459   3.622   2.227   3.512
 5308SOL    HW116460   3.605   2.240   3.418
 5308SOL    HW216461   3.552   2.169   3.541
 5309SOL     OW16462   3.617   2.791   3.375
 5309SOL    HW116463   3.609   2.885   3.392
 5309SOL    HW216464   3.594   2.781   3.283
 5310SOL     OW16465   2.725   3.229   1.899
 5310SOL    HW116466   2.685   3.257   1.981
 5310SOL    HW216467   2.741   3.311   1.851
 5311SOL     OW16468   2.522   3.652   2.803
 5311SOL    HW116469   2.501   3.743   2.781
 5311SOL    HW216470   2.618   3.647   2.797
 5312SOL     OW16471   2.730   2.830   2.717
 5312SOL    HW116472   2.780   2.758   2.756
 5312SOL    HW216473   2.694   2.878   2.792
 5313SOL     OW16474   2.941   2.850   1.951
 5313SOL    HW116475   2.919   2.902   1.873
 5313SOL    HW216476   3.015   2.796   1.924
 5314SOL     OW16477   3.713   3.417   2.703
 5314SOL    HW116478   3.634   3.397   2.653
 5314SOL    HW216479   3.716   3.350   2.771
 5315SOL     OW16480   2.088   3.164   3.718
 5315SOL    HW116481   2.021   3.102   3.688
 5315SOL    HW216482   2.069   3.176   3.811
 5316SOL     OW16483   1.947   3.094   2.527
 5316SOL    HW116484   1.954   3.047   2.610
 5316SOL    HW216485   2.014   3.054   2.471
 5317SOL     OW16486   2.544   3.266   3.491
 5317SOL    HW116487   2.465   3.223   3.522
 5317SOL    HW216488   2.541   3.354   3.528
 5318SOL     OW16489   3.675   2.041   3.101
 5318SOL    HW116490   3.668   1.946   3.104
 5318SOL    HW216491   3.689   2.061   3.008
 5319SOL     OW16492   2.291   2.291   2.385
 5319SOL    HW116493   2.326   2.233   2.318
 5319SOL    HW216494   2.251   2.233   2.449
 5320SOL     OW16495   3.559   3.352   2.959
 5320SOL    HW116496   3.480   3.327   2.911
 5320SOL    HW216497   3.572   3.281   3.022
 5321SOL     OW16498   2.193   2.417   3.151
 5321SOL    HW116499   2.238   2.356   3.210
 5321SOL    HW216500   2.210   2.382   3.064
 5322SOL     OW16501   2.690   3.440   2.539
 5322SOL    HW116502   2.674   3.491   2.459
 5322SOL    HW216503   2.615   3.381   2.545
 5323SOL     OW16504   3.293   2.089   2.979
 5323SOL    HW116505   3.315   2.007   3.023
 5323SOL    HW216506   3.242   2.138   3.044
 5324SOL     OW16507   2.870   1.879   3.002
 5324SOL    HW116508   2.817   1.812   2.961
 5324SOL    HW216509   2.958   1.842   3.005
 5325SOL     OW16510   2.634   3.194   2.179
 5325SOL    HW116511   2.604   3.104   2.185
 5325SOL    HW216512   2.717   3.195   2.228
 5326SOL     OW16513   2.482   3.416   3.147
 5326SOL    HW116514   2.483   3.497   3.197
 5326SOL    HW216515   2.570   3.409   3.109
 5327SOL     OW16516   3.216   1.915   2.028
 5327SOL    HW116517   3.246   1.848   1.967
 5327SOL    HW216518   3.128   1.887   2.053
 5328SOL     OW16519   3.157   2.323   2.542
 5328SOL    HW116520   3.105   2.403   2.549
 5328SOL    HW216521   3.154   2.285   2.629
 5329SOL     OW16522   3.444   2.061   2.739
 5329SOL    HW116523   3.387   2.085   2.813
 5329SOL    HW216524   3.446   2.140   2.684
 5330SOL     OW16525   1.906   2.932   2.169
 5330SOL    HW116526   1.999   2.923   2.150
 5330SOL    HW216527   1.877   2.843   2.191
 5331SOL     OW16528   2.748   3.520   2.205
 5331SOL    HW116529   2.677   3.500   2.144
 5331SOL    HW216530   2.716   3.595   2.255
 5332SOL     OW16531   2.093   2.493   3.846
 5332SOL    HW116532   2.008   2.467   3.881
 5332SOL    HW216533   2.092   2.464   3.754
 5333SOL     OW16534   1.866   2.289   4.350
 5333SOL    HW116535   1.777   2.284   4.385
 5333SOL    HW216536   1.873   2.213   4.293
 5334SOL     OW16537   2.429   3.152   4.901
 5334SOL    HW116538   2.342   3.157   4.861
 5334SOL    HW216539   2.445   3.240   4.935
 5335SOL     OW16540   3.424   3.374   4.432
 5335SOL    HW116541   3.382   3.352   4.515
 5335SOL    HW216542   3.352   3.377   4.369
 5336SOL     OW16543   2.992   2.560   4.423
 5336SOL    HW116544   3.041   2.641   4.409
 5336SOL    HW216545   2.946   2.574   4.506
 5337SOL     OW16546   3.629   2.468   3.953
 5337SOL    HW116547   3.609   2.460   3.860
 5337SOL    HW216548   3.594   2.388   3.993
 5338SOL     OW16549   2.614   3.003   4.766
 5338SOL    HW116550   2.546   3.038   4.823
 5338SOL    HW216551   2.651   3.079   4.722
 5339SOL     OW16552   2.727   2.634   5.545
 5339SOL    HW116553   2.722   2.704   5.611
 5339SOL    HW216554   2.753   2.679   5.465
 5340SOL     OW16555   2.548   2.862   4.370
 5340SOL    HW116556   2.613   2.852   4.439
 5340SOL    HW216557   2.479   2.915   4.409
 5341SOL     OW16558   2.575   3.014   5.536
 5341SOL    HW116559   2.622   3.092   5.565
 5341SOL    HW216560   2.492   3.047   5.500
 5342SOL     OW16561   2.193   3.285   4.791
 5342SOL    HW116562   2.120   3.248   4.742
 5342SOL    HW216563   2.241   3.337   4.727
 5343SOL     OW16564   3.321   3.363   5.080
 5343SOL    HW116565   3.374   3.442   5.090
 5343SOL    HW216566   3.257   3.368   5.150
 5344SOL     OW16567   2.285   2.234   5.199
 5344SOL    HW116568   2.374   2.201   5.214
 5344SOL    HW216569   2.229   2.157   5.207
 5345SOL     OW16570   3.473   2.309   4.467
 5345SOL    HW116571   3.399   2.331   4.410
 5345SOL    HW216572   3.486   2.387   4.521
 5346SOL     OW16573   2.083   3.578   4.203
 5346SOL    HW116574   2.115   3.638   4.270
 5346SOL    HW216575   2.154   3.574   4.139
 5347SOL     OW16576   2.999   3.204   5.418
 5347SOL    HW116577   3.039   3.198   5.504
 5347SOL    HW216578   2.946   3.124   5.410
 5348SOL     OW16579   2.091   3.304   4.259
 5348SOL    HW116580   2.073   3.398   4.264
 5348SOL    HW216581   2.033   3.264   4.324
 5349SOL     OW16582   2.122   2.954   4.615
 5349SOL    HW116583   2.118   2.867   4.656
 5349SOL    HW216584   2.064   3.008   4.669
 5350SOL     OW16585   2.471   3.648   5.152
 5350SOL    HW116586   2.390   3.633   5.200
 5350SOL    HW216587   2.497   3.737   5.177
 5351SOL     OW16588   2.446   2.844   3.859
 5351SOL    HW116589   2.493   2.892   3.791
 5351SOL    HW216590   2.485   2.876   3.941
 5352SOL     OW16591   3.458   1.987   5.190
 5352SOL    HW116592   3.467   2.069   5.142
 5352SOL    HW216593   3.443   2.014   5.281
 5353SOL     OW16594   1.985   2.526   4.284
 5353SOL    HW116595   1.949   2.439   4.303
 5353SOL    HW216596   1.974   2.575   4.365
 5354SOL     OW16597   3.700   3.614   4.065
 5354SOL    HW116598   3.770   3.588   4.125
 5354SOL    HW216599   3.720   3.704   4.041
 5355SOL     OW16600   1.891   3.454   3.846
 5355SOL    HW116601   1.876   3.362   3.867
 5355SOL    HW216602   1.870   3.501   3.927
 5356SOL     OW16603   3.550   2.782   4.369
 5356SOL    HW116604   3.633   2.738   4.351
 5356SOL    HW216605   3.531   2.831   4.289
 5357SOL     OW16606   3.503   2.967   4.155
 5357SOL    HW116607   3.588   2.972   4.111
 5357SOL    HW216608   3.510   3.030   4.227
 5358SOL     OW16609   1.984   2.609   5.306
 5358SOL    HW116610   2.075   2.637   5.315
 5358SOL    HW216611   1.933   2.689   5.316
 5359SOL     OW16612   2.477   3.250   4.459
 5359SOL    HW116613   2.431   3.166   4.468
 5359SOL    HW216614   2.460   3.277   4.368
 5360SOL     OW16615   3.150   3.099   5.147
 5360SOL    HW116616   3.182   3.033   5.086
 5360SOL    HW216617   3.208   3.094   5.222
 5361SOL     OW16618   2.702   1.862   4.241
 5361SOL    HW116619   2.742   1.946   4.217
 5361SOL    HW216620   2.608   1.879   4.236
 5362SOL     OW16621   2.052   2.828   4.997
 5362SOL    HW116622   2.137   2.786   4.981
 5362SOL    HW216623   1.989   2.773   4.950
 5363SOL     OW16624   3.390   2.857   3.924
 5363SOL    HW116625   3.321   2.800   3.957
 5363SOL    HW216626   3.432   2.892   4.002
 5364SOL     OW16627   3.079   3.666   5.350
 5364SOL    HW116628   3.056   3.726   5.279
 5364SOL    HW216629   3.079   3.579   5.310
 5365SOL     OW16630   3.327   3.282   4.673
 5365SOL    HW116631   3.260   3.297   4.741
 5365SOL    HW216632   3.316   3.191   4.648
 5366SOL     OW16633   3.511   3.605   4.304
 5366SOL    HW116634   3.501   3.571   4.215
 5366SOL    HW216635   3.493   3.530   4.361
 5367SOL     OW16636   2.459   2.585   3.993
 5367SOL    HW116637   2.462   2.667   3.943
 5367SOL    HW216638   2.393   2.602   4.060
 5368SOL     OW16639   3.140   2.218   4.657
 5368SOL    HW116640   3.051   2.183   4.666
 5368SOL    HW216641   3.192   2.165   4.717
 5369SOL     OW16642   3.437   3.538   4.032
 5369SOL    HW116643   3.529   3.563   4.028
 5369SOL    HW216644   3.413   3.518   3.941
 5370SOL     OW16645   2.654   2.480   5.173
 5370SOL    HW116646   2.630   2.456   5.262
 5370SOL    HW216647   2.615   2.412   5.118
 5371SOL     OW16648   3.256   2.336   5.402
 5371SOL    HW116649   3.258   2.381   5.486
 5371SOL    HW216650   3.315   2.261   5.413
 5372SOL     OW16651   2.816   2.749   5.307
 5372SOL    HW116652   2.871   2.679   5.271
 5372SOL    HW216653   2.768   2.783   5.232
 5373SOL     OW16654   2.856   2.275   4.961
 5373SOL    HW116655   2.770   2.295   4.998
 5373SOL    HW216656   2.836   2.229   4.880
 5374SOL     OW16657   2.914   2.560   4.149
 5374SOL    HW116658   2.930   2.554   4.243
 5374SOL    HW216659   2.831   2.514   4.136
 5375SOL     OW16660   1.950   2.686   4.502
 5375SOL    HW116661   2.032   2.680   4.553
 5375SOL    HW216662   1.906   2.763   4.536
 5376SOL     OW16663   1.984   3.706   5.300
 5376SOL    HW116664   1.986   3.686   5.394
 5376SOL    HW216665   1.891   3.705   5.278
 5377SOL     OW16666   2.758   2.213   3.920
 5377SOL    HW116667   2.799   2.274   3.858
 5377SOL    HW216668   2.766   2.127   3.878
 5378SOL     OW16669   3.574   2.437   5.552
 5378SOL    HW116670   3.535   2.510   5.505
 5378SOL    HW216671   3.596   2.373   5.484
 5379SOL     OW16672   3.238   3.004   4.265
 5379SOL    HW116673   3.318   2.991   4.213
 5379SOL    HW216674   3.187   3.066   4.214
 5380SOL     OW16675   2.408   2.051   4.619
 5380SOL    HW116676   2.410   2.075   4.712
 5380SOL    HW216677   2.428   2.133   4.574
 5381SOL     OW16678   2.867   3.307   4.195
 5381SOL    HW116679   2.829   3.380   4.146
 5381SOL    HW216680   2.847   3.326   4.287
 5382SOL     OW16681   2.213   3.672   4.564
 5382SOL    HW116682   2.263   3.593   4.582
 5382SOL    HW216683   2.273   3.744   4.586
 5383SOL     OW16684   3.667   2.923   4.591
 5383SOL    HW116685   3.613   2.898   4.516
 5383SOL    HW216686   3.605   2.926   4.664
 5384SOL     OW16687   3.089   3.399   5.236
 5384SOL    HW116688   3.076   3.327   5.297
 5384SOL    HW216689   3.023   3.386   5.168
 5385SOL     OW16690   2.180   2.819   3.976
 5385SOL    HW116691   2.261   2.837   3.929
 5385SOL    HW216692   2.148   2.737   3.938
 5386SOL     OW16693   3.341   2.606   4.450
 5386SOL    HW116694   3.334   2.564   4.536
 5386SOL    HW216695   3.419   2.662   4.457
 5387SOL     OW16696   2.329   3.127   5.461
 5387SOL    HW116697   2.302   3.132   5.370
 5387SOL    HW216698   2.247   3.125   5.510
 5388SOL     OW16699   2.976   3.643   3.946
 5388SOL    HW116700   2.912   3.597   4.001
 5388SOL    HW216701   3.006   3.577   3.883
 5389SOL     OW16702   3.487   3.246   3.813
 5389SOL    HW116703   3.444   3.330   3.795
 5389SOL    HW216704   3.420   3.180   3.793
 5390SOL     OW16705   2.329   3.597   4.049
 5390SOL    HW116706   2.367   3.662   4.108
 5390SOL    HW216707   2.402   3.572   3.992
 5391SOL     OW16708   3.263   1.970   4.159
 5391SOL    HW116709   3.255   1.944   4.067
 5391SOL    HW216710   3.357   1.975   4.174
 5392SOL     OW16711   2.121   3.654   4.949
 5392SOL    HW116712   2.169   3.585   4.995
 5392SOL    HW216713   2.107   3.618   4.861
 5393SOL     OW16714   2.800   3.562   4.624
 5393SOL    HW116715   2.877   3.510   4.646
 5393SOL    HW216716   2.756   3.513   4.555
 5394SOL     OW16717   2.257   2.557   4.199
 5394SOL    HW116718   2.275   2.463   4.210
 5394SOL    HW216719   2.163   2.565   4.217
 5395SOL     OW16720   3.396   2.087   5.449
 5395SOL    HW116721   3.406   2.107   5.542
 5395SOL    HW216722   3.327   2.020   5.446
 5396SOL     OW16723   2.510   1.986   3.829
 5396SOL    HW116724   2.570   1.918   3.857
 5396SOL    HW216725   2.461   1.947   3.756
 5397SOL     OW16726   2.624   2.136   5.476
 5397SOL    HW116727   2.703   2.082   5.476
 5397SOL    HW216728   2.593   2.133   5.567
 5398SOL     OW16729   2.738   3.383   4.919
 5398SOL    HW116730   2.722   3.347   4.831
 5398SOL    HW216731   2.808   3.328   4.954
 5399SOL     OW16732   3.203   2.451   5.157
 5399SOL    HW116733   3.233   2.420   5.242
 5399SOL    HW216734   3.239   2.539   5.149
 5400SOL     OW16735   2.678   3.255   4.665
 5400SOL    HW116736   2.762   3.243   4.622
 5400SOL    HW216737   2.614   3.258   4.594
 5401SOL     OW16738   2.789   2.370   4.627
 5401SOL    HW116739   2.766   2.362   4.534
 5401SOL    HW216740   2.822   2.284   4.650
 5402SOL     OW16741   2.447   1.925   4.199
 5402SOL    HW116742   2.372   1.914   4.258
 5402SOL    HW216743   2.427   2.006   4.151
 5403SOL     OW16744   3.290   3.061   3.765
 5403SOL    HW116745   3.321   2.986   3.815
 5403SOL    HW216746   3.204   3.082   3.802
 5404SOL     OW16747   2.806   2.112   4.182
 5404SOL    HW116748   2.779   2.152   4.099
 5404SOL    HW216749   2.900   2.128   4.186
 5405SOL     OW16750   2.943   2.544   5.182
 5405SOL    HW116751   2.876   2.476   5.190
 5405SOL    HW216752   3.026   2.496   5.177
 5406SOL     OW16753   3.084   3.432   4.518
 5406SOL    HW116754   3.100   3.500   4.452
 5406SOL    HW216755   3.153   3.444   4.583
 5407SOL     OW16756   2.332   3.013   4.455
 5407SOL    HW116757   2.263   2.994   4.519
 5407SOL    HW216758   2.291   2.997   4.370
 5408SOL     OW16759   3.129   3.657   4.331
 5408SOL    HW116760   3.175   3.722   4.278
 5408SOL    HW216761   3.057   3.706   4.371
 5409SOL     OW16762   2.885   2.402   3.748
 5409SOL    HW116763   2.842   2.485   3.728
 5409SOL    HW216764   2.950   2.423   3.814
 5410SOL     OW16765   1.938   2.424   5.110
 5410SOL    HW116766   2.032   2.419   5.089
 5410SOL    HW216767   1.933   2.490   5.179
 5411SOL     OW16768   2.415   2.082   4.895
 5411SOL    HW116769   2.467   2.006   4.921
 5411SOL    HW216770   2.332   2.073   4.941
 5412SOL     OW16771   2.726   2.319   4.364
 5412SOL    HW116772   2.685   2.375   4.298
 5412SOL    HW216773   2.751   2.240   4.316
 5413SOL     OW16774   2.875   1.916   4.475
 5413SOL    HW116775   2.820   1.904   4.397
 5413SOL    HW216776   2.854   1.840   4.530
 5414SOL     OW16777   3.300   3.024   4.581
 5414SOL    HW116778   3.230   2.959   4.581
 5414SOL    HW216779   3.325   3.033   4.489
 5415SOL     OW16780   3.327   2.469   4.699
 5415SOL    HW116781   3.276   2.389   4.701
 5415SOL    HW216782   3.386   2.463   4.773
 5416SOL     OW16783   3.723   2.679   4.099
 5416SOL    HW116784   3.767   2.623   4.163
 5416SOL    HW216785   3.686   2.618   4.035
 5417SOL     OW16786   2.353   3.280   3.878
 5417SOL    HW116787   2.277   3.252   3.931
 5417SOL    HW216788   2.339   3.238   3.793
 5418SOL     OW16789   3.529   3.127   4.368
 5418SOL    HW116790   3.624   3.130   4.378
 5418SOL    HW216791   3.500   3.216   4.390
 5419SOL     OW16792   3.256   2.433   3.795
 5419SOL    HW116793   3.194   2.414   3.866
 5419SOL    HW216794   3.340   2.401   3.828
 5420SOL     OW16795   2.384   2.130   4.034
 5420SOL    HW116796   2.429   2.081   3.965
 5420SOL    HW216797   2.361   2.214   3.993
 5421SOL     OW16798   3.613   3.097   5.291
 5421SOL    HW116799   3.701   3.061   5.274
 5421SOL    HW216800   3.630   3.186   5.321
 5422SOL     OW16801   2.919   3.215   5.056
 5422SOL    HW116802   2.845   3.184   5.108
 5422SOL    HW216803   2.995   3.174   5.098
 5423SOL     OW16804   3.469   3.491   5.380
 5423SOL    HW116805   3.460   3.524   5.291
 5423SOL    HW216806   3.550   3.440   5.379
 5424SOL     OW16807   2.992   3.067   4.828
 5424SOL    HW116808   2.934   3.105   4.893
 5424SOL    HW216809   2.960   3.100   4.744
 5425SOL     OW16810   3.491   2.959   4.799
 5425SOL    HW116811   3.483   3.020   4.872
 5425SOL    HW216812   3.413   2.974   4.746
 5426SOL     OW16813   2.779   1.959   5.118
 5426SOL    HW116814   2.804   1.939   5.027
 5426SOL    HW216815   2.857   1.998   5.156
 5427SOL     OW16816   2.846   2.977   5.446
 5427SOL    HW116817   2.755   2.993   5.469
 5427SOL    HW216818   2.844   2.899   5.391
 5428SOL     OW16819   2.571   2.924   4.095
 5428SOL    HW116820   2.557   2.906   4.188
 5428SOL    HW216821   2.647   2.870   4.071
 5429SOL     OW16822   2.280   2.676   4.975
 5429SOL    HW116823   2.349   2.687   5.041
 5429SOL    HW216824   2.246   2.588   4.991
 5430SOL     OW16825   3.127   2.239   5.001
 5430SOL    HW116826   3.160   2.316   5.047
 5430SOL    HW216827   3.037   2.261   4.978
 5431SOL     OW16828   1.934   3.435   5.077
 5431SOL    HW116829   1.906   3.510   5.025
 5431SOL    HW216830   2.029   3.437   5.073
 5432SOL     OW16831   2.208   2.973   4.214
 5432SOL    HW116832   2.213   3.047   4.152
 5432SOL    HW216833   2.205   2.895   4.158
 5433SOL     OW16834   2.407   2.398   4.586
 5433SOL    HW116835   2.421   2.455   4.511
 5433SOL    HW216836   2.474   2.424   4.649
 5434SOL     OW16837   3.110   3.211   4.113
 5434SOL    HW116838   3.166   3.282   4.145
 5434SOL    HW216839   3.023   3.232   4.147
 5435SOL     OW16840   3.145   3.321   4.871
 5435SOL    HW116841   3.201   3.325   4.949
 5435SOL    HW216842   3.090   3.244   4.885
 5436SOL     OW16843   3.441   2.483   4.205
 5436SOL    HW116844   3.394   2.535   4.269
 5436SOL    HW216845   3.484   2.547   4.148
 5437SOL     OW16846   2.208   3.391   5.037
 5437SOL    HW116847   2.196   3.347   4.953
 5437SOL    HW216848   2.302   3.402   5.045
 5438SOL     OW16849   2.277   2.609   5.328
 5438SOL    HW116850   2.340   2.652   5.268
 5438SOL    HW216851   2.321   2.528   5.354
 5439SOL     OW16852   3.466   2.640   5.406
 5439SOL    HW116853   3.380   2.682   5.401
 5439SOL    HW216854   3.518   2.684   5.339
 5440SOL     OW16855   2.858   1.988   5.475
 5440SOL    HW116856   2.916   2.060   5.453
 5440SOL    HW216857   2.908   1.909   5.451
 5441SOL     OW16858   2.375   1.894   5.469
 5441SOL    HW116859   2.325   1.839   5.408
 5441SOL    HW216860   2.315   1.965   5.493
 5442SOL     OW16861   2.446   2.735   4.756
 5442SOL    HW116862   2.478   2.825   4.755
 5442SOL    HW216863   2.390   2.730   4.833
 5443SOL     OW16864   3.217   2.721   4.751
 5443SOL    HW116865   3.133   2.709   4.707
 5443SOL    HW216866   3.260   2.636   4.745
 5444SOL     OW16867   3.065   2.390   3.989
 5444SOL    HW116868   3.074   2.312   4.043
 5444SOL    HW216869   3.022   2.455   4.045
 5445SOL     OW16870   1.908   3.173   5.000
 5445SOL    HW116871   1.941   3.118   5.071
 5445SOL    HW216872   1.914   3.262   5.033
 5446SOL     OW16873   2.582   2.489   4.779
 5446SOL    HW116874   2.660   2.475   4.725
 5446SOL    HW216875   2.557   2.580   4.761
 5447SOL     OW16876   3.593   2.821   5.584
 5447SOL    HW116877   3.552   2.758   5.525
 5447SOL    HW216878   3.529   2.834   5.654
 5448SOL     OW16879   2.222   1.896   4.332
 5448SOL    HW116880   2.148   1.953   4.312
 5448SOL    HW216881   2.209   1.870   4.423
 5449SOL     OW16882   3.480   2.238   4.089
 5449SOL    HW116883   3.507   2.173   4.154
 5449SOL    HW216884   3.457   2.315   4.140
 5450SOL     OW16885   2.889   2.620   4.684
 5450SOL    HW116886   2.885   2.638   4.778
 5450SOL    HW216887   2.864   2.528   4.675
 5451SOL     OW16888   2.847   3.430   5.444
 5451SOL    HW116889   2.829   3.471   5.359
 5451SOL    HW216890   2.889   3.347   5.421
 5452SOL     OW16891   3.706   3.362   5.323
 5452SOL    HW116892   3.729   3.391   5.234
 5452SOL    HW216893   3.786   3.373   5.373
 5453SOL     OW16894   2.216   2.781   5.535
 5453SOL    HW116895   2.300   2.800   5.579
 5453SOL    HW216896   2.239   2.718   5.467
 5454SOL     OW16897   3.391   2.135   3.851
 5454SOL    HW116898   3.326   2.070   3.878
 5454SOL    HW216899   3.424   2.170   3.934
 5455SOL     OW16900   3.152   2.687   3.754
 5455SOL    HW116901   3.195   2.602   3.758
 5455SOL    HW216902   3.184   2.727   3.673
 5456SOL     OW16903   2.928   3.198   4.578
 5456SOL    HW116904   2.932   3.126   4.516
 5456SOL    HW216905   2.989   3.263   4.543
 5457SOL     OW16906   2.172   2.673   4.671
 5457SOL    HW116907   2.264   2.695   4.661
 5457SOL    HW216908   2.172   2.586   4.710
 5458SOL     OW16909   2.186   2.361   4.736
 5458SOL    HW116910   2.145   2.289   4.688
 5458SOL    HW216911   2.266   2.380   4.686
 5459SOL     OW16912   2.997   2.238   5.405
 5459SOL    HW116913   2.949   2.292   5.468
 5459SOL    HW216914   3.084   2.276   5.402
 5460SOL     OW16915   3.022   2.064   5.193
 5460SOL    HW116916   3.011   2.126   5.265
 5460SOL    HW216917   3.063   2.115   5.124
 5461SOL     OW16918   1.867   3.182   3.919
 5461SOL    HW116919   1.780   3.196   3.882
 5461SOL    HW216920   1.864   3.092   3.953
 5462SOL     OW16921   1.958   3.642   4.661
 5462SOL    HW116922   1.927   3.564   4.617
 5462SOL    HW216923   2.044   3.660   4.622
 5463SOL     OW16924   2.357   3.437   4.629
 5463SOL    HW116925   2.424   3.500   4.654
 5463SOL    HW216926   2.401   3.375   4.573
 5464SOL     OW16927   2.842   2.652   4.950
 5464SOL    HW116928   2.901   2.631   5.022
 5464SOL    HW216929   2.757   2.617   4.977
 5465SOL     OW16930   1.900   2.399   4.841
 5465SOL    HW116931   1.984   2.401   4.796
 5465SOL    HW216932   1.921   2.413   4.934
 5466SOL     OW16933   2.062   2.391   5.449
 5466SOL    HW116934   2.123   2.357   5.384
 5466SOL    HW216935   2.015   2.462   5.404
 5467SOL     OW16936   3.241   2.799   5.382
 5467SOL    HW116937   3.262   2.893   5.380
 5467SOL    HW216938   3.237   2.773   5.290
 5468SOL     OW16939   2.678   2.431   4.088
 5468SOL    HW116940   2.683   2.358   4.027
 5468SOL    HW216941   2.605   2.484   4.056
 5469SOL     OW16942   3.502   2.464   4.908
 5469SOL    HW116943   3.491   2.403   4.982
 5469SOL    HW216944   3.588   2.442   4.872
 5470SOL     OW16945   2.105   3.411   5.450
 5470SOL    HW116946   2.082   3.477   5.515
 5470SOL    HW216947   2.108   3.329   5.498
 5471SOL     OW16948   2.561   2.311   4.983
 5471SOL    HW116949   2.510   2.236   4.952
 5471SOL    HW216950   2.558   2.374   4.910
 5472SOL     OW16951   2.790   3.534   5.193
 5472SOL    HW116952   2.763   3.497   5.109
 5472SOL    HW216953   2.781   3.629   5.180
 5473SOL     OW16954   2.325   2.361   3.914
 5473SOL    HW116955   2.383   2.434   3.935
 5473SOL    HW216956   2.240   2.401   3.895
 5474SOL     OW16957   2.007   3.004   5.197
 5474SOL    HW116958   2.008   2.953   5.278
 5474SOL    HW216959   2.024   2.939   5.128
 5475SOL     OW16960   3.185   2.907   4.946
 5475SOL    HW116961   3.209   2.844   4.878
 5475SOL    HW216962   3.117   2.961   4.906
 5476SOL     OW16963   3.174   2.718   4.030
 5476SOL    HW116964   3.099   2.688   4.081
 5476SOL    HW216965   3.148   2.704   3.938
 5477SOL     OW16966   3.637   3.604   4.877
 5477SOL    HW116967   3.696   3.630   4.806
 5477SOL    HW216968   3.611   3.515   4.855
 5478SOL     OW16969   3.106   3.596   4.834
 5478SOL    HW116970   3.188   3.616   4.791
 5478SOL    HW216971   3.111   3.502   4.854
 5479SOL     OW16972   1.946   3.129   4.735
 5479SOL    HW116973   1.932   3.142   4.829
 5479SOL    HW216974   1.873   3.074   4.707
 5480SOL     OW16975   2.540   3.526   5.455
 5480SOL    HW116976   2.484   3.604   5.459
 5480SOL    HW216977   2.601   3.544   5.383
 5481SOL     OW16978   3.573   2.011   4.236
 5481SOL    HW116979   3.641   1.998   4.170
 5481SOL    HW216980   3.562   1.924   4.276
 5482SOL     OW16981   3.252   3.430   4.211
 5482SOL    HW116982   3.311   3.464   4.144
 5482SOL    HW216983   3.204   3.508   4.241
 5483SOL     OW16984   1.995   3.653   5.563
 5483SOL    HW116985   1.944   3.589   5.612
 5483SOL    HW216986   2.045   3.700   5.630
 5484SOL     OW16987   3.139   2.788   4.395
 5484SOL    HW116988   3.213   2.728   4.403
 5484SOL    HW216989   3.173   2.860   4.342
 5485SOL     OW16990   2.674   3.136   5.152
 5485SOL    HW116991   2.646   3.175   5.235
 5485SOL    HW216992   2.604   3.158   5.091
 5486SOL     OW16993   2.537   3.479   3.881
 5486SOL    HW116994   2.546   3.496   3.788
 5486SOL    HW216995   2.478   3.403   3.886
 5487SOL     OW16996   3.483   3.588   5.114
 5487SOL    HW116997   3.537   3.592   5.036
 5487SOL    HW216998   3.470   3.680   5.139
 5488SOL     OW16999   3.700   2.043   4.692
 5488SOL    HW117000   3.730   1.956   4.666
 5488SOL    HW217001   3.613   2.051   4.651
 5489SOL     OW17002   3.069   3.467   3.759
 5489SOL    HW117003   3.059   3.375   3.784
 5489SOL    HW217004   3.008   3.479   3.687
 5490SOL     OW17005   2.686   2.868   5.096
 5490SOL    HW117006   2.730   2.864   5.012
 5490SOL    HW217007   2.684   2.961   5.118
 5491SOL     OW17008   2.778   2.772   4.014
 5491SOL    HW117009   2.839   2.805   3.948
 5491SOL    HW217010   2.827   2.704   4.060
 5492SOL     OW17011   3.351   3.493   3.766
 5492SOL    HW117012   3.257   3.481   3.750
 5492SOL    HW217013   3.390   3.497   3.679
 5493SOL     OW17014   2.231   3.165   5.215
 5493SOL    HW117015   2.217   3.242   5.160
 5493SOL    HW217016   2.154   3.111   5.200
 5494SOL     OW17017   3.464   3.142   5.002
 5494SOL    HW117018   3.532   3.134   5.069
 5494SOL    HW217019   3.407   3.212   5.034
 5495SOL     OW17020   2.917   2.970   4.432
 5495SOL    HW117021   2.845   2.919   4.470
 5495SOL    HW217022   2.980   2.904   4.402
 5496SOL     OW17023   2.882   2.102   4.690
 5496SOL    HW117024   2.879   2.054   4.607
 5496SOL    HW217025   2.879   2.034   4.757
 5497SOL     OW17026   2.466   3.353   4.204
 5497SOL    HW117027   2.511   3.301   4.136
 5497SOL    HW217028   2.397   3.399   4.156
 5498SOL     OW17029   3.586   2.252   5.102
 5498SOL    HW117030   3.657   2.315   5.099
 5498SOL    HW217031   3.614   2.180   5.047
 5499SOL     OW17032   2.122   3.206   4.013
 5499SOL    HW117033   2.029   3.203   3.990
 5499SOL    HW217034   2.124   3.244   4.101
 5500SOL     OW17035   1.975   2.886   5.444
 5500SOL    HW117036   1.898   2.862   5.496
 5500SOL    HW217037   2.049   2.848   5.491
 5501SOL     OW17038   2.535   2.060   5.223
 5501SOL    HW117039   2.619   2.039   5.182
 5501SOL    HW217040   2.557   2.087   5.312
 5502SOL     OW17041   1.897   2.282   3.784
 5502SOL    HW117042   1.860   2.198   3.755
 5502SOL    HW217043   1.948   2.312   3.708
 5503SOL     OW17044   3.289   2.720   5.124
 5503SOL    HW117045   3.240   2.782   5.069
 5503SOL    HW217046   3.378   2.722   5.087
 5504SOL     OW17047   3.040   3.200   3.841
 5504SOL    HW117048   2.949   3.170   3.843
 5504SOL    HW217049   3.067   3.200   3.933
 5505SOL     OW17050   2.481   2.692   5.157
 5505SOL    HW117051   2.537   2.769   5.143
 5505SOL    HW217052   2.542   2.619   5.166
 5506SOL     OW17053   3.347   3.643   4.706
 5506SOL    HW117054   3.371   3.696   4.630
 5506SOL    HW217055   3.430   3.613   4.742
 5507SOL     OW17056   2.579   2.424   5.425
 5507SOL    HW117057   2.620   2.487   5.485
 5507SOL    HW217058   2.603   2.338   5.460
 5508SOL     OW17059   3.334   3.061   5.355
 5508SOL    HW117060   3.323   3.074   5.449
 5508SOL    HW217061   3.427   3.076   5.339
 5509SOL     OW17062   2.238   3.602   5.288
 5509SOL    HW117063   2.153   3.643   5.273
 5509SOL    HW217064   2.217   3.518   5.330
 5510SOL     OW17065   3.528   2.743   4.983
 5510SOL    HW117066   3.526   2.657   4.940
 5510SOL    HW217067   3.521   2.806   4.911
 5511SOL     OW17068   3.079   2.182   4.181
 5511SOL    HW117069   3.142   2.109   4.173
 5511SOL    HW217070   3.108   2.230   4.258
 5512SOL     OW17071   2.448   2.598   4.397
 5512SOL    HW117072   2.490   2.683   4.382
 5512SOL    HW217073   2.383   2.590   4.327
 5513SOL     OW17074   3.622   2.227   5.374
 5513SOL    HW117075   3.604   2.240   5.280
 5513SOL    HW217076   3.552   2.169   5.403
 5514SOL     OW17077   3.618   2.791   5.237
 5514SOL    HW117078   3.609   2.885   5.254
 5514SOL    HW217079   3.594   2.781   5.145
 5515SOL     OW17080   2.725   3.229   3.761
 5515SOL    HW117081   2.685   3.257   3.843
 5515SOL    HW217082   2.741   3.311   3.714
 5516SOL     OW17083   2.522   3.652   4.665
 5516SOL    HW117084   2.501   3.743   4.643
 5516SOL    HW217085   2.618   3.647   4.659
 5517SOL     OW17086   2.730   2.830   4.579
 5517SOL    HW117087   2.780   2.758   4.618
 5517SOL    HW217088   2.694   2.878   4.654
 5518SOL     OW17089   2.941   2.851   3.813
 5518SOL    HW117090   2.919   2.902   3.735
 5518SOL    HW217091   3.015   2.797   3.786
 5519SOL     OW17092   3.713   3.417   4.565
 5519SOL    HW117093   3.634   3.398   4.515
 5519SOL    HW217094   3.715   3.350   4.633
 5520SOL     OW17095   2.087   3.164   5.580
 5520SOL    HW117096   2.020   3.102   5.549
 5520SOL    HW217097   2.068   3.176   5.673
 5521SOL     OW17098   1.947   3.094   4.389
 5521SOL    HW117099   1.954   3.047   4.472
 5521SOL    HW217100   2.014   3.054   4.333
 5522SOL     OW17101   2.544   3.266   5.352
 5522SOL    HW117102   2.465   3.224   5.384
 5522SOL    HW217103   2.541   3.354   5.390
 5523SOL     OW17104   3.676   2.041   4.963
 5523SOL    HW117105   3.667   1.946   4.966
 5523SOL    HW217106   3.690   2.061   4.870
 5524SOL     OW17107   2.292   2.292   4.246
 5524SOL    HW117108   2.325   2.233   4.179
 5524SOL    HW217109   2.252   2.235   4.312
 5525SOL     OW17110   3.559   3.352   4.821
 5525SOL    HW117111   3.480   3.327   4.773
 5525SOL    HW217112   3.571   3.281   4.884
 5526SOL     OW17113   2.193   2.417   5.013
 5526SOL    HW117114   2.238   2.356   5.072
 5526SOL    HW217115   2.210   2.382   4.926
 5527SOL     OW17116   2.690   3.440   4.401
 5527SOL    HW117117   2.673   3.491   4.321
 5527SOL    HW217118   2.615   3.381   4.407
 5528SOL     OW17119   3.293   2.089   4.841
 5528SOL    HW117120   3.314   2.006   4.885
 5528SOL    HW217121   3.242   2.138   4.906
 5529SOL     OW17122   2.871   1.880   4.864
 5529SOL    HW117123   2.817   1.812   4.824
 5529SOL    HW217124   2.959   1.842   4.867
 5530SOL     OW17125   2.635   3.194   4.041
 5530SOL    HW117126   2.604   3.104   4.047
 5530SOL    HW217127   2.717   3.195   4.090
 5531SOL     OW17128   2.482   3.416   5.008
 5531SOL    HW117129   2.483   3.497   5.059
 5531SOL    HW217130   2.570   3.409   4.971
 5532SOL     OW17131   3.216   1.915   3.890
 5532SOL    HW117132   3.246   1.848   3.829
 5532SOL    HW217133   3.128   1.887   3.915
 5533SOL     OW17134   3.157   2.323   4.404
 5533SOL    HW117135   3.105   2.403   4.411
 5533SOL    HW217136   3.154   2.285   4.491
 5534SOL     OW17137   3.444   2.062   4.601
 5534SOL    HW117138   3.387   2.085   4.675
 5534SOL    HW217139   3.446   2.140   4.546
 5535SOL     OW17140   1.906   2.932   4.031
 5535SOL    HW117141   1.999   2.923   4.012
 5535SOL    HW217142   1.877   2.843   4.053
 5536SOL     OW17143   2.748   3.520   4.067
 5536SOL    HW117144   2.677   3.500   4.006
 5536SOL    HW217145   2.716   3.595   4.117
 5537SOL     OW17146   2.096   2.493   5.709
 5537SOL    HW117147   2.010   2.471   5.746
 5537SOL    HW217148   2.091   2.464   5.618
 5538SOL     OW17149   1.852   2.285   6.211
 5538SOL    HW117150   1.794   2.262   6.284
 5538SOL    HW217151   1.849   2.208   6.154
 5539SOL     OW17152   2.429   3.155   6.765
 5539SOL    HW117153   2.342   3.162   6.725
 5539SOL    HW217154   2.446   3.243   6.799
 5540SOL     OW17155   3.424   3.374   6.294
 5540SOL    HW117156   3.382   3.352   6.377
 5540SOL    HW217157   3.353   3.377   6.231
 5541SOL     OW17158   2.990   2.557   6.295
 5541SOL    HW117159   3.039   2.635   6.270
 5541SOL    HW217160   2.948   2.580   6.378
 5542SOL     OW17161   3.628   2.468   5.816
 5542SOL    HW117162   3.609   2.461   5.722
 5542SOL    HW217163   3.594   2.388   5.854
 5543SOL     OW17164   2.617   3.013   6.635
 5543SOL    HW117165   2.549   3.053   6.688
 5543SOL    HW217166   2.654   3.086   6.585
 5544SOL     OW17167   2.750   2.649   7.416
 5544SOL    HW117168   2.704   2.715   7.468
 5544SOL    HW217169   2.764   2.691   7.331
 5545SOL     OW17170   2.556   2.890   6.227
 5545SOL    HW117171   2.615   2.859   6.296
 5545SOL    HW217172   2.482   2.927   6.274
 5546SOL     OW17173   2.582   3.018   7.392
 5546SOL    HW117174   2.625   3.098   7.421
 5546SOL    HW217175   2.496   3.048   7.361
 5547SOL     OW17176   2.202   3.284   6.656
 5547SOL    HW117177   2.122   3.249   6.618
 5547SOL    HW217178   2.241   3.337   6.587
 5548SOL     OW17179   3.321   3.362   6.942
 5548SOL    HW117180   3.374   3.441   6.952
 5548SOL    HW217181   3.257   3.368   7.013
 5549SOL     OW17182   2.277   2.244   7.117
 5549SOL    HW117183   2.372   2.234   7.123
 5549SOL    HW217184   2.246   2.159   7.087
 5550SOL     OW17185   3.473   2.309   6.330
 5550SOL    HW117186   3.403   2.332   6.269
 5550SOL    HW217187   3.489   2.389   6.380
 5551SOL     OW17188   2.082   3.582   6.064
 5551SOL    HW117189   2.115   3.639   6.133
 5551SOL    HW217190   2.153   3.575   6.001
 5552SOL     OW17191   2.998   3.203   7.280
 5552SOL    HW117192   3.039   3.197   7.366
 5552SOL    HW217193   2.946   3.123   7.272
 5553SOL     OW17194   2.097   3.308   6.119
 5553SOL    HW117195   2.073   3.400   6.127
 5553SOL    HW217196   2.037   3.262   6.179
 5554SOL     OW17197   2.472   3.648   7.015
 5554SOL    HW117198   2.390   3.634   7.062
 5554SOL    HW217199   2.498   3.737   7.039
 5555SOL     OW17200   2.448   2.847   5.716
 5555SOL    HW117201   2.496   2.896   5.650
 5555SOL    HW217202   2.485   2.877   5.799
 5556SOL     OW17203   3.458   1.987   7.053
 5556SOL    HW117204   3.467   2.068   7.003
 5556SOL    HW217205   3.444   2.016   7.143
 5557SOL     OW17206   2.003   2.487   6.109
 5557SOL    HW117207   1.953   2.409   6.134
 5557SOL    HW217208   2.024   2.530   6.191
 5558SOL     OW17209   3.700   3.614   5.927
 5558SOL    HW117210   3.770   3.589   5.987
 5558SOL    HW217211   3.720   3.704   5.903
 5559SOL     OW17212   1.891   3.453   5.708
 5559SOL    HW117213   1.876   3.361   5.729
 5559SOL    HW217214   1.871   3.500   5.789
 5560SOL     OW17215   3.550   2.781   6.231
 5560SOL    HW117216   3.633   2.738   6.212
 5560SOL    HW217217   3.529   2.830   6.151
 5561SOL     OW17218   3.503   2.967   6.018
 5561SOL    HW117219   3.588   2.972   5.974
 5561SOL    HW217220   3.509   3.029   6.089
 5562SOL     OW17221   2.477   3.250   6.320
 5562SOL    HW117222   2.433   3.165   6.330
 5562SOL    HW217223   2.460   3.276   6.230
 5563SOL     OW17224   3.149   3.099   7.010
 5563SOL    HW117225   3.182   3.033   6.949
 5563SOL    HW217226   3.208   3.094   7.085
 5564SOL     OW17227   2.060   2.862   6.853
 5564SOL    HW117228   2.148   2.823   6.851
 5564SOL    HW217229   2.002   2.793   6.822
 5565SOL     OW17230   3.390   2.857   5.786
 5565SOL    HW117231   3.320   2.800   5.818
 5565SOL    HW217232   3.432   2.892   5.865
 5566SOL     OW17233   3.078   3.665   7.213
 5566SOL    HW117234   3.056   3.726   7.142
 5566SOL    HW217235   3.079   3.579   7.172
 5567SOL     OW17236   3.327   3.282   6.536
 5567SOL    HW117237   3.260   3.297   6.602
 5567SOL    HW217238   3.316   3.191   6.510
 5568SOL     OW17239   3.511   3.605   6.166
 5568SOL    HW117240   3.501   3.571   6.077
 5568SOL    HW217241   3.493   3.529   6.222
 5569SOL     OW17242   2.446   2.593   5.851
 5569SOL    HW117243   2.479   2.659   5.791
 5569SOL    HW217244   2.371   2.635   5.894
 5570SOL     OW17245   3.141   2.215   6.521
 5570SOL    HW117246   3.058   2.168   6.524
 5570SOL    HW217247   3.197   2.168   6.582
 5571SOL     OW17248   3.437   3.538   5.894
 5571SOL    HW117249   3.529   3.563   5.890
 5571SOL    HW217250   3.413   3.518   5.804
 5572SOL     OW17251   3.273   2.342   7.261
 5572SOL    HW117252   3.269   2.385   7.346
 5572SOL    HW217253   3.327   2.264   7.275
 5573SOL     OW17254   2.816   2.747   7.163
 5573SOL    HW117255   2.868   2.675   7.128
 5573SOL    HW217256   2.780   2.790   7.086
 5574SOL     OW17257   2.859   2.269   6.810
 5574SOL    HW117258   2.786   2.303   6.862
 5574SOL    HW217259   2.820   2.198   6.758
 5575SOL     OW17260   2.918   2.563   6.010
 5575SOL    HW117261   2.920   2.550   6.104
 5575SOL    HW217262   2.837   2.519   5.982
 5576SOL     OW17263   1.984   3.705   7.162
 5576SOL    HW117264   1.985   3.686   7.256
 5576SOL    HW217265   1.891   3.707   7.139
 5577SOL     OW17266   2.735   2.207   5.756
 5577SOL    HW117267   2.788   2.269   5.707
 5577SOL    HW217268   2.789   2.128   5.761
 5578SOL     OW17269   3.573   2.437   7.414
 5578SOL    HW117270   3.534   2.510   7.367
 5578SOL    HW217271   3.596   2.373   7.346
 5579SOL     OW17272   3.238   3.003   6.128
 5579SOL    HW117273   3.317   2.990   6.076
 5579SOL    HW217274   3.186   3.065   6.077
 5580SOL     OW17275   2.867   3.308   6.057
 5580SOL    HW117276   2.829   3.381   6.008
 5580SOL    HW217277   2.846   3.326   6.149
 5581SOL     OW17278   2.213   3.673   6.426
 5581SOL    HW117279   2.263   3.593   6.443
 5581SOL    HW217280   2.273   3.744   6.448
 5582SOL     OW17281   3.667   2.923   6.453
 5582SOL    HW117282   3.613   2.899   6.377
 5582SOL    HW217283   3.605   2.926   6.526
 5583SOL     OW17284   3.089   3.399   7.098
 5583SOL    HW117285   3.076   3.326   7.159
 5583SOL    HW217286   3.023   3.385   7.030
 5584SOL     OW17287   2.189   2.809   5.842
 5584SOL    HW117288   2.264   2.835   5.789
 5584SOL    HW217289   2.149   2.737   5.793
 5585SOL     OW17290   3.341   2.606   6.313
 5585SOL    HW117291   3.336   2.565   6.400
 5585SOL    HW217292   3.419   2.662   6.318
 5586SOL     OW17293   2.329   3.129   7.326
 5586SOL    HW117294   2.304   3.134   7.234
 5586SOL    HW217295   2.247   3.127   7.373
 5587SOL     OW17296   2.976   3.643   5.808
 5587SOL    HW117297   2.912   3.596   5.863
 5587SOL    HW217298   3.006   3.577   5.745
 5588SOL     OW17299   3.487   3.246   5.675
 5588SOL    HW117300   3.444   3.330   5.657
 5588SOL    HW217301   3.420   3.180   5.655
 5589SOL     OW17302   2.329   3.597   5.910
 5589SOL    HW117303   2.367   3.662   5.970
 5589SOL    HW217304   2.402   3.571   5.854
 5590SOL     OW17305   3.266   1.966   6.021
 5590SOL    HW117306   3.256   1.944   5.928
 5590SOL    HW217307   3.361   1.974   6.033
 5591SOL     OW17308   2.122   3.654   6.811
 5591SOL    HW117309   2.170   3.584   6.856
 5591SOL    HW217310   2.106   3.619   6.723
 5592SOL     OW17311   2.800   3.562   6.486
 5592SOL    HW117312   2.877   3.510   6.507
 5592SOL    HW217313   2.755   3.513   6.417
 5593SOL     OW17314   3.397   2.087   7.311
 5593SOL    HW117315   3.406   2.107   7.405
 5593SOL    HW217316   3.326   2.024   7.307
 5594SOL     OW17317   2.498   1.977   5.699
 5594SOL    HW117318   2.579   1.926   5.711
 5594SOL    HW217319   2.459   1.940   5.619
 5595SOL     OW17320   2.738   3.383   6.781
 5595SOL    HW117321   2.722   3.348   6.693
 5595SOL    HW217322   2.809   3.328   6.815
 5596SOL     OW17323   3.196   2.458   7.022
 5596SOL    HW117324   3.233   2.424   7.104
 5596SOL    HW217325   3.238   2.544   7.011
 5597SOL     OW17326   2.679   3.260   6.525
 5597SOL    HW117327   2.763   3.246   6.482
 5597SOL    HW217328   2.615   3.260   6.454
 5598SOL     OW17329   2.382   1.924   6.095
 5598SOL    HW117330   2.315   1.962   6.152
 5598SOL    HW217331   2.404   1.995   6.034
 5599SOL     OW17332   3.290   3.061   5.627
 5599SOL    HW117333   3.321   2.985   5.676
 5599SOL    HW217334   3.204   3.081   5.664
 5600SOL     OW17335   2.930   2.524   7.042
 5600SOL    HW117336   2.893   2.449   7.090
 5600SOL    HW217337   3.023   2.504   7.035
 5601SOL     OW17338   3.084   3.433   6.380
 5601SOL    HW117339   3.100   3.500   6.314
 5601SOL    HW217340   3.153   3.445   6.444
 5602SOL     OW17341   2.326   3.013   6.325
 5602SOL    HW117342   2.252   3.005   6.386
 5602SOL    HW217343   2.287   3.000   6.239
 5603SOL     OW17344   3.129   3.657   6.194
 5603SOL    HW117345   3.175   3.722   6.140
 5603SOL    HW217346   3.057   3.706   6.233
 5604SOL     OW17347   2.889   2.403   5.605
 5604SOL    HW117348   2.841   2.485   5.592
 5604SOL    HW217349   2.947   2.421   5.679
 5605SOL     OW17350   1.922   2.420   7.002
 5605SOL    HW117351   2.012   2.413   6.970
 5605SOL    HW217352   1.914   2.510   7.033
 5606SOL     OW17353   3.301   3.024   6.443
 5606SOL    HW117354   3.229   2.961   6.441
 5606SOL    HW217355   3.326   3.034   6.351
 5607SOL     OW17356   3.327   2.471   6.563
 5607SOL    HW117357   3.278   2.388   6.565
 5607SOL    HW217358   3.387   2.464   6.637
 5608SOL     OW17359   3.724   2.679   5.961
 5608SOL    HW117360   3.768   2.623   6.025
 5608SOL    HW217361   3.686   2.618   5.898
 5609SOL     OW17362   2.352   3.280   5.740
 5609SOL    HW117363   2.277   3.252   5.793
 5609SOL    HW217364   2.339   3.238   5.655
 5610SOL     OW17365   3.529   3.127   6.231
 5610SOL    HW117366   3.624   3.130   6.240
 5610SOL    HW217367   3.500   3.216   6.252
 5611SOL     OW17368   3.257   2.434   5.657
 5611SOL    HW117369   3.192   2.415   5.725
 5611SOL    HW217370   3.339   2.399   5.692
 5612SOL     OW17371   2.390   2.123   5.902
 5612SOL    HW117372   2.429   2.069   5.833
 5612SOL    HW217373   2.369   2.206   5.859
 5613SOL     OW17374   3.614   3.097   7.154
 5613SOL    HW117375   3.701   3.061   7.136
 5613SOL    HW217376   3.630   3.186   7.183
 5614SOL     OW17377   2.920   3.215   6.919
 5614SOL    HW117378   2.845   3.186   6.970
 5614SOL    HW217379   2.995   3.174   6.960
 5615SOL     OW17380   3.469   3.491   7.242
 5615SOL    HW117381   3.459   3.524   7.153
 5615SOL    HW217382   3.550   3.440   7.241
 5616SOL     OW17383   2.993   3.067   6.690
 5616SOL    HW117384   2.933   3.105   6.755
 5616SOL    HW217385   2.960   3.099   6.606
 5617SOL     OW17386   3.491   2.958   6.661
 5617SOL    HW117387   3.483   3.020   6.734
 5617SOL    HW217388   3.414   2.975   6.607
 5618SOL     OW17389   2.808   1.931   6.937
 5618SOL    HW117390   2.833   1.951   6.846
 5618SOL    HW217391   2.877   1.971   6.990
 5619SOL     OW17392   2.847   2.974   7.309
 5619SOL    HW117393   2.755   2.991   7.331
 5619SOL    HW217394   2.844   2.896   7.253
 5620SOL     OW17395   2.568   2.924   5.955
 5620SOL    HW117396   2.558   2.912   6.049
 5620SOL    HW217397   2.644   2.871   5.932
 5621SOL     OW17398   2.274   2.690   6.846
 5621SOL    HW117399   2.354   2.705   6.897
 5621SOL    HW217400   2.238   2.608   6.880
 5622SOL     OW17401   3.128   2.240   6.866
 5622SOL    HW117402   3.157   2.319   6.912
 5622SOL    HW217403   3.039   2.261   6.838
 5623SOL     OW17404   1.934   3.434   6.938
 5623SOL    HW117405   1.904   3.508   6.885
 5623SOL    HW217406   2.029   3.438   6.934
 5624SOL     OW17407   2.200   2.987   6.083
 5624SOL    HW117408   2.208   3.049   6.010
 5624SOL    HW217409   2.207   2.901   6.041
 5625SOL     OW17410   3.110   3.211   5.975
 5625SOL    HW117411   3.166   3.282   6.007
 5625SOL    HW217412   3.023   3.232   6.009
 5626SOL     OW17413   3.145   3.321   6.733
 5626SOL    HW117414   3.201   3.324   6.811
 5626SOL    HW217415   3.090   3.244   6.746
 5627SOL     OW17416   3.443   2.482   6.069
 5627SOL    HW117417   3.394   2.536   6.131
 5627SOL    HW217418   3.483   2.544   6.008
 5628SOL     OW17419   2.209   3.391   6.900
 5628SOL    HW117420   2.198   3.348   6.816
 5628SOL    HW217421   2.303   3.403   6.910
 5629SOL     OW17422   3.466   2.641   7.269
 5629SOL    HW117423   3.380   2.683   7.263
 5629SOL    HW217424   3.518   2.684   7.201
 5630SOL     OW17425   2.339   1.944   7.302
 5630SOL    HW117426   2.302   1.872   7.252
 5630SOL    HW217427   2.274   1.962   7.370
 5631SOL     OW17428   2.484   2.763   6.623
 5631SOL    HW117429   2.501   2.856   6.640
 5631SOL    HW217430   2.410   2.741   6.680
 5632SOL     OW17431   3.218   2.721   6.614
 5632SOL    HW117432   3.138   2.712   6.564
 5632SOL    HW217433   3.261   2.636   6.608
 5633SOL     OW17434   3.063   2.393   5.846
 5633SOL    HW117435   3.077   2.316   5.902
 5633SOL    HW217436   3.020   2.456   5.903
 5634SOL     OW17437   2.248   2.077   6.880
 5634SOL    HW117438   2.161   2.071   6.920
 5634SOL    HW217439   2.265   1.989   6.846
 5635SOL     OW17440   1.901   3.172   6.867
 5635SOL    HW117441   1.940   3.120   6.937
 5635SOL    HW217442   1.911   3.262   6.895
 5636SOL     OW17443   3.593   2.821   7.446
 5636SOL    HW117444   3.552   2.758   7.387
 5636SOL    HW217445   3.530   2.834   7.516
 5637SOL     OW17446   3.482   2.238   5.951
 5637SOL    HW117447   3.508   2.173   6.016
 5637SOL    HW217448   3.458   2.315   6.002
 5638SOL     OW17449   2.885   2.612   6.547
 5638SOL    HW117450   2.889   2.649   6.635
 5638SOL    HW217451   2.862   2.520   6.561
 5639SOL     OW17452   2.847   3.430   7.306
 5639SOL    HW117453   2.829   3.472   7.221
 5639SOL    HW217454   2.889   3.347   7.283
 5640SOL     OW17455   3.706   3.362   7.185
 5640SOL    HW117456   3.729   3.391   7.096
 5640SOL    HW217457   3.786   3.373   7.235
 5641SOL     OW17458   3.392   2.134   5.713
 5641SOL    HW117459   3.325   2.071   5.739
 5641SOL    HW217460   3.424   2.170   5.796
 5642SOL     OW17461   3.153   2.688   5.617
 5642SOL    HW117462   3.195   2.602   5.620
 5642SOL    HW217463   3.185   2.727   5.535
 5643SOL     OW17464   2.928   3.199   6.441
 5643SOL    HW117465   2.932   3.126   6.379
 5643SOL    HW217466   2.989   3.264   6.405
 5644SOL     OW17467   3.015   2.259   7.250
 5644SOL    HW117468   2.975   2.308   7.322
 5644SOL    HW217469   3.107   2.286   7.250
 5645SOL     OW17470   3.017   2.062   7.059
 5645SOL    HW117471   3.009   2.121   7.133
 5645SOL    HW217472   3.064   2.112   6.992
 5646SOL     OW17473   1.867   3.180   5.782
 5646SOL    HW117474   1.780   3.196   5.744
 5646SOL    HW217475   1.862   3.092   5.818
 5647SOL     OW17476   1.958   3.643   6.524
 5647SOL    HW117477   1.927   3.564   6.480
 5647SOL    HW217478   2.044   3.660   6.484
 5648SOL     OW17479   2.356   3.439   6.488
 5648SOL    HW117480   2.424   3.501   6.515
 5648SOL    HW217481   2.402   3.376   6.433
 5649SOL     OW17482   2.852   2.656   6.810
 5649SOL    HW117483   2.893   2.617   6.888
 5649SOL    HW217484   2.758   2.640   6.822
 5650SOL     OW17485   2.041   2.365   7.282
 5650SOL    HW117486   2.111   2.343   7.220
 5650SOL    HW217487   2.046   2.460   7.291
 5651SOL     OW17488   3.240   2.799   7.244
 5651SOL    HW117489   3.261   2.893   7.242
 5651SOL    HW217490   3.239   2.774   7.151
 5652SOL     OW17491   2.699   2.458   5.888
 5652SOL    HW117492   2.686   2.365   5.868
 5652SOL    HW217493   2.611   2.495   5.889
 5653SOL     OW17494   3.503   2.463   6.771
 5653SOL    HW117495   3.493   2.403   6.844
 5653SOL    HW217496   3.589   2.442   6.734
 5654SOL     OW17497   2.105   3.412   7.311
 5654SOL    HW117498   2.082   3.480   7.376
 5654SOL    HW217499   2.111   3.331   7.362
 5655SOL     OW17500   2.789   3.535   7.055
 5655SOL    HW117501   2.764   3.497   6.971
 5655SOL    HW217502   2.781   3.629   7.042
 5656SOL     OW17503   2.324   2.356   5.785
 5656SOL    HW117504   2.382   2.430   5.803
 5656SOL    HW217505   2.240   2.395   5.761
 5657SOL     OW17506   2.011   3.005   7.071
 5657SOL    HW117507   2.027   2.941   7.141
 5657SOL    HW217508   2.021   2.956   6.990
 5658SOL     OW17509   3.185   2.908   6.809
 5658SOL    HW117510   3.209   2.845   6.741
 5658SOL    HW217511   3.117   2.962   6.769
 5659SOL     OW17512   3.173   2.718   5.893
 5659SOL    HW117513   3.098   2.686   5.943
 5659SOL    HW217514   3.148   2.704   5.801
 5660SOL     OW17515   3.638   3.604   6.740
 5660SOL    HW117516   3.696   3.630   6.668
 5660SOL    HW217517   3.611   3.515   6.717
 5661SOL     OW17518   3.106   3.596   6.697
 5661SOL    HW117519   3.188   3.616   6.653
 5661SOL    HW217520   3.111   3.502   6.716
 5662SOL     OW17521   1.966   3.165   6.599
 5662SOL    HW117522   1.942   3.154   6.691
 5662SOL    HW217523   1.914   3.100   6.552
 5663SOL     OW17524   2.541   3.527   7.318
 5663SOL    HW117525   2.484   3.604   7.321
 5663SOL    HW217526   2.601   3.544   7.245
 5664SOL     OW17527   3.574   2.011   6.099
 5664SOL    HW117528   3.642   1.998   6.032
 5664SOL    HW217529   3.562   1.924   6.138
 5665SOL     OW17530   3.252   3.430   6.073
 5665SOL    HW117531   3.311   3.464   6.006
 5665SOL    HW217532   3.204   3.508   6.103
 5666SOL     OW17533   1.996   3.653   7.425
 5666SOL    HW117534   1.944   3.589   7.474
 5666SOL    HW217535   2.045   3.700   7.492
 5667SOL     OW17536   3.138   2.784   6.255
 5667SOL    HW117537   3.213   2.725   6.264
 5667SOL    HW217538   3.171   2.858   6.203
 5668SOL     OW17539   2.673   3.139   7.014
 5668SOL    HW117540   2.645   3.178   7.097
 5668SOL    HW217541   2.603   3.161   6.953
 5669SOL     OW17542   2.537   3.479   5.743
 5669SOL    HW117543   2.546   3.496   5.650
 5669SOL    HW217544   2.478   3.403   5.749
 5670SOL     OW17545   3.483   3.588   6.976
 5670SOL    HW117546   3.537   3.592   6.898
 5670SOL    HW217547   3.470   3.680   7.001
 5671SOL     OW17548   3.700   2.043   6.553
 5671SOL    HW117549   3.731   1.956   6.529
 5671SOL    HW217550   3.614   2.050   6.512
 5672SOL     OW17551   3.069   3.467   5.621
 5672SOL    HW117552   3.059   3.375   5.646
 5672SOL    HW217553   3.008   3.479   5.549
 5673SOL     OW17554   2.704   2.878   6.952
 5673SOL    HW117555   2.734   2.882   6.861
 5673SOL    HW217556   2.696   2.970   6.978
 5674SOL     OW17557   2.777   2.777   5.874
 5674SOL    HW117558   2.840   2.807   5.809
 5674SOL    HW217559   2.820   2.702   5.916
 5675SOL     OW17560   3.350   3.493   5.628
 5675SOL    HW117561   3.257   3.481   5.612
 5675SOL    HW217562   3.389   3.497   5.541
 5676SOL     OW17563   2.233   3.169   7.080
 5676SOL    HW117564   2.219   3.244   7.022
 5676SOL    HW217565   2.156   3.113   7.065
 5677SOL     OW17566   3.464   3.141   6.864
 5677SOL    HW117567   3.532   3.134   6.930
 5677SOL    HW217568   3.407   3.212   6.896
 5678SOL     OW17569   2.918   2.971   6.296
 5678SOL    HW117570   2.845   2.922   6.333
 5678SOL    HW217571   2.977   2.904   6.261
 5679SOL     OW17572   2.467   3.353   6.066
 5679SOL    HW117573   2.512   3.301   5.999
 5679SOL    HW217574   2.397   3.398   6.019
 5680SOL     OW17575   3.585   2.253   6.964
 5680SOL    HW117576   3.658   2.315   6.961
 5680SOL    HW217577   3.614   2.180   6.909
 5681SOL     OW17578   2.122   3.204   5.875
 5681SOL    HW117579   2.029   3.202   5.853
 5681SOL    HW217580   2.126   3.244   5.962
 5682SOL     OW17581   1.895   2.279   5.640
 5682SOL    HW117582   1.858   2.198   5.605
 5682SOL    HW217583   1.950   2.312   5.570
 5683SOL     OW17584   3.290   2.722   6.985
 5683SOL    HW117585   3.240   2.783   6.931
 5683SOL    HW217586   3.378   2.723   6.949
 5684SOL     OW17587   3.040   3.200   5.703
 5684SOL    HW117588   2.949   3.169   5.705
 5684SOL    HW217589   3.067   3.199   5.795
 5685SOL     OW17590   2.497   2.710   6.989
 5685SOL    HW117591   2.556   2.785   6.979
 5685SOL    HW217592   2.554   2.640   7.022
 5686SOL     OW17593   3.347   3.643   6.568
 5686SOL    HW117594   3.371   3.695   6.492
 5686SOL    HW217595   3.430   3.613   6.604
 5687SOL     OW17596   3.334   3.060   7.217
 5687SOL    HW117597   3.324   3.074   7.311
 5687SOL    HW217598   3.428   3.076   7.201
 5688SOL     OW17599   2.239   3.602   7.150
 5688SOL    HW117600   2.154   3.643   7.134
 5688SOL    HW217601   2.217   3.518   7.191
 5689SOL     OW17602   3.528   2.743   6.844
 5689SOL    HW117603   3.526   2.657   6.801
 5689SOL    HW217604   3.521   2.806   6.773
 5690SOL     OW17605   3.102   2.195   6.033
 5690SOL    HW117606   3.153   2.114   6.033
 5690SOL    HW217607   3.123   2.237   6.116
 5691SOL     OW17608   3.622   2.227   7.235
 5691SOL    HW117609   3.605   2.241   7.142
 5691SOL    HW217610   3.553   2.169   7.265
 5692SOL     OW17611   3.617   2.791   7.099
 5692SOL    HW117612   3.609   2.885   7.116
 5692SOL    HW217613   3.594   2.782   7.007
 5693SOL     OW17614   2.725   3.230   5.623
 5693SOL    HW117615   2.685   3.257   5.706
 5693SOL    HW217616   2.741   3.312   5.576
 5694SOL     OW17617   2.523   3.652   6.529
 5694SOL    HW117618   2.501   3.743   6.505
 5694SOL    HW217619   2.618   3.647   6.521
 5695SOL     OW17620   2.730   2.830   6.440
 5695SOL    HW117621   2.771   2.752   6.478
 5695SOL    HW217622   2.684   2.871   6.514
 5696SOL     OW17623   2.941   2.851   5.674
 5696SOL    HW117624   2.920   2.901   5.595
 5696SOL    HW217625   3.016   2.797   5.648
 5697SOL     OW17626   3.713   3.417   6.427
 5697SOL    HW117627   3.634   3.398   6.376
 5697SOL    HW217628   3.715   3.350   6.495
 5698SOL     OW17629   2.089   3.164   7.447
 5698SOL    HW117630   2.002   3.131   7.424
 5698SOL    HW217631   2.084   3.180   7.541
 5699SOL     OW17632   1.951   3.105   6.241
 5699SOL    HW117633   1.936   3.056   6.323
 5699SOL    HW217634   2.014   3.051   6.193
 5700SOL     OW17635   2.544   3.268   7.215
 5700SOL    HW117636   2.465   3.225   7.247
 5700SOL    HW217637   2.541   3.356   7.252
 5701SOL     OW17638   3.676   2.041   6.825
 5701SOL    HW117639   3.667   1.946   6.829
 5701SOL    HW217640   3.690   2.061   6.732
 5702SOL     OW17641   2.294   2.231   6.141
 5702SOL    HW117642   2.333   2.216   6.055
 5702SOL    HW217643   2.200   2.235   6.125
 5703SOL     OW17644   3.559   3.352   6.683
 5703SOL    HW117645   3.480   3.328   6.635
 5703SOL    HW217646   3.571   3.281   6.746
 5704SOL     OW17647   2.182   2.396   6.917
 5704SOL    HW117648   2.224   2.352   6.991
 5704SOL    HW217649   2.200   2.340   6.842
 5705SOL     OW17650   2.689   3.441   6.262
 5705SOL    HW117651   2.674   3.492   6.182
 5705SOL    HW217652   2.615   3.381   6.268
 5706SOL     OW17653   3.294   2.091   6.705
 5706SOL    HW117654   3.307   2.003   6.741
 5706SOL    HW217655   3.245   2.137   6.772
 5707SOL     OW17656   2.634   3.194   5.904
 5707SOL    HW117657   2.603   3.104   5.909
 5707SOL    HW217658   2.717   3.193   5.952
 5708SOL     OW17659   2.483   3.416   6.872
 5708SOL    HW117660   2.484   3.498   6.921
 5708SOL    HW217661   2.570   3.410   6.834
 5709SOL     OW17662   3.216   1.916   5.752
 5709SOL    HW117663   3.245   1.849   5.690
 5709SOL    HW217664   3.128   1.887   5.778
 5710SOL     OW17665   3.158   2.324   6.270
 5710SOL    HW117666   3.107   2.405   6.275
 5710SOL    HW217667   3.156   2.288   6.359
 5711SOL     OW17668   3.444   2.061   6.463
 5711SOL    HW117669   3.390   2.085   6.538
 5711SOL    HW217670   3.446   2.140   6.409
 5712SOL     OW17671   1.904   2.930   5.896
 5712SOL    HW117672   1.998   2.923   5.880
 5712SOL    HW217673   1.878   2.840   5.917
 5713SOL     OW17674   2.747   3.520   5.929
 5713SOL    HW117675   2.676   3.500   5.868
 5713SOL    HW217676   2.716   3.595   5.979
 5714SOL     OW17677   1.849   2.277   8.071
 5714SOL    HW117678   1.769   2.285   8.122
 5714SOL    HW217679   1.830   2.207   8.008
 5715SOL     OW17680   2.429   3.152   8.624
 5715SOL    HW117681   2.342   3.157   8.586
 5715SOL    HW217682   2.445   3.240   8.659
 5716SOL     OW17683   3.424   3.374   8.156
 5716SOL    HW117684   3.382   3.352   8.239
 5716SOL    HW217685   3.353   3.377   8.093
 5717SOL     OW17686   2.992   2.563   8.147
 5717SOL    HW117687   3.042   2.643   8.135
 5717SOL    HW217688   2.946   2.576   8.230
 5718SOL     OW17689   3.627   2.469   7.678
 5718SOL    HW117690   3.609   2.461   7.584
 5718SOL    HW217691   3.594   2.387   7.716
 5719SOL     OW17692   2.614   3.003   8.490
 5719SOL    HW117693   2.546   3.038   8.547
 5719SOL    HW217694   2.651   3.079   8.446
 5720SOL     OW17695   2.730   2.632   9.270
 5720SOL    HW117696   2.718   2.703   9.333
 5720SOL    HW217697   2.754   2.677   9.189
 5721SOL     OW17698   2.547   2.863   8.097
 5721SOL    HW117699   2.613   2.854   8.165
 5721SOL    HW217700   2.479   2.917   8.137
 5722SOL     OW17701   2.574   3.013   9.262
 5722SOL    HW117702   2.621   3.091   9.290
 5722SOL    HW217703   2.492   3.046   9.226
 5723SOL     OW17704   2.193   3.284   8.515
 5723SOL    HW117705   2.119   3.248   8.467
 5723SOL    HW217706   2.241   3.337   8.451
 5724SOL     OW17707   3.321   3.363   8.804
 5724SOL    HW117708   3.375   3.441   8.814
 5724SOL    HW217709   3.257   3.368   8.875
 5725SOL     OW17710   2.294   2.258   8.949
 5725SOL    HW117711   2.387   2.234   8.947
 5725SOL    HW217712   2.248   2.174   8.954
 5726SOL     OW17713   3.473   2.308   8.191
 5726SOL    HW117714   3.401   2.332   8.133
 5726SOL    HW217715   3.488   2.387   8.244
 5727SOL     OW17716   2.084   3.578   7.927
 5727SOL    HW117717   2.114   3.638   7.994
 5727SOL    HW217718   2.155   3.575   7.863
 5728SOL     OW17719   2.998   3.204   9.142
 5728SOL    HW117720   3.040   3.198   9.228
 5728SOL    HW217721   2.946   3.124   9.134
 5729SOL     OW17722   2.091   3.303   7.980
 5729SOL    HW117723   2.075   3.397   7.986
 5729SOL    HW217724   2.033   3.265   8.046
 5730SOL     OW17725   2.122   2.953   8.340
 5730SOL    HW117726   2.117   2.867   8.381
 5730SOL    HW217727   2.064   3.008   8.393
 5731SOL     OW17728   2.471   3.648   8.876
 5731SOL    HW117729   2.390   3.633   8.924
 5731SOL    HW217730   2.497   3.737   8.901
 5732SOL     OW17731   2.469   2.843   7.569
 5732SOL    HW117732   2.514   2.905   7.513
 5732SOL    HW217733   2.500   2.863   7.657
 5733SOL     OW17734   3.457   1.987   8.914
 5733SOL    HW117735   3.469   2.069   8.866
 5733SOL    HW217736   3.443   2.014   9.005
 5734SOL     OW17737   1.980   2.510   8.025
 5734SOL    HW117738   1.935   2.428   8.044
 5734SOL    HW217739   1.965   2.564   8.103
 5735SOL     OW17740   3.700   3.614   7.789
 5735SOL    HW117741   3.770   3.589   7.849
 5735SOL    HW217742   3.720   3.704   7.766
 5736SOL     OW17743   1.893   3.453   7.571
 5736SOL    HW117744   1.874   3.362   7.592
 5736SOL    HW217745   1.872   3.502   7.650
 5737SOL     OW17746   3.550   2.781   8.093
 5737SOL    HW117747   3.633   2.738   8.074
 5737SOL    HW217748   3.530   2.830   8.013
 5738SOL     OW17749   3.503   2.967   7.880
 5738SOL    HW117750   3.588   2.972   7.836
 5738SOL    HW217751   3.510   3.030   7.952
 5739SOL     OW17752   1.982   2.604   9.032
 5739SOL    HW117753   2.074   2.628   9.044
 5739SOL    HW217754   1.934   2.686   9.042
 5740SOL     OW17755   2.477   3.250   8.183
 5740SOL    HW117756   2.431   3.167   8.192
 5740SOL    HW217757   2.460   3.277   8.092
 5741SOL     OW17758   3.150   3.099   8.871
 5741SOL    HW117759   3.182   3.033   8.811
 5741SOL    HW217760   3.208   3.094   8.946
 5742SOL     OW17761   2.680   1.862   7.988
 5742SOL    HW117762   2.720   1.941   7.952
 5742SOL    HW217763   2.587   1.872   7.969
 5743SOL     OW17764   2.053   2.828   8.720
 5743SOL    HW117765   2.137   2.785   8.706
 5743SOL    HW217766   1.989   2.773   8.675
 5744SOL     OW17767   3.392   2.857   7.647
 5744SOL    HW117768   3.322   2.800   7.680
 5744SOL    HW217769   3.433   2.892   7.727
 5745SOL     OW17770   3.078   3.665   9.075
 5745SOL    HW117771   3.056   3.726   9.004
 5745SOL    HW217772   3.079   3.579   9.033
 5746SOL     OW17773   2.262   2.159   9.262
 5746SOL    HW117774   2.312   2.230   9.301
 5746SOL    HW217775   2.171   2.186   9.274
 5747SOL     OW17776   3.327   3.282   8.397
 5747SOL    HW117777   3.260   3.297   8.465
 5747SOL    HW217778   3.316   3.191   8.372
 5748SOL     OW17779   3.511   3.605   8.028
 5748SOL    HW117780   3.502   3.571   7.939
 5748SOL    HW217781   3.493   3.530   8.084
 5749SOL     OW17782   3.140   2.218   8.381
 5749SOL    HW117783   3.051   2.183   8.390
 5749SOL    HW217784   3.192   2.165   8.441
 5750SOL     OW17785   3.436   3.538   7.756
 5750SOL    HW117786   3.529   3.563   7.752
 5750SOL    HW217787   3.413   3.518   7.666
 5751SOL     OW17788   2.655   2.481   8.899
 5751SOL    HW117789   2.630   2.456   8.988
 5751SOL    HW217790   2.615   2.414   8.843
 5752SOL     OW17791   3.255   2.336   9.126
 5752SOL    HW117792   3.258   2.380   9.211
 5752SOL    HW217793   3.315   2.261   9.136
 5753SOL     OW17794   2.815   2.749   9.031
 5753SOL    HW117795   2.870   2.679   8.995
 5753SOL    HW217796   2.767   2.784   8.956
 5754SOL     OW17797   2.855   2.275   8.686
 5754SOL    HW117798   2.769   2.296   8.723
 5754SOL    HW217799   2.835   2.229   8.604
 5755SOL     OW17800   2.915   2.560   7.878
 5755SOL    HW117801   2.940   2.558   7.970
 5755SOL    HW217802   2.828   2.520   7.876
 5756SOL     OW17803   1.947   2.685   8.231
 5756SOL    HW117804   2.030   2.681   8.278
 5756SOL    HW217805   1.905   2.765   8.263
 5757SOL     OW17806   1.984   3.705   9.024
 5757SOL    HW117807   1.986   3.686   9.118
 5757SOL    HW217808   1.891   3.706   9.001
 5758SOL     OW17809   3.572   2.436   9.276
 5758SOL    HW117810   3.533   2.510   9.228
 5758SOL    HW217811   3.596   2.373   9.209
 5759SOL     OW17812   3.238   3.003   7.989
 5759SOL    HW117813   3.318   2.991   7.937
 5759SOL    HW217814   3.186   3.066   7.937
 5760SOL     OW17815   2.411   2.056   8.333
 5760SOL    HW117816   2.423   2.070   8.427
 5760SOL    HW217817   2.427   2.141   8.293
 5761SOL     OW17818   2.867   3.307   7.919
 5761SOL    HW117819   2.829   3.381   7.871
 5761SOL    HW217820   2.847   3.327   8.011
 5762SOL     OW17821   2.213   3.672   8.288
 5762SOL    HW117822   2.263   3.593   8.306
 5762SOL    HW217823   2.273   3.744   8.310
 5763SOL     OW17824   3.667   2.922   8.315
 5763SOL    HW117825   3.613   2.899   8.240
 5763SOL    HW217826   3.605   2.926   8.388
 5764SOL     OW17827   3.089   3.399   8.960
 5764SOL    HW117828   3.076   3.327   9.021
 5764SOL    HW217829   3.023   3.386   8.892
 5765SOL     OW17830   3.341   2.607   8.175
 5765SOL    HW117831   3.335   2.564   8.261
 5765SOL    HW217832   3.419   2.661   8.180
 5766SOL     OW17833   2.329   3.127   9.185
 5766SOL    HW117834   2.302   3.132   9.093
 5766SOL    HW217835   2.247   3.125   9.234
 5767SOL     OW17836   2.976   3.643   7.670
 5767SOL    HW117837   2.912   3.596   7.725
 5767SOL    HW217838   3.006   3.578   7.607
 5768SOL     OW17839   3.487   3.246   7.537
 5768SOL    HW117840   3.444   3.330   7.519
 5768SOL    HW217841   3.420   3.180   7.517
 5769SOL     OW17842   2.330   3.596   7.773
 5769SOL    HW117843   2.367   3.662   7.832
 5769SOL    HW217844   2.403   3.572   7.716
 5770SOL     OW17845   3.264   1.968   7.884
 5770SOL    HW117846   3.257   1.946   7.791
 5770SOL    HW217847   3.358   1.977   7.900
 5771SOL     OW17848   2.122   3.654   8.673
 5771SOL    HW117849   2.169   3.585   8.719
 5771SOL    HW217850   2.107   3.618   8.585
 5772SOL     OW17851   2.800   3.562   8.348
 5772SOL    HW117852   2.877   3.510   8.369
 5772SOL    HW217853   2.756   3.513   8.279
 5773SOL     OW17854   2.249   2.558   7.970
 5773SOL    HW117855   2.274   2.466   7.955
 5773SOL    HW217856   2.153   2.557   7.970
 5774SOL     OW17857   3.396   2.087   9.173
 5774SOL    HW117858   3.406   2.108   9.266
 5774SOL    HW217859   3.328   2.020   9.171
 5775SOL     OW17860   2.627   2.141   9.205
 5775SOL    HW117861   2.705   2.084   9.202
 5775SOL    HW217862   2.578   2.110   9.281
 5776SOL     OW17863   2.738   3.382   8.643
 5776SOL    HW117864   2.722   3.347   8.555
 5776SOL    HW217865   2.808   3.328   8.678
 5777SOL     OW17866   3.202   2.451   8.881
 5777SOL    HW117867   3.233   2.420   8.966
 5777SOL    HW217868   3.238   2.539   8.872
 5778SOL     OW17869   2.678   3.255   8.389
 5778SOL    HW117870   2.763   3.243   8.346
 5778SOL    HW217871   2.615   3.258   8.318
 5779SOL     OW17872   2.791   2.370   8.355
 5779SOL    HW117873   2.769   2.362   8.262
 5779SOL    HW217874   2.824   2.283   8.379
 5780SOL     OW17875   2.408   1.928   7.952
 5780SOL    HW117876   2.360   1.916   8.034
 5780SOL    HW217877   2.393   2.020   7.929
 5781SOL     OW17878   3.290   3.061   7.489
 5781SOL    HW117879   3.321   2.985   7.538
 5781SOL    HW217880   3.203   3.080   7.525
 5782SOL     OW17881   2.811   2.115   7.924
 5782SOL    HW117882   2.795   2.092   7.832
 5782SOL    HW217883   2.904   2.135   7.928
 5783SOL     OW17884   2.943   2.544   8.907
 5783SOL    HW117885   2.876   2.476   8.913
 5783SOL    HW217886   3.025   2.496   8.901
 5784SOL     OW17887   3.083   3.433   8.242
 5784SOL    HW117888   3.100   3.500   8.176
 5784SOL    HW217889   3.153   3.444   8.306
 5785SOL     OW17890   2.330   3.014   8.179
 5785SOL    HW117891   2.264   2.994   8.246
 5785SOL    HW217892   2.285   3.001   8.096
 5786SOL     OW17893   3.129   3.657   8.055
 5786SOL    HW117894   3.175   3.722   8.002
 5786SOL    HW217895   3.057   3.706   8.095
 5787SOL     OW17896   2.922   2.429   7.445
 5787SOL    HW117897   2.871   2.509   7.443
 5787SOL    HW217898   2.959   2.425   7.533
 5788SOL     OW17899   1.940   2.422   8.834
 5788SOL    HW117900   2.033   2.419   8.813
 5788SOL    HW217901   1.934   2.487   8.905
 5789SOL     OW17902   2.458   2.083   8.600
 5789SOL    HW117903   2.503   2.007   8.637
 5789SOL    HW217904   2.375   2.088   8.648
 5790SOL     OW17905   2.728   2.321   8.094
 5790SOL    HW117906   2.660   2.366   8.043
 5790SOL    HW217907   2.753   2.247   8.039
 5791SOL     OW17908   2.875   1.914   8.199
 5791SOL    HW117909   2.815   1.906   8.125
 5791SOL    HW217910   2.855   1.839   8.255
 5792SOL     OW17911   3.301   3.024   8.305
 5792SOL    HW117912   3.230   2.959   8.304
 5792SOL    HW217913   3.326   3.034   8.214
 5793SOL     OW17914   3.327   2.470   8.423
 5793SOL    HW117915   3.276   2.389   8.425
 5793SOL    HW217916   3.387   2.463   8.498
 5794SOL     OW17917   3.723   2.679   7.823
 5794SOL    HW117918   3.767   2.623   7.887
 5794SOL    HW217919   3.686   2.618   7.759
 5795SOL     OW17920   2.352   3.282   7.603
 5795SOL    HW117921   2.277   3.253   7.654
 5795SOL    HW217922   2.344   3.235   7.519
 5796SOL     OW17923   3.529   3.127   8.093
 5796SOL    HW117924   3.624   3.129   8.102
 5796SOL    HW217925   3.500   3.216   8.114
 5797SOL     OW17926   3.258   2.434   7.519
 5797SOL    HW117927   3.193   2.414   7.587
 5797SOL    HW217928   3.340   2.401   7.554
 5798SOL     OW17929   3.614   3.097   9.016
 5798SOL    HW117930   3.701   3.061   8.998
 5798SOL    HW217931   3.630   3.186   9.045
 5799SOL     OW17932   2.919   3.214   8.780
 5799SOL    HW117933   2.845   3.184   8.832
 5799SOL    HW217934   2.995   3.174   8.822
 5800SOL     OW17935   3.469   3.491   9.104
 5800SOL    HW117936   3.460   3.524   9.015
 5800SOL    HW217937   3.550   3.440   9.103
 5801SOL     OW17938   2.992   3.066   8.552
 5801SOL    HW117939   2.934   3.105   8.617
 5801SOL    HW217940   2.960   3.101   8.468
 5802SOL     OW17941   3.491   2.958   8.523
 5802SOL    HW117942   3.483   3.020   8.596
 5802SOL    HW217943   3.414   2.975   8.470
 5803SOL     OW17944   2.780   1.959   8.842
 5803SOL    HW117945   2.805   1.939   8.751
 5803SOL    HW217946   2.859   1.998   8.880
 5804SOL     OW17947   2.846   2.977   9.171
 5804SOL    HW117948   2.754   2.993   9.193
 5804SOL    HW217949   2.844   2.899   9.116
 5805SOL     OW17950   2.573   2.926   7.823
 5805SOL    HW117951   2.561   2.905   7.916
 5805SOL    HW217952   2.648   2.873   7.796
 5806SOL     OW17953   2.280   2.674   8.699
 5806SOL    HW117954   2.348   2.686   8.766
 5806SOL    HW217955   2.246   2.586   8.715
 5807SOL     OW17956   3.127   2.238   8.725
 5807SOL    HW117957   3.160   2.316   8.771
 5807SOL    HW217958   3.037   2.260   8.702
 5808SOL     OW17959   1.933   3.435   8.801
 5808SOL    HW117960   1.905   3.510   8.749
 5808SOL    HW217961   2.029   3.437   8.797
 5809SOL     OW17962   2.202   2.971   7.937
 5809SOL    HW117963   2.224   3.038   7.872
 5809SOL    HW217964   2.243   2.891   7.904
 5810SOL     OW17965   2.409   2.397   8.307
 5810SOL    HW117966   2.427   2.458   8.236
 5810SOL    HW217967   2.473   2.420   8.375
 5811SOL     OW17968   3.110   3.210   7.838
 5811SOL    HW117969   3.166   3.282   7.869
 5811SOL    HW217970   3.023   3.232   7.871
 5812SOL     OW17971   3.145   3.321   8.596
 5812SOL    HW117972   3.201   3.325   8.673
 5812SOL    HW217973   3.090   3.244   8.610
 5813SOL     OW17974   3.442   2.482   7.930
 5813SOL    HW117975   3.394   2.537   7.992
 5813SOL    HW217976   3.484   2.544   7.871
 5814SOL     OW17977   2.208   3.391   8.761
 5814SOL    HW117978   2.196   3.347   8.677
 5814SOL    HW217979   2.302   3.402   8.769
 5815SOL     OW17980   2.276   2.609   9.050
 5815SOL    HW117981   2.340   2.651   8.993
 5815SOL    HW217982   2.314   2.524   9.070
 5816SOL     OW17983   3.465   2.640   9.130
 5816SOL    HW117984   3.380   2.683   9.124
 5816SOL    HW217985   3.518   2.683   9.063
 5817SOL     OW17986   2.857   1.988   9.199
 5817SOL    HW117987   2.915   2.060   9.177
 5817SOL    HW217988   2.905   1.909   9.176
 5818SOL     OW17989   2.371   1.906   9.200
 5818SOL    HW117990   2.315   1.856   9.141
 5818SOL    HW217991   2.328   1.991   9.209
 5819SOL     OW17992   2.445   2.735   8.480
 5819SOL    HW117993   2.478   2.825   8.479
 5819SOL    HW217994   2.390   2.730   8.558
 5820SOL     OW17995   3.217   2.721   8.476
 5820SOL    HW117996   3.134   2.710   8.430
 5820SOL    HW217997   3.260   2.636   8.469
 5821SOL     OW17998   3.066   2.389   7.713
 5821SOL    HW117999   3.074   2.311   7.768
 5821SOL    HW218000   3.025   2.455   7.771
 5822SOL     OW18001   2.233   2.058   8.735
 5822SOL    HW118002   2.148   2.079   8.776
 5822SOL    HW218003   2.228   1.965   8.716
 5823SOL     OW18004   1.908   3.173   8.724
 5823SOL    HW118005   1.941   3.118   8.795
 5823SOL    HW218006   1.914   3.262   8.757
 5824SOL     OW18007   2.581   2.489   8.502
 5824SOL    HW118008   2.659   2.475   8.450
 5824SOL    HW218009   2.556   2.580   8.484
 5825SOL     OW18010   3.593   2.821   9.308
 5825SOL    HW118011   3.551   2.758   9.249
 5825SOL    HW218012   3.529   2.834   9.378
 5826SOL     OW18013   3.479   2.237   7.814
 5826SOL    HW118014   3.508   2.173   7.879
 5826SOL    HW218015   3.457   2.315   7.865
 5827SOL     OW18016   2.890   2.620   8.408
 5827SOL    HW118017   2.886   2.638   8.502
 5827SOL    HW218018   2.865   2.528   8.400
 5828SOL     OW18019   2.847   3.430   9.168
 5828SOL    HW118020   2.829   3.471   9.083
 5828SOL    HW218021   2.889   3.347   9.145
 5829SOL     OW18022   3.706   3.362   9.047
 5829SOL    HW118023   3.729   3.391   8.958
 5829SOL    HW218024   3.786   3.373   9.097
 5830SOL     OW18025   2.214   2.778   9.259
 5830SOL    HW118026   2.297   2.797   9.303
 5830SOL    HW218027   2.238   2.717   9.189
 5831SOL     OW18028   3.393   2.135   7.575
 5831SOL    HW118029   3.327   2.071   7.601
 5831SOL    HW218030   3.425   2.171   7.658
 5832SOL     OW18031   3.153   2.689   7.479
 5832SOL    HW118032   3.192   2.602   7.481
 5832SOL    HW218033   3.184   2.727   7.397
 5833SOL     OW18034   2.928   3.199   8.303
 5833SOL    HW118035   2.932   3.126   8.241
 5833SOL    HW218036   2.989   3.264   8.268
 5834SOL     OW18037   2.172   2.672   8.394
 5834SOL    HW118038   2.264   2.695   8.388
 5834SOL    HW218039   2.171   2.585   8.433
 5835SOL     OW18040   2.185   2.366   8.457
 5835SOL    HW118041   2.150   2.286   8.418
 5835SOL    HW218042   2.265   2.383   8.407
 5836SOL     OW18043   2.996   2.237   9.130
 5836SOL    HW118044   2.948   2.291   9.193
 5836SOL    HW218045   3.083   2.276   9.127
 5837SOL     OW18046   3.022   2.064   8.918
 5837SOL    HW118047   3.012   2.126   8.990
 5837SOL    HW218048   3.064   2.115   8.848
 5838SOL     OW18049   1.864   3.180   7.640
 5838SOL    HW118050   1.777   3.198   7.605
 5838SOL    HW218051   1.858   3.092   7.676
 5839SOL     OW18052   1.958   3.642   8.386
 5839SOL    HW118053   1.927   3.563   8.341
 5839SOL    HW218054   2.043   3.660   8.346
 5840SOL     OW18055   2.357   3.437   8.353
 5840SOL    HW118056   2.424   3.501   8.378
 5840SOL    HW218057   2.402   3.375   8.297
 5841SOL     OW18058   2.842   2.652   8.674
 5841SOL    HW118059   2.901   2.631   8.746
 5841SOL    HW218060   2.757   2.618   8.702
 5842SOL     OW18061   1.901   2.395   8.566
 5842SOL    HW118062   1.985   2.401   8.520
 5842SOL    HW218063   1.923   2.410   8.658
 5843SOL     OW18064   2.072   2.382   9.179
 5843SOL    HW118065   2.127   2.353   9.106
 5843SOL    HW218066   2.009   2.442   9.139
 5844SOL     OW18067   3.241   2.799   9.106
 5844SOL    HW118068   3.262   2.893   9.104
 5844SOL    HW218069   3.237   2.773   9.014
 5845SOL     OW18070   3.502   2.464   8.632
 5845SOL    HW118071   3.492   2.403   8.706
 5845SOL    HW218072   3.589   2.442   8.596
 5846SOL     OW18073   2.105   3.412   9.174
 5846SOL    HW118074   2.082   3.478   9.239
 5846SOL    HW218075   2.108   3.329   9.223
 5847SOL     OW18076   2.560   2.316   8.709
 5847SOL    HW118077   2.522   2.236   8.674
 5847SOL    HW218078   2.558   2.378   8.636
 5848SOL     OW18079   2.790   3.534   8.917
 5848SOL    HW118080   2.763   3.497   8.833
 5848SOL    HW218081   2.782   3.629   8.905
 5849SOL     OW18082   2.007   3.003   8.921
 5849SOL    HW118083   2.008   2.953   9.002
 5849SOL    HW218084   2.025   2.939   8.852
 5850SOL     OW18085   3.185   2.907   8.671
 5850SOL    HW118086   3.209   2.844   8.602
 5850SOL    HW218087   3.116   2.961   8.631
 5851SOL     OW18088   3.176   2.717   7.754
 5851SOL    HW118089   3.098   2.691   7.803
 5851SOL    HW218090   3.152   2.705   7.662
 5852SOL     OW18091   3.638   3.604   8.602
 5852SOL    HW118092   3.696   3.630   8.530
 5852SOL    HW218093   3.611   3.515   8.579
 5853SOL     OW18094   3.106   3.596   8.559
 5853SOL    HW118095   3.188   3.616   8.515
 5853SOL    HW218096   3.111   3.502   8.578
 5854SOL     OW18097   1.947   3.129   8.459
 5854SOL    HW118098   1.932   3.142   8.553
 5854SOL    HW218099   1.875   3.074   8.430
 5855SOL     OW18100   2.540   3.526   9.179
 5855SOL    HW118101   2.484   3.603   9.183
 5855SOL    HW218102   2.601   3.544   9.107
 5856SOL     OW18103   3.572   2.011   7.960
 5856SOL    HW118104   3.641   1.999   7.894
 5856SOL    HW218105   3.562   1.924   8.000
 5857SOL     OW18106   3.252   3.430   7.935
 5857SOL    HW118107   3.312   3.463   7.868
 5857SOL    HW218108   3.204   3.508   7.964
 5858SOL     OW18109   1.995   3.653   9.287
 5858SOL    HW118110   1.944   3.589   9.336
 5858SOL    HW218111   2.045   3.700   9.354
 5859SOL     OW18112   3.139   2.788   8.119
 5859SOL    HW118113   3.214   2.728   8.127
 5859SOL    HW218114   3.173   2.860   8.066
 5860SOL     OW18115   2.674   3.136   8.877
 5860SOL    HW118116   2.646   3.175   8.959
 5860SOL    HW218117   2.604   3.159   8.814
 5861SOL     OW18118   2.537   3.480   7.605
 5861SOL    HW118119   2.546   3.497   7.512
 5861SOL    HW218120   2.478   3.404   7.610
 5862SOL     OW18121   3.482   3.588   8.838
 5862SOL    HW118122   3.537   3.592   8.760
 5862SOL    HW218123   3.470   3.680   8.863
 5863SOL     OW18124   3.699   2.043   8.415
 5863SOL    HW118125   3.731   1.956   8.390
 5863SOL    HW218126   3.613   2.051   8.374
 5864SOL     OW18127   3.069   3.467   7.484
 5864SOL    HW118128   3.059   3.375   7.508
 5864SOL    HW218129   3.009   3.479   7.411
 5865SOL     OW18130   2.686   2.868   8.820
 5865SOL    HW118131   2.731   2.865   8.736
 5865SOL    HW218132   2.684   2.961   8.843
 5866SOL     OW18133   2.785   2.780   7.743
 5866SOL    HW118134   2.842   2.812   7.673
 5866SOL    HW218135   2.834   2.708   7.782
 5867SOL     OW18136   3.350   3.493   7.490
 5867SOL    HW118137   3.257   3.481   7.474
 5867SOL    HW218138   3.390   3.498   7.403
 5868SOL     OW18139   2.231   3.165   8.939
 5868SOL    HW118140   2.217   3.242   8.884
 5868SOL    HW218141   2.154   3.111   8.924
 5869SOL     OW18142   3.463   3.141   8.726
 5869SOL    HW118143   3.532   3.134   8.792
 5869SOL    HW218144   3.407   3.212   8.758
 5870SOL     OW18145   2.917   2.970   8.156
 5870SOL    HW118146   2.845   2.919   8.194
 5870SOL    HW218147   2.979   2.905   8.125
 5871SOL     OW18148   2.883   2.102   8.414
 5871SOL    HW118149   2.879   2.055   8.331
 5871SOL    HW218150   2.879   2.033   8.481
 5872SOL     OW18151   2.465   3.351   7.928
 5872SOL    HW118152   2.512   3.301   7.861
 5872SOL    HW218153   2.399   3.400   7.879
 5873SOL     OW18154   3.585   2.252   8.827
 5873SOL    HW118155   3.657   2.315   8.823
 5873SOL    HW218156   3.614   2.180   8.770
 5874SOL     OW18157   2.119   3.203   7.734
 5874SOL    HW118158   2.026   3.204   7.713
 5874SOL    HW218159   2.124   3.241   7.822
 5875SOL     OW18160   1.975   2.886   9.168
 5875SOL    HW118161   1.898   2.862   9.220
 5875SOL    HW218162   2.049   2.847   9.215
 5876SOL     OW18163   2.540   2.059   8.947
 5876SOL    HW118164   2.625   2.036   8.909
 5876SOL    HW218165   2.561   2.089   9.036
 5877SOL     OW18166   1.861   2.234   7.470
 5877SOL    HW118167   1.828   2.170   7.407
 5877SOL    HW218168   1.927   2.283   7.421
 5878SOL     OW18169   3.289   2.720   8.848
 5878SOL    HW118170   3.240   2.782   8.793
 5878SOL    HW218171   3.378   2.722   8.811
 5879SOL     OW18172   3.040   3.201   7.565
 5879SOL    HW118173   2.951   3.167   7.567
 5879SOL    HW218174   3.068   3.199   7.657
 5880SOL     OW18175   2.481   2.692   8.881
 5880SOL    HW118176   2.537   2.769   8.866
 5880SOL    HW218177   2.543   2.619   8.890
 5881SOL     OW18178   3.347   3.643   8.430
 5881SOL    HW118179   3.371   3.695   8.354
 5881SOL    HW218180   3.430   3.613   8.466
 5882SOL     OW18181   2.580   2.422   9.150
 5882SOL    HW118182   2.621   2.485   9.210
 5882SOL    HW218183   2.604   2.336   9.184
 5883SOL     OW18184   3.334   3.061   9.079
 5883SOL    HW118185   3.324   3.075   9.173
 5883SOL    HW218186   3.427   3.076   9.063
 5884SOL     OW18187   2.238   3.602   9.012
 5884SOL    HW118188   2.153   3.643   8.997
 5884SOL    HW218189   2.217   3.518   9.054
 5885SOL     OW18190   3.527   2.743   8.707
 5885SOL    HW118191   3.526   2.657   8.663
 5885SOL    HW218192   3.521   2.806   8.635
 5886SOL     OW18193   3.081   2.181   7.908
 5886SOL    HW118194   3.144   2.110   7.899
 5886SOL    HW218195   3.112   2.230   7.984
 5887SOL     OW18196   2.467   2.595   8.122
 5887SOL    HW118197   2.503   2.682   8.109
 5887SOL    HW218198   2.391   2.591   8.064
 5888SOL     OW18199   3.622   2.227   9.098
 5888SOL    HW118200   3.605   2.240   9.004
 5888SOL    HW218201   3.552   2.169   9.127
 5889SOL     OW18202   3.617   2.791   8.961
 5889SOL    HW118203   3.609   2.885   8.978
 5889SOL    HW218204   3.593   2.781   8.869
 5890SOL     OW18205   2.725   3.233   7.485
 5890SOL    HW118206   2.686   3.262   7.567
 5890SOL    HW218207   2.743   3.315   7.438
 5891SOL     OW18208   2.522   3.652   8.389
 5891SOL    HW118209   2.501   3.742   8.367
 5891SOL    HW218210   2.618   3.647   8.383
 5892SOL     OW18211   2.730   2.829   8.303
 5892SOL    HW118212   2.781   2.758   8.342
 5892SOL    HW218213   2.695   2.878   8.378
 5893SOL     OW18214   2.949   2.861   7.542
 5893SOL    HW118215   2.920   2.904   7.461
 5893SOL    HW218216   3.017   2.801   7.514
 5894SOL     OW18217   3.713   3.417   8.289
 5894SOL    HW118218   3.634   3.397   8.238
 5894SOL    HW218219   3.716   3.349   8.357
 5895SOL     OW18220   2.088   3.164   9.304
 5895SOL    HW118221   2.021   3.102   9.273
 5895SOL    HW218222   2.068   3.176   9.397
 5896SOL     OW18223   1.949   3.093   8.112
 5896SOL    HW118224   1.951   3.046   8.195
 5896SOL    HW218225   2.019   3.054   8.060
 5897SOL     OW18226   2.544   3.266   9.077
 5897SOL    HW118227   2.465   3.223   9.108
 5897SOL    HW218228   2.541   3.354   9.114
 5898SOL     OW18229   3.674   2.041   8.687
 5898SOL    HW118230   3.668   1.945   8.690
 5898SOL    HW218231   3.689   2.061   8.594
 5899SOL     OW18232   2.296   2.272   7.964
 5899SOL    HW118233   2.247   2.222   7.899
 5899SOL    HW218234   2.241   2.269   8.042
 5900SOL     OW18235   3.558   3.352   8.545
 5900SOL    HW118236   3.480   3.327   8.497
 5900SOL    HW218237   3.571   3.281   8.608
 5901SOL     OW18238   2.194   2.414   8.738
 5901SOL    HW118239   2.242   2.357   8.799
 5901SOL    HW218240   2.212   2.377   8.652
 5902SOL     OW18241   2.690   3.441   8.125
 5902SOL    HW118242   2.675   3.491   8.045
 5902SOL    HW218243   2.615   3.381   8.130
 5903SOL     OW18244   3.293   2.089   8.565
 5903SOL    HW118245   3.317   2.008   8.610
 5903SOL    HW218246   3.242   2.138   8.630
 5904SOL     OW18247   2.871   1.879   8.588
 5904SOL    HW118248   2.817   1.811   8.548
 5904SOL    HW218249   2.959   1.843   8.591
 5905SOL     OW18250   2.633   3.195   7.767
 5905SOL    HW118251   2.604   3.104   7.772
 5905SOL    HW218252   2.718   3.195   7.812
 5906SOL     OW18253   2.482   3.416   8.733
 5906SOL    HW118254   2.483   3.497   8.783
 5906SOL    HW218255   2.570   3.409   8.695
 5907SOL     OW18256   3.218   1.919   7.614
 5907SOL    HW118257   3.247   1.856   7.549
 5907SOL    HW218258   3.128   1.894   7.634
 5908SOL     OW18259   3.157   2.324   8.129
 5908SOL    HW118260   3.106   2.404   8.136
 5908SOL    HW218261   3.154   2.285   8.216
 5909SOL     OW18262   3.443   2.061   8.325
 5909SOL    HW118263   3.387   2.085   8.399
 5909SOL    HW218264   3.446   2.139   8.270
 5910SOL     OW18265   1.895   2.932   7.756
 5910SOL    HW118266   1.990   2.932   7.764
 5910SOL    HW218267   1.867   2.848   7.793
 5911SOL     OW18268   2.747   3.519   7.792
 5911SOL    HW118269   2.677   3.501   7.730
 5911SOL    HW218270   2.716   3.595   7.841
 5912SOL     OW18271   2.087   2.477   9.437
 5912SOL    HW118272   1.996   2.484   9.466
 5912SOL    HW218273   2.080   2.450   9.345
 5913SOL     OW18274   1.857   2.288   9.932
 5913SOL    HW118275   1.771   2.287   9.976
 5913SOL    HW218276   1.855   2.212   9.874
 5914SOL     OW18277   2.429   3.152  10.487
 5914SOL    HW118278   2.342   3.157  10.447
 5914SOL    HW218279   2.445   3.240  10.521
 5915SOL     OW18280   3.424   3.374  10.018
 5915SOL    HW118281   3.382   3.352  10.101
 5915SOL    HW218282   3.352   3.377   9.955
 5916SOL     OW18283   2.992   2.560  10.009
 5916SOL    HW118284   3.041   2.641   9.995
 5916SOL    HW218285   2.946   2.575  10.092
 5917SOL     OW18286   3.628   2.468   9.539
 5917SOL    HW118287   3.609   2.460   9.446
 5917SOL    HW218288   3.594   2.388   9.578
 5918SOL     OW18289   2.614   3.003  10.352
 5918SOL    HW118290   2.546   3.038  10.409
 5918SOL    HW218291   2.651   3.079  10.308
 5919SOL     OW18292   2.730   2.632  11.132
 5919SOL    HW118293   2.718   2.703  11.195
 5919SOL    HW218294   2.754   2.677  11.051
 5920SOL     OW18295   2.548   2.862   9.956
 5920SOL    HW118296   2.613   2.852  10.025
 5920SOL    HW218297   2.479   2.915   9.995
 5921SOL     OW18298   2.574   3.013  11.124
 5921SOL    HW118299   2.621   3.091  11.152
 5921SOL    HW218300   2.492   3.046  11.088
 5922SOL     OW18301   2.193   3.285  10.377
 5922SOL    HW118302   2.120   3.248  10.328
 5922SOL    HW218303   2.241   3.337  10.313
 5923SOL     OW18304   3.321   3.363  10.666
 5923SOL    HW118305   3.375   3.441  10.676
 5923SOL    HW218306   3.257   3.368  10.736
 5924SOL     OW18307   2.292   2.237  10.780
 5924SOL    HW118308   2.382   2.209  10.797
 5924SOL    HW218309   2.238   2.164  10.810
 5925SOL     OW18310   3.473   2.309  10.053
 5925SOL    HW118311   3.400   2.331   9.995
 5925SOL    HW218312   3.486   2.387  10.106
 5926SOL     OW18313   2.083   3.578   9.789
 5926SOL    HW118314   2.115   3.638   9.856
 5926SOL    HW218315   2.154   3.574   9.725
 5927SOL     OW18316   2.999   3.204  11.004
 5927SOL    HW118317   3.040   3.198  11.090
 5927SOL    HW218318   2.946   3.124  10.996
 5928SOL     OW18319   2.091   3.304   9.845
 5928SOL    HW118320   2.073   3.398   9.850
 5928SOL    HW218321   2.032   3.265   9.910
 5929SOL     OW18322   2.122   2.954  10.201
 5929SOL    HW118323   2.118   2.867  10.242
 5929SOL    HW218324   2.064   3.008  10.255
 5930SOL     OW18325   2.471   3.648  10.738
 5930SOL    HW118326   2.390   3.633  10.786
 5930SOL    HW218327   2.497   3.737  10.763
 5931SOL     OW18328   2.447   2.844   9.445
 5931SOL    HW118329   2.493   2.892   9.377
 5931SOL    HW218330   2.485   2.876   9.527
 5932SOL     OW18331   3.457   1.987  10.776
 5932SOL    HW118332   3.468   2.069  10.728
 5932SOL    HW218333   3.443   2.015  10.867
 5933SOL     OW18334   1.984   2.523   9.870
 5933SOL    HW118335   1.945   2.437   9.888
 5933SOL    HW218336   1.973   2.572   9.952
 5934SOL     OW18337   3.700   3.614   9.651
 5934SOL    HW118338   3.770   3.589   9.711
 5934SOL    HW218339   3.720   3.704   9.628
 5935SOL     OW18340   1.891   3.454   9.432
 5935SOL    HW118341   1.876   3.362   9.454
 5935SOL    HW218342   1.871   3.501   9.513
 5936SOL     OW18343   3.550   2.781   9.955
 5936SOL    HW118344   3.633   2.738   9.937
 5936SOL    HW218345   3.531   2.830   9.875
 5937SOL     OW18346   3.503   2.967   9.741
 5937SOL    HW118347   3.588   2.972   9.697
 5937SOL    HW218348   3.510   3.030   9.813
 5938SOL     OW18349   1.982   2.604  10.894
 5938SOL    HW118350   2.074   2.628  10.906
 5938SOL    HW218351   1.934   2.687  10.904
 5939SOL     OW18352   2.477   3.250  10.045
 5939SOL    HW118353   2.431   3.167  10.054
 5939SOL    HW218354   2.460   3.277   9.954
 5940SOL     OW18355   3.150   3.099  10.733
 5940SOL    HW118356   3.182   3.033  10.672
 5940SOL    HW218357   3.208   3.094  10.808
 5941SOL     OW18358   2.675   1.864   9.819
 5941SOL    HW118359   2.715   1.949   9.798
 5941SOL    HW218360   2.582   1.883   9.826
 5942SOL     OW18361   2.052   2.828  10.582
 5942SOL    HW118362   2.137   2.786  10.567
 5942SOL    HW218363   1.989   2.773  10.537
 5943SOL     OW18364   3.390   2.857   9.510
 5943SOL    HW118365   3.321   2.800   9.543
 5943SOL    HW218366   3.432   2.892   9.588
 5944SOL     OW18367   3.078   3.665  10.936
 5944SOL    HW118368   3.056   3.726  10.866
 5944SOL    HW218369   3.079   3.579  10.895
 5945SOL     OW18370   2.264   2.165  11.116
 5945SOL    HW118371   2.312   2.231  11.165
 5945SOL    HW218372   2.172   2.189  11.127
 5946SOL     OW18373   3.327   3.282  10.259
 5946SOL    HW118374   3.260   3.297  10.327
 5946SOL    HW218375   3.316   3.191  10.234
 5947SOL     OW18376   3.511   3.605   9.890
 5947SOL    HW118377   3.501   3.571   9.801
 5947SOL    HW218378   3.493   3.530   9.946
 5948SOL     OW18379   2.457   2.582   9.577
 5948SOL    HW118380   2.463   2.664   9.528
 5948SOL    HW218381   2.392   2.600   9.646
 5949SOL     OW18382   3.140   2.218  10.243
 5949SOL    HW118383   3.051   2.183  10.252
 5949SOL    HW218384   3.192   2.165  10.303
 5950SOL     OW18385   3.437   3.538   9.618
 5950SOL    HW118386   3.529   3.563   9.614
 5950SOL    HW218387   3.413   3.518   9.527
 5951SOL     OW18388   2.653   2.480  10.759
 5951SOL    HW118389   2.629   2.455  10.848
 5951SOL    HW218390   2.615   2.412  10.704
 5952SOL     OW18391   3.255   2.336  10.988
 5952SOL    HW118392   3.259   2.380  11.073
 5952SOL    HW218393   3.315   2.261  10.998
 5953SOL     OW18394   2.815   2.749  10.893
 5953SOL    HW118395   2.870   2.679  10.857
 5953SOL    HW218396   2.767   2.784  10.818
 5954SOL     OW18397   2.855   2.275  10.547
 5954SOL    HW118398   2.768   2.294  10.583
 5954SOL    HW218399   2.838   2.229  10.465
 5955SOL     OW18400   2.914   2.560   9.735
 5955SOL    HW118401   2.930   2.554   9.830
 5955SOL    HW218402   2.831   2.514   9.722
 5956SOL     OW18403   1.950   2.685  10.088
 5956SOL    HW118404   2.031   2.680  10.138
 5956SOL    HW218405   1.906   2.763  10.122
 5957SOL     OW18406   1.984   3.705  10.886
 5957SOL    HW118407   1.986   3.686  10.980
 5957SOL    HW218408   1.891   3.706  10.864
 5958SOL     OW18409   2.757   2.214   9.508
 5958SOL    HW118410   2.799   2.273   9.445
 5958SOL    HW218411   2.757   2.129   9.464
 5959SOL     OW18412   3.572   2.436  11.138
 5959SOL    HW118413   3.534   2.510  11.090
 5959SOL    HW218414   3.596   2.373  11.071
 5960SOL     OW18415   3.238   3.003   9.851
 5960SOL    HW118416   3.318   2.991   9.799
 5960SOL    HW218417   3.187   3.066   9.800
 5961SOL     OW18418   2.412   2.053  10.202
 5961SOL    HW118419   2.409   2.072  10.295
 5961SOL    HW218420   2.430   2.138  10.161
 5962SOL     OW18421   2.866   3.307   9.781
 5962SOL    HW118422   2.829   3.380   9.732
 5962SOL    HW218423   2.847   3.326   9.873
 5963SOL     OW18424   2.213   3.672  10.150
 5963SOL    HW118425   2.263   3.593  10.168
 5963SOL    HW218426   2.273   3.744  10.172
 5964SOL     OW18427   3.667   2.923  10.177
 5964SOL    HW118428   3.613   2.898  10.102
 5964SOL    HW218429   3.605   2.926  10.250
 5965SOL     OW18430   3.089   3.399  10.822
 5965SOL    HW118431   3.076   3.327  10.883
 5965SOL    HW218432   3.023   3.386  10.754
 5966SOL     OW18433   2.181   2.820   9.562
 5966SOL    HW118434   2.263   2.840   9.516
 5966SOL    HW218435   2.150   2.739   9.522
 5967SOL     OW18436   3.341   2.607  10.036
 5967SOL    HW118437   3.334   2.564  10.122
 5967SOL    HW218438   3.419   2.662  10.043
 5968SOL     OW18439   2.329   3.127  11.047
 5968SOL    HW118440   2.302   3.132  10.955
 5968SOL    HW218441   2.247   3.125  11.096
 5969SOL     OW18442   2.976   3.643   9.532
 5969SOL    HW118443   2.912   3.597   9.587
 5969SOL    HW218444   3.006   3.578   9.469
 5970SOL     OW18445   3.487   3.246   9.399
 5970SOL    HW118446   3.444   3.330   9.381
 5970SOL    HW218447   3.420   3.180   9.379
 5971SOL     OW18448   2.330   3.597   9.635
 5971SOL    HW118449   2.367   3.662   9.694
 5971SOL    HW218450   2.402   3.572   9.578
 5972SOL     OW18451   3.263   1.970   9.745
 5972SOL    HW118452   3.255   1.944   9.653
 5972SOL    HW218453   3.357   1.975   9.760
 5973SOL     OW18454   2.121   3.654  10.535
 5973SOL    HW118455   2.169   3.585  10.581
 5973SOL    HW218456   2.107   3.618  10.447
 5974SOL     OW18457   2.800   3.562  10.210
 5974SOL    HW118458   2.877   3.510  10.232
 5974SOL    HW218459   2.756   3.513  10.141
 5975SOL     OW18460   2.256   2.557   9.785
 5975SOL    HW118461   2.275   2.464   9.797
 5975SOL    HW218462   2.163   2.564   9.803
 5976SOL     OW18463   3.396   2.087  11.035
 5976SOL    HW118464   3.405   2.108  11.128
 5976SOL    HW218465   3.328   2.020  11.033
 5977SOL     OW18466   2.513   1.984   9.421
 5977SOL    HW118467   2.573   1.910   9.433
 5977SOL    HW218468   2.453   1.955   9.352
 5978SOL     OW18469   2.627   2.140  11.066
 5978SOL    HW118470   2.705   2.084  11.064
 5978SOL    HW218471   2.578   2.110  11.142
 5979SOL     OW18472   2.738   3.383  10.505
 5979SOL    HW118473   2.722   3.347  10.417
 5979SOL    HW218474   2.808   3.328  10.540
 5980SOL     OW18475   3.202   2.451  10.743
 5980SOL    HW118476   3.233   2.420  10.828
 5980SOL    HW218477   3.238   2.539  10.735
 5981SOL     OW18478   2.678   3.255  10.251
 5981SOL    HW118479   2.762   3.243  10.208
 5981SOL    HW218480   2.614   3.258  10.180
 5982SOL     OW18481   2.789   2.370  10.213
 5982SOL    HW118482   2.765   2.362  10.120
 5982SOL    HW218483   2.822   2.284  10.236
 5983SOL     OW18484   2.407   1.928   9.814
 5983SOL    HW118485   2.347   1.941   9.887
 5983SOL    HW218486   2.394   2.004   9.757
 5984SOL     OW18487   3.290   3.061   9.351
 5984SOL    HW118488   3.321   2.986   9.401
 5984SOL    HW218489   3.204   3.082   9.388
 5985SOL     OW18490   2.801   2.110   9.769
 5985SOL    HW118491   2.776   2.150   9.685
 5985SOL    HW218492   2.896   2.123   9.774
 5986SOL     OW18493   2.943   2.544  10.769
 5986SOL    HW118494   2.876   2.475  10.774
 5986SOL    HW218495   3.025   2.496  10.763
 5987SOL     OW18496   3.084   3.432  10.104
 5987SOL    HW118497   3.100   3.500  10.038
 5987SOL    HW218498   3.153   3.444  10.168
 5988SOL     OW18499   2.332   3.013  10.041
 5988SOL    HW118500   2.263   2.994  10.105
 5988SOL    HW218501   2.291   2.997   9.956
 5989SOL     OW18502   3.129   3.657   9.917
 5989SOL    HW118503   3.175   3.722   9.864
 5989SOL    HW218504   3.057   3.706   9.957
 5990SOL     OW18505   2.886   2.402   9.333
 5990SOL    HW118506   2.842   2.485   9.314
 5990SOL    HW218507   2.951   2.423   9.400
 5991SOL     OW18508   1.938   2.423  10.696
 5991SOL    HW118509   2.032   2.419  10.675
 5991SOL    HW218510   1.933   2.488  10.766
 5992SOL     OW18511   2.412   2.082  10.479
 5992SOL    HW118512   2.462   2.005  10.507
 5992SOL    HW218513   2.330   2.076  10.528
 5993SOL     OW18514   2.726   2.319   9.950
 5993SOL    HW118515   2.685   2.376   9.884
 5993SOL    HW218516   2.751   2.240   9.901
 5994SOL     OW18517   2.875   1.917  10.061
 5994SOL    HW118518   2.820   1.908   9.984
 5994SOL    HW218519   2.854   1.840  10.115
 5995SOL     OW18520   3.300   3.024  10.167
 5995SOL    HW118521   3.230   2.959  10.166
 5995SOL    HW218522   3.326   3.034  10.075
 5996SOL     OW18523   3.327   2.470  10.285
 5996SOL    HW118524   3.276   2.389  10.287
 5996SOL    HW218525   3.386   2.463  10.359
 5997SOL     OW18526   3.723   2.679   9.685
 5997SOL    HW118527   3.767   2.623   9.749
 5997SOL    HW218528   3.686   2.618   9.621
 5998SOL     OW18529   2.352   3.280   9.464
 5998SOL    HW118530   2.277   3.252   9.517
 5998SOL    HW218531   2.339   3.239   9.379
 5999SOL     OW18532   3.529   3.127   9.954
 5999SOL    HW118533   3.624   3.130   9.964
 5999SOL    HW218534   3.500   3.216   9.976
 6000SOL     OW18535   3.256   2.434   9.382
 6000SOL    HW118536   3.194   2.414   9.452
 6000SOL    HW218537   3.340   2.401   9.414
 6001SOL     OW18538   2.385   2.127   9.627
 6001SOL    HW118539   2.431   2.075   9.561
 6001SOL    HW218540   2.363   2.208   9.582
 6002SOL     OW18541   3.613   3.097  10.877
 6002SOL    HW118542   3.701   3.061  10.860
 6002SOL    HW218543   3.630   3.186  10.907
 6003SOL     OW18544   2.919   3.214  10.642
 6003SOL    HW118545   2.845   3.184  10.694
 6003SOL    HW218546   2.995   3.174  10.684
 6004SOL     OW18547   3.469   3.491  10.966
 6004SOL    HW118548   3.460   3.524  10.877
 6004SOL    HW218549   3.550   3.440  10.965
 6005SOL     OW18550   2.992   3.067  10.414
 6005SOL    HW118551   2.934   3.105  10.479
 6005SOL    HW218552   2.960   3.100  10.330
 6006SOL     OW18553   3.491   2.959  10.385
 6006SOL    HW118554   3.483   3.020  10.458
 6006SOL    HW218555   3.413   2.975  10.332
 6007SOL     OW18556   2.779   1.959  10.704
 6007SOL    HW118557   2.803   1.939  10.614
 6007SOL    HW218558   2.858   1.998  10.742
 6008SOL     OW18559   2.846   2.977  11.033
 6008SOL    HW118560   2.754   2.993  11.055
 6008SOL    HW218561   2.844   2.899  10.978
 6009SOL     OW18562   2.571   2.924   9.681
 6009SOL    HW118563   2.557   2.905   9.774
 6009SOL    HW218564   2.647   2.870   9.657
 6010SOL     OW18565   2.281   2.676  10.561
 6010SOL    HW118566   2.348   2.688  10.627
 6010SOL    HW218567   2.246   2.588  10.577
 6011SOL     OW18568   3.127   2.238  10.587
 6011SOL    HW118569   3.160   2.316  10.633
 6011SOL    HW218570   3.037   2.260  10.565
 6012SOL     OW18571   1.934   3.435  10.663
 6012SOL    HW118572   1.905   3.510  10.611
 6012SOL    HW218573   2.029   3.437  10.659
 6013SOL     OW18574   2.208   2.974   9.800
 6013SOL    HW118575   2.213   3.047   9.739
 6013SOL    HW218576   2.205   2.896   9.744
 6014SOL     OW18577   2.409   2.397  10.172
 6014SOL    HW118578   2.423   2.455  10.097
 6014SOL    HW218579   2.475   2.423  10.235
 6015SOL     OW18580   3.110   3.211   9.699
 6015SOL    HW118581   3.166   3.282   9.730
 6015SOL    HW218582   3.023   3.232   9.733
 6016SOL     OW18583   3.145   3.321  10.458
 6016SOL    HW118584   3.201   3.325  10.535
 6016SOL    HW218585   3.090   3.244  10.471
 6017SOL     OW18586   3.441   2.483   9.791
 6017SOL    HW118587   3.394   2.536   9.855
 6017SOL    HW218588   3.484   2.546   9.734
 6018SOL     OW18589   2.208   3.391  10.623
 6018SOL    HW118590   2.196   3.347  10.539
 6018SOL    HW218591   2.302   3.402  10.631
 6019SOL     OW18592   2.276   2.610  10.912
 6019SOL    HW118593   2.340   2.652  10.854
 6019SOL    HW218594   2.317   2.527  10.936
 6020SOL     OW18595   3.465   2.640  10.992
 6020SOL    HW118596   3.380   2.683  10.986
 6020SOL    HW218597   3.518   2.683  10.925
 6021SOL     OW18598   2.857   1.988  11.062
 6021SOL    HW118599   2.915   2.060  11.038
 6021SOL    HW218600   2.905   1.909  11.038
 6022SOL     OW18601   2.372   1.907  11.062
 6022SOL    HW118602   2.315   1.855  11.004
 6022SOL    HW218603   2.329   1.992  11.068
 6023SOL     OW18604   2.446   2.735  10.342
 6023SOL    HW118605   2.478   2.825  10.341
 6023SOL    HW218606   2.390   2.730  10.419
 6024SOL     OW18607   3.217   2.721  10.337
 6024SOL    HW118608   3.134   2.709  10.292
 6024SOL    HW218609   3.260   2.636  10.331
 6025SOL     OW18610   3.065   2.390   9.575
 6025SOL    HW118611   3.073   2.312   9.629
 6025SOL    HW218612   3.022   2.454   9.632
 6026SOL     OW18613   1.908   3.173  10.586
 6026SOL    HW118614   1.941   3.118  10.657
 6026SOL    HW218615   1.914   3.262  10.619
 6027SOL     OW18616   2.582   2.490  10.365
 6027SOL    HW118617   2.660   2.475  10.311
 6027SOL    HW218618   2.556   2.580  10.347
 6028SOL     OW18619   3.593   2.821  11.169
 6028SOL    HW118620   3.551   2.758  11.111
 6028SOL    HW218621   3.529   2.834  11.240
 6029SOL     OW18622   3.480   2.238   9.675
 6029SOL    HW118623   3.507   2.173   9.740
 6029SOL    HW218624   3.457   2.315   9.726
 6030SOL     OW18625   2.889   2.620  10.270
 6030SOL    HW118626   2.885   2.638  10.364
 6030SOL    HW218627   2.864   2.528  10.261
 6031SOL     OW18628   2.847   3.430  11.030
 6031SOL    HW118629   2.829   3.471  10.945
 6031SOL    HW218630   2.889   3.347  11.007
 6032SOL     OW18631   3.706   3.362  10.909
 6032SOL    HW118632   3.729   3.391  10.820
 6032SOL    HW218633   3.786   3.373  10.959
 6033SOL     OW18634   2.214   2.778  11.121
 6033SOL    HW118635   2.297   2.798  11.165
 6033SOL    HW218636   2.238   2.717  11.051
 6034SOL     OW18637   3.391   2.135   9.437
 6034SOL    HW118638   3.326   2.070   9.464
 6034SOL    HW218639   3.424   2.170   9.520
 6035SOL     OW18640   3.152   2.687   9.340
 6035SOL    HW118641   3.195   2.602   9.344
 6035SOL    HW218642   3.184   2.727   9.259
 6036SOL     OW18643   2.928   3.198  10.164
 6036SOL    HW118644   2.932   3.126  10.102
 6036SOL    HW218645   2.989   3.263  10.129
 6037SOL     OW18646   2.172   2.672  10.256
 6037SOL    HW118647   2.264   2.695  10.247
 6037SOL    HW218648   2.172   2.585  10.295
 6038SOL     OW18649   2.186   2.365  10.320
 6038SOL    HW118650   2.145   2.292  10.272
 6038SOL    HW218651   2.267   2.382  10.272
 6039SOL     OW18652   2.996   2.237  10.992
 6039SOL    HW118653   2.948   2.292  11.055
 6039SOL    HW218654   3.083   2.276  10.989
 6040SOL     OW18655   3.022   2.064  10.780
 6040SOL    HW118656   3.011   2.126  10.852
 6040SOL    HW218657   3.064   2.114  10.710
 6041SOL     OW18658   1.867   3.182   9.505
 6041SOL    HW118659   1.780   3.196   9.468
 6041SOL    HW218660   1.864   3.092   9.539
 6042SOL     OW18661   1.958   3.642  10.247
 6042SOL    HW118662   1.927   3.563  10.203
 6042SOL    HW218663   2.043   3.660  10.208
 6043SOL     OW18664   2.357   3.437  10.215
 6043SOL    HW118665   2.424   3.500  10.240
 6043SOL    HW218666   2.402   3.375  10.159
 6044SOL     OW18667   2.842   2.652  10.536
 6044SOL    HW118668   2.901   2.631  10.608
 6044SOL    HW218669   2.757   2.617  10.563
 6045SOL     OW18670   1.901   2.397  10.427
 6045SOL    HW118671   1.985   2.401  10.383
 6045SOL    HW218672   1.921   2.410  10.520
 6046SOL     OW18673   2.068   2.382  11.042
 6046SOL    HW118674   2.119   2.352  10.967
 6046SOL    HW218675   2.005   2.444  11.005
 6047SOL     OW18676   3.241   2.799  10.968
 6047SOL    HW118677   3.262   2.893  10.966
 6047SOL    HW218678   3.237   2.773  10.876
 6048SOL     OW18679   2.678   2.432   9.675
 6048SOL    HW118680   2.685   2.358   9.614
 6048SOL    HW218681   2.605   2.483   9.641
 6049SOL     OW18682   3.502   2.464  10.495
 6049SOL    HW118683   3.492   2.403  10.568
 6049SOL    HW218684   3.588   2.442  10.458
 6050SOL     OW18685   2.105   3.412  11.036
 6050SOL    HW118686   2.082   3.478  11.101
 6050SOL    HW218687   2.108   3.329  11.085
 6051SOL     OW18688   2.562   2.310  10.568
 6051SOL    HW118689   2.509   2.237  10.538
 6051SOL    HW218690   2.559   2.373  10.497
 6052SOL     OW18691   2.790   3.534  10.779
 6052SOL    HW118692   2.763   3.497  10.695
 6052SOL    HW218693   2.782   3.629  10.767
 6053SOL     OW18694   2.326   2.356   9.491
 6053SOL    HW118695   2.384   2.428   9.517
 6053SOL    HW218696   2.240   2.396   9.482
 6054SOL     OW18697   2.007   3.003  10.783
 6054SOL    HW118698   2.008   2.953  10.864
 6054SOL    HW218699   2.024   2.939  10.714
 6055SOL     OW18700   3.185   2.907  10.532
 6055SOL    HW118701   3.209   2.844  10.464
 6055SOL    HW218702   3.117   2.961  10.493
 6056SOL     OW18703   3.174   2.718   9.616
 6056SOL    HW118704   3.099   2.688   9.666
 6056SOL    HW218705   3.149   2.704   9.524
 6057SOL     OW18706   3.638   3.604  10.463
 6057SOL    HW118707   3.696   3.630  10.392
 6057SOL    HW218708   3.611   3.515  10.441
 6058SOL     OW18709   3.106   3.596  10.420
 6058SOL    HW118710   3.188   3.616  10.377
 6058SOL    HW218711   3.111   3.502  10.440
 6059SOL     OW18712   1.947   3.128  10.321
 6059SOL    HW118713   1.932   3.142  10.415
 6059SOL    HW218714   1.873   3.074  10.293
 6060SOL     OW18715   2.540   3.526  11.041
 6060SOL    HW118716   2.484   3.603  11.045
 6060SOL    HW218717   2.601   3.544  10.969
 6061SOL     OW18718   3.573   2.011   9.822
 6061SOL    HW118719   3.641   1.998   9.756
 6061SOL    HW218720   3.562   1.924   9.862
 6062SOL     OW18721   3.252   3.430   9.797
 6062SOL    HW118722   3.311   3.464   9.729
 6062SOL    HW218723   3.204   3.508   9.827
 6063SOL     OW18724   1.995   3.653  11.149
 6063SOL    HW118725   1.944   3.589  11.198
 6063SOL    HW218726   2.045   3.700  11.216
 6064SOL     OW18727   3.139   2.788   9.981
 6064SOL    HW118728   3.213   2.728   9.989
 6064SOL    HW218729   3.173   2.860   9.928
 6065SOL     OW18730   2.674   3.136  10.738
 6065SOL    HW118731   2.646   3.175  10.821
 6065SOL    HW218732   2.604   3.158  10.676
 6066SOL     OW18733   2.537   3.479   9.467
 6066SOL    HW118734   2.546   3.496   9.374
 6066SOL    HW218735   2.478   3.403   9.472
 6067SOL     OW18736   3.482   3.588  10.700
 6067SOL    HW118737   3.537   3.592  10.622
 6067SOL    HW218738   3.470   3.680  10.725
 6068SOL     OW18739   3.700   2.043  10.277
 6068SOL    HW118740   3.731   1.956  10.252
 6068SOL    HW218741   3.613   2.051  10.236
 6069SOL     OW18742   3.069   3.467   9.345
 6069SOL    HW118743   3.059   3.375   9.369
 6069SOL    HW218744   3.008   3.479   9.273
 6070SOL     OW18745   2.686   2.868  10.682
 6070SOL    HW118746   2.730   2.864  10.598
 6070SOL    HW218747   2.684   2.961  10.704
 6071SOL     OW18748   2.778   2.772   9.600
 6071SOL    HW118749   2.839   2.805   9.534
 6071SOL    HW218750   2.827   2.704   9.646
 6072SOL     OW18751   3.351   3.493   9.352
 6072SOL    HW118752   3.257   3.481   9.336
 6072SOL    HW218753   3.390   3.497   9.265
 6073SOL     OW18754   2.231   3.165  10.801
 6073SOL    HW118755   2.217   3.242  10.746
 6073SOL    HW218756   2.154   3.111  10.786
 6074SOL     OW18757   3.464   3.142  10.588
 6074SOL    HW118758   3.532   3.134  10.655
 6074SOL    HW218759   3.407   3.212  10.620
 6075SOL     OW18760   2.916   2.970  10.018
 6075SOL    HW118761   2.845   2.919  10.056
 6075SOL    HW218762   2.980   2.904   9.988
 6076SOL     OW18763   2.883   2.102  10.277
 6076SOL    HW118764   2.879   2.055  10.193
 6076SOL    HW218765   2.879   2.034  10.343
 6077SOL     OW18766   2.466   3.352   9.790
 6077SOL    HW118767   2.511   3.301   9.723
 6077SOL    HW218768   2.397   3.399   9.742
 6078SOL     OW18769   3.585   2.252  10.688
 6078SOL    HW118770   3.657   2.315  10.685
 6078SOL    HW218771   3.614   2.180  10.633
 6079SOL     OW18772   2.122   3.206   9.599
 6079SOL    HW118773   2.029   3.203   9.576
 6079SOL    HW218774   2.124   3.244   9.687
 6080SOL     OW18775   1.975   2.886  11.030
 6080SOL    HW118776   1.898   2.862  11.082
 6080SOL    HW218777   2.049   2.847  11.077
 6081SOL     OW18778   2.537   2.060  10.809
 6081SOL    HW118779   2.621   2.038  10.769
 6081SOL    HW218780   2.560   2.090  10.897
 6082SOL     OW18781   3.289   2.720  10.710
 6082SOL    HW118782   3.240   2.782  10.655
 6082SOL    HW218783   3.378   2.722  10.673
 6083SOL     OW18784   3.040   3.200   9.427
 6083SOL    HW118785   2.949   3.170   9.429
 6083SOL    HW218786   3.067   3.199   9.519
 6084SOL     OW18787   2.481   2.692  10.743
 6084SOL    HW118788   2.537   2.769  10.729
 6084SOL    HW218789   2.543   2.619  10.751
 6085SOL     OW18790   3.347   3.643  10.292
 6085SOL    HW118791   3.371   3.696  10.216
 6085SOL    HW218792   3.430   3.613  10.328
 6086SOL     OW18793   2.578   2.423  11.012
 6086SOL    HW118794   2.620   2.485  11.071
 6086SOL    HW218795   2.603   2.337  11.046
 6087SOL     OW18796   3.334   3.061  10.941
 6087SOL    HW118797   3.323   3.074  11.035
 6087SOL    HW218798   3.427   3.076  10.925
 6088SOL     OW18799   2.238   3.602  10.874
 6088SOL    HW118800   2.153   3.643  10.859
 6088SOL    HW218801   2.217   3.518  10.916
 6089SOL     OW18802   3.527   2.743  10.569
 6089SOL    HW118803   3.526   2.657  10.525
 6089SOL    HW218804   3.521   2.806  10.497
 6090SOL     OW18805   3.078   2.181   9.768
 6090SOL    HW118806   3.141   2.109   9.760
 6090SOL    HW218807   3.108   2.230   9.844
 6091SOL     OW18808   2.448   2.598   9.982
 6091SOL    HW118809   2.490   2.683   9.968
 6091SOL    HW218810   2.383   2.591   9.913
 6092SOL     OW18811   3.622   2.227  10.960
 6092SOL    HW118812   3.605   2.240  10.866
 6092SOL    HW218813   3.552   2.169  10.989
 6093SOL     OW18814   3.617   2.791  10.823
 6093SOL    HW118815   3.609   2.885  10.840
 6093SOL    HW218816   3.594   2.781  10.731
 6094SOL     OW18817   2.725   3.229   9.347
 6094SOL    HW118818   2.685   3.257   9.429
 6094SOL    HW218819   2.741   3.311   9.299
 6095SOL     OW18820   2.522   3.652  10.251
 6095SOL    HW118821   2.501   3.743  10.229
 6095SOL    HW218822   2.618   3.647  10.245
 6096SOL     OW18823   2.730   2.830  10.165
 6096SOL    HW118824   2.780   2.758  10.204
 6096SOL    HW218825   2.694   2.878  10.240
 6097SOL     OW18826   2.940   2.850   9.399
 6097SOL    HW118827   2.919   2.901   9.321
 6097SOL    HW218828   3.015   2.796   9.372
 6098SOL     OW18829   3.713   3.417  10.151
 6098SOL    HW118830   3.634   3.398  10.101
 6098SOL    HW218831   3.716   3.350  10.219
 6099SOL     OW18832   2.088   3.164  11.166
 6099SOL    HW118833   2.021   3.103  11.135
 6099SOL    HW218834   2.068   3.176  11.259
 6100SOL     OW18835   1.947   3.094   9.975
 6100SOL    HW118836   1.954   3.047  10.058
 6100SOL    HW218837   2.015   3.055   9.920
 6101SOL     OW18838   2.544   3.266  10.939
 6101SOL    HW118839   2.465   3.223  10.970
 6101SOL    HW218840   2.541   3.354  10.976
 6102SOL     OW18841   3.675   2.041  10.549
 6102SOL    HW118842   3.668   1.946  10.552
 6102SOL    HW218843   3.689   2.061  10.456
 6103SOL     OW18844   2.294   2.294   9.834
 6103SOL    HW118845   2.325   2.233   9.767
 6103SOL    HW218846   2.242   2.240   9.893
 6104SOL     OW18847   3.559   3.352  10.407
 6104SOL    HW118848   3.480   3.327  10.359
 6104SOL    HW218849   3.572   3.281  10.470
 6105SOL     OW18850   2.193   2.417  10.598
 6105SOL    HW118851   2.238   2.356  10.657
 6105SOL    HW218852   2.209   2.382  10.511
 6106SOL     OW18853   2.690   3.440   9.987
 6106SOL    HW118854   2.674   3.491   9.907
 6106SOL    HW218855   2.615   3.381   9.993
 6107SOL     OW18856   3.293   2.089  10.427
 6107SOL    HW118857   3.315   2.007  10.471
 6107SOL    HW218858   3.242   2.138  10.492
 6108SOL     OW18859   2.871   1.879  10.451
 6108SOL    HW118860   2.817   1.812  10.410
 6108SOL    HW218861   2.959   1.842  10.453
 6109SOL     OW18862   2.634   3.194   9.628
 6109SOL    HW118863   2.604   3.104   9.633
 6109SOL    HW218864   2.717   3.195   9.676
 6110SOL     OW18865   2.482   3.416  10.595
 6110SOL    HW118866   2.483   3.497  10.645
 6110SOL    HW218867   2.570   3.409  10.557
 6111SOL     OW18868   3.216   1.915   9.476
 6111SOL    HW118869   3.246   1.848   9.415
 6111SOL    HW218870   3.128   1.887   9.501
 6112SOL     OW18871   3.157   2.323   9.990
 6112SOL    HW118872   3.105   2.403   9.997
 6112SOL    HW218873   3.154   2.285  10.077
 6113SOL     OW18874   3.444   2.061  10.187
 6113SOL    HW118875   3.387   2.085  10.261
 6113SOL    HW218876   3.446   2.140  10.132
 6114SOL     OW18877   1.905   2.931   9.617
 6114SOL    HW118878   1.999   2.924   9.599
 6114SOL    HW218879   1.877   2.843   9.639
 6115SOL     OW18880   2.747   3.520   9.653
 6115SOL    HW118881   2.677   3.500   9.592
 6115SOL    HW218882   2.716   3.595   9.703
 6116SOL     OW18883   2.086   2.477  11.299
 6116SOL    HW118884   1.996   2.484  11.329
 6116SOL    HW218885   2.079   2.450  11.208
 6117SOL     OW18886   1.855   2.288  11.795
 6117SOL    HW118887   1.770   2.289  11.840
 6117SOL    HW218888   1.851   2.211  11.738
 6118SOL     OW18889   2.429   3.152  12.349
 6118SOL    HW118890   2.342   3.157  12.310
 6118SOL    HW218891   2.445   3.240  12.383
 6119SOL     OW18892   3.424   3.374  11.880
 6119SOL    HW118893   3.382   3.352  11.963
 6119SOL    HW218894   3.352   3.377  11.817
 6120SOL     OW18895   2.992   2.560  11.871
 6120SOL    HW118896   3.041   2.641  11.857
 6120SOL    HW218897   2.946   2.575  11.954
 6121SOL     OW18898   3.628   2.468  11.401
 6121SOL    HW118899   3.609   2.460  11.308
 6121SOL    HW218900   3.594   2.388  11.440
 6122SOL     OW18901   2.614   3.003  12.214
 6122SOL    HW118902   2.546   3.038  12.271
 6122SOL    HW218903   2.651   3.079  12.170
 6123SOL     OW18904   2.730   2.633  12.994
 6123SOL    HW118905   2.717   2.704  13.057
 6123SOL    HW218906   2.754   2.676  12.912
 6124SOL     OW18907   2.548   2.862  11.818
 6124SOL    HW118908   2.613   2.852  11.887
 6124SOL    HW218909   2.479   2.915  11.857
 6125SOL     OW18910   2.574   3.013  12.986
 6125SOL    HW118911   2.621   3.091  13.014
 6125SOL    HW218912   2.492   3.046  12.949
 6126SOL     OW18913   2.193   3.285  12.239
 6126SOL    HW118914   2.120   3.248  12.190
 6126SOL    HW218915   2.241   3.337  12.175
 6127SOL     OW18916   3.321   3.363  12.528
 6127SOL    HW118917   3.375   3.442  12.538
 6127SOL    HW218918   3.257   3.368  12.598
 6128SOL     OW18919   2.295   2.237  12.641
 6128SOL    HW118920   2.385   2.209  12.656
 6128SOL    HW218921   2.241   2.168  12.679
 6129SOL     OW18922   3.473   2.309  11.915
 6129SOL    HW118923   3.400   2.331  11.857
 6129SOL    HW218924   3.486   2.387  11.968
 6130SOL     OW18925   2.083   3.578  11.651
 6130SOL    HW118926   2.115   3.638  11.718
 6130SOL    HW218927   2.154   3.574  11.587
 6131SOL     OW18928   2.999   3.204  12.865
 6131SOL    HW118929   3.039   3.198  12.952
 6131SOL    HW218930   2.946   3.124  12.858
 6132SOL     OW18931   2.091   3.304  11.707
 6132SOL    HW118932   2.073   3.398  11.712
 6132SOL    HW218933   2.032   3.265  11.772
 6133SOL     OW18934   2.122   2.954  12.063
 6133SOL    HW118935   2.118   2.867  12.104
 6133SOL    HW218936   2.064   3.008  12.117
 6134SOL     OW18937   2.471   3.648  12.600
 6134SOL    HW118938   2.390   3.633  12.648
 6134SOL    HW218939   2.497   3.737  12.625
 6135SOL     OW18940   2.447   2.844  11.307
 6135SOL    HW118941   2.493   2.892  11.239
 6135SOL    HW218942   2.485   2.876  11.389
 6136SOL     OW18943   3.457   1.987  12.638
 6136SOL    HW118944   3.468   2.069  12.590
 6136SOL    HW218945   3.443   2.015  12.729
 6137SOL     OW18946   1.984   2.522  11.732
 6137SOL    HW118947   1.945   2.437  11.750
 6137SOL    HW218948   1.973   2.571  11.814
 6138SOL     OW18949   3.700   3.614  11.513
 6138SOL    HW118950   3.770   3.589  11.573
 6138SOL    HW218951   3.720   3.704  11.489
 6139SOL     OW18952   1.891   3.454  11.294
 6139SOL    HW118953   1.876   3.362  11.316
 6139SOL    HW218954   1.871   3.501  11.375
 6140SOL     OW18955   3.550   2.781  11.817
 6140SOL    HW118956   3.633   2.738  11.799
 6140SOL    HW218957   3.531   2.830  11.737
 6141SOL     OW18958   3.503   2.967  11.603
 6141SOL    HW118959   3.588   2.972  11.559
 6141SOL    HW218960   3.510   3.030  11.675
 6142SOL     OW18961   1.982   2.604  12.756
 6142SOL    HW118962   2.074   2.628  12.768
 6142SOL    HW218963   1.935   2.686  12.767
 6143SOL     OW18964   2.477   3.250  11.907
 6143SOL    HW118965   2.431   3.167  11.916
 6143SOL    HW218966   2.460   3.277  11.816
 6144SOL     OW18967   3.150   3.099  12.595
 6144SOL    HW118968   3.182   3.033  12.534
 6144SOL    HW218969   3.208   3.094  12.670
 6145SOL     OW18970   2.675   1.864  11.681
 6145SOL    HW118971   2.716   1.949  11.660
 6145SOL    HW218972   2.582   1.883  11.688
 6146SOL     OW18973   2.052   2.829  12.444
 6146SOL    HW118974   2.137   2.786  12.429
 6146SOL    HW218975   1.989   2.773  12.400
 6147SOL     OW18976   3.390   2.857  11.372
 6147SOL    HW118977   3.321   2.800  11.405
 6147SOL    HW218978   3.432   2.892  11.450
 6148SOL     OW18979   3.078   3.666  12.798
 6148SOL    HW118980   3.056   3.725  12.727
 6148SOL    HW218981   3.079   3.579  12.757
 6149SOL     OW18982   2.263   2.166  12.975
 6149SOL    HW118983   2.310   2.228  13.029
 6149SOL    HW218984   2.171   2.192  12.983
 6150SOL     OW18985   3.327   3.282  12.121
 6150SOL    HW118986   3.260   3.297  12.189
 6150SOL    HW218987   3.316   3.191  12.096
 6151SOL     OW18988   3.511   3.605  11.752
 6151SOL    HW118989   3.501   3.571  11.663
 6151SOL    HW218990   3.493   3.530  11.808
 6152SOL     OW18991   2.457   2.582  11.439
 6152SOL    HW118992   2.463   2.664  11.390
 6152SOL    HW218993   2.392   2.599  11.507
 6153SOL     OW18994   3.140   2.218  12.105
 6153SOL    HW118995   3.051   2.183  12.114
 6153SOL    HW218996   3.192   2.165  12.165
 6154SOL     OW18997   3.437   3.538  11.480
 6154SOL    HW118998   3.529   3.563  11.476
 6154SOL    HW218999   3.413   3.518  11.389
 6155SOL     OW19000   2.654   2.480  12.621
 6155SOL    HW119001   2.629   2.455  12.710
 6155SOL    HW219002   2.615   2.412  12.566
 6156SOL     OW19003   3.255   2.336  12.850
 6156SOL    HW119004   3.258   2.380  12.935
 6156SOL    HW219005   3.315   2.261  12.860
 6157SOL     OW19006   2.815   2.749  12.755
 6157SOL    HW119007   2.870   2.679  12.719
 6157SOL    HW219008   2.767   2.784  12.680
 6158SOL     OW19009   2.855   2.275  12.409
 6158SOL    HW119010   2.769   2.294  12.445
 6158SOL    HW219011   2.837   2.229  12.327
 6159SOL     OW19012   2.914   2.560  11.598
 6159SOL    HW119013   2.930   2.554  11.692
 6159SOL    HW219014   2.831   2.514  11.584
 6160SOL     OW19015   1.950   2.685  11.950
 6160SOL    HW119016   2.031   2.679  12.000
 6160SOL    HW219017   1.906   2.763  11.984
 6161SOL     OW19018   1.984   3.706  12.748
 6161SOL    HW119019   1.986   3.686  12.842
 6161SOL    HW219020   1.891   3.705  12.726
 6162SOL     OW19021   2.757   2.214  11.370
 6162SOL    HW119022   2.799   2.273  11.307
 6162SOL    HW219023   2.757   2.128  11.326
 6163SOL     OW19024   3.572   2.437  13.001
 6163SOL    HW119025   3.533   2.510  12.953
 6163SOL    HW219026   3.596   2.373  12.933
 6164SOL     OW19027   3.238   3.004  11.713
 6164SOL    HW119028   3.318   2.991  11.661
 6164SOL    HW219029   3.187   3.066  11.662
 6165SOL     OW19030   2.412   2.054  12.064
 6165SOL    HW119031   2.408   2.072  12.158
 6165SOL    HW219032   2.430   2.138  12.023
 6166SOL     OW19033   2.866   3.307  11.643
 6166SOL    HW119034   2.829   3.380  11.594
 6166SOL    HW219035   2.847   3.326  11.735
 6167SOL     OW19036   2.213   3.672  12.012
 6167SOL    HW119037   2.263   3.593  12.030
 6167SOL    HW219038   2.273   3.744  12.034
 6168SOL     OW19039   3.667   2.923  12.039
 6168SOL    HW119040   3.613   2.898  11.964
 6168SOL    HW219041   3.605   2.926  12.112
 6169SOL     OW19042   3.089   3.399  12.684
 6169SOL    HW119043   3.076   3.327  12.745
 6169SOL    HW219044   3.023   3.386  12.616
 6170SOL     OW19045   2.181   2.820  11.424
 6170SOL    HW119046   2.263   2.840  11.378
 6170SOL    HW219047   2.150   2.739  11.384
 6171SOL     OW19048   3.341   2.607  11.898
 6171SOL    HW119049   3.334   2.564  11.984
 6171SOL    HW219050   3.419   2.662  11.905
 6172SOL     OW19051   2.329   3.127  12.909
 6172SOL    HW119052   2.302   3.132  12.817
 6172SOL    HW219053   2.247   3.125  12.958
 6173SOL     OW19054   2.976   3.643  11.394
 6173SOL    HW119055   2.912   3.597  11.449
 6173SOL    HW219056   3.006   3.578  11.331
 6174SOL     OW19057   3.487   3.246  11.261
 6174SOL    HW119058   3.444   3.330  11.243
 6174SOL    HW219059   3.420   3.180  11.241
 6175SOL     OW19060   2.330   3.597  11.497
 6175SOL    HW119061   2.367   3.662  11.556
 6175SOL    HW219062   2.402   3.572  11.440
 6176SOL     OW19063   3.263   1.970  11.607
 6176SOL    HW119064   3.255   1.944  11.515
 6176SOL    HW219065   3.357   1.975  11.622
 6177SOL     OW19066   2.122   3.654  12.397
 6177SOL    HW119067   2.169   3.585  12.443
 6177SOL    HW219068   2.107   3.618  12.309
 6178SOL     OW19069   2.800   3.562  12.072
 6178SOL    HW119070   2.877   3.510  12.094
 6178SOL    HW219071   2.756   3.513  12.003
 6179SOL     OW19072   2.256   2.557  11.647
 6179SOL    HW119073   2.275   2.464  11.658
 6179SOL    HW219074   2.162   2.565  11.665
 6180SOL     OW19075   3.396   2.087  12.897
 6180SOL    HW119076   3.406   2.107  12.990
 6180SOL    HW219077   3.328   2.020  12.895
 6181SOL     OW19078   2.512   1.984  11.282
 6181SOL    HW119079   2.572   1.911  11.295
 6181SOL    HW219080   2.453   1.954  11.213
 6182SOL     OW19081   2.627   2.140  12.927
 6182SOL    HW119082   2.705   2.084  12.926
 6182SOL    HW219083   2.578   2.111  13.004
 6183SOL     OW19084   2.738   3.383  12.367
 6183SOL    HW119085   2.722   3.347  12.279
 6183SOL    HW219086   2.808   3.328  12.402
 6184SOL     OW19087   3.202   2.451  12.605
 6184SOL    HW119088   3.233   2.420  12.690
 6184SOL    HW219089   3.238   2.539  12.597
 6185SOL     OW19090   2.678   3.255  12.113
 6185SOL    HW119091   2.762   3.243  12.070
 6185SOL    HW219092   2.614   3.258  12.042
 6186SOL     OW19093   2.789   2.370  12.074
 6186SOL    HW119094   2.765   2.362  11.982
 6186SOL    HW219095   2.822   2.284  12.098
 6187SOL     OW19096   2.408   1.928  11.676
 6187SOL    HW119097   2.347   1.941  11.749
 6187SOL    HW219098   2.394   2.004  11.620
 6188SOL     OW19099   3.290   3.061  11.213
 6188SOL    HW119100   3.321   2.986  11.263
 6188SOL    HW219101   3.204   3.082  11.250
 6189SOL     OW19102   2.801   2.110  11.631
 6189SOL    HW119103   2.776   2.150  11.547
 6189SOL    HW219104   2.896   2.123  11.636
 6190SOL     OW19105   2.943   2.544  12.631
 6190SOL    HW119106   2.876   2.476  12.636
 6190SOL    HW219107   3.025   2.496  12.625
 6191SOL     OW19108   3.084   3.432  11.966
 6191SOL    HW119109   3.100   3.500  11.900
 6191SOL    HW219110   3.153   3.444  12.030
 6192SOL     OW19111   2.332   3.013  11.903
 6192SOL    HW119112   2.263   2.994  11.967
 6192SOL    HW219113   2.291   2.997  11.818
 6193SOL     OW19114   3.129   3.657  11.779
 6193SOL    HW119115   3.175   3.722  11.726
 6193SOL    HW219116   3.057   3.706  11.819
 6194SOL     OW19117   2.885   2.402  11.195
 6194SOL    HW119118   2.842   2.485  11.176
 6194SOL    HW219119   2.951   2.423  11.262
 6195SOL     OW19120   1.938   2.423  12.558
 6195SOL    HW119121   2.032   2.419  12.536
 6195SOL    HW219122   1.933   2.488  12.628
 6196SOL     OW19123   2.411   2.082  12.341
 6196SOL    HW119124   2.461   2.006  12.369
 6196SOL    HW219125   2.330   2.077  12.391
 6197SOL     OW19126   2.726   2.319  11.812
 6197SOL    HW119127   2.685   2.376  11.746
 6197SOL    HW219128   2.751   2.240  11.763
 6198SOL     OW19129   2.875   1.917  11.923
 6198SOL    HW119130   2.820   1.908  11.846
 6198SOL    HW219131   2.854   1.840  11.977
 6199SOL     OW19132   3.300   3.024  12.029
 6199SOL    HW119133   3.230   2.959  12.028
 6199SOL    HW219134   3.325   3.034  11.937
 6200SOL     OW19135   3.327   2.470  12.147
 6200SOL    HW119136   3.276   2.389  12.149
 6200SOL    HW219137   3.386   2.463  12.221
 6201SOL     OW19138   3.723   2.679  11.547
 6201SOL    HW119139   3.767   2.623  11.611
 6201SOL    HW219140   3.686   2.618  11.483
 6202SOL     OW19141   2.352   3.280  11.327
 6202SOL    HW119142   2.277   3.252  11.379
 6202SOL    HW219143   2.339   3.239  11.241
 6203SOL     OW19144   3.529   3.127  11.816
 6203SOL    HW119145   3.624   3.130  11.826
 6203SOL    HW219146   3.500   3.216  11.838
 6204SOL     OW19147   3.256   2.434  11.244
 6204SOL    HW119148   3.194   2.414  11.314
 6204SOL    HW219149   3.340   2.401  11.276
 6205SOL     OW19150   2.386   2.127  11.489
 6205SOL    HW119151   2.431   2.075  11.423
 6205SOL    HW219152   2.363   2.209  11.444
 6206SOL     OW19153   3.613   3.097  12.739
 6206SOL    HW119154   3.701   3.061  12.722
 6206SOL    HW219155   3.630   3.186  12.770
 6207SOL     OW19156   2.919   3.214  12.504
 6207SOL    HW119157   2.844   3.184  12.556
 6207SOL    HW219158   2.995   3.174  12.546
 6208SOL     OW19159   3.469   3.491  12.828
 6208SOL    HW119160   3.460   3.524  12.738
 6208SOL    HW219161   3.550   3.440  12.827
 6209SOL     OW19162   2.992   3.067  12.276
 6209SOL    HW119163   2.934   3.105  12.341
 6209SOL    HW219164   2.960   3.100  12.192
 6210SOL     OW19165   3.491   2.959  12.247
 6210SOL    HW119166   3.483   3.020  12.320
 6210SOL    HW219167   3.414   2.975  12.194
 6211SOL     OW19168   2.780   1.959  12.566
 6211SOL    HW119169   2.803   1.939  12.476
 6211SOL    HW219170   2.859   1.998  12.604
 6212SOL     OW19171   2.846   2.977  12.895
 6212SOL    HW119172   2.754   2.993  12.917
 6212SOL    HW219173   2.844   2.899  12.840
 6213SOL     OW19174   2.571   2.924  11.543
 6213SOL    HW119175   2.557   2.905  11.636
 6213SOL    HW219176   2.647   2.870  11.519
 6214SOL     OW19177   2.281   2.676  12.423
 6214SOL    HW119178   2.348   2.688  12.489
 6214SOL    HW219179   2.246   2.588  12.439
 6215SOL     OW19180   3.127   2.238  12.449
 6215SOL    HW119181   3.160   2.316  12.495
 6215SOL    HW219182   3.037   2.260  12.427
 6216SOL     OW19183   1.934   3.435  12.525
 6216SOL    HW119184   1.906   3.510  12.473
 6216SOL    HW219185   2.029   3.437  12.521
 6217SOL     OW19186   2.208   2.974  11.662
 6217SOL    HW119187   2.213   3.047  11.601
 6217SOL    HW219188   2.205   2.896  11.606
 6218SOL     OW19189   2.409   2.397  12.033
 6218SOL    HW119190   2.423   2.455  11.959
 6218SOL    HW219191   2.476   2.423  12.097
 6219SOL     OW19192   3.110   3.211  11.561
 6219SOL    HW119193   3.166   3.282  11.593
 6219SOL    HW219194   3.023   3.232  11.595
 6220SOL     OW19195   3.145   3.321  12.320
 6220SOL    HW119196   3.201   3.325  12.397
 6220SOL    HW219197   3.090   3.244  12.333
 6221SOL     OW19198   3.441   2.483  11.653
 6221SOL    HW119199   3.394   2.536  11.717
 6221SOL    HW219200   3.484   2.546  11.596
 6222SOL     OW19201   2.208   3.391  12.485
 6222SOL    HW119202   2.196   3.347  12.401
 6222SOL    HW219203   2.302   3.402  12.493
 6223SOL     OW19204   2.276   2.609  12.775
 6223SOL    HW119205   2.339   2.652  12.716
 6223SOL    HW219206   2.318   2.526  12.799
 6224SOL     OW19207   3.465   2.640  12.854
 6224SOL    HW119208   3.380   2.683  12.848
 6224SOL    HW219209   3.518   2.683  12.787
 6225SOL     OW19210   2.857   1.988  12.924
 6225SOL    HW119211   2.915   2.060  12.900
 6225SOL    HW219212   2.905   1.909  12.900
 6226SOL     OW19213   2.371   1.906  12.923
 6226SOL    HW119214   2.315   1.855  12.865
 6226SOL    HW219215   2.328   1.992  12.928
 6227SOL     OW19216   2.446   2.735  12.204
 6227SOL    HW119217   2.478   2.825  12.203
 6227SOL    HW219218   2.390   2.730  12.281
 6228SOL     OW19219   3.217   2.721  12.199
 6228SOL    HW119220   3.134   2.709  12.154
 6228SOL    HW219221   3.260   2.636  12.193
 6229SOL     OW19222   3.065   2.390  11.437
 6229SOL    HW119223   3.073   2.312  11.491
 6229SOL    HW219224   3.022   2.454  11.494
 6230SOL     OW19225   1.908   3.173  12.447
 6230SOL    HW119226   1.941   3.118  12.519
 6230SOL    HW219227   1.914   3.262  12.481
 6231SOL     OW19228   2.582   2.490  12.227
 6231SOL    HW119229   2.660   2.475  12.173
 6231SOL    HW219230   2.556   2.580  12.209
 6232SOL     OW19231   3.593   2.820  13.032
 6232SOL    HW119232   3.551   2.758  12.973
 6232SOL    HW219233   3.529   2.834  13.103
 6233SOL     OW19234   3.480   2.238  11.537
 6233SOL    HW119235   3.507   2.173  11.602
 6233SOL    HW219236   3.457   2.315  11.588
 6234SOL     OW19237   2.889   2.620  12.132
 6234SOL    HW119238   2.885   2.638  12.226
 6234SOL    HW219239   2.864   2.528  12.123
 6235SOL     OW19240   2.847   3.430  12.892
 6235SOL    HW119241   2.829   3.471  12.807
 6235SOL    HW219242   2.889   3.347  12.869
 6236SOL     OW19243   3.706   3.362  12.771
 6236SOL    HW119244   3.729   3.391  12.682
 6236SOL    HW219245   3.786   3.374  12.822
 6237SOL     OW19246   2.214   2.779  12.983
 6237SOL    HW119247   2.297   2.797  13.027
 6237SOL    HW219248   2.238   2.717  12.913
 6238SOL     OW19249   3.391   2.135  11.299
 6238SOL    HW119250   3.326   2.070  11.325
 6238SOL    HW219251   3.424   2.170  11.382
 6239SOL     OW19252   3.152   2.687  11.202
 6239SOL    HW119253   3.195   2.602  11.206
 6239SOL    HW219254   3.184   2.727  11.121
 6240SOL     OW19255   2.928   3.198  12.026
 6240SOL    HW119256   2.932   3.126  11.964
 6240SOL    HW219257   2.989   3.263  11.991
 6241SOL     OW19258   2.172   2.672  12.118
 6241SOL    HW119259   2.264   2.695  12.110
 6241SOL    HW219260   2.171   2.585  12.157
 6242SOL     OW19261   2.186   2.366  12.182
 6242SOL    HW119262   2.145   2.293  12.134
 6242SOL    HW219263   2.267   2.383  12.133
 6243SOL     OW19264   2.996   2.237  12.854
 6243SOL    HW119265   2.948   2.292  12.917
 6243SOL    HW219266   3.083   2.276  12.851
 6244SOL     OW19267   3.022   2.064  12.642
 6244SOL    HW119268   3.012   2.126  12.714
 6244SOL    HW219269   3.064   2.114  12.572
 6245SOL     OW19270   1.867   3.182  11.367
 6245SOL    HW119271   1.780   3.196  11.330
 6245SOL    HW219272   1.864   3.092  11.401
 6246SOL     OW19273   1.958   3.642  12.109
 6246SOL    HW119274   1.927   3.563  12.065
 6246SOL    HW219275   2.043   3.660  12.070
 6247SOL     OW19276   2.357   3.437  12.077
 6247SOL    HW119277   2.424   3.500  12.102
 6247SOL    HW219278   2.402   3.375  12.021
 6248SOL     OW19279   2.842   2.652  12.398
 6248SOL    HW119280   2.901   2.631  12.470
 6248SOL    HW219281   2.757   2.617  12.425
 6249SOL     OW19282   1.901   2.396  12.289
 6249SOL    HW119283   1.986   2.401  12.245
 6249SOL    HW219284   1.921   2.409  12.382
 6250SOL     OW19285   2.067   2.381  12.904
 6250SOL    HW119286   2.119   2.354  12.828
 6250SOL    HW219287   2.003   2.443  12.868
 6251SOL     OW19288   3.241   2.800  12.830
 6251SOL    HW119289   3.262   2.893  12.828
 6251SOL    HW219290   3.237   2.773  12.738
 6252SOL     OW19291   2.678   2.432  11.537
 6252SOL    HW119292   2.685   2.358  11.476
 6252SOL    HW219293   2.605   2.483  11.503
 6253SOL     OW19294   3.502   2.464  12.357
 6253SOL    HW119295   3.491   2.403  12.430
 6253SOL    HW219296   3.588   2.442  12.320
 6254SOL     OW19297   2.105   3.412  12.898
 6254SOL    HW119298   2.082   3.478  12.963
 6254SOL    HW219299   2.108   3.329  12.947
 6255SOL     OW19300   2.563   2.310  12.430
 6255SOL    HW119301   2.509   2.237  12.400
 6255SOL    HW219302   2.559   2.373  12.359
 6256SOL     OW19303   2.790   3.534  12.641
 6256SOL    HW119304   2.763   3.497  12.557
 6256SOL    HW219305   2.782   3.629  12.629
 6257SOL     OW19306   2.326   2.355  11.351
 6257SOL    HW119307   2.384   2.426  11.377
 6257SOL    HW219308   2.239   2.395  11.343
 6258SOL     OW19309   2.007   3.003  12.645
 6258SOL    HW119310   2.008   2.952  12.726
 6258SOL    HW219311   2.025   2.939  12.576
 6259SOL     OW19312   3.185   2.907  12.394
 6259SOL    HW119313   3.209   2.844  12.326
 6259SOL    HW219314   3.117   2.961  12.355
 6260SOL     OW19315   3.174   2.718  11.478
 6260SOL    HW119316   3.099   2.688  11.528
 6260SOL    HW219317   3.149   2.704  11.386
 6261SOL     OW19318   3.638   3.604  12.325
 6261SOL    HW119319   3.696   3.630  12.254
 6261SOL    HW219320   3.611   3.515  12.303
 6262SOL     OW19321   3.106   3.596  12.282
 6262SOL    HW119322   3.188   3.616  12.239
 6262SOL    HW219323   3.111   3.502  12.302
 6263SOL     OW19324   1.947   3.129  12.183
 6263SOL    HW119325   1.932   3.142  12.277
 6263SOL    HW219326   1.873   3.074  12.155
 6264SOL     OW19327   2.540   3.526  12.903
 6264SOL    HW119328   2.484   3.603  12.907
 6264SOL    HW219329   2.601   3.544  12.831
 6265SOL     OW19330   3.573   2.011  11.684
 6265SOL    HW119331   3.641   1.998  11.618
 6265SOL    HW219332   3.562   1.924  11.724
 6266SOL     OW19333   3.252   3.430  11.659
 6266SOL    HW119334   3.311   3.464  11.591
 6266SOL    HW219335   3.204   3.508  11.689
 6267SOL     OW19336   1.995   3.653  13.011
 6267SOL    HW119337   1.943   3.589  13.060
 6267SOL    HW219338   2.045   3.700  13.078
 6268SOL     OW19339   3.139   2.788  11.843
 6268SOL    HW119340   3.213   2.728  11.851
 6268SOL    HW219341   3.173   2.860  11.790
 6269SOL     OW19342   2.674   3.136  12.600
 6269SOL    HW119343   2.646   3.175  12.683
 6269SOL    HW219344   2.604   3.158  12.538
 6270SOL     OW19345   2.537   3.479  11.329
 6270SOL    HW119346   2.546   3.496  11.236
 6270SOL    HW219347   2.478   3.403  11.334
 6271SOL     OW19348   3.483   3.588  12.562
 6271SOL    HW119349   3.537   3.592  12.483
 6271SOL    HW219350   3.470   3.680  12.587
 6272SOL     OW19351   3.700   2.043  12.140
 6272SOL    HW119352   3.731   1.956  12.114
 6272SOL    HW219353   3.613   2.051  12.099
 6273SOL     OW19354   3.069   3.467  11.207
 6273SOL    HW119355   3.059   3.375  11.232
 6273SOL    HW219356   3.008   3.479  11.135
 6274SOL     OW19357   2.686   2.868  12.544
 6274SOL    HW119358   2.730   2.864  12.460
 6274SOL    HW219359   2.684   2.961  12.566
 6275SOL     OW19360   2.778   2.772  11.462
 6275SOL    HW119361   2.839   2.805  11.396
 6275SOL    HW219362   2.827   2.704  11.508
 6276SOL     OW19363   3.351   3.493  11.214
 6276SOL    HW119364   3.257   3.481  11.198
 6276SOL    HW219365   3.390   3.497  11.127
 6277SOL     OW19366   2.231   3.165  12.663
 6277SOL    HW119367   2.217   3.242  12.608
 6277SOL    HW219368   2.154   3.111  12.648
 6278SOL     OW19369   3.464   3.142  12.450
 6278SOL    HW119370   3.532   3.134  12.517
 6278SOL    HW219371   3.407   3.212  12.482
 6279SOL     OW19372   2.916   2.970  11.879
 6279SOL    HW119373   2.845   2.919  11.918
 6279SOL    HW219374   2.980   2.904  11.850
 6280SOL     OW19375   2.883   2.102  12.138
 6280SOL    HW119376   2.879   2.055  12.055
 6280SOL    HW219377   2.879   2.034  12.205
 6281SOL     OW19378   2.466   3.352  11.652
 6281SOL    HW119379   2.511   3.301  11.585
 6281SOL    HW219380   2.397   3.399  11.604
 6282SOL     OW19381   3.586   2.252  12.551
 6282SOL    HW119382   3.657   2.315  12.547
 6282SOL    HW219383   3.614   2.180  12.495
 6283SOL     OW19384   2.122   3.206  11.461
 6283SOL    HW119385   2.029   3.203  11.438
 6283SOL    HW219386   2.124   3.244  11.549
 6284SOL     OW19387   1.974   2.885  12.891
 6284SOL    HW119388   1.898   2.862  12.944
 6284SOL    HW219389   2.049   2.847  12.939
 6285SOL     OW19390   2.538   2.060  12.671
 6285SOL    HW119391   2.622   2.038  12.631
 6285SOL    HW219392   2.560   2.090  12.759
 6286SOL     OW19393   3.289   2.720  12.572
 6286SOL    HW119394   3.240   2.782  12.517
 6286SOL    HW219395   3.378   2.722  12.535
 6287SOL     OW19396   3.040   3.200  11.289
 6287SOL    HW119397   2.949   3.170  11.291
 6287SOL    HW219398   3.067   3.199  11.381
 6288SOL     OW19399   2.481   2.692  12.605
 6288SOL    HW119400   2.537   2.769  12.591
 6288SOL    HW219401   2.543   2.619  12.613
 6289SOL     OW19402   3.347   3.643  12.154
 6289SOL    HW119403   3.371   3.696  12.078
 6289SOL    HW219404   3.430   3.613  12.190
 6290SOL     OW19405   2.579   2.423  12.874
 6290SOL    HW119406   2.620   2.485  12.934
 6290SOL    HW219407   2.603   2.337  12.908
 6291SOL     OW19408   3.334   3.061  12.803
 6291SOL    HW119409   3.323   3.074  12.897
 6291SOL    HW219410   3.427   3.076  12.787
 6292SOL     OW19411   2.238   3.602  12.736
 6292SOL    HW119412   2.153   3.643  12.721
 6292SOL    HW219413   2.217   3.518  12.778
 6293SOL     OW19414   3.527   2.743  12.431
 6293SOL    HW119415   3.526   2.657  12.388
 6293SOL    HW219416   3.521   2.806  12.359
 6294SOL     OW19417   3.078   2.181  11.630
 6294SOL    HW119418   3.141   2.109  11.622
 6294SOL    HW219419   3.108   2.230  11.706
 6295SOL     OW19420   2.448   2.598  11.844
 6295SOL    HW119421   2.490   2.683  11.830
 6295SOL    HW219422   2.383   2.591  11.775
 6296SOL     OW19423   3.622   2.228  12.822
 6296SOL    HW119424   3.605   2.240  12.729
 6296SOL    HW219425   3.552   2.169  12.851
 6297SOL     OW19426   3.617   2.791  12.685
 6297SOL    HW119427   3.609   2.885  12.702
 6297SOL    HW219428   3.594   2.781  12.593
 6298SOL     OW19429   2.725   3.229  11.209
 6298SOL    HW119430   2.685   3.257  11.291
 6298SOL    HW219431   2.741   3.311  11.161
 6299SOL     OW19432   2.522   3.652  12.113
 6299SOL    HW119433   2.501   3.743  12.091
 6299SOL    HW219434   2.618   3.647  12.107
 6300SOL     OW19435   2.730   2.830  12.027
 6300SOL    HW119436   2.780   2.758  12.066
 6300SOL    HW219437   2.694   2.878  12.102
 6301SOL     OW19438   2.940   2.850  11.261
 6301SOL    HW119439   2.919   2.901  11.183
 6301SOL    HW219440   3.015   2.796  11.234
 6302SOL     OW19441   3.713   3.417  12.013
 6302SOL    HW119442   3.634   3.398  11.963
 6302SOL    HW219443   3.716   3.350  12.081
 6303SOL     OW19444   2.088   3.164  13.028
 6303SOL    HW119445   2.021   3.103  12.997
 6303SOL    HW219446   2.068   3.177  13.120
 6304SOL     OW19447   1.947   3.094  11.837
 6304SOL    HW119448   1.954   3.047  11.920
 6304SOL    HW219449   2.015   3.055  11.782
 6305SOL     OW19450   2.544   3.266  12.801
 6305SOL    HW119451   2.465   3.223  12.832
 6305SOL    HW219452   2.541   3.354  12.838
 6306SOL     OW19453   3.675   2.041  12.411
 6306SOL    HW119454   3.668   1.946  12.414
 6306SOL    HW219455   3.689   2.061  12.318
 6307SOL     OW19456   2.293   2.294  11.695
 6307SOL    HW119457   2.324   2.232  11.629
 6307SOL    HW219458   2.247   2.240  11.759
 6308SOL     OW19459   3.559   3.352  12.269
 6308SOL    HW119460   3.480   3.327  12.221
 6308SOL    HW219461   3.571   3.281  12.332
 6309SOL     OW19462   2.193   2.417  12.460
 6309SOL    HW119463   2.238   2.355  12.518
 6309SOL    HW219464   2.209   2.382  12.372
 6310SOL     OW19465   2.690   3.440  11.849
 6310SOL    HW119466   2.674   3.491  11.769
 6310SOL    HW219467   2.615   3.381  11.855
 6311SOL     OW19468   3.293   2.089  12.289
 6311SOL    HW119469   3.315   2.007  12.333
 6311SOL    HW219470   3.242   2.138  12.354
 6312SOL     OW19471   2.871   1.879  12.313
 6312SOL    HW119472   2.817   1.812  12.272
 6312SOL    HW219473   2.959   1.842  12.315
 6313SOL     OW19474   2.634   3.194  11.490
 6313SOL    HW119475   2.604   3.104  11.495
 6313SOL    HW219476   2.717   3.195  11.538
 6314SOL     OW19477   2.482   3.416  12.457
 6314SOL    HW119478   2.483   3.497  12.507
 6314SOL    HW219479   2.570   3.409  12.419
 6315SOL     OW19480   3.216   1.915  11.338
 6315SOL    HW119481   3.245   1.848  11.277
 6315SOL    HW219482   3.128   1.887  11.363
 6316SOL     OW19483   3.157   2.323  11.852
 6316SOL    HW119484   3.105   2.403  11.859
 6316SOL    HW219485   3.154   2.285  11.939
 6317SOL     OW19486   3.444   2.061  12.049
 6317SOL    HW119487   3.387   2.085  12.123
 6317SOL    HW219488   3.446   2.140  11.994
 6318SOL     OW19489   1.905   2.931  11.479
 6318SOL    HW119490   1.999   2.924  11.461
 6318SOL    HW219491   1.877   2.843  11.501
 6319SOL     OW19492   2.748   3.520  11.515
 6319SOL    HW119493   2.677   3.500  11.454
 6319SOL    HW219494   2.716   3.595  11.565
 6320SOL     OW19495   2.085   2.477  13.161
 6320SOL    HW119496   1.995   2.483  13.192
 6320SOL    HW219497   2.078   2.450  13.070
 6321SOL     OW19498   1.878   2.272  13.651
 6321SOL    HW119499   1.789   2.285  13.686
 6321SOL    HW219500   1.865   2.217  13.574
 6322SOL     OW19501   3.387   3.359  13.727
 6322SOL    HW119502   3.331   3.293  13.768
 6322SOL    HW219503   3.343   3.381  13.645
 6323SOL     OW19504   2.990   2.561  13.732
 6323SOL    HW119505   3.044   2.638  13.709
 6323SOL    HW219506   2.943   2.588  13.811
 6324SOL     OW19507   3.638   2.466  13.261
 6324SOL    HW119508   3.614   2.459  13.169
 6324SOL    HW219509   3.594   2.392  13.303
 6325SOL     OW19510   2.546   2.872  13.672
 6325SOL    HW119511   2.600   2.852  13.748
 6325SOL    HW219512   2.472   2.921  13.708
 6326SOL     OW19513   3.485   2.323  13.755
 6326SOL    HW119514   3.397   2.315  13.717
 6326SOL    HW219515   3.479   2.397  13.815
 6327SOL     OW19516   2.084   3.579  13.518
 6327SOL    HW119517   2.120   3.627  13.592
 6327SOL    HW219518   2.155   3.578  13.453
 6328SOL     OW19519   2.093   3.303  13.569
 6328SOL    HW119520   2.073   3.397  13.574
 6328SOL    HW219521   2.033   3.263  13.632
 6329SOL     OW19522   2.103   2.970   0.027
 6329SOL    HW119523   2.122   2.906   0.096
 6329SOL    HW219524   2.033   3.024   0.063
 6330SOL     OW19525   2.446   2.844  13.168
 6330SOL    HW119526   2.492   2.892  13.099
 6330SOL    HW219527   2.484   2.876  13.250
 6331SOL     OW19528   1.980   2.525  13.591
 6331SOL    HW119529   1.950   2.436  13.609
 6331SOL    HW219530   1.967   2.572  13.673
 6332SOL     OW19531   3.699   3.614  13.374
 6332SOL    HW119532   3.770   3.587  13.432
 6332SOL    HW219533   3.717   3.705  13.353
 6333SOL     OW19534   1.890   3.454  13.156
 6333SOL    HW119535   1.876   3.362  13.178
 6333SOL    HW219536   1.871   3.501  13.237
 6334SOL     OW19537   3.548   2.778  13.669
 6334SOL    HW119538   3.635   2.745  13.649
 6334SOL    HW219539   3.525   2.834  13.595
 6335SOL     OW19540   3.504   2.966  13.462
 6335SOL    HW119541   3.588   2.971  13.418
 6335SOL    HW219542   3.511   3.030  13.534
 6336SOL     OW19543   2.468   3.246  13.760
 6336SOL    HW119544   2.424   3.161  13.768
 6336SOL    HW219545   2.445   3.277  13.672
 6337SOL     OW19546   2.675   1.863  13.543
 6337SOL    HW119547   2.715   1.947  13.522
 6337SOL    HW219548   2.581   1.881  13.551
 6338SOL     OW19549   3.390   2.856  13.234
 6338SOL    HW119550   3.320   2.799  13.267
 6338SOL    HW219551   3.430   2.893  13.313
 6339SOL     OW19552   3.512   3.599  13.614
 6339SOL    HW119553   3.498   3.569  13.524
 6339SOL    HW219554   3.507   3.519  13.667
 6340SOL     OW19555   2.454   2.581  13.299
 6340SOL    HW119556   2.460   2.663  13.250
 6340SOL    HW219557   2.389   2.599  13.367
 6341SOL     OW19558   3.120   2.191   0.047
 6341SOL    HW119559   3.040   2.144   0.070
 6341SOL    HW219560   3.190   2.142   0.090
 6342SOL     OW19561   3.437   3.540  13.340
 6342SOL    HW119562   3.529   3.564  13.337
 6342SOL    HW219563   3.414   3.518  13.250
 6343SOL     OW19564   2.911   2.558  13.459
 6343SOL    HW119565   2.926   2.548  13.553
 6343SOL    HW219566   2.829   2.512  13.443
 6344SOL     OW19567   1.946   2.686  13.808
 6344SOL    HW119568   2.024   2.675  13.863
 6344SOL    HW219569   1.900   2.760  13.846
 6345SOL     OW19570   2.757   2.213  13.231
 6345SOL    HW119571   2.799   2.272  13.168
 6345SOL    HW219572   2.759   2.127  13.188
 6346SOL     OW19573   3.225   2.997  13.554
 6346SOL    HW119574   3.315   2.995  13.520
 6346SOL    HW219575   3.183   3.068  13.506
 6347SOL     OW19576   2.864   3.304  13.503
 6347SOL    HW119577   2.829   3.379  13.455
 6347SOL    HW219578   2.834   3.316  13.593
 6348SOL     OW19579   2.254   3.665  13.802
 6348SOL    HW119580   2.216   3.593  13.853
 6348SOL    HW219581   2.313   3.709  13.863
 6349SOL     OW19582   3.651   2.917  13.899
 6349SOL    HW119583   3.594   2.905  13.823
 6349SOL    HW219584   3.592   2.910   0.074
 6350SOL     OW19585   2.181   2.821  13.287
 6350SOL    HW119586   2.262   2.840  13.239
 6350SOL    HW219587   2.150   2.739  13.248
 6351SOL     OW19588   3.350   2.595  13.745
 6351SOL    HW119589   3.340   2.554  13.831
 6351SOL    HW219590   3.423   2.656  13.757
 6352SOL     OW19591   2.975   3.644  13.256
 6352SOL    HW119592   2.913   3.597  13.311
 6352SOL    HW219593   3.006   3.578  13.193
 6353SOL     OW19594   3.487   3.246  13.122
 6353SOL    HW119595   3.444   3.330  13.105
 6353SOL    HW219596   3.420   3.180  13.103
 6354SOL     OW19597   2.329   3.596  13.357
 6354SOL    HW119598   2.366   3.660  13.418
 6354SOL    HW219599   2.402   3.572  13.301
 6355SOL     OW19600   3.264   1.974  13.466
 6355SOL    HW119601   3.255   1.946  13.375
 6355SOL    HW219602   3.359   1.975  13.481
 6356SOL     OW19603   2.794   3.548   0.010
 6356SOL    HW119604   2.812   3.481   0.075
 6356SOL    HW219605   2.749   3.501  13.839
 6357SOL     OW19606   2.252   2.565  13.506
 6357SOL    HW119607   2.269   2.471  13.512
 6357SOL    HW219608   2.159   2.574  13.524
 6358SOL     OW19609   2.512   1.985  13.142
 6358SOL    HW119610   2.572   1.912  13.156
 6358SOL    HW219611   2.453   1.954  13.073
 6359SOL     OW19612   2.408   1.926  13.538
 6359SOL    HW119613   2.342   1.935  13.607
 6359SOL    HW219614   2.394   2.002  13.481
 6360SOL     OW19615   3.290   3.061  13.075
 6360SOL    HW119616   3.320   2.985  13.125
 6360SOL    HW219617   3.204   3.082  13.112
 6361SOL     OW19618   2.801   2.107  13.493
 6361SOL    HW119619   2.775   2.149  13.411
 6361SOL    HW219620   2.895   2.122  13.499
 6362SOL     OW19621   2.326   3.005  13.770
 6362SOL    HW119622   2.253   2.993  13.831
 6362SOL    HW219623   2.287   2.993  13.684
 6363SOL     OW19624   3.131   3.660  13.629
 6363SOL    HW119625   3.176   3.728  13.578
 6363SOL    HW219626   3.063   3.707  13.677
 6364SOL     OW19627   2.885   2.402  13.057
 6364SOL    HW119628   2.842   2.485  13.038
 6364SOL    HW219629   2.950   2.423  13.124
 6365SOL     OW19630   2.756   2.332  13.670
 6365SOL    HW119631   2.692   2.380  13.617
 6365SOL    HW219632   2.764   2.247  13.626
 6366SOL     OW19633   2.886   1.901  13.776
 6366SOL    HW119634   2.829   1.910  13.701
 6366SOL    HW219635   2.858   1.821  13.820
 6367SOL     OW19636   3.728   2.677  13.410
 6367SOL    HW119637   3.776   2.622  13.472
 6367SOL    HW219638   3.691   2.616  13.346
 6368SOL     OW19639   2.353   3.280  13.189
 6368SOL    HW119640   2.277   3.252  13.241
 6368SOL    HW219641   2.339   3.239  13.104
 6369SOL     OW19642   3.539   3.131  13.666
 6369SOL    HW119643   3.633   3.134  13.684
 6369SOL    HW219644   3.506   3.214  13.701
 6370SOL     OW19645   3.256   2.433  13.105
 6370SOL    HW119646   3.194   2.415  13.176
 6370SOL    HW219647   3.340   2.401  13.138
 6371SOL     OW19648   2.389   2.124  13.353
 6371SOL    HW119649   2.433   2.075  13.284
 6371SOL    HW219650   2.363   2.206  13.311
 6372SOL     OW19651   2.571   2.925  13.400
 6372SOL    HW119652   2.556   2.909  13.494
 6372SOL    HW219653   2.647   2.871  13.378
 6373SOL     OW19654   2.211   2.973  13.525
 6373SOL    HW119655   2.213   3.048  13.465
 6373SOL    HW219656   2.207   2.897  13.468
 6374SOL     OW19657   2.446   2.393  13.856
 6374SOL    HW119658   2.449   2.468  13.796
 6374SOL    HW219659   2.487   2.426   0.036
 6375SOL     OW19660   3.108   3.214  13.418
 6375SOL    HW119661   3.163   3.287  13.447
 6375SOL    HW219662   3.021   3.234  13.454
 6376SOL     OW19663   3.443   2.487  13.501
 6376SOL    HW119664   3.401   2.527  13.577
 6376SOL    HW219665   3.478   2.560  13.450
 6377SOL     OW19666   3.064   2.390  13.299
 6377SOL    HW119667   3.072   2.312  13.353
 6377SOL    HW219668   3.021   2.454  13.355
 6378SOL     OW19669   3.481   2.237  13.399
 6378SOL    HW119670   3.505   2.174  13.466
 6378SOL    HW219671   3.458   2.316  13.447
 6379SOL     OW19672   3.391   2.135  13.161
 6379SOL    HW119673   3.326   2.070  13.188
 6379SOL    HW219674   3.424   2.170  13.244
 6380SOL     OW19675   3.151   2.687  13.063
 6380SOL    HW119676   3.195   2.602  13.067
 6380SOL    HW219677   3.184   2.727  12.982
 6381SOL     OW19678   1.868   3.182  13.228
 6381SOL    HW119679   1.781   3.197  13.191
 6381SOL    HW219680   1.864   3.093  13.263
 6382SOL     OW19681   2.677   2.434  13.392
 6382SOL    HW119682   2.683   2.358  13.333
 6382SOL    HW219683   2.602   2.483  13.359
 6383SOL     OW19684   2.326   2.352  13.209
 6383SOL    HW119685   2.384   2.423  13.236
 6383SOL    HW219686   2.239   2.392  13.204
 6384SOL     OW19687   3.176   2.714  13.338
 6384SOL    HW119688   3.099   2.688  13.389
 6384SOL    HW219689   3.150   2.702  13.247
 6385SOL     OW19690   3.576   2.010  13.548
 6385SOL    HW119691   3.643   1.998  13.480
 6385SOL    HW219692   3.564   1.922  13.585
 6386SOL     OW19693   3.245   3.436  13.508
 6386SOL    HW119694   3.305   3.472  13.443
 6386SOL    HW219695   3.200   3.512  13.545
 6387SOL     OW19696   3.149   2.776  13.685
 6387SOL    HW119697   3.226   2.720  13.671
 6387SOL    HW219698   3.172   2.859  13.644
 6388SOL     OW19699   2.537   3.479  13.191
 6388SOL    HW119700   2.546   3.496  13.097
 6388SOL    HW219701   2.478   3.403  13.196
 6389SOL     OW19702   3.682   2.022   0.085
 6389SOL    HW119703   3.696   1.934   0.049
 6389SOL    HW219704   3.588   2.036   0.079
 6390SOL     OW19705   2.108   2.289  13.807
 6390SOL    HW119706   2.058   2.271  13.728
 6390SOL    HW219707   2.143   2.204  13.833
 6391SOL     OW19708   3.070   3.467  13.069
 6391SOL    HW119709   3.059   3.375  13.093
 6391SOL    HW219710   3.008   3.480  12.997
 6392SOL     OW19711   2.781   2.774  13.328
 6392SOL    HW119712   2.840   2.805  13.259
 6392SOL    HW219713   2.827   2.701  13.369
 6393SOL     OW19714   3.351   3.492  13.076
 6393SOL    HW119715   3.257   3.481  13.060
 6393SOL    HW219716   3.389   3.497  12.988
 6394SOL     OW19717   2.912   2.953  13.754
 6394SOL    HW119718   2.826   2.913  13.742
 6394SOL    HW219719   2.966   2.913  13.687
 6395SOL     OW19720   2.462   3.353  13.507
 6395SOL    HW119721   2.507   3.303  13.440
 6395SOL    HW219722   2.395   3.402  13.459
 6396SOL     OW19723   2.122   3.205  13.324
 6396SOL    HW119724   2.029   3.203  13.301
 6396SOL    HW219725   2.124   3.244  13.411
 6397SOL     OW19726   3.040   3.200  13.149
 6397SOL    HW119727   2.949   3.170  13.152
 6397SOL    HW219728   3.067   3.200  13.241
 6398SOL     OW19729   3.078   2.181  13.491
 6398SOL    HW119730   3.141   2.110  13.481
 6398SOL    HW219731   3.109   2.230  13.567
 6399SOL     OW19732   2.451   2.610  13.692
 6399SOL    HW119733   2.488   2.696  13.674
 6399SOL    HW219734   2.380   2.601  13.628
 6400SOL     OW19735   2.725   3.229  13.071
 6400SOL    HW119736   2.685   3.256  13.153
 6400SOL    HW219737   2.741   3.311  13.023
 6401SOL     OW19738   2.513   3.713   0.066
 6401SOL    HW119739   2.509   3.807   0.084
 6401SOL    HW219740   2.604   3.689   0.078
 6402SOL     OW19741   2.690   2.826  13.895
 6402SOL    HW119742   2.722   2.744   0.032
 6402SOL    HW219743   2.716   2.893   0.059
 6403SOL     OW19744   2.939   2.849  13.123
 6403SOL    HW119745   2.918   2.901  13.045
 6403SOL    HW219746   3.014   2.796  13.096
 6404SOL     OW19747   1.953   3.094  13.699
 6404SOL    HW119748   1.947   3.037  13.776
 6404SOL    HW219749   2.020   3.052  13.644
 6405SOL     OW19750   2.279   2.302  13.547
 6405SOL    HW119751   2.322   2.229  13.503
 6405SOL    HW219752   2.291   2.284  13.640
 6406SOL     OW19753   3.542   3.324   0.344
 6406SOL    HW119754   3.511   3.296   0.258
 6406SOL    HW219755   3.627   3.283   0.354
 6407SOL     OW19756   2.680   3.413  13.709
 6407SOL    HW119757   2.656   3.464  13.632
 6407SOL    HW219758   2.603   3.358  13.726
 6408SOL     OW19759   2.634   3.195  13.348
 6408SOL    HW119760   2.604   3.105  13.355
 6408SOL    HW219761   2.717   3.196  13.397
 6409SOL     OW19762   3.215   1.915  13.199
 6409SOL    HW119763   3.245   1.848  13.138
 6409SOL    HW219764   3.127   1.887  13.225
 6410SOL     OW19765   3.166   2.322  13.712
 6410SOL    HW119766   3.111   2.400  13.719
 6410SOL    HW219767   3.152   2.276  13.795
 6411SOL     OW19768   1.906   2.932  13.340
 6411SOL    HW119769   2.000   2.923  13.322
 6411SOL    HW219770   1.878   2.843  13.361
 6412SOL     OW19771   2.748   3.519  13.378
 6412SOL    HW119772   2.676   3.501  13.317
 6412SOL    HW219773   2.717   3.594  13.429
 6413SOL     OW19774   2.094   3.983   0.985
 6413SOL    HW119775   2.117   3.963   1.075
 6413SOL    HW219776   2.003   3.953   0.976
 6414SOL     OW19777   1.877   0.063   0.711
 6414SOL    HW119778   1.800   0.110   0.679
 6414SOL    HW219779   1.908   0.013   0.636
 6415SOL     OW19780   3.660   0.359   0.254
 6415SOL    HW119781   3.636   0.307   0.178
 6415SOL    HW219782   3.581   0.362   0.307
 6416SOL     OW19783   2.301   0.096   1.506
 6416SOL    HW119784   2.373   0.054   1.460
 6416SOL    HW219785   2.225   0.042   1.485
 6417SOL     OW19786   3.459   3.849   1.461
 6417SOL    HW119787   3.461   3.936   1.420
 6417SOL    HW219788   3.445   3.868   1.554
 6418SOL     OW19789   2.668   3.727   0.505
 6418SOL    HW119790   2.696   3.818   0.496
 6418SOL    HW219791   2.573   3.732   0.515
 6419SOL     OW19792   3.130   0.062   0.936
 6419SOL    HW119793   3.058   0.007   0.905
 6419SOL    HW219794   3.185   0.002   0.987
 6420SOL     OW19795   2.416   3.904   0.891
 6420SOL    HW119796   2.410   3.925   0.984
 6420SOL    HW219797   2.411   3.990   0.848
 6421SOL     OW19798   2.053   3.983   1.490
 6421SOL    HW119799   1.999   0.062   1.497
 6421SOL    HW219800   2.016   3.923   1.554
 6422SOL     OW19801   3.270   3.840   0.427
 6422SOL    HW119802   3.263   3.798   0.342
 6422SOL    HW219803   3.360   3.822   0.455
 6423SOL     OW19804   3.398   3.939   1.724
 6423SOL    HW119805   3.423   3.942   1.816
 6423SOL    HW219806   3.330   3.872   1.720
 6424SOL     OW19807   2.635   3.959   1.744
 6424SOL    HW119808   2.688   3.929   1.818
 6424SOL    HW219809   2.548   3.975   1.782
 6425SOL     OW19810   2.396   3.783   0.513
 6425SOL    HW119811   2.346   3.782   0.595
 6425SOL    HW219812   2.406   3.876   0.492
 6426SOL     OW19813   2.134   3.744   0.210
 6426SOL    HW119814   2.166   3.830   0.184
 6426SOL    HW219815   2.213   3.695   0.234
 6427SOL     OW19816   2.420   3.943   1.168
 6427SOL    HW119817   2.462   3.870   1.214
 6427SOL    HW219818   2.328   3.940   1.196
 6428SOL     OW19819   2.882   3.768   0.737
 6428SOL    HW119820   2.817   3.756   0.668
 6428SOL    HW219821   2.859   3.702   0.803
 6429SOL     OW19822   2.785   3.804   1.399
 6429SOL    HW119823   2.813   3.783   1.310
 6429SOL    HW219824   2.858   3.852   1.437
 6430SOL     OW19825   3.128   0.076   1.265
 6430SOL    HW119826   3.141   0.144   1.331
 6430SOL    HW219827   3.060   0.111   1.207
 6431SOL     OW19828   2.370   3.749   1.755
 6431SOL    HW119829   2.315   3.704   1.692
 6431SOL    HW219830   2.338   3.840   1.754
 6432SOL     OW19831   2.157   3.920   1.252
 6432SOL    HW119832   2.113   3.939   1.334
 6432SOL    HW219833   2.145   3.826   1.238
 6433SOL     OW19834   3.460   3.939   0.154
 6433SOL    HW119835   3.380   3.886   0.156
 6433SOL    HW219836   3.436   0.022   0.194
 6434SOL     OW19837   3.025   3.923   1.473
 6434SOL    HW119838   3.029   3.996   1.534
 6434SOL    HW219839   3.066   3.956   1.393
 6435SOL     OW19840   2.780   3.824   0.150
 6435SOL    HW119841   2.811   3.815   0.060
 6435SOL    HW219842   2.840   3.768   0.201
 6436SOL     OW19843   3.587   3.863   0.530
 6436SOL    HW119844   3.656   3.849   0.465
 6436SOL    HW219845   3.567   3.775   0.563
 6437SOL     OW19846   3.697   3.895   0.963
 6437SOL    HW119847   3.730   3.809   0.939
 6437SOL    HW219848   3.611   3.900   0.921
 6438SOL     OW19849   2.537   3.911   1.491
 6438SOL    HW119850   2.620   3.903   1.444
 6438SOL    HW219851   2.563   3.933   1.581
 6439SOL     OW19852   1.927   3.859   0.341
 6439SOL    HW119853   1.908   3.937   0.289
 6439SOL    HW219854   2.007   3.824   0.304
 6440SOL     OW19855   3.052   0.010   0.466
 6440SOL    HW119856   3.117   3.940   0.467
 6440SOL    HW219857   3.074   0.065   0.542
 6441SOL     OW19858   3.647   0.049   1.630
 6441SOL    HW119859   3.605   0.080   1.550
 6441SOL    HW219860   3.576   0.005   1.678
 6442SOL     OW19861   3.678   3.910   1.236
 6442SOL    HW119862   3.668   3.818   1.259
 6442SOL    HW219863   3.687   3.910   1.140
 6443SOL     OW19864   3.301   3.933   1.117
 6443SOL    HW119865   3.329   3.852   1.159
 6443SOL    HW219866   3.242   3.974   1.181
 6444SOL     OW19867   2.877   3.736   1.149
 6444SOL    HW119868   2.819   3.681   1.097
 6444SOL    HW219869   2.962   3.694   1.144
 6445SOL     OW19870   3.214   3.783   0.151
 6445SOL    HW119871   3.253   3.712   0.100
 6445SOL    HW219872   3.131   3.747   0.182
 6446SOL     OW19873   3.146   0.163   0.680
 6446SOL    HW119874   3.142   0.258   0.688
 6446SOL    HW219875   3.150   0.132   0.771
 6447SOL     OW19876   3.441   3.930   0.879
 6447SOL    HW119877   3.389   3.932   0.959
 6447SOL    HW219878   3.438   0.020   0.847
 6448SOL     OW19879   2.094   3.982   2.846
 6448SOL    HW119880   2.118   3.963   2.937
 6448SOL    HW219881   2.003   3.953   2.838
 6449SOL     OW19882   1.876   0.061   2.575
 6449SOL    HW119883   1.803   0.114   2.542
 6449SOL    HW219884   1.906   0.011   2.499
 6450SOL     OW19885   3.635   0.320   2.045
 6450SOL    HW119886   3.558   0.304   1.990
 6450SOL    HW219887   3.598   0.340   2.131
 6451SOL     OW19888   2.301   0.096   3.368
 6451SOL    HW119889   2.374   0.054   3.322
 6451SOL    HW219890   2.225   0.042   3.347
 6452SOL     OW19891   3.459   3.849   3.323
 6452SOL    HW119892   3.461   3.936   3.282
 6452SOL    HW219893   3.445   3.867   3.416
 6453SOL     OW19894   2.668   3.729   2.366
 6453SOL    HW119895   2.694   3.821   2.360
 6453SOL    HW219896   2.573   3.732   2.376
 6454SOL     OW19897   3.130   0.062   2.801
 6454SOL    HW119898   3.058   0.007   2.768
 6454SOL    HW219899   3.185   0.002   2.850
 6455SOL     OW19900   2.416   3.905   2.753
 6455SOL    HW119901   2.411   3.924   2.846
 6455SOL    HW219902   2.411   3.991   2.710
 6456SOL     OW19903   2.053   3.983   3.351
 6456SOL    HW119904   1.999   0.062   3.359
 6456SOL    HW219905   2.016   3.923   3.416
 6457SOL     OW19906   3.267   3.834   2.291
 6457SOL    HW119907   3.259   3.800   2.202
 6457SOL    HW219908   3.360   3.820   2.313
 6458SOL     OW19909   3.398   3.939   3.586
 6458SOL    HW119910   3.423   3.942   3.678
 6458SOL    HW219911   3.330   3.872   3.582
 6459SOL     OW19912   2.489   3.849   1.988
 6459SOL    HW119913   2.580   3.820   1.989
 6459SOL    HW219914   2.449   3.802   1.915
 6460SOL     OW19915   2.635   3.959   3.606
 6460SOL    HW119916   2.688   3.929   3.680
 6460SOL    HW219917   2.549   3.975   3.644
 6461SOL     OW19918   2.396   3.785   2.375
 6461SOL    HW119919   2.348   3.787   2.458
 6461SOL    HW219920   2.406   3.877   2.351
 6462SOL     OW19921   2.148   3.757   2.041
 6462SOL    HW119922   2.190   3.843   2.030
 6462SOL    HW219923   2.216   3.702   2.080
 6463SOL     OW19924   2.420   3.943   3.030
 6463SOL    HW119925   2.462   3.870   3.076
 6463SOL    HW219926   2.328   3.940   3.058
 6464SOL     OW19927   2.882   3.767   2.599
 6464SOL    HW119928   2.817   3.755   2.530
 6464SOL    HW219929   2.859   3.702   2.665
 6465SOL     OW19930   2.785   3.804   3.261
 6465SOL    HW119931   2.813   3.783   3.172
 6465SOL    HW219932   2.858   3.852   3.299
 6466SOL     OW19933   3.129   0.076   3.127
 6466SOL    HW119934   3.141   0.144   3.193
 6466SOL    HW219935   3.061   0.111   3.069
 6467SOL     OW19936   2.370   3.749   3.617
 6467SOL    HW119937   2.315   3.704   3.554
 6467SOL    HW219938   2.338   3.840   3.616
 6468SOL     OW19939   2.157   3.921   3.113
 6468SOL    HW119940   2.113   3.939   3.196
 6468SOL    HW219941   2.145   3.827   3.100
 6469SOL     OW19942   3.444   3.955   1.985
 6469SOL    HW119943   3.379   3.898   2.027
 6469SOL    HW219944   3.456   0.027   2.047
 6470SOL     OW19945   3.025   3.923   3.335
 6470SOL    HW119946   3.029   3.996   3.397
 6470SOL    HW219947   3.066   3.956   3.255
 6471SOL     OW19948   2.763   3.812   1.966
 6471SOL    HW119949   2.824   3.774   1.902
 6471SOL    HW219950   2.802   3.793   2.051
 6472SOL     OW19951   3.589   3.860   2.385
 6472SOL    HW119952   3.658   3.846   2.320
 6472SOL    HW219953   3.569   3.772   2.419
 6473SOL     OW19954   3.697   3.896   2.825
 6473SOL    HW119955   3.730   3.809   2.802
 6473SOL    HW219956   3.611   3.901   2.784
 6474SOL     OW19957   2.537   3.911   3.353
 6474SOL    HW119958   2.620   3.903   3.306
 6474SOL    HW219959   2.563   3.933   3.443
 6475SOL     OW19960   1.907   0.053   1.897
 6475SOL    HW119961   1.867   0.030   1.812
 6475SOL    HW219962   1.938   0.142   1.885
 6476SOL     OW19963   1.925   3.866   2.172
 6476SOL    HW119964   1.913   3.955   2.139
 6476SOL    HW219965   2.006   3.836   2.131
 6477SOL     OW19966   3.054   0.012   2.328
 6477SOL    HW119967   3.123   3.945   2.326
 6477SOL    HW219968   3.076   0.067   2.404
 6478SOL     OW19969   3.647   0.049   3.492
 6478SOL    HW119970   3.605   0.080   3.412
 6478SOL    HW219971   3.576   0.005   3.540
 6479SOL     OW19972   3.678   3.910   3.098
 6479SOL    HW119973   3.667   3.818   3.122
 6479SOL    HW219974   3.687   3.910   3.003
 6480SOL     OW19975   3.301   3.933   2.979
 6480SOL    HW119976   3.329   3.852   3.022
 6480SOL    HW219977   3.242   3.974   3.043
 6481SOL     OW19978   2.877   3.736   3.011
 6481SOL    HW119979   2.819   3.681   2.959
 6481SOL    HW219980   2.962   3.694   3.006
 6482SOL     OW19981   3.216   3.771   2.020
 6482SOL    HW119982   3.249   3.700   1.964
 6482SOL    HW219983   3.129   3.742   2.046
 6483SOL     OW19984   3.144   0.162   2.545
 6483SOL    HW119985   3.144   0.257   2.550
 6483SOL    HW219986   3.150   0.133   2.636
 6484SOL     OW19987   3.441   3.930   2.741
 6484SOL    HW119988   3.389   3.932   2.821
 6484SOL    HW219989   3.438   0.020   2.709
 6485SOL     OW19990   2.094   3.982   4.708
 6485SOL    HW119991   2.118   3.963   4.798
 6485SOL    HW219992   2.003   3.953   4.700
 6486SOL     OW19993   1.876   0.061   4.437
 6486SOL    HW119994   1.803   0.114   4.404
 6486SOL    HW219995   1.906   0.011   4.362
 6487SOL     OW19996   3.635   0.320   3.907
 6487SOL    HW119997   3.558   0.304   3.852
 6487SOL    HW219998   3.598   0.340   3.993
 6488SOL     OW19999   2.301   0.096   5.230
 6488SOL    HW120000   2.374   0.054   5.184
 6488SOL    HW220001   2.225   0.042   5.209
 6489SOL     OW20002   3.459   3.850   5.185
 6489SOL    HW120003   3.461   3.936   5.144
 6489SOL    HW220004   3.445   3.867   5.278
 6490SOL     OW20005   2.668   3.729   4.228
 6490SOL    HW120006   2.694   3.821   4.222
 6490SOL    HW220007   2.573   3.732   4.238
 6491SOL     OW20008   3.130   0.062   4.663
 6491SOL    HW120009   3.058   0.007   4.630
 6491SOL    HW220010   3.185   0.002   4.712
 6492SOL     OW20011   2.416   3.905   4.615
 6492SOL    HW120012   2.411   3.924   4.708
 6492SOL    HW220013   2.411   3.991   4.572
 6493SOL     OW20014   2.053   3.983   5.213
 6493SOL    HW120015   2.000   0.063   5.221
 6493SOL    HW220016   2.016   3.924   5.278
 6494SOL     OW20017   3.268   3.834   4.153
 6494SOL    HW120018   3.259   3.800   4.064
 6494SOL    HW220019   3.360   3.820   4.175
 6495SOL     OW20020   3.398   3.939   5.448
 6495SOL    HW120021   3.423   3.942   5.540
 6495SOL    HW220022   3.330   3.872   5.444
 6496SOL     OW20023   2.489   3.849   3.850
 6496SOL    HW120024   2.580   3.820   3.851
 6496SOL    HW220025   2.449   3.802   3.777
 6497SOL     OW20026   2.635   3.960   5.468
 6497SOL    HW120027   2.688   3.928   5.542
 6497SOL    HW220028   2.549   3.975   5.506
 6498SOL     OW20029   2.396   3.785   4.237
 6498SOL    HW120030   2.348   3.787   4.320
 6498SOL    HW220031   2.406   3.877   4.213
 6499SOL     OW20032   2.148   3.757   3.903
 6499SOL    HW120033   2.190   3.843   3.893
 6499SOL    HW220034   2.216   3.702   3.942
 6500SOL     OW20035   2.420   3.943   4.892
 6500SOL    HW120036   2.462   3.870   4.938
 6500SOL    HW220037   2.328   3.940   4.920
 6501SOL     OW20038   2.882   3.767   4.461
 6501SOL    HW120039   2.817   3.755   4.392
 6501SOL    HW220040   2.859   3.702   4.527
 6502SOL     OW20041   2.785   3.804   5.123
 6502SOL    HW120042   2.813   3.783   5.034
 6502SOL    HW220043   2.858   3.852   5.161
 6503SOL     OW20044   3.128   0.076   4.989
 6503SOL    HW120045   3.141   0.144   5.055
 6503SOL    HW220046   3.061   0.111   4.931
 6504SOL     OW20047   2.370   3.749   5.479
 6504SOL    HW120048   2.315   3.704   5.416
 6504SOL    HW220049   2.338   3.840   5.478
 6505SOL     OW20050   2.157   3.921   4.975
 6505SOL    HW120051   2.113   3.939   5.058
 6505SOL    HW220052   2.145   3.827   4.962
 6506SOL     OW20053   3.444   3.955   3.847
 6506SOL    HW120054   3.379   3.898   3.889
 6506SOL    HW220055   3.456   0.027   3.909
 6507SOL     OW20056   3.025   3.923   5.197
 6507SOL    HW120057   3.029   3.996   5.259
 6507SOL    HW220058   3.066   3.956   5.117
 6508SOL     OW20059   2.763   3.812   3.828
 6508SOL    HW120060   2.824   3.774   3.764
 6508SOL    HW220061   2.802   3.793   3.913
 6509SOL     OW20062   3.589   3.860   4.247
 6509SOL    HW120063   3.658   3.845   4.182
 6509SOL    HW220064   3.569   3.772   4.281
 6510SOL     OW20065   3.697   3.896   4.688
 6510SOL    HW120066   3.730   3.809   4.664
 6510SOL    HW220067   3.611   3.901   4.646
 6511SOL     OW20068   2.537   3.911   5.215
 6511SOL    HW120069   2.620   3.903   5.168
 6511SOL    HW220070   2.563   3.933   5.305
 6512SOL     OW20071   1.907   0.053   3.758
 6512SOL    HW120072   1.867   0.030   3.674
 6512SOL    HW220073   1.938   0.142   3.747
 6513SOL     OW20074   1.925   3.866   4.033
 6513SOL    HW120075   1.913   3.955   4.001
 6513SOL    HW220076   2.006   3.836   3.993
 6514SOL     OW20077   3.054   0.012   4.190
 6514SOL    HW120078   3.123   3.945   4.188
 6514SOL    HW220079   3.076   0.067   4.266
 6515SOL     OW20080   3.647   0.049   5.354
 6515SOL    HW120081   3.605   0.081   5.274
 6515SOL    HW220082   3.576   0.005   5.402
 6516SOL     OW20083   3.679   3.910   4.960
 6516SOL    HW120084   3.667   3.818   4.984
 6516SOL    HW220085   3.687   3.910   4.865
 6517SOL     OW20086   3.301   3.933   4.841
 6517SOL    HW120087   3.329   3.852   4.884
 6517SOL    HW220088   3.242   3.974   4.905
 6518SOL     OW20089   2.877   3.736   4.873
 6518SOL    HW120090   2.819   3.681   4.821
 6518SOL    HW220091   2.962   3.694   4.868
 6519SOL     OW20092   3.216   3.771   3.882
 6519SOL    HW120093   3.249   3.700   3.826
 6519SOL    HW220094   3.129   3.742   3.908
 6520SOL     OW20095   3.144   0.162   4.407
 6520SOL    HW120096   3.144   0.257   4.412
 6520SOL    HW220097   3.150   0.133   4.498
 6521SOL     OW20098   3.441   3.930   4.603
 6521SOL    HW120099   3.389   3.932   4.683
 6521SOL    HW220100   3.438   0.020   4.571
 6522SOL     OW20101   2.094   3.982   6.570
 6522SOL    HW120102   2.118   3.962   6.661
 6522SOL    HW220103   2.003   3.953   6.562
 6523SOL     OW20104   1.876   0.061   6.299
 6523SOL    HW120105   1.804   0.114   6.265
 6523SOL    HW220106   1.906   0.011   6.224
 6524SOL     OW20107   3.635   0.320   5.769
 6524SOL    HW120108   3.558   0.304   5.714
 6524SOL    HW220109   3.598   0.340   5.855
 6525SOL     OW20110   2.301   0.096   7.093
 6525SOL    HW120111   2.373   0.054   7.046
 6525SOL    HW220112   2.225   0.042   7.071
 6526SOL     OW20113   3.459   3.849   7.047
 6526SOL    HW120114   3.461   3.936   7.006
 6526SOL    HW220115   3.445   3.868   7.140
 6527SOL     OW20116   2.668   3.729   6.090
 6527SOL    HW120117   2.694   3.821   6.084
 6527SOL    HW220118   2.573   3.732   6.100
 6528SOL     OW20119   3.129   0.062   6.526
 6528SOL    HW120120   3.059   0.008   6.491
 6528SOL    HW220121   3.185   0.001   6.573
 6529SOL     OW20122   2.416   3.905   6.477
 6529SOL    HW120123   2.410   3.924   6.570
 6529SOL    HW220124   2.411   3.990   6.434
 6530SOL     OW20125   2.053   3.984   7.075
 6530SOL    HW120126   1.999   0.063   7.082
 6530SOL    HW220127   2.016   3.925   7.141
 6531SOL     OW20128   3.267   3.834   6.015
 6531SOL    HW120129   3.258   3.800   5.926
 6531SOL    HW220130   3.360   3.820   6.036
 6532SOL     OW20131   3.398   3.939   7.310
 6532SOL    HW120132   3.423   3.942   7.402
 6532SOL    HW220133   3.330   3.872   7.305
 6533SOL     OW20134   2.489   3.849   5.712
 6533SOL    HW120135   2.580   3.820   5.713
 6533SOL    HW220136   2.449   3.802   5.639
 6534SOL     OW20137   2.635   3.960   7.330
 6534SOL    HW120138   2.688   3.929   7.404
 6534SOL    HW220139   2.548   3.975   7.368
 6535SOL     OW20140   2.396   3.785   6.099
 6535SOL    HW120141   2.348   3.787   6.182
 6535SOL    HW220142   2.406   3.877   6.075
 6536SOL     OW20143   2.148   3.757   5.765
 6536SOL    HW120144   2.190   3.843   5.754
 6536SOL    HW220145   2.216   3.702   5.804
 6537SOL     OW20146   2.420   3.944   6.754
 6537SOL    HW120147   2.461   3.870   6.799
 6537SOL    HW220148   2.328   3.940   6.782
 6538SOL     OW20149   2.882   3.767   6.323
 6538SOL    HW120150   2.817   3.755   6.253
 6538SOL    HW220151   2.859   3.702   6.389
 6539SOL     OW20152   2.785   3.804   6.985
 6539SOL    HW120153   2.813   3.783   6.896
 6539SOL    HW220154   2.858   3.852   7.023
 6540SOL     OW20155   3.129   0.076   6.851
 6540SOL    HW120156   3.141   0.144   6.916
 6540SOL    HW220157   3.061   0.110   6.793
 6541SOL     OW20158   2.370   3.750   7.342
 6541SOL    HW120159   2.315   3.704   7.277
 6541SOL    HW220160   2.338   3.840   7.340
 6542SOL     OW20161   2.157   3.920   6.837
 6542SOL    HW120162   2.112   3.939   6.920
 6542SOL    HW220163   2.145   3.826   6.824
 6543SOL     OW20164   3.444   3.955   5.709
 6543SOL    HW120165   3.379   3.898   5.751
 6543SOL    HW220166   3.455   0.027   5.771
 6544SOL     OW20167   3.025   3.923   7.059
 6544SOL    HW120168   3.029   3.997   7.120
 6544SOL    HW220169   3.066   3.956   6.979
 6545SOL     OW20170   2.763   3.811   5.690
 6545SOL    HW120171   2.824   3.774   5.626
 6545SOL    HW220172   2.802   3.793   5.775
 6546SOL     OW20173   3.589   3.860   6.110
 6546SOL    HW120174   3.658   3.845   6.044
 6546SOL    HW220175   3.569   3.772   6.143
 6547SOL     OW20176   3.697   3.896   6.550
 6547SOL    HW120177   3.730   3.809   6.526
 6547SOL    HW220178   3.611   3.901   6.508
 6548SOL     OW20179   2.537   3.910   7.078
 6548SOL    HW120180   2.620   3.903   7.030
 6548SOL    HW220181   2.564   3.933   7.167
 6549SOL     OW20182   1.906   0.053   5.621
 6549SOL    HW120183   1.867   0.030   5.536
 6549SOL    HW220184   1.938   0.142   5.609
 6550SOL     OW20185   1.924   3.866   5.895
 6550SOL    HW120186   1.913   3.955   5.863
 6550SOL    HW220187   2.006   3.836   5.855
 6551SOL     OW20188   3.054   0.012   6.053
 6551SOL    HW120189   3.123   3.945   6.050
 6551SOL    HW220190   3.076   0.067   6.128
 6552SOL     OW20191   3.647   0.049   7.217
 6552SOL    HW120192   3.606   0.080   7.136
 6552SOL    HW220193   3.576   0.005   7.264
 6553SOL     OW20194   3.679   3.910   6.822
 6553SOL    HW120195   3.667   3.818   6.846
 6553SOL    HW220196   3.687   3.910   6.727
 6554SOL     OW20197   3.301   3.933   6.703
 6554SOL    HW120198   3.329   3.851   6.745
 6554SOL    HW220199   3.243   3.974   6.767
 6555SOL     OW20200   2.877   3.736   6.735
 6555SOL    HW120201   2.819   3.681   6.682
 6555SOL    HW220202   2.962   3.693   6.730
 6556SOL     OW20203   3.216   3.770   5.744
 6556SOL    HW120204   3.249   3.700   5.688
 6556SOL    HW220205   3.129   3.742   5.770
 6557SOL     OW20206   3.145   0.162   6.269
 6557SOL    HW120207   3.144   0.257   6.274
 6557SOL    HW220208   3.150   0.134   6.361
 6558SOL     OW20209   3.441   3.930   6.465
 6558SOL    HW120210   3.389   3.932   6.545
 6558SOL    HW220211   3.438   0.020   6.432
 6559SOL     OW20212   2.094   3.982   8.432
 6559SOL    HW120213   2.118   3.963   8.523
 6559SOL    HW220214   2.003   3.953   8.424
 6560SOL     OW20215   1.876   0.061   8.161
 6560SOL    HW120216   1.804   0.115   8.128
 6560SOL    HW220217   1.906   0.011   8.085
 6561SOL     OW20218   3.634   0.321   7.631
 6561SOL    HW120219   3.558   0.305   7.575
 6561SOL    HW220220   3.597   0.340   7.717
 6562SOL     OW20221   2.301   0.096   8.954
 6562SOL    HW120222   2.373   0.054   8.908
 6562SOL    HW220223   2.225   0.042   8.933
 6563SOL     OW20224   3.459   3.849   8.909
 6563SOL    HW120225   3.461   3.936   8.868
 6563SOL    HW220226   3.445   3.868   9.002
 6564SOL     OW20227   2.668   3.729   7.952
 6564SOL    HW120228   2.695   3.821   7.946
 6564SOL    HW220229   2.573   3.732   7.962
 6565SOL     OW20230   3.129   0.062   8.387
 6565SOL    HW120231   3.059   0.007   8.353
 6565SOL    HW220232   3.185   0.002   8.436
 6566SOL     OW20233   2.415   3.905   8.339
 6566SOL    HW120234   2.410   3.924   8.432
 6566SOL    HW220235   2.411   3.990   8.296
 6567SOL     OW20236   2.053   3.983   8.937
 6567SOL    HW120237   1.999   0.062   8.945
 6567SOL    HW220238   2.016   3.923   9.003
 6568SOL     OW20239   3.267   3.834   7.877
 6568SOL    HW120240   3.258   3.800   7.788
 6568SOL    HW220241   3.359   3.820   7.898
 6569SOL     OW20242   3.398   3.939   9.172
 6569SOL    HW120243   3.423   3.942   9.264
 6569SOL    HW220244   3.330   3.872   9.168
 6570SOL     OW20245   2.489   3.849   7.574
 6570SOL    HW120246   2.580   3.819   7.575
 6570SOL    HW220247   2.449   3.802   7.501
 6571SOL     OW20248   2.635   3.960   9.192
 6571SOL    HW120249   2.688   3.929   9.266
 6571SOL    HW220250   2.549   3.975   9.230
 6572SOL     OW20251   2.396   3.785   7.961
 6572SOL    HW120252   2.348   3.788   8.044
 6572SOL    HW220253   2.406   3.877   7.936
 6573SOL     OW20254   2.148   3.757   7.627
 6573SOL    HW120255   2.189   3.843   7.616
 6573SOL    HW220256   2.217   3.703   7.666
 6574SOL     OW20257   2.420   3.943   8.616
 6574SOL    HW120258   2.461   3.870   8.662
 6574SOL    HW220259   2.328   3.940   8.644
 6575SOL     OW20260   2.882   3.768   8.185
 6575SOL    HW120261   2.817   3.755   8.116
 6575SOL    HW220262   2.859   3.702   8.251
 6576SOL     OW20263   2.785   3.804   8.847
 6576SOL    HW120264   2.813   3.783   8.758
 6576SOL    HW220265   2.858   3.852   8.885
 6577SOL     OW20266   3.129   0.076   8.713
 6577SOL    HW120267   3.141   0.144   8.779
 6577SOL    HW220268   3.061   0.111   8.655
 6578SOL     OW20269   2.370   3.749   9.203
 6578SOL    HW120270   2.315   3.704   9.140
 6578SOL    HW220271   2.338   3.840   9.202
 6579SOL     OW20272   2.157   3.921   8.699
 6579SOL    HW120273   2.113   3.939   8.782
 6579SOL    HW220274   2.145   3.827   8.686
 6580SOL     OW20275   3.443   3.955   7.571
 6580SOL    HW120276   3.379   3.898   7.613
 6580SOL    HW220277   3.456   0.026   7.634
 6581SOL     OW20278   3.025   3.923   8.921
 6581SOL    HW120279   3.029   3.996   8.983
 6581SOL    HW220280   3.066   3.956   8.841
 6582SOL     OW20281   2.763   3.811   7.552
 6582SOL    HW120282   2.823   3.774   7.487
 6582SOL    HW220283   2.803   3.793   7.636
 6583SOL     OW20284   3.589   3.860   7.971
 6583SOL    HW120285   3.658   3.846   7.906
 6583SOL    HW220286   3.569   3.772   8.005
 6584SOL     OW20287   3.697   3.896   8.412
 6584SOL    HW120288   3.730   3.809   8.388
 6584SOL    HW220289   3.611   3.901   8.369
 6585SOL     OW20290   2.537   3.911   8.939
 6585SOL    HW120291   2.620   3.903   8.892
 6585SOL    HW220292   2.563   3.933   9.029
 6586SOL     OW20293   1.908   0.053   7.482
 6586SOL    HW120294   1.868   0.030   7.398
 6586SOL    HW220295   1.938   0.142   7.471
 6587SOL     OW20296   1.925   3.866   7.758
 6587SOL    HW120297   1.913   3.955   7.726
 6587SOL    HW220298   2.007   3.837   7.717
 6588SOL     OW20299   3.053   0.012   7.915
 6588SOL    HW120300   3.122   3.945   7.912
 6588SOL    HW220301   3.077   0.066   7.990
 6589SOL     OW20302   3.647   0.049   9.078
 6589SOL    HW120303   3.605   0.080   8.998
 6589SOL    HW220304   3.576   0.005   9.126
 6590SOL     OW20305   3.678   3.910   8.684
 6590SOL    HW120306   3.668   3.818   8.708
 6590SOL    HW220307   3.687   3.910   8.589
 6591SOL     OW20308   3.301   3.933   8.565
 6591SOL    HW120309   3.329   3.852   8.608
 6591SOL    HW220310   3.243   3.974   8.629
 6592SOL     OW20311   2.877   3.736   8.597
 6592SOL    HW120312   2.819   3.681   8.545
 6592SOL    HW220313   2.962   3.694   8.592
 6593SOL     OW20314   3.216   3.770   7.606
 6593SOL    HW120315   3.249   3.700   7.550
 6593SOL    HW220316   3.129   3.742   7.632
 6594SOL     OW20317   3.144   0.162   8.131
 6594SOL    HW120318   3.144   0.257   8.136
 6594SOL    HW220319   3.150   0.133   8.222
 6595SOL     OW20320   3.441   3.930   8.327
 6595SOL    HW120321   3.389   3.932   8.407
 6595SOL    HW220322   3.438   0.020   8.294
 6596SOL     OW20323   2.094   3.982  10.294
 6596SOL    HW120324   2.118   3.963  10.384
 6596SOL    HW220325   2.003   3.953  10.286
 6597SOL     OW20326   1.876   0.061  10.023
 6597SOL    HW120327   1.803   0.114   9.990
 6597SOL    HW220328   1.906   0.011   9.947
 6598SOL     OW20329   3.635   0.320   9.493
 6598SOL    HW120330   3.558   0.305   9.438
 6598SOL    HW220331   3.598   0.340   9.579
 6599SOL     OW20332   2.301   0.096  10.816
 6599SOL    HW120333   2.374   0.054  10.770
 6599SOL    HW220334   2.225   0.042  10.795
 6600SOL     OW20335   3.459   3.849  10.771
 6600SOL    HW120336   3.461   3.936  10.730
 6600SOL    HW220337   3.445   3.867  10.864
 6601SOL     OW20338   2.668   3.729   9.814
 6601SOL    HW120339   2.694   3.821   9.808
 6601SOL    HW220340   2.573   3.732   9.824
 6602SOL     OW20341   3.130   0.062  10.249
 6602SOL    HW120342   3.058   0.007  10.216
 6602SOL    HW220343   3.185   0.002  10.298
 6603SOL     OW20344   2.416   3.905  10.201
 6603SOL    HW120345   2.411   3.924  10.294
 6603SOL    HW220346   2.411   3.991  10.158
 6604SOL     OW20347   2.053   3.983  10.799
 6604SOL    HW120348   2.000   0.063  10.807
 6604SOL    HW220349   2.016   3.924  10.865
 6605SOL     OW20350   3.267   3.834   9.739
 6605SOL    HW120351   3.259   3.800   9.650
 6605SOL    HW220352   3.360   3.820   9.761
 6606SOL     OW20353   3.398   3.939  11.034
 6606SOL    HW120354   3.423   3.942  11.126
 6606SOL    HW220355   3.330   3.872  11.030
 6607SOL     OW20356   2.489   3.849   9.436
 6607SOL    HW120357   2.580   3.820   9.437
 6607SOL    HW220358   2.449   3.802   9.363
 6608SOL     OW20359   2.635   3.959  11.054
 6608SOL    HW120360   2.688   3.929  11.128
 6608SOL    HW220361   2.549   3.975  11.092
 6609SOL     OW20362   2.396   3.785   9.823
 6609SOL    HW120363   2.348   3.787   9.906
 6609SOL    HW220364   2.406   3.877   9.799
 6610SOL     OW20365   2.148   3.757   9.489
 6610SOL    HW120366   2.190   3.843   9.478
 6610SOL    HW220367   2.216   3.703   9.528
 6611SOL     OW20368   2.420   3.943  10.478
 6611SOL    HW120369   2.462   3.870  10.524
 6611SOL    HW220370   2.328   3.940  10.506
 6612SOL     OW20371   2.882   3.767  10.047
 6612SOL    HW120372   2.817   3.755   9.978
 6612SOL    HW220373   2.859   3.702  10.113
 6613SOL     OW20374   2.785   3.804  10.709
 6613SOL    HW120375   2.813   3.783  10.620
 6613SOL    HW220376   2.858   3.852  10.747
 6614SOL     OW20377   3.129   0.076  10.575
 6614SOL    HW120378   3.141   0.144  10.641
 6614SOL    HW220379   3.061   0.111  10.517
 6615SOL     OW20380   2.370   3.749  11.065
 6615SOL    HW120381   2.315   3.704  11.002
 6615SOL    HW220382   2.338   3.840  11.064
 6616SOL     OW20383   2.157   3.921  10.561
 6616SOL    HW120384   2.113   3.939  10.644
 6616SOL    HW220385   2.145   3.827  10.548
 6617SOL     OW20386   3.444   3.955   9.433
 6617SOL    HW120387   3.379   3.898   9.475
 6617SOL    HW220388   3.456   0.027   9.495
 6618SOL     OW20389   3.025   3.923  10.783
 6618SOL    HW120390   3.029   3.996  10.845
 6618SOL    HW220391   3.066   3.956  10.703
 6619SOL     OW20392   2.763   3.812   9.414
 6619SOL    HW120393   2.824   3.774   9.350
 6619SOL    HW220394   2.802   3.793   9.499
 6620SOL     OW20395   3.589   3.860   9.833
 6620SOL    HW120396   3.658   3.846   9.768
 6620SOL    HW220397   3.569   3.772   9.867
 6621SOL     OW20398   3.697   3.896  10.274
 6621SOL    HW120399   3.730   3.809  10.250
 6621SOL    HW220400   3.611   3.901  10.232
 6622SOL     OW20401   2.537   3.911  10.801
 6622SOL    HW120402   2.620   3.903  10.754
 6622SOL    HW220403   2.563   3.933  10.891
 6623SOL     OW20404   1.907   0.053   9.344
 6623SOL    HW120405   1.867   0.030   9.260
 6623SOL    HW220406   1.938   0.142   9.333
 6624SOL     OW20407   1.925   3.866   9.620
 6624SOL    HW120408   1.913   3.955   9.587
 6624SOL    HW220409   2.006   3.836   9.579
 6625SOL     OW20410   3.054   0.012   9.777
 6625SOL    HW120411   3.123   3.945   9.774
 6625SOL    HW220412   3.076   0.067   9.852
 6626SOL     OW20413   3.647   0.049  10.940
 6626SOL    HW120414   3.605   0.080  10.860
 6626SOL    HW220415   3.576   0.005  10.988
 6627SOL     OW20416   3.678   3.910  10.546
 6627SOL    HW120417   3.667   3.818  10.570
 6627SOL    HW220418   3.687   3.910  10.451
 6628SOL     OW20419   3.301   3.933  10.427
 6628SOL    HW120420   3.329   3.852  10.470
 6628SOL    HW220421   3.242   3.974  10.491
 6629SOL     OW20422   2.877   3.736  10.459
 6629SOL    HW120423   2.819   3.681  10.407
 6629SOL    HW220424   2.962   3.694  10.454
 6630SOL     OW20425   3.216   3.771   9.468
 6630SOL    HW120426   3.249   3.700   9.412
 6630SOL    HW220427   3.129   3.742   9.495
 6631SOL     OW20428   3.144   0.162   9.993
 6631SOL    HW120429   3.144   0.257   9.998
 6631SOL    HW220430   3.150   0.133  10.084
 6632SOL     OW20431   3.441   3.930  10.189
 6632SOL    HW120432   3.389   3.932  10.269
 6632SOL    HW220433   3.438   0.020  10.157
 6633SOL     OW20434   2.094   3.982  12.156
 6633SOL    HW120435   2.118   3.963  12.246
 6633SOL    HW220436   2.003   3.953  12.148
 6634SOL     OW20437   1.876   0.061  11.885
 6634SOL    HW120438   1.803   0.114  11.852
 6634SOL    HW220439   1.906   0.011  11.809
 6635SOL     OW20440   3.635   0.320  11.355
 6635SOL    HW120441   3.558   0.304  11.300
 6635SOL    HW220442   3.598   0.340  11.441
 6636SOL     OW20443   2.301   0.096  12.678
 6636SOL    HW120444   2.373   0.054  12.632
 6636SOL    HW220445   2.225   0.042  12.657
 6637SOL     OW20446   3.459   3.849  12.633
 6637SOL    HW120447   3.461   3.936  12.592
 6637SOL    HW220448   3.445   3.867  12.726
 6638SOL     OW20449   2.668   3.729  11.676
 6638SOL    HW120450   2.694   3.821  11.670
 6638SOL    HW220451   2.573   3.732  11.686
 6639SOL     OW20452   3.130   0.062  12.111
 6639SOL    HW120453   3.058   0.008  12.078
 6639SOL    HW220454   3.185   0.002  12.160
 6640SOL     OW20455   2.416   3.905  12.063
 6640SOL    HW120456   2.410   3.924  12.156
 6640SOL    HW220457   2.411   3.991  12.020
 6641SOL     OW20458   2.053   3.983  12.661
 6641SOL    HW120459   1.999   0.062  12.669
 6641SOL    HW220460   2.016   3.923  12.726
 6642SOL     OW20461   3.267   3.834  11.601
 6642SOL    HW120462   3.259   3.800  11.512
 6642SOL    HW220463   3.360   3.820  11.623
 6643SOL     OW20464   3.398   3.939  12.896
 6643SOL    HW120465   3.421   3.944  12.989
 6643SOL    HW220466   3.330   3.872  12.892
 6644SOL     OW20467   2.489   3.849  11.298
 6644SOL    HW120468   2.580   3.820  11.299
 6644SOL    HW220469   2.449   3.802  11.225
 6645SOL     OW20470   2.635   3.960  12.916
 6645SOL    HW120471   2.688   3.929  12.990
 6645SOL    HW220472   2.548   3.974  12.954
 6646SOL     OW20473   2.396   3.785  11.685
 6646SOL    HW120474   2.348   3.787  11.768
 6646SOL    HW220475   2.406   3.877  11.661
 6647SOL     OW20476   2.148   3.757  11.351
 6647SOL    HW120477   2.190   3.843  11.341
 6647SOL    HW220478   2.216   3.703  11.390
 6648SOL     OW20479   2.420   3.943  12.340
 6648SOL    HW120480   2.462   3.870  12.386
 6648SOL    HW220481   2.328   3.940  12.368
 6649SOL     OW20482   2.882   3.767  11.909
 6649SOL    HW120483   2.817   3.755  11.840
 6649SOL    HW220484   2.859   3.702  11.975
 6650SOL     OW20485   2.785   3.804  12.571
 6650SOL    HW120486   2.813   3.783  12.482
 6650SOL    HW220487   2.858   3.852  12.609
 6651SOL     OW20488   3.129   0.076  12.437
 6651SOL    HW120489   3.141   0.144  12.503
 6651SOL    HW220490   3.061   0.111  12.379
 6652SOL     OW20491   2.370   3.749  12.927
 6652SOL    HW120492   2.315   3.704  12.863
 6652SOL    HW220493   2.338   3.839  12.927
 6653SOL     OW20494   2.157   3.921  12.423
 6653SOL    HW120495   2.113   3.939  12.506
 6653SOL    HW220496   2.145   3.827  12.410
 6654SOL     OW20497   3.444   3.955  11.295
 6654SOL    HW120498   3.379   3.898  11.337
 6654SOL    HW220499   3.456   0.027  11.357
 6655SOL     OW20500   3.025   3.923  12.645
 6655SOL    HW120501   3.029   3.996  12.707
 6655SOL    HW220502   3.066   3.956  12.565
 6656SOL     OW20503   2.763   3.812  11.276
 6656SOL    HW120504   2.824   3.774  11.212
 6656SOL    HW220505   2.802   3.793  11.361
 6657SOL     OW20506   3.589   3.860  11.695
 6657SOL    HW120507   3.658   3.845  11.630
 6657SOL    HW220508   3.569   3.772  11.729
 6658SOL     OW20509   3.697   3.896  12.136
 6658SOL    HW120510   3.730   3.809  12.112
 6658SOL    HW220511   3.611   3.901  12.094
 6659SOL     OW20512   2.537   3.911  12.663
 6659SOL    HW120513   2.620   3.903  12.616
 6659SOL    HW220514   2.563   3.933  12.753
 6660SOL     OW20515   1.907   0.053  11.206
 6660SOL    HW120516   1.867   0.030  11.122
 6660SOL    HW220517   1.938   0.142  11.195
 6661SOL     OW20518   1.925   3.866  11.482
 6661SOL    HW120519   1.913   3.955  11.450
 6661SOL    HW220520   2.006   3.836  11.441
 6662SOL     OW20521   3.054   0.012  11.639
 6662SOL    HW120522   3.123   3.945  11.636
 6662SOL    HW220523   3.076   0.067  11.714
 6663SOL     OW20524   3.647   0.049  12.801
 6663SOL    HW120525   3.605   0.080  12.721
 6663SOL    HW220526   3.577   0.005  12.850
 6664SOL     OW20527   3.679   3.910  12.408
 6664SOL    HW120528   3.667   3.818  12.432
 6664SOL    HW220529   3.687   3.910  12.313
 6665SOL     OW20530   3.301   3.933  12.289
 6665SOL    HW120531   3.329   3.852  12.332
 6665SOL    HW220532   3.242   3.974  12.353
 6666SOL     OW20533   2.877   3.736  12.321
 6666SOL    HW120534   2.819   3.681  12.269
 6666SOL    HW220535   2.962   3.694  12.316
 6667SOL     OW20536   3.216   3.771  11.330
 6667SOL    HW120537   3.249   3.700  11.274
 6667SOL    HW220538   3.129   3.742  11.357
 6668SOL     OW20539   3.144   0.162  11.855
 6668SOL    HW120540   3.144   0.257  11.860
 6668SOL    HW220541   3.150   0.133  11.946
 6669SOL     OW20542   3.441   3.930  12.051
 6669SOL    HW120543   3.389   3.932  12.131
 6669SOL    HW220544   3.438   0.020  12.019
 6670SOL     OW20545   1.882   0.090  13.687
 6670SOL    HW120546   1.801   0.109  13.734
 6670SOL    HW220547   1.870   4.000  13.656
 6671SOL     OW20548   3.634   0.318  13.217
 6671SOL    HW120549   3.558   0.304  13.161
 6671SOL    HW220550   3.598   0.334  13.304
 6672SOL     OW20551   3.465   0.174  13.765
 6672SOL    HW120552   3.376   0.155  13.735
 6672SOL    HW220553   3.458   0.261  13.805
 6673SOL     OW20554   2.670   3.730  13.539
 6673SOL    HW120555   2.694   3.822  13.532
 6673SOL    HW220556   2.575   3.730  13.549
 6674SOL     OW20557   3.268   3.836  13.461
 6674SOL    HW120558   3.262   3.800  13.372
 6674SOL    HW220559   3.360   3.828  13.484
 6675SOL     OW20560   2.489   3.850  13.159
 6675SOL    HW120561   2.580   3.820  13.161
 6675SOL    HW220562   2.450   3.802  13.087
 6676SOL     OW20563   2.398   3.781  13.546
 6676SOL    HW120564   2.344   3.772  13.625
 6676SOL    HW220565   2.402   3.876  13.531
 6677SOL     OW20566   2.148   3.757  13.212
 6677SOL    HW120567   2.191   3.843  13.202
 6677SOL    HW220568   2.215   3.702  13.253
 6678SOL     OW20569   2.874   3.764  13.772
 6678SOL    HW120570   2.817   3.758  13.696
 6678SOL    HW220571   2.854   3.685  13.823
 6679SOL     OW20572   3.442   3.959  13.158
 6679SOL    HW120573   3.384   3.896  13.201
 6679SOL    HW220574   3.474   0.016  13.228
 6680SOL     OW20575   2.763   3.812  13.138
 6680SOL    HW120576   2.824   3.774  13.074
 6680SOL    HW220577   2.803   3.791  13.223
 6681SOL     OW20578   3.590   3.858  13.565
 6681SOL    HW120579   3.658   3.848  13.499
 6681SOL    HW220580   3.573   3.769  13.596
 6682SOL     OW20581   3.712   3.893   0.046
 6682SOL    HW120582   3.744   3.803   0.057
 6682SOL    HW220583   3.623   3.890   0.081
 6683SOL     OW20584   1.908   0.052  13.066
 6683SOL    HW120585   1.868   0.031  12.982
 6683SOL    HW220586   1.938   0.142  13.056
 6684SOL     OW20587   1.923   3.867  13.343
 6684SOL    HW120588   1.915   3.959  13.319
 6684SOL    HW220589   2.004   3.838  13.302
 6685SOL     OW20590   3.049   0.003  13.515
 6685SOL    HW120591   3.122   3.944  13.496
 6685SOL    HW220592   3.082   0.062  13.582
 6686SOL     OW20593   3.217   3.771  13.192
 6686SOL    HW120594   3.248   3.700  13.135
 6686SOL    HW220595   3.129   3.743  13.219
 6687SOL     OW20596   3.172   0.157  13.734
 6687SOL    HW120597   3.137   0.244  13.716
 6687SOL    HW220598   3.155   0.142  13.827
 6688SOL     OW20599   3.954   0.631   0.126
 6688SOL    HW120600   3.890   0.630   0.196
 6688SOL    HW220601   3.916   0.576   0.057
 6689SOL     OW20602   3.953   0.297   0.992
 6689SOL    HW120603   3.964   0.273   1.084
 6689SOL    HW220604   3.868   0.262   0.968
 6690SOL     OW20605   3.731   0.394   0.638
 6690SOL    HW120606   3.644   0.408   0.675
 6690SOL    HW220607   3.722   0.316   0.583
 6691SOL     OW20608   0.012   1.523   1.050
 6691SOL    HW120609   3.962   1.443   1.036
 6691SOL    HW220610   0.081   1.520   0.983
 6692SOL     OW20611   3.947   1.718   0.473
 6692SOL    HW120612   3.946   1.792   0.534
 6692SOL    HW220613   0.039   1.706   0.451
 6693SOL     OW20614   3.936   1.438   0.508
 6693SOL    HW120615   3.926   1.533   0.511
 6693SOL    HW220616   3.884   1.405   0.580
 6694SOL     OW20617   3.808   0.649   0.557
 6694SOL    HW120618   3.792   0.558   0.582
 6694SOL    HW220619   3.811   0.696   0.640
 6695SOL     OW20620   3.697   1.616   0.101
 6695SOL    HW120621   3.731   1.529   0.119
 6695SOL    HW220622   3.700   1.661   0.185
 6696SOL     OW20623   3.826   0.750   1.577
 6696SOL    HW120624   3.908   0.791   1.602
 6696SOL    HW220625   3.763   0.822   1.573
 6697SOL     OW20626   3.804   0.818   0.771
 6697SOL    HW120627   3.897   0.813   0.792
 6697SOL    HW220628   3.772   0.891   0.825
 6698SOL     OW20629   3.847   1.870   1.569
 6698SOL    HW120630   3.848   1.841   1.660
 6698SOL    HW220631   3.765   1.836   1.534
 6699SOL     OW20632   3.924   0.310   1.520
 6699SOL    HW120633   3.849   0.357   1.484
 6699SOL    HW220634   3.886   0.247   1.580
 6700SOL     OW20635   3.807   0.548   1.391
 6700SOL    HW120636   3.902   0.546   1.379
 6700SOL    HW220637   3.792   0.624   1.447
 6701SOL     OW20638   3.791   1.573   1.349
 6701SOL    HW120639   3.764   1.636   1.282
 6701SOL    HW220640   3.886   1.580   1.351
 6702SOL     OW20641   0.070   1.095   0.534
 6702SOL    HW120642   0.082   1.151   0.458
 6702SOL    HW220643   0.142   1.031   0.528
 6703SOL     OW20644   0.006   0.215   1.246
 6703SOL    HW120645   3.979   0.240   1.334
 6703SOL    HW220646   0.005   0.119   1.246
 6704SOL     OW20647   3.752   1.312   1.278
 6704SOL    HW120648   3.795   1.262   1.347
 6704SOL    HW220649   3.765   1.403   1.301
 6705SOL     OW20650   3.742   1.317   0.172
 6705SOL    HW120651   3.659   1.332   0.127
 6705SOL    HW220652   3.730   1.234   0.218
 6706SOL     OW20653   3.801   1.794   0.938
 6706SOL    HW120654   3.779   1.713   0.892
 6706SOL    HW220655   3.895   1.805   0.923
 6707SOL     OW20656   0.213   1.552   0.869
 6707SOL    HW120657   0.289   1.610   0.869
 6707SOL    HW220658   0.231   1.490   0.798
 6708SOL     OW20659   3.753   0.535   1.117
 6708SOL    HW120660   3.832   0.528   1.064
 6708SOL    HW220661   3.784   0.546   1.206
 6709SOL     OW20662   3.905   0.530   1.714
 6709SOL    HW120663   3.942   0.477   1.643
 6709SOL    HW220664   3.861   0.602   1.669
 6710SOL     OW20665   3.943   1.533   1.726
 6710SOL    HW120666   3.934   1.614   1.776
 6710SOL    HW220667   3.989   1.473   1.785
 6711SOL     OW20668   3.860   1.132   1.473
 6711SOL    HW120669   3.932   1.126   1.535
 6711SOL    HW220670   3.893   1.093   1.393
 6712SOL     OW20671   3.811   1.267   1.013
 6712SOL    HW120672   3.783   1.279   1.104
 6712SOL    HW220673   3.750   1.202   0.977
 6713SOL     OW20674   3.842   1.791   1.826
 6713SOL    HW120675   3.790   1.726   1.873
 6713SOL    HW220676   3.893   1.835   1.894
 6714SOL     OW20677   3.802   0.403   0.003
 6714SOL    HW120678   3.765   0.322   0.037
 6714SOL    HW220679   3.775   0.406  13.812
 6715SOL     OW20680   3.793   0.145   0.348
 6715SOL    HW120681   3.757   0.222   0.304
 6715SOL    HW220682   3.888   0.159   0.347
 6716SOL     OW20683   3.800   1.235   0.664
 6716SOL    HW120684   3.792   1.187   0.747
 6716SOL    HW220685   3.884   1.206   0.628
 6717SOL     OW20686   3.753   1.080   0.306
 6717SOL    HW120687   3.848   1.085   0.308
 6717SOL    HW220688   3.733   0.989   0.328
 6718SOL     OW20689   3.956   0.631   1.970
 6718SOL    HW120690   3.875   0.634   2.020
 6718SOL    HW220691   3.930   0.598   1.884
 6719SOL     OW20692   3.954   0.294   2.853
 6719SOL    HW120693   3.964   0.273   2.946
 6719SOL    HW220694   3.867   0.261   2.830
 6720SOL     OW20695   3.731   0.393   2.500
 6720SOL    HW120696   3.644   0.408   2.536
 6720SOL    HW220697   3.721   0.316   2.444
 6721SOL     OW20698   0.012   1.524   2.911
 6721SOL    HW120699   3.962   1.443   2.898
 6721SOL    HW220700   0.081   1.520   2.845
 6722SOL     OW20701   3.942   1.720   2.336
 6722SOL    HW120702   3.946   1.792   2.399
 6722SOL    HW220703   0.033   1.704   2.312
 6723SOL     OW20704   3.943   1.439   2.371
 6723SOL    HW120705   3.922   1.532   2.373
 6723SOL    HW220706   3.886   1.400   2.438
 6724SOL     OW20707   3.807   0.649   2.420
 6724SOL    HW120708   3.793   0.557   2.445
 6724SOL    HW220709   3.811   0.696   2.503
 6725SOL     OW20710   3.756   1.596   1.991
 6725SOL    HW120711   3.735   1.504   2.009
 6725SOL    HW220712   3.725   1.643   2.068
 6726SOL     OW20713   3.826   0.750   3.439
 6726SOL    HW120714   3.908   0.791   3.464
 6726SOL    HW220715   3.763   0.822   3.435
 6727SOL     OW20716   3.804   0.817   2.635
 6727SOL    HW120717   3.897   0.813   2.654
 6727SOL    HW220718   3.772   0.891   2.687
 6728SOL     OW20719   3.847   1.870   3.431
 6728SOL    HW120720   3.848   1.841   3.522
 6728SOL    HW220721   3.765   1.836   3.396
 6729SOL     OW20722   3.924   0.310   3.382
 6729SOL    HW120723   3.849   0.358   3.346
 6729SOL    HW220724   3.886   0.247   3.443
 6730SOL     OW20725   3.807   0.548   3.253
 6730SOL    HW120726   3.902   0.546   3.241
 6730SOL    HW220727   3.792   0.624   3.309
 6731SOL     OW20728   0.267   0.291   2.195
 6731SOL    HW120729   0.313   0.225   2.144
 6731SOL    HW220730   0.302   0.374   2.165
 6732SOL     OW20731   3.791   1.573   3.211
 6732SOL    HW120732   3.764   1.636   3.144
 6732SOL    HW220733   3.886   1.580   3.213
 6733SOL     OW20734   0.066   1.093   2.390
 6733SOL    HW120735   0.065   1.138   2.305
 6733SOL    HW220736   0.129   1.022   2.378
 6734SOL     OW20737   0.005   0.215   3.108
 6734SOL    HW120738   3.979   0.240   3.196
 6734SOL    HW220739   0.005   0.119   3.109
 6735SOL     OW20740   3.752   1.311   3.140
 6735SOL    HW120741   3.795   1.262   3.209
 6735SOL    HW220742   3.765   1.403   3.163
 6736SOL     OW20743   3.728   1.327   2.049
 6736SOL    HW120744   3.642   1.340   2.009
 6736SOL    HW220745   3.721   1.243   2.095
 6737SOL     OW20746   3.801   1.795   2.800
 6737SOL    HW120747   3.778   1.714   2.754
 6737SOL    HW220748   3.895   1.805   2.786
 6738SOL     OW20749   0.213   1.552   2.731
 6738SOL    HW120750   0.290   1.609   2.732
 6738SOL    HW220751   0.231   1.489   2.661
 6739SOL     OW20752   3.753   0.535   2.979
 6739SOL    HW120753   3.833   0.528   2.927
 6739SOL    HW220754   3.784   0.545   3.069
 6740SOL     OW20755   3.905   0.530   3.576
 6740SOL    HW120756   3.942   0.477   3.505
 6740SOL    HW220757   3.861   0.602   3.531
 6741SOL     OW20758   3.943   1.533   3.588
 6741SOL    HW120759   3.934   1.614   3.638
 6741SOL    HW220760   3.989   1.474   3.647
 6742SOL     OW20761   3.860   1.132   3.335
 6742SOL    HW120762   3.933   1.126   3.397
 6742SOL    HW220763   3.893   1.093   3.255
 6743SOL     OW20764   3.810   1.267   2.875
 6743SOL    HW120765   3.783   1.279   2.966
 6743SOL    HW220766   3.750   1.202   2.839
 6744SOL     OW20767   3.842   1.791   3.688
 6744SOL    HW120768   3.790   1.726   3.735
 6744SOL    HW220769   3.893   1.835   3.756
 6745SOL     OW20770   3.823   0.316   1.857
 6745SOL    HW120771   3.754   0.334   1.921
 6745SOL    HW220772   3.823   0.393   1.800
 6746SOL     OW20773   3.778   0.152   2.207
 6746SOL    HW120774   3.746   0.208   2.136
 6746SOL    HW220775   3.873   0.153   2.197
 6747SOL     OW20776   3.801   1.238   2.527
 6747SOL    HW120777   3.794   1.188   2.608
 6747SOL    HW220778   3.880   1.203   2.485
 6748SOL     OW20779   3.752   1.082   2.172
 6748SOL    HW120780   3.843   1.083   2.141
 6748SOL    HW220781   3.735   0.990   2.192
 6749SOL     OW20782   3.956   0.631   3.832
 6749SOL    HW120783   3.875   0.634   3.882
 6749SOL    HW220784   3.930   0.598   3.746
 6750SOL     OW20785   3.954   0.294   4.715
 6750SOL    HW120786   3.964   0.273   4.808
 6750SOL    HW220787   3.867   0.261   4.692
 6751SOL     OW20788   3.731   0.392   4.362
 6751SOL    HW120789   3.644   0.408   4.399
 6751SOL    HW220790   3.720   0.316   4.306
 6752SOL     OW20791   0.013   1.523   4.774
 6752SOL    HW120792   3.962   1.443   4.760
 6752SOL    HW220793   0.081   1.520   4.707
 6753SOL     OW20794   3.942   1.720   4.199
 6753SOL    HW120795   3.946   1.792   4.261
 6753SOL    HW220796   0.033   1.703   4.174
 6754SOL     OW20797   3.943   1.439   4.233
 6754SOL    HW120798   3.922   1.532   4.235
 6754SOL    HW220799   3.886   1.400   4.300
 6755SOL     OW20800   3.807   0.649   4.282
 6755SOL    HW120801   3.793   0.557   4.308
 6755SOL    HW220802   3.811   0.696   4.365
 6756SOL     OW20803   3.756   1.596   3.853
 6756SOL    HW120804   3.735   1.504   3.871
 6756SOL    HW220805   3.725   1.643   3.930
 6757SOL     OW20806   3.825   0.750   5.301
 6757SOL    HW120807   3.908   0.791   5.326
 6757SOL    HW220808   3.763   0.822   5.296
 6758SOL     OW20809   3.804   0.817   4.497
 6758SOL    HW120810   3.897   0.813   4.516
 6758SOL    HW220811   3.772   0.891   4.549
 6759SOL     OW20812   3.847   1.870   5.293
 6759SOL    HW120813   3.848   1.840   5.384
 6759SOL    HW220814   3.765   1.837   5.257
 6760SOL     OW20815   3.924   0.310   5.244
 6760SOL    HW120816   3.849   0.358   5.208
 6760SOL    HW220817   3.885   0.247   5.304
 6761SOL     OW20818   3.807   0.548   5.115
 6761SOL    HW120819   3.902   0.546   5.103
 6761SOL    HW220820   3.792   0.624   5.171
 6762SOL     OW20821   0.267   0.291   4.057
 6762SOL    HW120822   0.313   0.225   4.006
 6762SOL    HW220823   0.302   0.374   4.027
 6763SOL     OW20824   3.791   1.573   5.073
 6763SOL    HW120825   3.763   1.636   5.006
 6763SOL    HW220826   3.886   1.580   5.075
 6764SOL     OW20827   0.066   1.093   4.252
 6764SOL    HW120828   0.065   1.138   4.168
 6764SOL    HW220829   0.129   1.022   4.240
 6765SOL     OW20830   0.006   0.215   4.970
 6765SOL    HW120831   3.979   0.240   5.058
 6765SOL    HW220832   0.005   0.119   4.971
 6766SOL     OW20833   3.753   1.311   5.002
 6766SOL    HW120834   3.795   1.262   5.072
 6766SOL    HW220835   3.765   1.403   5.025
 6767SOL     OW20836   3.728   1.327   3.911
 6767SOL    HW120837   3.642   1.340   3.871
 6767SOL    HW220838   3.721   1.243   3.957
 6768SOL     OW20839   3.801   1.795   4.662
 6768SOL    HW120840   3.778   1.714   4.616
 6768SOL    HW220841   3.895   1.805   4.648
 6769SOL     OW20842   0.213   1.552   4.593
 6769SOL    HW120843   0.290   1.609   4.593
 6769SOL    HW220844   0.231   1.489   4.523
 6770SOL     OW20845   3.753   0.535   4.841
 6770SOL    HW120846   3.833   0.528   4.789
 6770SOL    HW220847   3.784   0.545   4.931
 6771SOL     OW20848   3.906   0.530   5.438
 6771SOL    HW120849   3.942   0.477   5.367
 6771SOL    HW220850   3.861   0.602   5.393
 6772SOL     OW20851   3.944   1.533   5.450
 6772SOL    HW120852   3.933   1.615   5.500
 6772SOL    HW220853   3.987   1.474   5.511
 6773SOL     OW20854   3.860   1.133   5.197
 6773SOL    HW120855   3.933   1.126   5.259
 6773SOL    HW220856   3.892   1.093   5.117
 6774SOL     OW20857   3.810   1.267   4.737
 6774SOL    HW120858   3.783   1.279   4.828
 6774SOL    HW220859   3.750   1.202   4.701
 6775SOL     OW20860   3.842   1.791   5.550
 6775SOL    HW120861   3.790   1.726   5.597
 6775SOL    HW220862   3.893   1.835   5.618
 6776SOL     OW20863   3.823   0.316   3.719
 6776SOL    HW120864   3.754   0.334   3.783
 6776SOL    HW220865   3.823   0.393   3.662
 6777SOL     OW20866   3.778   0.152   4.069
 6777SOL    HW120867   3.746   0.208   3.998
 6777SOL    HW220868   3.873   0.153   4.059
 6778SOL     OW20869   3.801   1.238   4.389
 6778SOL    HW120870   3.793   1.188   4.470
 6778SOL    HW220871   3.880   1.203   4.347
 6779SOL     OW20872   3.752   1.082   4.034
 6779SOL    HW120873   3.843   1.083   4.003
 6779SOL    HW220874   3.735   0.990   4.054
 6780SOL     OW20875   3.956   0.631   5.694
 6780SOL    HW120876   3.875   0.634   5.744
 6780SOL    HW220877   3.930   0.598   5.608
 6781SOL     OW20878   3.954   0.294   6.577
 6781SOL    HW120879   3.964   0.273   6.670
 6781SOL    HW220880   3.867   0.261   6.554
 6782SOL     OW20881   3.731   0.392   6.224
 6782SOL    HW120882   3.644   0.408   6.261
 6782SOL    HW220883   3.720   0.317   6.167
 6783SOL     OW20884   0.013   1.523   6.636
 6783SOL    HW120885   3.961   1.444   6.623
 6783SOL    HW220886   0.080   1.520   6.569
 6784SOL     OW20887   3.941   1.720   6.061
 6784SOL    HW120888   3.947   1.792   6.123
 6784SOL    HW220889   0.032   1.703   6.035
 6785SOL     OW20890   3.944   1.439   6.096
 6785SOL    HW120891   3.922   1.532   6.097
 6785SOL    HW220892   3.886   1.400   6.161
 6786SOL     OW20893   3.808   0.648   6.144
 6786SOL    HW120894   3.793   0.557   6.170
 6786SOL    HW220895   3.811   0.696   6.227
 6787SOL     OW20896   3.757   1.596   5.715
 6787SOL    HW120897   3.735   1.504   5.733
 6787SOL    HW220898   3.726   1.643   5.792
 6788SOL     OW20899   3.826   0.750   7.164
 6788SOL    HW120900   3.909   0.791   7.187
 6788SOL    HW220901   3.763   0.822   7.158
 6789SOL     OW20902   3.804   0.817   6.359
 6789SOL    HW120903   3.897   0.813   6.379
 6789SOL    HW220904   3.771   0.891   6.411
 6790SOL     OW20905   3.847   1.870   7.155
 6790SOL    HW120906   3.848   1.841   7.246
 6790SOL    HW220907   3.765   1.836   7.119
 6791SOL     OW20908   3.924   0.310   7.106
 6791SOL    HW120909   3.849   0.358   7.070
 6791SOL    HW220910   3.885   0.247   7.166
 6792SOL     OW20911   3.808   0.548   6.977
 6792SOL    HW120912   3.902   0.546   6.965
 6792SOL    HW220913   3.793   0.624   7.033
 6793SOL     OW20914   0.267   0.291   5.919
 6793SOL    HW120915   0.313   0.224   5.868
 6793SOL    HW220916   0.301   0.374   5.888
 6794SOL     OW20917   3.790   1.573   6.936
 6794SOL    HW120918   3.763   1.636   6.869
 6794SOL    HW220919   3.886   1.580   6.937
 6795SOL     OW20920   0.067   1.094   6.114
 6795SOL    HW120921   0.063   1.137   6.029
 6795SOL    HW220922   0.126   1.020   6.101
 6796SOL     OW20923   0.006   0.215   6.832
 6796SOL    HW120924   3.979   0.240   6.920
 6796SOL    HW220925   0.005   0.119   6.833
 6797SOL     OW20926   3.753   1.311   6.864
 6797SOL    HW120927   3.796   1.263   6.934
 6797SOL    HW220928   3.765   1.403   6.888
 6798SOL     OW20929   3.728   1.326   5.773
 6798SOL    HW120930   3.642   1.340   5.733
 6798SOL    HW220931   3.721   1.243   5.819
 6799SOL     OW20932   3.801   1.795   6.524
 6799SOL    HW120933   3.778   1.714   6.478
 6799SOL    HW220934   3.895   1.805   6.510
 6800SOL     OW20935   0.213   1.552   6.455
 6800SOL    HW120936   0.290   1.609   6.454
 6800SOL    HW220937   0.230   1.489   6.384
 6801SOL     OW20938   3.753   0.535   6.703
 6801SOL    HW120939   3.832   0.528   6.650
 6801SOL    HW220940   3.784   0.546   6.793
 6802SOL     OW20941   3.906   0.530   7.300
 6802SOL    HW120942   3.942   0.477   7.229
 6802SOL    HW220943   3.861   0.602   7.255
 6803SOL     OW20944   3.943   1.533   7.312
 6803SOL    HW120945   3.934   1.614   7.362
 6803SOL    HW220946   3.990   1.474   7.371
 6804SOL     OW20947   3.860   1.132   7.060
 6804SOL    HW120948   3.934   1.126   7.120
 6804SOL    HW220949   3.891   1.092   6.979
 6805SOL     OW20950   3.811   1.267   6.599
 6805SOL    HW120951   3.782   1.278   6.690
 6805SOL    HW220952   3.749   1.203   6.563
 6806SOL     OW20953   3.842   1.791   7.412
 6806SOL    HW120954   3.790   1.726   7.460
 6806SOL    HW220955   3.893   1.835   7.480
 6807SOL     OW20956   3.823   0.316   5.581
 6807SOL    HW120957   3.754   0.334   5.645
 6807SOL    HW220958   3.823   0.393   5.524
 6808SOL     OW20959   3.778   0.152   5.931
 6808SOL    HW120960   3.746   0.208   5.860
 6808SOL    HW220961   3.873   0.153   5.921
 6809SOL     OW20962   3.801   1.238   6.251
 6809SOL    HW120963   3.792   1.188   6.332
 6809SOL    HW220964   3.880   1.203   6.209
 6810SOL     OW20965   3.753   1.082   5.897
 6810SOL    HW120966   3.843   1.083   5.864
 6810SOL    HW220967   3.735   0.990   5.917
 6811SOL     OW20968   3.956   0.631   7.556
 6811SOL    HW120969   3.875   0.634   7.606
 6811SOL    HW220970   3.930   0.598   7.470
 6812SOL     OW20971   3.954   0.295   8.439
 6812SOL    HW120972   3.964   0.273   8.532
 6812SOL    HW220973   3.867   0.261   8.416
 6813SOL     OW20974   3.731   0.392   8.086
 6813SOL    HW120975   3.644   0.407   8.122
 6813SOL    HW220976   3.721   0.316   8.030
 6814SOL     OW20977   0.012   1.523   8.497
 6814SOL    HW120978   3.962   1.442   8.484
 6814SOL    HW220979   0.081   1.521   8.431
 6815SOL     OW20980   3.941   1.719   7.923
 6815SOL    HW120981   3.946   1.792   7.985
 6815SOL    HW220982   0.032   1.704   7.897
 6816SOL     OW20983   3.943   1.439   7.957
 6816SOL    HW120984   3.923   1.532   7.959
 6816SOL    HW220985   3.886   1.401   8.024
 6817SOL     OW20986   3.807   0.649   8.006
 6817SOL    HW120987   3.793   0.557   8.031
 6817SOL    HW220988   3.811   0.696   8.089
 6818SOL     OW20989   3.755   1.596   7.577
 6818SOL    HW120990   3.736   1.504   7.595
 6818SOL    HW220991   3.725   1.643   7.655
 6819SOL     OW20992   3.826   0.750   9.025
 6819SOL    HW120993   3.909   0.791   9.049
 6819SOL    HW220994   3.763   0.822   9.021
 6820SOL     OW20995   3.804   0.818   8.221
 6820SOL    HW120996   3.897   0.813   8.240
 6820SOL    HW220997   3.772   0.891   8.273
 6821SOL     OW20998   3.847   1.870   9.017
 6821SOL    HW120999   3.848   1.841   9.108
 6821SOL    HW221000   3.765   1.836   8.982
 6822SOL     OW21001   3.924   0.310   8.968
 6822SOL    HW121002   3.849   0.358   8.932
 6822SOL    HW221003   3.886   0.247   9.029
 6823SOL     OW21004   3.807   0.548   8.839
 6823SOL    HW121005   3.902   0.546   8.827
 6823SOL    HW221006   3.793   0.624   8.895
 6824SOL     OW21007   0.267   0.291   7.781
 6824SOL    HW121008   0.313   0.224   7.730
 6824SOL    HW221009   0.302   0.374   7.750
 6825SOL     OW21010   3.791   1.573   8.797
 6825SOL    HW121011   3.764   1.636   8.730
 6825SOL    HW221012   3.886   1.580   8.799
 6826SOL     OW21013   0.066   1.093   7.976
 6826SOL    HW121014   0.066   1.139   7.892
 6826SOL    HW221015   0.130   1.023   7.965
 6827SOL     OW21016   0.006   0.215   8.694
 6827SOL    HW121017   3.979   0.240   8.782
 6827SOL    HW221018   0.005   0.119   8.695
 6828SOL     OW21019   3.751   1.312   8.726
 6828SOL    HW121020   3.795   1.262   8.795
 6828SOL    HW221021   3.765   1.403   8.749
 6829SOL     OW21022   3.729   1.327   7.636
 6829SOL    HW121023   3.643   1.340   7.596
 6829SOL    HW221024   3.722   1.243   7.682
 6830SOL     OW21025   3.801   1.795   8.386
 6830SOL    HW121026   3.779   1.714   8.340
 6830SOL    HW221027   3.895   1.805   8.372
 6831SOL     OW21028   0.213   1.552   8.317
 6831SOL    HW121029   0.290   1.609   8.318
 6831SOL    HW221030   0.231   1.490   8.246
 6832SOL     OW21031   3.753   0.535   8.565
 6832SOL    HW121032   3.832   0.528   8.512
 6832SOL    HW221033   3.784   0.546   8.655
 6833SOL     OW21034   3.905   0.530   9.162
 6833SOL    HW121035   3.943   0.477   9.091
 6833SOL    HW221036   3.861   0.602   9.117
 6834SOL     OW21037   3.943   1.533   9.174
 6834SOL    HW121038   3.934   1.614   9.225
 6834SOL    HW221039   3.989   1.473   9.233
 6835SOL     OW21040   3.860   1.132   8.921
 6835SOL    HW121041   3.932   1.126   8.983
 6835SOL    HW221042   3.893   1.093   8.841
 6836SOL     OW21043   3.810   1.268   8.461
 6836SOL    HW121044   3.782   1.279   8.552
 6836SOL    HW221045   3.750   1.202   8.425
 6837SOL     OW21046   3.842   1.791   9.274
 6837SOL    HW121047   3.790   1.726   9.322
 6837SOL    HW221048   3.893   1.835   9.342
 6838SOL     OW21049   3.823   0.316   7.443
 6838SOL    HW121050   3.754   0.334   7.506
 6838SOL    HW221051   3.824   0.393   7.385
 6839SOL     OW21052   3.778   0.152   7.793
 6839SOL    HW121053   3.746   0.208   7.722
 6839SOL    HW221054   3.873   0.153   7.783
 6840SOL     OW21055   3.800   1.237   8.112
 6840SOL    HW121056   3.794   1.188   8.194
 6840SOL    HW221057   3.879   1.204   8.070
 6841SOL     OW21058   3.752   1.082   7.758
 6841SOL    HW121059   3.843   1.083   7.727
 6841SOL    HW221060   3.735   0.990   7.778
 6842SOL     OW21061   3.956   0.631   9.418
 6842SOL    HW121062   3.875   0.634   9.468
 6842SOL    HW221063   3.930   0.598   9.332
 6843SOL     OW21064   3.954   0.294  10.301
 6843SOL    HW121065   3.964   0.273  10.394
 6843SOL    HW221066   3.867   0.261  10.278
 6844SOL     OW21067   3.731   0.392   9.948
 6844SOL    HW121068   3.644   0.408   9.985
 6844SOL    HW221069   3.721   0.316   9.892
 6845SOL     OW21070   0.012   1.523  10.359
 6845SOL    HW121071   3.962   1.443  10.346
 6845SOL    HW221072   0.081   1.520  10.293
 6846SOL     OW21073   3.942   1.720   9.784
 6846SOL    HW121074   3.946   1.792   9.847
 6846SOL    HW221075   0.033   1.703   9.760
 6847SOL     OW21076   3.943   1.439   9.819
 6847SOL    HW121077   3.922   1.532   9.821
 6847SOL    HW221078   3.886   1.400   9.886
 6848SOL     OW21079   3.807   0.649   9.868
 6848SOL    HW121080   3.793   0.557   9.894
 6848SOL    HW221081   3.811   0.696   9.951
 6849SOL     OW21082   3.756   1.596   9.439
 6849SOL    HW121083   3.735   1.504   9.457
 6849SOL    HW221084   3.725   1.643   9.516
 6850SOL     OW21085   3.826   0.750  10.887
 6850SOL    HW121086   3.908   0.791  10.912
 6850SOL    HW221087   3.763   0.822  10.882
 6851SOL     OW21088   3.804   0.817  10.083
 6851SOL    HW121089   3.897   0.813  10.102
 6851SOL    HW221090   3.772   0.891  10.135
 6852SOL     OW21091   3.847   1.870  10.879
 6852SOL    HW121092   3.848   1.841  10.970
 6852SOL    HW221093   3.765   1.836  10.844
 6853SOL     OW21094   3.924   0.310  10.830
 6853SOL    HW121095   3.849   0.358  10.794
 6853SOL    HW221096   3.885   0.247  10.891
 6854SOL     OW21097   3.807   0.548  10.701
 6854SOL    HW121098   3.902   0.546  10.689
 6854SOL    HW221099   3.792   0.624  10.757
 6855SOL     OW21100   0.267   0.291   9.643
 6855SOL    HW121101   0.313   0.225   9.592
 6855SOL    HW221102   0.302   0.374   9.613
 6856SOL     OW21103   3.791   1.573  10.659
 6856SOL    HW121104   3.764   1.636  10.592
 6856SOL    HW221105   3.886   1.580  10.661
 6857SOL     OW21106   0.066   1.093   9.838
 6857SOL    HW121107   0.065   1.138   9.754
 6857SOL    HW221108   0.129   1.022   9.826
 6858SOL     OW21109   0.006   0.215  10.556
 6858SOL    HW121110   3.979   0.240  10.644
 6858SOL    HW221111   0.005   0.119  10.557
 6859SOL     OW21112   3.752   1.311  10.588
 6859SOL    HW121113   3.795   1.262  10.658
 6859SOL    HW221114   3.765   1.403  10.611
 6860SOL     OW21115   3.728   1.327   9.497
 6860SOL    HW121116   3.642   1.340   9.457
 6860SOL    HW221117   3.721   1.243   9.543
 6861SOL     OW21118   3.801   1.795  10.248
 6861SOL    HW121119   3.778   1.714  10.202
 6861SOL    HW221120   3.895   1.805  10.234
 6862SOL     OW21121   0.213   1.552  10.179
 6862SOL    HW121122   0.290   1.609  10.180
 6862SOL    HW221123   0.231   1.489  10.109
 6863SOL     OW21124   3.753   0.535  10.427
 6863SOL    HW121125   3.833   0.528  10.375
 6863SOL    HW221126   3.784   0.545  10.517
 6864SOL     OW21127   3.905   0.530  11.024
 6864SOL    HW121128   3.943   0.477  10.953
 6864SOL    HW221129   3.861   0.602  10.979
 6865SOL     OW21130   3.943   1.533  11.036
 6865SOL    HW121131   3.934   1.614  11.086
 6865SOL    HW221132   3.989   1.474  11.095
 6866SOL     OW21133   3.860   1.132  10.783
 6866SOL    HW121134   3.933   1.126  10.845
 6866SOL    HW221135   3.893   1.093  10.703
 6867SOL     OW21136   3.810   1.267  10.323
 6867SOL    HW121137   3.783   1.279  10.414
 6867SOL    HW221138   3.750   1.202  10.287
 6868SOL     OW21139   3.842   1.791  11.136
 6868SOL    HW121140   3.790   1.726  11.184
 6868SOL    HW221141   3.893   1.835  11.204
 6869SOL     OW21142   3.823   0.316   9.305
 6869SOL    HW121143   3.754   0.334   9.369
 6869SOL    HW221144   3.823   0.393   9.248
 6870SOL     OW21145   3.778   0.152   9.655
 6870SOL    HW121146   3.746   0.208   9.584
 6870SOL    HW221147   3.873   0.153   9.645
 6871SOL     OW21148   3.801   1.238   9.975
 6871SOL    HW121149   3.794   1.188  10.056
 6871SOL    HW221150   3.880   1.203   9.933
 6872SOL     OW21151   3.752   1.082   9.620
 6872SOL    HW121152   3.843   1.083   9.589
 6872SOL    HW221153   3.735   0.990   9.640
 6873SOL     OW21154   3.956   0.631  11.280
 6873SOL    HW121155   3.875   0.634  11.330
 6873SOL    HW221156   3.930   0.598  11.194
 6874SOL     OW21157   3.954   0.294  12.163
 6874SOL    HW121158   3.964   0.273  12.256
 6874SOL    HW221159   3.867   0.261  12.140
 6875SOL     OW21160   3.731   0.392  11.810
 6875SOL    HW121161   3.644   0.408  11.847
 6875SOL    HW221162   3.720   0.316  11.754
 6876SOL     OW21163   0.012   1.523  12.222
 6876SOL    HW121164   3.962   1.443  12.208
 6876SOL    HW221165   0.081   1.520  12.155
 6877SOL     OW21166   3.942   1.720  11.646
 6877SOL    HW121167   3.946   1.792  11.709
 6877SOL    HW221168   0.033   1.703  11.621
 6878SOL     OW21169   3.943   1.439  11.681
 6878SOL    HW121170   3.922   1.532  11.683
 6878SOL    HW221171   3.886   1.401  11.748
 6879SOL     OW21172   3.807   0.649  11.730
 6879SOL    HW121173   3.793   0.557  11.756
 6879SOL    HW221174   3.811   0.696  11.813
 6880SOL     OW21175   3.756   1.596  11.301
 6880SOL    HW121176   3.735   1.504  11.319
 6880SOL    HW221177   3.725   1.643  11.378
 6881SOL     OW21178   3.826   0.750  12.749
 6881SOL    HW121179   3.908   0.792  12.773
 6881SOL    HW221180   3.763   0.822  12.744
 6882SOL     OW21181   3.804   0.817  11.945
 6882SOL    HW121182   3.897   0.813  11.964
 6882SOL    HW221183   3.772   0.891  11.997
 6883SOL     OW21184   3.847   1.870  12.741
 6883SOL    HW121185   3.848   1.841  12.833
 6883SOL    HW221186   3.765   1.836  12.706
 6884SOL     OW21187   3.924   0.311  12.692
 6884SOL    HW121188   3.849   0.358  12.656
 6884SOL    HW221189   3.885   0.247  12.752
 6885SOL     OW21190   3.808   0.548  12.563
 6885SOL    HW121191   3.902   0.546  12.551
 6885SOL    HW221192   3.792   0.624  12.619
 6886SOL     OW21193   0.267   0.291  11.505
 6886SOL    HW121194   0.313   0.225  11.454
 6886SOL    HW221195   0.302   0.374  11.475
 6887SOL     OW21196   3.791   1.573  12.521
 6887SOL    HW121197   3.764   1.636  12.454
 6887SOL    HW221198   3.886   1.580  12.523
 6888SOL     OW21199   0.067   1.093  11.700
 6888SOL    HW121200   0.065   1.138  11.616
 6888SOL    HW221201   0.129   1.022  11.688
 6889SOL     OW21202   0.006   0.215  12.418
 6889SOL    HW121203   3.979   0.240  12.506
 6889SOL    HW221204   0.005   0.119  12.419
 6890SOL     OW21205   3.752   1.311  12.450
 6890SOL    HW121206   3.795   1.262  12.520
 6890SOL    HW221207   3.765   1.403  12.473
 6891SOL     OW21208   3.728   1.326  11.359
 6891SOL    HW121209   3.642   1.340  11.319
 6891SOL    HW221210   3.721   1.243  11.405
 6892SOL     OW21211   3.801   1.795  12.110
 6892SOL    HW121212   3.778   1.714  12.064
 6892SOL    HW221213   3.895   1.805  12.096
 6893SOL     OW21214   0.213   1.552  12.041
 6893SOL    HW121215   0.290   1.609  12.042
 6893SOL    HW221216   0.231   1.489  11.971
 6894SOL     OW21217   3.753   0.535  12.289
 6894SOL    HW121218   3.832   0.528  12.237
 6894SOL    HW221219   3.784   0.545  12.379
 6895SOL     OW21220   3.906   0.531  12.886
 6895SOL    HW121221   3.942   0.477  12.815
 6895SOL    HW221222   3.862   0.603  12.841
 6896SOL     OW21223   3.943   1.533  12.899
 6896SOL    HW121224   3.934   1.615  12.949
 6896SOL    HW221225   3.988   1.473  12.958
 6897SOL     OW21226   3.860   1.132  12.645
 6897SOL    HW121227   3.933   1.126  12.706
 6897SOL    HW221228   3.893   1.093  12.565
 6898SOL     OW21229   3.810   1.267  12.185
 6898SOL    HW121230   3.783   1.279  12.276
 6898SOL    HW221231   3.750   1.202  12.149
 6899SOL     OW21232   3.843   1.792  12.999
 6899SOL    HW121233   3.791   1.726  13.046
 6899SOL    HW221234   3.893   1.836  13.068
 6900SOL     OW21235   3.823   0.316  11.167
 6900SOL    HW121236   3.754   0.334  11.231
 6900SOL    HW221237   3.823   0.393  11.110
 6901SOL     OW21238   3.778   0.152  11.517
 6901SOL    HW121239   3.746   0.208  11.446
 6901SOL    HW221240   3.873   0.153  11.507
 6902SOL     OW21241   3.801   1.238  11.837
 6902SOL    HW121242   3.794   1.188  11.918
 6902SOL    HW221243   3.880   1.203  11.795
 6903SOL     OW21244   3.752   1.082  11.482
 6903SOL    HW121245   3.843   1.083  11.451
 6903SOL    HW221246   3.735   0.990  11.502
 6904SOL     OW21247   3.954   0.629  13.143
 6904SOL    HW121248   3.871   0.634  13.190
 6904SOL    HW221249   3.931   0.598  13.056
 6905SOL     OW21250   3.721   0.389  13.646
 6905SOL    HW121251   3.631   0.407  13.672
 6905SOL    HW221252   3.720   0.298  13.617
 6906SOL     OW21253   3.941   1.716  13.503
 6906SOL    HW121254   3.942   1.791  13.563
 6906SOL    HW221255   0.033   1.700  13.483
 6907SOL     OW21256   3.943   1.436  13.541
 6907SOL    HW121257   3.924   1.530  13.542
 6907SOL    HW221258   3.885   1.399  13.607
 6908SOL     OW21259   3.948   1.095   0.003
 6908SOL    HW121260   3.983   1.049   0.080
 6908SOL    HW221261   3.865   1.132   0.033
 6909SOL     OW21262   3.825   0.648  13.594
 6909SOL    HW121263   3.781   0.564  13.610
 6909SOL    HW221264   3.814   0.697  13.675
 6910SOL     OW21265   3.754   1.596  13.162
 6910SOL    HW121266   3.735   1.504  13.180
 6910SOL    HW221267   3.724   1.643  13.240
 6911SOL     OW21268   3.797   0.809  13.812
 6911SOL    HW121269   3.892   0.816  13.828
 6911SOL    HW221270   3.761   0.889  13.851
 6912SOL     OW21271   0.098   1.810  13.883
 6912SOL    HW121272   0.057   1.735   0.027
 6912SOL    HW221273   0.168   1.837   0.043
 6913SOL     OW21274   0.267   0.294  13.368
 6913SOL    HW121275   0.313   0.223  13.323
 6913SOL    HW221276   0.307   0.374  13.336
 6914SOL     OW21277   0.069   1.093  13.556
 6914SOL    HW121278   0.067   1.141  13.473
 6914SOL    HW221279   0.135   1.025  13.542
 6915SOL     OW21280   3.728   1.327  13.221
 6915SOL    HW121281   3.642   1.340  13.181
 6915SOL    HW221282   3.721   1.244  13.267
 6916SOL     OW21283   0.313   1.534   0.016
 6916SOL    HW121284   0.261   1.610   0.042
 6916SOL    HW221285   0.253   1.482  13.861
 6917SOL     OW21286   3.823   0.317  13.028
 6917SOL    HW121287   3.753   0.334  13.092
 6917SOL    HW221288   3.823   0.394  12.971
 6918SOL     OW21289   3.787   0.153  13.373
 6918SOL    HW121290   3.752   0.209  13.304
 6918SOL    HW221291   3.882   0.153  13.359
 6919SOL     OW21292   3.808   1.233  13.692
 6919SOL    HW121293   3.797   1.170  13.763
 6919SOL    HW221294   3.886   1.203  13.645
 6920SOL     OW21295   3.753   1.081  13.343
 6920SOL    HW121296   3.842   1.083  13.310
 6920SOL    HW221297   3.736   0.989  13.363
 6921SOL     OW21298   3.954   2.496   0.129
 6921SOL    HW121299   3.883   2.496   0.193
 6921SOL    HW221300   3.920   2.447   0.054
 6922SOL     OW21301   3.961   2.126   0.986
 6922SOL    HW121302   3.967   2.122   1.081
 6922SOL    HW221303   3.868   2.112   0.967
 6923SOL     OW21304   3.725   2.245   0.636
 6923SOL    HW121305   3.644   2.267   0.682
 6923SOL    HW221306   3.706   2.161   0.594
 6924SOL     OW21307   0.013   3.382   1.051
 6924SOL    HW121308   3.963   3.303   1.032
 6924SOL    HW221309   0.080   3.384   0.983
 6925SOL     OW21310   3.940   3.576   0.479
 6925SOL    HW121311   3.952   3.650   0.538
 6925SOL    HW221312   0.026   3.562   0.440
 6926SOL     OW21313   3.935   3.298   0.508
 6926SOL    HW121314   3.926   3.393   0.509
 6926SOL    HW221315   3.883   3.268   0.583
 6927SOL     OW21316   3.815   2.503   0.559
 6927SOL    HW121317   3.785   2.416   0.583
 6927SOL    HW221318   3.812   2.553   0.640
 6928SOL     OW21319   3.743   3.469   0.115
 6928SOL    HW121320   3.726   3.377   0.134
 6928SOL    HW221321   3.711   3.516   0.192
 6929SOL     OW21322   3.827   2.604   1.583
 6929SOL    HW121323   3.910   2.643   1.608
 6929SOL    HW221324   3.765   2.677   1.578
 6930SOL     OW21325   3.804   2.679   0.769
 6930SOL    HW121326   3.897   2.675   0.791
 6930SOL    HW221327   3.770   2.751   0.822
 6931SOL     OW21328   3.849   3.721   1.568
 6931SOL    HW121329   3.849   3.693   1.660
 6931SOL    HW221330   3.761   3.700   1.537
 6932SOL     OW21331   3.923   2.155   1.515
 6932SOL    HW121332   3.842   2.197   1.488
 6932SOL    HW221333   3.895   2.072   1.554
 6933SOL     OW21334   3.808   2.410   1.390
 6933SOL    HW121335   3.903   2.406   1.380
 6933SOL    HW221336   3.793   2.484   1.449
 6934SOL     OW21337   3.791   3.435   1.348
 6934SOL    HW121338   3.765   3.500   1.283
 6934SOL    HW221339   3.886   3.441   1.353
 6935SOL     OW21340   0.072   2.953   0.533
 6935SOL    HW121341   0.081   3.014   0.459
 6935SOL    HW221342   0.149   2.897   0.526
 6936SOL     OW21343   0.007   2.074   1.251
 6936SOL    HW121344   3.977   2.105   1.337
 6936SOL    HW221345   0.011   1.979   1.259
 6937SOL     OW21346   3.751   3.174   1.277
 6937SOL    HW121347   3.795   3.124   1.347
 6937SOL    HW221348   3.766   3.265   1.300
 6938SOL     OW21349   3.995   1.921   0.654
 6938SOL    HW121350   0.016   2.013   0.667
 6938SOL    HW221351   0.019   1.879   0.737
 6939SOL     OW21352   3.739   3.177   0.174
 6939SOL    HW121353   3.657   3.188   0.126
 6939SOL    HW221354   3.729   3.094   0.220
 6940SOL     OW21355   3.803   3.652   0.938
 6940SOL    HW121356   3.781   3.571   0.892
 6940SOL    HW221357   3.897   3.662   0.926
 6941SOL     OW21358   0.213   3.420   0.870
 6941SOL    HW121359   0.278   3.490   0.866
 6941SOL    HW221360   0.239   3.359   0.801
 6942SOL     OW21361   3.756   2.401   1.118
 6942SOL    HW121362   3.839   2.396   1.071
 6942SOL    HW221363   3.781   2.407   1.210
 6943SOL     OW21364   3.901   2.378   1.722
 6943SOL    HW121365   3.929   2.318   1.653
 6943SOL    HW221366   3.858   2.449   1.676
 6944SOL     OW21367   3.942   3.393   1.727
 6944SOL    HW121368   3.934   3.477   1.773
 6944SOL    HW221369   3.990   3.337   1.788
 6945SOL     OW21370   3.859   2.994   1.473
 6945SOL    HW121371   3.931   2.988   1.536
 6945SOL    HW221372   3.894   2.956   1.393
 6946SOL     OW21373   3.810   3.129   1.012
 6946SOL    HW121374   3.783   3.141   1.103
 6946SOL    HW221375   3.749   3.063   0.978
 6947SOL     OW21376   3.840   3.650   1.825
 6947SOL    HW121377   3.790   3.584   1.874
 6947SOL    HW221378   3.888   3.698   1.892
 6948SOL     OW21379   3.779   2.270   0.029
 6948SOL    HW121380   3.742   2.187   0.060
 6948SOL    HW221381   3.759   2.271  13.835
 6949SOL     OW21382   3.786   2.021   0.348
 6949SOL    HW121383   3.761   2.047   0.259
 6949SOL    HW221384   3.882   2.022   0.347
 6950SOL     OW21385   3.798   3.096   0.665
 6950SOL    HW121386   3.794   3.049   0.748
 6950SOL    HW221387   3.884   3.072   0.629
 6951SOL     OW21388   3.751   2.938   0.307
 6951SOL    HW121389   3.847   2.943   0.307
 6951SOL    HW221390   3.733   2.846   0.327
 6952SOL     OW21391   3.954   2.495   1.972
 6952SOL    HW121392   3.873   2.491   2.023
 6952SOL    HW221393   3.931   2.457   1.887
 6953SOL     OW21394   3.961   2.125   2.848
 6953SOL    HW121395   3.967   2.121   2.944
 6953SOL    HW221396   3.868   2.112   2.829
 6954SOL     OW21397   3.724   2.242   2.498
 6954SOL    HW121398   3.645   2.268   2.545
 6954SOL    HW221399   3.703   2.158   2.458
 6955SOL     OW21400   0.012   3.383   2.912
 6955SOL    HW121401   3.963   3.302   2.896
 6955SOL    HW221402   0.080   3.384   2.845
 6956SOL     OW21403   3.941   3.582   2.337
 6956SOL    HW121404   3.951   3.655   2.398
 6956SOL    HW221405   0.031   3.563   2.308
 6957SOL     OW21406   3.940   3.301   2.370
 6957SOL    HW121407   3.924   3.395   2.374
 6957SOL    HW221408   3.886   3.263   2.439
 6958SOL     OW21409   3.816   2.503   2.422
 6958SOL    HW121410   3.786   2.415   2.446
 6958SOL    HW221411   3.812   2.552   2.504
 6959SOL     OW21412   3.753   3.458   1.992
 6959SOL    HW121413   3.735   3.365   2.009
 6959SOL    HW221414   3.724   3.503   2.071
 6960SOL     OW21415   3.827   2.603   3.445
 6960SOL    HW121416   3.910   2.643   3.470
 6960SOL    HW221417   3.765   2.677   3.440
 6961SOL     OW21418   3.803   2.677   2.633
 6961SOL    HW121419   3.897   2.675   2.653
 6961SOL    HW221420   3.770   2.751   2.684
 6962SOL     OW21421   3.849   3.720   3.430
 6962SOL    HW121422   3.849   3.693   3.522
 6962SOL    HW221423   3.761   3.700   3.399
 6963SOL     OW21424   3.923   2.155   3.377
 6963SOL    HW121425   3.842   2.197   3.350
 6963SOL    HW221426   3.895   2.072   3.416
 6964SOL     OW21427   0.001   1.885   2.025
 6964SOL    HW121428   0.033   1.974   2.011
 6964SOL    HW221429   0.064   1.846   2.085
 6965SOL     OW21430   3.808   2.410   3.252
 6965SOL    HW121431   3.903   2.406   3.242
 6965SOL    HW221432   3.794   2.484   3.311
 6966SOL     OW21433   0.280   2.150   2.185
 6966SOL    HW121434   0.298   2.077   2.126
 6966SOL    HW221435   0.314   2.227   2.139
 6967SOL     OW21436   3.791   3.434   3.211
 6967SOL    HW121437   3.765   3.500   3.145
 6967SOL    HW221438   3.887   3.441   3.215
 6968SOL     OW21439   0.067   2.953   2.389
 6968SOL    HW121440   0.065   3.002   2.307
 6968SOL    HW221441   0.134   2.886   2.376
 6969SOL     OW21442   0.007   2.075   3.113
 6969SOL    HW121443   3.977   2.104   3.199
 6969SOL    HW221444   0.011   1.979   3.121
 6970SOL     OW21445   3.752   3.173   3.139
 6970SOL    HW121446   3.795   3.124   3.209
 6970SOL    HW221447   3.766   3.265   3.163
 6971SOL     OW21448   3.999   1.920   2.514
 6971SOL    HW121449   0.012   2.014   2.528
 6971SOL    HW221450   0.020   1.880   2.599
 6972SOL     OW21451   3.728   3.188   2.050
 6972SOL    HW121452   3.642   3.201   2.010
 6972SOL    HW221453   3.720   3.104   2.096
 6973SOL     OW21454   3.803   3.653   2.799
 6973SOL    HW121455   3.781   3.571   2.754
 6973SOL    HW221456   3.897   3.662   2.788
 6974SOL     OW21457   0.213   3.419   2.732
 6974SOL    HW121458   0.279   3.488   2.727
 6974SOL    HW221459   0.239   3.357   2.664
 6975SOL     OW21460   3.756   2.401   2.980
 6975SOL    HW121461   3.839   2.396   2.933
 6975SOL    HW221462   3.781   2.407   3.072
 6976SOL     OW21463   3.901   2.378   3.584
 6976SOL    HW121464   3.929   2.317   3.515
 6976SOL    HW221465   3.858   2.449   3.538
 6977SOL     OW21466   3.942   3.394   3.589
 6977SOL    HW121467   3.934   3.477   3.635
 6977SOL    HW221468   3.990   3.337   3.650
 6978SOL     OW21469   3.859   2.995   3.335
 6978SOL    HW121470   3.931   2.988   3.398
 6978SOL    HW221471   3.894   2.956   3.255
 6979SOL     OW21472   3.810   3.129   2.874
 6979SOL    HW121473   3.783   3.141   2.965
 6979SOL    HW221474   3.749   3.064   2.840
 6980SOL     OW21475   3.840   3.650   3.687
 6980SOL    HW121476   3.790   3.584   3.736
 6980SOL    HW221477   3.888   3.698   3.754
 6981SOL     OW21478   3.801   2.197   1.904
 6981SOL    HW121479   3.717   2.162   1.875
 6981SOL    HW221480   3.821   2.268   1.843
 6982SOL     OW21481   3.764   2.022   2.175
 6982SOL    HW121482   3.756   2.088   2.106
 6982SOL    HW221483   3.856   2.027   2.201
 6983SOL     OW21484   3.800   3.100   2.527
 6983SOL    HW121485   3.794   3.051   2.609
 6983SOL    HW221486   3.880   3.067   2.486
 6984SOL     OW21487   3.751   2.941   2.173
 6984SOL    HW121488   3.841   2.943   2.140
 6984SOL    HW221489   3.735   2.849   2.192
 6985SOL     OW21490   3.954   2.495   3.834
 6985SOL    HW121491   3.873   2.491   3.885
 6985SOL    HW221492   3.931   2.457   3.749
 6986SOL     OW21493   3.961   2.125   4.710
 6986SOL    HW121494   3.967   2.122   4.806
 6986SOL    HW221495   3.868   2.112   4.691
 6987SOL     OW21496   3.724   2.243   4.360
 6987SOL    HW121497   3.645   2.268   4.406
 6987SOL    HW221498   3.703   2.158   4.320
 6988SOL     OW21499   0.012   3.383   4.774
 6988SOL    HW121500   3.963   3.302   4.758
 6988SOL    HW221501   0.080   3.384   4.707
 6989SOL     OW21502   3.941   3.582   4.199
 6989SOL    HW121503   3.951   3.655   4.260
 6989SOL    HW221504   0.031   3.563   4.170
 6990SOL     OW21505   3.941   3.301   4.232
 6990SOL    HW121506   3.924   3.395   4.236
 6990SOL    HW221507   3.886   3.263   4.301
 6991SOL     OW21508   3.817   2.503   4.284
 6991SOL    HW121509   3.786   2.415   4.308
 6991SOL    HW221510   3.812   2.552   4.366
 6992SOL     OW21511   3.753   3.458   3.854
 6992SOL    HW121512   3.734   3.365   3.871
 6992SOL    HW221513   3.724   3.503   3.933
 6993SOL     OW21514   3.826   2.603   5.307
 6993SOL    HW121515   3.909   2.643   5.332
 6993SOL    HW221516   3.765   2.677   5.302
 6994SOL     OW21517   3.803   2.677   4.495
 6994SOL    HW121518   3.897   2.675   4.515
 6994SOL    HW221519   3.770   2.751   4.546
 6995SOL     OW21520   3.849   3.721   5.292
 6995SOL    HW121521   3.849   3.693   5.384
 6995SOL    HW221522   3.761   3.700   5.261
 6996SOL     OW21523   3.923   2.155   5.239
 6996SOL    HW121524   3.842   2.197   5.211
 6996SOL    HW221525   3.894   2.072   5.278
 6997SOL     OW21526   0.001   1.885   3.887
 6997SOL    HW121527   0.033   1.974   3.873
 6997SOL    HW221528   0.064   1.846   3.947
 6998SOL     OW21529   3.808   2.410   5.114
 6998SOL    HW121530   3.903   2.406   5.104
 6998SOL    HW221531   3.794   2.484   5.173
 6999SOL     OW21532   0.280   2.150   4.047
 6999SOL    HW121533   0.298   2.077   3.988
 6999SOL    HW221534   0.314   2.227   4.001
 7000SOL     OW21535   3.791   3.434   5.073
 7000SOL    HW121536   3.765   3.499   5.007
 7000SOL    HW221537   3.886   3.441   5.077
 7001SOL     OW21538   0.067   2.953   4.251
 7001SOL    HW121539   0.065   3.002   4.169
 7001SOL    HW221540   0.134   2.886   4.238
 7002SOL     OW21541   0.008   2.075   4.976
 7002SOL    HW121542   3.977   2.105   5.061
 7002SOL    HW221543   0.009   1.979   4.982
 7003SOL     OW21544   3.752   3.173   5.001
 7003SOL    HW121545   3.795   3.124   5.071
 7003SOL    HW221546   3.766   3.265   5.025
 7004SOL     OW21547   3.999   1.920   4.376
 7004SOL    HW121548   0.012   2.014   4.390
 7004SOL    HW221549   0.020   1.881   4.461
 7005SOL     OW21550   3.728   3.188   3.912
 7005SOL    HW121551   3.642   3.201   3.872
 7005SOL    HW221552   3.720   3.104   3.958
 7006SOL     OW21553   3.803   3.653   4.661
 7006SOL    HW121554   3.781   3.571   4.616
 7006SOL    HW221555   3.897   3.662   4.649
 7007SOL     OW21556   0.213   3.419   4.594
 7007SOL    HW121557   0.279   3.488   4.589
 7007SOL    HW221558   0.239   3.357   4.526
 7008SOL     OW21559   3.756   2.401   4.842
 7008SOL    HW121560   3.839   2.396   4.795
 7008SOL    HW221561   3.781   2.407   4.934
 7009SOL     OW21562   3.902   2.378   5.446
 7009SOL    HW121563   3.928   2.317   5.377
 7009SOL    HW221564   3.858   2.449   5.400
 7010SOL     OW21565   3.942   3.394   5.451
 7010SOL    HW121566   3.934   3.477   5.497
 7010SOL    HW221567   3.989   3.337   5.513
 7011SOL     OW21568   3.859   2.995   5.197
 7011SOL    HW121569   3.932   2.988   5.260
 7011SOL    HW221570   3.893   2.956   5.117
 7012SOL     OW21571   3.810   3.130   4.736
 7012SOL    HW121572   3.783   3.141   4.827
 7012SOL    HW221573   3.749   3.064   4.701
 7013SOL     OW21574   3.840   3.650   5.549
 7013SOL    HW121575   3.790   3.584   5.598
 7013SOL    HW221576   3.888   3.698   5.616
 7014SOL     OW21577   3.801   2.197   3.766
 7014SOL    HW121578   3.717   2.162   3.737
 7014SOL    HW221579   3.821   2.268   3.705
 7015SOL     OW21580   3.764   2.022   4.037
 7015SOL    HW121581   3.756   2.088   3.968
 7015SOL    HW221582   3.856   2.027   4.063
 7016SOL     OW21583   3.800   3.100   4.389
 7016SOL    HW121584   3.794   3.051   4.471
 7016SOL    HW221585   3.880   3.067   4.348
 7017SOL     OW21586   3.751   2.941   4.035
 7017SOL    HW121587   3.841   2.943   4.002
 7017SOL    HW221588   3.735   2.849   4.054
 7018SOL     OW21589   3.955   2.494   5.696
 7018SOL    HW121590   3.873   2.492   5.746
 7018SOL    HW221591   3.931   2.457   5.611
 7019SOL     OW21592   3.961   2.125   6.572
 7019SOL    HW121593   3.967   2.122   6.668
 7019SOL    HW221594   3.868   2.112   6.553
 7020SOL     OW21595   3.724   2.242   6.222
 7020SOL    HW121596   3.645   2.267   6.269
 7020SOL    HW221597   3.703   2.159   6.181
 7021SOL     OW21598   0.012   3.383   6.636
 7021SOL    HW121599   3.963   3.302   6.619
 7021SOL    HW221600   0.080   3.384   6.569
 7022SOL     OW21601   3.941   3.582   6.061
 7022SOL    HW121602   3.952   3.655   6.122
 7022SOL    HW221603   0.030   3.562   6.032
 7023SOL     OW21604   3.941   3.301   6.094
 7023SOL    HW121605   3.924   3.395   6.098
 7023SOL    HW221606   3.886   3.263   6.163
 7024SOL     OW21607   3.818   2.502   6.146
 7024SOL    HW121608   3.786   2.415   6.169
 7024SOL    HW221609   3.812   2.552   6.228
 7025SOL     OW21610   3.754   3.458   5.716
 7025SOL    HW121611   3.734   3.365   5.733
 7025SOL    HW221612   3.724   3.503   5.795
 7026SOL     OW21613   3.827   2.603   7.169
 7026SOL    HW121614   3.910   2.643   7.194
 7026SOL    HW221615   3.765   2.677   7.164
 7027SOL     OW21616   3.803   2.677   6.358
 7027SOL    HW121617   3.897   2.674   6.377
 7027SOL    HW221618   3.770   2.751   6.408
 7028SOL     OW21619   3.849   3.721   7.154
 7028SOL    HW121620   3.849   3.694   7.246
 7028SOL    HW221621   3.761   3.700   7.123
 7029SOL     OW21622   3.923   2.155   7.101
 7029SOL    HW121623   3.842   2.197   7.074
 7029SOL    HW221624   3.895   2.071   7.139
 7030SOL     OW21625   0.001   1.886   5.749
 7030SOL    HW121626   0.034   1.974   5.734
 7030SOL    HW221627   0.064   1.846   5.809
 7031SOL     OW21628   3.808   2.410   6.976
 7031SOL    HW121629   3.903   2.406   6.966
 7031SOL    HW221630   3.794   2.484   7.035
 7032SOL     OW21631   0.282   2.149   5.911
 7032SOL    HW121632   0.298   2.076   5.851
 7032SOL    HW221633   0.311   2.227   5.863
 7033SOL     OW21634   3.791   3.435   6.935
 7033SOL    HW121635   3.765   3.499   6.869
 7033SOL    HW221636   3.886   3.441   6.939
 7034SOL     OW21637   0.067   2.954   6.114
 7034SOL    HW121638   0.064   3.002   6.031
 7034SOL    HW221639   0.133   2.885   6.099
 7035SOL     OW21640   0.007   2.075   6.837
 7035SOL    HW121641   3.977   2.105   6.923
 7035SOL    HW221642   0.009   1.979   6.845
 7036SOL     OW21643   3.751   3.174   6.863
 7036SOL    HW121644   3.795   3.124   6.933
 7036SOL    HW221645   3.766   3.265   6.887
 7037SOL     OW21646   4.000   1.920   6.238
 7037SOL    HW121647   0.012   2.014   6.252
 7037SOL    HW221648   0.020   1.881   6.323
 7038SOL     OW21649   3.728   3.188   5.774
 7038SOL    HW121650   3.642   3.201   5.734
 7038SOL    HW221651   3.720   3.104   5.820
 7039SOL     OW21652   3.803   3.653   6.524
 7039SOL    HW121653   3.781   3.571   6.478
 7039SOL    HW221654   3.897   3.662   6.512
 7040SOL     OW21655   0.213   3.419   6.456
 7040SOL    HW121656   0.279   3.488   6.451
 7040SOL    HW221657   0.238   3.357   6.387
 7041SOL     OW21658   3.756   2.401   6.704
 7041SOL    HW121659   3.839   2.397   6.657
 7041SOL    HW221660   3.781   2.407   6.796
 7042SOL     OW21661   3.901   2.377   7.308
 7042SOL    HW121662   3.929   2.317   7.239
 7042SOL    HW221663   3.858   2.449   7.262
 7043SOL     OW21664   3.942   3.394   7.313
 7043SOL    HW121665   3.934   3.477   7.360
 7043SOL    HW221666   3.990   3.337   7.373
 7044SOL     OW21667   3.859   2.995   7.059
 7044SOL    HW121668   3.932   2.988   7.122
 7044SOL    HW221669   3.894   2.956   6.979
 7045SOL     OW21670   3.810   3.130   6.598
 7045SOL    HW121671   3.783   3.141   6.689
 7045SOL    HW221672   3.749   3.064   6.563
 7046SOL     OW21673   3.840   3.650   7.412
 7046SOL    HW121674   3.790   3.585   7.460
 7046SOL    HW221675   3.888   3.699   7.479
 7047SOL     OW21676   3.802   2.197   5.628
 7047SOL    HW121677   3.717   2.162   5.600
 7047SOL    HW221678   3.820   2.268   5.567
 7048SOL     OW21679   3.765   2.022   5.900
 7048SOL    HW121680   3.756   2.087   5.830
 7048SOL    HW221681   3.857   2.027   5.925
 7049SOL     OW21682   3.800   3.100   6.251
 7049SOL    HW121683   3.794   3.051   6.333
 7049SOL    HW221684   3.880   3.068   6.210
 7050SOL     OW21685   3.751   2.941   5.897
 7050SOL    HW121686   3.841   2.943   5.864
 7050SOL    HW221687   3.735   2.849   5.916
 7051SOL     OW21688   3.954   2.494   7.558
 7051SOL    HW121689   3.873   2.491   7.608
 7051SOL    HW221690   3.931   2.457   7.473
 7052SOL     OW21691   3.961   2.125   8.434
 7052SOL    HW121692   3.966   2.121   8.530
 7052SOL    HW221693   3.868   2.112   8.415
 7053SOL     OW21694   3.725   2.243   8.084
 7053SOL    HW121695   3.645   2.267   8.131
 7053SOL    HW221696   3.704   2.158   8.043
 7054SOL     OW21697   0.012   3.383   8.498
 7054SOL    HW121698   3.963   3.302   8.481
 7054SOL    HW221699   0.080   3.384   8.431
 7055SOL     OW21700   3.941   3.582   7.923
 7055SOL    HW121701   3.951   3.655   7.984
 7055SOL    HW221702   0.030   3.563   7.894
 7056SOL     OW21703   3.941   3.301   7.956
 7056SOL    HW121704   3.924   3.395   7.960
 7056SOL    HW221705   3.886   3.264   8.025
 7057SOL     OW21706   3.816   2.503   8.008
 7057SOL    HW121707   3.786   2.415   8.032
 7057SOL    HW221708   3.812   2.552   8.090
 7058SOL     OW21709   3.753   3.458   7.578
 7058SOL    HW121710   3.735   3.366   7.595
 7058SOL    HW221711   3.724   3.503   7.657
 7059SOL     OW21712   3.827   2.603   9.031
 7059SOL    HW121713   3.910   2.643   9.056
 7059SOL    HW221714   3.766   2.677   9.026
 7060SOL     OW21715   3.803   2.677   8.220
 7060SOL    HW121716   3.897   2.675   8.239
 7060SOL    HW221717   3.770   2.751   8.270
 7061SOL     OW21718   3.849   3.721   9.016
 7061SOL    HW121719   3.849   3.693   9.108
 7061SOL    HW221720   3.761   3.700   8.985
 7062SOL     OW21721   3.923   2.155   8.963
 7062SOL    HW121722   3.842   2.198   8.936
 7062SOL    HW221723   3.895   2.072   9.002
 7063SOL     OW21724   0.001   1.886   7.612
 7063SOL    HW121725   0.033   1.974   7.595
 7063SOL    HW221726   0.066   1.847   7.670
 7064SOL     OW21727   3.808   2.410   8.838
 7064SOL    HW121728   3.903   2.406   8.828
 7064SOL    HW221729   3.794   2.484   8.897
 7065SOL     OW21730   0.278   2.150   7.770
 7065SOL    HW121731   0.299   2.077   7.712
 7065SOL    HW221732   0.315   2.227   7.726
 7066SOL     OW21733   3.791   3.435   8.797
 7066SOL    HW121734   3.765   3.499   8.731
 7066SOL    HW221735   3.887   3.441   8.801
 7067SOL     OW21736   0.067   2.953   7.975
 7067SOL    HW121737   0.065   3.002   7.893
 7067SOL    HW221738   0.135   2.887   7.962
 7068SOL     OW21739   0.007   2.074   8.699
 7068SOL    HW121740   3.977   2.104   8.785
 7068SOL    HW221741   0.011   1.979   8.707
 7069SOL     OW21742   3.751   3.174   8.725
 7069SOL    HW121743   3.795   3.124   8.795
 7069SOL    HW221744   3.766   3.265   8.748
 7070SOL     OW21745   3.998   1.920   8.101
 7070SOL    HW121746   0.013   2.013   8.113
 7070SOL    HW221747   0.020   1.881   8.185
 7071SOL     OW21748   3.728   3.188   7.636
 7071SOL    HW121749   3.642   3.201   7.596
 7071SOL    HW221750   3.720   3.104   7.682
 7072SOL     OW21751   3.803   3.653   8.386
 7072SOL    HW121752   3.781   3.571   8.340
 7072SOL    HW221753   3.898   3.662   8.374
 7073SOL     OW21754   0.213   3.419   8.318
 7073SOL    HW121755   0.279   3.488   8.313
 7073SOL    HW221756   0.238   3.357   8.249
 7074SOL     OW21757   3.756   2.401   8.566
 7074SOL    HW121758   3.839   2.396   8.519
 7074SOL    HW221759   3.781   2.407   8.658
 7075SOL     OW21760   3.901   2.378   9.170
 7075SOL    HW121761   3.929   2.318   9.101
 7075SOL    HW221762   3.858   2.449   9.124
 7076SOL     OW21763   3.942   3.393   9.175
 7076SOL    HW121764   3.934   3.477   9.221
 7076SOL    HW221765   3.990   3.337   9.236
 7077SOL     OW21766   3.859   2.994   8.921
 7077SOL    HW121767   3.932   2.988   8.984
 7077SOL    HW221768   3.894   2.956   8.841
 7078SOL     OW21769   3.809   3.130   8.460
 7078SOL    HW121770   3.783   3.141   8.551
 7078SOL    HW221771   3.750   3.064   8.425
 7079SOL     OW21772   3.840   3.650   9.273
 7079SOL    HW121773   3.790   3.584   9.322
 7079SOL    HW221774   3.888   3.698   9.341
 7080SOL     OW21775   3.801   2.197   7.490
 7080SOL    HW121776   3.717   2.162   7.460
 7080SOL    HW221777   3.821   2.268   7.430
 7081SOL     OW21778   3.764   2.022   7.761
 7081SOL    HW121779   3.756   2.087   7.691
 7081SOL    HW221780   3.856   2.027   7.787
 7082SOL     OW21781   3.800   3.100   8.113
 7082SOL    HW121782   3.794   3.051   8.195
 7082SOL    HW221783   3.879   3.068   8.071
 7083SOL     OW21784   3.751   2.941   7.759
 7083SOL    HW121785   3.841   2.943   7.726
 7083SOL    HW221786   3.735   2.849   7.778
 7084SOL     OW21787   3.954   2.495   9.420
 7084SOL    HW121788   3.873   2.491   9.471
 7084SOL    HW221789   3.931   2.457   9.335
 7085SOL     OW21790   3.961   2.125  10.296
 7085SOL    HW121791   3.966   2.122  10.392
 7085SOL    HW221792   3.868   2.112  10.277
 7086SOL     OW21793   3.724   2.242   9.946
 7086SOL    HW121794   3.645   2.268   9.993
 7086SOL    HW221795   3.703   2.158   9.905
 7087SOL     OW21796   0.012   3.383  10.360
 7087SOL    HW121797   3.963   3.302  10.344
 7087SOL    HW221798   0.080   3.384  10.293
 7088SOL     OW21799   3.941   3.582   9.785
 7088SOL    HW121800   3.951   3.655   9.846
 7088SOL    HW221801   0.031   3.563   9.756
 7089SOL     OW21802   3.941   3.301   9.818
 7089SOL    HW121803   3.924   3.395   9.822
 7089SOL    HW221804   3.886   3.263   9.887
 7090SOL     OW21805   3.817   2.503   9.870
 7090SOL    HW121806   3.786   2.415   9.894
 7090SOL    HW221807   3.812   2.552   9.952
 7091SOL     OW21808   3.753   3.458   9.440
 7091SOL    HW121809   3.735   3.365   9.457
 7091SOL    HW221810   3.724   3.503   9.519
 7092SOL     OW21811   3.827   2.603  10.893
 7092SOL    HW121812   3.910   2.643  10.918
 7092SOL    HW221813   3.765   2.677  10.888
 7093SOL     OW21814   3.803   2.677  10.081
 7093SOL    HW121815   3.897   2.675  10.101
 7093SOL    HW221816   3.770   2.751  10.132
 7094SOL     OW21817   3.849   3.721  10.878
 7094SOL    HW121818   3.849   3.693  10.970
 7094SOL    HW221819   3.761   3.700  10.847
 7095SOL     OW21820   3.923   2.155  10.825
 7095SOL    HW121821   3.842   2.197  10.798
 7095SOL    HW221822   3.895   2.072  10.864
 7096SOL     OW21823   0.001   1.885   9.473
 7096SOL    HW121824   0.033   1.974   9.458
 7096SOL    HW221825   0.064   1.846   9.533
 7097SOL     OW21826   3.808   2.410  10.700
 7097SOL    HW121827   3.903   2.406  10.690
 7097SOL    HW221828   3.794   2.484  10.759
 7098SOL     OW21829   0.280   2.150   9.633
 7098SOL    HW121830   0.298   2.077   9.574
 7098SOL    HW221831   0.313   2.227   9.587
 7099SOL     OW21832   3.791   3.434  10.659
 7099SOL    HW121833   3.765   3.500  10.593
 7099SOL    HW221834   3.887   3.441  10.663
 7100SOL     OW21835   0.067   2.953   9.837
 7100SOL    HW121836   0.065   3.002   9.755
 7100SOL    HW221837   0.134   2.886   9.824
 7101SOL     OW21838   0.007   2.075  10.561
 7101SOL    HW121839   3.977   2.104  10.647
 7101SOL    HW221840   0.011   1.979  10.569
 7102SOL     OW21841   3.752   3.174  10.587
 7102SOL    HW121842   3.795   3.124  10.657
 7102SOL    HW221843   3.766   3.265  10.610
 7103SOL     OW21844   3.999   1.920   9.962
 7103SOL    HW121845   0.012   2.014   9.976
 7103SOL    HW221846   0.020   1.880  10.047
 7104SOL     OW21847   3.728   3.188   9.498
 7104SOL    HW121848   3.642   3.201   9.458
 7104SOL    HW221849   3.720   3.104   9.544
 7105SOL     OW21850   3.803   3.653  10.247
 7105SOL    HW121851   3.781   3.571  10.202
 7105SOL    HW221852   3.897   3.662  10.236
 7106SOL     OW21853   0.213   3.419  10.180
 7106SOL    HW121854   0.279   3.488  10.175
 7106SOL    HW221855   0.239   3.357  10.112
 7107SOL     OW21856   3.756   2.401  10.428
 7107SOL    HW121857   3.839   2.396  10.381
 7107SOL    HW221858   3.781   2.407  10.520
 7108SOL     OW21859   3.901   2.378  11.032
 7108SOL    HW121860   3.929   2.317  10.963
 7108SOL    HW221861   3.858   2.449  10.986
 7109SOL     OW21862   3.942   3.394  11.037
 7109SOL    HW121863   3.934   3.477  11.083
 7109SOL    HW221864   3.990   3.337  11.098
 7110SOL     OW21865   3.859   2.995  10.783
 7110SOL    HW121866   3.931   2.988  10.846
 7110SOL    HW221867   3.894   2.956  10.703
 7111SOL     OW21868   3.810   3.130  10.322
 7111SOL    HW121869   3.783   3.141  10.413
 7111SOL    HW221870   3.749   3.064  10.288
 7112SOL     OW21871   3.840   3.650  11.135
 7112SOL    HW121872   3.790   3.584  11.184
 7112SOL    HW221873   3.888   3.698  11.202
 7113SOL     OW21874   3.801   2.197   9.352
 7113SOL    HW121875   3.717   2.162   9.323
 7113SOL    HW221876   3.821   2.268   9.291
 7114SOL     OW21877   3.764   2.022   9.623
 7114SOL    HW121878   3.756   2.087   9.554
 7114SOL    HW221879   3.856   2.027   9.649
 7115SOL     OW21880   3.800   3.100   9.975
 7115SOL    HW121881   3.794   3.051  10.057
 7115SOL    HW221882   3.880   3.067   9.934
 7116SOL     OW21883   3.751   2.941   9.621
 7116SOL    HW121884   3.841   2.943   9.588
 7116SOL    HW221885   3.735   2.849   9.640
 7117SOL     OW21886   3.954   2.495  11.282
 7117SOL    HW121887   3.873   2.491  11.333
 7117SOL    HW221888   3.931   2.457  11.197
 7118SOL     OW21889   3.961   2.125  12.158
 7118SOL    HW121890   3.967   2.122  12.254
 7118SOL    HW221891   3.868   2.112  12.139
 7119SOL     OW21892   3.724   2.242  11.808
 7119SOL    HW121893   3.645   2.268  11.855
 7119SOL    HW221894   3.703   2.158  11.767
 7120SOL     OW21895   0.012   3.383  12.222
 7120SOL    HW121896   3.963   3.302  12.206
 7120SOL    HW221897   0.080   3.384  12.155
 7121SOL     OW21898   3.941   3.582  11.647
 7121SOL    HW121899   3.951   3.655  11.708
 7121SOL    HW221900   0.031   3.563  11.618
 7122SOL     OW21901   3.941   3.301  11.680
 7122SOL    HW121902   3.924   3.395  11.684
 7122SOL    HW221903   3.886   3.263  11.749
 7123SOL     OW21904   3.817   2.503  11.732
 7123SOL    HW121905   3.786   2.415  11.756
 7123SOL    HW221906   3.812   2.552  11.814
 7124SOL     OW21907   3.753   3.458  11.302
 7124SOL    HW121908   3.734   3.365  11.319
 7124SOL    HW221909   3.723   3.503  11.381
 7125SOL     OW21910   3.826   2.603  12.755
 7125SOL    HW121911   3.910   2.643  12.780
 7125SOL    HW221912   3.765   2.677  12.750
 7126SOL     OW21913   3.803   2.677  11.943
 7126SOL    HW121914   3.897   2.675  11.963
 7126SOL    HW221915   3.770   2.751  11.994
 7127SOL     OW21916   3.849   3.721  12.741
 7127SOL    HW121917   3.849   3.694  12.833
 7127SOL    HW221918   3.761   3.699  12.710
 7128SOL     OW21919   3.923   2.155  12.687
 7128SOL    HW121920   3.842   2.197  12.660
 7128SOL    HW221921   3.895   2.072  12.726
 7129SOL     OW21922   0.001   1.886  11.335
 7129SOL    HW121923   0.033   1.974  11.320
 7129SOL    HW221924   0.064   1.846  11.395
 7130SOL     OW21925   3.808   2.410  12.562
 7130SOL    HW121926   3.903   2.406  12.552
 7130SOL    HW221927   3.794   2.484  12.621
 7131SOL     OW21928   0.280   2.150  11.495
 7131SOL    HW121929   0.298   2.077  11.436
 7131SOL    HW221930   0.313   2.227  11.449
 7132SOL     OW21931   3.791   3.434  12.521
 7132SOL    HW121932   3.765   3.499  12.455
 7132SOL    HW221933   3.887   3.441  12.525
 7133SOL     OW21934   0.067   2.953  11.700
 7133SOL    HW121935   0.065   3.002  11.617
 7133SOL    HW221936   0.134   2.886  11.686
 7134SOL     OW21937   0.007   2.075  12.423
 7134SOL    HW121938   3.977   2.104  12.509
 7134SOL    HW221939   0.011   1.979  12.431
 7135SOL     OW21940   3.752   3.173  12.449
 7135SOL    HW121941   3.795   3.124  12.519
 7135SOL    HW221942   3.766   3.265  12.473
 7136SOL     OW21943   3.999   1.920  11.824
 7136SOL    HW121944   0.012   2.014  11.838
 7136SOL    HW221945   0.020   1.880  11.909
 7137SOL     OW21946   3.728   3.188  11.360
 7137SOL    HW121947   3.642   3.201  11.320
 7137SOL    HW221948   3.720   3.104  11.406
 7138SOL     OW21949   3.803   3.653  12.109
 7138SOL    HW121950   3.781   3.571  12.064
 7138SOL    HW221951   3.897   3.662  12.097
 7139SOL     OW21952   0.213   3.419  12.042
 7139SOL    HW121953   0.279   3.488  12.037
 7139SOL    HW221954   0.239   3.357  11.974
 7140SOL     OW21955   3.756   2.401  12.290
 7140SOL    HW121956   3.839   2.396  12.243
 7140SOL    HW221957   3.781   2.407  12.382
 7141SOL     OW21958   3.902   2.378  12.895
 7141SOL    HW121959   3.929   2.317  12.826
 7141SOL    HW221960   3.858   2.449  12.848
 7142SOL     OW21961   3.942   3.394  12.900
 7142SOL    HW121962   3.933   3.477  12.947
 7142SOL    HW221963   3.988   3.337  12.961
 7143SOL     OW21964   3.859   2.995  12.645
 7143SOL    HW121965   3.931   2.988  12.708
 7143SOL    HW221966   3.894   2.956  12.565
 7144SOL     OW21967   3.810   3.130  12.184
 7144SOL    HW121968   3.783   3.141  12.275
 7144SOL    HW221969   3.749   3.064  12.150
 7145SOL     OW21970   3.841   3.651  12.999
 7145SOL    HW121971   3.791   3.585  13.048
 7145SOL    HW221972   3.888   3.700  13.067
 7146SOL     OW21973   3.801   2.197  11.214
 7146SOL    HW121974   3.717   2.162  11.185
 7146SOL    HW221975   3.821   2.268  11.153
 7147SOL     OW21976   3.764   2.022  11.485
 7147SOL    HW121977   3.756   2.087  11.416
 7147SOL    HW221978   3.856   2.027  11.511
 7148SOL     OW21979   3.800   3.100  11.837
 7148SOL    HW121980   3.794   3.051  11.919
 7148SOL    HW221981   3.880   3.067  11.796
 7149SOL     OW21982   3.751   2.941  11.483
 7149SOL    HW121983   3.841   2.943  11.450
 7149SOL    HW221984   3.735   2.849  11.502
 7150SOL     OW21985   3.952   2.494  13.145
 7150SOL    HW121986   3.870   2.490  13.193
 7150SOL    HW221987   3.931   2.457  13.059
 7151SOL     OW21988   3.723   2.244  13.661
 7151SOL    HW121989   3.636   2.273  13.687
 7151SOL    HW221990   3.707   2.159  13.620
 7152SOL     OW21991   3.942   3.579  13.502
 7152SOL    HW121992   3.940   3.656  13.558
 7152SOL    HW221993   0.035   3.564  13.484
 7153SOL     OW21994   3.941   3.298  13.540
 7153SOL    HW121995   3.926   3.392  13.543
 7153SOL    HW221996   3.884   3.262  13.608
 7154SOL     OW21997   3.948   2.954   0.002
 7154SOL    HW121998   3.983   2.912   0.080
 7154SOL    HW221999   3.865   2.994   0.032
 7155SOL     OW22000   3.832   2.504  13.597
 7155SOL    HW122001   3.782   2.423  13.612
 7155SOL    HW222002   3.816   2.557  13.675
 7156SOL     OW22003   3.750   3.458  13.162
 7156SOL    HW122004   3.734   3.366  13.180
 7156SOL    HW222005   3.722   3.504  13.242
 7157SOL     OW22006   3.800   2.673  13.808
 7157SOL    HW122007   3.894   2.681  13.825
 7157SOL    HW222008   3.761   2.750  13.850
 7158SOL     OW22009   0.113   3.636  13.842
 7158SOL    HW122010   0.071   3.577   0.005
 7158SOL    HW222011   0.185   3.676  13.891
 7159SOL     OW22012   0.001   1.888  13.199
 7159SOL    HW122013   0.041   1.973  13.177
 7159SOL    HW222014   0.065   1.847  13.258
 7160SOL     OW22015   0.279   2.150  13.351
 7160SOL    HW122016   0.300   2.076  13.295
 7160SOL    HW222017   0.319   2.226  13.308
 7161SOL     OW22018   0.069   2.955  13.555
 7161SOL    HW122019   0.067   3.006  13.475
 7161SOL    HW222020   0.137   2.889  13.541
 7162SOL     OW22021   3.984   1.926  13.669
 7162SOL    HW122022   0.010   2.017  13.681
 7162SOL    HW222023   0.023   1.880  13.743
 7163SOL     OW22024   3.728   3.188  13.221
 7163SOL    HW122025   3.642   3.202  13.181
 7163SOL    HW222026   3.720   3.105  13.268
 7164SOL     OW22027   0.321   3.404   0.012
 7164SOL    HW122028   0.264   3.476   0.040
 7164SOL    HW222029   0.264   3.348  13.860
 7165SOL     OW22030   3.801   2.196  13.076
 7165SOL    HW122031   3.717   2.162  13.047
 7165SOL    HW222032   3.821   2.268  13.016
 7166SOL     OW22033   3.765   2.023  13.347
 7166SOL    HW122034   3.756   2.086  13.276
 7166SOL    HW222035   3.857   2.028  13.373
 7167SOL     OW22036   3.807   3.095  13.693
 7167SOL    HW122037   3.796   3.030  13.763
 7167SOL    HW222038   3.885   3.066  13.645
 7168SOL     OW22039   3.752   2.940  13.344
 7168SOL    HW122040   3.841   2.943  13.310
 7168SOL    HW222041   3.736   2.848  13.363
 7169SOL     OW22042   3.963   3.975   0.989
 7169SOL    HW122043   3.967   3.969   1.085
 7169SOL    HW222044   3.873   3.952   0.967
 7170SOL     OW22045   3.750   0.061   0.689
 7170SOL    HW122046   3.672   0.117   0.692
 7170SOL    HW222047   3.721   3.982   0.643
 7171SOL     OW22048   3.915   0.003   1.508
 7171SOL    HW122049   3.825   0.036   1.502
 7171SOL    HW222050   3.909   3.929   1.569
 7172SOL     OW22051   3.981   3.770   0.181
 7172SOL    HW122052   0.017   3.835   0.121
 7172SOL    HW222053   0.050   3.704   0.190
 7173SOL     OW22054   4.000   3.935   1.256
 7173SOL    HW122055   3.965   3.944   1.344
 7173SOL    HW222056   0.027   3.843   1.250
 7174SOL     OW22057   0.023   3.777   0.648
 7174SOL    HW122058   0.044   3.870   0.652
 7174SOL    HW222059   0.033   3.746   0.738
 7175SOL     OW22060   3.787   3.869   0.343
 7175SOL    HW122061   3.788   3.963   0.327
 7175SOL    HW222062   3.864   3.836   0.296
 7176SOL     OW22063   3.963   3.973   2.850
 7176SOL    HW122064   3.967   3.969   2.946
 7176SOL    HW222065   3.873   3.952   2.829
 7177SOL     OW22066   3.748   0.059   2.555
 7177SOL    HW122067   3.672   0.117   2.556
 7177SOL    HW222068   3.718   3.982   2.506
 7178SOL     OW22069   3.915   0.003   3.370
 7178SOL    HW122070   3.825   0.036   3.365
 7178SOL    HW222071   3.909   3.929   3.431
 7179SOL     OW22072   3.989   3.757   2.023
 7179SOL    HW122073   0.028   3.834   1.981
 7179SOL    HW222074   0.059   3.723   2.080
 7180SOL     OW22075   4.000   3.935   3.118
 7180SOL    HW122076   3.964   3.944   3.206
 7180SOL    HW222077   0.027   3.843   3.112
 7181SOL     OW22078   0.018   3.778   2.514
 7181SOL    HW122079   0.047   3.869   2.518
 7181SOL    HW222080   0.030   3.744   2.603
 7182SOL     OW22081   3.804   0.050   1.893
 7182SOL    HW122082   3.739   0.019   1.831
 7182SOL    HW222083   3.807   0.145   1.879
 7183SOL     OW22084   3.783   3.870   2.186
 7183SOL    HW122085   3.778   3.962   2.163
 7183SOL    HW222086   3.870   3.842   2.159
 7184SOL     OW22087   3.963   3.973   4.712
 7184SOL    HW122088   3.967   3.969   4.808
 7184SOL    HW222089   3.873   3.952   4.691
 7185SOL     OW22090   3.748   0.059   4.417
 7185SOL    HW122091   3.672   0.118   4.418
 7185SOL    HW222092   3.718   3.982   4.368
 7186SOL     OW22093   3.915   0.003   5.232
 7186SOL    HW122094   3.825   0.036   5.226
 7186SOL    HW222095   3.909   3.929   5.292
 7187SOL     OW22096   3.989   3.757   3.885
 7187SOL    HW122097   0.028   3.834   3.844
 7187SOL    HW222098   0.059   3.723   3.942
 7188SOL     OW22099   4.000   3.935   4.980
 7188SOL    HW122100   3.964   3.944   5.068
 7188SOL    HW222101   0.027   3.843   4.974
 7189SOL     OW22102   0.018   3.778   4.376
 7189SOL    HW122103   0.047   3.869   4.380
 7189SOL    HW222104   0.030   3.744   4.465
 7190SOL     OW22105   3.805   0.050   3.755
 7190SOL    HW122106   3.739   0.019   3.693
 7190SOL    HW222107   3.807   0.145   3.741
 7191SOL     OW22108   3.783   3.870   4.048
 7191SOL    HW122109   3.778   3.962   4.025
 7191SOL    HW222110   3.870   3.842   4.021
 7192SOL     OW22111   3.963   3.973   6.574
 7192SOL    HW122112   3.967   3.969   6.670
 7192SOL    HW222113   3.873   3.952   6.553
 7193SOL     OW22114   3.748   0.059   6.279
 7193SOL    HW122115   3.672   0.118   6.279
 7193SOL    HW222116   3.718   3.982   6.231
 7194SOL     OW22117   3.915   0.003   7.094
 7194SOL    HW122118   3.825   0.036   7.088
 7194SOL    HW222119   3.909   3.929   7.154
 7195SOL     OW22120   3.989   3.757   5.748
 7195SOL    HW122121   0.028   3.834   5.705
 7195SOL    HW222122   0.059   3.723   5.803
 7196SOL     OW22123   0.000   3.935   6.842
 7196SOL    HW122124   3.965   3.944   6.930
 7196SOL    HW222125   0.027   3.843   6.835
 7197SOL     OW22126   0.018   3.778   6.238
 7197SOL    HW122127   0.047   3.869   6.242
 7197SOL    HW222128   0.030   3.744   6.327
 7198SOL     OW22129   3.805   0.050   5.617
 7198SOL    HW122130   3.739   0.019   5.555
 7198SOL    HW222131   3.807   0.145   5.603
 7199SOL     OW22132   3.783   3.870   5.910
 7199SOL    HW122133   3.778   3.962   5.887
 7199SOL    HW222134   3.870   3.842   5.882
 7200SOL     OW22135   3.963   3.974   8.437
 7200SOL    HW122136   3.967   3.969   8.532
 7200SOL    HW222137   3.873   3.952   8.415
 7201SOL     OW22138   3.747   0.059   8.141
 7201SOL    HW122139   3.671   0.117   8.141
 7201SOL    HW222140   3.719   3.982   8.092
 7202SOL     OW22141   3.915   0.003   8.956
 7202SOL    HW122142   3.825   0.036   8.950
 7202SOL    HW222143   3.909   3.929   9.016
 7203SOL     OW22144   3.989   3.758   7.610
 7203SOL    HW122145   0.028   3.834   7.567
 7203SOL    HW222146   0.059   3.723   7.665
 7204SOL     OW22147   4.000   3.935   8.704
 7204SOL    HW122148   3.964   3.944   8.792
 7204SOL    HW222149   0.027   3.843   8.698
 7205SOL     OW22150   0.017   3.778   8.100
 7205SOL    HW122151   0.047   3.869   8.104
 7205SOL    HW222152   0.030   3.744   8.189
 7206SOL     OW22153   3.804   0.051   7.479
 7206SOL    HW122154   3.739   0.019   7.416
 7206SOL    HW222155   3.807   0.145   7.465
 7207SOL     OW22156   3.783   3.870   7.772
 7207SOL    HW122157   3.778   3.962   7.748
 7207SOL    HW222158   3.870   3.842   7.744
 7208SOL     OW22159   3.963   3.973  10.298
 7208SOL    HW122160   3.967   3.969  10.394
 7208SOL    HW222161   3.873   3.952  10.277
 7209SOL     OW22162   3.748   0.059  10.003
 7209SOL    HW122163   3.672   0.118  10.004
 7209SOL    HW222164   3.718   3.982   9.954
 7210SOL     OW22165   3.915   0.003  10.818
 7210SOL    HW122166   3.825   0.036  10.813
 7210SOL    HW222167   3.909   3.929  10.879
 7211SOL     OW22168   3.989   3.757   9.472
 7211SOL    HW122169   0.028   3.834   9.429
 7211SOL    HW222170   0.059   3.723   9.528
 7212SOL     OW22171   4.000   3.935  10.566
 7212SOL    HW122172   3.964   3.944  10.654
 7212SOL    HW222173   0.027   3.843  10.560
 7213SOL     OW22174   0.018   3.778   9.962
 7213SOL    HW122175   0.047   3.869   9.966
 7213SOL    HW222176   0.030   3.744  10.051
 7214SOL     OW22177   3.804   0.050   9.341
 7214SOL    HW122178   3.739   0.019   9.279
 7214SOL    HW222179   3.807   0.145   9.327
 7215SOL     OW22180   3.783   3.870   9.634
 7215SOL    HW122181   3.778   3.962   9.611
 7215SOL    HW222182   3.870   3.842   9.607
 7216SOL     OW22183   3.963   3.973  12.160
 7216SOL    HW122184   3.967   3.969  12.256
 7216SOL    HW222185   3.873   3.952  12.139
 7217SOL     OW22186   3.748   0.059  11.865
 7217SOL    HW122187   3.672   0.118  11.866
 7217SOL    HW222188   3.718   3.982  11.816
 7218SOL     OW22189   3.914   0.003  12.680
 7218SOL    HW122190   3.825   0.036  12.675
 7218SOL    HW222191   3.909   3.928  12.740
 7219SOL     OW22192   3.989   3.757  11.333
 7219SOL    HW122193   0.028   3.834  11.291
 7219SOL    HW222194   0.059   3.723  11.390
 7220SOL     OW22195   4.000   3.935  12.428
 7220SOL    HW122196   3.964   3.944  12.516
 7220SOL    HW222197   0.027   3.843  12.422
 7221SOL     OW22198   0.018   3.778  11.824
 7221SOL    HW122199   0.047   3.869  11.828
 7221SOL    HW222200   0.030   3.744  11.913
 7222SOL     OW22201   3.805   0.050  11.203
 7222SOL    HW122202   3.739   0.019  11.141
 7222SOL    HW222203   3.807   0.145  11.189
 7223SOL     OW22204   3.783   3.870  11.496
 7223SOL    HW122205   3.778   3.962  11.473
 7223SOL    HW222206   3.870   3.842  11.469
 7224SOL     OW22207   3.742   0.081  13.686
 7224SOL    HW122208   3.671   0.110  13.744
 7224SOL    HW222209   3.720   3.991  13.664
 7225SOL     OW22210   3.990   3.761  13.200
 7225SOL    HW122211   0.034   3.833  13.153
 7225SOL    HW222212   0.059   3.724  13.255
 7226SOL     OW22213   3.981   3.792  13.668
 7226SOL    HW122214   0.026   3.875  13.678
 7226SOL    HW222215   0.024   3.734  13.731
 7227SOL     OW22216   3.805   0.051  13.064
 7227SOL    HW122217   3.739   0.019  13.003
 7227SOL    HW222218   3.807   0.145  13.050
 7228SOL     OW22219   3.779   3.870  13.357
 7228SOL    HW122220   3.777   3.964  13.339
 7228SOL    HW222221   3.865   3.842  13.326
   4.00000   4.00000  13.90000
