2aCDOH_1PEG_l14
22236
    1LIG      O    1   1.949   2.007   0.043
    1LIG      C    2   2.020   2.020   0.197
    1LIG     C1    3   1.946   1.985   0.364
    1LIG     O1    4   2.002   2.030   0.518
    1LIG     C2    5   1.946   1.989   0.673
    1LIG     C3    6   2.014   2.048   0.834
    1LIG     O2    7   1.963   2.008   0.988
    1LIG     C4    8   2.027   2.043   1.139
    1LIG     C5    9   1.958   1.995   1.302
    1LIG     O3   10   2.021   2.032   1.453
    1LIG     C6   11   1.965   1.984   1.603
    1LIG     C7   12   2.032   2.034   1.765
    1LIG     O4   13   1.972   1.995   1.917
    1LIG     C8   14   2.030   2.033   2.070
    1LIG     C9   15   1.953   1.990   2.230
    1LIG     O5   16   2.005   2.034   2.383
    1LIG    C10   17   1.946   1.992   2.534
    1LIG    C11   18   2.013   2.051   2.693
    1LIG     O6   19   1.959   2.009   2.844
    1LIG    C12   20   2.024   2.044   2.993
    1LIG    C13   21   1.954   1.997   3.154
    1LIG     O7   22   2.017   2.034   3.303
    1LIG    C14   23   1.962   1.985   3.452
    1LIG    C15   24   2.029   2.035   3.614
    1LIG     O8   25   1.969   1.996   3.765
    1LIG    C16   26   2.029   2.032   3.917
    1LIG    C17   27   1.952   1.990   4.077
    1LIG     O9   28   2.005   2.033   4.230
    1LIG    C18   29   1.945   1.992   4.379
    1LIG    C19   30   2.012   2.050   4.538
    1LIG    O10   31   1.958   2.009   4.689
    1LIG    C20   32   2.023   2.044   4.836
    1LIG    C21   33   1.953   1.998   4.997
    1LIG    O11   34   2.018   2.034   5.146
    1LIG    C22   35   1.964   1.986   5.295
    1LIG    C23   36   2.034   2.036   5.454
    1LIG    O12   37   1.979   1.994   5.605
    1LIG    C24   38   2.044   2.027   5.755
    1LIG    C25   39   1.968   1.986   5.914
    1LIG    O13   40   2.025   2.020   6.067
    1LIG    C26   41   1.963   1.980   6.216
    1LIG    C27   42   2.030   2.030   6.377
    1LIG    O14   43   1.967   1.992   6.525
    1LIG    C28   44   2.025   2.034   6.673
    1LIG    C29   45   1.954   1.999   6.836
    1LIG    O15   46   2.015   2.051   6.982
    1LIG    C30   47   1.961   2.013   7.135
    1LIG    C31   48   2.033   2.067   7.294
    1LIG    O16   49   1.967   2.038   7.446
    1LIG    C32   50   2.035   2.050   7.596
    1LIG    C33   51   1.956   2.008   7.755
    1LIG    O17   52   2.014   2.042   7.907
    1LIG    C34   53   1.963   1.990   8.056
    1LIG    C35   54   2.025   2.045   8.217
    1LIG    O18   55   1.960   2.004   8.364
    1LIG    C36   56   2.015   2.039   8.516
    1LIG    C37   57   1.936   1.994   8.674
    1LIG    O19   58   1.991   2.034   8.827
    1LIG    C38   59   1.939   1.983   8.977
    1LIG    C39   60   2.010   2.031   9.137
    1LIG    O20   61   1.956   1.992   9.290
    1LIG    C40   62   2.018   2.033   9.440
    1LIG    C41   63   1.953   1.984   9.603
    1LIG    O21   64   2.011   2.029   9.752
    1LIG    C42   65   1.958   1.985   9.904
    1LIG    C43   66   2.028   2.040  10.062
    1LIG    O22   67   1.970   2.001  10.213
    1LIG    C44   68   2.028   2.039  10.364
    1LIG    C45   69   1.952   1.995  10.523
    1LIG    O23   70   2.009   2.033  10.674
    1LIG    C46   71   1.951   1.984  10.822
    1LIG    C47   72   2.020   2.030  10.984
    1LIG    O24   73   1.964   1.990  11.136
    1LIG    C48   74   2.023   2.033  11.286
    1LIG    C49   75   1.957   1.982  11.449
    1LIG    O25   76   2.014   2.027  11.599
    1LIG    C50   77   1.958   1.985  11.750
    1LIG    C51   78   2.030   2.036  11.910
    1LIG    O26   79   1.971   2.000  12.062
    1LIG    C52   80   2.030   2.038  12.213
    1LIG    C53   81   1.954   1.995  12.374
    1LIG    O27   82   2.010   2.032  12.528
    1LIG    C54   83   1.953   1.983  12.677
    1LIG    C55   84   2.021   2.029  12.842
    1LIG    O28   85   1.965   1.987  12.996
    1LIG    C56   86   2.021   2.027  13.151
    1LIG    C57   87   1.952   1.973  13.314
    1LIG    O29   88   2.007   2.008  13.471
    1LIG    C58   89   1.938   1.971  13.621
    1LIG    C59   90   2.015   1.972  13.791
    1LIG      H   91   2.053   2.125   0.204
    1LIG     H1   92   2.113   1.963   0.193
    1LIG     H2   93   1.939   1.875   0.366
    1LIG     H3   94   1.842   2.019   0.358
    1LIG     H4   95   1.951   1.880   0.679
    1LIG     H5   96   1.839   2.013   0.676
    1LIG     H6   97   2.013   2.157   0.829
    1LIG     H7   98   2.121   2.024   0.831
    1LIG     H8   99   2.037   2.152   1.143
    1LIG     H9  100   2.130   2.006   1.137
    1LIG    H10  101   1.945   1.886   1.299
    1LIG    H11  102   1.856   2.034   1.302
    1LIG    H12  103   1.971   1.874   1.603
    1LIG    H13  104   1.858   2.006   1.605
    1LIG    H14  105   2.039   2.143   1.761
    1LIG    H15  106   2.136   2.000   1.765
    1LIG    H16  107   2.045   2.141   2.073
    1LIG    H17  108   2.131   1.991   2.075
    1LIG    H18  109   1.947   1.880   2.230
    1LIG    H19  110   1.849   2.023   2.222
    1LIG    H20  111   1.949   1.883   2.539
    1LIG    H21  112   1.839   2.018   2.534
    1LIG    H22  113   2.011   2.160   2.688
    1LIG    H23  114   2.119   2.026   2.690
    1LIG    H24  115   2.036   2.153   2.996
    1LIG    H25  116   2.127   2.006   2.991
    1LIG    H26  117   1.941   1.889   3.151
    1LIG    H27  118   1.852   2.038   3.153
    1LIG    H28  119   1.967   1.876   3.452
    1LIG    H29  120   1.854   2.007   3.455
    1LIG    H30  121   2.035   2.144   3.610
    1LIG    H31  122   2.133   2.002   3.612
    1LIG    H32  123   2.047   2.140   3.920
    1LIG    H33  124   2.130   1.988   3.921
    1LIG    H34  125   1.946   1.880   4.077
    1LIG    H35  126   1.848   2.024   4.069
    1LIG    H36  127   1.947   1.883   4.385
    1LIG    H37  128   1.838   2.019   4.379
    1LIG    H38  129   2.010   2.160   4.534
    1LIG    H39  130   2.118   2.026   4.535
    1LIG    H40  131   2.036   2.153   4.840
    1LIG    H41  132   2.125   2.004   4.835
    1LIG    H42  133   1.938   1.890   4.995
    1LIG    H43  134   1.852   2.040   4.997
    1LIG    H44  135   1.968   1.876   5.294
    1LIG    H45  136   1.857   2.010   5.299
    1LIG    H46  137   2.037   2.145   5.451
    1LIG    H47  138   2.139   2.005   5.450
    1LIG    H48  139   2.065   2.135   5.759
    1LIG    H49  140   2.143   1.980   5.757
    1LIG    H50  141   1.950   1.877   5.910
    1LIG    H51  142   1.868   2.030   5.908
    1LIG    H52  143   1.958   1.870   6.219
    1LIG    H53  144   1.859   2.014   6.217
    1LIG    H54  145   2.036   2.139   6.373
    1LIG    H55  146   2.134   1.995   6.378
    1LIG    H56  147   2.034   2.142   6.670
    1LIG    H57  148   2.128   1.997   6.676
    1LIG    H58  149   1.943   1.891   6.843
    1LIG    H59  150   1.851   2.036   6.831
    1LIG    H60  151   1.960   1.903   7.137
    1LIG    H61  152   1.856   2.041   7.140
    1LIG    H62  153   2.049   2.175   7.286
    1LIG    H63  154   2.134   2.024   7.297
    1LIG    H64  155   2.070   2.153   7.606
    1LIG    H65  156   2.126   1.990   7.592
    1LIG    H66  157   1.940   1.900   7.751
    1LIG    H67  158   1.856   2.052   7.750
    1LIG    H68  159   1.973   1.881   8.056
    1LIG    H69  160   1.856   2.009   8.060
    1LIG    H70  161   2.027   2.155   8.214
    1LIG    H71  162   2.130   2.017   8.219
    1LIG    H72  163   2.029   2.148   8.520
    1LIG    H73  164   2.116   1.998   8.520
    1LIG    H74  165   1.928   1.885   8.673
    1LIG    H75  166   1.833   2.031   8.668
    1LIG    H76  167   1.943   1.873   8.975
    1LIG    H77  168   1.832   2.007   8.983
    1LIG    H78  169   2.019   2.139   9.133
    1LIG    H79  170   2.113   1.993   9.132
    1LIG    H80  171   2.023   2.143   9.442
    1LIG    H81  172   2.122   2.000   9.440
    1LIG    H82  173   1.954   1.874   9.601
    1LIG    H83  174   1.847   2.011   9.602
    1LIG    H84  175   1.960   1.876   9.907
    1LIG    H85  176   1.852   2.012   9.907
    1LIG    H86  177   2.033   2.149  10.058
    1LIG    H87  178   2.133   2.009  10.059
    1LIG    H88  179   2.040   2.148  10.366
    1LIG    H89  180   2.131   2.000  10.368
    1LIG    H90  181   1.939   1.887  10.521
    1LIG    H91  182   1.850   2.036  10.518
    1LIG    H92  183   1.952   1.874  10.821
    1LIG    H93  184   1.846   2.012  10.825
    1LIG    H94  185   2.028   2.139  10.981
    1LIG    H95  186   2.124   1.994  10.980
    1LIG    H96  187   2.026   2.142  11.288
    1LIG    H97  188   2.128   2.001  11.287
    1LIG    H98  189   1.957   1.872  11.447
    1LIG    H99  190   1.851   2.010  11.447
    1LIG   H100  191   1.955   1.875  11.753
    1LIG   H101  192   1.853   2.016  11.753
    1LIG   H102  193   2.040   2.145  11.905
    1LIG   H103  194   2.134   2.002  11.906
    1LIG   H104  195   2.041   2.147  12.215
    1LIG   H105  196   2.132   1.999  12.217
    1LIG   H106  197   1.941   1.886  12.372
    1LIG   H107  198   1.852   2.035  12.369
    1LIG   H108  199   1.955   1.873  12.675
    1LIG   H109  200   1.847   2.010  12.680
    1LIG   H110  201   2.028   2.138  12.839
    1LIG   H111  202   2.125   1.993  12.837
    1LIG   H112  203   2.024   2.137  13.154
    1LIG   H113  204   2.127   1.997  13.153
    1LIG   H114  205   1.950   1.864  13.308
    1LIG   H115  206   1.847   2.004  13.311
    1LIG   H116  207   1.907   1.866  13.610
    1LIG   H117  208   1.843   2.025  13.628
    1LIG   H118  209   2.112   2.023  13.783
    1LIG   H119  210   2.041   1.866  13.800
    2MOL     C1  211   2.553   1.999   6.442
    2MOL     H1  212   2.642   2.061   6.455
    2MOL     O1  213   2.522   1.927   6.564
    2MOL     C2  214   2.403   1.844   6.561
    2MOL     H2  215   2.315   1.905   6.540
    2MOL     C3  216   2.387   1.782   6.702
    2MOL     H3  217   2.486   1.772   6.747
    2MOL     H4  218   2.344   1.681   6.694
    2MOL     O2  219   2.303   1.863   6.785
    2MOL     H5  220   2.218   1.813   6.790
    2MOL     C4  221   2.576   1.895   6.330
    2MOL     H6  222   2.659   1.830   6.359
    2MOL     O3  223   2.606   1.960   6.207
    2MOL     H7  224   2.569   2.051   6.210
    2MOL     C5  225   2.451   1.808   6.315
    2MOL     H8  226   2.366   1.874   6.293
    2MOL     O4  227   2.465   1.714   6.210
    2MOL     H9  228   2.474   1.769   6.129
    2MOL     C6  229   2.417   1.738   6.447
    2MOL    H10  230   2.494   1.664   6.472
    2MOL     O5  231   2.289   1.679   6.423
    2MOL     C7  232   2.271   1.541   6.455
    2MOL    H11  233   2.366   1.489   6.470
    2MOL     O6  234   2.190   1.536   6.575
    2MOL     C8  235   2.063   1.607   6.564
    2MOL    H12  236   2.080   1.711   6.535
    2MOL     C9  237   1.996   1.610   6.703
    2MOL    H13  238   1.989   1.508   6.740
    2MOL    H14  239   1.895   1.651   6.693
    2MOL     O7  240   2.072   1.691   6.793
    2MOL    H15  241   2.067   1.645   6.880
    2MOL    C10  242   2.193   1.474   6.338
    2MOL    H16  243   2.177   1.368   6.362
    2MOL     O8  244   2.263   1.487   6.214
    2MOL    H17  245   2.325   1.562   6.224
    2MOL    C11  246   2.056   1.542   6.321
    2MOL    H18  247   2.074   1.647   6.295
    2MOL     O9  248   1.984   1.480   6.216
    2MOL    H19  249   2.054   1.465   6.149
    2MOL    C12  250   1.978   1.539   6.453
    2MOL    H20  251   1.956   1.436   6.480
    2MOL    O10  252   1.860   1.616   6.430
    2MOL    C13  253   1.735   1.546   6.435
    2MOL    H21  254   1.749   1.438   6.445
    2MOL    O11  255   1.662   1.598   6.548
    2MOL    C14  256   1.641   1.742   6.548
    2MOL    H22  257   1.738   1.793   6.554
    2MOL    C15  258   1.559   1.781   6.672
    2MOL    H23  259   1.569   1.888   6.692
    2MOL    H24  260   1.603   1.728   6.756
    2MOL    O12  261   1.421   1.745   6.661
    2MOL    H25  262   1.389   1.722   6.751
    2MOL    C16  263   1.653   1.577   6.306
    2MOL    H26  264   1.554   1.534   6.316
    2MOL    O13  265   1.718   1.523   6.191
    2MOL    H27  266   1.813   1.520   6.211
    2MOL    C17  267   1.642   1.729   6.291
    2MOL    H28  268   1.742   1.772   6.287
    2MOL    O14  269   1.571   1.765   6.170
    2MOL    H29  270   1.574   1.684   6.113
    2MOL    C18  271   1.571   1.784   6.417
    2MOL    H30  272   1.467   1.748   6.416
    2MOL    O15  273   1.579   1.926   6.409
    2MOL    C19  274   1.458   1.998   6.435
    2MOL    H31  275   1.371   1.931   6.443
    2MOL    O16  276   1.473   2.075   6.555
    2MOL    C20  277   1.587   2.164   6.558
    2MOL    H32  278   1.679   2.105   6.562
    2MOL    C21  279   1.575   2.246   6.686
    2MOL    H33  280   1.673   2.290   6.705
    2MOL    H34  281   1.551   2.180   6.770
    2MOL    O17  282   1.476   2.349   6.674
    2MOL    H35  283   1.474   2.394   6.761
    2MOL    C22  284   1.440   2.093   6.319
    2MOL    H36  285   1.350   2.152   6.338
    2MOL    O18  286   1.423   2.015   6.204
    2MOL    H37  287   1.481   1.937   6.220
    2MOL    C23  288   1.566   2.182   6.302
    2MOL    H38  289   1.652   2.116   6.285
    2MOL    O19  290   1.554   2.274   6.193
    2MOL    H39  291   1.476   2.246   6.140
    2MOL    C24  292   1.591   2.256   6.434
    2MOL    H40  293   1.515   2.335   6.440
    2MOL    O20  294   1.723   2.313   6.422
    2MOL    C25  295   1.741   2.451   6.459
    2MOL    H41  296   1.644   2.500   6.480
    2MOL    O21  297   1.825   2.457   6.576
    2MOL    C26  298   1.955   2.395   6.561
    2MOL    H42  299   1.942   2.289   6.535
    2MOL    C27  300   2.031   2.401   6.696
    2MOL    H43  301   2.106   2.321   6.700
    2MOL    H44  302   1.960   2.384   6.778
    2MOL    O22  303   2.100   2.523   6.714
    2MOL    H45  304   2.189   2.503   6.677
    2MOL    C28  305   1.810   2.523   6.341
    2MOL    H46  306   1.823   2.629   6.367
    2MOL    O23  307   1.730   2.510   6.225
    2MOL    H47  308   1.695   2.417   6.225
    2MOL    C29  309   1.949   2.462   6.314
    2MOL    H48  310   1.934   2.357   6.286
    2MOL    O24  311   2.016   2.530   6.206
    2MOL    H49  312   1.957   2.522   6.129
    2MOL    C30  313   2.031   2.465   6.444
    2MOL    H50  314   2.052   2.569   6.470
    2MOL    O25  315   2.150   2.392   6.414
    2MOL    C31  316   2.275   2.457   6.441
    2MOL    H51  317   2.263   2.565   6.456
    2MOL    O26  318   2.329   2.396   6.560
    2MOL    C32  319   2.351   2.252   6.553
    2MOL    H52  320   2.256   2.201   6.536
    2MOL    C33  321   2.408   2.205   6.689
    2MOL    H53  322   2.456   2.290   6.739
    2MOL    H54  323   2.485   2.129   6.675
    2MOL    O27  324   2.304   2.152   6.773
    2MOL    H55  325   2.317   2.055   6.777
    2MOL    C34  326   2.370   2.434   6.320
    2MOL    H56  327   2.466   2.483   6.340
    2MOL    O28  328   2.310   2.489   6.202
    2MOL    H57  329   2.213   2.492   6.221
    2MOL    C35  330   2.391   2.283   6.301
    2MOL    H58  331   2.293   2.238   6.279
    2MOL    O29  332   2.479   2.253   6.191
    2MOL    H59  333   2.450   2.309   6.116
    2MOL    C36  334   2.444   2.219   6.431
    2MOL    H60  335   2.546   2.254   6.451
    2MOL    O30  336   2.438   2.078   6.407
    3MOL     C1  337   2.557   1.996   7.432
    3MOL     H1  338   2.650   2.054   7.443
    3MOL     O1  339   2.528   1.922   7.553
    3MOL     C2  340   2.406   1.845   7.550
    3MOL     H2  341   2.322   1.910   7.522
    3MOL     C3  342   2.377   1.791   7.693
    3MOL     H3  343   2.469   1.795   7.752
    3MOL     H4  344   2.346   1.686   7.688
    3MOL     O2  345   2.274   1.869   7.756
    3MOL     H5  346   2.201   1.805   7.775
    3MOL     C4  347   2.572   1.898   7.314
    3MOL     H6  348   2.664   1.840   7.329
    3MOL     O3  349   2.580   1.971   7.192
    3MOL     H7  350   2.565   2.065   7.216
    3MOL     C5  351   2.453   1.800   7.305
    3MOL     H8  352   2.365   1.860   7.274
    3MOL     O4  353   2.479   1.700   7.205
    3MOL     H9  354   2.545   1.744   7.146
    3MOL     C6  355   2.420   1.736   7.441
    3MOL    H10  356   2.497   1.663   7.469
    3MOL     O5  357   2.291   1.675   7.424
    3MOL     C7  358   2.275   1.536   7.458
    3MOL    H11  359   2.372   1.487   7.474
    3MOL     O6  360   2.194   1.527   7.577
    3MOL     C8  361   2.064   1.592   7.566
    3MOL    H12  362   2.080   1.696   7.538
    3MOL     C9  363   1.996   1.598   7.705
    3MOL    H13  364   1.988   1.498   7.748
    3MOL    H14  365   1.894   1.636   7.694
    3MOL     O7  366   2.068   1.682   7.796
    3MOL    H15  367   2.048   1.644   7.884
    3MOL    C10  368   2.203   1.467   7.340
    3MOL    H16  369   2.195   1.360   7.362
    3MOL     O8  370   2.278   1.491   7.221
    3MOL    H17  371   2.316   1.581   7.230
    3MOL    C11  372   2.060   1.518   7.320
    3MOL    H18  373   2.073   1.620   7.282
    3MOL     O9  374   1.994   1.442   7.219
    3MOL    H19  375   2.064   1.426   7.152
    3MOL    C12  376   1.981   1.519   7.455
    3MOL    H20  377   1.962   1.415   7.484
    3MOL    O10  378   1.858   1.592   7.434
    3MOL    C13  379   1.731   1.527   7.452
    3MOL    H21  380   1.743   1.419   7.465
    3MOL    O11  381   1.666   1.586   7.567
    3MOL    C14  382   1.642   1.730   7.562
    3MOL    H22  383   1.738   1.782   7.559
    3MOL    C15  384   1.568   1.772   7.691
    3MOL    H23  385   1.551   1.880   7.688
    3MOL    H24  386   1.635   1.751   7.775
    3MOL    O12  387   1.444   1.702   7.709
    3MOL    H25  388   1.368   1.763   7.698
    3MOL    C16  389   1.643   1.553   7.326
    3MOL    H26  390   1.547   1.502   7.339
    3MOL    O13  391   1.713   1.500   7.213
    3MOL    H27  392   1.807   1.522   7.227
    3MOL    C17  393   1.617   1.705   7.307
    3MOL    H28  394   1.714   1.753   7.286
    3MOL    O14  395   1.527   1.730   7.198
    3MOL    H29  396   1.578   1.706   7.116
    3MOL    C18  397   1.561   1.769   7.436
    3MOL    H30  398   1.456   1.739   7.448
    3MOL    O15  399   1.574   1.913   7.418
    3MOL    C19  400   1.455   1.993   7.433
    3MOL    H31  401   1.365   1.931   7.442
    3MOL    O16  402   1.469   2.076   7.551
    3MOL    C20  403   1.585   2.164   7.553
    3MOL    H32  404   1.676   2.103   7.551
    3MOL    C21  405   1.585   2.245   7.685
    3MOL    H33  406   1.682   2.294   7.698
    3MOL    H34  407   1.571   2.177   7.770
    3MOL    O17  408   1.482   2.344   7.687
    3MOL    H35  409   1.500   2.402   7.765
    3MOL    C22  410   1.439   2.085   7.309
    3MOL    H36  411   1.346   2.141   7.320
    3MOL    O18  412   1.434   2.003   7.192
    3MOL    H37  413   1.437   1.911   7.225
    3MOL    C23  414   1.557   2.184   7.295
    3MOL    H38  415   1.646   2.124   7.273
    3MOL    O19  416   1.534   2.279   7.187
    3MOL    H39  417   1.550   2.233   7.102
    3MOL    C24  418   1.586   2.257   7.428
    3MOL    H40  419   1.512   2.338   7.440
    3MOL    O20  420   1.720   2.309   7.412
    3MOL    C25  421   1.741   2.450   7.433
    3MOL    H41  422   1.645   2.504   7.445
    3MOL    O21  423   1.820   2.468   7.553
    3MOL    C26  424   1.949   2.401   7.549
    3MOL    H42  425   1.933   2.294   7.528
    3MOL    C27  426   2.018   2.412   7.688
    3MOL    H43  427   2.085   2.327   7.703
    3MOL    H44  428   1.942   2.408   7.766
    3MOL    O22  429   2.096   2.531   7.699
    3MOL    H45  430   2.187   2.496   7.686
    3MOL    C28  431   1.817   2.508   7.309
    3MOL    H46  432   1.822   2.617   7.319
    3MOL    O23  433   1.749   2.472   7.189
    3MOL    H47  434   1.673   2.418   7.221
    3MOL    C29  435   1.959   2.453   7.298
    3MOL    H48  436   1.949   2.347   7.273
    3MOL    O24  437   2.032   2.521   7.194
    3MOL    H49  438   1.965   2.560   7.135
    3MOL    C30  439   2.032   2.462   7.433
    3MOL    H50  440   2.052   2.568   7.454
    3MOL    O25  441   2.153   2.387   7.418
    3MOL    C31  442   2.275   2.453   7.459
    3MOL    H51  443   2.257   2.559   7.481
    3MOL    O26  444   2.324   2.385   7.576
    3MOL    C32  445   2.356   2.244   7.561
    3MOL    H52  446   2.264   2.189   7.537
    3MOL    C33  447   2.410   2.195   7.697
    3MOL    H53  448   2.466   2.276   7.744
    3MOL    H54  449   2.480   2.112   7.683
    3MOL    O27  450   2.304   2.153   7.785
    3MOL    H55  451   2.282   2.060   7.762
    3MOL    C34  452   2.378   2.445   7.344
    3MOL    H56  453   2.470   2.495   7.374
    3MOL    O28  454   2.323   2.507   7.228
    3MOL    H57  455   2.229   2.478   7.223
    3MOL    C35  456   2.408   2.297   7.315
    3MOL    H58  457   2.312   2.250   7.288
    3MOL    O29  458   2.499   2.282   7.206
    3MOL    H59  459   2.444   2.314   7.131
    3MOL    C36  460   2.454   2.221   7.442
    3MOL    H60  461   2.556   2.252   7.468
    3MOL    O30  462   2.446   2.083   7.404
    4SOL     OW  463   0.232   0.651   0.120
    4SOL    HW1  464   0.138   0.644   0.134
    4SOL    HW2  465   0.248   0.603   0.038
    5SOL     OW  466   0.225   0.288   0.984
    5SOL    HW1  467   0.248   0.249   1.068
    5SOL    HW2  468   0.131   0.273   0.976
    6SOL     OW  469   0.018   0.387   0.632
    6SOL    HW1  470   3.930   0.398   0.667
    6SOL    HW2  471   0.025   0.294   0.612
    7SOL     OW  472   0.578   1.285   1.186
    7SOL    HW1  473   0.491   1.288   1.145
    7SOL    HW2  474   0.592   1.373   1.219
    8SOL     OW  475   1.563   1.512   0.708
    8SOL    HW1  476   1.519   1.493   0.791
    8SOL    HW2  477   1.491   1.517   0.644
    9SOL     OW  478   1.132   0.698   0.700
    9SOL    HW1  479   1.180   0.780   0.687
    9SOL    HW2  480   1.084   0.711   0.782
   10SOL     OW  481   1.755   0.623   0.220
   10SOL    HW1  482   1.776   0.597   0.130
   10SOL    HW2  483   1.759   0.541   0.270
   11SOL     OW  484   0.756   1.141   1.039
   11SOL    HW1  485   0.691   1.175   1.100
   11SOL    HW2  486   0.791   1.219   0.995
   12SOL     OW  487   0.868   0.774   1.823
   12SOL    HW1  488   0.856   0.846   1.885
   12SOL    HW2  489   0.890   0.817   1.740
   13SOL     OW  490   0.685   1.004   0.647
   13SOL    HW1  491   0.750   0.991   0.716
   13SOL    HW2  492   0.616   1.055   0.689
   14SOL     OW  493   0.710   1.150   1.813
   14SOL    HW1  494   0.758   1.228   1.840
   14SOL    HW2  495   0.628   1.183   1.777
   15SOL     OW  496   0.351   1.402   1.078
   15SOL    HW1  497   0.269   1.384   1.032
   15SOL    HW2  498   0.399   1.461   1.020
   16SOL     OW  499   1.461   1.500   1.354
   16SOL    HW1  500   1.512   1.581   1.363
   16SOL    HW2  501   1.399   1.503   1.427
   17SOL     OW  502   0.455   0.407   1.498
   17SOL    HW1  503   0.536   0.356   1.495
   17SOL    HW2  504   0.385   0.342   1.500
   18SOL     OW  505   1.612   0.450   0.735
   18SOL    HW1  506   1.540   0.483   0.681
   18SOL    HW2  507   1.635   0.524   0.791
   19SOL     OW  508   0.225   1.709   0.473
   19SOL    HW1  509   0.242   1.790   0.521
   19SOL    HW2  510   0.287   1.711   0.400
   20SOL     OW  511   1.137   1.342   1.693
   20SOL    HW1  512   1.177   1.337   1.779
   20SOL    HW2  513   1.084   1.262   1.686
   21SOL     OW  514   0.244   1.446   0.543
   21SOL    HW1  515   0.223   1.538   0.528
   21SOL    HW2  516   0.170   1.411   0.593
   22SOL     OW  517   0.246   1.068   0.884
   22SOL    HW1  518   0.266   0.983   0.924
   22SOL    HW2  519   0.194   1.114   0.950
   23SOL     OW  520   0.612   1.791   1.429
   23SOL    HW1  521   0.530   1.773   1.474
   23SOL    HW2  522   0.635   1.881   1.454
   24SOL     OW  523   0.565   0.981   0.161
   24SOL    HW1  524   0.587   1.029   0.081
   24SOL    HW2  525   0.620   1.020   0.229
   25SOL     OW  526   1.579   0.138   1.457
   25SOL    HW1  527   1.606   0.211   1.401
   25SOL    HW2  528   1.552   0.178   1.539
   26SOL     OW  529   0.138   0.652   0.569
   26SOL    HW1  530   0.095   0.566   0.575
   26SOL    HW2  531   0.102   0.701   0.642
   27SOL     OW  532   0.021   1.601   0.135
   27SOL    HW1  533   0.026   1.505   0.143
   27SOL    HW2  534   3.968   1.629   0.209
   28SOL     OW  535   1.687   0.917   0.641
   28SOL    HW1  536   1.772   0.877   0.624
   28SOL    HW2  537   1.668   0.968   0.563
   29SOL     OW  538   1.648   1.107   0.430
   29SOL    HW1  539   1.736   1.109   0.392
   29SOL    HW2  540   1.652   1.168   0.504
   30SOL     OW  541   0.137   0.755   1.589
   30SOL    HW1  542   0.232   0.749   1.589
   30SOL    HW2  543   0.119   0.845   1.614
   31SOL     OW  544   0.612   1.385   0.736
   31SOL    HW1  545   0.566   1.302   0.745
   31SOL    HW2  546   0.597   1.412   0.645
   32SOL     OW  547   1.288   1.238   1.423
   32SOL    HW1  548   1.321   1.171   1.363
   32SOL    HW2  549   1.346   1.232   1.499
   33SOL     OW  550   0.821   0.002   0.519
   33SOL    HW1  551   0.865   0.084   0.493
   33SOL    HW2  552   0.728   0.024   0.518
   34SOL     OW  553   0.185   0.952   1.276
   34SOL    HW1  554   0.273   0.917   1.263
   34SOL    HW2  555   0.131   0.908   1.211
   35SOL     OW  556   1.531   0.995   0.203
   35SOL    HW1  557   1.463   0.936   0.236
   35SOL    HW2  558   1.571   1.031   0.282
   36SOL     OW  559   1.185   1.807   1.623
   36SOL    HW1  560   1.196   1.865   1.548
   36SOL    HW2  561   1.202   1.719   1.587
   37SOL     OW  562   0.342   0.253   1.830
   37SOL    HW1  563   0.386   0.337   1.815
   37SOL    HW2  564   0.252   0.277   1.851
   38SOL     OW  565   1.465   1.420   0.951
   38SOL    HW1  566   1.397   1.434   1.017
   38SOL    HW2  567   1.453   1.328   0.924
   39SOL     OW  568   1.670   1.734   0.575
   39SOL    HW1  569   1.625   1.721   0.492
   39SOL    HW2  570   1.646   1.657   0.628
   40SOL     OW  571   0.596   0.718   0.263
   40SOL    HW1  572   0.598   0.801   0.215
   40SOL    HW2  573   0.536   0.734   0.336
   41SOL     OW  574   1.275   0.366   0.940
   41SOL    HW1  575   1.188   0.327   0.946
   41SOL    HW2  576   1.333   0.304   0.986
   42SOL     OW  577   1.560   1.727   0.313
   42SOL    HW1  578   1.637   1.670   0.318
   42SOL    HW2  579   1.524   1.711   0.226
   43SOL     OW  580   0.794   0.616   1.454
   43SOL    HW1  581   0.765   0.591   1.542
   43SOL    HW2  582   0.755   0.552   1.396
   44SOL     OW  583   1.392   0.477   1.677
   44SOL    HW1  584   1.397   0.521   1.762
   44SOL    HW2  585   1.451   0.402   1.686
   45SOL     OW  586   0.954   0.888   1.583
   45SOL    HW1  587   1.009   0.818   1.547
   45SOL    HW2  588   0.906   0.921   1.507
   46SOL     OW  589   0.991   0.404   1.240
   46SOL    HW1  590   0.907   0.427   1.280
   46SOL    HW2  591   0.968   0.372   1.153
   47SOL     OW  592   1.051   0.702   0.428
   47SOL    HW1  593   1.066   0.692   0.522
   47SOL    HW2  594   0.969   0.655   0.413
   48SOL     OW  595   0.082   0.826   0.791
   48SOL    HW1  596   0.158   0.794   0.839
   48SOL    HW2  597   0.096   0.920   0.782
   49SOL     OW  598   0.129   1.858   1.574
   49SOL    HW1  599   0.137   1.824   1.663
   49SOL    HW2  600   0.037   1.846   1.552
   50SOL     OW  601   0.874   0.361   0.219
   50SOL    HW1  602   0.912   0.418   0.152
   50SOL    HW2  603   0.879   0.273   0.181
   51SOL     OW  604   1.710   0.576   1.829
   51SOL    HW1  605   1.671   0.649   1.781
   51SOL    HW2  606   1.734   0.513   1.761
   52SOL     OW  607   1.378   1.142   0.543
   52SOL    HW1  608   1.456   1.129   0.489
   52SOL    HW2  609   1.324   1.204   0.493
   53SOL     OW  610   0.560   0.196   0.882
   53SOL    HW1  611   0.563   0.218   0.975
   53SOL    HW2  612   0.549   0.280   0.838
   54SOL     OW  613   1.007   1.443   0.476
   54SOL    HW1  614   0.971   1.516   0.425
   54SOL    HW2  615   0.986   1.465   0.567
   55SOL     OW  616   0.364   1.814   0.868
   55SOL    HW1  617   0.429   1.744   0.875
   55SOL    HW2  618   0.415   1.894   0.884
   56SOL     OW  619   1.799   1.054   0.870
   56SOL    HW1  620   1.744   1.039   0.793
   56SOL    HW2  621   1.737   1.061   0.942
   57SOL     OW  622   1.228   1.539   1.513
   57SOL    HW1  623   1.214   1.466   1.574
   57SOL    HW2  624   1.165   1.524   1.443
   58SOL     OW  625   0.312   0.934   0.239
   58SOL    HW1  626   0.402   0.949   0.212
   58SOL    HW2  627   0.300   0.839   0.232
   59SOL     OW  628   1.477   0.745   0.731
   59SOL    HW1  629   1.470   0.701   0.816
   59SOL    HW2  630   1.555   0.799   0.737
   60SOL     OW  631   0.466   1.260   1.737
   60SOL    HW1  632   0.440   1.268   1.645
   60SOL    HW2  633   0.384   1.264   1.786
   61SOL     OW  634   1.120   1.779   0.231
   61SOL    HW1  635   1.057   1.732   0.286
   61SOL    HW2  636   1.149   1.714   0.167
   62SOL     OW  637   0.200   0.295   1.499
   62SOL    HW1  638   0.106   0.316   1.497
   62SOL    HW2  639   0.208   0.228   1.566
   63SOL     OW  640   1.631   1.373   0.087
   63SOL    HW1  641   1.595   1.456   0.054
   63SOL    HW2  642   1.564   1.308   0.067
   64SOL     OW  643   0.479   1.733   0.323
   64SOL    HW1  644   0.518   1.791   0.388
   64SOL    HW2  645   0.554   1.701   0.271
   65SOL     OW  646   1.439   0.143   0.395
   65SOL    HW1  647   1.395   0.059   0.380
   65SOL    HW2  648   1.517   0.120   0.444
   66SOL     OW  649   0.251   1.791   1.232
   66SOL    HW1  650   0.299   1.728   1.285
   66SOL    HW2  651   0.247   1.751   1.145
   67SOL     OW  652   0.937   1.699   0.899
   67SOL    HW1  653   1.015   1.648   0.920
   67SOL    HW2  654   0.894   1.648   0.830
   68SOL     OW  655   0.395   0.695   0.471
   68SOL    HW1  656   0.420   0.604   0.483
   68SOL    HW2  657   0.303   0.698   0.499
   69SOL     OW  658   1.530   0.231   1.727
   69SOL    HW1  659   1.529   0.255   1.819
   69SOL    HW2  660   1.505   0.138   1.726
   70SOL     OW  661   0.628   0.107   0.121
   70SOL    HW1  662   0.724   0.106   0.125
   70SOL    HW2  663   0.608   0.131   0.031
   71SOL     OW  664   0.778   0.282   1.765
   71SOL    HW1  665   0.846   0.216   1.769
   71SOL    HW2  666   0.718   0.260   1.836
   72SOL     OW  667   0.876   1.521   1.194
   72SOL    HW1  668   0.861   1.485   1.107
   72SOL    HW2  669   0.946   1.467   1.231
   73SOL     OW  670   1.341   0.587   1.430
   73SOL    HW1  671   1.371   0.558   1.516
   73SOL    HW2  672   1.375   0.676   1.422
   74SOL     OW  673   0.815   1.395   0.939
   74SOL    HW1  674   0.900   1.383   0.896
   74SOL    HW2  675   0.752   1.395   0.867
   75SOL     OW  676   0.929   0.511   0.901
   75SOL    HW1  677   0.905   0.503   0.809
   75SOL    HW2  678   0.956   0.423   0.927
   76SOL     OW  679   0.550   0.053   0.498
   76SOL    HW1  680   0.475   0.060   0.557
   76SOL    HW2  681   0.544   0.131   0.443
   77SOL     OW  682   1.430   1.203   0.045
   77SOL    HW1  683   1.450   1.123   0.092
   77SOL    HW2  684   1.338   1.220   0.064
   78SOL     OW  685   0.356   3.989   0.172
   78SOL    HW1  686   0.323   0.074   0.145
   78SOL    HW2  687   0.424   0.009   0.237
   79SOL     OW  688   0.940   0.248   0.466
   79SOL    HW1  689   0.909   0.287   0.384
   79SOL    HW2  690   1.035   0.249   0.458
   80SOL     OW  691   1.079   0.682   1.459
   80SOL    HW1  692   1.009   0.617   1.466
   80SOL    HW2  693   1.159   0.629   1.454
   81SOL     OW  694   1.223   1.570   0.794
   81SOL    HW1  695   1.240   1.638   0.729
   81SOL    HW2  696   1.292   1.583   0.860
   82SOL     OW  697   0.465   1.150   0.736
   82SOL    HW1  698   0.394   1.126   0.795
   82SOL    HW2  699   0.429   1.136   0.648
   83SOL     OW  700   1.266   1.794   0.606
   83SOL    HW1  701   1.312   1.858   0.551
   83SOL    HW2  702   1.201   1.846   0.653
   84SOL     OW  703   1.001   0.535   0.055
   84SOL    HW1  704   1.002   0.539  13.859
   84SOL    HW2  705   1.091   0.555   0.081
   85SOL     OW  706   0.079   0.571   1.393
   85SOL    HW1  707   0.168   0.554   1.362
   85SOL    HW2  708   0.089   0.643   1.456
   86SOL     OW  709   0.572   0.231   1.160
   86SOL    HW1  710   0.595   0.139   1.169
   86SOL    HW2  711   0.481   0.237   1.190
   87SOL     OW  712   0.871   0.462   0.638
   87SOL    HW1  713   0.823   0.515   0.575
   87SOL    HW2  714   0.890   0.380   0.592
   88SOL     OW  715   0.996   0.042   0.778
   88SOL    HW1  716   0.956   0.067   0.695
   88SOL    HW2  717   1.006   3.947   0.772
   89SOL     OW  718   1.437   1.162   0.857
   89SOL    HW1  719   1.368   1.096   0.856
   89SOL    HW2  720   1.460   1.174   0.765
   90SOL     OW  721   1.466   0.605   0.977
   90SOL    HW1  722   1.413   0.525   0.982
   90SOL    HW2  723   1.526   0.599   1.051
   91SOL     OW  724   1.847   0.818   0.383
   91SOL    HW1  725   1.900   0.763   0.441
   91SOL    HW2  726   1.812   0.758   0.317
   92SOL     OW  727   0.496   1.378   0.168
   92SOL    HW1  728   0.421   1.356   0.222
   92SOL    HW2  729   0.458   1.413   0.087
   93SOL     OW  730   1.671   1.266   0.643
   93SOL    HW1  731   1.765   1.266   0.660
   93SOL    HW2  732   1.642   1.354   0.667
   94SOL     OW  733   1.418   0.590   0.086
   94SOL    HW1  734   1.349   0.575   0.151
   94SOL    HW2  735   1.473   0.512   0.091
   95SOL     OW  736   0.526   0.257   0.325
   95SOL    HW1  737   0.563   0.208   0.252
   95SOL    HW2  738   0.507   0.344   0.289
   96SOL     OW  739   1.752   1.239   1.573
   96SOL    HW1  740   1.839   1.200   1.569
   96SOL    HW2  741   1.767   1.329   1.601
   97SOL     OW  742   1.058   1.354   1.334
   97SOL    HW1  743   0.983   1.322   1.385
   97SOL    HW2  744   1.134   1.312   1.375
   98SOL     OW  745   1.607   1.625   1.653
   98SOL    HW1  746   1.602   1.661   1.565
   98SOL    HW2  747   1.691   1.579   1.655
   99SOL     OW  748   1.129   1.204   1.105
   99SOL    HW1  749   1.070   1.241   1.170
   99SOL    HW2  750   1.096   1.236   1.021
  100SOL     OW  751   1.628   1.098   1.077
  100SOL    HW1  752   1.623   1.160   1.150
  100SOL    HW2  753   1.549   1.116   1.026
  101SOL     OW  754   0.913   0.112   1.402
  101SOL    HW1  755   0.933   0.087   1.311
  101SOL    HW2  756   0.994   0.154   1.433
  102SOL     OW  757   0.984   1.115   1.723
  102SOL    HW1  758   0.892   1.131   1.744
  102SOL    HW2  759   0.983   1.037   1.667
  103SOL     OW  760   0.714   1.060   0.376
  103SOL    HW1  761   0.699   1.043   0.469
  103SOL    HW2  762   0.788   1.004   0.353
  104SOL     OW  763   0.421   0.816   1.252
  104SOL    HW1  764   0.490   0.822   1.318
  104SOL    HW2  765   0.386   0.727   1.262
  105SOL     OW  766   1.266   0.375   1.276
  105SOL    HW1  767   1.300   0.453   1.320
  105SOL    HW2  768   1.179   0.401   1.246
  106SOL     OW  769   0.065   1.580   1.345
  106SOL    HW1  770   0.069   1.643   1.274
  106SOL    HW2  771   0.156   1.566   1.371
  107SOL     OW  772   0.366   1.104   0.482
  107SOL    HW1  773   0.359   1.181   0.426
  107SOL    HW2  774   0.381   1.031   0.422
  108SOL     OW  775   0.556   0.536   0.859
  108SOL    HW1  776   0.571   0.594   0.784
  108SOL    HW2  777   0.621   0.563   0.924
  109SOL     OW  778   1.249   1.346   0.397
  109SOL    HW1  779   1.304   1.419   0.424
  109SOL    HW2  780   1.161   1.369   0.429
  110SOL     OW  781   1.281   1.458   1.147
  110SOL    HW1  782   1.337   1.461   1.225
  110SOL    HW2  783   1.226   1.381   1.161
  111SOL     OW  784   1.583   0.635   0.489
  111SOL    HW1  785   1.538   0.693   0.550
  111SOL    HW2  786   1.616   0.693   0.420
  112SOL     OW  787   0.345   1.526   1.319
  112SOL    HW1  788   0.336   1.476   1.238
  112SOL    HW2  789   0.440   1.542   1.327
  113SOL     OW  790   0.414   0.739   1.601
  113SOL    HW1  791   0.476   0.785   1.544
  113SOL    HW2  792   0.453   0.653   1.614
  114SOL     OW  793   1.601   0.779   1.683
  114SOL    HW1  794   1.515   0.820   1.676
  114SOL    HW2  795   1.654   0.820   1.615
  115SOL     OW  796   1.016   0.127   1.778
  115SOL    HW1  797   1.061   0.202   1.739
  115SOL    HW2  798   1.005   0.065   1.705
  116SOL     OW  799   0.480   0.036   1.766
  116SOL    HW1  800   0.491   0.043   1.672
  116SOL    HW2  801   0.419   0.107   1.789
  117SOL     OW  802   0.584   0.874   1.031
  117SOL    HW1  803   0.615   0.965   1.032
  117SOL    HW2  804   0.528   0.867   1.108
  118SOL     OW  805   1.357   0.859   1.029
  118SOL    HW1  806   1.273   0.848   0.984
  118SOL    HW2  807   1.398   0.772   1.024
  119SOL     OW  808   1.217   0.547   0.270
  119SOL    HW1  809   1.223   0.467   0.321
  119SOL    HW2  810   1.161   0.605   0.322
  120SOL     OW  811   0.312   0.213   1.241
  120SOL    HW1  812   0.270   0.248   1.320
  120SOL    HW2  813   0.295   0.119   1.245
  121SOL     OW  814   0.059   1.305   1.280
  121SOL    HW1  815   0.090   1.265   1.361
  121SOL    HW2  816   0.051   1.398   1.302
  122SOL     OW  817   0.726   0.634   1.055
  122SOL    HW1  818   0.799   0.617   0.996
  122SOL    HW2  819   0.697   0.722   1.033
  123SOL     OW  820   1.735   0.959   1.853
  123SOL    HW1  821   1.689   0.898   1.796
  123SOL    HW2  822   1.675   0.973   1.927
  124SOL     OW  823   0.329   0.058   0.652
  124SOL    HW1  824   0.302   0.150   0.659
  124SOL    HW2  825   0.280   0.013   0.720
  125SOL     OW  826   1.576   0.389   0.391
  125SOL    HW1  827   1.558   0.326   0.460
  125SOL    HW2  828   1.569   0.474   0.433
  126SOL     OW  829   1.029   0.759   0.960
  126SOL    HW1  830   1.024   0.777   1.054
  126SOL    HW2  831   1.001   0.668   0.951
  127SOL     OW  832   0.982   1.566   1.717
  127SOL    HW1  833   0.967   1.610   1.634
  127SOL    HW2  834   1.026   1.484   1.694
  128SOL     OW  835   1.855   1.504   1.605
  128SOL    HW1  836   1.870   1.534   1.515
  128SOL    HW2  837   1.938   1.518   1.649
  129SOL     OW  838   0.352   0.921   1.800
  129SOL    HW1  839   0.430   0.941   1.851
  129SOL    HW2  840   0.380   0.854   1.738
  130SOL     OW  841   1.540   0.269   0.146
  130SOL    HW1  842   1.470   0.203   0.146
  130SOL    HW2  843   1.539   0.304   0.235
  131SOL     OW  844   1.291   0.832   0.055
  131SOL    HW1  845   1.337   0.748   0.061
  131SOL    HW2  846   1.310   0.863  13.867
  132SOL     OW  847   1.065   1.336   0.854
  132SOL    HW1  848   1.069   1.263   0.791
  132SOL    HW2  849   1.127   1.400   0.819
  133SOL     OW  850   0.313   0.805   0.950
  133SOL    HW1  851   0.408   0.821   0.945
  133SOL    HW2  852   0.306   0.715   0.983
  134SOL     OW  853   0.338   0.528   1.014
  134SOL    HW1  854   0.298   0.443   0.996
  134SOL    HW2  855   0.413   0.531   0.955
  135SOL     OW  856   1.133   0.382   1.694
  135SOL    HW1  857   1.085   0.437   1.756
  135SOL    HW2  858   1.220   0.421   1.689
  136SOL     OW  859   1.151   0.225   1.481
  136SOL    HW1  860   1.142   0.280   1.559
  136SOL    HW2  861   1.175   0.286   1.411
  137SOL     OW  862   0.011   1.326   0.189
  137SOL    HW1  863   3.917   1.339   0.184
  137SOL    HW2  864   0.021   1.235   0.218
  138SOL     OW  865   0.077   1.800   0.889
  138SOL    HW1  866   0.079   1.705   0.895
  138SOL    HW2  867   0.168   1.827   0.892
  139SOL     OW  868   0.503   1.571   0.910
  139SOL    HW1  869   0.573   1.631   0.936
  139SOL    HW2  870   0.546   1.507   0.853
  140SOL     OW  871   0.982   0.791   1.226
  140SOL    HW1  872   1.037   0.769   1.301
  140SOL    HW2  873   0.896   0.753   1.247
  141SOL     OW  874   0.036   0.570   1.113
  141SOL    HW1  875   0.099   0.518   1.062
  141SOL    HW2  876   0.061   0.556   1.204
  142SOL     OW  877   0.210   0.516   1.722
  142SOL    HW1  878   0.258   0.479   1.648
  142SOL    HW2  879   0.161   0.589   1.684
  143SOL     OW  880   1.377   0.938   1.658
  143SOL    HW1  881   1.399   1.032   1.656
  143SOL    HW2  882   1.374   0.912   1.566
  144SOL     OW  883   0.815   0.580   0.369
  144SOL    HW1  884   0.827   0.502   0.315
  144SOL    HW2  885   0.741   0.626   0.330
  145SOL     OW  886   1.641   0.602   1.186
  145SOL    HW1  887   1.631   0.541   1.259
  145SOL    HW2  888   1.729   0.584   1.151
  146SOL     OW  889   0.298   1.545   1.728
  146SOL    HW1  890   0.249   1.615   1.771
  146SOL    HW2  891   0.265   1.464   1.767
  147SOL     OW  892   0.704   0.456   1.259
  147SOL    HW1  893   0.656   0.377   1.233
  147SOL    HW2  894   0.696   0.515   1.184
  148SOL     OW  895   0.927   1.679   1.468
  148SOL    HW1  896   0.902   1.644   1.383
  148SOL    HW2  897   0.923   1.774   1.457
  149SOL     OW  898   0.436   0.493   0.229
  149SOL    HW1  899   0.507   0.556   0.240
  149SOL    HW2  900   0.362   0.547   0.199
  150SOL     OW  901   0.157   1.136   1.473
  150SOL    HW1  902   0.159   1.084   1.554
  150SOL    HW2  903   0.172   1.071   1.404
  151SOL     OW  904   1.325   1.047   1.223
  151SOL    HW1  905   1.349   0.983   1.155
  151SOL    HW2  906   1.256   1.099   1.184
  152SOL     OW  907   1.312   0.858   0.326
  152SOL    HW1  908   1.236   0.824   0.375
  152SOL    HW2  909   1.289   0.845   0.234
  153SOL     OW  910   1.760   1.740   1.149
  153SOL    HW1  911   1.828   1.768   1.087
  153SOL    HW2  912   1.742   1.649   1.125
  154SOL     OW  913   1.242   1.734   1.111
  154SOL    HW1  914   1.325   1.754   1.067
  154SOL    HW2  915   1.248   1.640   1.130
  155SOL     OW  916   0.077   1.217   1.028
  155SOL    HW1  917   0.083   1.242   1.120
  155SOL    HW2  918   3.983   1.225   1.007
  156SOL     OW  919   0.679   1.666   1.730
  156SOL    HW1  920   0.622   1.743   1.724
  156SOL    HW2  921   0.744   1.678   1.661
  157SOL     OW  922   0.903   0.104   0.137
  157SOL    HW1  923   0.941   0.090   0.050
  157SOL    HW2  924   0.911   0.020   0.181
  158SOL     OW  925   1.702   0.126   0.493
  158SOL    HW1  926   1.784   0.135   0.443
  158SOL    HW2  927   1.694   0.033   0.510
  159SOL     OW  928   1.389   1.573   0.484
  159SOL    HW1  929   1.444   1.610   0.415
  159SOL    HW2  930   1.339   1.647   0.518
  160SOL     OW  931   0.174   1.766   1.829
  160SOL    HW1  932   0.115   1.717   1.887
  160SOL    HW2  933   0.215   1.830   1.886
  161SOL     OW  934   1.276   0.927   0.671
  161SOL    HW1  935   1.350   0.866   0.680
  161SOL    HW2  936   1.310   0.999   0.618
  162SOL     OW  937   0.814   1.273   1.430
  162SOL    HW1  938   0.785   1.313   1.512
  162SOL    HW2  939   0.743   1.292   1.368
  163SOL     OW  940   0.676   1.584   0.185
  163SOL    HW1  941   0.663   1.618   0.096
  163SOL    HW2  942   0.629   1.500   0.185
  164SOL     OW  943   1.624   1.728   1.391
  164SOL    HW1  944   1.674   1.734   1.309
  164SOL    HW2  945   1.615   1.819   1.419
  165SOL     OW  946   1.838   0.177   0.967
  165SOL    HW1  947   1.871   0.105   0.912
  165SOL    HW2  948   1.751   0.195   0.934
  166SOL     OW  949   0.271   0.321   0.715
  166SOL    HW1  950   0.186   0.358   0.692
  166SOL    HW2  951   0.266   0.304   0.809
  167SOL     OW  952   1.216   1.602   0.034
  167SOL    HW1  953   1.206   1.511   0.061
  167SOL    HW2  954   1.179   1.605  13.846
  168SOL     OW  955   0.823   1.005   1.373
  168SOL    HW1  956   0.867   1.001   1.287
  168SOL    HW2  957   0.823   1.098   1.395
  169SOL     OW  958   0.920   0.911   0.287
  169SOL    HW1  959   0.991   0.949   0.235
  169SOL    HW2  960   0.962   0.840   0.336
  170SOL     OW  961   1.485   1.642   0.065
  170SOL    HW1  962   1.391   1.626   0.053
  170SOL    HW2  963   1.521   1.637  13.877
  171SOL     OW  964   0.374   1.303   1.491
  171SOL    HW1  965   0.358   1.383   1.441
  171SOL    HW2  966   0.297   1.248   1.474
  172SOL     OW  967   1.610   1.283   1.280
  172SOL    HW1  968   1.671   1.272   1.353
  172SOL    HW2  969   1.550   1.352   1.308
  173SOL     OW  970   1.052   1.107   0.706
  173SOL    HW1  971   0.982   1.056   0.746
  173SOL    HW2  972   1.116   1.042   0.677
  174SOL     OW  973   1.015   0.248   0.968
  174SOL    HW1  974   1.004   0.198   0.887
  174SOL    HW2  975   1.009   0.182   1.037
  175SOL     OW  976   0.605   1.488   0.483
  175SOL    HW1  977   0.648   1.438   0.414
  175SOL    HW2  978   0.535   1.536   0.438
  176SOL     OW  979   1.720   0.392   1.373
  176SOL    HW1  980   1.792   0.455   1.377
  176SOL    HW2  981   1.753   0.321   1.319
  177SOL     OW  982   0.263   1.317   0.307
  177SOL    HW1  983   0.187   1.346   0.259
  177SOL    HW2  984   0.260   1.366   0.389
  178SOL     OW  985   0.106   1.000   1.718
  178SOL    HW1  986   0.046   0.990   1.791
  178SOL    HW2  987   0.192   0.980   1.755
  179SOL     OW  988   0.694   0.248   1.498
  179SOL    HW1  989   0.762   0.195   1.457
  179SOL    HW2  990   0.721   0.256   1.590
  180SOL     OW  991   0.067   0.367   0.038
  180SOL    HW1  992   3.975   0.367   0.064
  180SOL    HW2  993   0.067   0.390  13.846
  181SOL     OW  994   1.429   0.857   1.400
  181SOL    HW1  995   1.381   0.919   1.344
  181SOL    HW2  996   1.518   0.860   1.366
  182SOL     OW  997   0.052   0.199   0.321
  182SOL    HW1  998   0.071   0.272   0.262
  182SOL    HW2  999   0.136   0.155   0.334
  183SOL     OW 1000   1.186   1.348   0.122
  183SOL    HW1 1001   1.092   1.332   0.111
  183SOL    HW2 1002   1.201   1.334   0.216
  184SOL     OW 1003   0.619   0.829   1.436
  184SOL    HW1 1004   0.676   0.905   1.420
  184SOL    HW2 1005   0.680   0.756   1.444
  185SOL     OW 1006   1.488   1.781   0.980
  185SOL    HW1 1007   1.511   1.844   0.912
  185SOL    HW2 1008   1.571   1.762   1.025
  186SOL     OW 1009   0.717   0.563   1.707
  186SOL    HW1 1010   0.760   0.626   1.766
  186SOL    HW2 1011   0.747   0.477   1.737
  187SOL     OW 1012   1.471   1.200   1.632
  187SOL    HW1 1013   1.459   1.213   1.726
  187SOL    HW2 1014   1.565   1.215   1.617
  188SOL     OW 1015   0.380   1.742   1.558
  188SOL    HW1 1016   0.292   1.779   1.545
  188SOL    HW2 1017   0.364   1.660   1.606
  189SOL     OW 1018   1.669   0.881   1.256
  189SOL    HW1 1019   1.663   0.796   1.213
  189SOL    HW2 1020   1.660   0.945   1.184
  190SOL     OW 1021   1.230   0.334   0.439
  190SOL    HW1 1022   1.294   0.262   0.434
  190SOL    HW2 1023   1.248   0.376   0.522
  191SOL     OW 1024   0.590   0.739   0.670
  191SOL    HW1 1025   0.627   0.825   0.653
  191SOL    HW2 1026   0.522   0.729   0.604
  192SOL     OW 1027   1.753   0.382   1.643
  192SOL    HW1 1028   1.735   0.387   1.549
  192SOL    HW2 1029   1.696   0.312   1.675
  193SOL     OW 1030   1.744   0.934   1.513
  193SOL    HW1 1031   1.741   1.029   1.525
  193SOL    HW2 1032   1.729   0.922   1.419
  194SOL     OW 1033   0.906   1.398   0.060
  194SOL    HW1 1034   0.836   1.380   0.123
  194SOL    HW2 1035   0.860   1.408  13.876
  195SOL     OW 1036   0.662   1.790   0.943
  195SOL    HW1 1037   0.641   1.881   0.921
  195SOL    HW2 1038   0.757   1.785   0.937
  196SOL     OW 1039   0.868   0.967   0.854
  196SOL    HW1 1040   0.918   0.895   0.893
  196SOL    HW2 1041   0.833   1.015   0.929
  197SOL     OW 1042   1.098   1.010   0.109
  197SOL    HW1 1043   1.086   1.056   0.026
  197SOL    HW2 1044   1.172   0.951   0.094
  198SOL     OW 1045   1.847   1.526   0.823
  198SOL    HW1 1046   1.760   1.533   0.784
  198SOL    HW2 1047   1.835   1.477   0.904
  199SOL     OW 1048   0.224   1.303   1.855
  199SOL    HW1 1049   0.153   1.245   1.830
  199SOL    HW2 1050   0.211   1.317   1.949
  200SOL     OW 1051   0.109   1.277   0.724
  200SOL    HW1 1052   0.125   1.227   0.804
  200SOL    HW2 1053   0.106   1.211   0.655
  201SOL     OW 1054   0.680   1.403   1.628
  201SOL    HW1 1055   0.600   1.360   1.658
  201SOL    HW2 1056   0.676   1.491   1.665
  202SOL     OW 1057   1.812   0.183   1.239
  202SOL    HW1 1058   1.815   0.089   1.253
  202SOL    HW2 1059   1.827   0.194   1.145
  203SOL     OW 1060   0.439   0.436   0.531
  203SOL    HW1 1061   0.467   0.362   0.477
  203SOL    HW2 1062   0.386   0.396   0.600
  204SOL     OW 1063   1.703   1.483   1.089
  204SOL    HW1 1064   1.619   1.463   1.047
  204SOL    HW2 1065   1.713   1.417   1.157
  205SOL     OW 1066   0.331   0.556   1.292
  205SOL    HW1 1067   0.388   0.499   1.345
  205SOL    HW2 1068   0.347   0.527   1.202
  206SOL     OW 1069   0.828   1.578   0.677
  206SOL    HW1 1070   0.815   1.634   0.601
  206SOL    HW2 1071   0.751   1.520   0.677
  207SOL     OW 1072   1.461   0.252   1.111
  207SOL    HW1 1073   1.477   0.165   1.147
  207SOL    HW2 1074   1.404   0.294   1.175
  208SOL     OW 1075   1.005   0.029   1.147
  208SOL    HW1 1076   0.927   3.984   1.114
  208SOL    HW2 1077   1.071   3.960   1.155
  209SOL     OW 1078   0.775   1.324   0.319
  209SOL    HW1 1079   0.743   1.235   0.334
  209SOL    HW2 1080   0.859   1.327   0.366
  210SOL     OW 1081   0.620   1.557   1.285
  210SOL    HW1 1082   0.622   1.639   1.335
  210SOL    HW2 1083   0.708   1.549   1.247
  211SOL     OW 1084   1.323   0.069   0.133
  211SOL    HW1 1085   1.344   3.987   0.088
  211SOL    HW2 1086   1.254   0.046   0.195
  212SOL     OW 1087   1.284   0.457   0.685
  212SOL    HW1 1088   1.236   0.539   0.681
  212SOL    HW2 1089   1.287   0.436   0.779
  213SOL     OW 1090   1.588   0.210   0.867
  213SOL    HW1 1091   1.539   0.233   0.946
  213SOL    HW2 1092   1.588   0.290   0.815
  214SOL     OW 1093   0.042   1.034   0.254
  214SOL    HW1 1094   0.136   1.019   0.250
  214SOL    HW2 1095   0.008   0.961   0.306
  215SOL     OW 1096   0.893   1.653   0.344
  215SOL    HW1 1097   0.819   1.623   0.291
  215SOL    HW2 1098   0.858   1.727   0.395
  216SOL     OW 1099   0.233   0.626   1.980
  216SOL    HW1 1100   0.140   0.631   2.002
  216SOL    HW2 1101   0.234   0.597   1.889
  217SOL     OW 1102   0.225   0.287   2.845
  217SOL    HW1 1103   0.248   0.250   2.930
  217SOL    HW2 1104   0.130   0.273   2.838
  218SOL     OW 1105   0.018   0.386   2.497
  218SOL    HW1 1106   3.929   0.398   2.529
  218SOL    HW2 1107   0.026   0.292   2.480
  219SOL     OW 1108   0.578   1.285   3.048
  219SOL    HW1 1109   0.491   1.288   3.007
  219SOL    HW2 1110   0.592   1.373   3.081
  220SOL     OW 1111   1.563   1.513   2.571
  220SOL    HW1 1112   1.520   1.494   2.654
  220SOL    HW2 1113   1.492   1.519   2.507
  221SOL     OW 1114   1.132   0.698   2.562
  221SOL    HW1 1115   1.180   0.780   2.549
  221SOL    HW2 1116   1.084   0.711   2.644
  222SOL     OW 1117   1.762   0.618   2.089
  222SOL    HW1 1118   1.743   0.610   1.996
  222SOL    HW2 1119   1.751   0.530   2.123
  223SOL     OW 1120   0.757   1.141   2.902
  223SOL    HW1 1121   0.691   1.175   2.962
  223SOL    HW2 1122   0.791   1.219   2.857
  224SOL     OW 1123   0.868   0.774   3.685
  224SOL    HW1 1124   0.856   0.846   3.747
  224SOL    HW2 1125   0.890   0.817   3.602
  225SOL     OW 1126   0.686   1.004   2.509
  225SOL    HW1 1127   0.751   0.991   2.577
  225SOL    HW2 1128   0.616   1.055   2.551
  226SOL     OW 1129   0.710   1.150   3.675
  226SOL    HW1 1130   0.758   1.228   3.702
  226SOL    HW2 1131   0.628   1.183   3.639
  227SOL     OW 1132   0.351   1.402   2.941
  227SOL    HW1 1133   0.269   1.384   2.894
  227SOL    HW2 1134   0.399   1.461   2.882
  228SOL     OW 1135   1.461   1.500   3.216
  228SOL    HW1 1136   1.512   1.581   3.225
  228SOL    HW2 1137   1.399   1.503   3.289
  229SOL     OW 1138   0.455   0.407   3.360
  229SOL    HW1 1139   0.536   0.356   3.357
  229SOL    HW2 1140   0.385   0.342   3.362
  230SOL     OW 1141   1.612   0.451   2.597
  230SOL    HW1 1142   1.541   0.482   2.542
  230SOL    HW2 1143   1.633   0.525   2.653
  231SOL     OW 1144   0.222   1.717   2.321
  231SOL    HW1 1145   0.240   1.792   2.378
  231SOL    HW2 1146   0.299   1.710   2.265
  232SOL     OW 1147   1.137   1.342   3.555
  232SOL    HW1 1148   1.177   1.336   3.641
  232SOL    HW2 1149   1.084   1.262   3.548
  233SOL     OW 1150   0.247   1.448   2.402
  233SOL    HW1 1151   0.214   1.537   2.388
  233SOL    HW2 1152   0.179   1.405   2.453
  234SOL     OW 1153   0.247   1.068   2.747
  234SOL    HW1 1154   0.265   0.983   2.787
  234SOL    HW2 1155   0.194   1.115   2.812
  235SOL     OW 1156   0.612   1.791   3.291
  235SOL    HW1 1157   0.530   1.773   3.336
  235SOL    HW2 1158   0.635   1.881   3.316
  236SOL     OW 1159   0.580   0.984   1.999
  236SOL    HW1 1160   0.627   1.030   1.929
  236SOL    HW2 1161   0.622   1.013   2.080
  237SOL     OW 1162   1.579   0.138   3.318
  237SOL    HW1 1163   1.606   0.211   3.264
  237SOL    HW2 1164   1.552   0.178   3.401
  238SOL     OW 1165   0.139   0.650   2.431
  238SOL    HW1 1166   0.096   0.565   2.437
  238SOL    HW2 1167   0.102   0.700   2.504
  239SOL     OW 1168   0.044   1.590   2.001
  239SOL    HW1 1169   0.034   1.498   2.024
  239SOL    HW2 1170   3.963   1.632   2.033
  240SOL     OW 1171   1.687   0.916   2.502
  240SOL    HW1 1172   1.772   0.877   2.484
  240SOL    HW2 1173   1.668   0.969   2.424
  241SOL     OW 1174   1.647   1.107   2.292
  241SOL    HW1 1175   1.733   1.112   2.250
  241SOL    HW2 1176   1.652   1.168   2.365
  242SOL     OW 1177   0.137   0.755   3.451
  242SOL    HW1 1178   0.232   0.749   3.451
  242SOL    HW2 1179   0.119   0.845   3.476
  243SOL     OW 1180   0.612   1.385   2.598
  243SOL    HW1 1181   0.566   1.302   2.607
  243SOL    HW2 1182   0.597   1.411   2.507
  244SOL     OW 1183   1.288   1.238   3.285
  244SOL    HW1 1184   1.320   1.171   3.225
  244SOL    HW2 1185   1.346   1.232   3.361
  245SOL     OW 1186   0.818   0.002   2.377
  245SOL    HW1 1187   0.863   0.084   2.355
  245SOL    HW2 1188   0.725   0.026   2.378
  246SOL     OW 1189   0.185   0.952   3.138
  246SOL    HW1 1190   0.273   0.917   3.125
  246SOL    HW2 1191   0.131   0.908   3.073
  247SOL     OW 1192   1.532   0.994   2.061
  247SOL    HW1 1193   1.462   0.937   2.093
  247SOL    HW2 1194   1.573   1.028   2.140
  248SOL     OW 1195   1.185   1.807   3.485
  248SOL    HW1 1196   1.196   1.866   3.410
  248SOL    HW2 1197   1.202   1.719   3.449
  249SOL     OW 1198   0.342   0.253   3.692
  249SOL    HW1 1199   0.386   0.337   3.677
  249SOL    HW2 1200   0.252   0.277   3.712
  250SOL     OW 1201   1.465   1.420   2.813
  250SOL    HW1 1202   1.398   1.435   2.879
  250SOL    HW2 1203   1.453   1.328   2.786
  251SOL     OW 1204   1.668   1.730   2.421
  251SOL    HW1 1205   1.630   1.695   2.340
  251SOL    HW2 1206   1.646   1.664   2.487
  252SOL     OW 1207   0.596   0.718   2.126
  252SOL    HW1 1208   0.602   0.802   2.080
  252SOL    HW2 1209   0.533   0.735   2.197
  253SOL     OW 1210   1.275   0.366   2.802
  253SOL    HW1 1211   1.188   0.327   2.808
  253SOL    HW2 1212   1.332   0.304   2.848
  254SOL     OW 1213   1.576   1.670   2.162
  254SOL    HW1 1214   1.660   1.710   2.142
  254SOL    HW2 1215   1.540   1.645   2.077
  255SOL     OW 1216   0.794   0.616   3.316
  255SOL    HW1 1217   0.765   0.591   3.404
  255SOL    HW2 1218   0.755   0.551   3.258
  256SOL     OW 1219   1.392   0.477   3.539
  256SOL    HW1 1220   1.397   0.521   3.624
  256SOL    HW2 1221   1.451   0.402   3.548
  257SOL     OW 1222   0.954   0.888   3.445
  257SOL    HW1 1223   1.009   0.818   3.409
  257SOL    HW2 1224   0.906   0.922   3.369
  258SOL     OW 1225   0.991   0.403   3.102
  258SOL    HW1 1226   0.908   0.427   3.143
  258SOL    HW2 1227   0.968   0.372   3.015
  259SOL     OW 1228   1.051   0.699   2.288
  259SOL    HW1 1229   1.067   0.692   2.382
  259SOL    HW2 1230   0.969   0.652   2.273
  260SOL     OW 1231   0.081   0.826   2.653
  260SOL    HW1 1232   0.157   0.794   2.701
  260SOL    HW2 1233   0.097   0.920   2.642
  261SOL     OW 1234   0.129   1.858   3.436
  261SOL    HW1 1235   0.137   1.824   3.525
  261SOL    HW2 1236   0.037   1.846   3.414
  262SOL     OW 1237   0.893   0.351   2.060
  262SOL    HW1 1238   0.935   0.410   1.997
  262SOL    HW2 1239   0.894   0.265   2.017
  263SOL     OW 1240   1.710   0.576   3.691
  263SOL    HW1 1241   1.671   0.649   3.643
  263SOL    HW2 1242   1.734   0.513   3.623
  264SOL     OW 1243   1.377   1.142   2.403
  264SOL    HW1 1244   1.457   1.130   2.351
  264SOL    HW2 1245   1.325   1.204   2.352
  265SOL     OW 1246   0.560   0.195   2.744
  265SOL    HW1 1247   0.564   0.217   2.836
  265SOL    HW2 1248   0.547   0.279   2.699
  266SOL     OW 1249   1.005   1.444   2.334
  266SOL    HW1 1250   0.968   1.517   2.284
  266SOL    HW2 1251   0.987   1.465   2.425
  267SOL     OW 1252   0.365   1.815   2.730
  267SOL    HW1 1253   0.429   1.745   2.737
  267SOL    HW2 1254   0.415   1.895   2.746
  268SOL     OW 1255   1.799   1.054   2.731
  268SOL    HW1 1256   1.744   1.040   2.654
  268SOL    HW2 1257   1.737   1.061   2.804
  269SOL     OW 1258   1.228   1.539   3.375
  269SOL    HW1 1259   1.214   1.466   3.436
  269SOL    HW2 1260   1.165   1.524   3.305
  270SOL     OW 1261   0.310   0.955   2.104
  270SOL    HW1 1262   0.395   0.977   2.065
  270SOL    HW2 1263   0.297   0.863   2.081
  271SOL     OW 1264   1.478   0.744   2.592
  271SOL    HW1 1265   1.471   0.701   2.677
  271SOL    HW2 1266   1.556   0.799   2.599
  272SOL     OW 1267   0.466   1.260   3.599
  272SOL    HW1 1268   0.440   1.268   3.507
  272SOL    HW2 1269   0.384   1.264   3.648
  273SOL     OW 1270   1.122   1.777   2.093
  273SOL    HW1 1271   1.048   1.736   2.138
  273SOL    HW2 1272   1.144   1.715   2.023
  274SOL     OW 1273   0.199   0.295   3.361
  274SOL    HW1 1274   0.106   0.316   3.359
  274SOL    HW2 1275   0.208   0.228   3.429
  275SOL     OW 1276   1.628   1.379   1.949
  275SOL    HW1 1277   1.587   1.464   1.933
  275SOL    HW2 1278   1.559   1.315   1.930
  276SOL     OW 1279   0.466   1.739   2.180
  276SOL    HW1 1280   0.509   1.797   2.243
  276SOL    HW2 1281   0.538   1.706   2.126
  277SOL     OW 1282   1.439   0.162   2.267
  277SOL    HW1 1283   1.395   0.096   2.213
  277SOL    HW2 1284   1.513   0.115   2.306
  278SOL     OW 1285   0.251   1.791   3.094
  278SOL    HW1 1286   0.299   1.728   3.148
  278SOL    HW2 1287   0.247   1.751   3.007
  279SOL     OW 1288   0.937   1.698   2.761
  279SOL    HW1 1289   1.016   1.648   2.782
  279SOL    HW2 1290   0.894   1.649   2.692
  280SOL     OW 1291   0.396   0.694   2.334
  280SOL    HW1 1292   0.422   0.604   2.348
  280SOL    HW2 1293   0.303   0.697   2.360
  281SOL     OW 1294   1.530   0.231   3.589
  281SOL    HW1 1295   1.529   0.255   3.681
  281SOL    HW2 1296   1.505   0.138   3.588
  282SOL     OW 1297   0.643   0.133   1.964
  282SOL    HW1 1298   0.671   0.052   2.006
  282SOL    HW2 1299   0.582   0.105   1.896
  283SOL     OW 1300   0.778   0.282   3.626
  283SOL    HW1 1301   0.846   0.216   3.631
  283SOL    HW2 1302   0.718   0.260   3.698
  284SOL     OW 1303   0.876   1.521   3.056
  284SOL    HW1 1304   0.861   1.485   2.969
  284SOL    HW2 1305   0.946   1.467   3.093
  285SOL     OW 1306   1.341   0.587   3.292
  285SOL    HW1 1307   1.371   0.558   3.378
  285SOL    HW2 1308   1.375   0.676   3.284
  286SOL     OW 1309   0.815   1.395   2.801
  286SOL    HW1 1310   0.900   1.383   2.758
  286SOL    HW2 1311   0.752   1.395   2.729
  287SOL     OW 1312   0.929   0.511   2.764
  287SOL    HW1 1313   0.905   0.503   2.671
  287SOL    HW2 1314   0.956   0.423   2.789
  288SOL     OW 1315   0.546   0.056   2.351
  288SOL    HW1 1316   0.472   0.064   2.411
  288SOL    HW2 1317   0.548   0.140   2.305
  289SOL     OW 1318   1.427   1.198   1.903
  289SOL    HW1 1319   1.458   1.122   1.953
  289SOL    HW2 1320   1.342   1.219   1.940
  290SOL     OW 1321   0.338   0.042   2.058
  290SOL    HW1 1322   0.362   0.086   1.977
  290SOL    HW2 1323   0.421   0.032   2.105
  291SOL     OW 1324   0.940   0.248   2.325
  291SOL    HW1 1325   0.913   0.289   2.243
  291SOL    HW2 1326   1.035   0.250   2.323
  292SOL     OW 1327   1.079   0.682   3.321
  292SOL    HW1 1328   1.009   0.617   3.328
  292SOL    HW2 1329   1.159   0.629   3.316
  293SOL     OW 1330   1.223   1.570   2.656
  293SOL    HW1 1331   1.239   1.637   2.590
  293SOL    HW2 1332   1.292   1.583   2.721
  294SOL     OW 1333   0.466   1.150   2.600
  294SOL    HW1 1334   0.394   1.126   2.658
  294SOL    HW2 1335   0.432   1.134   2.512
  295SOL     OW 1336   1.267   1.793   2.470
  295SOL    HW1 1337   1.312   1.856   2.413
  295SOL    HW2 1338   1.201   1.846   2.516
  296SOL     OW 1339   1.023   0.545   1.887
  296SOL    HW1 1340   0.980   0.628   1.868
  296SOL    HW2 1341   1.087   0.566   1.956
  297SOL     OW 1342   0.079   0.571   3.255
  297SOL    HW1 1343   0.168   0.554   3.224
  297SOL    HW2 1344   0.089   0.643   3.318
  298SOL     OW 1345   0.572   0.231   3.022
  298SOL    HW1 1346   0.595   0.139   3.031
  298SOL    HW2 1347   0.481   0.237   3.052
  299SOL     OW 1348   0.871   0.462   2.501
  299SOL    HW1 1349   0.820   0.513   2.439
  299SOL    HW2 1350   0.890   0.380   2.454
  300SOL     OW 1351   0.995   0.041   2.641
  300SOL    HW1 1352   0.961   0.067   2.556
  300SOL    HW2 1353   1.006   3.946   2.635
  301SOL     OW 1354   1.437   1.162   2.720
  301SOL    HW1 1355   1.368   1.096   2.718
  301SOL    HW2 1356   1.462   1.174   2.628
  302SOL     OW 1357   1.466   0.605   2.839
  302SOL    HW1 1358   1.413   0.525   2.844
  302SOL    HW2 1359   1.526   0.599   2.913
  303SOL     OW 1360   1.846   0.819   2.247
  303SOL    HW1 1361   1.902   0.767   2.304
  303SOL    HW2 1362   1.815   0.758   2.180
  304SOL     OW 1363   0.488   1.418   2.023
  304SOL    HW1 1364   0.413   1.387   2.073
  304SOL    HW2 1365   0.470   1.391   1.933
  305SOL     OW 1366   1.670   1.265   2.508
  305SOL    HW1 1367   1.765   1.266   2.521
  305SOL    HW2 1368   1.641   1.353   2.530
  306SOL     OW 1369   1.395   0.574   1.932
  306SOL    HW1 1370   1.332   0.555   2.002
  306SOL    HW2 1371   1.480   0.553   1.970
  307SOL     OW 1372   0.558   0.270   2.181
  307SOL    HW1 1373   0.601   0.230   2.106
  307SOL    HW2 1374   0.528   0.356   2.149
  308SOL     OW 1375   1.752   1.239   3.435
  308SOL    HW1 1376   1.839   1.200   3.431
  308SOL    HW2 1377   1.767   1.329   3.463
  309SOL     OW 1378   1.058   1.354   3.196
  309SOL    HW1 1379   0.983   1.322   3.247
  309SOL    HW2 1380   1.134   1.312   3.237
  310SOL     OW 1381   1.607   1.625   3.515
  310SOL    HW1 1382   1.602   1.661   3.427
  310SOL    HW2 1383   1.691   1.579   3.517
  311SOL     OW 1384   1.129   1.204   2.967
  311SOL    HW1 1385   1.070   1.242   3.032
  311SOL    HW2 1386   1.097   1.236   2.883
  312SOL     OW 1387   1.628   1.098   2.939
  312SOL    HW1 1388   1.623   1.160   3.012
  312SOL    HW2 1389   1.549   1.115   2.888
  313SOL     OW 1390   0.913   0.112   3.264
  313SOL    HW1 1391   0.933   0.087   3.173
  313SOL    HW2 1392   0.994   0.154   3.295
  314SOL     OW 1393   0.984   1.115   3.585
  314SOL    HW1 1394   0.892   1.131   3.606
  314SOL    HW2 1395   0.983   1.037   3.529
  315SOL     OW 1396   0.708   1.061   2.233
  315SOL    HW1 1397   0.694   1.045   2.326
  315SOL    HW2 1398   0.784   1.008   2.210
  316SOL     OW 1399   0.421   0.816   3.114
  316SOL    HW1 1400   0.490   0.822   3.180
  316SOL    HW2 1401   0.386   0.727   3.124
  317SOL     OW 1402   1.266   0.375   3.138
  317SOL    HW1 1403   1.300   0.453   3.182
  317SOL    HW2 1404   1.179   0.401   3.107
  318SOL     OW 1405   0.065   1.580   3.207
  318SOL    HW1 1406   0.069   1.644   3.136
  318SOL    HW2 1407   0.156   1.566   3.233
  319SOL     OW 1408   0.374   1.103   2.347
  319SOL    HW1 1409   0.367   1.180   2.291
  319SOL    HW2 1410   0.372   1.029   2.285
  320SOL     OW 1411   0.555   0.537   2.721
  320SOL    HW1 1412   0.571   0.595   2.646
  320SOL    HW2 1413   0.620   0.564   2.786
  321SOL     OW 1414   1.248   1.348   2.251
  321SOL    HW1 1415   1.303   1.419   2.283
  321SOL    HW2 1416   1.161   1.369   2.285
  322SOL     OW 1417   1.281   1.458   3.009
  322SOL    HW1 1418   1.337   1.461   3.087
  322SOL    HW2 1419   1.226   1.381   3.022
  323SOL     OW 1420   1.577   0.632   2.347
  323SOL    HW1 1421   1.536   0.691   2.410
  323SOL    HW2 1422   1.624   0.690   2.287
  324SOL     OW 1423   0.345   1.526   3.181
  324SOL    HW1 1424   0.336   1.476   3.100
  324SOL    HW2 1425   0.440   1.542   3.189
  325SOL     OW 1426   0.414   0.739   3.463
  325SOL    HW1 1427   0.476   0.785   3.406
  325SOL    HW2 1428   0.454   0.653   3.476
  326SOL     OW 1429   1.601   0.779   3.545
  326SOL    HW1 1430   1.515   0.820   3.538
  326SOL    HW2 1431   1.654   0.820   3.477
  327SOL     OW 1432   1.016   0.127   3.640
  327SOL    HW1 1433   1.061   0.202   3.601
  327SOL    HW2 1434   1.005   0.065   3.567
  328SOL     OW 1435   0.480   0.036   3.628
  328SOL    HW1 1436   0.491   0.043   3.534
  328SOL    HW2 1437   0.419   0.107   3.651
  329SOL     OW 1438   0.584   0.874   2.893
  329SOL    HW1 1439   0.615   0.965   2.894
  329SOL    HW2 1440   0.528   0.867   2.970
  330SOL     OW 1441   1.357   0.858   2.891
  330SOL    HW1 1442   1.273   0.848   2.846
  330SOL    HW2 1443   1.398   0.772   2.886
  331SOL     OW 1444   1.203   0.535   2.123
  331SOL    HW1 1445   1.212   0.456   2.176
  331SOL    HW2 1446   1.159   0.598   2.181
  332SOL     OW 1447   0.312   0.213   3.103
  332SOL    HW1 1448   0.270   0.249   3.182
  332SOL    HW2 1449   0.295   0.119   3.107
  333SOL     OW 1450   0.059   1.305   3.142
  333SOL    HW1 1451   0.090   1.265   3.223
  333SOL    HW2 1452   0.051   1.398   3.163
  334SOL     OW 1453   0.726   0.634   2.917
  334SOL    HW1 1454   0.799   0.618   2.858
  334SOL    HW2 1455   0.697   0.722   2.895
  335SOL     OW 1456   1.735   0.959   3.715
  335SOL    HW1 1457   1.689   0.898   3.658
  335SOL    HW2 1458   1.675   0.973   3.789
  336SOL     OW 1459   0.327   0.055   2.513
  336SOL    HW1 1460   0.299   0.147   2.514
  336SOL    HW2 1461   0.288   0.017   2.592
  337SOL     OW 1462   1.604   0.389   2.244
  337SOL    HW1 1463   1.571   0.321   2.303
  337SOL    HW2 1464   1.584   0.471   2.289
  338SOL     OW 1465   1.029   0.759   2.822
  338SOL    HW1 1466   1.024   0.777   2.916
  338SOL    HW2 1467   1.002   0.668   2.813
  339SOL     OW 1468   0.982   1.566   3.579
  339SOL    HW1 1469   0.967   1.610   3.496
  339SOL    HW2 1470   1.026   1.484   3.556
  340SOL     OW 1471   1.855   1.504   3.467
  340SOL    HW1 1472   1.870   1.534   3.377
  340SOL    HW2 1473   1.938   1.517   3.511
  341SOL     OW 1474   0.352   0.921   3.662
  341SOL    HW1 1475   0.430   0.941   3.713
  341SOL    HW2 1476   0.380   0.854   3.600
  342SOL     OW 1477   1.508   0.276   1.998
  342SOL    HW1 1478   1.433   0.217   2.010
  342SOL    HW2 1479   1.521   0.316   2.084
  343SOL     OW 1480   1.291   0.827   1.892
  343SOL    HW1 1481   1.333   0.741   1.896
  343SOL    HW2 1482   1.322   0.866   1.811
  344SOL     OW 1483   1.065   1.336   2.716
  344SOL    HW1 1484   1.069   1.264   2.654
  344SOL    HW2 1485   1.127   1.401   2.682
  345SOL     OW 1486   0.313   0.805   2.813
  345SOL    HW1 1487   0.407   0.821   2.806
  345SOL    HW2 1488   0.307   0.715   2.845
  346SOL     OW 1489   0.337   0.528   2.876
  346SOL    HW1 1490   0.297   0.442   2.858
  346SOL    HW2 1491   0.413   0.532   2.817
  347SOL     OW 1492   1.133   0.382   3.556
  347SOL    HW1 1493   1.085   0.437   3.618
  347SOL    HW2 1494   1.220   0.421   3.551
  348SOL     OW 1495   1.151   0.225   3.343
  348SOL    HW1 1496   1.142   0.280   3.421
  348SOL    HW2 1497   1.174   0.286   3.273
  349SOL     OW 1498   4.000   1.319   2.044
  349SOL    HW1 1499   3.905   1.335   2.048
  349SOL    HW2 1500   0.009   1.225   2.063
  350SOL     OW 1501   0.077   1.800   2.751
  350SOL    HW1 1502   0.080   1.705   2.758
  350SOL    HW2 1503   0.168   1.828   2.755
  351SOL     OW 1504   0.503   1.571   2.772
  351SOL    HW1 1505   0.572   1.631   2.798
  351SOL    HW2 1506   0.546   1.507   2.715
  352SOL     OW 1507   0.982   0.791   3.088
  352SOL    HW1 1508   1.037   0.769   3.163
  352SOL    HW2 1509   0.896   0.754   3.109
  353SOL     OW 1510   0.036   0.569   2.975
  353SOL    HW1 1511   0.101   0.520   2.925
  353SOL    HW2 1512   0.061   0.556   3.066
  354SOL     OW 1513   0.210   0.516   3.584
  354SOL    HW1 1514   0.259   0.479   3.510
  354SOL    HW2 1515   0.161   0.589   3.546
  355SOL     OW 1516   1.377   0.938   3.520
  355SOL    HW1 1517   1.399   1.032   3.518
  355SOL    HW2 1518   1.374   0.912   3.428
  356SOL     OW 1519   0.818   0.572   2.221
  356SOL    HW1 1520   0.823   0.495   2.164
  356SOL    HW2 1521   0.743   0.621   2.188
  357SOL     OW 1522   1.641   0.602   3.048
  357SOL    HW1 1523   1.631   0.541   3.121
  357SOL    HW2 1524   1.728   0.584   3.013
  358SOL     OW 1525   0.298   1.545   3.590
  358SOL    HW1 1526   0.249   1.615   3.633
  358SOL    HW2 1527   0.265   1.464   3.629
  359SOL     OW 1528   0.704   0.456   3.121
  359SOL    HW1 1529   0.656   0.378   3.095
  359SOL    HW2 1530   0.696   0.515   3.046
  360SOL     OW 1531   0.927   1.679   3.330
  360SOL    HW1 1532   0.902   1.644   3.245
  360SOL    HW2 1533   0.923   1.774   3.319
  361SOL     OW 1534   0.456   0.492   2.057
  361SOL    HW1 1535   0.521   0.561   2.075
  361SOL    HW2 1536   0.376   0.539   2.035
  362SOL     OW 1537   0.157   1.136   3.335
  362SOL    HW1 1538   0.159   1.085   3.416
  362SOL    HW2 1539   0.171   1.071   3.266
  363SOL     OW 1540   1.325   1.047   3.085
  363SOL    HW1 1541   1.349   0.983   3.017
  363SOL    HW2 1542   1.256   1.099   3.046
  364SOL     OW 1543   1.312   0.856   2.168
  364SOL    HW1 1544   1.236   0.827   2.219
  364SOL    HW2 1545   1.286   0.843   2.077
  365SOL     OW 1546   1.757   1.740   3.009
  365SOL    HW1 1547   1.827   1.767   2.949
  365SOL    HW2 1548   1.739   1.649   2.986
  366SOL     OW 1549   1.243   1.734   2.973
  366SOL    HW1 1550   1.325   1.754   2.929
  366SOL    HW2 1551   1.248   1.640   2.992
  367SOL     OW 1552   0.076   1.217   2.889
  367SOL    HW1 1553   0.083   1.243   2.981
  367SOL    HW2 1554   3.983   1.225   2.868
  368SOL     OW 1555   0.679   1.666   3.592
  368SOL    HW1 1556   0.622   1.743   3.586
  368SOL    HW2 1557   0.744   1.678   3.523
  369SOL     OW 1558   1.712   0.126   2.348
  369SOL    HW1 1559   1.791   0.134   2.296
  369SOL    HW2 1560   1.703   0.032   2.366
  370SOL     OW 1561   1.390   1.568   2.348
  370SOL    HW1 1562   1.447   1.600   2.278
  370SOL    HW2 1563   1.341   1.644   2.377
  371SOL     OW 1564   0.174   1.766   3.691
  371SOL    HW1 1565   0.115   1.717   3.749
  371SOL    HW2 1566   0.215   1.830   3.748
  372SOL     OW 1567   1.277   0.926   2.533
  372SOL    HW1 1568   1.351   0.866   2.542
  372SOL    HW2 1569   1.311   0.999   2.480
  373SOL     OW 1570   0.814   1.273   3.292
  373SOL    HW1 1571   0.785   1.313   3.374
  373SOL    HW2 1572   0.743   1.292   3.230
  374SOL     OW 1573   0.670   1.620   2.017
  374SOL    HW1 1574   0.681   1.631   1.923
  374SOL    HW2 1575   0.616   1.542   2.026
  375SOL     OW 1576   1.624   1.728   3.253
  375SOL    HW1 1577   1.673   1.734   3.171
  375SOL    HW2 1578   1.615   1.819   3.281
  376SOL     OW 1579   1.839   0.177   2.829
  376SOL    HW1 1580   1.870   0.105   2.774
  376SOL    HW2 1581   1.751   0.196   2.796
  377SOL     OW 1582   0.273   0.323   2.577
  377SOL    HW1 1583   0.188   0.359   2.552
  377SOL    HW2 1584   0.265   0.306   2.670
  378SOL     OW 1585   1.207   1.606   1.893
  378SOL    HW1 1586   1.197   1.514   1.920
  378SOL    HW2 1587   1.141   1.617   1.824
  379SOL     OW 1588   0.824   1.005   3.234
  379SOL    HW1 1589   0.867   1.001   3.149
  379SOL    HW2 1590   0.823   1.098   3.257
  380SOL     OW 1591   0.915   0.910   2.152
  380SOL    HW1 1592   0.977   0.942   2.086
  380SOL    HW2 1593   0.963   0.841   2.197
  381SOL     OW 1594   1.489   1.623   1.903
  381SOL    HW1 1595   1.395   1.618   1.887
  381SOL    HW2 1596   1.527   1.630   1.815
  382SOL     OW 1597   0.373   1.303   3.353
  382SOL    HW1 1598   0.358   1.383   3.303
  382SOL    HW2 1599   0.297   1.248   3.336
  383SOL     OW 1600   1.610   1.283   3.142
  383SOL    HW1 1601   1.671   1.272   3.215
  383SOL    HW2 1602   1.550   1.352   3.170
  384SOL     OW 1603   1.053   1.108   2.569
  384SOL    HW1 1604   0.982   1.056   2.608
  384SOL    HW2 1605   1.115   1.042   2.538
  385SOL     OW 1606   1.014   0.248   2.830
  385SOL    HW1 1607   1.004   0.198   2.749
  385SOL    HW2 1608   1.009   0.183   2.900
  386SOL     OW 1609   0.605   1.489   2.344
  386SOL    HW1 1610   0.648   1.438   2.275
  386SOL    HW2 1611   0.533   1.534   2.299
  387SOL     OW 1612   1.720   0.392   3.235
  387SOL    HW1 1613   1.792   0.455   3.239
  387SOL    HW2 1614   1.753   0.321   3.182
  388SOL     OW 1615   0.253   1.342   2.154
  388SOL    HW1 1616   0.160   1.351   2.134
  388SOL    HW2 1617   0.263   1.380   2.241
  389SOL     OW 1618   0.106   1.000   3.580
  389SOL    HW1 1619   0.046   0.991   3.653
  389SOL    HW2 1620   0.192   0.980   3.617
  390SOL     OW 1621   0.694   0.248   3.360
  390SOL    HW1 1622   0.762   0.195   3.320
  390SOL    HW2 1623   0.721   0.256   3.452
  391SOL     OW 1624   0.088   0.324   1.890
  391SOL    HW1 1625   3.993   0.320   1.884
  391SOL    HW2 1626   0.111   0.407   1.847
  392SOL     OW 1627   1.429   0.857   3.262
  392SOL    HW1 1628   1.380   0.919   3.206
  392SOL    HW2 1629   1.518   0.860   3.228
  393SOL     OW 1630   0.038   0.164   2.146
  393SOL    HW1 1631   0.037   0.238   2.085
  393SOL    HW2 1632   0.117   0.178   2.198
  394SOL     OW 1633   1.179   1.339   1.979
  394SOL    HW1 1634   1.088   1.309   1.981
  394SOL    HW2 1635   1.206   1.339   2.071
  395SOL     OW 1636   0.620   0.829   3.298
  395SOL    HW1 1637   0.676   0.905   3.282
  395SOL    HW2 1638   0.680   0.756   3.306
  396SOL     OW 1639   1.488   1.781   2.842
  396SOL    HW1 1640   1.511   1.845   2.775
  396SOL    HW2 1641   1.571   1.763   2.887
  397SOL     OW 1642   0.717   0.563   3.569
  397SOL    HW1 1643   0.760   0.626   3.628
  397SOL    HW2 1644   0.747   0.478   3.599
  398SOL     OW 1645   1.471   1.200   3.494
  398SOL    HW1 1646   1.459   1.213   3.588
  398SOL    HW2 1647   1.565   1.215   3.479
  399SOL     OW 1648   0.380   1.742   3.420
  399SOL    HW1 1649   0.292   1.779   3.407
  399SOL    HW2 1650   0.364   1.660   3.468
  400SOL     OW 1651   1.669   0.881   3.118
  400SOL    HW1 1652   1.663   0.796   3.075
  400SOL    HW2 1653   1.660   0.945   3.046
  401SOL     OW 1654   1.224   0.335   2.306
  401SOL    HW1 1655   1.291   0.266   2.299
  401SOL    HW2 1656   1.245   0.379   2.389
  402SOL     OW 1657   0.591   0.739   2.532
  402SOL    HW1 1658   0.628   0.826   2.515
  402SOL    HW2 1659   0.522   0.730   2.466
  403SOL     OW 1660   1.753   0.382   3.505
  403SOL    HW1 1661   1.735   0.387   3.411
  403SOL    HW2 1662   1.696   0.312   3.537
  404SOL     OW 1663   1.744   0.934   3.375
  404SOL    HW1 1664   1.741   1.029   3.387
  404SOL    HW2 1665   1.729   0.922   3.281
  405SOL     OW 1666   0.862   1.367   1.896
  405SOL    HW1 1667   0.824   1.395   1.980
  405SOL    HW2 1668   0.880   1.448   1.850
  406SOL     OW 1669   0.661   1.790   2.806
  406SOL    HW1 1670   0.641   1.881   2.783
  406SOL    HW2 1671   0.757   1.785   2.799
  407SOL     OW 1672   0.868   0.967   2.716
  407SOL    HW1 1673   0.918   0.895   2.756
  407SOL    HW2 1674   0.833   1.015   2.791
  408SOL     OW 1675   1.079   0.989   1.951
  408SOL    HW1 1676   1.057   1.039   1.873
  408SOL    HW2 1677   1.154   0.935   1.925
  409SOL     OW 1678   1.846   1.534   2.688
  409SOL    HW1 1679   1.759   1.533   2.647
  409SOL    HW2 1680   1.837   1.479   2.765
  410SOL     OW 1681   0.224   1.303   3.717
  410SOL    HW1 1682   0.153   1.245   3.692
  410SOL    HW2 1683   0.211   1.317   3.811
  411SOL     OW 1684   0.116   1.276   2.580
  411SOL    HW1 1685   0.127   1.225   2.661
  411SOL    HW2 1686   0.108   1.210   2.511
  412SOL     OW 1687   0.680   1.403   3.490
  412SOL    HW1 1688   0.600   1.360   3.520
  412SOL    HW2 1689   0.676   1.491   3.527
  413SOL     OW 1690   1.812   0.184   3.101
  413SOL    HW1 1691   1.815   0.089   3.115
  413SOL    HW2 1692   1.827   0.194   3.007
  414SOL     OW 1693   0.443   0.437   2.393
  414SOL    HW1 1694   0.456   0.362   2.335
  414SOL    HW2 1695   0.387   0.403   2.463
  415SOL     OW 1696   1.703   1.483   2.952
  415SOL    HW1 1697   1.619   1.462   2.910
  415SOL    HW2 1698   1.712   1.415   3.020
  416SOL     OW 1699   0.331   0.556   3.154
  416SOL    HW1 1700   0.388   0.499   3.207
  416SOL    HW2 1701   0.347   0.527   3.064
  417SOL     OW 1702   0.827   1.578   2.539
  417SOL    HW1 1703   0.815   1.634   2.463
  417SOL    HW2 1704   0.751   1.521   2.539
  418SOL     OW 1705   1.461   0.252   2.973
  418SOL    HW1 1706   1.477   0.165   3.009
  418SOL    HW2 1707   1.404   0.295   3.037
  419SOL     OW 1708   1.005   0.029   3.009
  419SOL    HW1 1709   0.927   3.984   2.976
  419SOL    HW2 1710   1.071   3.961   3.017
  420SOL     OW 1711   0.772   1.333   2.177
  420SOL    HW1 1712   0.741   1.242   2.183
  420SOL    HW2 1713   0.854   1.334   2.226
  421SOL     OW 1714   0.620   1.557   3.147
  421SOL    HW1 1715   0.622   1.639   3.197
  421SOL    HW2 1716   0.708   1.549   3.109
  422SOL     OW 1717   1.313   0.074   2.025
  422SOL    HW1 1718   1.330   0.000   1.967
  422SOL    HW2 1719   1.228   0.055   2.064
  423SOL     OW 1720   1.284   0.458   2.548
  423SOL    HW1 1721   1.236   0.540   2.544
  423SOL    HW2 1722   1.287   0.436   2.642
  424SOL     OW 1723   1.588   0.210   2.729
  424SOL    HW1 1724   1.539   0.233   2.808
  424SOL    HW2 1725   1.588   0.290   2.677
  425SOL     OW 1726   0.046   1.050   2.102
  425SOL    HW1 1727   0.140   1.034   2.093
  425SOL    HW2 1728   0.011   0.969   2.138
  426SOL     OW 1729   0.885   1.653   2.204
  426SOL    HW1 1730   0.812   1.636   2.144
  426SOL    HW2 1731   0.856   1.728   2.256
  427SOL     OW 1732   0.233   0.626   3.842
  427SOL    HW1 1733   0.140   0.631   3.864
  427SOL    HW2 1734   0.234   0.597   3.751
  428SOL     OW 1735   0.225   0.287   4.707
  428SOL    HW1 1736   0.248   0.250   4.792
  428SOL    HW2 1737   0.130   0.273   4.700
  429SOL     OW 1738   0.018   0.386   4.359
  429SOL    HW1 1739   3.929   0.398   4.392
  429SOL    HW2 1740   0.026   0.292   4.342
  430SOL     OW 1741   0.578   1.285   4.910
  430SOL    HW1 1742   0.491   1.288   4.869
  430SOL    HW2 1743   0.592   1.373   4.943
  431SOL     OW 1744   1.564   1.513   4.432
  431SOL    HW1 1745   1.520   1.494   4.516
  431SOL    HW2 1746   1.492   1.519   4.369
  432SOL     OW 1747   1.132   0.698   4.424
  432SOL    HW1 1748   1.180   0.780   4.411
  432SOL    HW2 1749   1.084   0.711   4.506
  433SOL     OW 1750   1.762   0.618   3.951
  433SOL    HW1 1751   1.743   0.610   3.858
  433SOL    HW2 1752   1.751   0.530   3.985
  434SOL     OW 1753   0.757   1.141   4.764
  434SOL    HW1 1754   0.691   1.175   4.824
  434SOL    HW2 1755   0.791   1.218   4.719
  435SOL     OW 1756   0.868   0.774   5.547
  435SOL    HW1 1757   0.857   0.846   5.609
  435SOL    HW2 1758   0.890   0.818   5.464
  436SOL     OW 1759   0.686   1.004   4.371
  436SOL    HW1 1760   0.751   0.991   4.439
  436SOL    HW2 1761   0.616   1.055   4.413
  437SOL     OW 1762   0.710   1.150   5.537
  437SOL    HW1 1763   0.758   1.228   5.564
  437SOL    HW2 1764   0.628   1.183   5.501
  438SOL     OW 1765   0.351   1.402   4.803
  438SOL    HW1 1766   0.269   1.384   4.756
  438SOL    HW2 1767   0.399   1.461   4.744
  439SOL     OW 1768   1.461   1.500   5.078
  439SOL    HW1 1769   1.512   1.581   5.087
  439SOL    HW2 1770   1.399   1.503   5.151
  440SOL     OW 1771   0.455   0.407   5.222
  440SOL    HW1 1772   0.536   0.356   5.219
  440SOL    HW2 1773   0.385   0.342   5.224
  441SOL     OW 1774   1.612   0.451   4.459
  441SOL    HW1 1775   1.541   0.482   4.404
  441SOL    HW2 1776   1.633   0.525   4.515
  442SOL     OW 1777   0.222   1.717   4.183
  442SOL    HW1 1778   0.240   1.792   4.240
  442SOL    HW2 1779   0.299   1.710   4.127
  443SOL     OW 1780   1.137   1.342   5.417
  443SOL    HW1 1781   1.177   1.337   5.503
  443SOL    HW2 1782   1.084   1.262   5.410
  444SOL     OW 1783   0.247   1.448   4.264
  444SOL    HW1 1784   0.214   1.537   4.250
  444SOL    HW2 1785   0.179   1.405   4.315
  445SOL     OW 1786   0.247   1.068   4.609
  445SOL    HW1 1787   0.265   0.983   4.649
  445SOL    HW2 1788   0.194   1.115   4.674
  446SOL     OW 1789   0.612   1.791   5.153
  446SOL    HW1 1790   0.530   1.773   5.198
  446SOL    HW2 1791   0.635   1.881   5.178
  447SOL     OW 1792   0.580   0.984   3.861
  447SOL    HW1 1793   0.627   1.030   3.791
  447SOL    HW2 1794   0.622   1.013   3.942
  448SOL     OW 1795   1.579   0.138   5.180
  448SOL    HW1 1796   1.606   0.211   5.126
  448SOL    HW2 1797   1.552   0.178   5.263
  449SOL     OW 1798   0.139   0.650   4.293
  449SOL    HW1 1799   0.096   0.565   4.299
  449SOL    HW2 1800   0.102   0.700   4.366
  450SOL     OW 1801   0.044   1.590   3.863
  450SOL    HW1 1802   0.034   1.498   3.886
  450SOL    HW2 1803   3.963   1.632   3.895
  451SOL     OW 1804   1.687   0.917   4.364
  451SOL    HW1 1805   1.772   0.877   4.346
  451SOL    HW2 1806   1.668   0.969   4.286
  452SOL     OW 1807   1.647   1.107   4.154
  452SOL    HW1 1808   1.733   1.112   4.112
  452SOL    HW2 1809   1.652   1.168   4.227
  453SOL     OW 1810   0.137   0.755   5.313
  453SOL    HW1 1811   0.232   0.749   5.312
  453SOL    HW2 1812   0.119   0.845   5.338
  454SOL     OW 1813   0.612   1.385   4.460
  454SOL    HW1 1814   0.566   1.302   4.469
  454SOL    HW2 1815   0.597   1.411   4.369
  455SOL     OW 1816   1.288   1.238   5.147
  455SOL    HW1 1817   1.321   1.171   5.087
  455SOL    HW2 1818   1.346   1.232   5.223
  456SOL     OW 1819   0.818   0.002   4.239
  456SOL    HW1 1820   0.863   0.084   4.217
  456SOL    HW2 1821   0.725   0.026   4.240
  457SOL     OW 1822   0.185   0.952   5.000
  457SOL    HW1 1823   0.273   0.917   4.987
  457SOL    HW2 1824   0.131   0.908   4.935
  458SOL     OW 1825   1.532   0.994   3.923
  458SOL    HW1 1826   1.462   0.937   3.955
  458SOL    HW2 1827   1.573   1.028   4.002
  459SOL     OW 1828   1.186   1.806   5.347
  459SOL    HW1 1829   1.196   1.865   5.273
  459SOL    HW2 1830   1.202   1.719   5.310
  460SOL     OW 1831   0.342   0.253   5.554
  460SOL    HW1 1832   0.386   0.337   5.539
  460SOL    HW2 1833   0.252   0.277   5.574
  461SOL     OW 1834   1.465   1.420   4.675
  461SOL    HW1 1835   1.398   1.435   4.741
  461SOL    HW2 1836   1.453   1.328   4.648
  462SOL     OW 1837   1.667   1.730   4.283
  462SOL    HW1 1838   1.630   1.695   4.202
  462SOL    HW2 1839   1.646   1.664   4.350
  463SOL     OW 1840   0.596   0.718   3.988
  463SOL    HW1 1841   0.602   0.802   3.942
  463SOL    HW2 1842   0.533   0.735   4.059
  464SOL     OW 1843   1.275   0.366   4.664
  464SOL    HW1 1844   1.188   0.327   4.670
  464SOL    HW2 1845   1.332   0.304   4.710
  465SOL     OW 1846   1.576   1.670   4.024
  465SOL    HW1 1847   1.661   1.709   4.005
  465SOL    HW2 1848   1.540   1.645   3.939
  466SOL     OW 1849   0.795   0.616   5.178
  466SOL    HW1 1850   0.765   0.591   5.266
  466SOL    HW2 1851   0.755   0.551   5.120
  467SOL     OW 1852   1.392   0.477   5.401
  467SOL    HW1 1853   1.397   0.521   5.486
  467SOL    HW2 1854   1.452   0.402   5.410
  468SOL     OW 1855   0.954   0.888   5.307
  468SOL    HW1 1856   1.009   0.818   5.271
  468SOL    HW2 1857   0.906   0.922   5.231
  469SOL     OW 1858   0.991   0.403   4.964
  469SOL    HW1 1859   0.908   0.427   5.005
  469SOL    HW2 1860   0.967   0.373   4.877
  470SOL     OW 1861   1.051   0.699   4.150
  470SOL    HW1 1862   1.067   0.692   4.244
  470SOL    HW2 1863   0.969   0.652   4.135
  471SOL     OW 1864   0.081   0.826   4.515
  471SOL    HW1 1865   0.157   0.794   4.563
  471SOL    HW2 1866   0.097   0.920   4.504
  472SOL     OW 1867   0.129   1.858   5.298
  472SOL    HW1 1868   0.137   1.824   5.387
  472SOL    HW2 1869   0.037   1.846   5.276
  473SOL     OW 1870   0.893   0.351   3.922
  473SOL    HW1 1871   0.935   0.410   3.859
  473SOL    HW2 1872   0.894   0.265   3.879
  474SOL     OW 1873   1.710   0.576   5.553
  474SOL    HW1 1874   1.671   0.649   5.505
  474SOL    HW2 1875   1.734   0.513   5.484
  475SOL     OW 1876   1.377   1.142   4.265
  475SOL    HW1 1877   1.457   1.130   4.213
  475SOL    HW2 1878   1.324   1.204   4.214
  476SOL     OW 1879   0.560   0.195   4.605
  476SOL    HW1 1880   0.564   0.217   4.698
  476SOL    HW2 1881   0.547   0.279   4.561
  477SOL     OW 1882   1.005   1.444   4.196
  477SOL    HW1 1883   0.968   1.517   4.146
  477SOL    HW2 1884   0.987   1.465   4.287
  478SOL     OW 1885   0.365   1.815   4.592
  478SOL    HW1 1886   0.429   1.745   4.599
  478SOL    HW2 1887   0.415   1.895   4.608
  479SOL     OW 1888   1.799   1.054   4.593
  479SOL    HW1 1889   1.744   1.040   4.516
  479SOL    HW2 1890   1.737   1.061   4.666
  480SOL     OW 1891   1.228   1.539   5.237
  480SOL    HW1 1892   1.214   1.466   5.298
  480SOL    HW2 1893   1.164   1.524   5.167
  481SOL     OW 1894   0.310   0.955   3.966
  481SOL    HW1 1895   0.395   0.977   3.927
  481SOL    HW2 1896   0.297   0.863   3.943
  482SOL     OW 1897   1.478   0.744   4.454
  482SOL    HW1 1898   1.471   0.701   4.539
  482SOL    HW2 1899   1.556   0.799   4.461
  483SOL     OW 1900   0.466   1.260   5.461
  483SOL    HW1 1901   0.440   1.268   5.369
  483SOL    HW2 1902   0.384   1.264   5.510
  484SOL     OW 1903   1.122   1.777   3.955
  484SOL    HW1 1904   1.048   1.736   4.000
  484SOL    HW2 1905   1.144   1.715   3.885
  485SOL     OW 1906   0.199   0.295   5.223
  485SOL    HW1 1907   0.106   0.316   5.221
  485SOL    HW2 1908   0.208   0.228   5.291
  486SOL     OW 1909   1.628   1.379   3.811
  486SOL    HW1 1910   1.587   1.464   3.795
  486SOL    HW2 1911   1.559   1.315   3.792
  487SOL     OW 1912   0.466   1.739   4.042
  487SOL    HW1 1913   0.509   1.797   4.105
  487SOL    HW2 1914   0.538   1.706   3.988
  488SOL     OW 1915   1.439   0.162   4.129
  488SOL    HW1 1916   1.395   0.096   4.076
  488SOL    HW2 1917   1.513   0.116   4.168
  489SOL     OW 1918   0.250   1.791   4.956
  489SOL    HW1 1919   0.299   1.729   5.010
  489SOL    HW2 1920   0.247   1.751   4.869
  490SOL     OW 1921   0.937   1.699   4.623
  490SOL    HW1 1922   1.016   1.648   4.644
  490SOL    HW2 1923   0.894   1.649   4.554
  491SOL     OW 1924   0.396   0.694   4.196
  491SOL    HW1 1925   0.422   0.604   4.210
  491SOL    HW2 1926   0.303   0.697   4.222
  492SOL     OW 1927   1.530   0.231   5.451
  492SOL    HW1 1928   1.529   0.255   5.543
  492SOL    HW2 1929   1.505   0.138   5.450
  493SOL     OW 1930   0.643   0.133   3.825
  493SOL    HW1 1931   0.671   0.052   3.868
  493SOL    HW2 1932   0.582   0.105   3.758
  494SOL     OW 1933   0.778   0.282   5.488
  494SOL    HW1 1934   0.846   0.216   5.493
  494SOL    HW2 1935   0.718   0.260   5.560
  495SOL     OW 1936   0.876   1.521   4.918
  495SOL    HW1 1937   0.861   1.485   4.831
  495SOL    HW2 1938   0.946   1.467   4.955
  496SOL     OW 1939   1.341   0.587   5.154
  496SOL    HW1 1940   1.371   0.558   5.241
  496SOL    HW2 1941   1.375   0.676   5.146
  497SOL     OW 1942   0.815   1.395   4.663
  497SOL    HW1 1943   0.900   1.383   4.620
  497SOL    HW2 1944   0.752   1.395   4.591
  498SOL     OW 1945   0.929   0.511   4.626
  498SOL    HW1 1946   0.905   0.503   4.533
  498SOL    HW2 1947   0.956   0.423   4.651
  499SOL     OW 1948   0.546   0.056   4.213
  499SOL    HW1 1949   0.472   0.064   4.273
  499SOL    HW2 1950   0.548   0.140   4.167
  500SOL     OW 1951   1.428   1.198   3.765
  500SOL    HW1 1952   1.458   1.122   3.815
  500SOL    HW2 1953   1.342   1.219   3.802
  501SOL     OW 1954   0.338   0.042   3.920
  501SOL    HW1 1955   0.362   0.086   3.839
  501SOL    HW2 1956   0.421   0.032   3.967
  502SOL     OW 1957   0.940   0.248   4.187
  502SOL    HW1 1958   0.913   0.289   4.105
  502SOL    HW2 1959   1.035   0.250   4.185
  503SOL     OW 1960   1.079   0.682   5.183
  503SOL    HW1 1961   1.009   0.617   5.190
  503SOL    HW2 1962   1.159   0.629   5.178
  504SOL     OW 1963   1.223   1.570   4.518
  504SOL    HW1 1964   1.239   1.637   4.452
  504SOL    HW2 1965   1.292   1.583   4.583
  505SOL     OW 1966   0.466   1.150   4.462
  505SOL    HW1 1967   0.394   1.126   4.520
  505SOL    HW2 1968   0.432   1.134   4.374
  506SOL     OW 1969   1.267   1.793   4.332
  506SOL    HW1 1970   1.311   1.856   4.275
  506SOL    HW2 1971   1.201   1.846   4.378
  507SOL     OW 1972   1.023   0.545   3.749
  507SOL    HW1 1973   0.980   0.628   3.730
  507SOL    HW2 1974   1.087   0.566   3.818
  508SOL     OW 1975   0.079   0.571   5.117
  508SOL    HW1 1976   0.168   0.554   5.086
  508SOL    HW2 1977   0.089   0.643   5.180
  509SOL     OW 1978   0.572   0.231   4.884
  509SOL    HW1 1979   0.595   0.139   4.893
  509SOL    HW2 1980   0.481   0.237   4.914
  510SOL     OW 1981   0.871   0.462   4.363
  510SOL    HW1 1982   0.820   0.513   4.301
  510SOL    HW2 1983   0.890   0.380   4.316
  511SOL     OW 1984   0.995   0.041   4.503
  511SOL    HW1 1985   0.961   0.067   4.418
  511SOL    HW2 1986   1.006   3.946   4.497
  512SOL     OW 1987   1.437   1.162   4.582
  512SOL    HW1 1988   1.368   1.096   4.580
  512SOL    HW2 1989   1.462   1.174   4.490
  513SOL     OW 1990   1.466   0.605   4.701
  513SOL    HW1 1991   1.413   0.525   4.706
  513SOL    HW2 1992   1.526   0.599   4.775
  514SOL     OW 1993   1.846   0.819   4.109
  514SOL    HW1 1994   1.902   0.767   4.166
  514SOL    HW2 1995   1.815   0.758   4.042
  515SOL     OW 1996   0.488   1.418   3.885
  515SOL    HW1 1997   0.413   1.387   3.935
  515SOL    HW2 1998   0.470   1.391   3.795
  516SOL     OW 1999   1.670   1.264   4.370
  516SOL    HW1 2000   1.765   1.266   4.383
  516SOL    HW2 2001   1.641   1.353   4.392
  517SOL     OW 2002   1.395   0.574   3.794
  517SOL    HW1 2003   1.332   0.555   3.864
  517SOL    HW2 2004   1.480   0.554   3.832
  518SOL     OW 2005   0.558   0.270   4.043
  518SOL    HW1 2006   0.601   0.230   3.968
  518SOL    HW2 2007   0.528   0.356   4.011
  519SOL     OW 2008   1.752   1.239   5.297
  519SOL    HW1 2009   1.839   1.200   5.292
  519SOL    HW2 2010   1.767   1.329   5.325
  520SOL     OW 2011   1.058   1.353   5.058
  520SOL    HW1 2012   0.983   1.322   5.109
  520SOL    HW2 2013   1.134   1.312   5.099
  521SOL     OW 2014   1.607   1.625   5.377
  521SOL    HW1 2015   1.602   1.661   5.288
  521SOL    HW2 2016   1.691   1.579   5.379
  522SOL     OW 2017   1.129   1.204   4.829
  522SOL    HW1 2018   1.070   1.241   4.894
  522SOL    HW2 2019   1.096   1.236   4.745
  523SOL     OW 2020   1.628   1.098   4.801
  523SOL    HW1 2021   1.623   1.160   4.874
  523SOL    HW2 2022   1.549   1.115   4.750
  524SOL     OW 2023   0.913   0.112   5.126
  524SOL    HW1 2024   0.933   0.087   5.035
  524SOL    HW2 2025   0.994   0.154   5.157
  525SOL     OW 2026   0.984   1.115   5.447
  525SOL    HW1 2027   0.892   1.131   5.468
  525SOL    HW2 2028   0.983   1.037   5.391
  526SOL     OW 2029   0.708   1.061   4.095
  526SOL    HW1 2030   0.694   1.045   4.188
  526SOL    HW2 2031   0.784   1.008   4.072
  527SOL     OW 2032   0.421   0.816   4.976
  527SOL    HW1 2033   0.490   0.822   5.042
  527SOL    HW2 2034   0.386   0.727   4.986
  528SOL     OW 2035   1.266   0.375   5.000
  528SOL    HW1 2036   1.300   0.453   5.044
  528SOL    HW2 2037   1.179   0.401   4.969
  529SOL     OW 2038   0.065   1.580   5.069
  529SOL    HW1 2039   0.069   1.644   4.999
  529SOL    HW2 2040   0.156   1.566   5.095
  530SOL     OW 2041   0.374   1.103   4.209
  530SOL    HW1 2042   0.367   1.180   4.153
  530SOL    HW2 2043   0.372   1.029   4.147
  531SOL     OW 2044   0.555   0.537   4.583
  531SOL    HW1 2045   0.571   0.595   4.508
  531SOL    HW2 2046   0.620   0.564   4.648
  532SOL     OW 2047   1.248   1.348   4.113
  532SOL    HW1 2048   1.303   1.419   4.145
  532SOL    HW2 2049   1.161   1.369   4.147
  533SOL     OW 2050   1.281   1.458   4.871
  533SOL    HW1 2051   1.337   1.461   4.949
  533SOL    HW2 2052   1.226   1.381   4.885
  534SOL     OW 2053   1.577   0.632   4.209
  534SOL    HW1 2054   1.536   0.691   4.272
  534SOL    HW2 2055   1.624   0.690   4.149
  535SOL     OW 2056   0.345   1.526   5.043
  535SOL    HW1 2057   0.336   1.476   4.962
  535SOL    HW2 2058   0.440   1.542   5.051
  536SOL     OW 2059   0.414   0.739   5.325
  536SOL    HW1 2060   0.476   0.785   5.268
  536SOL    HW2 2061   0.454   0.653   5.338
  537SOL     OW 2062   1.602   0.779   5.407
  537SOL    HW1 2063   1.516   0.820   5.400
  537SOL    HW2 2064   1.654   0.820   5.338
  538SOL     OW 2065   1.016   0.127   5.502
  538SOL    HW1 2066   1.060   0.202   5.463
  538SOL    HW2 2067   1.005   0.065   5.429
  539SOL     OW 2068   0.480   0.036   5.490
  539SOL    HW1 2069   0.491   0.043   5.396
  539SOL    HW2 2070   0.419   0.107   5.513
  540SOL     OW 2071   0.584   0.874   4.755
  540SOL    HW1 2072   0.615   0.965   4.756
  540SOL    HW2 2073   0.528   0.867   4.832
  541SOL     OW 2074   1.357   0.858   4.753
  541SOL    HW1 2075   1.273   0.848   4.708
  541SOL    HW2 2076   1.398   0.772   4.747
  542SOL     OW 2077   1.203   0.535   3.985
  542SOL    HW1 2078   1.212   0.456   4.038
  542SOL    HW2 2079   1.159   0.598   4.043
  543SOL     OW 2080   0.312   0.213   4.965
  543SOL    HW1 2081   0.270   0.249   5.044
  543SOL    HW2 2082   0.295   0.119   4.969
  544SOL     OW 2083   0.058   1.305   5.004
  544SOL    HW1 2084   0.090   1.265   5.085
  544SOL    HW2 2085   0.051   1.398   5.025
  545SOL     OW 2086   0.726   0.634   4.779
  545SOL    HW1 2087   0.799   0.618   4.720
  545SOL    HW2 2088   0.697   0.722   4.757
  546SOL     OW 2089   1.735   0.959   5.577
  546SOL    HW1 2090   1.689   0.898   5.520
  546SOL    HW2 2091   1.676   0.973   5.651
  547SOL     OW 2092   0.327   0.055   4.375
  547SOL    HW1 2093   0.299   0.147   4.376
  547SOL    HW2 2094   0.289   0.017   4.454
  548SOL     OW 2095   1.604   0.389   4.106
  548SOL    HW1 2096   1.571   0.321   4.165
  548SOL    HW2 2097   1.584   0.471   4.151
  549SOL     OW 2098   1.029   0.759   4.684
  549SOL    HW1 2099   1.024   0.777   4.778
  549SOL    HW2 2100   1.002   0.668   4.675
  550SOL     OW 2101   0.983   1.566   5.442
  550SOL    HW1 2102   0.967   1.610   5.358
  550SOL    HW2 2103   1.026   1.484   5.418
  551SOL     OW 2104   1.855   1.504   5.329
  551SOL    HW1 2105   1.870   1.534   5.239
  551SOL    HW2 2106   1.939   1.517   5.373
  552SOL     OW 2107   0.352   0.921   5.524
  552SOL    HW1 2108   0.430   0.941   5.575
  552SOL    HW2 2109   0.380   0.854   5.462
  553SOL     OW 2110   1.508   0.276   3.860
  553SOL    HW1 2111   1.433   0.217   3.872
  553SOL    HW2 2112   1.521   0.316   3.946
  554SOL     OW 2113   1.291   0.827   3.754
  554SOL    HW1 2114   1.333   0.741   3.757
  554SOL    HW2 2115   1.322   0.866   3.673
  555SOL     OW 2116   1.065   1.336   4.578
  555SOL    HW1 2117   1.069   1.264   4.516
  555SOL    HW2 2118   1.127   1.401   4.544
  556SOL     OW 2119   0.313   0.805   4.675
  556SOL    HW1 2120   0.407   0.821   4.669
  556SOL    HW2 2121   0.307   0.715   4.707
  557SOL     OW 2122   0.337   0.528   4.738
  557SOL    HW1 2123   0.297   0.442   4.720
  557SOL    HW2 2124   0.413   0.532   4.679
  558SOL     OW 2125   1.133   0.382   5.418
  558SOL    HW1 2126   1.085   0.437   5.480
  558SOL    HW2 2127   1.220   0.421   5.413
  559SOL     OW 2128   1.151   0.225   5.205
  559SOL    HW1 2129   1.142   0.280   5.283
  559SOL    HW2 2130   1.174   0.286   5.135
  560SOL     OW 2131   4.000   1.319   3.906
  560SOL    HW1 2132   3.905   1.335   3.910
  560SOL    HW2 2133   0.009   1.225   3.925
  561SOL     OW 2134   0.077   1.800   4.613
  561SOL    HW1 2135   0.080   1.705   4.620
  561SOL    HW2 2136   0.168   1.828   4.617
  562SOL     OW 2137   0.503   1.571   4.634
  562SOL    HW1 2138   0.572   1.631   4.660
  562SOL    HW2 2139   0.546   1.507   4.577
  563SOL     OW 2140   0.982   0.791   4.950
  563SOL    HW1 2141   1.037   0.769   5.025
  563SOL    HW2 2142   0.896   0.754   4.971
  564SOL     OW 2143   0.036   0.569   4.837
  564SOL    HW1 2144   0.101   0.520   4.787
  564SOL    HW2 2145   0.061   0.556   4.928
  565SOL     OW 2146   0.210   0.516   5.445
  565SOL    HW1 2147   0.259   0.480   5.372
  565SOL    HW2 2148   0.161   0.589   5.408
  566SOL     OW 2149   1.378   0.938   5.382
  566SOL    HW1 2150   1.399   1.032   5.380
  566SOL    HW2 2151   1.374   0.912   5.290
  567SOL     OW 2152   0.818   0.572   4.083
  567SOL    HW1 2153   0.823   0.495   4.026
  567SOL    HW2 2154   0.743   0.621   4.050
  568SOL     OW 2155   1.641   0.602   4.910
  568SOL    HW1 2156   1.631   0.541   4.983
  568SOL    HW2 2157   1.728   0.584   4.875
  569SOL     OW 2158   0.298   1.545   5.452
  569SOL    HW1 2159   0.249   1.615   5.495
  569SOL    HW2 2160   0.265   1.464   5.491
  570SOL     OW 2161   0.704   0.456   4.983
  570SOL    HW1 2162   0.656   0.378   4.957
  570SOL    HW2 2163   0.696   0.515   4.908
  571SOL     OW 2164   0.927   1.679   5.192
  571SOL    HW1 2165   0.902   1.644   5.107
  571SOL    HW2 2166   0.923   1.774   5.182
  572SOL     OW 2167   0.456   0.492   3.919
  572SOL    HW1 2168   0.521   0.561   3.937
  572SOL    HW2 2169   0.376   0.539   3.897
  573SOL     OW 2170   0.157   1.136   5.197
  573SOL    HW1 2171   0.159   1.085   5.278
  573SOL    HW2 2172   0.171   1.071   5.128
  574SOL     OW 2173   1.326   1.047   4.947
  574SOL    HW1 2174   1.349   0.983   4.879
  574SOL    HW2 2175   1.256   1.099   4.908
  575SOL     OW 2176   1.312   0.856   4.030
  575SOL    HW1 2177   1.236   0.827   4.081
  575SOL    HW2 2178   1.286   0.843   3.939
  576SOL     OW 2179   1.753   1.740   4.868
  576SOL    HW1 2180   1.825   1.765   4.811
  576SOL    HW2 2181   1.737   1.648   4.847
  577SOL     OW 2182   1.243   1.734   4.835
  577SOL    HW1 2183   1.325   1.754   4.791
  577SOL    HW2 2184   1.248   1.640   4.854
  578SOL     OW 2185   0.076   1.217   4.751
  578SOL    HW1 2186   0.083   1.243   4.843
  578SOL    HW2 2187   3.983   1.225   4.730
  579SOL     OW 2188   0.679   1.666   5.454
  579SOL    HW1 2189   0.622   1.743   5.448
  579SOL    HW2 2190   0.744   1.678   5.385
  580SOL     OW 2191   1.712   0.126   4.210
  580SOL    HW1 2192   1.791   0.134   4.158
  580SOL    HW2 2193   1.703   0.032   4.228
  581SOL     OW 2194   1.390   1.568   4.210
  581SOL    HW1 2195   1.447   1.600   4.140
  581SOL    HW2 2196   1.341   1.644   4.239
  582SOL     OW 2197   0.174   1.766   5.553
  582SOL    HW1 2198   0.115   1.717   5.611
  582SOL    HW2 2199   0.215   1.830   5.609
  583SOL     OW 2200   1.277   0.926   4.395
  583SOL    HW1 2201   1.351   0.866   4.404
  583SOL    HW2 2202   1.311   0.999   4.342
  584SOL     OW 2203   0.814   1.273   5.154
  584SOL    HW1 2204   0.785   1.313   5.236
  584SOL    HW2 2205   0.743   1.292   5.092
  585SOL     OW 2206   0.670   1.620   3.879
  585SOL    HW1 2207   0.681   1.631   3.785
  585SOL    HW2 2208   0.616   1.542   3.888
  586SOL     OW 2209   1.625   1.728   5.115
  586SOL    HW1 2210   1.672   1.734   5.032
  586SOL    HW2 2211   1.615   1.819   5.143
  587SOL     OW 2212   1.839   0.177   4.691
  587SOL    HW1 2213   1.870   0.105   4.636
  587SOL    HW2 2214   1.751   0.196   4.658
  588SOL     OW 2215   0.273   0.323   4.439
  588SOL    HW1 2216   0.188   0.359   4.414
  588SOL    HW2 2217   0.265   0.306   4.532
  589SOL     OW 2218   1.207   1.606   3.755
  589SOL    HW1 2219   1.197   1.514   3.782
  589SOL    HW2 2220   1.142   1.617   3.686
  590SOL     OW 2221   0.824   1.005   5.096
  590SOL    HW1 2222   0.867   1.001   5.011
  590SOL    HW2 2223   0.823   1.098   5.119
  591SOL     OW 2224   0.915   0.910   4.014
  591SOL    HW1 2225   0.977   0.942   3.948
  591SOL    HW2 2226   0.963   0.841   4.059
  592SOL     OW 2227   1.489   1.623   3.765
  592SOL    HW1 2228   1.395   1.618   3.749
  592SOL    HW2 2229   1.527   1.630   3.677
  593SOL     OW 2230   0.373   1.302   5.215
  593SOL    HW1 2231   0.358   1.383   5.165
  593SOL    HW2 2232   0.296   1.248   5.198
  594SOL     OW 2233   1.610   1.283   5.004
  594SOL    HW1 2234   1.670   1.272   5.078
  594SOL    HW2 2235   1.550   1.352   5.032
  595SOL     OW 2236   1.053   1.107   4.431
  595SOL    HW1 2237   0.982   1.056   4.470
  595SOL    HW2 2238   1.115   1.042   4.400
  596SOL     OW 2239   1.015   0.248   4.692
  596SOL    HW1 2240   1.004   0.198   4.611
  596SOL    HW2 2241   1.009   0.183   4.762
  597SOL     OW 2242   0.605   1.489   4.206
  597SOL    HW1 2243   0.648   1.438   4.137
  597SOL    HW2 2244   0.533   1.534   4.161
  598SOL     OW 2245   1.720   0.392   5.097
  598SOL    HW1 2246   1.792   0.455   5.101
  598SOL    HW2 2247   1.753   0.321   5.043
  599SOL     OW 2248   0.253   1.342   4.016
  599SOL    HW1 2249   0.160   1.351   3.996
  599SOL    HW2 2250   0.263   1.380   4.103
  600SOL     OW 2251   0.106   1.000   5.442
  600SOL    HW1 2252   0.046   0.991   5.516
  600SOL    HW2 2253   0.192   0.980   5.479
  601SOL     OW 2254   0.694   0.247   5.222
  601SOL    HW1 2255   0.762   0.195   5.182
  601SOL    HW2 2256   0.721   0.256   5.314
  602SOL     OW 2257   0.088   0.324   3.752
  602SOL    HW1 2258   3.993   0.320   3.746
  602SOL    HW2 2259   0.111   0.407   3.709
  603SOL     OW 2260   1.429   0.857   5.123
  603SOL    HW1 2261   1.380   0.919   5.068
  603SOL    HW2 2262   1.518   0.860   5.089
  604SOL     OW 2263   0.038   0.164   4.008
  604SOL    HW1 2264   0.037   0.238   3.947
  604SOL    HW2 2265   0.117   0.178   4.060
  605SOL     OW 2266   1.179   1.339   3.841
  605SOL    HW1 2267   1.088   1.309   3.843
  605SOL    HW2 2268   1.206   1.339   3.933
  606SOL     OW 2269   0.620   0.829   5.160
  606SOL    HW1 2270   0.676   0.905   5.144
  606SOL    HW2 2271   0.680   0.756   5.168
  607SOL     OW 2272   1.488   1.781   4.704
  607SOL    HW1 2273   1.511   1.845   4.637
  607SOL    HW2 2274   1.571   1.764   4.750
  608SOL     OW 2275   0.717   0.563   5.431
  608SOL    HW1 2276   0.759   0.626   5.490
  608SOL    HW2 2277   0.747   0.478   5.462
  609SOL     OW 2278   1.471   1.200   5.356
  609SOL    HW1 2279   1.459   1.214   5.450
  609SOL    HW2 2280   1.565   1.215   5.341
  610SOL     OW 2281   0.380   1.742   5.282
  610SOL    HW1 2282   0.292   1.779   5.269
  610SOL    HW2 2283   0.364   1.660   5.330
  611SOL     OW 2284   1.669   0.881   4.980
  611SOL    HW1 2285   1.663   0.796   4.937
  611SOL    HW2 2286   1.660   0.945   4.909
  612SOL     OW 2287   1.224   0.335   4.169
  612SOL    HW1 2288   1.291   0.266   4.161
  612SOL    HW2 2289   1.245   0.379   4.251
  613SOL     OW 2290   0.591   0.739   4.394
  613SOL    HW1 2291   0.628   0.826   4.377
  613SOL    HW2 2292   0.522   0.730   4.328
  614SOL     OW 2293   1.753   0.382   5.367
  614SOL    HW1 2294   1.735   0.387   5.273
  614SOL    HW2 2295   1.696   0.312   5.399
  615SOL     OW 2296   1.745   0.934   5.237
  615SOL    HW1 2297   1.741   1.029   5.249
  615SOL    HW2 2298   1.729   0.922   5.143
  616SOL     OW 2299   0.862   1.367   3.758
  616SOL    HW1 2300   0.824   1.395   3.842
  616SOL    HW2 2301   0.880   1.448   3.712
  617SOL     OW 2302   0.661   1.790   4.668
  617SOL    HW1 2303   0.641   1.881   4.645
  617SOL    HW2 2304   0.757   1.785   4.661
  618SOL     OW 2305   0.868   0.967   4.578
  618SOL    HW1 2306   0.918   0.895   4.618
  618SOL    HW2 2307   0.833   1.015   4.653
  619SOL     OW 2308   1.079   0.988   3.813
  619SOL    HW1 2309   1.057   1.039   3.735
  619SOL    HW2 2310   1.154   0.935   3.787
  620SOL     OW 2311   1.846   1.538   4.552
  620SOL    HW1 2312   1.761   1.536   4.509
  620SOL    HW2 2313   1.837   1.480   4.628
  621SOL     OW 2314   0.224   1.303   5.580
  621SOL    HW1 2315   0.153   1.245   5.554
  621SOL    HW2 2316   0.212   1.317   5.673
  622SOL     OW 2317   0.116   1.276   4.442
  622SOL    HW1 2318   0.127   1.225   4.523
  622SOL    HW2 2319   0.108   1.210   4.373
  623SOL     OW 2320   0.680   1.403   5.352
  623SOL    HW1 2321   0.600   1.360   5.382
  623SOL    HW2 2322   0.676   1.491   5.389
  624SOL     OW 2323   1.812   0.183   4.963
  624SOL    HW1 2324   1.815   0.089   4.977
  624SOL    HW2 2325   1.827   0.194   4.869
  625SOL     OW 2326   0.443   0.437   4.255
  625SOL    HW1 2327   0.456   0.362   4.197
  625SOL    HW2 2328   0.387   0.403   4.325
  626SOL     OW 2329   1.702   1.482   4.815
  626SOL    HW1 2330   1.619   1.462   4.771
  626SOL    HW2 2331   1.711   1.414   4.882
  627SOL     OW 2332   0.331   0.556   5.016
  627SOL    HW1 2333   0.388   0.499   5.069
  627SOL    HW2 2334   0.347   0.527   4.926
  628SOL     OW 2335   0.827   1.578   4.401
  628SOL    HW1 2336   0.815   1.634   4.325
  628SOL    HW2 2337   0.751   1.521   4.401
  629SOL     OW 2338   1.461   0.252   4.835
  629SOL    HW1 2339   1.477   0.165   4.871
  629SOL    HW2 2340   1.404   0.295   4.899
  630SOL     OW 2341   1.005   0.029   4.871
  630SOL    HW1 2342   0.927   3.984   4.838
  630SOL    HW2 2343   1.071   3.961   4.879
  631SOL     OW 2344   0.772   1.333   4.039
  631SOL    HW1 2345   0.741   1.242   4.045
  631SOL    HW2 2346   0.854   1.334   4.088
  632SOL     OW 2347   0.620   1.557   5.009
  632SOL    HW1 2348   0.622   1.639   5.059
  632SOL    HW2 2349   0.708   1.549   4.971
  633SOL     OW 2350   1.313   0.074   3.887
  633SOL    HW1 2351   1.330   0.000   3.829
  633SOL    HW2 2352   1.228   0.055   3.926
  634SOL     OW 2353   1.284   0.458   4.410
  634SOL    HW1 2354   1.236   0.540   4.406
  634SOL    HW2 2355   1.287   0.436   4.504
  635SOL     OW 2356   1.588   0.210   4.591
  635SOL    HW1 2357   1.539   0.233   4.670
  635SOL    HW2 2358   1.588   0.290   4.539
  636SOL     OW 2359   0.046   1.050   3.964
  636SOL    HW1 2360   0.140   1.034   3.955
  636SOL    HW2 2361   0.011   0.969   4.000
  637SOL     OW 2362   0.885   1.653   4.066
  637SOL    HW1 2363   0.812   1.636   4.006
  637SOL    HW2 2364   0.856   1.728   4.118
  638SOL     OW 2365   0.233   0.626   5.704
  638SOL    HW1 2366   0.140   0.631   5.726
  638SOL    HW2 2367   0.234   0.597   5.613
  639SOL     OW 2368   0.225   0.287   6.569
  639SOL    HW1 2369   0.248   0.250   6.654
  639SOL    HW2 2370   0.130   0.273   6.562
  640SOL     OW 2371   0.018   0.386   6.221
  640SOL    HW1 2372   3.929   0.397   6.254
  640SOL    HW2 2373   0.026   0.292   6.204
  641SOL     OW 2374   0.578   1.285   6.772
  641SOL    HW1 2375   0.491   1.288   6.731
  641SOL    HW2 2376   0.592   1.373   6.805
  642SOL     OW 2377   1.132   0.698   6.286
  642SOL    HW1 2378   1.180   0.780   6.273
  642SOL    HW2 2379   1.084   0.711   6.368
  643SOL     OW 2380   1.763   0.618   5.813
  643SOL    HW1 2381   1.743   0.610   5.719
  643SOL    HW2 2382   1.750   0.530   5.848
  644SOL     OW 2383   0.755   1.141   6.625
  644SOL    HW1 2384   0.690   1.176   6.686
  644SOL    HW2 2385   0.791   1.218   6.581
  645SOL     OW 2386   0.868   0.774   7.408
  645SOL    HW1 2387   0.857   0.846   7.471
  645SOL    HW2 2388   0.890   0.817   7.326
  646SOL     OW 2389   0.685   1.004   6.233
  646SOL    HW1 2390   0.751   0.991   6.301
  646SOL    HW2 2391   0.616   1.055   6.275
  647SOL     OW 2392   0.710   1.150   7.400
  647SOL    HW1 2393   0.758   1.228   7.427
  647SOL    HW2 2394   0.628   1.183   7.363
  648SOL     OW 2395   0.351   1.403   6.665
  648SOL    HW1 2396   0.269   1.384   6.618
  648SOL    HW2 2397   0.399   1.461   6.606
  649SOL     OW 2398   1.457   1.494   6.939
  649SOL    HW1 2399   1.523   1.561   6.955
  649SOL    HW2 2400   1.396   1.502   7.012
  650SOL     OW 2401   0.455   0.407   7.084
  650SOL    HW1 2402   0.535   0.356   7.081
  650SOL    HW2 2403   0.385   0.342   7.086
  651SOL     OW 2404   1.612   0.451   6.321
  651SOL    HW1 2405   1.541   0.482   6.266
  651SOL    HW2 2406   1.633   0.525   6.377
  652SOL     OW 2407   0.222   1.717   6.045
  652SOL    HW1 2408   0.240   1.792   6.102
  652SOL    HW2 2409   0.299   1.710   5.989
  653SOL     OW 2410   1.137   1.343   7.279
  653SOL    HW1 2411   1.179   1.337   7.365
  653SOL    HW2 2412   1.085   1.263   7.272
  654SOL     OW 2413   0.247   1.448   6.126
  654SOL    HW1 2414   0.214   1.537   6.112
  654SOL    HW2 2415   0.179   1.405   6.177
  655SOL     OW 2416   0.246   1.068   6.471
  655SOL    HW1 2417   0.265   0.983   6.511
  655SOL    HW2 2418   0.194   1.115   6.536
  656SOL     OW 2419   0.613   1.791   7.015
  656SOL    HW1 2420   0.530   1.773   7.060
  656SOL    HW2 2421   0.635   1.881   7.040
  657SOL     OW 2422   0.580   0.984   5.723
  657SOL    HW1 2423   0.627   1.030   5.653
  657SOL    HW2 2424   0.622   1.014   5.804
  658SOL     OW 2425   1.579   0.138   7.043
  658SOL    HW1 2426   1.606   0.211   6.987
  658SOL    HW2 2427   1.552   0.179   7.125
  659SOL     OW 2428   0.139   0.650   6.156
  659SOL    HW1 2429   0.096   0.565   6.161
  659SOL    HW2 2430   0.102   0.700   6.228
  660SOL     OW 2431   0.044   1.590   5.725
  660SOL    HW1 2432   0.034   1.498   5.748
  660SOL    HW2 2433   3.964   1.632   5.757
  661SOL     OW 2434   1.685   0.911   6.223
  661SOL    HW1 2435   1.773   0.878   6.209
  661SOL    HW2 2436   1.667   0.965   6.145
  662SOL     OW 2437   1.647   1.106   6.015
  662SOL    HW1 2438   1.734   1.113   5.976
  662SOL    HW2 2439   1.650   1.162   6.092
  663SOL     OW 2440   0.137   0.755   7.175
  663SOL    HW1 2441   0.232   0.749   7.175
  663SOL    HW2 2442   0.119   0.846   7.200
  664SOL     OW 2443   0.612   1.385   6.322
  664SOL    HW1 2444   0.566   1.302   6.331
  664SOL    HW2 2445   0.597   1.411   6.231
  665SOL     OW 2446   1.287   1.237   7.009
  665SOL    HW1 2447   1.319   1.170   6.949
  665SOL    HW2 2448   1.344   1.231   7.085
  666SOL     OW 2449   0.818   0.002   6.101
  666SOL    HW1 2450   0.863   0.084   6.079
  666SOL    HW2 2451   0.725   0.026   6.102
  667SOL     OW 2452   0.185   0.952   6.862
  667SOL    HW1 2453   0.273   0.917   6.850
  667SOL    HW2 2454   0.131   0.908   6.796
  668SOL     OW 2455   1.532   0.993   5.785
  668SOL    HW1 2456   1.462   0.937   5.817
  668SOL    HW2 2457   1.573   1.028   5.864
  669SOL     OW 2458   1.183   1.809   7.211
  669SOL    HW1 2459   1.198   1.868   7.137
  669SOL    HW2 2460   1.201   1.722   7.176
  670SOL     OW 2461   0.342   0.253   7.416
  670SOL    HW1 2462   0.386   0.337   7.400
  670SOL    HW2 2463   0.252   0.277   7.437
  671SOL     OW 2464   1.435   1.418   6.515
  671SOL    HW1 2465   1.386   1.432   6.596
  671SOL    HW2 2466   1.438   1.323   6.505
  672SOL     OW 2467   0.596   0.718   5.850
  672SOL    HW1 2468   0.602   0.802   5.804
  672SOL    HW2 2469   0.533   0.735   5.921
  673SOL     OW 2470   1.275   0.366   6.526
  673SOL    HW1 2471   1.188   0.327   6.532
  673SOL    HW2 2472   1.332   0.304   6.572
  674SOL     OW 2473   1.571   1.670   5.888
  674SOL    HW1 2474   1.651   1.719   5.874
  674SOL    HW2 2475   1.542   1.645   5.800
  675SOL     OW 2476   0.795   0.616   7.040
  675SOL    HW1 2477   0.765   0.591   7.128
  675SOL    HW2 2478   0.755   0.551   6.982
  676SOL     OW 2479   1.392   0.477   7.263
  676SOL    HW1 2480   1.397   0.521   7.348
  676SOL    HW2 2481   1.451   0.402   7.272
  677SOL     OW 2482   0.954   0.888   7.169
  677SOL    HW1 2483   1.009   0.818   7.133
  677SOL    HW2 2484   0.906   0.922   7.093
  678SOL     OW 2485   0.991   0.403   6.826
  678SOL    HW1 2486   0.907   0.427   6.866
  678SOL    HW2 2487   0.968   0.373   6.739
  679SOL     OW 2488   1.051   0.699   6.012
  679SOL    HW1 2489   1.067   0.692   6.106
  679SOL    HW2 2490   0.969   0.652   5.998
  680SOL     OW 2491   0.081   0.826   6.377
  680SOL    HW1 2492   0.157   0.794   6.425
  680SOL    HW2 2493   0.097   0.920   6.366
  681SOL     OW 2494   0.129   1.858   7.160
  681SOL    HW1 2495   0.137   1.824   7.249
  681SOL    HW2 2496   0.037   1.846   7.138
  682SOL     OW 2497   0.893   0.351   5.784
  682SOL    HW1 2498   0.935   0.410   5.721
  682SOL    HW2 2499   0.894   0.265   5.741
  683SOL     OW 2500   1.710   0.576   7.415
  683SOL    HW1 2501   1.671   0.649   7.367
  683SOL    HW2 2502   1.734   0.513   7.346
  684SOL     OW 2503   1.374   1.139   6.123
  684SOL    HW1 2504   1.455   1.129   6.072
  684SOL    HW2 2505   1.323   1.204   6.075
  685SOL     OW 2506   0.560   0.195   6.468
  685SOL    HW1 2507   0.564   0.217   6.560
  685SOL    HW2 2508   0.547   0.279   6.423
  686SOL     OW 2509   1.003   1.442   6.057
  686SOL    HW1 2510   0.967   1.517   6.009
  686SOL    HW2 2511   0.991   1.465   6.149
  687SOL     OW 2512   0.365   1.815   6.454
  687SOL    HW1 2513   0.429   1.744   6.460
  687SOL    HW2 2514   0.415   1.895   6.470
  688SOL     OW 2515   1.794   1.041   6.458
  688SOL    HW1 2516   1.740   1.040   6.379
  688SOL    HW2 2517   1.732   1.054   6.530
  689SOL     OW 2518   1.228   1.539   7.097
  689SOL    HW1 2519   1.215   1.469   7.161
  689SOL    HW2 2520   1.165   1.521   7.028
  690SOL     OW 2521   0.310   0.955   5.828
  690SOL    HW1 2522   0.395   0.977   5.789
  690SOL    HW2 2523   0.297   0.863   5.805
  691SOL     OW 2524   1.477   0.743   6.316
  691SOL    HW1 2525   1.472   0.702   6.402
  691SOL    HW2 2526   1.555   0.799   6.321
  692SOL     OW 2527   0.466   1.260   7.323
  692SOL    HW1 2528   0.440   1.268   7.231
  692SOL    HW2 2529   0.384   1.265   7.372
  693SOL     OW 2530   1.119   1.778   5.811
  693SOL    HW1 2531   1.049   1.737   5.861
  693SOL    HW2 2532   1.144   1.712   5.746
  694SOL     OW 2533   0.200   0.295   7.085
  694SOL    HW1 2534   0.106   0.316   7.083
  694SOL    HW2 2535   0.207   0.228   7.152
  695SOL     OW 2536   1.632   1.379   5.673
  695SOL    HW1 2537   1.590   1.463   5.658
  695SOL    HW2 2538   1.563   1.314   5.655
  696SOL     OW 2539   0.466   1.739   5.904
  696SOL    HW1 2540   0.509   1.796   5.967
  696SOL    HW2 2541   0.538   1.706   5.850
  697SOL     OW 2542   1.439   0.162   5.991
  697SOL    HW1 2543   1.395   0.096   5.937
  697SOL    HW2 2544   1.513   0.116   6.030
  698SOL     OW 2545   0.251   1.791   6.818
  698SOL    HW1 2546   0.299   1.728   6.871
  698SOL    HW2 2547   0.247   1.751   6.731
  699SOL     OW 2548   0.945   1.695   6.485
  699SOL    HW1 2549   1.026   1.645   6.493
  699SOL    HW2 2550   0.894   1.649   6.418
  700SOL     OW 2551   0.396   0.694   6.058
  700SOL    HW1 2552   0.422   0.604   6.072
  700SOL    HW2 2553   0.303   0.697   6.084
  701SOL     OW 2554   1.530   0.231   7.313
  701SOL    HW1 2555   1.529   0.255   7.405
  701SOL    HW2 2556   1.505   0.138   7.312
  702SOL     OW 2557   0.643   0.133   5.687
  702SOL    HW1 2558   0.671   0.052   5.730
  702SOL    HW2 2559   0.582   0.105   5.620
  703SOL     OW 2560   0.778   0.282   7.350
  703SOL    HW1 2561   0.846   0.215   7.355
  703SOL    HW2 2562   0.718   0.260   7.422
  704SOL     OW 2563   0.877   1.523   6.780
  704SOL    HW1 2564   0.862   1.488   6.692
  704SOL    HW2 2565   0.947   1.469   6.816
  705SOL     OW 2566   1.341   0.587   7.016
  705SOL    HW1 2567   1.371   0.558   7.102
  705SOL    HW2 2568   1.375   0.676   7.007
  706SOL     OW 2569   0.813   1.396   6.526
  706SOL    HW1 2570   0.899   1.383   6.485
  706SOL    HW2 2571   0.751   1.396   6.453
  707SOL     OW 2572   0.929   0.511   6.488
  707SOL    HW1 2573   0.905   0.503   6.396
  707SOL    HW2 2574   0.956   0.423   6.513
  708SOL     OW 2575   0.546   0.056   6.075
  708SOL    HW1 2576   0.472   0.064   6.135
  708SOL    HW2 2577   0.548   0.140   6.029
  709SOL     OW 2578   1.429   1.199   5.628
  709SOL    HW1 2579   1.458   1.123   5.678
  709SOL    HW2 2580   1.343   1.220   5.665
  710SOL     OW 2581   0.338   0.042   5.782
  710SOL    HW1 2582   0.362   0.086   5.701
  710SOL    HW2 2583   0.421   0.032   5.829
  711SOL     OW 2584   0.940   0.248   6.049
  711SOL    HW1 2585   0.913   0.289   5.967
  711SOL    HW2 2586   1.035   0.251   6.047
  712SOL     OW 2587   1.079   0.682   7.046
  712SOL    HW1 2588   1.009   0.617   7.052
  712SOL    HW2 2589   1.159   0.629   7.039
  713SOL     OW 2590   1.212   1.575   6.393
  713SOL    HW1 2591   1.241   1.627   6.318
  713SOL    HW2 2592   1.292   1.551   6.439
  714SOL     OW 2593   0.466   1.150   6.324
  714SOL    HW1 2594   0.394   1.126   6.382
  714SOL    HW2 2595   0.432   1.134   6.235
  715SOL     OW 2596   1.253   1.786   6.184
  715SOL    HW1 2597   1.293   1.853   6.128
  715SOL    HW2 2598   1.184   1.833   6.232
  716SOL     OW 2599   1.023   0.545   5.611
  716SOL    HW1 2600   0.980   0.628   5.592
  716SOL    HW2 2601   1.087   0.566   5.680
  717SOL     OW 2602   0.079   0.571   6.979
  717SOL    HW1 2603   0.168   0.554   6.948
  717SOL    HW2 2604   0.089   0.643   7.042
  718SOL     OW 2605   0.572   0.231   6.746
  718SOL    HW1 2606   0.595   0.139   6.755
  718SOL    HW2 2607   0.481   0.237   6.776
  719SOL     OW 2608   0.871   0.461   6.225
  719SOL    HW1 2609   0.820   0.513   6.163
  719SOL    HW2 2610   0.890   0.380   6.178
  720SOL     OW 2611   0.995   0.041   6.366
  720SOL    HW1 2612   0.961   0.068   6.280
  720SOL    HW2 2613   1.006   3.946   6.359
  721SOL     OW 2614   1.440   1.151   6.449
  721SOL    HW1 2615   1.367   1.091   6.433
  721SOL    HW2 2616   1.472   1.173   6.361
  722SOL     OW 2617   1.466   0.605   6.563
  722SOL    HW1 2618   1.414   0.525   6.568
  722SOL    HW2 2619   1.526   0.599   6.637
  723SOL     OW 2620   1.848   0.820   5.969
  723SOL    HW1 2621   1.902   0.767   6.027
  723SOL    HW2 2622   1.816   0.758   5.903
  724SOL     OW 2623   0.488   1.418   5.747
  724SOL    HW1 2624   0.413   1.387   5.797
  724SOL    HW2 2625   0.470   1.391   5.657
  725SOL     OW 2626   1.665   1.251   6.244
  725SOL    HW1 2627   1.759   1.238   6.249
  725SOL    HW2 2628   1.654   1.344   6.225
  726SOL     OW 2629   1.395   0.574   5.656
  726SOL    HW1 2630   1.332   0.555   5.726
  726SOL    HW2 2631   1.480   0.554   5.694
  727SOL     OW 2632   0.557   0.270   5.905
  727SOL    HW1 2633   0.601   0.230   5.830
  727SOL    HW2 2634   0.528   0.356   5.873
  728SOL     OW 2635   1.744   1.226   7.152
  728SOL    HW1 2636   1.835   1.199   7.165
  728SOL    HW2 2637   1.742   1.318   7.180
  729SOL     OW 2638   1.058   1.354   6.920
  729SOL    HW1 2639   0.983   1.322   6.971
  729SOL    HW2 2640   1.134   1.312   6.961
  730SOL     OW 2641   1.124   1.198   6.693
  730SOL    HW1 2642   1.067   1.241   6.757
  730SOL    HW2 2643   1.097   1.234   6.608
  731SOL     OW 2644   1.627   1.100   6.664
  731SOL    HW1 2645   1.615   1.155   6.742
  731SOL    HW2 2646   1.550   1.117   6.610
  732SOL     OW 2647   0.913   0.112   6.988
  732SOL    HW1 2648   0.933   0.087   6.897
  732SOL    HW2 2649   0.994   0.154   7.019
  733SOL     OW 2650   0.985   1.115   7.309
  733SOL    HW1 2651   0.893   1.131   7.330
  733SOL    HW2 2652   0.983   1.037   7.253
  734SOL     OW 2653   0.708   1.061   5.957
  734SOL    HW1 2654   0.694   1.045   6.050
  734SOL    HW2 2655   0.784   1.007   5.934
  735SOL     OW 2656   0.421   0.816   6.838
  735SOL    HW1 2657   0.490   0.822   6.904
  735SOL    HW2 2658   0.386   0.727   6.848
  736SOL     OW 2659   1.266   0.375   6.862
  736SOL    HW1 2660   1.301   0.453   6.906
  736SOL    HW2 2661   1.179   0.401   6.831
  737SOL     OW 2662   0.065   1.580   6.931
  737SOL    HW1 2663   0.069   1.643   6.860
  737SOL    HW2 2664   0.156   1.566   6.957
  738SOL     OW 2665   0.373   1.103   6.071
  738SOL    HW1 2666   0.367   1.180   6.015
  738SOL    HW2 2667   0.372   1.029   6.009
  739SOL     OW 2668   0.555   0.537   6.445
  739SOL    HW1 2669   0.570   0.595   6.370
  739SOL    HW2 2670   0.620   0.564   6.510
  740SOL     OW 2671   1.244   1.343   5.973
  740SOL    HW1 2672   1.300   1.415   6.002
  740SOL    HW2 2673   1.157   1.364   6.008
  741SOL     OW 2674   1.280   1.449   6.733
  741SOL    HW1 2675   1.337   1.458   6.809
  741SOL    HW2 2676   1.224   1.375   6.754
  742SOL     OW 2677   1.577   0.633   6.070
  742SOL    HW1 2678   1.536   0.691   6.135
  742SOL    HW2 2679   1.624   0.691   6.011
  743SOL     OW 2680   0.345   1.526   6.905
  743SOL    HW1 2681   0.336   1.476   6.824
  743SOL    HW2 2682   0.440   1.541   6.913
  744SOL     OW 2683   0.414   0.739   7.187
  744SOL    HW1 2684   0.476   0.785   7.130
  744SOL    HW2 2685   0.454   0.653   7.200
  745SOL     OW 2686   1.602   0.779   7.270
  745SOL    HW1 2687   1.515   0.820   7.262
  745SOL    HW2 2688   1.654   0.820   7.201
  746SOL     OW 2689   1.017   0.126   7.364
  746SOL    HW1 2690   1.061   0.202   7.325
  746SOL    HW2 2691   1.005   0.065   7.291
  747SOL     OW 2692   0.480   0.036   7.353
  747SOL    HW1 2693   0.491   0.043   7.258
  747SOL    HW2 2694   0.419   0.107   7.375
  748SOL     OW 2695   0.584   0.874   6.617
  748SOL    HW1 2696   0.616   0.964   6.617
  748SOL    HW2 2697   0.528   0.868   6.694
  749SOL     OW 2698   1.357   0.856   6.618
  749SOL    HW1 2699   1.275   0.850   6.570
  749SOL    HW2 2700   1.397   0.770   6.609
  750SOL     OW 2701   1.203   0.535   5.847
  750SOL    HW1 2702   1.211   0.456   5.900
  750SOL    HW2 2703   1.160   0.598   5.905
  751SOL     OW 2704   0.312   0.213   6.827
  751SOL    HW1 2705   0.270   0.249   6.905
  751SOL    HW2 2706   0.295   0.119   6.831
  752SOL     OW 2707   0.057   1.305   6.866
  752SOL    HW1 2708   0.090   1.265   6.947
  752SOL    HW2 2709   0.051   1.398   6.887
  753SOL     OW 2710   0.726   0.634   6.641
  753SOL    HW1 2711   0.800   0.618   6.583
  753SOL    HW2 2712   0.697   0.722   6.619
  754SOL     OW 2713   1.733   0.962   7.439
  754SOL    HW1 2714   1.689   0.900   7.381
  754SOL    HW2 2715   1.672   0.974   7.512
  755SOL     OW 2716   0.327   0.055   6.237
  755SOL    HW1 2717   0.299   0.147   6.238
  755SOL    HW2 2718   0.288   0.017   6.316
  756SOL     OW 2719   1.604   0.389   5.968
  756SOL    HW1 2720   1.572   0.321   6.027
  756SOL    HW2 2721   1.584   0.471   6.012
  757SOL     OW 2722   1.028   0.759   6.546
  757SOL    HW1 2723   1.024   0.777   6.640
  757SOL    HW2 2724   1.001   0.668   6.537
  758SOL     OW 2725   0.978   1.564   7.299
  758SOL    HW1 2726   0.966   1.608   7.215
  758SOL    HW2 2727   1.024   1.483   7.277
  759SOL     OW 2728   0.352   0.921   7.386
  759SOL    HW1 2729   0.430   0.941   7.437
  759SOL    HW2 2730   0.380   0.854   7.324
  760SOL     OW 2731   1.508   0.276   5.722
  760SOL    HW1 2732   1.433   0.217   5.734
  760SOL    HW2 2733   1.521   0.316   5.808
  761SOL     OW 2734   1.290   0.827   5.616
  761SOL    HW1 2735   1.333   0.741   5.619
  761SOL    HW2 2736   1.322   0.866   5.535
  762SOL     OW 2737   1.062   1.333   6.443
  762SOL    HW1 2738   1.068   1.262   6.378
  762SOL    HW2 2739   1.124   1.399   6.411
  763SOL     OW 2740   0.313   0.805   6.537
  763SOL    HW1 2741   0.407   0.821   6.531
  763SOL    HW2 2742   0.307   0.715   6.569
  764SOL     OW 2743   0.337   0.528   6.600
  764SOL    HW1 2744   0.297   0.443   6.582
  764SOL    HW2 2745   0.413   0.532   6.541
  765SOL     OW 2746   1.133   0.382   7.280
  765SOL    HW1 2747   1.085   0.437   7.342
  765SOL    HW2 2748   1.220   0.421   7.275
  766SOL     OW 2749   1.151   0.225   7.067
  766SOL    HW1 2750   1.142   0.280   7.145
  766SOL    HW2 2751   1.174   0.286   6.998
  767SOL     OW 2752   4.000   1.319   5.768
  767SOL    HW1 2753   3.905   1.335   5.772
  767SOL    HW2 2754   0.009   1.225   5.787
  768SOL     OW 2755   0.077   1.801   6.475
  768SOL    HW1 2756   0.080   1.705   6.482
  768SOL    HW2 2757   0.168   1.828   6.479
  769SOL     OW 2758   0.503   1.571   6.496
  769SOL    HW1 2759   0.573   1.631   6.522
  769SOL    HW2 2760   0.546   1.507   6.439
  770SOL     OW 2761   0.982   0.790   6.812
  770SOL    HW1 2762   1.037   0.769   6.887
  770SOL    HW2 2763   0.896   0.753   6.833
  771SOL     OW 2764   0.036   0.569   6.699
  771SOL    HW1 2765   0.101   0.520   6.648
  771SOL    HW2 2766   0.061   0.556   6.790
  772SOL     OW 2767   0.210   0.516   7.307
  772SOL    HW1 2768   0.259   0.480   7.234
  772SOL    HW2 2769   0.161   0.589   7.270
  773SOL     OW 2770   1.377   0.938   7.245
  773SOL    HW1 2771   1.395   1.032   7.244
  773SOL    HW2 2772   1.375   0.913   7.152
  774SOL     OW 2773   0.818   0.572   5.945
  774SOL    HW1 2774   0.823   0.495   5.888
  774SOL    HW2 2775   0.743   0.621   5.912
  775SOL     OW 2776   1.641   0.602   6.772
  775SOL    HW1 2777   1.631   0.541   6.845
  775SOL    HW2 2778   1.728   0.584   6.737
  776SOL     OW 2779   0.298   1.545   7.314
  776SOL    HW1 2780   0.249   1.615   7.357
  776SOL    HW2 2781   0.265   1.464   7.353
  777SOL     OW 2782   0.704   0.456   6.845
  777SOL    HW1 2783   0.656   0.378   6.818
  777SOL    HW2 2784   0.696   0.515   6.770
  778SOL     OW 2785   0.929   1.679   7.051
  778SOL    HW1 2786   0.899   1.644   6.967
  778SOL    HW2 2787   0.921   1.774   7.042
  779SOL     OW 2788   0.456   0.492   5.781
  779SOL    HW1 2789   0.520   0.561   5.799
  779SOL    HW2 2790   0.376   0.539   5.759
  780SOL     OW 2791   0.157   1.136   7.059
  780SOL    HW1 2792   0.159   1.085   7.140
  780SOL    HW2 2793   0.171   1.071   6.990
  781SOL     OW 2794   1.325   1.047   6.809
  781SOL    HW1 2795   1.349   0.984   6.741
  781SOL    HW2 2796   1.254   1.098   6.770
  782SOL     OW 2797   1.313   0.855   5.891
  782SOL    HW1 2798   1.237   0.828   5.943
  782SOL    HW2 2799   1.286   0.843   5.800
  783SOL     OW 2800   0.076   1.217   6.613
  783SOL    HW1 2801   0.082   1.243   6.706
  783SOL    HW2 2802   3.983   1.225   6.592
  784SOL     OW 2803   0.678   1.666   7.318
  784SOL    HW1 2804   0.622   1.743   7.310
  784SOL    HW2 2805   0.745   1.677   7.250
  785SOL     OW 2806   1.712   0.126   6.072
  785SOL    HW1 2807   1.791   0.134   6.020
  785SOL    HW2 2808   1.703   0.032   6.090
  786SOL     OW 2809   1.377   1.564   6.055
  786SOL    HW1 2810   1.440   1.599   5.991
  786SOL    HW2 2811   1.334   1.642   6.090
  787SOL     OW 2812   0.173   1.766   7.415
  787SOL    HW1 2813   0.115   1.717   7.473
  787SOL    HW2 2814   0.215   1.830   7.472
  788SOL     OW 2815   1.277   0.926   6.258
  788SOL    HW1 2816   1.351   0.866   6.266
  788SOL    HW2 2817   1.311   0.998   6.204
  789SOL     OW 2818   0.814   1.273   7.016
  789SOL    HW1 2819   0.785   1.313   7.098
  789SOL    HW2 2820   0.743   1.292   6.954
  790SOL     OW 2821   0.670   1.620   5.742
  790SOL    HW1 2822   0.681   1.632   5.647
  790SOL    HW2 2823   0.616   1.542   5.750
  791SOL     OW 2824   1.672   1.717   6.979
  791SOL    HW1 2825   1.719   1.685   6.902
  791SOL    HW2 2826   1.681   1.812   6.975
  792SOL     OW 2827   1.839   0.177   6.554
  792SOL    HW1 2828   1.870   0.105   6.498
  792SOL    HW2 2829   1.751   0.196   6.520
  793SOL     OW 2830   0.273   0.323   6.301
  793SOL    HW1 2831   0.188   0.359   6.276
  793SOL    HW2 2832   0.265   0.306   6.394
  794SOL     OW 2833   1.209   1.605   5.615
  794SOL    HW1 2834   1.198   1.514   5.644
  794SOL    HW2 2835   1.143   1.617   5.547
  795SOL     OW 2836   0.824   1.005   6.958
  795SOL    HW1 2837   0.868   1.001   6.873
  795SOL    HW2 2838   0.824   1.098   6.980
  796SOL     OW 2839   0.915   0.910   5.875
  796SOL    HW1 2840   0.977   0.942   5.810
  796SOL    HW2 2841   0.963   0.841   5.921
  797SOL     OW 2842   1.492   1.618   5.626
  797SOL    HW1 2843   1.397   1.611   5.612
  797SOL    HW2 2844   1.528   1.628   5.538
  798SOL     OW 2845   0.373   1.303   7.078
  798SOL    HW1 2846   0.359   1.383   7.027
  798SOL    HW2 2847   0.296   1.249   7.060
  799SOL     OW 2848   1.604   1.262   6.888
  799SOL    HW1 2849   1.648   1.248   6.971
  799SOL    HW2 2850   1.540   1.331   6.906
  800SOL     OW 2851   1.052   1.107   6.291
  800SOL    HW1 2852   0.982   1.056   6.331
  800SOL    HW2 2853   1.115   1.042   6.262
  801SOL     OW 2854   1.015   0.248   6.554
  801SOL    HW1 2855   1.004   0.198   6.473
  801SOL    HW2 2856   1.009   0.183   6.624
  802SOL     OW 2857   0.605   1.488   6.068
  802SOL    HW1 2858   0.649   1.438   5.999
  802SOL    HW2 2859   0.534   1.534   6.022
  803SOL     OW 2860   1.720   0.392   6.960
  803SOL    HW1 2861   1.792   0.455   6.963
  803SOL    HW2 2862   1.753   0.321   6.906
  804SOL     OW 2863   0.253   1.342   5.878
  804SOL    HW1 2864   0.160   1.351   5.858
  804SOL    HW2 2865   0.263   1.380   5.965
  805SOL     OW 2866   0.106   1.000   7.304
  805SOL    HW1 2867   0.046   0.990   7.377
  805SOL    HW2 2868   0.192   0.980   7.341
  806SOL     OW 2869   0.693   0.247   7.084
  806SOL    HW1 2870   0.762   0.195   7.043
  806SOL    HW2 2871   0.721   0.256   7.176
  807SOL     OW 2872   0.088   0.324   5.614
  807SOL    HW1 2873   3.993   0.320   5.608
  807SOL    HW2 2874   0.111   0.407   5.571
  808SOL     OW 2875   1.429   0.858   6.986
  808SOL    HW1 2876   1.380   0.918   6.930
  808SOL    HW2 2877   1.518   0.860   6.951
  809SOL     OW 2878   0.038   0.164   5.870
  809SOL    HW1 2879   0.037   0.238   5.809
  809SOL    HW2 2880   0.117   0.178   5.922
  810SOL     OW 2881   1.178   1.340   5.703
  810SOL    HW1 2882   1.088   1.309   5.705
  810SOL    HW2 2883   1.206   1.339   5.794
  811SOL     OW 2884   0.620   0.829   7.022
  811SOL    HW1 2885   0.676   0.905   7.005
  811SOL    HW2 2886   0.680   0.756   7.030
  812SOL     OW 2887   0.716   0.563   7.293
  812SOL    HW1 2888   0.759   0.626   7.351
  812SOL    HW2 2889   0.747   0.478   7.324
  813SOL     OW 2890   1.468   1.202   7.216
  813SOL    HW1 2891   1.457   1.213   7.311
  813SOL    HW2 2892   1.563   1.207   7.203
  814SOL     OW 2893   0.380   1.742   7.144
  814SOL    HW1 2894   0.293   1.779   7.131
  814SOL    HW2 2895   0.364   1.660   7.192
  815SOL     OW 2896   1.669   0.881   6.841
  815SOL    HW1 2897   1.663   0.796   6.798
  815SOL    HW2 2898   1.660   0.944   6.769
  816SOL     OW 2899   1.224   0.334   6.030
  816SOL    HW1 2900   1.291   0.266   6.023
  816SOL    HW2 2901   1.244   0.379   6.112
  817SOL     OW 2902   0.591   0.739   6.256
  817SOL    HW1 2903   0.628   0.825   6.240
  817SOL    HW2 2904   0.522   0.730   6.190
  818SOL     OW 2905   1.753   0.382   7.229
  818SOL    HW1 2906   1.735   0.387   7.135
  818SOL    HW2 2907   1.696   0.312   7.261
  819SOL     OW 2908   1.742   0.933   7.098
  819SOL    HW1 2909   1.741   1.028   7.110
  819SOL    HW2 2910   1.728   0.921   7.004
  820SOL     OW 2911   0.862   1.367   5.620
  820SOL    HW1 2912   0.824   1.394   5.704
  820SOL    HW2 2913   0.880   1.449   5.574
  821SOL     OW 2914   0.662   1.791   6.530
  821SOL    HW1 2915   0.640   1.881   6.508
  821SOL    HW2 2916   0.757   1.787   6.523
  822SOL     OW 2917   0.868   0.966   6.440
  822SOL    HW1 2918   0.918   0.895   6.480
  822SOL    HW2 2919   0.833   1.015   6.514
  823SOL     OW 2920   1.078   0.988   5.674
  823SOL    HW1 2921   1.057   1.039   5.597
  823SOL    HW2 2922   1.153   0.935   5.648
  824SOL     OW 2923   0.224   1.303   7.441
  824SOL    HW1 2924   0.153   1.245   7.415
  824SOL    HW2 2925   0.211   1.317   7.535
  825SOL     OW 2926   0.116   1.276   6.304
  825SOL    HW1 2927   0.128   1.225   6.384
  825SOL    HW2 2928   0.108   1.210   6.235
  826SOL     OW 2929   0.680   1.403   7.214
  826SOL    HW1 2930   0.600   1.360   7.244
  826SOL    HW2 2931   0.676   1.491   7.252
  827SOL     OW 2932   1.812   0.183   6.825
  827SOL    HW1 2933   1.815   0.089   6.839
  827SOL    HW2 2934   1.827   0.194   6.731
  828SOL     OW 2935   0.442   0.437   6.117
  828SOL    HW1 2936   0.456   0.362   6.059
  828SOL    HW2 2937   0.387   0.403   6.187
  829SOL     OW 2938   1.722   1.483   6.782
  829SOL    HW1 2939   1.685   1.502   6.696
  829SOL    HW2 2940   1.694   1.394   6.801
  830SOL     OW 2941   0.331   0.555   6.878
  830SOL    HW1 2942   0.388   0.499   6.931
  830SOL    HW2 2943   0.347   0.527   6.788
  831SOL     OW 2944   0.825   1.581   6.265
  831SOL    HW1 2945   0.815   1.634   6.186
  831SOL    HW2 2946   0.750   1.522   6.264
  832SOL     OW 2947   1.461   0.252   6.697
  832SOL    HW1 2948   1.477   0.165   6.733
  832SOL    HW2 2949   1.404   0.295   6.761
  833SOL     OW 2950   1.005   0.029   6.733
  833SOL    HW1 2951   0.927   3.984   6.700
  833SOL    HW2 2952   1.072   3.961   6.741
  834SOL     OW 2953   0.772   1.333   5.901
  834SOL    HW1 2954   0.742   1.242   5.908
  834SOL    HW2 2955   0.854   1.335   5.951
  835SOL     OW 2956   0.620   1.557   6.871
  835SOL    HW1 2957   0.623   1.639   6.921
  835SOL    HW2 2958   0.708   1.549   6.833
  836SOL     OW 2959   1.314   0.074   5.750
  836SOL    HW1 2960   1.330   0.000   5.691
  836SOL    HW2 2961   1.228   0.055   5.789
  837SOL     OW 2962   1.284   0.457   6.272
  837SOL    HW1 2963   1.236   0.540   6.268
  837SOL    HW2 2964   1.287   0.436   6.366
  838SOL     OW 2965   1.588   0.211   6.453
  838SOL    HW1 2966   1.539   0.234   6.532
  838SOL    HW2 2967   1.588   0.290   6.401
  839SOL     OW 2968   0.046   1.050   5.826
  839SOL    HW1 2969   0.140   1.034   5.817
  839SOL    HW2 2970   0.011   0.970   5.862
  840SOL     OW 2971   0.884   1.653   5.929
  840SOL    HW1 2972   0.812   1.636   5.869
  840SOL    HW2 2973   0.856   1.728   5.981
  841SOL     OW 2974   0.233   0.626   7.566
  841SOL    HW1 2975   0.140   0.631   7.588
  841SOL    HW2 2976   0.234   0.597   7.475
  842SOL     OW 2977   0.225   0.287   8.431
  842SOL    HW1 2978   0.248   0.250   8.516
  842SOL    HW2 2979   0.130   0.273   8.424
  843SOL     OW 2980   0.018   0.386   8.083
  843SOL    HW1 2981   3.929   0.397   8.115
  843SOL    HW2 2982   0.026   0.292   8.065
  844SOL     OW 2983   0.578   1.285   8.634
  844SOL    HW1 2984   0.491   1.288   8.593
  844SOL    HW2 2985   0.592   1.373   8.667
  845SOL     OW 2986   1.566   1.511   8.161
  845SOL    HW1 2987   1.521   1.492   8.243
  845SOL    HW2 2988   1.496   1.519   8.096
  846SOL     OW 2989   1.132   0.698   8.148
  846SOL    HW1 2990   1.180   0.780   8.135
  846SOL    HW2 2991   1.084   0.711   8.230
  847SOL     OW 2992   1.762   0.617   7.675
  847SOL    HW1 2993   1.742   0.610   7.581
  847SOL    HW2 2994   1.752   0.528   7.708
  848SOL     OW 2995   0.757   1.141   8.488
  848SOL    HW1 2996   0.691   1.176   8.548
  848SOL    HW2 2997   0.791   1.219   8.443
  849SOL     OW 2998   0.868   0.774   9.271
  849SOL    HW1 2999   0.856   0.846   9.333
  849SOL    HW2 3000   0.890   0.817   9.188
  850SOL     OW 3001   0.686   1.004   8.095
  850SOL    HW1 3002   0.751   0.991   8.164
  850SOL    HW2 3003   0.616   1.055   8.137
  851SOL     OW 3004   0.710   1.150   9.261
  851SOL    HW1 3005   0.758   1.228   9.288
  851SOL    HW2 3006   0.628   1.183   9.225
  852SOL     OW 3007   0.351   1.402   8.527
  852SOL    HW1 3008   0.269   1.384   8.480
  852SOL    HW2 3009   0.399   1.461   8.468
  853SOL     OW 3010   1.461   1.500   8.802
  853SOL    HW1 3011   1.512   1.581   8.812
  853SOL    HW2 3012   1.399   1.502   8.875
  854SOL     OW 3013   0.455   0.407   8.946
  854SOL    HW1 3014   0.535   0.356   8.943
  854SOL    HW2 3015   0.385   0.342   8.948
  855SOL     OW 3016   1.612   0.450   8.183
  855SOL    HW1 3017   1.541   0.481   8.128
  855SOL    HW2 3018   1.633   0.525   8.239
  856SOL     OW 3019   0.222   1.717   7.907
  856SOL    HW1 3020   0.240   1.792   7.964
  856SOL    HW2 3021   0.299   1.710   7.851
  857SOL     OW 3022   1.137   1.342   9.141
  857SOL    HW1 3023   1.177   1.337   9.227
  857SOL    HW2 3024   1.084   1.262   9.134
  858SOL     OW 3025   0.247   1.448   7.988
  858SOL    HW1 3026   0.215   1.537   7.974
  858SOL    HW2 3027   0.179   1.406   8.039
  859SOL     OW 3028   0.247   1.068   8.333
  859SOL    HW1 3029   0.265   0.983   8.373
  859SOL    HW2 3030   0.194   1.115   8.398
  860SOL     OW 3031   0.613   1.791   8.877
  860SOL    HW1 3032   0.530   1.773   8.922
  860SOL    HW2 3033   0.635   1.881   8.902
  861SOL     OW 3034   0.580   0.984   7.585
  861SOL    HW1 3035   0.627   1.030   7.515
  861SOL    HW2 3036   0.622   1.013   7.665
  862SOL     OW 3037   1.579   0.138   8.905
  862SOL    HW1 3038   1.606   0.211   8.849
  862SOL    HW2 3039   1.552   0.178   8.987
  863SOL     OW 3040   0.139   0.650   8.018
  863SOL    HW1 3041   0.096   0.565   8.023
  863SOL    HW2 3042   0.101   0.700   8.090
  864SOL     OW 3043   0.044   1.590   7.587
  864SOL    HW1 3044   0.034   1.498   7.610
  864SOL    HW2 3045   3.963   1.632   7.619
  865SOL     OW 3046   1.689   0.919   8.090
  865SOL    HW1 3047   1.772   0.875   8.068
  865SOL    HW2 3048   1.667   0.969   8.011
  866SOL     OW 3049   1.647   1.107   7.877
  866SOL    HW1 3050   1.736   1.105   7.839
  866SOL    HW2 3051   1.654   1.169   7.950
  867SOL     OW 3052   0.137   0.755   9.037
  867SOL    HW1 3053   0.232   0.749   9.037
  867SOL    HW2 3054   0.119   0.845   9.062
  868SOL     OW 3055   0.612   1.385   8.184
  868SOL    HW1 3056   0.566   1.302   8.193
  868SOL    HW2 3057   0.597   1.411   8.093
  869SOL     OW 3058   1.289   1.238   8.871
  869SOL    HW1 3059   1.321   1.171   8.811
  869SOL    HW2 3060   1.346   1.232   8.947
  870SOL     OW 3061   0.818   0.002   7.963
  870SOL    HW1 3062   0.863   0.084   7.941
  870SOL    HW2 3063   0.725   0.026   7.964
  871SOL     OW 3064   0.185   0.952   8.725
  871SOL    HW1 3065   0.273   0.917   8.711
  871SOL    HW2 3066   0.131   0.908   8.658
  872SOL     OW 3067   1.533   0.994   7.647
  872SOL    HW1 3068   1.462   0.937   7.678
  872SOL    HW2 3069   1.573   1.027   7.728
  873SOL     OW 3070   1.185   1.807   9.071
  873SOL    HW1 3071   1.196   1.866   8.996
  873SOL    HW2 3072   1.202   1.720   9.035
  874SOL     OW 3073   0.342   0.253   9.278
  874SOL    HW1 3074   0.386   0.337   9.263
  874SOL    HW2 3075   0.252   0.277   9.299
  875SOL     OW 3076   1.466   1.418   8.400
  875SOL    HW1 3077   1.397   1.434   8.465
  875SOL    HW2 3078   1.452   1.327   8.373
  876SOL     OW 3079   1.676   1.720   8.018
  876SOL    HW1 3080   1.631   1.684   7.942
  876SOL    HW2 3081   1.655   1.661   8.089
  877SOL     OW 3082   0.596   0.719   7.712
  877SOL    HW1 3083   0.602   0.802   7.665
  877SOL    HW2 3084   0.533   0.735   7.782
  878SOL     OW 3085   1.275   0.366   8.388
  878SOL    HW1 3086   1.188   0.327   8.394
  878SOL    HW2 3087   1.332   0.304   8.434
  879SOL     OW 3088   0.795   0.616   8.902
  879SOL    HW1 3089   0.765   0.591   8.990
  879SOL    HW2 3090   0.755   0.552   8.844
  880SOL     OW 3091   1.392   0.477   9.125
  880SOL    HW1 3092   1.397   0.521   9.210
  880SOL    HW2 3093   1.451   0.402   9.134
  881SOL     OW 3094   0.954   0.888   9.031
  881SOL    HW1 3095   1.009   0.818   8.995
  881SOL    HW2 3096   0.906   0.922   8.955
  882SOL     OW 3097   0.991   0.403   8.688
  882SOL    HW1 3098   0.907   0.427   8.728
  882SOL    HW2 3099   0.968   0.372   8.601
  883SOL     OW 3100   1.051   0.699   7.874
  883SOL    HW1 3101   1.066   0.691   7.968
  883SOL    HW2 3102   0.969   0.652   7.859
  884SOL     OW 3103   0.081   0.826   8.239
  884SOL    HW1 3104   0.157   0.794   8.287
  884SOL    HW2 3105   0.097   0.920   8.228
  885SOL     OW 3106   0.129   1.858   9.022
  885SOL    HW1 3107   0.137   1.824   9.111
  885SOL    HW2 3108   0.037   1.846   9.000
  886SOL     OW 3109   0.893   0.351   7.646
  886SOL    HW1 3110   0.935   0.410   7.583
  886SOL    HW2 3111   0.893   0.266   7.603
  887SOL     OW 3112   1.710   0.576   9.277
  887SOL    HW1 3113   1.671   0.649   9.229
  887SOL    HW2 3114   1.734   0.513   9.209
  888SOL     OW 3115   1.378   1.142   7.990
  888SOL    HW1 3116   1.456   1.129   7.936
  888SOL    HW2 3117   1.324   1.203   7.940
  889SOL     OW 3118   0.560   0.195   8.330
  889SOL    HW1 3119   0.564   0.218   8.423
  889SOL    HW2 3120   0.547   0.279   8.285
  890SOL     OW 3121   1.007   1.445   7.921
  890SOL    HW1 3122   0.970   1.518   7.870
  890SOL    HW2 3123   0.985   1.466   8.011
  891SOL     OW 3124   0.365   1.815   8.316
  891SOL    HW1 3125   0.429   1.745   8.322
  891SOL    HW2 3126   0.415   1.895   8.332
  892SOL     OW 3127   1.799   1.059   8.314
  892SOL    HW1 3128   1.744   1.038   8.238
  892SOL    HW2 3129   1.737   1.064   8.387
  893SOL     OW 3130   1.228   1.539   8.961
  893SOL    HW1 3131   1.214   1.466   9.022
  893SOL    HW2 3132   1.164   1.524   8.891
  894SOL     OW 3133   0.310   0.955   7.690
  894SOL    HW1 3134   0.395   0.977   7.650
  894SOL    HW2 3135   0.297   0.863   7.666
  895SOL     OW 3136   1.478   0.745   8.178
  895SOL    HW1 3137   1.470   0.701   8.263
  895SOL    HW2 3138   1.556   0.800   8.187
  896SOL     OW 3139   0.466   1.260   9.185
  896SOL    HW1 3140   0.440   1.268   9.093
  896SOL    HW2 3141   0.384   1.264   9.234
  897SOL     OW 3142   1.143   1.769   7.699
  897SOL    HW1 3143   1.060   1.734   7.733
  897SOL    HW2 3144   1.157   1.721   7.617
  898SOL     OW 3145   0.200   0.295   8.947
  898SOL    HW1 3146   0.106   0.316   8.945
  898SOL    HW2 3147   0.207   0.228   9.014
  899SOL     OW 3148   0.466   1.739   7.766
  899SOL    HW1 3149   0.509   1.796   7.829
  899SOL    HW2 3150   0.538   1.706   7.712
  900SOL     OW 3151   1.438   0.162   7.853
  900SOL    HW1 3152   1.395   0.096   7.798
  900SOL    HW2 3153   1.513   0.115   7.892
  901SOL     OW 3154   0.251   1.791   8.680
  901SOL    HW1 3155   0.299   1.728   8.733
  901SOL    HW2 3156   0.247   1.751   8.593
  902SOL     OW 3157   0.937   1.698   8.347
  902SOL    HW1 3158   1.015   1.647   8.368
  902SOL    HW2 3159   0.894   1.649   8.277
  903SOL     OW 3160   0.396   0.694   7.920
  903SOL    HW1 3161   0.422   0.603   7.934
  903SOL    HW2 3162   0.304   0.697   7.946
  904SOL     OW 3163   1.530   0.231   9.175
  904SOL    HW1 3164   1.529   0.255   9.267
  904SOL    HW2 3165   1.505   0.138   9.174
  905SOL     OW 3166   0.644   0.133   7.550
  905SOL    HW1 3167   0.671   0.052   7.592
  905SOL    HW2 3168   0.582   0.106   7.482
  906SOL     OW 3169   0.778   0.282   9.213
  906SOL    HW1 3170   0.846   0.216   9.217
  906SOL    HW2 3171   0.718   0.260   9.284
  907SOL     OW 3172   0.876   1.521   8.642
  907SOL    HW1 3173   0.860   1.485   8.555
  907SOL    HW2 3174   0.946   1.467   8.678
  908SOL     OW 3175   1.341   0.587   8.878
  908SOL    HW1 3176   1.371   0.558   8.964
  908SOL    HW2 3177   1.375   0.676   8.870
  909SOL     OW 3178   0.815   1.395   8.387
  909SOL    HW1 3179   0.900   1.383   8.344
  909SOL    HW2 3180   0.752   1.395   8.315
  910SOL     OW 3181   0.929   0.511   8.349
  910SOL    HW1 3182   0.905   0.503   8.257
  910SOL    HW2 3183   0.956   0.423   8.375
  911SOL     OW 3184   0.546   0.056   7.937
  911SOL    HW1 3185   0.472   0.064   7.997
  911SOL    HW2 3186   0.548   0.140   7.891
  912SOL     OW 3187   1.430   1.197   7.483
  912SOL    HW1 3188   1.461   1.125   7.539
  912SOL    HW2 3189   1.350   1.227   7.525
  913SOL     OW 3190   0.338   0.043   7.644
  913SOL    HW1 3191   0.362   0.086   7.563
  913SOL    HW2 3192   0.421   0.031   7.690
  914SOL     OW 3193   0.940   0.248   7.911
  914SOL    HW1 3194   0.913   0.289   7.829
  914SOL    HW2 3195   1.035   0.250   7.909
  915SOL     OW 3196   1.079   0.682   8.907
  915SOL    HW1 3197   1.009   0.617   8.914
  915SOL    HW2 3198   1.159   0.629   8.902
  916SOL     OW 3199   1.225   1.570   8.242
  916SOL    HW1 3200   1.240   1.639   8.177
  916SOL    HW2 3201   1.292   1.584   8.308
  917SOL     OW 3202   0.466   1.150   8.186
  917SOL    HW1 3203   0.394   1.126   8.244
  917SOL    HW2 3204   0.432   1.134   8.097
  918SOL     OW 3205   1.270   1.793   8.056
  918SOL    HW1 3206   1.311   1.854   7.994
  918SOL    HW2 3207   1.203   1.845   8.100
  919SOL     OW 3208   1.023   0.545   7.474
  919SOL    HW1 3209   0.980   0.628   7.454
  919SOL    HW2 3210   1.087   0.567   7.542
  920SOL     OW 3211   0.079   0.571   8.841
  920SOL    HW1 3212   0.168   0.554   8.810
  920SOL    HW2 3213   0.089   0.643   8.904
  921SOL     OW 3214   0.572   0.231   8.608
  921SOL    HW1 3215   0.595   0.139   8.617
  921SOL    HW2 3216   0.481   0.237   8.638
  922SOL     OW 3217   0.872   0.462   8.087
  922SOL    HW1 3218   0.820   0.513   8.025
  922SOL    HW2 3219   0.890   0.380   8.040
  923SOL     OW 3220   0.995   0.041   8.227
  923SOL    HW1 3221   0.961   0.068   8.142
  923SOL    HW2 3222   1.006   3.946   8.221
  924SOL     OW 3223   1.437   1.162   8.304
  924SOL    HW1 3224   1.367   1.096   8.305
  924SOL    HW2 3225   1.458   1.172   8.212
  925SOL     OW 3226   1.466   0.605   8.425
  925SOL    HW1 3227   1.413   0.525   8.430
  925SOL    HW2 3228   1.526   0.599   8.499
  926SOL     OW 3229   1.843   0.815   7.836
  926SOL    HW1 3230   1.901   0.762   7.891
  926SOL    HW2 3231   1.813   0.755   7.768
  927SOL     OW 3232   0.488   1.418   7.609
  927SOL    HW1 3233   0.413   1.387   7.659
  927SOL    HW2 3234   0.470   1.391   7.519
  928SOL     OW 3235   1.675   1.267   8.091
  928SOL    HW1 3236   1.769   1.272   8.106
  928SOL    HW2 3237   1.642   1.353   8.117
  929SOL     OW 3238   1.395   0.574   7.518
  929SOL    HW1 3239   1.332   0.555   7.588
  929SOL    HW2 3240   1.480   0.553   7.556
  930SOL     OW 3241   0.558   0.270   7.767
  930SOL    HW1 3242   0.601   0.230   7.692
  930SOL    HW2 3243   0.528   0.356   7.735
  931SOL     OW 3244   1.752   1.239   9.020
  931SOL    HW1 3245   1.839   1.200   9.017
  931SOL    HW2 3246   1.767   1.329   9.049
  932SOL     OW 3247   1.058   1.354   8.782
  932SOL    HW1 3248   0.983   1.323   8.833
  932SOL    HW2 3249   1.134   1.312   8.823
  933SOL     OW 3250   1.607   1.625   9.101
  933SOL    HW1 3251   1.603   1.661   9.013
  933SOL    HW2 3252   1.691   1.579   9.104
  934SOL     OW 3253   1.130   1.204   8.553
  934SOL    HW1 3254   1.070   1.241   8.618
  934SOL    HW2 3255   1.097   1.236   8.469
  935SOL     OW 3256   1.628   1.098   8.525
  935SOL    HW1 3257   1.623   1.160   8.598
  935SOL    HW2 3258   1.549   1.115   8.474
  936SOL     OW 3259   0.913   0.112   8.850
  936SOL    HW1 3260   0.933   0.087   8.759
  936SOL    HW2 3261   0.994   0.154   8.881
  937SOL     OW 3262   0.984   1.115   9.171
  937SOL    HW1 3263   0.892   1.131   9.192
  937SOL    HW2 3264   0.983   1.037   9.115
  938SOL     OW 3265   0.707   1.061   7.819
  938SOL    HW1 3266   0.694   1.045   7.912
  938SOL    HW2 3267   0.784   1.008   7.796
  939SOL     OW 3268   0.421   0.816   8.700
  939SOL    HW1 3269   0.490   0.822   8.766
  939SOL    HW2 3270   0.386   0.727   8.710
  940SOL     OW 3271   1.266   0.375   8.724
  940SOL    HW1 3272   1.300   0.453   8.768
  940SOL    HW2 3273   1.179   0.401   8.693
  941SOL     OW 3274   0.065   1.580   8.793
  941SOL    HW1 3275   0.069   1.643   8.722
  941SOL    HW2 3276   0.156   1.566   8.818
  942SOL     OW 3277   0.374   1.103   7.933
  942SOL    HW1 3278   0.367   1.181   7.877
  942SOL    HW2 3279   0.372   1.029   7.871
  943SOL     OW 3280   0.555   0.537   8.307
  943SOL    HW1 3281   0.570   0.595   8.232
  943SOL    HW2 3282   0.621   0.564   8.372
  944SOL     OW 3283   1.249   1.348   7.840
  944SOL    HW1 3284   1.305   1.418   7.873
  944SOL    HW2 3285   1.161   1.370   7.871
  945SOL     OW 3286   1.281   1.458   8.595
  945SOL    HW1 3287   1.337   1.461   8.673
  945SOL    HW2 3288   1.226   1.381   8.608
  946SOL     OW 3289   1.578   0.632   7.934
  946SOL    HW1 3290   1.535   0.691   7.995
  946SOL    HW2 3291   1.624   0.690   7.873
  947SOL     OW 3292   0.345   1.526   8.767
  947SOL    HW1 3293   0.336   1.476   8.686
  947SOL    HW2 3294   0.440   1.542   8.775
  948SOL     OW 3295   0.414   0.739   9.049
  948SOL    HW1 3296   0.476   0.785   8.992
  948SOL    HW2 3297   0.453   0.653   9.062
  949SOL     OW 3298   1.602   0.779   9.131
  949SOL    HW1 3299   1.515   0.820   9.124
  949SOL    HW2 3300   1.654   0.820   9.063
  950SOL     OW 3301   1.016   0.126   9.226
  950SOL    HW1 3302   1.061   0.202   9.187
  950SOL    HW2 3303   1.005   0.065   9.153
  951SOL     OW 3304   0.480   0.036   9.214
  951SOL    HW1 3305   0.491   0.043   9.120
  951SOL    HW2 3306   0.419   0.107   9.237
  952SOL     OW 3307   0.585   0.874   8.479
  952SOL    HW1 3308   0.614   0.965   8.479
  952SOL    HW2 3309   0.528   0.867   8.556
  953SOL     OW 3310   1.357   0.859   8.477
  953SOL    HW1 3311   1.273   0.848   8.432
  953SOL    HW2 3312   1.398   0.772   8.471
  954SOL     OW 3313   1.204   0.535   7.709
  954SOL    HW1 3314   1.212   0.456   7.762
  954SOL    HW2 3315   1.159   0.598   7.767
  955SOL     OW 3316   0.312   0.213   8.689
  955SOL    HW1 3317   0.270   0.249   8.767
  955SOL    HW2 3318   0.295   0.119   8.693
  956SOL     OW 3319   0.058   1.305   8.728
  956SOL    HW1 3320   0.090   1.265   8.809
  956SOL    HW2 3321   0.051   1.398   8.749
  957SOL     OW 3322   0.726   0.634   8.504
  957SOL    HW1 3323   0.799   0.618   8.444
  957SOL    HW2 3324   0.697   0.722   8.481
  958SOL     OW 3325   1.735   0.959   9.301
  958SOL    HW1 3326   1.689   0.898   9.244
  958SOL    HW2 3327   1.676   0.973   9.375
  959SOL     OW 3328   0.327   0.055   8.099
  959SOL    HW1 3329   0.299   0.147   8.100
  959SOL    HW2 3330   0.288   0.017   8.178
  960SOL     OW 3331   1.603   0.388   7.830
  960SOL    HW1 3332   1.571   0.320   7.890
  960SOL    HW2 3333   1.584   0.471   7.875
  961SOL     OW 3334   1.029   0.759   8.408
  961SOL    HW1 3335   1.024   0.777   8.502
  961SOL    HW2 3336   1.001   0.668   8.399
  962SOL     OW 3337   0.982   1.566   9.165
  962SOL    HW1 3338   0.967   1.610   9.082
  962SOL    HW2 3339   1.026   1.484   9.142
  963SOL     OW 3340   1.854   1.504   9.053
  963SOL    HW1 3341   1.871   1.534   8.964
  963SOL    HW2 3342   1.938   1.517   9.098
  964SOL     OW 3343   0.352   0.921   9.248
  964SOL    HW1 3344   0.430   0.941   9.299
  964SOL    HW2 3345   0.380   0.854   9.186
  965SOL     OW 3346   1.508   0.276   7.584
  965SOL    HW1 3347   1.433   0.217   7.596
  965SOL    HW2 3348   1.521   0.316   7.670
  966SOL     OW 3349   1.292   0.827   7.479
  966SOL    HW1 3350   1.334   0.741   7.481
  966SOL    HW2 3351   1.323   0.867   7.398
  967SOL     OW 3352   1.066   1.336   8.302
  967SOL    HW1 3353   1.069   1.264   8.240
  967SOL    HW2 3354   1.127   1.401   8.267
  968SOL     OW 3355   0.313   0.805   8.399
  968SOL    HW1 3356   0.407   0.821   8.392
  968SOL    HW2 3357   0.307   0.715   8.431
  969SOL     OW 3358   0.338   0.528   8.462
  969SOL    HW1 3359   0.297   0.443   8.444
  969SOL    HW2 3360   0.413   0.532   8.403
  970SOL     OW 3361   1.133   0.382   9.142
  970SOL    HW1 3362   1.085   0.437   9.204
  970SOL    HW2 3363   1.220   0.421   9.137
  971SOL     OW 3364   1.151   0.225   8.929
  971SOL    HW1 3365   1.142   0.280   9.007
  971SOL    HW2 3366   1.174   0.286   8.859
  972SOL     OW 3367   4.000   1.319   7.631
  972SOL    HW1 3368   3.905   1.335   7.634
  972SOL    HW2 3369   0.009   1.226   7.649
  973SOL     OW 3370   0.077   1.801   8.337
  973SOL    HW1 3371   0.080   1.705   8.344
  973SOL    HW2 3372   0.168   1.828   8.341
  974SOL     OW 3373   0.503   1.571   8.359
  974SOL    HW1 3374   0.572   1.631   8.384
  974SOL    HW2 3375   0.546   1.508   8.301
  975SOL     OW 3376   0.982   0.791   8.674
  975SOL    HW1 3377   1.037   0.769   8.749
  975SOL    HW2 3378   0.896   0.754   8.694
  976SOL     OW 3379   0.036   0.569   8.561
  976SOL    HW1 3380   0.100   0.520   8.510
  976SOL    HW2 3381   0.061   0.556   8.652
  977SOL     OW 3382   0.210   0.516   9.170
  977SOL    HW1 3383   0.259   0.479   9.096
  977SOL    HW2 3384   0.161   0.589   9.132
  978SOL     OW 3385   1.377   0.938   9.106
  978SOL    HW1 3386   1.398   1.032   9.104
  978SOL    HW2 3387   1.374   0.912   9.014
  979SOL     OW 3388   0.818   0.572   7.807
  979SOL    HW1 3389   0.823   0.495   7.750
  979SOL    HW2 3390   0.743   0.621   7.774
  980SOL     OW 3391   1.641   0.602   8.634
  980SOL    HW1 3392   1.631   0.541   8.707
  980SOL    HW2 3393   1.729   0.584   8.599
  981SOL     OW 3394   0.298   1.545   9.176
  981SOL    HW1 3395   0.249   1.615   9.219
  981SOL    HW2 3396   0.265   1.464   9.215
  982SOL     OW 3397   0.704   0.456   8.707
  982SOL    HW1 3398   0.656   0.378   8.681
  982SOL    HW2 3399   0.697   0.515   8.632
  983SOL     OW 3400   0.927   1.679   8.916
  983SOL    HW1 3401   0.902   1.644   8.831
  983SOL    HW2 3402   0.923   1.774   8.905
  984SOL     OW 3403   0.456   0.492   7.644
  984SOL    HW1 3404   0.521   0.561   7.661
  984SOL    HW2 3405   0.376   0.539   7.622
  985SOL     OW 3406   0.157   1.136   8.921
  985SOL    HW1 3407   0.159   1.084   9.002
  985SOL    HW2 3408   0.171   1.071   8.852
  986SOL     OW 3409   1.326   1.047   8.671
  986SOL    HW1 3410   1.349   0.983   8.603
  986SOL    HW2 3411   1.256   1.099   8.632
  987SOL     OW 3412   1.312   0.856   7.755
  987SOL    HW1 3413   1.236   0.827   7.804
  987SOL    HW2 3414   1.287   0.844   7.663
  988SOL     OW 3415   1.741   1.737   8.583
  988SOL    HW1 3416   1.817   1.760   8.529
  988SOL    HW2 3417   1.727   1.644   8.567
  989SOL     OW 3418   1.243   1.734   8.559
  989SOL    HW1 3419   1.325   1.754   8.515
  989SOL    HW2 3420   1.248   1.640   8.578
  990SOL     OW 3421   0.076   1.217   8.475
  990SOL    HW1 3422   0.083   1.243   8.567
  990SOL    HW2 3423   3.983   1.225   8.454
  991SOL     OW 3424   0.679   1.666   9.179
  991SOL    HW1 3425   0.622   1.743   9.172
  991SOL    HW2 3426   0.743   1.678   9.109
  992SOL     OW 3427   1.712   0.126   7.934
  992SOL    HW1 3428   1.791   0.134   7.882
  992SOL    HW2 3429   1.703   0.033   7.952
  993SOL     OW 3430   1.396   1.568   7.939
  993SOL    HW1 3431   1.417   1.597   7.850
  993SOL    HW2 3432   1.343   1.640   7.975
  994SOL     OW 3433   0.173   1.765   9.277
  994SOL    HW1 3434   0.115   1.717   9.335
  994SOL    HW2 3435   0.215   1.830   9.334
  995SOL     OW 3436   1.277   0.926   8.119
  995SOL    HW1 3437   1.351   0.866   8.128
  995SOL    HW2 3438   1.311   0.999   8.067
  996SOL     OW 3439   0.814   1.273   8.878
  996SOL    HW1 3440   0.785   1.313   8.960
  996SOL    HW2 3441   0.743   1.292   8.816
  997SOL     OW 3442   0.670   1.620   7.604
  997SOL    HW1 3443   0.681   1.632   7.509
  997SOL    HW2 3444   0.616   1.542   7.612
  998SOL     OW 3445   1.626   1.729   8.839
  998SOL    HW1 3446   1.669   1.735   8.753
  998SOL    HW2 3447   1.612   1.819   8.866
  999SOL     OW 3448   1.839   0.177   8.415
  999SOL    HW1 3449   1.870   0.105   8.360
  999SOL    HW2 3450   1.751   0.195   8.382
 1000SOL     OW 3451   0.273   0.323   8.163
 1000SOL    HW1 3452   0.188   0.359   8.138
 1000SOL    HW2 3453   0.265   0.306   8.257
 1001SOL     OW 3454   1.187   1.614   7.484
 1001SOL    HW1 3455   1.197   1.521   7.504
 1001SOL    HW2 3456   1.123   1.616   7.412
 1002SOL     OW 3457   0.824   1.005   8.821
 1002SOL    HW1 3458   0.867   1.001   8.735
 1002SOL    HW2 3459   0.823   1.098   8.843
 1003SOL     OW 3460   0.916   0.911   7.739
 1003SOL    HW1 3461   0.976   0.942   7.672
 1003SOL    HW2 3462   0.963   0.841   7.784
 1004SOL     OW 3463   0.374   1.303   8.939
 1004SOL    HW1 3464   0.358   1.383   8.889
 1004SOL    HW2 3465   0.297   1.248   8.922
 1005SOL     OW 3466   1.611   1.283   8.729
 1005SOL    HW1 3467   1.670   1.271   8.804
 1005SOL    HW2 3468   1.550   1.352   8.757
 1006SOL     OW 3469   1.053   1.108   8.155
 1006SOL    HW1 3470   0.981   1.057   8.194
 1006SOL    HW2 3471   1.115   1.042   8.124
 1007SOL     OW 3472   1.014   0.248   8.416
 1007SOL    HW1 3473   1.004   0.198   8.335
 1007SOL    HW2 3474   1.009   0.183   8.486
 1008SOL     OW 3475   0.604   1.489   7.930
 1008SOL    HW1 3476   0.649   1.439   7.862
 1008SOL    HW2 3477   0.534   1.534   7.885
 1009SOL     OW 3478   1.720   0.392   8.821
 1009SOL    HW1 3479   1.792   0.455   8.825
 1009SOL    HW2 3480   1.753   0.321   8.767
 1010SOL     OW 3481   0.253   1.341   7.740
 1010SOL    HW1 3482   0.160   1.351   7.720
 1010SOL    HW2 3483   0.263   1.380   7.827
 1011SOL     OW 3484   0.106   1.000   9.166
 1011SOL    HW1 3485   0.046   0.990   9.239
 1011SOL    HW2 3486   0.192   0.980   9.203
 1012SOL     OW 3487   0.694   0.248   8.946
 1012SOL    HW1 3488   0.762   0.195   8.906
 1012SOL    HW2 3489   0.721   0.256   9.038
 1013SOL     OW 3490   0.088   0.324   7.476
 1013SOL    HW1 3491   3.993   0.320   7.470
 1013SOL    HW2 3492   0.111   0.406   7.433
 1014SOL     OW 3493   1.429   0.857   8.848
 1014SOL    HW1 3494   1.380   0.919   8.792
 1014SOL    HW2 3495   1.518   0.860   8.814
 1015SOL     OW 3496   0.038   0.164   7.732
 1015SOL    HW1 3497   0.037   0.238   7.671
 1015SOL    HW2 3498   0.117   0.178   7.784
 1016SOL     OW 3499   1.183   1.338   7.564
 1016SOL    HW1 3500   1.091   1.310   7.566
 1016SOL    HW2 3501   1.209   1.340   7.656
 1017SOL     OW 3502   0.620   0.829   8.884
 1017SOL    HW1 3503   0.676   0.905   8.868
 1017SOL    HW2 3504   0.680   0.755   8.892
 1018SOL     OW 3505   1.489   1.781   8.428
 1018SOL    HW1 3506   1.510   1.848   8.363
 1018SOL    HW2 3507   1.571   1.765   8.475
 1019SOL     OW 3508   0.717   0.563   9.155
 1019SOL    HW1 3509   0.760   0.626   9.214
 1019SOL    HW2 3510   0.747   0.477   9.185
 1020SOL     OW 3511   1.471   1.200   9.080
 1020SOL    HW1 3512   1.459   1.213   9.174
 1020SOL    HW2 3513   1.565   1.215   9.065
 1021SOL     OW 3514   0.380   1.742   9.006
 1021SOL    HW1 3515   0.293   1.779   8.993
 1021SOL    HW2 3516   0.364   1.660   9.054
 1022SOL     OW 3517   1.669   0.881   8.704
 1022SOL    HW1 3518   1.663   0.796   8.661
 1022SOL    HW2 3519   1.660   0.944   8.632
 1023SOL     OW 3520   1.224   0.334   7.893
 1023SOL    HW1 3521   1.291   0.266   7.885
 1023SOL    HW2 3522   1.245   0.379   7.975
 1024SOL     OW 3523   0.591   0.739   8.118
 1024SOL    HW1 3524   0.628   0.826   8.101
 1024SOL    HW2 3525   0.522   0.729   8.052
 1025SOL     OW 3526   1.753   0.382   9.091
 1025SOL    HW1 3527   1.735   0.387   8.997
 1025SOL    HW2 3528   1.696   0.312   9.123
 1026SOL     OW 3529   1.744   0.934   8.961
 1026SOL    HW1 3530   1.741   1.029   8.973
 1026SOL    HW2 3531   1.729   0.922   8.867
 1027SOL     OW 3532   0.862   1.367   7.482
 1027SOL    HW1 3533   0.824   1.397   7.565
 1027SOL    HW2 3534   0.881   1.448   7.434
 1028SOL     OW 3535   0.661   1.790   8.392
 1028SOL    HW1 3536   0.640   1.881   8.369
 1028SOL    HW2 3537   0.757   1.785   8.384
 1029SOL     OW 3538   0.868   0.967   8.302
 1029SOL    HW1 3539   0.918   0.895   8.342
 1029SOL    HW2 3540   0.833   1.015   8.377
 1030SOL     OW 3541   1.077   0.986   7.536
 1030SOL    HW1 3542   1.057   1.039   7.459
 1030SOL    HW2 3543   1.154   0.935   7.511
 1031SOL     OW 3544   1.848   1.541   8.278
 1031SOL    HW1 3545   1.761   1.538   8.238
 1031SOL    HW2 3546   1.843   1.482   8.353
 1032SOL     OW 3547   0.224   1.303   9.303
 1032SOL    HW1 3548   0.153   1.245   9.277
 1032SOL    HW2 3549   0.211   1.317   9.397
 1033SOL     OW 3550   0.116   1.276   8.167
 1033SOL    HW1 3551   0.127   1.225   8.247
 1033SOL    HW2 3552   0.108   1.210   8.097
 1034SOL     OW 3553   0.681   1.403   9.076
 1034SOL    HW1 3554   0.600   1.360   9.106
 1034SOL    HW2 3555   0.676   1.491   9.113
 1035SOL     OW 3556   1.812   0.184   8.687
 1035SOL    HW1 3557   1.815   0.089   8.701
 1035SOL    HW2 3558   1.827   0.194   8.593
 1036SOL     OW 3559   0.443   0.437   7.979
 1036SOL    HW1 3560   0.456   0.362   7.921
 1036SOL    HW2 3561   0.387   0.403   8.049
 1037SOL     OW 3562   1.703   1.477   8.538
 1037SOL    HW1 3563   1.620   1.458   8.495
 1037SOL    HW2 3564   1.711   1.410   8.606
 1038SOL     OW 3565   0.331   0.556   8.740
 1038SOL    HW1 3566   0.388   0.499   8.793
 1038SOL    HW2 3567   0.347   0.527   8.650
 1039SOL     OW 3568   0.828   1.578   8.125
 1039SOL    HW1 3569   0.816   1.635   8.048
 1039SOL    HW2 3570   0.751   1.521   8.124
 1040SOL     OW 3571   1.461   0.252   8.559
 1040SOL    HW1 3572   1.477   0.165   8.595
 1040SOL    HW2 3573   1.404   0.294   8.623
 1041SOL     OW 3574   1.005   0.029   8.595
 1041SOL    HW1 3575   0.927   3.984   8.562
 1041SOL    HW2 3576   1.071   3.961   8.603
 1042SOL     OW 3577   0.771   1.333   7.764
 1042SOL    HW1 3578   0.740   1.242   7.769
 1042SOL    HW2 3579   0.854   1.333   7.811
 1043SOL     OW 3580   0.620   1.557   8.733
 1043SOL    HW1 3581   0.622   1.639   8.783
 1043SOL    HW2 3582   0.708   1.549   8.695
 1044SOL     OW 3583   1.314   0.074   7.612
 1044SOL    HW1 3584   1.330   0.001   7.552
 1044SOL    HW2 3585   1.228   0.055   7.651
 1045SOL     OW 3586   1.285   0.458   8.135
 1045SOL    HW1 3587   1.236   0.540   8.130
 1045SOL    HW2 3588   1.287   0.436   8.228
 1046SOL     OW 3589   1.588   0.210   8.316
 1046SOL    HW1 3590   1.539   0.233   8.394
 1046SOL    HW2 3591   1.588   0.290   8.263
 1047SOL     OW 3592   0.046   1.050   7.688
 1047SOL    HW1 3593   0.140   1.034   7.679
 1047SOL    HW2 3594   0.011   0.969   7.724
 1048SOL     OW 3595   0.884   1.653   7.790
 1048SOL    HW1 3596   0.812   1.636   7.730
 1048SOL    HW2 3597   0.856   1.728   7.842
 1049SOL     OW 3598   0.233   0.626   9.428
 1049SOL    HW1 3599   0.140   0.631   9.450
 1049SOL    HW2 3600   0.234   0.597   9.337
 1050SOL     OW 3601   0.225   0.287  10.293
 1050SOL    HW1 3602   0.248   0.250  10.378
 1050SOL    HW2 3603   0.130   0.273  10.286
 1051SOL     OW 3604   0.018   0.386   9.945
 1051SOL    HW1 3605   3.929   0.398   9.977
 1051SOL    HW2 3606   0.026   0.292   9.928
 1052SOL     OW 3607   0.578   1.285  10.496
 1052SOL    HW1 3608   0.491   1.288  10.455
 1052SOL    HW2 3609   0.592   1.373  10.529
 1053SOL     OW 3610   1.564   1.513  10.018
 1053SOL    HW1 3611   1.521   1.494  10.102
 1053SOL    HW2 3612   1.492   1.519   9.955
 1054SOL     OW 3613   1.132   0.698  10.010
 1054SOL    HW1 3614   1.180   0.780   9.997
 1054SOL    HW2 3615   1.084   0.711  10.092
 1055SOL     OW 3616   1.762   0.618   9.537
 1055SOL    HW1 3617   1.743   0.610   9.444
 1055SOL    HW2 3618   1.751   0.530   9.571
 1056SOL     OW 3619   0.757   1.141  10.350
 1056SOL    HW1 3620   0.691   1.175  10.410
 1056SOL    HW2 3621   0.791   1.218  10.305
 1057SOL     OW 3622   0.868   0.774  11.133
 1057SOL    HW1 3623   0.857   0.846  11.195
 1057SOL    HW2 3624   0.890   0.817  11.050
 1058SOL     OW 3625   0.686   1.004   9.957
 1058SOL    HW1 3626   0.751   0.991  10.026
 1058SOL    HW2 3627   0.616   1.055   9.999
 1059SOL     OW 3628   0.710   1.150  11.123
 1059SOL    HW1 3629   0.758   1.228  11.150
 1059SOL    HW2 3630   0.628   1.183  11.087
 1060SOL     OW 3631   0.351   1.402  10.389
 1060SOL    HW1 3632   0.269   1.384  10.342
 1060SOL    HW2 3633   0.399   1.461  10.330
 1061SOL     OW 3634   1.461   1.500  10.664
 1061SOL    HW1 3635   1.512   1.581  10.673
 1061SOL    HW2 3636   1.399   1.503  10.737
 1062SOL     OW 3637   0.455   0.407  10.808
 1062SOL    HW1 3638   0.535   0.356  10.805
 1062SOL    HW2 3639   0.385   0.342  10.810
 1063SOL     OW 3640   1.612   0.451  10.045
 1063SOL    HW1 3641   1.541   0.482   9.990
 1063SOL    HW2 3642   1.633   0.525  10.101
 1064SOL     OW 3643   0.222   1.717   9.769
 1064SOL    HW1 3644   0.240   1.792   9.826
 1064SOL    HW2 3645   0.299   1.710   9.713
 1065SOL     OW 3646   1.136   1.342  11.003
 1065SOL    HW1 3647   1.177   1.336  11.089
 1065SOL    HW2 3648   1.084   1.262  10.996
 1066SOL     OW 3649   0.247   1.448   9.850
 1066SOL    HW1 3650   0.214   1.537   9.836
 1066SOL    HW2 3651   0.179   1.405   9.901
 1067SOL     OW 3652   0.247   1.068  10.195
 1067SOL    HW1 3653   0.265   0.983  10.235
 1067SOL    HW2 3654   0.194   1.115  10.260
 1068SOL     OW 3655   0.612   1.791  10.739
 1068SOL    HW1 3656   0.530   1.773  10.784
 1068SOL    HW2 3657   0.634   1.881  10.764
 1069SOL     OW 3658   0.580   0.984   9.447
 1069SOL    HW1 3659   0.627   1.030   9.377
 1069SOL    HW2 3660   0.622   1.013   9.528
 1070SOL     OW 3661   1.579   0.138  10.766
 1070SOL    HW1 3662   1.606   0.211  10.711
 1070SOL    HW2 3663   1.552   0.178  10.849
 1071SOL     OW 3664   0.139   0.650   9.880
 1071SOL    HW1 3665   0.096   0.565   9.885
 1071SOL    HW2 3666   0.102   0.700   9.952
 1072SOL     OW 3667   0.044   1.590   9.449
 1072SOL    HW1 3668   0.034   1.498   9.472
 1072SOL    HW2 3669   3.963   1.632   9.481
 1073SOL     OW 3670   1.687   0.916   9.950
 1073SOL    HW1 3671   1.772   0.877   9.932
 1073SOL    HW2 3672   1.668   0.968   9.872
 1074SOL     OW 3673   1.647   1.107   9.739
 1074SOL    HW1 3674   1.733   1.112   9.698
 1074SOL    HW2 3675   1.652   1.168   9.813
 1075SOL     OW 3676   0.137   0.755  10.899
 1075SOL    HW1 3677   0.232   0.749  10.899
 1075SOL    HW2 3678   0.119   0.845  10.924
 1076SOL     OW 3679   0.612   1.385  10.046
 1076SOL    HW1 3680   0.566   1.302  10.055
 1076SOL    HW2 3681   0.597   1.411   9.955
 1077SOL     OW 3682   1.288   1.238  10.733
 1077SOL    HW1 3683   1.320   1.171  10.673
 1077SOL    HW2 3684   1.346   1.232  10.809
 1078SOL     OW 3685   0.818   0.002   9.825
 1078SOL    HW1 3686   0.863   0.084   9.803
 1078SOL    HW2 3687   0.725   0.026   9.826
 1079SOL     OW 3688   0.185   0.952  10.586
 1079SOL    HW1 3689   0.273   0.917  10.573
 1079SOL    HW2 3690   0.131   0.908  10.520
 1080SOL     OW 3691   1.531   0.994   9.509
 1080SOL    HW1 3692   1.462   0.937   9.541
 1080SOL    HW2 3693   1.573   1.028   9.588
 1081SOL     OW 3694   1.185   1.807  10.933
 1081SOL    HW1 3695   1.196   1.866  10.858
 1081SOL    HW2 3696   1.202   1.719  10.897
 1082SOL     OW 3697   0.342   0.253  11.140
 1082SOL    HW1 3698   0.386   0.337  11.125
 1082SOL    HW2 3699   0.252   0.277  11.160
 1083SOL     OW 3700   1.465   1.419  10.261
 1083SOL    HW1 3701   1.397   1.435  10.327
 1083SOL    HW2 3702   1.453   1.328  10.234
 1084SOL     OW 3703   1.666   1.731   9.868
 1084SOL    HW1 3704   1.629   1.694   9.788
 1084SOL    HW2 3705   1.646   1.666   9.935
 1085SOL     OW 3706   0.596   0.718   9.574
 1085SOL    HW1 3707   0.602   0.802   9.528
 1085SOL    HW2 3708   0.533   0.735   9.645
 1086SOL     OW 3709   1.275   0.366  10.250
 1086SOL    HW1 3710   1.188   0.326  10.256
 1086SOL    HW2 3711   1.332   0.304  10.296
 1087SOL     OW 3712   1.575   1.670   9.610
 1087SOL    HW1 3713   1.662   1.705   9.591
 1087SOL    HW2 3714   1.540   1.646   9.524
 1088SOL     OW 3715   0.794   0.616  10.764
 1088SOL    HW1 3716   0.765   0.591  10.852
 1088SOL    HW2 3717   0.755   0.551  10.706
 1089SOL     OW 3718   1.392   0.477  10.987
 1089SOL    HW1 3719   1.397   0.521  11.072
 1089SOL    HW2 3720   1.452   0.402  10.996
 1090SOL     OW 3721   0.954   0.888  10.893
 1090SOL    HW1 3722   1.009   0.818  10.857
 1090SOL    HW2 3723   0.906   0.922  10.817
 1091SOL     OW 3724   0.991   0.403  10.550
 1091SOL    HW1 3725   0.907   0.427  10.590
 1091SOL    HW2 3726   0.968   0.373  10.463
 1092SOL     OW 3727   1.051   0.699   9.736
 1092SOL    HW1 3728   1.067   0.692   9.830
 1092SOL    HW2 3729   0.969   0.652   9.721
 1093SOL     OW 3730   0.081   0.826  10.101
 1093SOL    HW1 3731   0.157   0.794  10.149
 1093SOL    HW2 3732   0.097   0.920  10.090
 1094SOL     OW 3733   0.129   1.858  10.884
 1094SOL    HW1 3734   0.137   1.824  10.973
 1094SOL    HW2 3735   0.037   1.846  10.862
 1095SOL     OW 3736   0.893   0.351   9.508
 1095SOL    HW1 3737   0.935   0.410   9.445
 1095SOL    HW2 3738   0.894   0.265   9.465
 1096SOL     OW 3739   1.710   0.576  11.139
 1096SOL    HW1 3740   1.671   0.649  11.091
 1096SOL    HW2 3741   1.734   0.513  11.071
 1097SOL     OW 3742   1.377   1.141   9.850
 1097SOL    HW1 3743   1.457   1.130   9.799
 1097SOL    HW2 3744   1.324   1.204   9.800
 1098SOL     OW 3745   0.560   0.195  10.192
 1098SOL    HW1 3746   0.564   0.217  10.285
 1098SOL    HW2 3747   0.547   0.279  10.147
 1099SOL     OW 3748   1.005   1.444   9.782
 1099SOL    HW1 3749   0.968   1.517   9.732
 1099SOL    HW2 3750   0.987   1.465   9.873
 1100SOL     OW 3751   0.365   1.815  10.178
 1100SOL    HW1 3752   0.429   1.744  10.185
 1100SOL    HW2 3753   0.415   1.895  10.194
 1101SOL     OW 3754   1.799   1.054  10.179
 1101SOL    HW1 3755   1.744   1.040  10.102
 1101SOL    HW2 3756   1.737   1.061  10.252
 1102SOL     OW 3757   1.228   1.539  10.823
 1102SOL    HW1 3758   1.214   1.466  10.884
 1102SOL    HW2 3759   1.165   1.524  10.753
 1103SOL     OW 3760   0.310   0.955   9.552
 1103SOL    HW1 3761   0.395   0.977   9.513
 1103SOL    HW2 3762   0.297   0.863   9.529
 1104SOL     OW 3763   1.478   0.744  10.040
 1104SOL    HW1 3764   1.471   0.701  10.125
 1104SOL    HW2 3765   1.556   0.799  10.047
 1105SOL     OW 3766   0.466   1.260  11.047
 1105SOL    HW1 3767   0.440   1.268  10.955
 1105SOL    HW2 3768   0.384   1.264  11.096
 1106SOL     OW 3769   1.122   1.777   9.541
 1106SOL    HW1 3770   1.048   1.736   9.587
 1106SOL    HW2 3771   1.144   1.715   9.471
 1107SOL     OW 3772   0.199   0.295  10.809
 1107SOL    HW1 3773   0.106   0.316  10.807
 1107SOL    HW2 3774   0.207   0.228  10.877
 1108SOL     OW 3775   1.628   1.379   9.397
 1108SOL    HW1 3776   1.587   1.464   9.381
 1108SOL    HW2 3777   1.559   1.316   9.378
 1109SOL     OW 3778   0.466   1.739   9.628
 1109SOL    HW1 3779   0.509   1.797   9.691
 1109SOL    HW2 3780   0.538   1.706   9.574
 1110SOL     OW 3781   1.439   0.162   9.715
 1110SOL    HW1 3782   1.395   0.096   9.661
 1110SOL    HW2 3783   1.513   0.115   9.754
 1111SOL     OW 3784   0.251   1.791  10.542
 1111SOL    HW1 3785   0.299   1.728  10.596
 1111SOL    HW2 3786   0.247   1.751  10.455
 1112SOL     OW 3787   0.937   1.699  10.209
 1112SOL    HW1 3788   1.016   1.648  10.229
 1112SOL    HW2 3789   0.894   1.649  10.140
 1113SOL     OW 3790   0.396   0.694   9.782
 1113SOL    HW1 3791   0.422   0.604   9.796
 1113SOL    HW2 3792   0.303   0.697   9.808
 1114SOL     OW 3793   1.530   0.231  11.037
 1114SOL    HW1 3794   1.529   0.255  11.129
 1114SOL    HW2 3795   1.505   0.138  11.036
 1115SOL     OW 3796   0.643   0.133   9.411
 1115SOL    HW1 3797   0.671   0.052   9.454
 1115SOL    HW2 3798   0.582   0.105   9.344
 1116SOL     OW 3799   0.778   0.282  11.074
 1116SOL    HW1 3800   0.846   0.216  11.079
 1116SOL    HW2 3801   0.718   0.260  11.146
 1117SOL     OW 3802   0.876   1.521  10.504
 1117SOL    HW1 3803   0.861   1.485  10.417
 1117SOL    HW2 3804   0.946   1.467  10.541
 1118SOL     OW 3805   1.341   0.587  10.740
 1118SOL    HW1 3806   1.371   0.558  10.826
 1118SOL    HW2 3807   1.375   0.676  10.731
 1119SOL     OW 3808   0.815   1.395  10.249
 1119SOL    HW1 3809   0.900   1.383  10.206
 1119SOL    HW2 3810   0.752   1.395  10.177
 1120SOL     OW 3811   0.929   0.511  10.212
 1120SOL    HW1 3812   0.905   0.503  10.119
 1120SOL    HW2 3813   0.956   0.423  10.237
 1121SOL     OW 3814   0.546   0.056   9.799
 1121SOL    HW1 3815   0.472   0.064   9.859
 1121SOL    HW2 3816   0.548   0.140   9.753
 1122SOL     OW 3817   1.427   1.198   9.351
 1122SOL    HW1 3818   1.458   1.122   9.401
 1122SOL    HW2 3819   1.342   1.219   9.388
 1123SOL     OW 3820   0.338   0.042   9.506
 1123SOL    HW1 3821   0.362   0.086   9.425
 1123SOL    HW2 3822   0.421   0.032   9.553
 1124SOL     OW 3823   0.940   0.248   9.773
 1124SOL    HW1 3824   0.913   0.289   9.691
 1124SOL    HW2 3825   1.035   0.250   9.771
 1125SOL     OW 3826   1.079   0.682  10.769
 1125SOL    HW1 3827   1.009   0.617  10.776
 1125SOL    HW2 3828   1.159   0.629  10.764
 1126SOL     OW 3829   1.223   1.570  10.105
 1126SOL    HW1 3830   1.240   1.637  10.038
 1126SOL    HW2 3831   1.292   1.583  10.169
 1127SOL     OW 3832   0.466   1.150  10.048
 1127SOL    HW1 3833   0.394   1.126  10.106
 1127SOL    HW2 3834   0.432   1.134   9.959
 1128SOL     OW 3835   1.267   1.793   9.917
 1128SOL    HW1 3836   1.311   1.856   9.860
 1128SOL    HW2 3837   1.201   1.845   9.964
 1129SOL     OW 3838   1.023   0.545   9.335
 1129SOL    HW1 3839   0.980   0.628   9.316
 1129SOL    HW2 3840   1.087   0.566   9.404
 1130SOL     OW 3841   0.079   0.571  10.703
 1130SOL    HW1 3842   0.168   0.554  10.672
 1130SOL    HW2 3843   0.089   0.643  10.766
 1131SOL     OW 3844   0.572   0.231  10.470
 1131SOL    HW1 3845   0.595   0.139  10.479
 1131SOL    HW2 3846   0.481   0.237  10.500
 1132SOL     OW 3847   0.871   0.462   9.949
 1132SOL    HW1 3848   0.820   0.513   9.887
 1132SOL    HW2 3849   0.890   0.380   9.902
 1133SOL     OW 3850   0.995   0.041  10.090
 1133SOL    HW1 3851   0.961   0.068  10.004
 1133SOL    HW2 3852   1.006   3.946  10.083
 1134SOL     OW 3853   1.437   1.162  10.168
 1134SOL    HW1 3854   1.368   1.096  10.165
 1134SOL    HW2 3855   1.462   1.174  10.076
 1135SOL     OW 3856   1.466   0.605  10.287
 1135SOL    HW1 3857   1.413   0.525  10.292
 1135SOL    HW2 3858   1.526   0.599  10.361
 1136SOL     OW 3859   1.846   0.819   9.695
 1136SOL    HW1 3860   1.902   0.767   9.752
 1136SOL    HW2 3861   1.815   0.758   9.628
 1137SOL     OW 3862   0.488   1.418   9.471
 1137SOL    HW1 3863   0.413   1.387   9.521
 1137SOL    HW2 3864   0.470   1.392   9.381
 1138SOL     OW 3865   1.669   1.264   9.956
 1138SOL    HW1 3866   1.764   1.265   9.969
 1138SOL    HW2 3867   1.641   1.353   9.978
 1139SOL     OW 3868   1.395   0.574   9.380
 1139SOL    HW1 3869   1.332   0.555   9.450
 1139SOL    HW2 3870   1.480   0.554   9.418
 1140SOL     OW 3871   0.558   0.270   9.629
 1140SOL    HW1 3872   0.601   0.230   9.554
 1140SOL    HW2 3873   0.528   0.356   9.597
 1141SOL     OW 3874   1.752   1.239  10.883
 1141SOL    HW1 3875   1.839   1.200  10.878
 1141SOL    HW2 3876   1.767   1.329  10.911
 1142SOL     OW 3877   1.058   1.354  10.644
 1142SOL    HW1 3878   0.983   1.322  10.695
 1142SOL    HW2 3879   1.134   1.312  10.685
 1143SOL     OW 3880   1.607   1.625  10.963
 1143SOL    HW1 3881   1.602   1.661  10.875
 1143SOL    HW2 3882   1.691   1.579  10.966
 1144SOL     OW 3883   1.129   1.204  10.415
 1144SOL    HW1 3884   1.070   1.242  10.480
 1144SOL    HW2 3885   1.097   1.236  10.331
 1145SOL     OW 3886   1.627   1.098  10.387
 1145SOL    HW1 3887   1.622   1.160  10.460
 1145SOL    HW2 3888   1.549   1.115  10.336
 1146SOL     OW 3889   0.913   0.112  10.712
 1146SOL    HW1 3890   0.933   0.087  10.621
 1146SOL    HW2 3891   0.994   0.154  10.743
 1147SOL     OW 3892   0.984   1.115  11.033
 1147SOL    HW1 3893   0.892   1.131  11.054
 1147SOL    HW2 3894   0.983   1.037  10.977
 1148SOL     OW 3895   0.708   1.061   9.681
 1148SOL    HW1 3896   0.694   1.045   9.774
 1148SOL    HW2 3897   0.784   1.008   9.658
 1149SOL     OW 3898   0.421   0.816  10.562
 1149SOL    HW1 3899   0.490   0.822  10.628
 1149SOL    HW2 3900   0.386   0.727  10.572
 1150SOL     OW 3901   1.266   0.375  10.586
 1150SOL    HW1 3902   1.301   0.453  10.630
 1150SOL    HW2 3903   1.179   0.401  10.555
 1151SOL     OW 3904   0.065   1.580  10.655
 1151SOL    HW1 3905   0.069   1.643  10.584
 1151SOL    HW2 3906   0.156   1.566  10.680
 1152SOL     OW 3907   0.374   1.103   9.794
 1152SOL    HW1 3908   0.367   1.180   9.739
 1152SOL    HW2 3909   0.372   1.029   9.733
 1153SOL     OW 3910   0.555   0.537  10.169
 1153SOL    HW1 3911   0.571   0.595  10.094
 1153SOL    HW2 3912   0.620   0.564  10.234
 1154SOL     OW 3913   1.248   1.348   9.699
 1154SOL    HW1 3914   1.303   1.419   9.731
 1154SOL    HW2 3915   1.161   1.369   9.733
 1155SOL     OW 3916   1.281   1.458  10.457
 1155SOL    HW1 3917   1.337   1.461  10.535
 1155SOL    HW2 3918   1.226   1.381  10.471
 1156SOL     OW 3919   1.577   0.632   9.795
 1156SOL    HW1 3920   1.536   0.691   9.858
 1156SOL    HW2 3921   1.624   0.690   9.735
 1157SOL     OW 3922   0.345   1.526  10.629
 1157SOL    HW1 3923   0.336   1.476  10.548
 1157SOL    HW2 3924   0.440   1.542  10.637
 1158SOL     OW 3925   0.414   0.739  10.911
 1158SOL    HW1 3926   0.476   0.785  10.854
 1158SOL    HW2 3927   0.454   0.653  10.924
 1159SOL     OW 3928   1.601   0.779  10.993
 1159SOL    HW1 3929   1.515   0.820  10.986
 1159SOL    HW2 3930   1.654   0.820  10.925
 1160SOL     OW 3931   1.016   0.127  11.088
 1160SOL    HW1 3932   1.061   0.202  11.049
 1160SOL    HW2 3933   1.005   0.065  11.015
 1161SOL     OW 3934   0.480   0.036  11.076
 1161SOL    HW1 3935   0.491   0.043  10.982
 1161SOL    HW2 3936   0.419   0.107  11.099
 1162SOL     OW 3937   0.584   0.874  10.341
 1162SOL    HW1 3938   0.615   0.965  10.342
 1162SOL    HW2 3939   0.528   0.867  10.418
 1163SOL     OW 3940   1.357   0.858  10.339
 1163SOL    HW1 3941   1.273   0.848  10.293
 1163SOL    HW2 3942   1.398   0.772  10.333
 1164SOL     OW 3943   1.203   0.535   9.571
 1164SOL    HW1 3944   1.212   0.456   9.624
 1164SOL    HW2 3945   1.159   0.598   9.629
 1165SOL     OW 3946   0.312   0.213  10.551
 1165SOL    HW1 3947   0.270   0.249  10.629
 1165SOL    HW2 3948   0.295   0.119  10.555
 1166SOL     OW 3949   0.059   1.305  10.590
 1166SOL    HW1 3950   0.090   1.265  10.671
 1166SOL    HW2 3951   0.051   1.398  10.611
 1167SOL     OW 3952   0.726   0.634  10.365
 1167SOL    HW1 3953   0.799   0.618  10.306
 1167SOL    HW2 3954   0.697   0.722  10.343
 1168SOL     OW 3955   1.735   0.959  11.163
 1168SOL    HW1 3956   1.689   0.898  11.106
 1168SOL    HW2 3957   1.675   0.973  11.237
 1169SOL     OW 3958   0.327   0.055   9.961
 1169SOL    HW1 3959   0.299   0.147   9.962
 1169SOL    HW2 3960   0.288   0.017  10.040
 1170SOL     OW 3961   1.604   0.389   9.692
 1170SOL    HW1 3962   1.571   0.321   9.752
 1170SOL    HW2 3963   1.584   0.471   9.737
 1171SOL     OW 3964   1.029   0.759  10.270
 1171SOL    HW1 3965   1.024   0.777  10.364
 1171SOL    HW2 3966   1.002   0.668  10.261
 1172SOL     OW 3967   0.982   1.566  11.027
 1172SOL    HW1 3968   0.967   1.610  10.944
 1172SOL    HW2 3969   1.026   1.484  11.004
 1173SOL     OW 3970   1.854   1.504  10.915
 1173SOL    HW1 3971   1.871   1.533  10.825
 1173SOL    HW2 3972   1.938   1.517  10.960
 1174SOL     OW 3973   0.352   0.921  11.110
 1174SOL    HW1 3974   0.430   0.941  11.161
 1174SOL    HW2 3975   0.380   0.854  11.048
 1175SOL     OW 3976   1.508   0.276   9.446
 1175SOL    HW1 3977   1.433   0.217   9.458
 1175SOL    HW2 3978   1.521   0.316   9.532
 1176SOL     OW 3979   1.291   0.827   9.340
 1176SOL    HW1 3980   1.333   0.741   9.344
 1176SOL    HW2 3981   1.322   0.866   9.259
 1177SOL     OW 3982   1.065   1.336  10.164
 1177SOL    HW1 3983   1.069   1.264  10.102
 1177SOL    HW2 3984   1.127   1.401  10.130
 1178SOL     OW 3985   0.313   0.805  10.261
 1178SOL    HW1 3986   0.407   0.821  10.254
 1178SOL    HW2 3987   0.307   0.715  10.293
 1179SOL     OW 3988   0.338   0.528  10.324
 1179SOL    HW1 3989   0.297   0.443  10.306
 1179SOL    HW2 3990   0.413   0.532  10.265
 1180SOL     OW 3991   1.133   0.382  11.004
 1180SOL    HW1 3992   1.085   0.437  11.066
 1180SOL    HW2 3993   1.220   0.421  10.999
 1181SOL     OW 3994   1.151   0.225  10.791
 1181SOL    HW1 3995   1.142   0.280  10.869
 1181SOL    HW2 3996   1.174   0.286  10.721
 1182SOL     OW 3997   4.000   1.319   9.492
 1182SOL    HW1 3998   3.905   1.335   9.496
 1182SOL    HW2 3999   0.009   1.225   9.511
 1183SOL     OW 4000   0.077   1.801  10.199
 1183SOL    HW1 4001   0.080   1.705  10.206
 1183SOL    HW2 4002   0.168   1.828  10.203
 1184SOL     OW 4003   0.503   1.571  10.220
 1184SOL    HW1 4004   0.572   1.631  10.246
 1184SOL    HW2 4005   0.546   1.507  10.163
 1185SOL     OW 4006   0.982   0.791  10.536
 1185SOL    HW1 4007   1.037   0.769  10.611
 1185SOL    HW2 4008   0.896   0.754  10.557
 1186SOL     OW 4009   0.036   0.569  10.423
 1186SOL    HW1 4010   0.101   0.520  10.372
 1186SOL    HW2 4011   0.061   0.556  10.514
 1187SOL     OW 4012   0.210   0.516  11.032
 1187SOL    HW1 4013   0.259   0.479  10.958
 1187SOL    HW2 4014   0.161   0.589  10.994
 1188SOL     OW 4015   1.377   0.938  10.968
 1188SOL    HW1 4016   1.399   1.032  10.966
 1188SOL    HW2 4017   1.374   0.912  10.876
 1189SOL     OW 4018   0.818   0.572   9.669
 1189SOL    HW1 4019   0.823   0.495   9.612
 1189SOL    HW2 4020   0.743   0.621   9.636
 1190SOL     OW 4021   1.641   0.602  10.496
 1190SOL    HW1 4022   1.631   0.541  10.569
 1190SOL    HW2 4023   1.728   0.584  10.461
 1191SOL     OW 4024   0.298   1.545  11.038
 1191SOL    HW1 4025   0.249   1.615  11.081
 1191SOL    HW2 4026   0.265   1.464  11.077
 1192SOL     OW 4027   0.704   0.456  10.569
 1192SOL    HW1 4028   0.656   0.377  10.543
 1192SOL    HW2 4029   0.697   0.515  10.494
 1193SOL     OW 4030   0.927   1.679  10.778
 1193SOL    HW1 4031   0.902   1.644  10.693
 1193SOL    HW2 4032   0.923   1.774  10.767
 1194SOL     OW 4033   0.456   0.492   9.506
 1194SOL    HW1 4034   0.520   0.561   9.523
 1194SOL    HW2 4035   0.376   0.539   9.483
 1195SOL     OW 4036   0.157   1.136  10.783
 1195SOL    HW1 4037   0.159   1.084  10.864
 1195SOL    HW2 4038   0.171   1.071  10.714
 1196SOL     OW 4039   1.325   1.047  10.533
 1196SOL    HW1 4040   1.349   0.983  10.465
 1196SOL    HW2 4041   1.255   1.099  10.494
 1197SOL     OW 4042   1.312   0.856   9.616
 1197SOL    HW1 4043   1.236   0.827   9.667
 1197SOL    HW2 4044   1.286   0.843   9.525
 1198SOL     OW 4045   1.743   1.737  10.448
 1198SOL    HW1 4046   1.819   1.760  10.394
 1198SOL    HW2 4047   1.729   1.644  10.431
 1199SOL     OW 4048   1.243   1.734  10.421
 1199SOL    HW1 4049   1.325   1.754  10.377
 1199SOL    HW2 4050   1.248   1.640  10.440
 1200SOL     OW 4051   0.076   1.217  10.337
 1200SOL    HW1 4052   0.083   1.243  10.429
 1200SOL    HW2 4053   3.983   1.225  10.316
 1201SOL     OW 4054   0.679   1.666  11.040
 1201SOL    HW1 4055   0.622   1.743  11.034
 1201SOL    HW2 4056   0.744   1.678  10.971
 1202SOL     OW 4057   1.712   0.126   9.796
 1202SOL    HW1 4058   1.791   0.134   9.744
 1202SOL    HW2 4059   1.703   0.032   9.814
 1203SOL     OW 4060   1.390   1.568   9.796
 1203SOL    HW1 4061   1.446   1.600   9.726
 1203SOL    HW2 4062   1.341   1.644   9.825
 1204SOL     OW 4063   0.173   1.766  11.139
 1204SOL    HW1 4064   0.115   1.717  11.197
 1204SOL    HW2 4065   0.215   1.830  11.196
 1205SOL     OW 4066   1.277   0.926   9.981
 1205SOL    HW1 4067   1.351   0.866   9.990
 1205SOL    HW2 4068   1.311   0.999   9.928
 1206SOL     OW 4069   0.814   1.273  10.740
 1206SOL    HW1 4070   0.785   1.313  10.822
 1206SOL    HW2 4071   0.743   1.292  10.678
 1207SOL     OW 4072   0.670   1.620   9.465
 1207SOL    HW1 4073   0.681   1.632   9.371
 1207SOL    HW2 4074   0.616   1.542   9.474
 1208SOL     OW 4075   1.625   1.728  10.701
 1208SOL    HW1 4076   1.669   1.734  10.616
 1208SOL    HW2 4077   1.613   1.819  10.728
 1209SOL     OW 4078   1.839   0.176  10.277
 1209SOL    HW1 4079   1.870   0.105  10.222
 1209SOL    HW2 4080   1.751   0.196  10.244
 1210SOL     OW 4081   0.273   0.323  10.025
 1210SOL    HW1 4082   0.188   0.359  10.000
 1210SOL    HW2 4083   0.265   0.306  10.118
 1211SOL     OW 4084   1.207   1.606   9.341
 1211SOL    HW1 4085   1.197   1.514   9.368
 1211SOL    HW2 4086   1.141   1.617   9.272
 1212SOL     OW 4087   0.824   1.005  10.682
 1212SOL    HW1 4088   0.867   1.001  10.597
 1212SOL    HW2 4089   0.823   1.098  10.705
 1213SOL     OW 4090   0.915   0.910   9.600
 1213SOL    HW1 4091   0.977   0.942   9.534
 1213SOL    HW2 4092   0.963   0.841   9.645
 1214SOL     OW 4093   1.489   1.623   9.350
 1214SOL    HW1 4094   1.394   1.618   9.335
 1214SOL    HW2 4095   1.527   1.630   9.263
 1215SOL     OW 4096   0.373   1.303  10.801
 1215SOL    HW1 4097   0.358   1.383  10.751
 1215SOL    HW2 4098   0.297   1.248  10.784
 1216SOL     OW 4099   1.609   1.282  10.591
 1216SOL    HW1 4100   1.671   1.272  10.664
 1216SOL    HW2 4101   1.550   1.352  10.619
 1217SOL     OW 4102   1.053   1.108  10.017
 1217SOL    HW1 4103   0.982   1.056  10.056
 1217SOL    HW2 4104   1.115   1.042   9.986
 1218SOL     OW 4105   1.014   0.248  10.278
 1218SOL    HW1 4106   1.004   0.198  10.197
 1218SOL    HW2 4107   1.009   0.183  10.348
 1219SOL     OW 4108   0.605   1.489   9.792
 1219SOL    HW1 4109   0.648   1.438   9.723
 1219SOL    HW2 4110   0.533   1.533   9.747
 1220SOL     OW 4111   1.720   0.392  10.683
 1220SOL    HW1 4112   1.792   0.455  10.687
 1220SOL    HW2 4113   1.753   0.321  10.630
 1221SOL     OW 4114   0.253   1.342   9.602
 1221SOL    HW1 4115   0.160   1.351   9.582
 1221SOL    HW2 4116   0.263   1.380   9.689
 1222SOL     OW 4117   0.106   1.000  11.028
 1222SOL    HW1 4118   0.046   0.990  11.101
 1222SOL    HW2 4119   0.192   0.980  11.065
 1223SOL     OW 4120   0.694   0.247  10.808
 1223SOL    HW1 4121   0.762   0.195  10.768
 1223SOL    HW2 4122   0.721   0.256  10.900
 1224SOL     OW 4123   0.088   0.324   9.338
 1224SOL    HW1 4124   3.993   0.320   9.332
 1224SOL    HW2 4125   0.111   0.407   9.295
 1225SOL     OW 4126   1.429   0.857  10.710
 1225SOL    HW1 4127   1.380   0.919  10.654
 1225SOL    HW2 4128   1.518   0.860  10.676
 1226SOL     OW 4129   0.038   0.164   9.594
 1226SOL    HW1 4130   0.037   0.238   9.533
 1226SOL    HW2 4131   0.117   0.178   9.646
 1227SOL     OW 4132   1.179   1.339   9.427
 1227SOL    HW1 4133   1.088   1.309   9.429
 1227SOL    HW2 4134   1.206   1.339   9.519
 1228SOL     OW 4135   0.620   0.829  10.746
 1228SOL    HW1 4136   0.676   0.905  10.730
 1228SOL    HW2 4137   0.680   0.756  10.754
 1229SOL     OW 4138   1.489   1.781  10.291
 1229SOL    HW1 4139   1.512   1.845  10.223
 1229SOL    HW2 4140   1.571   1.764  10.337
 1230SOL     OW 4141   0.717   0.563  11.017
 1230SOL    HW1 4142   0.760   0.626  11.076
 1230SOL    HW2 4143   0.747   0.478  11.048
 1231SOL     OW 4144   1.471   1.200  10.942
 1231SOL    HW1 4145   1.459   1.213  11.036
 1231SOL    HW2 4146   1.565   1.215  10.927
 1232SOL     OW 4147   0.380   1.742  10.868
 1232SOL    HW1 4148   0.292   1.779  10.855
 1232SOL    HW2 4149   0.364   1.660  10.916
 1233SOL     OW 4150   1.669   0.881  10.566
 1233SOL    HW1 4151   1.663   0.796  10.523
 1233SOL    HW2 4152   1.660   0.945  10.494
 1234SOL     OW 4153   1.224   0.334   9.755
 1234SOL    HW1 4154   1.291   0.266   9.747
 1234SOL    HW2 4155   1.245   0.379   9.837
 1235SOL     OW 4156   0.591   0.739   9.980
 1235SOL    HW1 4157   0.628   0.826   9.963
 1235SOL    HW2 4158   0.522   0.730   9.914
 1236SOL     OW 4159   1.753   0.382  10.953
 1236SOL    HW1 4160   1.735   0.387  10.859
 1236SOL    HW2 4161   1.696   0.312  10.985
 1237SOL     OW 4162   1.744   0.934  10.823
 1237SOL    HW1 4163   1.741   1.029  10.835
 1237SOL    HW2 4164   1.729   0.922  10.729
 1238SOL     OW 4165   0.863   1.367   9.345
 1238SOL    HW1 4166   0.824   1.395   9.428
 1238SOL    HW2 4167   0.880   1.448   9.298
 1239SOL     OW 4168   0.662   1.790  10.254
 1239SOL    HW1 4169   0.641   1.881  10.231
 1239SOL    HW2 4170   0.757   1.785  10.247
 1240SOL     OW 4171   0.868   0.967  10.164
 1240SOL    HW1 4172   0.918   0.895  10.204
 1240SOL    HW2 4173   0.833   1.015  10.239
 1241SOL     OW 4174   1.079   0.989   9.399
 1241SOL    HW1 4175   1.057   1.039   9.321
 1241SOL    HW2 4176   1.154   0.935   9.373
 1242SOL     OW 4177   1.847   1.543  10.144
 1242SOL    HW1 4178   1.763   1.540  10.098
 1242SOL    HW2 4179   1.836   1.482  10.217
 1243SOL     OW 4180   0.224   1.303  11.165
 1243SOL    HW1 4181   0.153   1.245  11.140
 1243SOL    HW2 4182   0.211   1.317  11.259
 1244SOL     OW 4183   0.116   1.276  10.028
 1244SOL    HW1 4184   0.127   1.225  10.109
 1244SOL    HW2 4185   0.108   1.210   9.959
 1245SOL     OW 4186   0.680   1.403  10.938
 1245SOL    HW1 4187   0.600   1.360  10.968
 1245SOL    HW2 4188   0.676   1.491  10.975
 1246SOL     OW 4189   1.812   0.183  10.549
 1246SOL    HW1 4190   1.815   0.089  10.563
 1246SOL    HW2 4191   1.827   0.194  10.455
 1247SOL     OW 4192   0.443   0.437   9.841
 1247SOL    HW1 4193   0.456   0.362   9.783
 1247SOL    HW2 4194   0.387   0.403   9.911
 1248SOL     OW 4195   1.702   1.477  10.401
 1248SOL    HW1 4196   1.619   1.458  10.358
 1248SOL    HW2 4197   1.711   1.410  10.468
 1249SOL     OW 4198   0.331   0.556  10.602
 1249SOL    HW1 4199   0.388   0.499  10.655
 1249SOL    HW2 4200   0.347   0.527  10.512
 1250SOL     OW 4201   0.827   1.578   9.987
 1250SOL    HW1 4202   0.815   1.634   9.911
 1250SOL    HW2 4203   0.751   1.521   9.987
 1251SOL     OW 4204   1.461   0.252  10.421
 1251SOL    HW1 4205   1.477   0.165  10.457
 1251SOL    HW2 4206   1.404   0.295  10.485
 1252SOL     OW 4207   1.005   0.029  10.457
 1252SOL    HW1 4208   0.927   3.984  10.424
 1252SOL    HW2 4209   1.072   3.961  10.465
 1253SOL     OW 4210   0.772   1.333   9.625
 1253SOL    HW1 4211   0.741   1.242   9.631
 1253SOL    HW2 4212   0.854   1.333   9.674
 1254SOL     OW 4213   0.620   1.557  10.595
 1254SOL    HW1 4214   0.622   1.639  10.645
 1254SOL    HW2 4215   0.708   1.549  10.557
 1255SOL     OW 4216   1.314   0.074   9.474
 1255SOL    HW1 4217   1.330   0.001   9.415
 1255SOL    HW2 4218   1.228   0.055   9.512
 1256SOL     OW 4219   1.284   0.458   9.996
 1256SOL    HW1 4220   1.236   0.540   9.992
 1256SOL    HW2 4221   1.287   0.436  10.090
 1257SOL     OW 4222   1.588   0.210  10.178
 1257SOL    HW1 4223   1.539   0.233  10.256
 1257SOL    HW2 4224   1.588   0.290  10.125
 1258SOL     OW 4225   0.046   1.050   9.550
 1258SOL    HW1 4226   0.140   1.034   9.541
 1258SOL    HW2 4227   0.011   0.969   9.586
 1259SOL     OW 4228   0.885   1.654   9.652
 1259SOL    HW1 4229   0.812   1.636   9.592
 1259SOL    HW2 4230   0.856   1.728   9.704
 1260SOL     OW 4231   0.233   0.626  11.290
 1260SOL    HW1 4232   0.140   0.631  11.312
 1260SOL    HW2 4233   0.234   0.597  11.199
 1261SOL     OW 4234   0.225   0.287  12.155
 1261SOL    HW1 4235   0.248   0.250  12.240
 1261SOL    HW2 4236   0.130   0.273  12.148
 1262SOL     OW 4237   0.018   0.386  11.807
 1262SOL    HW1 4238   3.929   0.398  11.839
 1262SOL    HW2 4239   0.026   0.292  11.790
 1263SOL     OW 4240   0.578   1.285  12.358
 1263SOL    HW1 4241   0.491   1.288  12.317
 1263SOL    HW2 4242   0.592   1.373  12.391
 1264SOL     OW 4243   1.564   1.513  11.880
 1264SOL    HW1 4244   1.521   1.494  11.964
 1264SOL    HW2 4245   1.492   1.519  11.817
 1265SOL     OW 4246   1.132   0.698  11.872
 1265SOL    HW1 4247   1.180   0.780  11.859
 1265SOL    HW2 4248   1.084   0.711  11.954
 1266SOL     OW 4249   1.762   0.618  11.399
 1266SOL    HW1 4250   1.743   0.611  11.306
 1266SOL    HW2 4251   1.751   0.529  11.433
 1267SOL     OW 4252   0.757   1.141  12.212
 1267SOL    HW1 4253   0.691   1.176  12.272
 1267SOL    HW2 4254   0.791   1.218  12.167
 1268SOL     OW 4255   0.868   0.775  12.994
 1268SOL    HW1 4256   0.857   0.847  13.056
 1268SOL    HW2 4257   0.890   0.817  12.912
 1269SOL     OW 4258   0.686   1.004  11.819
 1269SOL    HW1 4259   0.751   0.991  11.887
 1269SOL    HW2 4260   0.616   1.055  11.861
 1270SOL     OW 4261   0.710   1.150  12.985
 1270SOL    HW1 4262   0.758   1.228  13.012
 1270SOL    HW2 4263   0.628   1.183  12.949
 1271SOL     OW 4264   0.351   1.402  12.251
 1271SOL    HW1 4265   0.269   1.384  12.204
 1271SOL    HW2 4266   0.399   1.461  12.192
 1272SOL     OW 4267   1.461   1.500  12.526
 1272SOL    HW1 4268   1.512   1.581  12.535
 1272SOL    HW2 4269   1.399   1.503  12.599
 1273SOL     OW 4270   0.455   0.407  12.670
 1273SOL    HW1 4271   0.535   0.356  12.667
 1273SOL    HW2 4272   0.385   0.342  12.672
 1274SOL     OW 4273   1.612   0.451  11.907
 1274SOL    HW1 4274   1.541   0.482  11.852
 1274SOL    HW2 4275   1.634   0.525  11.963
 1275SOL     OW 4276   0.222   1.717  11.631
 1275SOL    HW1 4277   0.240   1.792  11.688
 1275SOL    HW2 4278   0.299   1.710  11.575
 1276SOL     OW 4279   1.137   1.341  12.865
 1276SOL    HW1 4280   1.177   1.337  12.951
 1276SOL    HW2 4281   1.084   1.262  12.858
 1277SOL     OW 4282   0.247   1.448  11.712
 1277SOL    HW1 4283   0.214   1.537  11.698
 1277SOL    HW2 4284   0.179   1.405  11.763
 1278SOL     OW 4285   0.247   1.068  12.057
 1278SOL    HW1 4286   0.265   0.983  12.097
 1278SOL    HW2 4287   0.194   1.115  12.122
 1279SOL     OW 4288   0.612   1.791  12.601
 1279SOL    HW1 4289   0.530   1.774  12.646
 1279SOL    HW2 4290   0.635   1.881  12.626
 1280SOL     OW 4291   0.580   0.984  11.309
 1280SOL    HW1 4292   0.627   1.030  11.239
 1280SOL    HW2 4293   0.622   1.013  11.390
 1281SOL     OW 4294   1.579   0.138  12.628
 1281SOL    HW1 4295   1.606   0.211  12.573
 1281SOL    HW2 4296   1.552   0.178  12.711
 1282SOL     OW 4297   0.139   0.650  11.742
 1282SOL    HW1 4298   0.096   0.565  11.747
 1282SOL    HW2 4299   0.102   0.700  11.814
 1283SOL     OW 4300   0.044   1.590  11.311
 1283SOL    HW1 4301   0.034   1.498  11.334
 1283SOL    HW2 4302   3.963   1.632  11.343
 1284SOL     OW 4303   1.687   0.916  11.812
 1284SOL    HW1 4304   1.772   0.877  11.794
 1284SOL    HW2 4305   1.668   0.969  11.734
 1285SOL     OW 4306   1.647   1.107  11.601
 1285SOL    HW1 4307   1.733   1.112  11.560
 1285SOL    HW2 4308   1.652   1.168  11.675
 1286SOL     OW 4309   0.137   0.755  12.761
 1286SOL    HW1 4310   0.232   0.749  12.760
 1286SOL    HW2 4311   0.119   0.845  12.786
 1287SOL     OW 4312   0.612   1.385  11.908
 1287SOL    HW1 4313   0.566   1.302  11.917
 1287SOL    HW2 4314   0.597   1.411  11.817
 1288SOL     OW 4315   1.288   1.238  12.595
 1288SOL    HW1 4316   1.320   1.171  12.535
 1288SOL    HW2 4317   1.346   1.232  12.671
 1289SOL     OW 4318   0.818   0.002  11.687
 1289SOL    HW1 4319   0.863   0.084  11.665
 1289SOL    HW2 4320   0.725   0.026  11.688
 1290SOL     OW 4321   0.185   0.952  12.449
 1290SOL    HW1 4322   0.273   0.917  12.436
 1290SOL    HW2 4323   0.131   0.908  12.382
 1291SOL     OW 4324   1.531   0.994  11.371
 1291SOL    HW1 4325   1.462   0.937  11.403
 1291SOL    HW2 4326   1.573   1.028  11.450
 1292SOL     OW 4327   1.185   1.807  12.795
 1292SOL    HW1 4328   1.196   1.866  12.720
 1292SOL    HW2 4329   1.202   1.719  12.759
 1293SOL     OW 4330   0.341   0.254  13.000
 1293SOL    HW1 4331   0.385   0.337  12.985
 1293SOL    HW2 4332   0.251   0.277  13.023
 1294SOL     OW 4333   1.465   1.419  12.123
 1294SOL    HW1 4334   1.397   1.435  12.189
 1294SOL    HW2 4335   1.453   1.328  12.096
 1295SOL     OW 4336   1.666   1.731  11.730
 1295SOL    HW1 4337   1.629   1.695  11.649
 1295SOL    HW2 4338   1.646   1.666  11.797
 1296SOL     OW 4339   0.596   0.718  11.436
 1296SOL    HW1 4340   0.602   0.802  11.390
 1296SOL    HW2 4341   0.533   0.735  11.507
 1297SOL     OW 4342   1.275   0.366  12.112
 1297SOL    HW1 4343   1.188   0.326  12.118
 1297SOL    HW2 4344   1.332   0.304  12.158
 1298SOL     OW 4345   1.575   1.670  11.472
 1298SOL    HW1 4346   1.663   1.704  11.452
 1298SOL    HW2 4347   1.540   1.646  11.386
 1299SOL     OW 4348   0.794   0.616  12.626
 1299SOL    HW1 4349   0.765   0.591  12.714
 1299SOL    HW2 4350   0.754   0.551  12.568
 1300SOL     OW 4351   1.392   0.477  12.849
 1300SOL    HW1 4352   1.398   0.521  12.934
 1300SOL    HW2 4353   1.451   0.402  12.858
 1301SOL     OW 4354   0.954   0.888  12.755
 1301SOL    HW1 4355   1.009   0.818  12.719
 1301SOL    HW2 4356   0.906   0.922  12.679
 1302SOL     OW 4357   0.991   0.404  12.412
 1302SOL    HW1 4358   0.907   0.427  12.452
 1302SOL    HW2 4359   0.968   0.372  12.325
 1303SOL     OW 4360   1.051   0.699  11.598
 1303SOL    HW1 4361   1.067   0.692  11.692
 1303SOL    HW2 4362   0.969   0.652  11.583
 1304SOL     OW 4363   0.081   0.826  11.963
 1304SOL    HW1 4364   0.157   0.794  12.011
 1304SOL    HW2 4365   0.097   0.920  11.952
 1305SOL     OW 4366   0.129   1.858  12.747
 1305SOL    HW1 4367   0.137   1.824  12.836
 1305SOL    HW2 4368   0.037   1.846  12.724
 1306SOL     OW 4369   0.893   0.351  11.370
 1306SOL    HW1 4370   0.935   0.410  11.307
 1306SOL    HW2 4371   0.894   0.266  11.327
 1307SOL     OW 4372   1.710   0.576  13.000
 1307SOL    HW1 4373   1.671   0.650  12.953
 1307SOL    HW2 4374   1.734   0.513  12.932
 1308SOL     OW 4375   1.377   1.141  11.712
 1308SOL    HW1 4376   1.457   1.130  11.661
 1308SOL    HW2 4377   1.325   1.204  11.662
 1309SOL     OW 4378   0.560   0.195  12.054
 1309SOL    HW1 4379   0.564   0.217  12.147
 1309SOL    HW2 4380   0.547   0.279  12.009
 1310SOL     OW 4381   1.005   1.444  11.644
 1310SOL    HW1 4382   0.968   1.517  11.594
 1310SOL    HW2 4383   0.987   1.465  11.735
 1311SOL     OW 4384   0.365   1.815  12.040
 1311SOL    HW1 4385   0.429   1.744  12.047
 1311SOL    HW2 4386   0.415   1.895  12.056
 1312SOL     OW 4387   1.799   1.053  12.042
 1312SOL    HW1 4388   1.744   1.040  11.964
 1312SOL    HW2 4389   1.737   1.061  12.114
 1313SOL     OW 4390   1.228   1.539  12.685
 1313SOL    HW1 4391   1.214   1.466  12.746
 1313SOL    HW2 4392   1.165   1.524  12.615
 1314SOL     OW 4393   0.310   0.955  11.414
 1314SOL    HW1 4394   0.395   0.977  11.375
 1314SOL    HW2 4395   0.297   0.863  11.391
 1315SOL     OW 4396   1.478   0.744  11.902
 1315SOL    HW1 4397   1.471   0.701  11.987
 1315SOL    HW2 4398   1.556   0.799  11.909
 1316SOL     OW 4399   0.466   1.260  12.909
 1316SOL    HW1 4400   0.440   1.268  12.817
 1316SOL    HW2 4401   0.384   1.264  12.958
 1317SOL     OW 4402   1.122   1.777  11.403
 1317SOL    HW1 4403   1.048   1.736  11.448
 1317SOL    HW2 4404   1.144   1.715  11.333
 1318SOL     OW 4405   0.200   0.295  12.671
 1318SOL    HW1 4406   0.106   0.316  12.669
 1318SOL    HW2 4407   0.208   0.228  12.738
 1319SOL     OW 4408   1.628   1.379  11.259
 1319SOL    HW1 4409   1.587   1.464  11.243
 1319SOL    HW2 4410   1.559   1.316  11.240
 1320SOL     OW 4411   0.466   1.739  11.490
 1320SOL    HW1 4412   0.509   1.797  11.553
 1320SOL    HW2 4413   0.538   1.706  11.436
 1321SOL     OW 4414   1.438   0.162  11.577
 1321SOL    HW1 4415   1.395   0.096  11.523
 1321SOL    HW2 4416   1.513   0.116  11.616
 1322SOL     OW 4417   0.251   1.791  12.404
 1322SOL    HW1 4418   0.299   1.728  12.458
 1322SOL    HW2 4419   0.247   1.751  12.317
 1323SOL     OW 4420   0.937   1.698  12.071
 1323SOL    HW1 4421   1.016   1.648  12.091
 1323SOL    HW2 4422   0.894   1.649  12.002
 1324SOL     OW 4423   0.396   0.694  11.644
 1324SOL    HW1 4424   0.422   0.604  11.658
 1324SOL    HW2 4425   0.303   0.697  11.670
 1325SOL     OW 4426   1.530   0.230  12.898
 1325SOL    HW1 4427   1.530   0.255  12.990
 1325SOL    HW2 4428   1.506   0.138  12.898
 1326SOL     OW 4429   0.643   0.133  11.273
 1326SOL    HW1 4430   0.671   0.052  11.316
 1326SOL    HW2 4431   0.582   0.105  11.206
 1327SOL     OW 4432   0.777   0.283  12.936
 1327SOL    HW1 4433   0.846   0.216  12.940
 1327SOL    HW2 4434   0.719   0.260  13.009
 1328SOL     OW 4435   0.876   1.521  12.366
 1328SOL    HW1 4436   0.861   1.485  12.279
 1328SOL    HW2 4437   0.946   1.467  12.403
 1329SOL     OW 4438   1.341   0.587  12.602
 1329SOL    HW1 4439   1.371   0.558  12.688
 1329SOL    HW2 4440   1.375   0.676  12.593
 1330SOL     OW 4441   0.815   1.395  12.111
 1330SOL    HW1 4442   0.900   1.383  12.068
 1330SOL    HW2 4443   0.752   1.395  12.039
 1331SOL     OW 4444   0.929   0.511  12.074
 1331SOL    HW1 4445   0.905   0.503  11.981
 1331SOL    HW2 4446   0.956   0.423  12.099
 1332SOL     OW 4447   0.546   0.056  11.661
 1332SOL    HW1 4448   0.472   0.064  11.721
 1332SOL    HW2 4449   0.548   0.140  11.615
 1333SOL     OW 4450   1.427   1.198  11.213
 1333SOL    HW1 4451   1.458   1.122  11.263
 1333SOL    HW2 4452   1.342   1.219  11.250
 1334SOL     OW 4453   0.338   0.042  11.368
 1334SOL    HW1 4454   0.362   0.086  11.287
 1334SOL    HW2 4455   0.421   0.032  11.415
 1335SOL     OW 4456   0.940   0.248  11.635
 1335SOL    HW1 4457   0.913   0.289  11.553
 1335SOL    HW2 4458   1.035   0.250  11.633
 1336SOL     OW 4459   1.079   0.682  12.631
 1336SOL    HW1 4460   1.009   0.617  12.638
 1336SOL    HW2 4461   1.159   0.630  12.626
 1337SOL     OW 4462   1.222   1.570  11.967
 1337SOL    HW1 4463   1.239   1.637  11.900
 1337SOL    HW2 4464   1.292   1.583  12.031
 1338SOL     OW 4465   0.466   1.150  11.910
 1338SOL    HW1 4466   0.394   1.126  11.968
 1338SOL    HW2 4467   0.432   1.134  11.821
 1339SOL     OW 4468   1.267   1.793  11.779
 1339SOL    HW1 4469   1.311   1.856  11.722
 1339SOL    HW2 4470   1.201   1.845  11.826
 1340SOL     OW 4471   1.023   0.545  11.198
 1340SOL    HW1 4472   0.980   0.628  11.178
 1340SOL    HW2 4473   1.087   0.566  11.266
 1341SOL     OW 4474   0.080   0.571  12.565
 1341SOL    HW1 4475   0.169   0.554  12.534
 1341SOL    HW2 4476   0.089   0.643  12.628
 1342SOL     OW 4477   0.572   0.231  12.332
 1342SOL    HW1 4478   0.595   0.139  12.341
 1342SOL    HW2 4479   0.481   0.236  12.362
 1343SOL     OW 4480   0.871   0.462  11.811
 1343SOL    HW1 4481   0.820   0.513  11.749
 1343SOL    HW2 4482   0.890   0.380  11.764
 1344SOL     OW 4483   0.995   0.041  11.952
 1344SOL    HW1 4484   0.961   0.068  11.866
 1344SOL    HW2 4485   1.006   3.946  11.945
 1345SOL     OW 4486   1.437   1.162  12.030
 1345SOL    HW1 4487   1.368   1.096  12.027
 1345SOL    HW2 4488   1.463   1.174  11.938
 1346SOL     OW 4489   1.466   0.605  12.149
 1346SOL    HW1 4490   1.414   0.525  12.154
 1346SOL    HW2 4491   1.526   0.599  12.223
 1347SOL     OW 4492   1.846   0.819  11.557
 1347SOL    HW1 4493   1.902   0.767  11.614
 1347SOL    HW2 4494   1.815   0.758  11.490
 1348SOL     OW 4495   0.488   1.418  11.333
 1348SOL    HW1 4496   0.413   1.387  11.383
 1348SOL    HW2 4497   0.470   1.391  11.243
 1349SOL     OW 4498   1.669   1.264  11.819
 1349SOL    HW1 4499   1.764   1.265  11.831
 1349SOL    HW2 4500   1.641   1.353  11.840
 1350SOL     OW 4501   1.395   0.574  11.242
 1350SOL    HW1 4502   1.332   0.555  11.312
 1350SOL    HW2 4503   1.480   0.554  11.280
 1351SOL     OW 4504   0.558   0.270  11.491
 1351SOL    HW1 4505   0.601   0.230  11.416
 1351SOL    HW2 4506   0.528   0.356  11.459
 1352SOL     OW 4507   1.752   1.239  12.746
 1352SOL    HW1 4508   1.839   1.201  12.740
 1352SOL    HW2 4509   1.767   1.329  12.773
 1353SOL     OW 4510   1.058   1.354  12.506
 1353SOL    HW1 4511   0.983   1.322  12.557
 1353SOL    HW2 4512   1.134   1.312  12.547
 1354SOL     OW 4513   1.607   1.625  12.826
 1354SOL    HW1 4514   1.602   1.661  12.737
 1354SOL    HW2 4515   1.691   1.579  12.828
 1355SOL     OW 4516   1.129   1.204  12.277
 1355SOL    HW1 4517   1.070   1.242  12.342
 1355SOL    HW2 4518   1.097   1.236  12.193
 1356SOL     OW 4519   1.627   1.098  12.249
 1356SOL    HW1 4520   1.622   1.160  12.322
 1356SOL    HW2 4521   1.549   1.115  12.197
 1357SOL     OW 4522   0.913   0.112  12.573
 1357SOL    HW1 4523   0.933   0.087  12.483
 1357SOL    HW2 4524   0.993   0.154  12.605
 1358SOL     OW 4525   0.984   1.115  12.895
 1358SOL    HW1 4526   0.892   1.131  12.916
 1358SOL    HW2 4527   0.983   1.037  12.839
 1359SOL     OW 4528   0.708   1.061  11.543
 1359SOL    HW1 4529   0.694   1.045  11.636
 1359SOL    HW2 4530   0.784   1.008  11.520
 1360SOL     OW 4531   0.421   0.816  12.424
 1360SOL    HW1 4532   0.490   0.822  12.490
 1360SOL    HW2 4533   0.386   0.727  12.434
 1361SOL     OW 4534   1.266   0.375  12.448
 1361SOL    HW1 4535   1.301   0.453  12.492
 1361SOL    HW2 4536   1.179   0.401  12.417
 1362SOL     OW 4537   0.065   1.580  12.517
 1362SOL    HW1 4538   0.069   1.643  12.446
 1362SOL    HW2 4539   0.156   1.566  12.542
 1363SOL     OW 4540   0.374   1.103  11.657
 1363SOL    HW1 4541   0.367   1.181  11.601
 1363SOL    HW2 4542   0.372   1.029  11.595
 1364SOL     OW 4543   0.555   0.537  12.031
 1364SOL    HW1 4544   0.570   0.595  11.956
 1364SOL    HW2 4545   0.621   0.564  12.096
 1365SOL     OW 4546   1.248   1.348  11.561
 1365SOL    HW1 4547   1.303   1.419  11.593
 1365SOL    HW2 4548   1.161   1.369  11.595
 1366SOL     OW 4549   1.281   1.458  12.319
 1366SOL    HW1 4550   1.337   1.461  12.397
 1366SOL    HW2 4551   1.226   1.381  12.333
 1367SOL     OW 4552   1.577   0.632  11.657
 1367SOL    HW1 4553   1.536   0.692  11.720
 1367SOL    HW2 4554   1.624   0.690  11.597
 1368SOL     OW 4555   0.345   1.526  12.491
 1368SOL    HW1 4556   0.336   1.476  12.410
 1368SOL    HW2 4557   0.440   1.542  12.499
 1369SOL     OW 4558   0.414   0.739  12.773
 1369SOL    HW1 4559   0.476   0.785  12.716
 1369SOL    HW2 4560   0.453   0.653  12.786
 1370SOL     OW 4561   1.601   0.779  12.855
 1370SOL    HW1 4562   1.515   0.820  12.847
 1370SOL    HW2 4563   1.654   0.820  12.786
 1371SOL     OW 4564   1.015   0.128  12.950
 1371SOL    HW1 4565   1.061   0.203  12.912
 1371SOL    HW2 4566   1.007   0.065  12.878
 1372SOL     OW 4567   0.479   0.036  12.940
 1372SOL    HW1 4568   0.491   0.042  12.845
 1372SOL    HW2 4569   0.419   0.107  12.961
 1373SOL     OW 4570   0.584   0.874  12.203
 1373SOL    HW1 4571   0.615   0.965  12.204
 1373SOL    HW2 4572   0.528   0.867  12.280
 1374SOL     OW 4573   1.357   0.858  12.201
 1374SOL    HW1 4574   1.274   0.849  12.155
 1374SOL    HW2 4575   1.398   0.772  12.195
 1375SOL     OW 4576   1.203   0.535  11.433
 1375SOL    HW1 4577   1.212   0.456  11.486
 1375SOL    HW2 4578   1.160   0.598  11.491
 1376SOL     OW 4579   0.312   0.213  12.413
 1376SOL    HW1 4580   0.270   0.249  12.491
 1376SOL    HW2 4581   0.295   0.119  12.417
 1377SOL     OW 4582   0.059   1.305  12.452
 1377SOL    HW1 4583   0.090   1.265  12.533
 1377SOL    HW2 4584   0.051   1.398  12.473
 1378SOL     OW 4585   0.726   0.634  12.228
 1378SOL    HW1 4586   0.800   0.618  12.168
 1378SOL    HW2 4587   0.697   0.722  12.205
 1379SOL     OW 4588   1.735   0.959  13.026
 1379SOL    HW1 4589   1.689   0.898  12.968
 1379SOL    HW2 4590   1.675   0.973  13.099
 1380SOL     OW 4591   0.327   0.055  11.823
 1380SOL    HW1 4592   0.299   0.147  11.824
 1380SOL    HW2 4593   0.288   0.017  11.902
 1381SOL     OW 4594   1.604   0.389  11.554
 1381SOL    HW1 4595   1.571   0.321  11.614
 1381SOL    HW2 4596   1.584   0.471  11.599
 1382SOL     OW 4597   1.029   0.759  12.132
 1382SOL    HW1 4598   1.024   0.777  12.226
 1382SOL    HW2 4599   1.001   0.668  12.123
 1383SOL     OW 4600   0.982   1.566  12.889
 1383SOL    HW1 4601   0.967   1.610  12.806
 1383SOL    HW2 4602   1.026   1.484  12.866
 1384SOL     OW 4603   1.855   1.504  12.777
 1384SOL    HW1 4604   1.870   1.533  12.687
 1384SOL    HW2 4605   1.939   1.517  12.821
 1385SOL     OW 4606   0.352   0.920  12.973
 1385SOL    HW1 4607   0.431   0.941  13.023
 1385SOL    HW2 4608   0.380   0.853  12.910
 1386SOL     OW 4609   1.508   0.276  11.308
 1386SOL    HW1 4610   1.433   0.218  11.320
 1386SOL    HW2 4611   1.521   0.316  11.394
 1387SOL     OW 4612   1.291   0.827  11.202
 1387SOL    HW1 4613   1.333   0.741  11.205
 1387SOL    HW2 4614   1.322   0.866  11.121
 1388SOL     OW 4615   1.065   1.336  12.026
 1388SOL    HW1 4616   1.069   1.264  11.964
 1388SOL    HW2 4617   1.127   1.401  11.992
 1389SOL     OW 4618   0.313   0.805  12.123
 1389SOL    HW1 4619   0.407   0.821  12.116
 1389SOL    HW2 4620   0.307   0.715  12.155
 1390SOL     OW 4621   0.338   0.528  12.186
 1390SOL    HW1 4622   0.297   0.443  12.168
 1390SOL    HW2 4623   0.413   0.532  12.127
 1391SOL     OW 4624   1.133   0.382  12.866
 1391SOL    HW1 4625   1.086   0.437  12.928
 1391SOL    HW2 4626   1.221   0.421  12.861
 1392SOL     OW 4627   1.151   0.225  12.653
 1392SOL    HW1 4628   1.142   0.280  12.731
 1392SOL    HW2 4629   1.175   0.286  12.584
 1393SOL     OW 4630   4.000   1.319  11.354
 1393SOL    HW1 4631   3.905   1.335  11.358
 1393SOL    HW2 4632   0.009   1.225  11.373
 1394SOL     OW 4633   0.077   1.800  12.061
 1394SOL    HW1 4634   0.080   1.705  12.068
 1394SOL    HW2 4635   0.168   1.828  12.065
 1395SOL     OW 4636   0.503   1.571  12.082
 1395SOL    HW1 4637   0.572   1.631  12.108
 1395SOL    HW2 4638   0.546   1.507  12.025
 1396SOL     OW 4639   0.982   0.791  12.398
 1396SOL    HW1 4640   1.037   0.769  12.473
 1396SOL    HW2 4641   0.896   0.753  12.419
 1397SOL     OW 4642   0.036   0.569  12.285
 1397SOL    HW1 4643   0.101   0.520  12.234
 1397SOL    HW2 4644   0.061   0.556  12.376
 1398SOL     OW 4645   0.210   0.516  12.894
 1398SOL    HW1 4646   0.259   0.479  12.820
 1398SOL    HW2 4647   0.161   0.589  12.856
 1399SOL     OW 4648   1.377   0.939  12.830
 1399SOL    HW1 4649   1.399   1.032  12.828
 1399SOL    HW2 4650   1.374   0.912  12.738
 1400SOL     OW 4651   0.818   0.572  11.531
 1400SOL    HW1 4652   0.823   0.495  11.474
 1400SOL    HW2 4653   0.743   0.621  11.498
 1401SOL     OW 4654   1.641   0.602  12.358
 1401SOL    HW1 4655   1.631   0.541  12.431
 1401SOL    HW2 4656   1.728   0.584  12.323
 1402SOL     OW 4657   0.298   1.546  12.901
 1402SOL    HW1 4658   0.248   1.615  12.944
 1402SOL    HW2 4659   0.265   1.465  12.939
 1403SOL     OW 4660   0.704   0.456  12.431
 1403SOL    HW1 4661   0.656   0.377  12.405
 1403SOL    HW2 4662   0.696   0.515  12.356
 1404SOL     OW 4663   0.927   1.679  12.640
 1404SOL    HW1 4664   0.902   1.644  12.555
 1404SOL    HW2 4665   0.923   1.774  12.629
 1405SOL     OW 4666   0.456   0.492  11.368
 1405SOL    HW1 4667   0.520   0.561  11.385
 1405SOL    HW2 4668   0.376   0.539  11.345
 1406SOL     OW 4669   0.157   1.136  12.645
 1406SOL    HW1 4670   0.159   1.084  12.726
 1406SOL    HW2 4671   0.171   1.071  12.576
 1407SOL     OW 4672   1.325   1.047  12.395
 1407SOL    HW1 4673   1.349   0.983  12.327
 1407SOL    HW2 4674   1.255   1.099  12.356
 1408SOL     OW 4675   1.312   0.856  11.478
 1408SOL    HW1 4676   1.236   0.827  11.529
 1408SOL    HW2 4677   1.286   0.843  11.387
 1409SOL     OW 4678   1.743   1.737  12.310
 1409SOL    HW1 4679   1.818   1.760  12.255
 1409SOL    HW2 4680   1.729   1.643  12.293
 1410SOL     OW 4681   1.243   1.734  12.283
 1410SOL    HW1 4682   1.325   1.754  12.239
 1410SOL    HW2 4683   1.248   1.640  12.302
 1411SOL     OW 4684   0.076   1.217  12.199
 1411SOL    HW1 4685   0.083   1.243  12.291
 1411SOL    HW2 4686   3.983   1.225  12.178
 1412SOL     OW 4687   0.679   1.666  12.902
 1412SOL    HW1 4688   0.622   1.743  12.896
 1412SOL    HW2 4689   0.744   1.678  12.833
 1413SOL     OW 4690   1.712   0.126  11.658
 1413SOL    HW1 4691   1.791   0.134  11.605
 1413SOL    HW2 4692   1.703   0.032  11.676
 1414SOL     OW 4693   1.390   1.568  11.658
 1414SOL    HW1 4694   1.446   1.600  11.587
 1414SOL    HW2 4695   1.341   1.644  11.687
 1415SOL     OW 4696   0.172   1.766  13.001
 1415SOL    HW1 4697   0.115   1.716  13.059
 1415SOL    HW2 4698   0.216   1.829  13.059
 1416SOL     OW 4699   1.277   0.926  11.843
 1416SOL    HW1 4700   1.351   0.866  11.852
 1416SOL    HW2 4701   1.311   0.999  11.790
 1417SOL     OW 4702   0.814   1.273  12.602
 1417SOL    HW1 4703   0.785   1.313  12.684
 1417SOL    HW2 4704   0.743   1.292  12.540
 1418SOL     OW 4705   0.670   1.620  11.327
 1418SOL    HW1 4706   0.681   1.632  11.233
 1418SOL    HW2 4707   0.616   1.542  11.336
 1419SOL     OW 4708   1.625   1.728  12.563
 1419SOL    HW1 4709   1.669   1.734  12.478
 1419SOL    HW2 4710   1.613   1.819  12.591
 1420SOL     OW 4711   1.839   0.176  12.139
 1420SOL    HW1 4712   1.870   0.105  12.084
 1420SOL    HW2 4713   1.751   0.196  12.106
 1421SOL     OW 4714   0.273   0.323  11.887
 1421SOL    HW1 4715   0.188   0.359  11.862
 1421SOL    HW2 4716   0.265   0.306  11.980
 1422SOL     OW 4717   1.206   1.606  11.203
 1422SOL    HW1 4718   1.197   1.514  11.230
 1422SOL    HW2 4719   1.141   1.617  11.134
 1423SOL     OW 4720   0.824   1.005  12.545
 1423SOL    HW1 4721   0.867   1.001  12.459
 1423SOL    HW2 4722   0.823   1.098  12.566
 1424SOL     OW 4723   0.915   0.910  11.462
 1424SOL    HW1 4724   0.977   0.942  11.396
 1424SOL    HW2 4725   0.963   0.841  11.507
 1425SOL     OW 4726   1.489   1.623  11.212
 1425SOL    HW1 4727   1.394   1.618  11.197
 1425SOL    HW2 4728   1.527   1.630  11.125
 1426SOL     OW 4729   0.373   1.303  12.664
 1426SOL    HW1 4730   0.359   1.383  12.613
 1426SOL    HW2 4731   0.297   1.249  12.645
 1427SOL     OW 4732   1.609   1.282  12.453
 1427SOL    HW1 4733   1.671   1.272  12.526
 1427SOL    HW2 4734   1.550   1.351  12.481
 1428SOL     OW 4735   1.053   1.108  11.879
 1428SOL    HW1 4736   0.982   1.056  11.918
 1428SOL    HW2 4737   1.115   1.042  11.848
 1429SOL     OW 4738   1.014   0.248  12.140
 1429SOL    HW1 4739   1.004   0.198  12.059
 1429SOL    HW2 4740   1.009   0.183  12.210
 1430SOL     OW 4741   0.605   1.489  11.654
 1430SOL    HW1 4742   0.648   1.438  11.585
 1430SOL    HW2 4743   0.533   1.533  11.609
 1431SOL     OW 4744   1.720   0.392  12.545
 1431SOL    HW1 4745   1.792   0.455  12.549
 1431SOL    HW2 4746   1.753   0.321  12.492
 1432SOL     OW 4747   0.253   1.342  11.464
 1432SOL    HW1 4748   0.160   1.351  11.444
 1432SOL    HW2 4749   0.263   1.380  11.551
 1433SOL     OW 4750   0.106   1.000  12.890
 1433SOL    HW1 4751   0.046   0.991  12.963
 1433SOL    HW2 4752   0.192   0.980  12.927
 1434SOL     OW 4753   0.693   0.247  12.670
 1434SOL    HW1 4754   0.762   0.195  12.629
 1434SOL    HW2 4755   0.721   0.256  12.761
 1435SOL     OW 4756   0.088   0.324  11.200
 1435SOL    HW1 4757   3.993   0.320  11.194
 1435SOL    HW2 4758   0.111   0.407  11.157
 1436SOL     OW 4759   1.429   0.857  12.572
 1436SOL    HW1 4760   1.380   0.919  12.516
 1436SOL    HW2 4761   1.518   0.860  12.538
 1437SOL     OW 4762   0.038   0.164  11.456
 1437SOL    HW1 4763   0.037   0.238  11.395
 1437SOL    HW2 4764   0.117   0.178  11.508
 1438SOL     OW 4765   1.179   1.339  11.289
 1438SOL    HW1 4766   1.088   1.309  11.291
 1438SOL    HW2 4767   1.206   1.339  11.381
 1439SOL     OW 4768   0.620   0.829  12.608
 1439SOL    HW1 4769   0.676   0.905  12.592
 1439SOL    HW2 4770   0.680   0.756  12.616
 1440SOL     OW 4771   1.489   1.781  12.153
 1440SOL    HW1 4772   1.512   1.845  12.085
 1440SOL    HW2 4773   1.571   1.764  12.199
 1441SOL     OW 4774   0.717   0.563  12.880
 1441SOL    HW1 4775   0.760   0.626  12.938
 1441SOL    HW2 4776   0.747   0.478  12.909
 1442SOL     OW 4777   1.471   1.200  12.804
 1442SOL    HW1 4778   1.459   1.213  12.898
 1442SOL    HW2 4779   1.565   1.215  12.789
 1443SOL     OW 4780   0.380   1.742  12.730
 1443SOL    HW1 4781   0.292   1.779  12.717
 1443SOL    HW2 4782   0.364   1.661  12.778
 1444SOL     OW 4783   1.669   0.881  12.428
 1444SOL    HW1 4784   1.663   0.796  12.385
 1444SOL    HW2 4785   1.660   0.945  12.357
 1445SOL     OW 4786   1.224   0.334  11.617
 1445SOL    HW1 4787   1.291   0.266  11.609
 1445SOL    HW2 4788   1.245   0.379  11.699
 1446SOL     OW 4789   0.591   0.739  11.842
 1446SOL    HW1 4790   0.628   0.826  11.825
 1446SOL    HW2 4791   0.522   0.730  11.776
 1447SOL     OW 4792   1.753   0.382  12.815
 1447SOL    HW1 4793   1.735   0.387  12.721
 1447SOL    HW2 4794   1.696   0.312  12.847
 1448SOL     OW 4795   1.744   0.934  12.685
 1448SOL    HW1 4796   1.741   1.029  12.697
 1448SOL    HW2 4797   1.729   0.922  12.591
 1449SOL     OW 4798   0.862   1.367  11.207
 1449SOL    HW1 4799   0.824   1.395  11.290
 1449SOL    HW2 4800   0.880   1.448  11.160
 1450SOL     OW 4801   0.661   1.790  12.116
 1450SOL    HW1 4802   0.641   1.881  12.093
 1450SOL    HW2 4803   0.757   1.785  12.109
 1451SOL     OW 4804   0.868   0.967  12.026
 1451SOL    HW1 4805   0.918   0.895  12.066
 1451SOL    HW2 4806   0.833   1.015  12.101
 1452SOL     OW 4807   1.079   0.988  11.261
 1452SOL    HW1 4808   1.057   1.039  11.183
 1452SOL    HW2 4809   1.154   0.935  11.235
 1453SOL     OW 4810   1.847   1.542  12.006
 1453SOL    HW1 4811   1.763   1.539  11.960
 1453SOL    HW2 4812   1.835   1.481  12.079
 1454SOL     OW 4813   0.224   1.303  13.027
 1454SOL    HW1 4814   0.153   1.246  13.002
 1454SOL    HW2 4815   0.211   1.317  13.121
 1455SOL     OW 4816   0.116   1.276  11.890
 1455SOL    HW1 4817   0.127   1.225  11.971
 1455SOL    HW2 4818   0.108   1.210  11.821
 1456SOL     OW 4819   0.680   1.403  12.800
 1456SOL    HW1 4820   0.600   1.360  12.830
 1456SOL    HW2 4821   0.676   1.491  12.837
 1457SOL     OW 4822   1.812   0.183  12.411
 1457SOL    HW1 4823   1.815   0.089  12.425
 1457SOL    HW2 4824   1.827   0.194  12.317
 1458SOL     OW 4825   0.443   0.437  11.703
 1458SOL    HW1 4826   0.456   0.362  11.645
 1458SOL    HW2 4827   0.387   0.403  11.773
 1459SOL     OW 4828   1.702   1.477  12.263
 1459SOL    HW1 4829   1.619   1.457  12.220
 1459SOL    HW2 4830   1.710   1.410  12.330
 1460SOL     OW 4831   0.331   0.556  12.464
 1460SOL    HW1 4832   0.388   0.499  12.517
 1460SOL    HW2 4833   0.347   0.527  12.374
 1461SOL     OW 4834   0.827   1.578  11.849
 1461SOL    HW1 4835   0.815   1.634  11.773
 1461SOL    HW2 4836   0.751   1.521  11.849
 1462SOL     OW 4837   1.461   0.252  12.283
 1462SOL    HW1 4838   1.478   0.165  12.319
 1462SOL    HW2 4839   1.404   0.295  12.347
 1463SOL     OW 4840   1.005   0.029  12.319
 1463SOL    HW1 4841   0.928   3.983  12.286
 1463SOL    HW2 4842   1.072   3.961  12.327
 1464SOL     OW 4843   0.772   1.333  11.487
 1464SOL    HW1 4844   0.741   1.242  11.493
 1464SOL    HW2 4845   0.854   1.333  11.536
 1465SOL     OW 4846   0.620   1.557  12.457
 1465SOL    HW1 4847   0.622   1.639  12.507
 1465SOL    HW2 4848   0.708   1.549  12.419
 1466SOL     OW 4849   1.314   0.074  11.336
 1466SOL    HW1 4850   1.330   0.001  11.277
 1466SOL    HW2 4851   1.228   0.055  11.375
 1467SOL     OW 4852   1.284   0.457  11.858
 1467SOL    HW1 4853   1.236   0.540  11.854
 1467SOL    HW2 4854   1.287   0.436  11.952
 1468SOL     OW 4855   1.588   0.210  12.039
 1468SOL    HW1 4856   1.539   0.233  12.118
 1468SOL    HW2 4857   1.588   0.290  11.987
 1469SOL     OW 4858   0.046   1.050  11.412
 1469SOL    HW1 4859   0.140   1.034  11.403
 1469SOL    HW2 4860   0.011   0.969  11.448
 1470SOL     OW 4861   0.885   1.654  11.514
 1470SOL    HW1 4862   0.812   1.636  11.454
 1470SOL    HW2 4863   0.856   1.728  11.566
 1471SOL     OW 4864   0.231   0.626  13.152
 1471SOL    HW1 4865   0.138   0.630  13.173
 1471SOL    HW2 4866   0.234   0.597  13.061
 1472SOL     OW 4867   0.280   0.252   0.146
 1472SOL    HW1 4868   0.327   0.315   0.201
 1472SOL    HW2 4869   0.203   0.300   0.115
 1473SOL     OW 4870   0.016   0.384  13.666
 1473SOL    HW1 4871   3.923   0.402  13.652
 1473SOL    HW2 4872   0.029   0.294  13.636
 1474SOL     OW 4873   1.529   1.501  13.726
 1474SOL    HW1 4874   1.472   1.437  13.770
 1474SOL    HW2 4875   1.484   1.521  13.644
 1475SOL     OW 4876   1.129   0.701  13.735
 1475SOL    HW1 4877   1.184   0.775  13.708
 1475SOL    HW2 4878   1.077   0.734  13.808
 1476SOL     OW 4879   1.764   0.617  13.260
 1476SOL    HW1 4880   1.743   0.611  13.167
 1476SOL    HW2 4881   1.753   0.527  13.293
 1477SOL     OW 4882   0.686   1.011  13.672
 1477SOL    HW1 4883   0.740   0.989  13.748
 1477SOL    HW2 4884   0.613   1.061  13.708
 1478SOL     OW 4885   1.618   0.456  13.763
 1478SOL    HW1 4886   1.537   0.477  13.718
 1478SOL    HW2 4887   1.648   0.539  13.800
 1479SOL     OW 4888   0.219   1.714  13.487
 1479SOL    HW1 4889   0.236   1.788  13.545
 1479SOL    HW2 4890   0.298   1.707  13.433
 1480SOL     OW 4891   0.246   1.445  13.571
 1480SOL    HW1 4892   0.217   1.535  13.562
 1480SOL    HW2 4893   0.182   1.405  13.630
 1481SOL     OW 4894   0.253   1.077   0.019
 1481SOL    HW1 4895   0.273   1.033   0.102
 1481SOL    HW2 4896   0.212   1.160   0.045
 1482SOL     OW 4897   0.580   0.984  13.170
 1482SOL    HW1 4898   0.626   1.030  13.100
 1482SOL    HW2 4899   0.622   1.014  13.250
 1483SOL     OW 4900   0.145   0.648  13.610
 1483SOL    HW1 4901   0.086   0.574  13.602
 1483SOL    HW2 4902   0.100   0.709  13.668
 1484SOL     OW 4903   0.043   1.591  13.173
 1484SOL    HW1 4904   0.034   1.499  13.196
 1484SOL    HW2 4905   3.964   1.633  13.209
 1485SOL     OW 4906   1.686   0.915  13.668
 1485SOL    HW1 4907   1.773   0.881  13.647
 1485SOL    HW2 4908   1.664   0.971  13.593
 1486SOL     OW 4909   1.647   1.105  13.460
 1486SOL    HW1 4910   1.733   1.110  13.418
 1486SOL    HW2 4911   1.653   1.168  13.532
 1487SOL     OW 4912   0.610   1.387  13.763
 1487SOL    HW1 4913   0.562   1.306  13.778
 1487SOL    HW2 4914   0.583   1.415  13.675
 1488SOL     OW 4915   0.819   0.002  13.550
 1488SOL    HW1 4916   0.863   0.083  13.525
 1488SOL    HW2 4917   0.726   0.024  13.548
 1489SOL     OW 4918   1.531   0.993  13.233
 1489SOL    HW1 4919   1.461   0.936  13.265
 1489SOL    HW2 4920   1.571   1.029  13.312
 1490SOL     OW 4921   1.664   1.732  13.595
 1490SOL    HW1 4922   1.628   1.697  13.513
 1490SOL    HW2 4923   1.658   1.658  13.656
 1491SOL     OW 4924   0.595   0.719  13.296
 1491SOL    HW1 4925   0.601   0.803  13.250
 1491SOL    HW2 4926   0.532   0.736  13.367
 1492SOL     OW 4927   1.248   0.338   0.056
 1492SOL    HW1 4928   1.157   0.323   0.080
 1492SOL    HW2 4929   1.298   0.295   0.126
 1493SOL     OW 4930   1.577   1.673  13.333
 1493SOL    HW1 4931   1.665   1.704  13.312
 1493SOL    HW2 4932   1.540   1.647  13.248
 1494SOL     OW 4933   1.049   0.697  13.460
 1494SOL    HW1 4934   1.062   0.685  13.554
 1494SOL    HW2 4935   0.967   0.650  13.441
 1495SOL     OW 4936   0.080   0.836  13.807
 1495SOL    HW1 4937   0.162   0.816  13.852
 1495SOL    HW2 4938   0.076   0.932  13.805
 1496SOL     OW 4939   0.892   0.351  13.231
 1496SOL    HW1 4940   0.934   0.410  13.168
 1496SOL    HW2 4941   0.895   0.265  13.189
 1497SOL     OW 4942   1.365   1.136  13.555
 1497SOL    HW1 4943   1.454   1.135  13.520
 1497SOL    HW2 4944   1.321   1.206  13.508
 1498SOL     OW 4945   1.003   1.442  13.504
 1498SOL    HW1 4946   0.969   1.517  13.455
 1498SOL    HW2 4947   0.974   1.456  13.594
 1499SOL     OW 4948   0.399   1.798  13.859
 1499SOL    HW1 4949   0.427   1.707  13.871
 1499SOL    HW2 4950   0.471   1.850  13.894
 1500SOL     OW 4951   1.791   1.050  13.899
 1500SOL    HW1 4952   1.732   1.044  13.823
 1500SOL    HW2 4953   1.732   1.047   0.075
 1501SOL     OW 4954   0.310   0.955  13.277
 1501SOL    HW1 4955   0.394   0.978  13.237
 1501SOL    HW2 4956   0.297   0.864  13.251
 1502SOL     OW 4957   1.488   0.734  13.751
 1502SOL    HW1 4958   1.475   0.691  13.836
 1502SOL    HW2 4959   1.559   0.796  13.767
 1503SOL     OW 4960   1.122   1.777  13.265
 1503SOL    HW1 4961   1.048   1.737  13.310
 1503SOL    HW2 4962   1.144   1.715  13.195
 1504SOL     OW 4963   1.628   1.379  13.121
 1504SOL    HW1 4964   1.587   1.464  13.105
 1504SOL    HW2 4965   1.559   1.315  13.102
 1505SOL     OW 4966   0.467   1.739  13.351
 1505SOL    HW1 4967   0.508   1.796  13.416
 1505SOL    HW2 4968   0.539   1.707  13.298
 1506SOL     OW 4969   1.428   0.153  13.448
 1506SOL    HW1 4970   1.394   0.103  13.373
 1506SOL    HW2 4971   1.520   0.129  13.453
 1507SOL     OW 4972   0.924   1.690   0.013
 1507SOL    HW1 4973   0.957   1.622   0.072
 1507SOL    HW2 4974   0.883   1.641  13.841
 1508SOL     OW 4975   0.397   0.696  13.504
 1508SOL    HW1 4976   0.424   0.606  13.517
 1508SOL    HW2 4977   0.305   0.697  13.533
 1509SOL     OW 4978   0.644   0.134  13.136
 1509SOL    HW1 4979   0.673   0.052  13.177
 1509SOL    HW2 4980   0.582   0.106  13.068
 1510SOL     OW 4981   0.550   0.056  13.524
 1510SOL    HW1 4982   0.472   0.060  13.580
 1510SOL    HW2 4983   0.550   0.139  13.476
 1511SOL     OW 4984   1.428   1.198  13.075
 1511SOL    HW1 4985   1.458   1.122  13.125
 1511SOL    HW2 4986   1.342   1.219  13.112
 1512SOL     OW 4987   0.338   0.055  13.233
 1512SOL    HW1 4988   0.361   0.089  13.146
 1512SOL    HW2 4989   0.421   0.025  13.270
 1513SOL     OW 4990   0.939   0.246  13.495
 1513SOL    HW1 4991   0.911   0.289  13.415
 1513SOL    HW2 4992   1.035   0.252  13.494
 1514SOL     OW 4993   0.469   1.143  13.771
 1514SOL    HW1 4994   0.395   1.123  13.828
 1514SOL    HW2 4995   0.434   1.132  13.682
 1515SOL     OW 4996   1.270   1.797  13.634
 1515SOL    HW1 4997   1.310   1.865  13.580
 1515SOL    HW2 4998   1.201   1.842  13.683
 1516SOL     OW 4999   1.023   0.545  13.059
 1516SOL    HW1 5000   0.980   0.628  13.040
 1516SOL    HW2 5001   1.087   0.566  13.128
 1517SOL     OW 5002   0.895   0.474  13.667
 1517SOL    HW1 5003   0.824   0.517  13.620
 1517SOL    HW2 5004   0.900   0.387  13.628
 1518SOL     OW 5005   1.000   0.039  13.796
 1518SOL    HW1 5006   0.970   0.063  13.709
 1518SOL    HW2 5007   1.022   3.946  13.789
 1519SOL     OW 5008   1.847   0.820  13.416
 1519SOL    HW1 5009   1.905   0.767  13.472
 1519SOL    HW2 5010   1.815   0.758  13.350
 1520SOL     OW 5011   0.488   1.418  13.195
 1520SOL    HW1 5012   0.413   1.387  13.245
 1520SOL    HW2 5013   0.470   1.392  13.105
 1521SOL     OW 5014   1.679   1.269  13.666
 1521SOL    HW1 5015   1.772   1.269  13.689
 1521SOL    HW2 5016   1.646   1.352  13.701
 1522SOL     OW 5017   1.395   0.575  13.104
 1522SOL    HW1 5018   1.333   0.555  13.174
 1522SOL    HW2 5019   1.480   0.553  13.141
 1523SOL     OW 5020   0.557   0.271  13.354
 1523SOL    HW1 5021   0.600   0.228  13.279
 1523SOL    HW2 5022   0.528   0.355  13.320
 1524SOL     OW 5023   0.708   1.062  13.401
 1524SOL    HW1 5024   0.694   1.048  13.494
 1524SOL    HW2 5025   0.784   1.009  13.380
 1525SOL     OW 5026   0.377   1.103  13.518
 1525SOL    HW1 5027   0.367   1.182  13.465
 1525SOL    HW2 5028   0.373   1.031  13.454
 1526SOL     OW 5029   0.568   0.540  13.864
 1526SOL    HW1 5030   0.582   0.609  13.798
 1526SOL    HW2 5031   0.623   0.566   0.038
 1527SOL     OW 5032   1.246   1.351  13.419
 1527SOL    HW1 5033   1.301   1.423  13.448
 1527SOL    HW2 5034   1.160   1.370  13.454
 1528SOL     OW 5035   1.586   0.631  13.514
 1528SOL    HW1 5036   1.545   0.686  13.581
 1528SOL    HW2 5037   1.626   0.693  13.453
 1529SOL     OW 5038   1.203   0.533  13.297
 1529SOL    HW1 5039   1.211   0.453  13.349
 1529SOL    HW2 5040   1.159   0.596  13.354
 1530SOL     OW 5041   0.330   0.050  13.678
 1530SOL    HW1 5042   0.307   0.142  13.687
 1530SOL    HW2 5043   0.274   0.005  13.741
 1531SOL     OW 5044   1.587   0.389  13.409
 1531SOL    HW1 5045   1.578   0.323  13.478
 1531SOL    HW2 5046   1.578   0.472  13.455
 1532SOL     OW 5047   1.508   0.278  13.168
 1532SOL    HW1 5048   1.434   0.219  13.182
 1532SOL    HW2 5049   1.522   0.319  13.253
 1533SOL     OW 5050   1.291   0.827  13.064
 1533SOL    HW1 5051   1.333   0.741  13.067
 1533SOL    HW2 5052   1.322   0.866  12.983
 1534SOL     OW 5053   4.000   1.319  13.215
 1534SOL    HW1 5054   3.905   1.336  13.220
 1534SOL    HW2 5055   0.009   1.226  13.234
 1535SOL     OW 5056   0.818   0.575  13.386
 1535SOL    HW1 5057   0.821   0.496  13.332
 1535SOL    HW2 5058   0.740   0.622  13.355
 1536SOL     OW 5059   0.455   0.492  13.230
 1536SOL    HW1 5060   0.520   0.561  13.247
 1536SOL    HW2 5061   0.375   0.539  13.208
 1537SOL     OW 5062   1.313   0.851  13.339
 1537SOL    HW1 5063   1.235   0.828  13.389
 1537SOL    HW2 5064   1.288   0.841  13.247
 1538SOL     OW 5065   1.696   0.123  13.467
 1538SOL    HW1 5066   1.789   0.131  13.446
 1538SOL    HW2 5067   1.693   0.057  13.536
 1539SOL     OW 5068   1.384   1.573  13.508
 1539SOL    HW1 5069   1.440   1.609  13.440
 1539SOL    HW2 5070   1.337   1.648  13.544
 1540SOL     OW 5071   1.287   0.914  13.685
 1540SOL    HW1 5072   1.365   0.860  13.671
 1540SOL    HW2 5073   1.310   0.998  13.645
 1541SOL     OW 5074   0.670   1.620  13.189
 1541SOL    HW1 5075   0.681   1.631  13.095
 1541SOL    HW2 5076   0.616   1.542  13.198
 1542SOL     OW 5077   1.831   0.168   0.063
 1542SOL    HW1 5078   1.869   0.081   0.053
 1542SOL    HW2 5079   1.738   0.156   0.047
 1543SOL     OW 5080   0.283   0.308  13.739
 1543SOL    HW1 5081   0.203   0.355  13.714
 1543SOL    HW2 5082   0.289   0.322  13.834
 1544SOL     OW 5083   1.207   1.606  13.065
 1544SOL    HW1 5084   1.197   1.514  13.091
 1544SOL    HW2 5085   1.141   1.618  12.996
 1545SOL     OW 5086   0.918   0.912  13.327
 1545SOL    HW1 5087   0.978   0.942  13.259
 1545SOL    HW2 5088   0.963   0.839  13.368
 1546SOL     OW 5089   1.488   1.622  13.075
 1546SOL    HW1 5090   1.394   1.618  13.059
 1546SOL    HW2 5091   1.527   1.630  12.987
 1547SOL     OW 5092   1.050   1.091  13.754
 1547SOL    HW1 5093   0.963   1.052  13.746
 1547SOL    HW2 5094   1.101   1.049  13.685
 1548SOL     OW 5095   0.602   1.492  13.508
 1548SOL    HW1 5096   0.645   1.440  13.440
 1548SOL    HW2 5097   0.530   1.536  13.462
 1549SOL     OW 5098   0.252   1.341  13.325
 1549SOL    HW1 5099   0.159   1.351  13.305
 1549SOL    HW2 5100   0.262   1.380  13.412
 1550SOL     OW 5101   0.088   0.325  13.062
 1550SOL    HW1 5102   3.992   0.321  13.055
 1550SOL    HW2 5103   0.111   0.407  13.018
 1551SOL     OW 5104   0.042   0.165  13.308
 1551SOL    HW1 5105   0.044   0.239  13.247
 1551SOL    HW2 5106   0.123   0.174  13.359
 1552SOL     OW 5107   1.178   1.339  13.149
 1552SOL    HW1 5108   1.087   1.309  13.152
 1552SOL    HW2 5109   1.206   1.340  13.241
 1553SOL     OW 5110   1.222   0.329  13.484
 1553SOL    HW1 5111   1.291   0.263  13.473
 1553SOL    HW2 5112   1.250   0.380  13.560
 1554SOL     OW 5113   0.594   0.750  13.692
 1554SOL    HW1 5114   0.628   0.838  13.673
 1554SOL    HW2 5115   0.523   0.737  13.629
 1555SOL     OW 5116   0.863   1.367  13.068
 1555SOL    HW1 5117   0.824   1.394  13.151
 1555SOL    HW2 5118   0.880   1.448  13.021
 1556SOL     OW 5119   0.656   1.849   0.061
 1556SOL    HW1 5120   0.670   1.943   0.049
 1556SOL    HW2 5121   0.744   1.814   0.076
 1557SOL     OW 5122   0.831   0.963  13.894
 1557SOL    HW1 5123   0.865   0.884   0.036
 1557SOL    HW2 5124   0.846   1.032   0.059
 1558SOL     OW 5125   1.078   0.987  13.123
 1558SOL    HW1 5126   1.056   1.039  13.045
 1558SOL    HW2 5127   1.153   0.934  13.096
 1559SOL     OW 5128   0.114   1.272  13.754
 1559SOL    HW1 5129   0.056   1.226  13.814
 1559SOL    HW2 5130   0.124   1.212  13.680
 1560SOL     OW 5131   0.446   0.439  13.558
 1560SOL    HW1 5132   0.464   0.365  13.500
 1560SOL    HW2 5133   0.401   0.400  13.633
 1561SOL     OW 5134   1.700   1.496   0.322
 1561SOL    HW1 5135   1.664   1.452   0.245
 1561SOL    HW2 5136   1.763   1.433   0.358
 1562SOL     OW 5137   0.820   1.553  13.709
 1562SOL    HW1 5138   0.799   1.609  13.635
 1562SOL    HW2 5139   0.743   1.498  13.722
 1563SOL     OW 5140   0.772   1.333  13.346
 1563SOL    HW1 5141   0.741   1.242  13.353
 1563SOL    HW2 5142   0.853   1.334  13.396
 1564SOL     OW 5143   1.314   0.078  13.204
 1564SOL    HW1 5144   1.339   0.007  13.145
 1564SOL    HW2 5145   1.227   0.053  13.236
 1565SOL     OW 5146   1.291   0.459  13.716
 1565SOL    HW1 5147   1.241   0.540  13.718
 1565SOL    HW2 5148   1.289   0.428  13.807
 1566SOL     OW 5149   0.046   1.050  13.271
 1566SOL    HW1 5150   0.140   1.034  13.263
 1566SOL    HW2 5151   0.010   0.970  13.309
 1567SOL     OW 5152   0.885   1.653  13.375
 1567SOL    HW1 5153   0.812   1.637  13.316
 1567SOL    HW2 5154   0.856   1.726  13.430
 1568SOL     OW 5155   0.233   2.508   0.121
 1568SOL    HW1 5156   0.138   2.503   0.135
 1568SOL    HW2 5157   0.246   2.466   0.036
 1569SOL     OW 5158   0.229   2.133   0.987
 1569SOL    HW1 5159   0.249   2.101   1.075
 1569SOL    HW2 5160   0.134   2.125   0.980
 1570SOL     OW 5161   0.011   2.226   0.633
 1570SOL    HW1 5162   3.926   2.245   0.673
 1570SOL    HW2 5163   3.990   2.189   0.548
 1571SOL     OW 5164   0.577   3.146   1.185
 1571SOL    HW1 5165   0.491   3.151   1.144
 1571SOL    HW2 5166   0.593   3.235   1.219
 1572SOL     OW 5167   1.561   3.372   0.707
 1572SOL    HW1 5168   1.516   3.351   0.789
 1572SOL    HW2 5169   1.491   3.375   0.642
 1573SOL     OW 5170   1.131   2.560   0.701
 1573SOL    HW1 5171   1.180   2.641   0.687
 1573SOL    HW2 5172   1.084   2.574   0.784
 1574SOL     OW 5173   1.758   2.466   0.226
 1574SOL    HW1 5174   1.786   2.420   0.147
 1574SOL    HW2 5175   1.724   2.398   0.283
 1575SOL     OW 5176   0.756   3.003   1.039
 1575SOL    HW1 5177   0.690   3.037   1.100
 1575SOL    HW2 5178   0.791   3.080   0.995
 1576SOL     OW 5179   0.866   2.636   1.822
 1576SOL    HW1 5180   0.857   2.707   1.885
 1576SOL    HW2 5181   0.890   2.680   1.740
 1577SOL     OW 5182   0.685   2.865   0.648
 1577SOL    HW1 5183   0.751   2.853   0.716
 1577SOL    HW2 5184   0.616   2.917   0.689
 1578SOL     OW 5185   0.710   3.012   1.813
 1578SOL    HW1 5186   0.758   3.090   1.840
 1578SOL    HW2 5187   0.628   3.045   1.777
 1579SOL     OW 5188   0.351   3.264   1.078
 1579SOL    HW1 5189   0.268   3.252   1.031
 1579SOL    HW2 5190   0.401   3.323   1.021
 1580SOL     OW 5191   1.461   3.362   1.354
 1580SOL    HW1 5192   1.512   3.442   1.364
 1580SOL    HW2 5193   1.397   3.364   1.426
 1581SOL     OW 5194   0.450   2.262   1.490
 1581SOL    HW1 5195   0.525   2.202   1.492
 1581SOL    HW2 5196   0.374   2.206   1.502
 1582SOL     OW 5197   1.609   2.306   0.736
 1582SOL    HW1 5198   1.529   2.330   0.689
 1582SOL    HW2 5199   1.630   2.382   0.790
 1583SOL     OW 5200   0.228   3.571   0.472
 1583SOL    HW1 5201   0.226   3.655   0.517
 1583SOL    HW2 5202   0.301   3.578   0.411
 1584SOL     OW 5203   1.137   3.203   1.693
 1584SOL    HW1 5204   1.177   3.198   1.779
 1584SOL    HW2 5205   1.084   3.124   1.686
 1585SOL     OW 5206   0.243   3.306   0.543
 1585SOL    HW1 5207   0.223   3.399   0.528
 1585SOL    HW2 5208   0.169   3.274   0.594
 1586SOL     OW 5209   0.246   2.930   0.883
 1586SOL    HW1 5210   0.266   2.846   0.925
 1586SOL    HW2 5211   0.194   2.977   0.949
 1587SOL     OW 5212   0.613   3.648   1.429
 1587SOL    HW1 5213   0.530   3.634   1.475
 1587SOL    HW2 5214   0.638   3.737   1.453
 1588SOL     OW 5215   0.565   2.844   0.161
 1588SOL    HW1 5216   0.588   2.891   0.081
 1588SOL    HW2 5217   0.620   2.882   0.228
 1589SOL     OW 5218   1.597   1.990   1.466
 1589SOL    HW1 5219   1.585   2.074   1.422
 1589SOL    HW2 5220   1.588   2.010   1.559
 1590SOL     OW 5221   0.140   2.514   0.573
 1590SOL    HW1 5222   0.086   2.435   0.574
 1590SOL    HW2 5223   0.105   2.568   0.644
 1591SOL     OW 5224   1.838   3.611   0.338
 1591SOL    HW1 5225   1.899   3.577   0.404
 1591SOL    HW2 5226   1.864   3.702   0.325
 1592SOL     OW 5227   0.030   3.469   0.142
 1592SOL    HW1 5228   0.031   3.374   0.152
 1592SOL    HW2 5229   3.939   3.494   0.158
 1593SOL     OW 5230   1.688   2.779   0.642
 1593SOL    HW1 5231   1.772   2.738   0.620
 1593SOL    HW2 5232   1.666   2.831   0.564
 1594SOL     OW 5233   1.647   2.967   0.431
 1594SOL    HW1 5234   1.734   2.972   0.391
 1594SOL    HW2 5235   1.650   3.030   0.503
 1595SOL     OW 5236   0.136   2.614   1.590
 1595SOL    HW1 5237   0.231   2.608   1.590
 1595SOL    HW2 5238   0.117   2.705   1.614
 1596SOL     OW 5239   0.614   3.247   0.735
 1596SOL    HW1 5240   0.567   3.164   0.744
 1596SOL    HW2 5241   0.598   3.274   0.644
 1597SOL     OW 5242   1.288   3.100   1.423
 1597SOL    HW1 5243   1.321   3.032   1.363
 1597SOL    HW2 5244   1.346   3.094   1.499
 1598SOL     OW 5245   0.819   1.861   0.510
 1598SOL    HW1 5246   0.858   1.946   0.489
 1598SOL    HW2 5247   0.725   1.880   0.518
 1599SOL     OW 5248   0.185   2.814   1.278
 1599SOL    HW1 5249   0.273   2.779   1.264
 1599SOL    HW2 5250   0.132   2.773   1.210
 1600SOL     OW 5251   1.531   2.858   0.203
 1600SOL    HW1 5252   1.463   2.799   0.235
 1600SOL    HW2 5253   1.571   2.894   0.283
 1601SOL     OW 5254   1.213   3.664   1.626
 1601SOL    HW1 5255   1.194   3.725   1.554
 1601SOL    HW2 5256   1.215   3.578   1.585
 1602SOL     OW 5257   0.339   2.109   1.814
 1602SOL    HW1 5258   0.378   2.196   1.821
 1602SOL    HW2 5259   0.248   2.122   1.839
 1603SOL     OW 5260   1.466   3.282   0.952
 1603SOL    HW1 5261   1.398   3.296   1.017
 1603SOL    HW2 5262   1.454   3.190   0.925
 1604SOL     OW 5263   1.659   3.599   0.587
 1604SOL    HW1 5264   1.643   3.576   0.495
 1604SOL    HW2 5265   1.634   3.522   0.636
 1605SOL     OW 5266   0.598   2.581   0.263
 1605SOL    HW1 5267   0.601   2.663   0.214
 1605SOL    HW2 5268   0.538   2.598   0.335
 1606SOL     OW 5269   1.279   2.218   0.933
 1606SOL    HW1 5270   1.191   2.182   0.943
 1606SOL    HW2 5271   1.333   2.162   0.990
 1607SOL     OW 5272   1.561   3.595   0.313
 1607SOL    HW1 5273   1.656   3.594   0.312
 1607SOL    HW2 5274   1.536   3.556   0.229
 1608SOL     OW 5275   0.791   2.480   1.452
 1608SOL    HW1 5276   0.765   2.456   1.540
 1608SOL    HW2 5277   0.752   2.413   1.396
 1609SOL     OW 5278   1.393   2.335   1.677
 1609SOL    HW1 5279   1.395   2.381   1.761
 1609SOL    HW2 5280   1.458   2.265   1.687
 1610SOL     OW 5281   0.954   2.749   1.583
 1610SOL    HW1 5282   1.009   2.679   1.547
 1610SOL    HW2 5283   0.906   2.783   1.507
 1611SOL     OW 5284   0.993   2.274   1.238
 1611SOL    HW1 5285   0.907   2.296   1.275
 1611SOL    HW2 5286   0.973   2.229   1.157
 1612SOL     OW 5287   1.050   2.563   0.429
 1612SOL    HW1 5288   1.066   2.554   0.523
 1612SOL    HW2 5289   0.968   2.516   0.414
 1613SOL     OW 5290   0.082   2.688   0.791
 1613SOL    HW1 5291   0.160   2.659   0.839
 1613SOL    HW2 5292   0.094   2.782   0.781
 1614SOL     OW 5293   0.127   3.714   1.575
 1614SOL    HW1 5294   0.134   3.683   1.665
 1614SOL    HW2 5295   0.035   3.702   1.553
 1615SOL     OW 5296   0.870   2.220   0.214
 1615SOL    HW1 5297   0.910   2.280   0.151
 1615SOL    HW2 5298   0.882   2.133   0.175
 1616SOL     OW 5299   1.679   2.446   1.832
 1616SOL    HW1 5300   1.652   2.517   1.773
 1616SOL    HW2 5301   1.725   2.384   1.776
 1617SOL     OW 5302   1.377   3.004   0.543
 1617SOL    HW1 5303   1.455   2.991   0.489
 1617SOL    HW2 5304   1.324   3.067   0.494
 1618SOL     OW 5305   0.546   2.042   0.893
 1618SOL    HW1 5306   0.552   2.072   0.984
 1618SOL    HW2 5307   0.548   2.122   0.841
 1619SOL     OW 5308   1.006   3.306   0.475
 1619SOL    HW1 5309   0.970   3.379   0.425
 1619SOL    HW2 5310   0.987   3.327   0.566
 1620SOL     OW 5311   0.358   3.669   0.860
 1620SOL    HW1 5312   0.435   3.613   0.870
 1620SOL    HW2 5313   0.392   3.758   0.869
 1621SOL     OW 5314   1.799   2.916   0.869
 1621SOL    HW1 5315   1.744   2.901   0.792
 1621SOL    HW2 5316   1.737   2.924   0.941
 1622SOL     OW 5317   1.228   3.399   1.511
 1622SOL    HW1 5318   1.214   3.327   1.572
 1622SOL    HW2 5319   1.162   3.386   1.443
 1623SOL     OW 5320   0.312   2.796   0.239
 1623SOL    HW1 5321   0.403   2.811   0.212
 1623SOL    HW2 5322   0.301   2.701   0.233
 1624SOL     OW 5323   1.479   2.603   0.726
 1624SOL    HW1 5324   1.471   2.561   0.812
 1624SOL    HW2 5325   1.555   2.659   0.734
 1625SOL     OW 5326   0.466   3.121   1.737
 1625SOL    HW1 5327   0.440   3.130   1.645
 1625SOL    HW2 5328   0.384   3.127   1.786
 1626SOL     OW 5329   1.125   3.640   0.233
 1626SOL    HW1 5330   1.061   3.594   0.288
 1626SOL    HW2 5331   1.151   3.575   0.167
 1627SOL     OW 5332   0.204   2.140   1.507
 1627SOL    HW1 5333   0.114   2.171   1.498
 1627SOL    HW2 5334   0.195   2.055   1.551
 1628SOL     OW 5335   1.634   3.235   0.082
 1628SOL    HW1 5336   1.596   3.319   0.055
 1628SOL    HW2 5337   1.565   3.171   0.064
 1629SOL     OW 5338   0.469   3.603   0.320
 1629SOL    HW1 5339   0.505   3.665   0.383
 1629SOL    HW2 5340   0.545   3.573   0.269
 1630SOL     OW 5341   1.402   1.970   0.431
 1630SOL    HW1 5342   1.384   1.951   0.339
 1630SOL    HW2 5343   1.492   1.939   0.444
 1631SOL     OW 5344   0.251   3.656   1.229
 1631SOL    HW1 5345   0.298   3.591   1.282
 1631SOL    HW2 5346   0.248   3.618   1.141
 1632SOL     OW 5347   0.937   3.561   0.901
 1632SOL    HW1 5348   1.015   3.509   0.921
 1632SOL    HW2 5349   0.893   3.512   0.832
 1633SOL     OW 5350   0.396   2.557   0.472
 1633SOL    HW1 5351   0.421   2.466   0.482
 1633SOL    HW2 5352   0.304   2.560   0.500
 1634SOL     OW 5353   1.537   2.086   1.725
 1634SOL    HW1 5354   1.548   2.107   1.818
 1634SOL    HW2 5355   1.466   2.022   1.723
 1635SOL     OW 5356   0.766   2.139   1.754
 1635SOL    HW1 5357   0.843   2.082   1.755
 1635SOL    HW2 5358   0.719   2.118   1.834
 1636SOL     OW 5359   0.876   3.382   1.194
 1636SOL    HW1 5360   0.861   3.347   1.107
 1636SOL    HW2 5361   0.946   3.328   1.230
 1637SOL     OW 5362   1.341   2.451   1.432
 1637SOL    HW1 5363   1.371   2.419   1.517
 1637SOL    HW2 5364   1.377   2.539   1.425
 1638SOL     OW 5365   0.816   3.256   0.939
 1638SOL    HW1 5366   0.900   3.245   0.896
 1638SOL    HW2 5367   0.752   3.257   0.867
 1639SOL     OW 5368   0.927   2.371   0.902
 1639SOL    HW1 5369   0.904   2.363   0.810
 1639SOL    HW2 5370   0.959   2.284   0.927
 1640SOL     OW 5371   0.555   1.923   0.504
 1640SOL    HW1 5372   0.474   1.921   0.554
 1640SOL    HW2 5373   0.548   2.000   0.448
 1641SOL     OW 5374   1.430   3.066   0.045
 1641SOL    HW1 5375   1.451   2.986   0.092
 1641SOL    HW2 5376   1.338   3.082   0.064
 1642SOL     OW 5377   0.264   1.871   0.218
 1642SOL    HW1 5378   0.295   1.954   0.182
 1642SOL    HW2 5379   0.345   1.824   0.241
 1643SOL     OW 5380   0.940   2.107   0.461
 1643SOL    HW1 5381   0.909   2.148   0.380
 1643SOL    HW2 5382   1.034   2.125   0.463
 1644SOL     OW 5383   1.080   2.543   1.459
 1644SOL    HW1 5384   1.012   2.476   1.465
 1644SOL    HW2 5385   1.162   2.493   1.453
 1645SOL     OW 5386   1.223   3.432   0.794
 1645SOL    HW1 5387   1.239   3.499   0.728
 1645SOL    HW2 5388   1.292   3.445   0.859
 1646SOL     OW 5389   0.465   3.012   0.735
 1646SOL    HW1 5390   0.394   2.989   0.795
 1646SOL    HW2 5391   0.429   2.997   0.648
 1647SOL     OW 5392   1.268   3.658   0.606
 1647SOL    HW1 5393   1.314   3.722   0.552
 1647SOL    HW2 5394   1.197   3.708   0.647
 1648SOL     OW 5395   0.997   2.408   0.058
 1648SOL    HW1 5396   0.998   2.399  13.863
 1648SOL    HW2 5397   1.090   2.404   0.083
 1649SOL     OW 5398   0.080   2.433   1.390
 1649SOL    HW1 5399   0.170   2.420   1.360
 1649SOL    HW2 5400   0.087   2.503   1.455
 1650SOL     OW 5401   0.567   2.088   1.164
 1650SOL    HW1 5402   0.607   2.012   1.206
 1650SOL    HW2 5403   0.476   2.086   1.194
 1651SOL     OW 5404   0.867   2.321   0.639
 1651SOL    HW1 5405   0.824   2.376   0.574
 1651SOL    HW2 5406   0.888   2.240   0.592
 1652SOL     OW 5407   1.016   1.915   0.751
 1652SOL    HW1 5408   0.957   1.909   0.676
 1652SOL    HW2 5409   0.993   1.839   0.805
 1653SOL     OW 5410   1.437   3.025   0.857
 1653SOL    HW1 5411   1.368   2.958   0.856
 1653SOL    HW2 5412   1.460   3.036   0.765
 1654SOL     OW 5413   1.465   2.467   0.976
 1654SOL    HW1 5414   1.414   2.386   0.979
 1654SOL    HW2 5415   1.525   2.461   1.051
 1655SOL     OW 5416   1.847   2.676   0.379
 1655SOL    HW1 5417   1.901   2.623   0.438
 1655SOL    HW2 5418   1.815   2.613   0.314
 1656SOL     OW 5419   0.494   3.242   0.166
 1656SOL    HW1 5420   0.419   3.218   0.220
 1656SOL    HW2 5421   0.455   3.283   0.089
 1657SOL     OW 5422   1.671   3.125   0.647
 1657SOL    HW1 5423   1.766   3.129   0.660
 1657SOL    HW2 5424   1.640   3.215   0.663
 1658SOL     OW 5425   1.420   2.445   0.087
 1658SOL    HW1 5426   1.351   2.436   0.152
 1658SOL    HW2 5427   1.464   2.359   0.087
 1659SOL     OW 5428   0.529   2.122   0.324
 1659SOL    HW1 5429   0.580   2.087   0.252
 1659SOL    HW2 5430   0.502   2.209   0.294
 1660SOL     OW 5431   1.752   3.102   1.572
 1660SOL    HW1 5432   1.839   3.062   1.570
 1660SOL    HW2 5433   1.768   3.192   1.600
 1661SOL     OW 5434   1.058   3.214   1.333
 1661SOL    HW1 5435   0.983   3.184   1.384
 1661SOL    HW2 5436   1.134   3.174   1.374
 1662SOL     OW 5437   1.609   3.488   1.655
 1662SOL    HW1 5438   1.602   3.521   1.565
 1662SOL    HW2 5439   1.692   3.440   1.656
 1663SOL     OW 5440   1.129   3.065   1.105
 1663SOL    HW1 5441   1.071   3.104   1.170
 1663SOL    HW2 5442   1.096   3.098   1.021
 1664SOL     OW 5443   1.628   2.960   1.077
 1664SOL    HW1 5444   1.623   3.022   1.150
 1664SOL    HW2 5445   1.549   2.978   1.026
 1665SOL     OW 5446   0.918   1.959   1.396
 1665SOL    HW1 5447   0.941   1.940   1.305
 1665SOL    HW2 5448   0.997   1.998   1.433
 1666SOL     OW 5449   0.984   2.977   1.722
 1666SOL    HW1 5450   0.892   2.993   1.744
 1666SOL    HW2 5451   0.983   2.899   1.667
 1667SOL     OW 5452   0.714   2.921   0.376
 1667SOL    HW1 5453   0.700   2.905   0.469
 1667SOL    HW2 5454   0.789   2.866   0.353
 1668SOL     OW 5455   0.421   2.677   1.252
 1668SOL    HW1 5456   0.489   2.686   1.318
 1668SOL    HW2 5457   0.386   2.589   1.264
 1669SOL     OW 5458   1.266   2.238   1.276
 1669SOL    HW1 5459   1.298   2.316   1.322
 1669SOL    HW2 5460   1.175   2.260   1.253
 1670SOL     OW 5461   0.065   3.441   1.345
 1670SOL    HW1 5462   0.069   3.504   1.273
 1670SOL    HW2 5463   0.156   3.428   1.371
 1671SOL     OW 5464   0.364   2.965   0.482
 1671SOL    HW1 5465   0.360   3.043   0.427
 1671SOL    HW2 5466   0.382   2.894   0.421
 1672SOL     OW 5467   0.552   2.398   0.861
 1672SOL    HW1 5468   0.567   2.455   0.786
 1672SOL    HW2 5469   0.618   2.425   0.925
 1673SOL     OW 5470   1.248   3.208   0.397
 1673SOL    HW1 5471   1.305   3.281   0.423
 1673SOL    HW2 5472   1.161   3.232   0.429
 1674SOL     OW 5473   1.281   3.320   1.147
 1674SOL    HW1 5474   1.337   3.323   1.225
 1674SOL    HW2 5475   1.225   3.244   1.161
 1675SOL     OW 5476   1.580   2.488   0.477
 1675SOL    HW1 5477   1.533   2.537   0.544
 1675SOL    HW2 5478   1.614   2.556   0.418
 1676SOL     OW 5479   0.345   3.388   1.319
 1676SOL    HW1 5480   0.336   3.338   1.237
 1676SOL    HW2 5481   0.440   3.403   1.326
 1677SOL     OW 5482   0.414   2.602   1.601
 1677SOL    HW1 5483   0.476   2.648   1.544
 1677SOL    HW2 5484   0.455   2.517   1.618
 1678SOL     OW 5485   1.599   2.646   1.675
 1678SOL    HW1 5486   1.514   2.689   1.670
 1678SOL    HW2 5487   1.652   2.690   1.608
 1679SOL     OW 5488   0.996   1.986   1.755
 1679SOL    HW1 5489   1.052   2.059   1.728
 1679SOL    HW2 5490   1.044   1.907   1.729
 1680SOL     OW 5491   0.498   1.899   1.745
 1680SOL    HW1 5492   0.454   1.846   1.678
 1680SOL    HW2 5493   0.442   1.976   1.754
 1681SOL     OW 5494   0.584   2.736   1.031
 1681SOL    HW1 5495   0.616   2.826   1.031
 1681SOL    HW2 5496   0.529   2.730   1.109
 1682SOL     OW 5497   1.357   2.720   1.029
 1682SOL    HW1 5498   1.274   2.711   0.983
 1682SOL    HW2 5499   1.398   2.634   1.023
 1683SOL     OW 5500   1.218   2.403   0.274
 1683SOL    HW1 5501   1.221   2.323   0.325
 1683SOL    HW2 5502   1.163   2.463   0.325
 1684SOL     OW 5503   0.311   2.060   1.247
 1684SOL    HW1 5504   0.265   2.097   1.323
 1684SOL    HW2 5505   0.287   1.967   1.248
 1685SOL     OW 5506   0.058   3.167   1.280
 1685SOL    HW1 5507   0.090   3.128   1.361
 1685SOL    HW2 5508   0.051   3.260   1.300
 1686SOL     OW 5509   0.724   2.493   1.057
 1686SOL    HW1 5510   0.799   2.477   1.000
 1686SOL    HW2 5511   0.697   2.582   1.036
 1687SOL     OW 5512   1.734   2.822   1.851
 1687SOL    HW1 5513   1.689   2.758   1.796
 1687SOL    HW2 5514   1.675   2.835   1.925
 1688SOL     OW 5515   0.313   1.925   0.623
 1688SOL    HW1 5516   0.291   2.016   0.645
 1688SOL    HW2 5517   0.316   1.880   0.707
 1689SOL     OW 5518   1.622   2.239   0.382
 1689SOL    HW1 5519   1.617   2.182   0.459
 1689SOL    HW2 5520   1.594   2.325   0.415
 1690SOL     OW 5521   1.028   2.621   0.960
 1690SOL    HW1 5522   1.024   2.638   1.054
 1690SOL    HW2 5523   1.001   2.529   0.952
 1691SOL     OW 5524   0.985   3.429   1.718
 1691SOL    HW1 5525   0.967   3.472   1.634
 1691SOL    HW2 5526   1.027   3.346   1.695
 1692SOL     OW 5527   1.855   3.367   1.605
 1692SOL    HW1 5528   1.873   3.395   1.515
 1692SOL    HW2 5529   1.935   3.386   1.653
 1693SOL     OW 5530   0.352   2.782   1.801
 1693SOL    HW1 5531   0.431   2.803   1.851
 1693SOL    HW2 5532   0.380   2.716   1.738
 1694SOL     OW 5533   1.519   2.158   0.141
 1694SOL    HW1 5534   1.501   2.064   0.150
 1694SOL    HW2 5535   1.565   2.181   0.222
 1695SOL     OW 5536   1.293   2.690   0.055
 1695SOL    HW1 5537   1.340   2.607   0.060
 1695SOL    HW2 5538   1.312   2.724  13.867
 1696SOL     OW 5539   1.066   3.198   0.854
 1696SOL    HW1 5540   1.069   3.125   0.791
 1696SOL    HW2 5541   1.127   3.263   0.819
 1697SOL     OW 5542   0.314   2.666   0.950
 1697SOL    HW1 5543   0.408   2.684   0.945
 1697SOL    HW2 5544   0.309   2.576   0.983
 1698SOL     OW 5545   0.331   2.382   1.013
 1698SOL    HW1 5546   0.297   2.294   0.997
 1698SOL    HW2 5547   0.407   2.390   0.956
 1699SOL     OW 5548   1.134   2.237   1.682
 1699SOL    HW1 5549   1.087   2.293   1.745
 1699SOL    HW2 5550   1.222   2.275   1.679
 1700SOL     OW 5551   1.161   2.065   1.470
 1700SOL    HW1 5552   1.150   2.127   1.542
 1700SOL    HW2 5553   1.200   2.116   1.399
 1701SOL     OW 5554   0.010   3.188   0.187
 1701SOL    HW1 5555   3.916   3.203   0.184
 1701SOL    HW2 5556   0.019   3.098   0.217
 1702SOL     OW 5557   0.075   3.663   0.895
 1702SOL    HW1 5558   0.087   3.568   0.895
 1702SOL    HW2 5559   0.164   3.699   0.892
 1703SOL     OW 5560   0.507   3.427   0.915
 1703SOL    HW1 5561   0.574   3.493   0.936
 1703SOL    HW2 5562   0.551   3.368   0.854
 1704SOL     OW 5563   0.982   2.654   1.226
 1704SOL    HW1 5564   1.039   2.631   1.300
 1704SOL    HW2 5565   0.897   2.617   1.249
 1705SOL     OW 5566   0.038   2.417   1.110
 1705SOL    HW1 5567   0.120   2.393   1.068
 1705SOL    HW2 5568   0.057   2.415   1.203
 1706SOL     OW 5569   0.206   2.376   1.727
 1706SOL    HW1 5570   0.248   2.331   1.654
 1706SOL    HW2 5571   0.157   2.447   1.687
 1707SOL     OW 5572   1.374   2.802   1.657
 1707SOL    HW1 5573   1.397   2.895   1.655
 1707SOL    HW2 5574   1.371   2.776   1.565
 1708SOL     OW 5575   0.814   2.438   0.371
 1708SOL    HW1 5576   0.826   2.363   0.312
 1708SOL    HW2 5577   0.743   2.488   0.332
 1709SOL     OW 5578   1.642   2.465   1.184
 1709SOL    HW1 5579   1.632   2.410   1.262
 1709SOL    HW2 5580   1.729   2.441   1.150
 1710SOL     OW 5581   0.298   3.408   1.729
 1710SOL    HW1 5582   0.248   3.478   1.772
 1710SOL    HW2 5583   0.264   3.328   1.768
 1711SOL     OW 5584   0.702   2.313   1.259
 1711SOL    HW1 5585   0.651   2.238   1.229
 1711SOL    HW2 5586   0.698   2.376   1.187
 1712SOL     OW 5587   0.930   3.535   1.468
 1712SOL    HW1 5588   0.902   3.499   1.383
 1712SOL    HW2 5589   0.922   3.630   1.457
 1713SOL     OW 5590   0.437   2.357   0.235
 1713SOL    HW1 5591   0.509   2.420   0.241
 1713SOL    HW2 5592   0.364   2.407   0.199
 1714SOL     OW 5593   0.157   2.998   1.474
 1714SOL    HW1 5594   0.159   2.946   1.555
 1714SOL    HW2 5595   0.171   2.934   1.405
 1715SOL     OW 5596   1.326   2.909   1.222
 1715SOL    HW1 5597   1.349   2.845   1.155
 1715SOL    HW2 5598   1.256   2.961   1.184
 1716SOL     OW 5599   1.311   2.720   0.326
 1716SOL    HW1 5600   1.236   2.685   0.373
 1716SOL    HW2 5601   1.290   2.706   0.233
 1717SOL     OW 5602   1.770   3.605   1.149
 1717SOL    HW1 5603   1.832   3.633   1.082
 1717SOL    HW2 5604   1.748   3.515   1.127
 1718SOL     OW 5605   1.243   3.596   1.112
 1718SOL    HW1 5606   1.326   3.616   1.067
 1718SOL    HW2 5607   1.248   3.502   1.131
 1719SOL     OW 5608   0.075   3.076   1.028
 1719SOL    HW1 5609   0.083   3.104   1.119
 1719SOL    HW2 5610   3.983   3.086   1.007
 1720SOL     OW 5611   0.679   3.526   1.729
 1720SOL    HW1 5612   0.622   3.603   1.733
 1720SOL    HW2 5613   0.738   3.543   1.656
 1721SOL     OW 5614   0.922   1.968   0.132
 1721SOL    HW1 5615   0.958   1.958   0.043
 1721SOL    HW2 5616   0.971   1.905   0.185
 1722SOL     OW 5617   1.389   3.434   0.484
 1722SOL    HW1 5618   1.452   3.468   0.420
 1722SOL    HW2 5619   1.342   3.511   0.516
 1723SOL     OW 5620   0.168   3.626   1.831
 1723SOL    HW1 5621   0.112   3.574   1.889
 1723SOL    HW2 5622   0.215   3.685   1.889
 1724SOL     OW 5623   1.277   2.787   0.671
 1724SOL    HW1 5624   1.351   2.726   0.678
 1724SOL    HW2 5625   1.310   2.860   0.619
 1725SOL     OW 5626   0.814   3.135   1.430
 1725SOL    HW1 5627   0.785   3.175   1.513
 1725SOL    HW2 5628   0.744   3.156   1.368
 1726SOL     OW 5629   0.675   3.446   0.186
 1726SOL    HW1 5630   0.660   3.486   0.101
 1726SOL    HW2 5631   0.628   3.363   0.183
 1727SOL     OW 5632   1.625   3.588   1.390
 1727SOL    HW1 5633   1.676   3.594   1.309
 1727SOL    HW2 5634   1.612   3.679   1.417
 1728SOL     OW 5635   0.267   2.175   0.718
 1728SOL    HW1 5636   0.181   2.210   0.693
 1728SOL    HW2 5637   0.261   2.165   0.813
 1729SOL     OW 5638   1.220   3.462   0.033
 1729SOL    HW1 5639   1.209   3.372   0.061
 1729SOL    HW2 5640   1.178   3.466  13.847
 1730SOL     OW 5641   0.823   2.868   1.372
 1730SOL    HW1 5642   0.868   2.864   1.288
 1730SOL    HW2 5643   0.823   2.961   1.395
 1731SOL     OW 5644   0.921   2.773   0.288
 1731SOL    HW1 5645   0.991   2.811   0.235
 1731SOL    HW2 5646   0.964   2.701   0.336
 1732SOL     OW 5647   1.487   3.502   0.066
 1732SOL    HW1 5648   1.394   3.484   0.054
 1732SOL    HW2 5649   1.523   3.499  13.878
 1733SOL     OW 5650   0.374   3.165   1.491
 1733SOL    HW1 5651   0.359   3.245   1.441
 1733SOL    HW2 5652   0.296   3.111   1.474
 1734SOL     OW 5653   1.611   3.145   1.281
 1734SOL    HW1 5654   1.671   3.134   1.355
 1734SOL    HW2 5655   1.550   3.214   1.309
 1735SOL     OW 5656   1.052   2.969   0.707
 1735SOL    HW1 5657   0.982   2.917   0.746
 1735SOL    HW2 5658   1.116   2.904   0.676
 1736SOL     OW 5659   1.021   2.102   0.966
 1736SOL    HW1 5660   1.017   2.055   0.883
 1736SOL    HW2 5661   1.016   2.034   1.033
 1737SOL     OW 5662   0.605   3.350   0.482
 1737SOL    HW1 5663   0.649   3.301   0.413
 1737SOL    HW2 5664   0.536   3.398   0.436
 1738SOL     OW 5665   1.723   2.254   1.377
 1738SOL    HW1 5666   1.797   2.315   1.383
 1738SOL    HW2 5667   1.750   2.189   1.313
 1739SOL     OW 5668   0.262   3.180   0.306
 1739SOL    HW1 5669   0.184   3.210   0.258
 1739SOL    HW2 5670   0.260   3.229   0.388
 1740SOL     OW 5671   0.106   2.860   1.717
 1740SOL    HW1 5672   0.045   2.852   1.791
 1740SOL    HW2 5673   0.192   2.841   1.755
 1741SOL     OW 5674   0.674   2.058   1.499
 1741SOL    HW1 5675   0.758   2.038   1.458
 1741SOL    HW2 5676   0.697   2.089   1.587
 1742SOL     OW 5677   0.052   2.221   0.039
 1742SOL    HW1 5678   3.959   2.220   0.064
 1742SOL    HW2 5679   0.050   2.239  13.845
 1743SOL     OW 5680   1.429   2.721   1.400
 1743SOL    HW1 5681   1.381   2.782   1.344
 1743SOL    HW2 5682   1.519   2.723   1.366
 1744SOL     OW 5683   0.055   2.035   0.314
 1744SOL    HW1 5684   0.078   2.103   0.251
 1744SOL    HW2 5685   0.119   1.966   0.299
 1745SOL     OW 5686   1.185   3.210   0.123
 1745SOL    HW1 5687   1.092   3.194   0.112
 1745SOL    HW2 5688   1.201   3.196   0.216
 1746SOL     OW 5689   0.619   2.692   1.435
 1746SOL    HW1 5690   0.675   2.769   1.420
 1746SOL    HW2 5691   0.680   2.619   1.443
 1747SOL     OW 5692   1.485   3.640   0.980
 1747SOL    HW1 5693   1.509   3.694   0.905
 1747SOL    HW2 5694   1.569   3.619   1.022
 1748SOL     OW 5695   0.716   2.426   1.705
 1748SOL    HW1 5696   0.759   2.489   1.763
 1748SOL    HW2 5697   0.745   2.340   1.737
 1749SOL     OW 5698   1.472   3.062   1.632
 1749SOL    HW1 5699   1.460   3.075   1.726
 1749SOL    HW2 5700   1.565   3.077   1.617
 1750SOL     OW 5701   0.379   3.606   1.559
 1750SOL    HW1 5702   0.291   3.641   1.545
 1750SOL    HW2 5703   0.364   3.523   1.606
 1751SOL     OW 5704   1.670   2.744   1.254
 1751SOL    HW1 5705   1.662   2.658   1.211
 1751SOL    HW2 5706   1.659   2.807   1.183
 1752SOL     OW 5707   1.217   2.182   0.456
 1752SOL    HW1 5708   1.282   2.112   0.449
 1752SOL    HW2 5709   1.244   2.231   0.533
 1753SOL     OW 5710   0.589   2.600   0.671
 1753SOL    HW1 5711   0.628   2.686   0.655
 1753SOL    HW2 5712   0.522   2.591   0.604
 1754SOL     OW 5713   1.757   2.238   1.656
 1754SOL    HW1 5714   1.748   2.244   1.561
 1754SOL    HW2 5715   1.686   2.179   1.682
 1755SOL     OW 5716   1.747   2.799   1.510
 1755SOL    HW1 5717   1.742   2.893   1.523
 1755SOL    HW2 5718   1.731   2.787   1.416
 1756SOL     OW 5719   0.905   3.260   0.060
 1756SOL    HW1 5720   0.836   3.243   0.124
 1756SOL    HW2 5721   0.860   3.270  13.877
 1757SOL     OW 5722   0.659   3.652   0.939
 1757SOL    HW1 5723   0.636   3.743   0.919
 1757SOL    HW2 5724   0.754   3.650   0.936
 1758SOL     OW 5725   0.867   2.828   0.854
 1758SOL    HW1 5726   0.918   2.757   0.894
 1758SOL    HW2 5727   0.833   2.878   0.929
 1759SOL     OW 5728   1.098   2.870   0.108
 1759SOL    HW1 5729   1.088   2.917   0.025
 1759SOL    HW2 5730   1.173   2.811   0.093
 1760SOL     OW 5731   1.854   3.414   0.843
 1760SOL    HW1 5732   1.775   3.405   0.789
 1760SOL    HW2 5733   1.841   3.351   0.914
 1761SOL     OW 5734   0.224   3.166   1.856
 1761SOL    HW1 5735   0.152   3.108   1.830
 1761SOL    HW2 5736   0.212   3.179   1.950
 1762SOL     OW 5737   0.105   3.137   0.724
 1762SOL    HW1 5738   0.124   3.088   0.804
 1762SOL    HW2 5739   0.106   3.071   0.654
 1763SOL     OW 5740   0.681   3.265   1.629
 1763SOL    HW1 5741   0.600   3.223   1.658
 1763SOL    HW2 5742   0.677   3.353   1.665
 1764SOL     OW 5743   0.438   2.296   0.536
 1764SOL    HW1 5744   0.463   2.224   0.479
 1764SOL    HW2 5745   0.384   2.256   0.603
 1765SOL     OW 5746   1.701   3.350   1.094
 1765SOL    HW1 5747   1.619   3.327   1.050
 1765SOL    HW2 5748   1.712   3.282   1.161
 1766SOL     OW 5749   0.332   2.417   1.291
 1766SOL    HW1 5750   0.388   2.361   1.346
 1766SOL    HW2 5751   0.349   2.387   1.202
 1767SOL     OW 5752   0.827   3.441   0.677
 1767SOL    HW1 5753   0.816   3.493   0.598
 1767SOL    HW2 5754   0.751   3.383   0.679
 1768SOL     OW 5755   1.438   2.090   1.119
 1768SOL    HW1 5756   1.451   2.004   1.158
 1768SOL    HW2 5757   1.382   2.137   1.182
 1769SOL     OW 5758   1.009   1.880   1.142
 1769SOL    HW1 5759   0.955   1.812   1.102
 1769SOL    HW2 5760   1.097   1.843   1.144
 1770SOL     OW 5761   0.775   3.185   0.319
 1770SOL    HW1 5762   0.743   3.096   0.334
 1770SOL    HW2 5763   0.858   3.189   0.366
 1771SOL     OW 5764   0.620   3.417   1.285
 1771SOL    HW1 5765   0.622   3.498   1.335
 1771SOL    HW2 5766   0.708   3.410   1.247
 1772SOL     OW 5767   1.346   1.922   0.165
 1772SOL    HW1 5768   1.376   1.870   0.090
 1772SOL    HW2 5769   1.263   1.882   0.190
 1773SOL     OW 5770   1.297   2.323   0.680
 1773SOL    HW1 5771   1.244   2.402   0.687
 1773SOL    HW2 5772   1.293   2.283   0.767
 1774SOL     OW 5773   1.573   2.056   0.870
 1774SOL    HW1 5774   1.535   2.081   0.954
 1774SOL    HW2 5775   1.588   2.140   0.825
 1775SOL     OW 5776   0.041   2.897   0.253
 1775SOL    HW1 5777   0.136   2.883   0.249
 1775SOL    HW2 5778   0.009   2.825   0.307
 1776SOL     OW 5779   0.891   3.517   0.346
 1776SOL    HW1 5780   0.818   3.487   0.292
 1776SOL    HW2 5781   0.857   3.594   0.392
 1777SOL     OW 5782   0.231   2.484   1.982
 1777SOL    HW1 5783   0.138   2.493   2.003
 1777SOL    HW2 5784   0.233   2.454   1.891
 1778SOL     OW 5785   0.229   2.133   2.849
 1778SOL    HW1 5786   0.249   2.101   2.936
 1778SOL    HW2 5787   0.134   2.125   2.842
 1779SOL     OW 5788   0.011   2.224   2.493
 1779SOL    HW1 5789   3.924   2.241   2.529
 1779SOL    HW2 5790   3.995   2.189   2.406
 1780SOL     OW 5791   0.577   3.147   3.047
 1780SOL    HW1 5792   0.491   3.151   3.006
 1780SOL    HW2 5793   0.593   3.235   3.081
 1781SOL     OW 5794   1.561   3.373   2.569
 1781SOL    HW1 5795   1.519   3.352   2.653
 1781SOL    HW2 5796   1.489   3.376   2.506
 1782SOL     OW 5797   1.130   2.560   2.562
 1782SOL    HW1 5798   1.180   2.641   2.548
 1782SOL    HW2 5799   1.084   2.574   2.645
 1783SOL     OW 5800   1.751   2.476   2.095
 1783SOL    HW1 5801   1.738   2.471   2.000
 1783SOL    HW2 5802   1.750   2.385   2.125
 1784SOL     OW 5803   0.756   3.003   2.902
 1784SOL    HW1 5804   0.690   3.037   2.962
 1784SOL    HW2 5805   0.791   3.080   2.857
 1785SOL     OW 5806   0.866   2.636   3.684
 1785SOL    HW1 5807   0.857   2.707   3.747
 1785SOL    HW2 5808   0.890   2.679   3.602
 1786SOL     OW 5809   0.686   2.865   2.509
 1786SOL    HW1 5810   0.751   2.853   2.578
 1786SOL    HW2 5811   0.616   2.917   2.551
 1787SOL     OW 5812   0.710   3.012   3.675
 1787SOL    HW1 5813   0.758   3.090   3.702
 1787SOL    HW2 5814   0.628   3.045   3.639
 1788SOL     OW 5815   0.351   3.264   2.940
 1788SOL    HW1 5816   0.268   3.250   2.894
 1788SOL    HW2 5817   0.400   3.323   2.883
 1789SOL     OW 5818   1.461   3.362   3.216
 1789SOL    HW1 5819   1.512   3.442   3.226
 1789SOL    HW2 5820   1.397   3.364   3.288
 1790SOL     OW 5821   0.450   2.262   3.352
 1790SOL    HW1 5822   0.525   2.202   3.354
 1790SOL    HW2 5823   0.374   2.206   3.364
 1791SOL     OW 5824   1.609   2.306   2.598
 1791SOL    HW1 5825   1.530   2.331   2.549
 1791SOL    HW2 5826   1.629   2.382   2.651
 1792SOL     OW 5827   0.225   3.571   2.328
 1792SOL    HW1 5828   0.228   3.652   2.379
 1792SOL    HW2 5829   0.301   3.575   2.271
 1793SOL     OW 5830   1.137   3.203   3.555
 1793SOL    HW1 5831   1.177   3.198   3.641
 1793SOL    HW2 5832   1.084   3.124   3.548
 1794SOL     OW 5833   0.247   3.305   2.402
 1794SOL    HW1 5834   0.220   3.396   2.388
 1794SOL    HW2 5835   0.178   3.267   2.455
 1795SOL     OW 5836   0.246   2.930   2.746
 1795SOL    HW1 5837   0.265   2.846   2.787
 1795SOL    HW2 5838   0.194   2.978   2.811
 1796SOL     OW 5839   0.612   3.649   3.291
 1796SOL    HW1 5840   0.530   3.634   3.337
 1796SOL    HW2 5841   0.638   3.737   3.315
 1797SOL     OW 5842   0.580   2.846   1.998
 1797SOL    HW1 5843   0.627   2.892   1.929
 1797SOL    HW2 5844   0.622   2.875   2.079
 1798SOL     OW 5845   1.597   1.990   3.328
 1798SOL    HW1 5846   1.584   2.074   3.283
 1798SOL    HW2 5847   1.588   2.011   3.421
 1799SOL     OW 5848   0.141   2.512   2.436
 1799SOL    HW1 5849   0.086   2.433   2.436
 1799SOL    HW2 5850   0.105   2.566   2.505
 1800SOL     OW 5851   1.842   3.613   2.200
 1800SOL    HW1 5852   1.908   3.588   2.264
 1800SOL    HW2 5853   1.864   3.703   2.176
 1801SOL     OW 5854   0.041   3.454   2.002
 1801SOL    HW1 5855   0.032   3.362   2.025
 1801SOL    HW2 5856   3.961   3.495   2.036
 1802SOL     OW 5857   1.690   2.781   2.503
 1802SOL    HW1 5858   1.771   2.737   2.480
 1802SOL    HW2 5859   1.666   2.831   2.425
 1803SOL     OW 5860   1.646   2.968   2.291
 1803SOL    HW1 5861   1.732   2.973   2.249
 1803SOL    HW2 5862   1.652   3.030   2.364
 1804SOL     OW 5863   0.136   2.614   3.452
 1804SOL    HW1 5864   0.231   2.608   3.452
 1804SOL    HW2 5865   0.117   2.705   3.476
 1805SOL     OW 5866   0.614   3.247   2.596
 1805SOL    HW1 5867   0.567   3.164   2.606
 1805SOL    HW2 5868   0.597   3.274   2.506
 1806SOL     OW 5869   1.288   3.100   3.285
 1806SOL    HW1 5870   1.321   3.032   3.225
 1806SOL    HW2 5871   1.346   3.094   3.361
 1807SOL     OW 5872   0.817   1.861   2.371
 1807SOL    HW1 5873   0.857   1.946   2.352
 1807SOL    HW2 5874   0.723   1.880   2.378
 1808SOL     OW 5875   0.185   2.814   3.139
 1808SOL    HW1 5876   0.273   2.779   3.126
 1808SOL    HW2 5877   0.132   2.773   3.072
 1809SOL     OW 5878   1.531   2.857   2.060
 1809SOL    HW1 5879   1.462   2.798   2.092
 1809SOL    HW2 5880   1.572   2.890   2.140
 1810SOL     OW 5881   1.213   3.664   3.488
 1810SOL    HW1 5882   1.194   3.725   3.416
 1810SOL    HW2 5883   1.215   3.578   3.447
 1811SOL     OW 5884   0.339   2.109   3.676
 1811SOL    HW1 5885   0.378   2.196   3.683
 1811SOL    HW2 5886   0.248   2.122   3.701
 1812SOL     OW 5887   1.466   3.282   2.813
 1812SOL    HW1 5888   1.398   3.297   2.879
 1812SOL    HW2 5889   1.454   3.191   2.786
 1813SOL     OW 5890   1.655   3.600   2.442
 1813SOL    HW1 5891   1.641   3.570   2.353
 1813SOL    HW2 5892   1.632   3.525   2.497
 1814SOL     OW 5893   0.596   2.580   2.126
 1814SOL    HW1 5894   0.603   2.664   2.080
 1814SOL    HW2 5895   0.533   2.597   2.196
 1815SOL     OW 5896   1.279   2.218   2.796
 1815SOL    HW1 5897   1.191   2.182   2.805
 1815SOL    HW2 5898   1.333   2.162   2.852
 1816SOL     OW 5899   1.578   3.536   2.170
 1816SOL    HW1 5900   1.670   3.562   2.165
 1816SOL    HW2 5901   1.553   3.516   2.080
 1817SOL     OW 5902   0.791   2.480   3.314
 1817SOL    HW1 5903   0.765   2.456   3.402
 1817SOL    HW2 5904   0.752   2.413   3.258
 1818SOL     OW 5905   1.393   2.335   3.539
 1818SOL    HW1 5906   1.395   2.381   3.623
 1818SOL    HW2 5907   1.458   2.265   3.549
 1819SOL     OW 5908   0.954   2.749   3.445
 1819SOL    HW1 5909   1.009   2.679   3.409
 1819SOL    HW2 5910   0.906   2.783   3.369
 1820SOL     OW 5911   0.992   2.274   3.100
 1820SOL    HW1 5912   0.907   2.296   3.137
 1820SOL    HW2 5913   0.973   2.229   3.018
 1821SOL     OW 5914   1.051   2.561   2.288
 1821SOL    HW1 5915   1.067   2.553   2.382
 1821SOL    HW2 5916   0.969   2.514   2.274
 1822SOL     OW 5917   0.082   2.688   2.652
 1822SOL    HW1 5918   0.159   2.659   2.701
 1822SOL    HW2 5919   0.095   2.782   2.641
 1823SOL     OW 5920   0.127   3.714   3.437
 1823SOL    HW1 5921   0.134   3.683   3.527
 1823SOL    HW2 5922   0.035   3.702   3.415
 1824SOL     OW 5923   0.893   2.211   2.054
 1824SOL    HW1 5924   0.935   2.273   1.995
 1824SOL    HW2 5925   0.913   2.125   2.017
 1825SOL     OW 5926   1.676   2.446   3.695
 1825SOL    HW1 5927   1.651   2.517   3.635
 1825SOL    HW2 5928   1.724   2.384   3.640
 1826SOL     OW 5929   1.377   3.004   2.403
 1826SOL    HW1 5930   1.456   2.991   2.350
 1826SOL    HW2 5931   1.324   3.066   2.352
 1827SOL     OW 5932   0.545   2.041   2.755
 1827SOL    HW1 5933   0.552   2.073   2.845
 1827SOL    HW2 5934   0.547   2.121   2.702
 1828SOL     OW 5935   1.006   3.307   2.334
 1828SOL    HW1 5936   0.967   3.380   2.285
 1828SOL    HW2 5937   0.988   3.327   2.426
 1829SOL     OW 5938   0.359   3.669   2.721
 1829SOL    HW1 5939   0.435   3.613   2.732
 1829SOL    HW2 5940   0.393   3.758   2.730
 1830SOL     OW 5941   1.799   2.918   2.730
 1830SOL    HW1 5942   1.745   2.900   2.653
 1830SOL    HW2 5943   1.737   2.924   2.802
 1831SOL     OW 5944   1.228   3.399   3.373
 1831SOL    HW1 5945   1.214   3.327   3.435
 1831SOL    HW2 5946   1.162   3.386   3.305
 1832SOL     OW 5947   0.311   2.817   2.104
 1832SOL    HW1 5948   0.395   2.840   2.065
 1832SOL    HW2 5949   0.297   2.726   2.079
 1833SOL     OW 5950   1.478   2.606   2.589
 1833SOL    HW1 5951   1.471   2.562   2.674
 1833SOL    HW2 5952   1.557   2.660   2.597
 1834SOL     OW 5953   0.466   3.121   3.599
 1834SOL    HW1 5954   0.440   3.130   3.507
 1834SOL    HW2 5955   0.384   3.127   3.648
 1835SOL     OW 5956   1.113   3.642   2.085
 1835SOL    HW1 5957   1.050   3.595   2.140
 1835SOL    HW2 5958   1.143   3.578   2.021
 1836SOL     OW 5959   0.204   2.140   3.369
 1836SOL    HW1 5960   0.114   2.171   3.360
 1836SOL    HW2 5961   0.195   2.055   3.413
 1837SOL     OW 5962   1.628   3.242   1.951
 1837SOL    HW1 5963   1.587   3.327   1.934
 1837SOL    HW2 5964   1.559   3.179   1.931
 1838SOL     OW 5965   0.469   3.600   2.183
 1838SOL    HW1 5966   0.506   3.663   2.244
 1838SOL    HW2 5967   0.542   3.573   2.128
 1839SOL     OW 5968   1.397   1.968   2.293
 1839SOL    HW1 5969   1.381   1.946   2.201
 1839SOL    HW2 5970   1.491   1.958   2.304
 1840SOL     OW 5971   0.251   3.656   3.091
 1840SOL    HW1 5972   0.298   3.592   3.144
 1840SOL    HW2 5973   0.248   3.617   3.003
 1841SOL     OW 5974   0.937   3.561   2.763
 1841SOL    HW1 5975   1.015   3.509   2.784
 1841SOL    HW2 5976   0.893   3.512   2.694
 1842SOL     OW 5977   0.397   2.555   2.334
 1842SOL    HW1 5978   0.423   2.465   2.348
 1842SOL    HW2 5979   0.305   2.558   2.361
 1843SOL     OW 5980   1.537   2.086   3.587
 1843SOL    HW1 5981   1.548   2.107   3.680
 1843SOL    HW2 5982   1.466   2.022   3.585
 1844SOL     OW 5983   0.636   1.982   1.962
 1844SOL    HW1 5984   0.703   1.916   1.979
 1844SOL    HW2 5985   0.589   1.950   1.885
 1845SOL     OW 5986   0.766   2.139   3.616
 1845SOL    HW1 5987   0.843   2.082   3.617
 1845SOL    HW2 5988   0.719   2.118   3.696
 1846SOL     OW 5989   0.876   3.382   3.056
 1846SOL    HW1 5990   0.860   3.347   2.969
 1846SOL    HW2 5991   0.946   3.328   3.092
 1847SOL     OW 5992   1.341   2.451   3.294
 1847SOL    HW1 5993   1.371   2.419   3.379
 1847SOL    HW2 5994   1.377   2.539   3.287
 1848SOL     OW 5995   0.815   3.256   2.801
 1848SOL    HW1 5996   0.900   3.245   2.758
 1848SOL    HW2 5997   0.752   3.257   2.729
 1849SOL     OW 5998   0.928   2.371   2.765
 1849SOL    HW1 5999   0.905   2.363   2.673
 1849SOL    HW2 6000   0.960   2.284   2.789
 1850SOL     OW 6001   0.554   1.924   2.360
 1850SOL    HW1 6002   0.472   1.929   2.409
 1850SOL    HW2 6003   0.558   2.007   2.311
 1851SOL     OW 6004   1.428   3.061   1.903
 1851SOL    HW1 6005   1.459   2.985   1.952
 1851SOL    HW2 6006   1.342   3.081   1.940
 1852SOL     OW 6007   0.307   1.913   2.032
 1852SOL    HW1 6008   0.372   1.952   1.974
 1852SOL    HW2 6009   0.355   1.847   2.082
 1853SOL     OW 6010   0.939   2.108   2.323
 1853SOL    HW1 6011   0.908   2.149   2.242
 1853SOL    HW2 6012   1.033   2.124   2.325
 1854SOL     OW 6013   1.080   2.543   3.321
 1854SOL    HW1 6014   1.012   2.476   3.327
 1854SOL    HW2 6015   1.162   2.493   3.315
 1855SOL     OW 6016   1.223   3.432   2.655
 1855SOL    HW1 6017   1.239   3.500   2.590
 1855SOL    HW2 6018   1.291   3.445   2.721
 1856SOL     OW 6019   0.466   3.012   2.599
 1856SOL    HW1 6020   0.394   2.989   2.658
 1856SOL    HW2 6021   0.432   2.996   2.511
 1857SOL     OW 6022   1.268   3.658   2.468
 1857SOL    HW1 6023   1.314   3.722   2.414
 1857SOL    HW2 6024   1.197   3.707   2.510
 1858SOL     OW 6025   1.024   2.403   1.885
 1858SOL    HW1 6026   0.982   2.487   1.866
 1858SOL    HW2 6027   1.090   2.424   1.950
 1859SOL     OW 6028   0.081   2.433   3.252
 1859SOL    HW1 6029   0.170   2.420   3.222
 1859SOL    HW2 6030   0.088   2.503   3.317
 1860SOL     OW 6031   0.567   2.089   3.026
 1860SOL    HW1 6032   0.607   2.012   3.067
 1860SOL    HW2 6033   0.476   2.086   3.056
 1861SOL     OW 6034   0.868   2.321   2.502
 1861SOL    HW1 6035   0.820   2.374   2.439
 1861SOL    HW2 6036   0.888   2.240   2.455
 1862SOL     OW 6037   1.016   1.915   2.614
 1862SOL    HW1 6038   0.958   1.909   2.538
 1862SOL    HW2 6039   0.993   1.839   2.668
 1863SOL     OW 6040   1.437   3.025   2.719
 1863SOL    HW1 6041   1.368   2.958   2.718
 1863SOL    HW2 6042   1.461   3.035   2.627
 1864SOL     OW 6043   1.465   2.467   2.838
 1864SOL    HW1 6044   1.414   2.386   2.841
 1864SOL    HW2 6045   1.525   2.461   2.913
 1865SOL     OW 6046   1.846   2.680   2.246
 1865SOL    HW1 6047   1.903   2.628   2.301
 1865SOL    HW2 6048   1.813   2.619   2.180
 1866SOL     OW 6049   0.489   3.279   2.022
 1866SOL    HW1 6050   0.413   3.249   2.073
 1866SOL    HW2 6051   0.468   3.255   1.932
 1867SOL     OW 6052   1.671   3.126   2.508
 1867SOL    HW1 6053   1.766   3.129   2.521
 1867SOL    HW2 6054   1.641   3.215   2.529
 1868SOL     OW 6055   1.392   2.436   1.930
 1868SOL    HW1 6056   1.338   2.413   2.006
 1868SOL    HW2 6057   1.481   2.416   1.957
 1869SOL     OW 6058   0.573   2.131   2.184
 1869SOL    HW1 6059   0.600   2.082   2.106
 1869SOL    HW2 6060   0.541   2.214   2.150
 1870SOL     OW 6061   1.752   3.102   3.434
 1870SOL    HW1 6062   1.839   3.062   3.432
 1870SOL    HW2 6063   1.768   3.192   3.462
 1871SOL     OW 6064   1.058   3.215   3.195
 1871SOL    HW1 6065   0.983   3.184   3.246
 1871SOL    HW2 6066   1.134   3.174   3.236
 1872SOL     OW 6067   1.609   3.488   3.517
 1872SOL    HW1 6068   1.602   3.521   3.427
 1872SOL    HW2 6069   1.692   3.440   3.518
 1873SOL     OW 6070   1.129   3.066   2.967
 1873SOL    HW1 6071   1.071   3.103   3.032
 1873SOL    HW2 6072   1.096   3.098   2.883
 1874SOL     OW 6073   1.628   2.960   2.939
 1874SOL    HW1 6074   1.623   3.022   3.012
 1874SOL    HW2 6075   1.549   2.977   2.888
 1875SOL     OW 6076   0.918   1.959   3.258
 1875SOL    HW1 6077   0.941   1.940   3.167
 1875SOL    HW2 6078   0.997   1.998   3.295
 1876SOL     OW 6079   0.984   2.977   3.584
 1876SOL    HW1 6080   0.892   2.993   3.606
 1876SOL    HW2 6081   0.983   2.899   3.529
 1877SOL     OW 6082   0.707   2.922   2.233
 1877SOL    HW1 6083   0.694   2.907   2.326
 1877SOL    HW2 6084   0.784   2.869   2.210
 1878SOL     OW 6085   0.421   2.677   3.114
 1878SOL    HW1 6086   0.489   2.685   3.180
 1878SOL    HW2 6087   0.386   2.589   3.126
 1879SOL     OW 6088   1.266   2.238   3.138
 1879SOL    HW1 6089   1.298   2.316   3.184
 1879SOL    HW2 6090   1.176   2.260   3.114
 1880SOL     OW 6091   0.065   3.441   3.207
 1880SOL    HW1 6092   0.069   3.505   3.136
 1880SOL    HW2 6093   0.156   3.428   3.233
 1881SOL     OW 6094   0.373   2.964   2.347
 1881SOL    HW1 6095   0.367   3.043   2.293
 1881SOL    HW2 6096   0.372   2.892   2.283
 1882SOL     OW 6097   0.551   2.399   2.724
 1882SOL    HW1 6098   0.567   2.456   2.648
 1882SOL    HW2 6099   0.618   2.426   2.787
 1883SOL     OW 6100   1.248   3.210   2.251
 1883SOL    HW1 6101   1.304   3.282   2.282
 1883SOL    HW2 6102   1.161   3.232   2.285
 1884SOL     OW 6103   1.281   3.320   3.009
 1884SOL    HW1 6104   1.337   3.323   3.087
 1884SOL    HW2 6105   1.226   3.243   3.022
 1885SOL     OW 6106   1.578   2.483   2.338
 1885SOL    HW1 6107   1.535   2.542   2.401
 1885SOL    HW2 6108   1.624   2.541   2.278
 1886SOL     OW 6109   0.345   3.388   3.181
 1886SOL    HW1 6110   0.336   3.338   3.100
 1886SOL    HW2 6111   0.439   3.404   3.188
 1887SOL     OW 6112   0.414   2.602   3.463
 1887SOL    HW1 6113   0.476   2.648   3.406
 1887SOL    HW2 6114   0.455   2.517   3.480
 1888SOL     OW 6115   1.599   2.647   3.537
 1888SOL    HW1 6116   1.514   2.689   3.531
 1888SOL    HW2 6117   1.652   2.690   3.470
 1889SOL     OW 6118   0.996   1.986   3.617
 1889SOL    HW1 6119   1.052   2.059   3.590
 1889SOL    HW2 6120   1.044   1.907   3.591
 1890SOL     OW 6121   0.498   1.899   3.607
 1890SOL    HW1 6122   0.454   1.846   3.540
 1890SOL    HW2 6123   0.442   1.976   3.616
 1891SOL     OW 6124   0.584   2.735   2.893
 1891SOL    HW1 6125   0.616   2.826   2.893
 1891SOL    HW2 6126   0.529   2.730   2.971
 1892SOL     OW 6127   1.357   2.720   2.891
 1892SOL    HW1 6128   1.274   2.711   2.845
 1892SOL    HW2 6129   1.398   2.634   2.885
 1893SOL     OW 6130   1.205   2.390   2.129
 1893SOL    HW1 6131   1.212   2.312   2.184
 1893SOL    HW2 6132   1.162   2.455   2.185
 1894SOL     OW 6133   0.311   2.060   3.109
 1894SOL    HW1 6134   0.265   2.097   3.184
 1894SOL    HW2 6135   0.286   1.967   3.110
 1895SOL     OW 6136   0.058   3.167   3.142
 1895SOL    HW1 6137   0.090   3.127   3.223
 1895SOL    HW2 6138   0.051   3.260   3.162
 1896SOL     OW 6139   0.725   2.493   2.920
 1896SOL    HW1 6140   0.799   2.477   2.862
 1896SOL    HW2 6141   0.697   2.582   2.898
 1897SOL     OW 6142   1.734   2.822   3.713
 1897SOL    HW1 6143   1.689   2.758   3.658
 1897SOL    HW2 6144   1.675   2.835   3.787
 1898SOL     OW 6145   0.312   1.925   2.483
 1898SOL    HW1 6146   0.292   2.016   2.504
 1898SOL    HW2 6147   0.317   1.881   2.568
 1899SOL     OW 6148   1.608   2.233   2.237
 1899SOL    HW1 6149   1.621   2.184   2.318
 1899SOL    HW2 6150   1.588   2.322   2.265
 1900SOL     OW 6151   1.028   2.621   2.822
 1900SOL    HW1 6152   1.024   2.639   2.916
 1900SOL    HW2 6153   1.002   2.529   2.814
 1901SOL     OW 6154   0.985   3.429   3.580
 1901SOL    HW1 6155   0.967   3.472   3.496
 1901SOL    HW2 6156   1.027   3.346   3.557
 1902SOL     OW 6157   1.855   3.367   3.467
 1902SOL    HW1 6158   1.873   3.394   3.377
 1902SOL    HW2 6159   1.935   3.386   3.515
 1903SOL     OW 6160   0.352   2.782   3.663
 1903SOL    HW1 6161   0.431   2.803   3.713
 1903SOL    HW2 6162   0.380   2.716   3.600
 1904SOL     OW 6163   1.531   2.131   1.990
 1904SOL    HW1 6164   1.463   2.070   2.018
 1904SOL    HW2 6165   1.562   2.171   2.071
 1905SOL     OW 6166   1.291   2.689   1.893
 1905SOL    HW1 6167   1.333   2.603   1.896
 1905SOL    HW2 6168   1.323   2.728   1.811
 1906SOL     OW 6169   1.065   3.198   2.716
 1906SOL    HW1 6170   1.069   3.125   2.653
 1906SOL    HW2 6171   1.127   3.262   2.681
 1907SOL     OW 6172   0.314   2.666   2.812
 1907SOL    HW1 6173   0.407   2.684   2.806
 1907SOL    HW2 6174   0.309   2.576   2.845
 1908SOL     OW 6175   0.331   2.382   2.876
 1908SOL    HW1 6176   0.297   2.294   2.858
 1908SOL    HW2 6177   0.407   2.390   2.818
 1909SOL     OW 6178   1.134   2.237   3.544
 1909SOL    HW1 6179   1.087   2.293   3.607
 1909SOL    HW2 6180   1.222   2.275   3.541
 1910SOL     OW 6181   1.161   2.065   3.332
 1910SOL    HW1 6182   1.150   2.127   3.404
 1910SOL    HW2 6183   1.200   2.115   3.261
 1911SOL     OW 6184   3.999   3.182   2.044
 1911SOL    HW1 6185   3.905   3.197   2.048
 1911SOL    HW2 6186   0.009   3.088   2.063
 1912SOL     OW 6187   0.075   3.663   2.756
 1912SOL    HW1 6188   0.087   3.568   2.758
 1912SOL    HW2 6189   0.164   3.698   2.753
 1913SOL     OW 6190   0.507   3.427   2.777
 1913SOL    HW1 6191   0.573   3.493   2.798
 1913SOL    HW2 6192   0.550   3.367   2.716
 1914SOL     OW 6193   0.982   2.654   3.088
 1914SOL    HW1 6194   1.039   2.631   3.162
 1914SOL    HW2 6195   0.897   2.616   3.111
 1915SOL     OW 6196   0.037   2.417   2.972
 1915SOL    HW1 6197   0.120   2.393   2.929
 1915SOL    HW2 6198   0.057   2.414   3.065
 1916SOL     OW 6199   0.206   2.376   3.589
 1916SOL    HW1 6200   0.248   2.331   3.516
 1916SOL    HW2 6201   0.157   2.447   3.549
 1917SOL     OW 6202   1.374   2.803   3.519
 1917SOL    HW1 6203   1.397   2.896   3.517
 1917SOL    HW2 6204   1.371   2.776   3.427
 1918SOL     OW 6205   0.817   2.431   2.221
 1918SOL    HW1 6206   0.821   2.355   2.163
 1918SOL    HW2 6207   0.743   2.482   2.189
 1919SOL     OW 6208   1.642   2.465   3.047
 1919SOL    HW1 6209   1.632   2.410   3.124
 1919SOL    HW2 6210   1.729   2.441   3.012
 1920SOL     OW 6211   0.298   3.408   3.591
 1920SOL    HW1 6212   0.248   3.478   3.634
 1920SOL    HW2 6213   0.264   3.328   3.630
 1921SOL     OW 6214   0.702   2.313   3.121
 1921SOL    HW1 6215   0.651   2.238   3.091
 1921SOL    HW2 6216   0.698   2.376   3.049
 1922SOL     OW 6217   0.930   3.535   3.330
 1922SOL    HW1 6218   0.902   3.499   3.245
 1922SOL    HW2 6219   0.922   3.630   3.319
 1923SOL     OW 6220   0.458   2.352   2.055
 1923SOL    HW1 6221   0.523   2.420   2.074
 1923SOL    HW2 6222   0.378   2.400   2.035
 1924SOL     OW 6223   0.157   2.998   3.336
 1924SOL    HW1 6224   0.159   2.947   3.417
 1924SOL    HW2 6225   0.171   2.934   3.266
 1925SOL     OW 6226   1.326   2.909   3.084
 1925SOL    HW1 6227   1.349   2.845   3.017
 1925SOL    HW2 6228   1.256   2.961   3.046
 1926SOL     OW 6229   1.311   2.719   2.168
 1926SOL    HW1 6230   1.235   2.687   2.218
 1926SOL    HW2 6231   1.287   2.705   2.077
 1927SOL     OW 6232   1.769   3.605   3.011
 1927SOL    HW1 6233   1.832   3.633   2.944
 1927SOL    HW2 6234   1.748   3.515   2.989
 1928SOL     OW 6235   1.243   3.595   2.973
 1928SOL    HW1 6236   1.326   3.615   2.929
 1928SOL    HW2 6237   1.248   3.502   2.993
 1929SOL     OW 6238   0.076   3.078   2.889
 1929SOL    HW1 6239   0.082   3.104   2.981
 1929SOL    HW2 6240   3.983   3.086   2.869
 1930SOL     OW 6241   0.679   3.526   3.591
 1930SOL    HW1 6242   0.622   3.603   3.595
 1930SOL    HW2 6243   0.739   3.543   3.518
 1931SOL     OW 6244   1.390   3.431   2.347
 1931SOL    HW1 6245   1.450   3.463   2.280
 1931SOL    HW2 6246   1.343   3.508   2.377
 1932SOL     OW 6247   0.168   3.626   3.693
 1932SOL    HW1 6248   0.112   3.574   3.750
 1932SOL    HW2 6249   0.215   3.685   3.751
 1933SOL     OW 6250   1.277   2.788   2.533
 1933SOL    HW1 6251   1.351   2.727   2.541
 1933SOL    HW2 6252   1.311   2.860   2.480
 1934SOL     OW 6253   0.814   3.135   3.292
 1934SOL    HW1 6254   0.785   3.175   3.374
 1934SOL    HW2 6255   0.743   3.155   3.230
 1935SOL     OW 6256   0.675   3.477   2.019
 1935SOL    HW1 6257   0.682   3.493   1.925
 1935SOL    HW2 6258   0.617   3.401   2.026
 1936SOL     OW 6259   1.625   3.588   3.252
 1936SOL    HW1 6260   1.676   3.594   3.171
 1936SOL    HW2 6261   1.612   3.679   3.279
 1937SOL     OW 6262   0.268   2.176   2.579
 1937SOL    HW1 6263   0.182   2.210   2.553
 1937SOL    HW2 6264   0.262   2.166   2.674
 1938SOL     OW 6265   1.207   3.468   1.897
 1938SOL    HW1 6266   1.197   3.376   1.921
 1938SOL    HW2 6267   1.146   3.480   1.824
 1939SOL     OW 6268   0.823   2.868   3.234
 1939SOL    HW1 6269   0.868   2.863   3.150
 1939SOL    HW2 6270   0.823   2.961   3.257
 1940SOL     OW 6271   0.915   2.772   2.152
 1940SOL    HW1 6272   0.976   2.804   2.086
 1940SOL    HW2 6273   0.964   2.703   2.197
 1941SOL     OW 6274   1.490   3.490   1.904
 1941SOL    HW1 6275   1.396   3.480   1.888
 1941SOL    HW2 6276   1.529   3.495   1.816
 1942SOL     OW 6277   0.373   3.165   3.353
 1942SOL    HW1 6278   0.359   3.245   3.303
 1942SOL    HW2 6279   0.296   3.111   3.336
 1943SOL     OW 6280   1.611   3.145   3.143
 1943SOL    HW1 6281   1.670   3.134   3.216
 1943SOL    HW2 6282   1.550   3.214   3.171
 1944SOL     OW 6283   1.053   2.969   2.569
 1944SOL    HW1 6284   0.982   2.918   2.607
 1944SOL    HW2 6285   1.115   2.904   2.538
 1945SOL     OW 6286   1.021   2.102   2.829
 1945SOL    HW1 6287   1.018   2.055   2.746
 1945SOL    HW2 6288   1.016   2.034   2.895
 1946SOL     OW 6289   0.604   3.352   2.343
 1946SOL    HW1 6290   0.648   3.302   2.274
 1946SOL    HW2 6291   0.534   3.399   2.297
 1947SOL     OW 6292   1.723   2.255   3.239
 1947SOL    HW1 6293   1.797   2.315   3.245
 1947SOL    HW2 6294   1.751   2.188   3.177
 1948SOL     OW 6295   0.253   3.203   2.153
 1948SOL    HW1 6296   0.160   3.213   2.133
 1948SOL    HW2 6297   0.263   3.241   2.240
 1949SOL     OW 6298   0.106   2.861   3.579
 1949SOL    HW1 6299   0.045   2.852   3.653
 1949SOL    HW2 6300   0.192   2.842   3.617
 1950SOL     OW 6301   0.674   2.058   3.361
 1950SOL    HW1 6302   0.758   2.038   3.320
 1950SOL    HW2 6303   0.698   2.089   3.449
 1951SOL     OW 6304   0.080   2.179   1.899
 1951SOL    HW1 6305   3.985   2.179   1.905
 1951SOL    HW2 6306   0.101   2.260   1.852
 1952SOL     OW 6307   1.429   2.721   3.262
 1952SOL    HW1 6308   1.381   2.782   3.206
 1952SOL    HW2 6309   1.519   2.723   3.228
 1953SOL     OW 6310   0.022   2.089   2.234
 1953SOL    HW1 6311   0.045   2.155   2.169
 1953SOL    HW2 6312   0.105   2.053   2.263
 1954SOL     OW 6313   1.178   3.201   1.979
 1954SOL    HW1 6314   1.087   3.172   1.981
 1954SOL    HW2 6315   1.206   3.200   2.070
 1955SOL     OW 6316   0.619   2.692   3.297
 1955SOL    HW1 6317   0.675   2.769   3.282
 1955SOL    HW2 6318   0.680   2.619   3.305
 1956SOL     OW 6319   1.485   3.640   2.842
 1956SOL    HW1 6320   1.510   3.696   2.768
 1956SOL    HW2 6321   1.568   3.619   2.884
 1957SOL     OW 6322   0.716   2.426   3.567
 1957SOL    HW1 6323   0.759   2.489   3.626
 1957SOL    HW2 6324   0.745   2.340   3.599
 1958SOL     OW 6325   1.472   3.062   3.494
 1958SOL    HW1 6326   1.460   3.075   3.588
 1958SOL    HW2 6327   1.565   3.077   3.479
 1959SOL     OW 6328   0.379   3.606   3.421
 1959SOL    HW1 6329   0.291   3.641   3.408
 1959SOL    HW2 6330   0.364   3.523   3.468
 1960SOL     OW 6331   1.670   2.744   3.116
 1960SOL    HW1 6332   1.662   2.658   3.073
 1960SOL    HW2 6333   1.659   2.807   3.045
 1961SOL     OW 6334   1.216   2.182   2.320
 1961SOL    HW1 6335   1.278   2.110   2.312
 1961SOL    HW2 6336   1.245   2.231   2.397
 1962SOL     OW 6337   0.590   2.601   2.533
 1962SOL    HW1 6338   0.629   2.687   2.517
 1962SOL    HW2 6339   0.522   2.592   2.465
 1963SOL     OW 6340   1.757   2.238   3.517
 1963SOL    HW1 6341   1.747   2.245   3.422
 1963SOL    HW2 6342   1.686   2.179   3.544
 1964SOL     OW 6343   1.747   2.799   3.371
 1964SOL    HW1 6344   1.742   2.894   3.384
 1964SOL    HW2 6345   1.731   2.787   3.278
 1965SOL     OW 6346   0.864   3.229   1.898
 1965SOL    HW1 6347   0.823   3.258   1.979
 1965SOL    HW2 6348   0.880   3.310   1.849
 1966SOL     OW 6349   0.658   3.652   2.801
 1966SOL    HW1 6350   0.636   3.743   2.781
 1966SOL    HW2 6351   0.754   3.650   2.798
 1967SOL     OW 6352   0.868   2.828   2.716
 1967SOL    HW1 6353   0.918   2.757   2.756
 1967SOL    HW2 6354   0.833   2.878   2.791
 1968SOL     OW 6355   1.078   2.849   1.950
 1968SOL    HW1 6356   1.057   2.901   1.872
 1968SOL    HW2 6357   1.153   2.797   1.925
 1969SOL     OW 6358   1.853   3.414   2.705
 1969SOL    HW1 6359   1.774   3.403   2.653
 1969SOL    HW2 6360   1.845   3.350   2.775
 1970SOL     OW 6361   0.224   3.166   3.718
 1970SOL    HW1 6362   0.153   3.108   3.692
 1970SOL    HW2 6363   0.212   3.179   3.812
 1971SOL     OW 6364   0.112   3.137   2.580
 1971SOL    HW1 6365   0.127   3.087   2.661
 1971SOL    HW2 6366   0.107   3.070   2.511
 1972SOL     OW 6367   0.681   3.265   3.491
 1972SOL    HW1 6368   0.600   3.223   3.520
 1972SOL    HW2 6369   0.677   3.353   3.527
 1973SOL     OW 6370   0.441   2.296   2.395
 1973SOL    HW1 6371   0.443   2.226   2.329
 1973SOL    HW2 6372   0.386   2.262   2.465
 1974SOL     OW 6373   1.701   3.350   2.957
 1974SOL    HW1 6374   1.619   3.327   2.912
 1974SOL    HW2 6375   1.712   3.282   3.023
 1975SOL     OW 6376   0.332   2.417   3.153
 1975SOL    HW1 6377   0.388   2.361   3.208
 1975SOL    HW2 6378   0.348   2.387   3.064
 1976SOL     OW 6379   0.827   3.441   2.539
 1976SOL    HW1 6380   0.815   3.490   2.458
 1976SOL    HW2 6381   0.751   3.382   2.543
 1977SOL     OW 6382   1.438   2.090   2.981
 1977SOL    HW1 6383   1.450   2.004   3.020
 1977SOL    HW2 6384   1.382   2.137   3.044
 1978SOL     OW 6385   1.009   1.880   3.004
 1978SOL    HW1 6386   0.955   1.812   2.963
 1978SOL    HW2 6387   1.097   1.842   3.006
 1979SOL     OW 6388   0.772   3.194   2.178
 1979SOL    HW1 6389   0.740   3.104   2.184
 1979SOL    HW2 6390   0.855   3.194   2.226
 1980SOL     OW 6391   0.620   3.417   3.147
 1980SOL    HW1 6392   0.622   3.498   3.197
 1980SOL    HW2 6393   0.708   3.410   3.109
 1981SOL     OW 6394   1.350   1.914   2.028
 1981SOL    HW1 6395   1.379   1.854   1.959
 1981SOL    HW2 6396   1.263   1.883   2.053
 1982SOL     OW 6397   1.297   2.323   2.543
 1982SOL    HW1 6398   1.244   2.402   2.550
 1982SOL    HW2 6399   1.293   2.284   2.630
 1983SOL     OW 6400   1.573   2.056   2.731
 1983SOL    HW1 6401   1.534   2.081   2.815
 1983SOL    HW2 6402   1.588   2.139   2.686
 1984SOL     OW 6403   0.046   2.913   2.101
 1984SOL    HW1 6404   0.140   2.897   2.092
 1984SOL    HW2 6405   0.011   2.832   2.137
 1985SOL     OW 6406   0.884   3.518   2.206
 1985SOL    HW1 6407   0.814   3.498   2.145
 1985SOL    HW2 6408   0.853   3.594   2.255
 1986SOL     OW 6409   0.231   2.484   3.844
 1986SOL    HW1 6410   0.138   2.494   3.865
 1986SOL    HW2 6411   0.233   2.454   3.753
 1987SOL     OW 6412   0.229   2.133   4.711
 1987SOL    HW1 6413   0.249   2.101   4.798
 1987SOL    HW2 6414   0.134   2.125   4.704
 1988SOL     OW 6415   0.011   2.224   4.355
 1988SOL    HW1 6416   3.924   2.241   4.391
 1988SOL    HW2 6417   3.995   2.189   4.268
 1989SOL     OW 6418   0.577   3.147   4.909
 1989SOL    HW1 6419   0.491   3.151   4.868
 1989SOL    HW2 6420   0.593   3.235   4.943
 1990SOL     OW 6421   1.561   3.373   4.431
 1990SOL    HW1 6422   1.518   3.352   4.515
 1990SOL    HW2 6423   1.489   3.376   4.368
 1991SOL     OW 6424   1.130   2.560   4.424
 1991SOL    HW1 6425   1.180   2.641   4.411
 1991SOL    HW2 6426   1.084   2.574   4.507
 1992SOL     OW 6427   1.752   2.476   3.957
 1992SOL    HW1 6428   1.738   2.470   3.862
 1992SOL    HW2 6429   1.749   2.385   3.987
 1993SOL     OW 6430   0.756   3.003   4.764
 1993SOL    HW1 6431   0.690   3.037   4.824
 1993SOL    HW2 6432   0.791   3.080   4.719
 1994SOL     OW 6433   0.866   2.636   5.546
 1994SOL    HW1 6434   0.858   2.708   5.609
 1994SOL    HW2 6435   0.890   2.680   5.464
 1995SOL     OW 6436   0.686   2.865   4.371
 1995SOL    HW1 6437   0.751   2.853   4.440
 1995SOL    HW2 6438   0.616   2.917   4.413
 1996SOL     OW 6439   0.710   3.012   5.537
 1996SOL    HW1 6440   0.758   3.090   5.564
 1996SOL    HW2 6441   0.628   3.045   5.502
 1997SOL     OW 6442   0.351   3.264   4.802
 1997SOL    HW1 6443   0.268   3.250   4.756
 1997SOL    HW2 6444   0.400   3.323   4.745
 1998SOL     OW 6445   1.461   3.362   5.078
 1998SOL    HW1 6446   1.512   3.442   5.088
 1998SOL    HW2 6447   1.397   3.364   5.150
 1999SOL     OW 6448   0.450   2.262   5.214
 1999SOL    HW1 6449   0.525   2.203   5.217
 1999SOL    HW2 6450   0.374   2.206   5.226
 2000SOL     OW 6451   1.608   2.306   4.460
 2000SOL    HW1 6452   1.530   2.331   4.411
 2000SOL    HW2 6453   1.628   2.382   4.514
 2001SOL     OW 6454   0.224   3.571   4.190
 2001SOL    HW1 6455   0.228   3.652   4.241
 2001SOL    HW2 6456   0.301   3.575   4.133
 2002SOL     OW 6457   1.137   3.203   5.417
 2002SOL    HW1 6458   1.177   3.198   5.503
 2002SOL    HW2 6459   1.084   3.124   5.410
 2003SOL     OW 6460   0.247   3.305   4.263
 2003SOL    HW1 6461   0.220   3.396   4.250
 2003SOL    HW2 6462   0.178   3.267   4.317
 2004SOL     OW 6463   0.246   2.930   4.608
 2004SOL    HW1 6464   0.265   2.846   4.649
 2004SOL    HW2 6465   0.194   2.978   4.673
 2005SOL     OW 6466   0.612   3.649   5.153
 2005SOL    HW1 6467   0.530   3.634   5.199
 2005SOL    HW2 6468   0.638   3.737   5.177
 2006SOL     OW 6469   0.580   2.846   3.861
 2006SOL    HW1 6470   0.627   2.892   3.791
 2006SOL    HW2 6471   0.622   2.875   3.941
 2007SOL     OW 6472   1.598   1.990   5.188
 2007SOL    HW1 6473   1.583   2.074   5.144
 2007SOL    HW2 6474   1.586   2.009   5.281
 2008SOL     OW 6475   0.141   2.512   4.298
 2008SOL    HW1 6476   0.086   2.433   4.298
 2008SOL    HW2 6477   0.105   2.566   4.367
 2009SOL     OW 6478   1.842   3.613   4.062
 2009SOL    HW1 6479   1.908   3.588   4.126
 2009SOL    HW2 6480   1.864   3.703   4.038
 2010SOL     OW 6481   0.041   3.454   3.864
 2010SOL    HW1 6482   0.032   3.362   3.887
 2010SOL    HW2 6483   3.962   3.495   3.898
 2011SOL     OW 6484   1.690   2.781   4.365
 2011SOL    HW1 6485   1.771   2.737   4.342
 2011SOL    HW2 6486   1.666   2.831   4.287
 2012SOL     OW 6487   1.646   2.968   4.153
 2012SOL    HW1 6488   1.732   2.973   4.111
 2012SOL    HW2 6489   1.651   3.030   4.226
 2013SOL     OW 6490   0.136   2.614   5.314
 2013SOL    HW1 6491   0.232   2.608   5.314
 2013SOL    HW2 6492   0.117   2.705   5.338
 2014SOL     OW 6493   0.614   3.247   4.458
 2014SOL    HW1 6494   0.567   3.164   4.468
 2014SOL    HW2 6495   0.597   3.274   4.368
 2015SOL     OW 6496   1.288   3.100   5.147
 2015SOL    HW1 6497   1.321   3.032   5.087
 2015SOL    HW2 6498   1.346   3.094   5.223
 2016SOL     OW 6499   0.817   1.861   4.233
 2016SOL    HW1 6500   0.857   1.946   4.214
 2016SOL    HW2 6501   0.723   1.880   4.240
 2017SOL     OW 6502   0.185   2.815   5.001
 2017SOL    HW1 6503   0.273   2.779   4.988
 2017SOL    HW2 6504   0.132   2.772   4.934
 2018SOL     OW 6505   1.531   2.857   3.922
 2018SOL    HW1 6506   1.462   2.798   3.954
 2018SOL    HW2 6507   1.572   2.890   4.002
 2019SOL     OW 6508   1.213   3.665   5.350
 2019SOL    HW1 6509   1.194   3.725   5.278
 2019SOL    HW2 6510   1.215   3.578   5.309
 2020SOL     OW 6511   0.339   2.109   5.537
 2020SOL    HW1 6512   0.378   2.196   5.545
 2020SOL    HW2 6513   0.248   2.122   5.563
 2021SOL     OW 6514   1.466   3.282   4.675
 2021SOL    HW1 6515   1.398   3.297   4.741
 2021SOL    HW2 6516   1.454   3.191   4.648
 2022SOL     OW 6517   1.655   3.600   4.304
 2022SOL    HW1 6518   1.641   3.570   4.215
 2022SOL    HW2 6519   1.632   3.525   4.359
 2023SOL     OW 6520   0.596   2.580   3.988
 2023SOL    HW1 6521   0.603   2.664   3.942
 2023SOL    HW2 6522   0.533   2.597   4.058
 2024SOL     OW 6523   1.279   2.218   4.658
 2024SOL    HW1 6524   1.191   2.182   4.667
 2024SOL    HW2 6525   1.333   2.162   4.714
 2025SOL     OW 6526   1.578   3.536   4.032
 2025SOL    HW1 6527   1.670   3.562   4.027
 2025SOL    HW2 6528   1.553   3.516   3.942
 2026SOL     OW 6529   0.791   2.480   5.176
 2026SOL    HW1 6530   0.765   2.456   5.264
 2026SOL    HW2 6531   0.752   2.413   5.120
 2027SOL     OW 6532   1.393   2.335   5.402
 2027SOL    HW1 6533   1.396   2.380   5.486
 2027SOL    HW2 6534   1.455   2.262   5.411
 2028SOL     OW 6535   0.954   2.749   5.306
 2028SOL    HW1 6536   1.009   2.679   5.271
 2028SOL    HW2 6537   0.906   2.783   5.231
 2029SOL     OW 6538   0.993   2.274   4.962
 2029SOL    HW1 6539   0.907   2.296   4.999
 2029SOL    HW2 6540   0.973   2.229   4.880
 2030SOL     OW 6541   1.051   2.561   4.150
 2030SOL    HW1 6542   1.067   2.553   4.244
 2030SOL    HW2 6543   0.969   2.514   4.136
 2031SOL     OW 6544   0.082   2.688   4.514
 2031SOL    HW1 6545   0.159   2.659   4.563
 2031SOL    HW2 6546   0.095   2.782   4.503
 2032SOL     OW 6547   0.127   3.714   5.299
 2032SOL    HW1 6548   0.134   3.683   5.389
 2032SOL    HW2 6549   0.035   3.702   5.277
 2033SOL     OW 6550   0.893   2.211   3.916
 2033SOL    HW1 6551   0.935   2.273   3.857
 2033SOL    HW2 6552   0.913   2.125   3.879
 2034SOL     OW 6553   1.684   2.451   5.559
 2034SOL    HW1 6554   1.654   2.519   5.498
 2034SOL    HW2 6555   1.726   2.386   5.502
 2035SOL     OW 6556   1.377   3.004   4.265
 2035SOL    HW1 6557   1.456   2.991   4.212
 2035SOL    HW2 6558   1.324   3.066   4.214
 2036SOL     OW 6559   0.545   2.041   4.617
 2036SOL    HW1 6560   0.552   2.072   4.707
 2036SOL    HW2 6561   0.547   2.121   4.564
 2037SOL     OW 6562   1.006   3.307   4.196
 2037SOL    HW1 6563   0.967   3.380   4.147
 2037SOL    HW2 6564   0.988   3.327   4.288
 2038SOL     OW 6565   0.359   3.669   4.582
 2038SOL    HW1 6566   0.435   3.613   4.594
 2038SOL    HW2 6567   0.393   3.758   4.592
 2039SOL     OW 6568   1.799   2.918   4.592
 2039SOL    HW1 6569   1.745   2.900   4.515
 2039SOL    HW2 6570   1.737   2.924   4.664
 2040SOL     OW 6571   1.228   3.399   5.235
 2040SOL    HW1 6572   1.214   3.327   5.297
 2040SOL    HW2 6573   1.162   3.386   5.167
 2041SOL     OW 6574   0.311   2.817   3.966
 2041SOL    HW1 6575   0.395   2.840   3.927
 2041SOL    HW2 6576   0.297   2.726   3.941
 2042SOL     OW 6577   1.478   2.606   4.451
 2042SOL    HW1 6578   1.471   2.562   4.536
 2042SOL    HW2 6579   1.557   2.660   4.459
 2043SOL     OW 6580   0.466   3.122   5.461
 2043SOL    HW1 6581   0.440   3.130   5.369
 2043SOL    HW2 6582   0.384   3.127   5.510
 2044SOL     OW 6583   1.113   3.642   3.947
 2044SOL    HW1 6584   1.050   3.595   4.002
 2044SOL    HW2 6585   1.143   3.578   3.883
 2045SOL     OW 6586   0.204   2.140   5.231
 2045SOL    HW1 6587   0.114   2.171   5.222
 2045SOL    HW2 6588   0.196   2.055   5.275
 2046SOL     OW 6589   1.628   3.242   3.813
 2046SOL    HW1 6590   1.587   3.327   3.796
 2046SOL    HW2 6591   1.559   3.179   3.793
 2047SOL     OW 6592   0.469   3.600   4.045
 2047SOL    HW1 6593   0.506   3.663   4.106
 2047SOL    HW2 6594   0.542   3.573   3.990
 2048SOL     OW 6595   1.397   1.968   4.155
 2048SOL    HW1 6596   1.381   1.946   4.063
 2048SOL    HW2 6597   1.491   1.957   4.166
 2049SOL     OW 6598   0.251   3.656   4.953
 2049SOL    HW1 6599   0.298   3.592   5.006
 2049SOL    HW2 6600   0.248   3.617   4.865
 2050SOL     OW 6601   0.937   3.561   4.625
 2050SOL    HW1 6602   1.015   3.509   4.646
 2050SOL    HW2 6603   0.893   3.512   4.556
 2051SOL     OW 6604   0.397   2.555   4.196
 2051SOL    HW1 6605   0.423   2.465   4.210
 2051SOL    HW2 6606   0.305   2.558   4.223
 2052SOL     OW 6607   1.533   2.082   5.442
 2052SOL    HW1 6608   1.545   2.105   5.534
 2052SOL    HW2 6609   1.463   2.018   5.442
 2053SOL     OW 6610   0.636   1.982   3.824
 2053SOL    HW1 6611   0.703   1.916   3.841
 2053SOL    HW2 6612   0.589   1.950   3.747
 2054SOL     OW 6613   0.766   2.139   5.477
 2054SOL    HW1 6614   0.842   2.082   5.478
 2054SOL    HW2 6615   0.720   2.119   5.559
 2055SOL     OW 6616   0.876   3.382   4.918
 2055SOL    HW1 6617   0.860   3.347   4.831
 2055SOL    HW2 6618   0.946   3.328   4.954
 2056SOL     OW 6619   1.341   2.450   5.156
 2056SOL    HW1 6620   1.371   2.419   5.242
 2056SOL    HW2 6621   1.377   2.539   5.150
 2057SOL     OW 6622   0.815   3.256   4.663
 2057SOL    HW1 6623   0.900   3.245   4.620
 2057SOL    HW2 6624   0.752   3.257   4.592
 2058SOL     OW 6625   0.928   2.371   4.627
 2058SOL    HW1 6626   0.905   2.363   4.534
 2058SOL    HW2 6627   0.960   2.284   4.651
 2059SOL     OW 6628   0.554   1.924   4.222
 2059SOL    HW1 6629   0.472   1.929   4.271
 2059SOL    HW2 6630   0.558   2.007   4.173
 2060SOL     OW 6631   1.428   3.061   3.765
 2060SOL    HW1 6632   1.459   2.985   3.814
 2060SOL    HW2 6633   1.342   3.081   3.802
 2061SOL     OW 6634   0.307   1.913   3.894
 2061SOL    HW1 6635   0.372   1.952   3.836
 2061SOL    HW2 6636   0.355   1.847   3.944
 2062SOL     OW 6637   0.938   2.108   4.185
 2062SOL    HW1 6638   0.908   2.149   4.104
 2062SOL    HW2 6639   1.033   2.124   4.187
 2063SOL     OW 6640   1.080   2.543   5.183
 2063SOL    HW1 6641   1.012   2.476   5.189
 2063SOL    HW2 6642   1.162   2.493   5.177
 2064SOL     OW 6643   1.223   3.432   4.517
 2064SOL    HW1 6644   1.239   3.500   4.452
 2064SOL    HW2 6645   1.291   3.445   4.583
 2065SOL     OW 6646   0.466   3.012   4.461
 2065SOL    HW1 6647   0.394   2.989   4.520
 2065SOL    HW2 6648   0.432   2.996   4.373
 2066SOL     OW 6649   1.268   3.658   4.330
 2066SOL    HW1 6650   1.314   3.722   4.276
 2066SOL    HW2 6651   1.197   3.707   4.372
 2067SOL     OW 6652   1.023   2.403   3.747
 2067SOL    HW1 6653   0.982   2.487   3.728
 2067SOL    HW2 6654   1.091   2.424   3.812
 2068SOL     OW 6655   0.081   2.433   5.114
 2068SOL    HW1 6656   0.170   2.420   5.084
 2068SOL    HW2 6657   0.088   2.503   5.179
 2069SOL     OW 6658   0.567   2.089   4.888
 2069SOL    HW1 6659   0.607   2.012   4.929
 2069SOL    HW2 6660   0.475   2.086   4.918
 2070SOL     OW 6661   0.868   2.321   4.364
 2070SOL    HW1 6662   0.820   2.374   4.300
 2070SOL    HW2 6663   0.888   2.240   4.317
 2071SOL     OW 6664   1.016   1.915   4.476
 2071SOL    HW1 6665   0.958   1.909   4.400
 2071SOL    HW2 6666   0.993   1.839   4.530
 2072SOL     OW 6667   1.437   3.025   4.581
 2072SOL    HW1 6668   1.368   2.958   4.580
 2072SOL    HW2 6669   1.461   3.035   4.489
 2073SOL     OW 6670   1.466   2.467   4.700
 2073SOL    HW1 6671   1.414   2.387   4.703
 2073SOL    HW2 6672   1.525   2.461   4.775
 2074SOL     OW 6673   1.845   2.680   4.108
 2074SOL    HW1 6674   1.904   2.628   4.163
 2074SOL    HW2 6675   1.813   2.618   4.042
 2075SOL     OW 6676   0.489   3.279   3.884
 2075SOL    HW1 6677   0.413   3.249   3.935
 2075SOL    HW2 6678   0.468   3.255   3.794
 2076SOL     OW 6679   1.671   3.126   4.370
 2076SOL    HW1 6680   1.766   3.129   4.383
 2076SOL    HW2 6681   1.641   3.215   4.391
 2077SOL     OW 6682   1.391   2.436   3.792
 2077SOL    HW1 6683   1.338   2.413   3.868
 2077SOL    HW2 6684   1.481   2.416   3.818
 2078SOL     OW 6685   0.573   2.131   4.046
 2078SOL    HW1 6686   0.600   2.082   3.968
 2078SOL    HW2 6687   0.541   2.214   4.012
 2079SOL     OW 6688   1.752   3.101   5.296
 2079SOL    HW1 6689   1.840   3.062   5.293
 2079SOL    HW2 6690   1.767   3.192   5.324
 2080SOL     OW 6691   1.058   3.215   5.057
 2080SOL    HW1 6692   0.983   3.184   5.108
 2080SOL    HW2 6693   1.134   3.174   5.098
 2081SOL     OW 6694   1.609   3.488   5.379
 2081SOL    HW1 6695   1.602   3.521   5.289
 2081SOL    HW2 6696   1.692   3.440   5.380
 2082SOL     OW 6697   1.130   3.066   4.829
 2082SOL    HW1 6698   1.071   3.103   4.894
 2082SOL    HW2 6699   1.096   3.098   4.745
 2083SOL     OW 6700   1.628   2.960   4.801
 2083SOL    HW1 6701   1.623   3.022   4.874
 2083SOL    HW2 6702   1.549   2.977   4.750
 2084SOL     OW 6703   0.918   1.959   5.120
 2084SOL    HW1 6704   0.941   1.940   5.029
 2084SOL    HW2 6705   0.997   1.998   5.157
 2085SOL     OW 6706   0.984   2.977   5.446
 2085SOL    HW1 6707   0.892   2.993   5.468
 2085SOL    HW2 6708   0.983   2.899   5.390
 2086SOL     OW 6709   0.707   2.922   4.095
 2086SOL    HW1 6710   0.694   2.907   4.188
 2086SOL    HW2 6711   0.784   2.869   4.072
 2087SOL     OW 6712   0.421   2.677   4.976
 2087SOL    HW1 6713   0.489   2.685   5.042
 2087SOL    HW2 6714   0.386   2.589   4.988
 2088SOL     OW 6715   1.266   2.238   5.000
 2088SOL    HW1 6716   1.298   2.316   5.046
 2088SOL    HW2 6717   1.175   2.260   4.977
 2089SOL     OW 6718   0.065   3.441   5.069
 2089SOL    HW1 6719   0.069   3.505   4.998
 2089SOL    HW2 6720   0.156   3.428   5.095
 2090SOL     OW 6721   0.373   2.964   4.209
 2090SOL    HW1 6722   0.367   3.043   4.155
 2090SOL    HW2 6723   0.372   2.892   4.145
 2091SOL     OW 6724   0.551   2.399   4.586
 2091SOL    HW1 6725   0.567   2.456   4.510
 2091SOL    HW2 6726   0.618   2.426   4.649
 2092SOL     OW 6727   1.248   3.211   4.113
 2092SOL    HW1 6728   1.304   3.282   4.144
 2092SOL    HW2 6729   1.161   3.232   4.147
 2093SOL     OW 6730   1.281   3.320   4.871
 2093SOL    HW1 6731   1.337   3.323   4.949
 2093SOL    HW2 6732   1.226   3.243   4.884
 2094SOL     OW 6733   1.578   2.483   4.200
 2094SOL    HW1 6734   1.535   2.542   4.263
 2094SOL    HW2 6735   1.624   2.541   4.140
 2095SOL     OW 6736   0.345   3.388   5.043
 2095SOL    HW1 6737   0.336   3.338   4.962
 2095SOL    HW2 6738   0.439   3.404   5.050
 2096SOL     OW 6739   0.414   2.602   5.325
 2096SOL    HW1 6740   0.476   2.647   5.268
 2096SOL    HW2 6741   0.455   2.517   5.342
 2097SOL     OW 6742   1.599   2.647   5.398
 2097SOL    HW1 6743   1.514   2.689   5.393
 2097SOL    HW2 6744   1.652   2.691   5.332
 2098SOL     OW 6745   0.995   1.986   5.478
 2098SOL    HW1 6746   1.053   2.058   5.453
 2098SOL    HW2 6747   1.044   1.907   5.454
 2099SOL     OW 6748   0.498   1.899   5.469
 2099SOL    HW1 6749   0.454   1.846   5.402
 2099SOL    HW2 6750   0.442   1.976   5.478
 2100SOL     OW 6751   0.584   2.735   4.755
 2100SOL    HW1 6752   0.616   2.826   4.755
 2100SOL    HW2 6753   0.529   2.730   4.833
 2101SOL     OW 6754   1.357   2.720   4.753
 2101SOL    HW1 6755   1.274   2.711   4.707
 2101SOL    HW2 6756   1.398   2.634   4.747
 2102SOL     OW 6757   1.205   2.390   3.992
 2102SOL    HW1 6758   1.212   2.312   4.047
 2102SOL    HW2 6759   1.162   2.455   4.047
 2103SOL     OW 6760   0.311   2.060   4.971
 2103SOL    HW1 6761   0.265   2.097   5.047
 2103SOL    HW2 6762   0.286   1.967   4.972
 2104SOL     OW 6763   0.058   3.167   5.004
 2104SOL    HW1 6764   0.090   3.127   5.085
 2104SOL    HW2 6765   0.051   3.260   5.024
 2105SOL     OW 6766   0.725   2.493   4.782
 2105SOL    HW1 6767   0.799   2.477   4.724
 2105SOL    HW2 6768   0.697   2.582   4.760
 2106SOL     OW 6769   1.734   2.821   5.576
 2106SOL    HW1 6770   1.690   2.758   5.520
 2106SOL    HW2 6771   1.674   2.835   5.649
 2107SOL     OW 6772   0.312   1.925   4.345
 2107SOL    HW1 6773   0.292   2.016   4.366
 2107SOL    HW2 6774   0.317   1.881   4.430
 2108SOL     OW 6775   1.609   2.234   4.099
 2108SOL    HW1 6776   1.619   2.184   4.180
 2108SOL    HW2 6777   1.588   2.323   4.128
 2109SOL     OW 6778   1.028   2.621   4.684
 2109SOL    HW1 6779   1.024   2.639   4.779
 2109SOL    HW2 6780   1.002   2.529   4.676
 2110SOL     OW 6781   0.985   3.429   5.442
 2110SOL    HW1 6782   0.967   3.472   5.358
 2110SOL    HW2 6783   1.027   3.346   5.419
 2111SOL     OW 6784   1.855   3.367   5.329
 2111SOL    HW1 6785   1.873   3.394   5.239
 2111SOL    HW2 6786   1.935   3.387   5.377
 2112SOL     OW 6787   0.352   2.783   5.525
 2112SOL    HW1 6788   0.431   2.803   5.575
 2112SOL    HW2 6789   0.380   2.716   5.462
 2113SOL     OW 6790   1.531   2.131   3.852
 2113SOL    HW1 6791   1.463   2.070   3.880
 2113SOL    HW2 6792   1.562   2.171   3.933
 2114SOL     OW 6793   1.291   2.689   3.755
 2114SOL    HW1 6794   1.332   2.603   3.758
 2114SOL    HW2 6795   1.323   2.728   3.673
 2115SOL     OW 6796   1.065   3.198   4.578
 2115SOL    HW1 6797   1.069   3.125   4.515
 2115SOL    HW2 6798   1.127   3.262   4.543
 2116SOL     OW 6799   0.314   2.666   4.674
 2116SOL    HW1 6800   0.407   2.684   4.668
 2116SOL    HW2 6801   0.309   2.576   4.707
 2117SOL     OW 6802   0.331   2.382   4.738
 2117SOL    HW1 6803   0.297   2.294   4.720
 2117SOL    HW2 6804   0.407   2.390   4.680
 2118SOL     OW 6805   1.134   2.238   5.406
 2118SOL    HW1 6806   1.087   2.293   5.469
 2118SOL    HW2 6807   1.222   2.275   5.403
 2119SOL     OW 6808   1.161   2.064   5.194
 2119SOL    HW1 6809   1.150   2.127   5.266
 2119SOL    HW2 6810   1.200   2.115   5.124
 2120SOL     OW 6811   3.999   3.182   3.906
 2120SOL    HW1 6812   3.905   3.197   3.910
 2120SOL    HW2 6813   0.009   3.088   3.925
 2121SOL     OW 6814   0.075   3.663   4.618
 2121SOL    HW1 6815   0.087   3.568   4.620
 2121SOL    HW2 6816   0.164   3.698   4.615
 2122SOL     OW 6817   0.507   3.427   4.639
 2122SOL    HW1 6818   0.573   3.493   4.660
 2122SOL    HW2 6819   0.550   3.367   4.578
 2123SOL     OW 6820   0.982   2.654   4.950
 2123SOL    HW1 6821   1.039   2.631   5.024
 2123SOL    HW2 6822   0.897   2.616   4.973
 2124SOL     OW 6823   0.037   2.417   4.834
 2124SOL    HW1 6824   0.120   2.393   4.791
 2124SOL    HW2 6825   0.057   2.415   4.927
 2125SOL     OW 6826   0.206   2.376   5.451
 2125SOL    HW1 6827   0.248   2.331   5.378
 2125SOL    HW2 6828   0.157   2.447   5.411
 2126SOL     OW 6829   1.374   2.803   5.381
 2126SOL    HW1 6830   1.396   2.896   5.379
 2126SOL    HW2 6831   1.371   2.776   5.289
 2127SOL     OW 6832   0.817   2.431   4.083
 2127SOL    HW1 6833   0.821   2.355   4.025
 2127SOL    HW2 6834   0.743   2.482   4.051
 2128SOL     OW 6835   1.643   2.465   4.909
 2128SOL    HW1 6836   1.632   2.409   4.986
 2128SOL    HW2 6837   1.729   2.441   4.874
 2129SOL     OW 6838   0.298   3.408   5.453
 2129SOL    HW1 6839   0.248   3.478   5.496
 2129SOL    HW2 6840   0.264   3.328   5.492
 2130SOL     OW 6841   0.702   2.313   4.983
 2130SOL    HW1 6842   0.650   2.238   4.953
 2130SOL    HW2 6843   0.698   2.376   4.911
 2131SOL     OW 6844   0.930   3.535   5.192
 2131SOL    HW1 6845   0.902   3.499   5.107
 2131SOL    HW2 6846   0.922   3.630   5.181
 2132SOL     OW 6847   0.458   2.352   3.917
 2132SOL    HW1 6848   0.523   2.420   3.936
 2132SOL    HW2 6849   0.378   2.400   3.897
 2133SOL     OW 6850   0.157   2.998   5.198
 2133SOL    HW1 6851   0.159   2.947   5.279
 2133SOL    HW2 6852   0.171   2.934   5.128
 2134SOL     OW 6853   1.326   2.909   4.946
 2134SOL    HW1 6854   1.349   2.845   4.879
 2134SOL    HW2 6855   1.256   2.961   4.908
 2135SOL     OW 6856   1.311   2.719   4.030
 2135SOL    HW1 6857   1.235   2.687   4.080
 2135SOL    HW2 6858   1.287   2.705   3.939
 2136SOL     OW 6859   1.769   3.605   4.873
 2136SOL    HW1 6860   1.832   3.633   4.806
 2136SOL    HW2 6861   1.748   3.515   4.851
 2137SOL     OW 6862   1.243   3.595   4.835
 2137SOL    HW1 6863   1.326   3.615   4.791
 2137SOL    HW2 6864   1.248   3.502   4.855
 2138SOL     OW 6865   0.076   3.078   4.751
 2138SOL    HW1 6866   0.082   3.104   4.843
 2138SOL    HW2 6867   3.983   3.086   4.731
 2139SOL     OW 6868   0.679   3.526   5.453
 2139SOL    HW1 6869   0.622   3.603   5.457
 2139SOL    HW2 6870   0.739   3.543   5.380
 2140SOL     OW 6871   1.390   3.431   4.209
 2140SOL    HW1 6872   1.450   3.463   4.142
 2140SOL    HW2 6873   1.343   3.508   4.239
 2141SOL     OW 6874   0.168   3.626   5.555
 2141SOL    HW1 6875   0.112   3.574   5.612
 2141SOL    HW2 6876   0.215   3.685   5.613
 2142SOL     OW 6877   1.277   2.788   4.395
 2142SOL    HW1 6878   1.351   2.727   4.403
 2142SOL    HW2 6879   1.311   2.860   4.342
 2143SOL     OW 6880   0.814   3.135   5.154
 2143SOL    HW1 6881   0.786   3.175   5.236
 2143SOL    HW2 6882   0.743   3.155   5.092
 2144SOL     OW 6883   0.675   3.477   3.881
 2144SOL    HW1 6884   0.682   3.493   3.787
 2144SOL    HW2 6885   0.617   3.401   3.888
 2145SOL     OW 6886   1.625   3.588   5.114
 2145SOL    HW1 6887   1.676   3.594   5.033
 2145SOL    HW2 6888   1.612   3.679   5.141
 2146SOL     OW 6889   0.268   2.176   4.441
 2146SOL    HW1 6890   0.182   2.210   4.415
 2146SOL    HW2 6891   0.262   2.166   4.536
 2147SOL     OW 6892   1.207   3.468   3.759
 2147SOL    HW1 6893   1.197   3.376   3.783
 2147SOL    HW2 6894   1.146   3.480   3.686
 2148SOL     OW 6895   0.823   2.868   5.097
 2148SOL    HW1 6896   0.868   2.863   5.012
 2148SOL    HW2 6897   0.823   2.961   5.119
 2149SOL     OW 6898   0.915   2.772   4.014
 2149SOL    HW1 6899   0.976   2.804   3.948
 2149SOL    HW2 6900   0.964   2.703   4.059
 2150SOL     OW 6901   1.490   3.490   3.766
 2150SOL    HW1 6902   1.396   3.480   3.750
 2150SOL    HW2 6903   1.529   3.495   3.678
 2151SOL     OW 6904   0.373   3.165   5.215
 2151SOL    HW1 6905   0.359   3.245   5.165
 2151SOL    HW2 6906   0.296   3.111   5.198
 2152SOL     OW 6907   1.611   3.145   5.005
 2152SOL    HW1 6908   1.670   3.134   5.078
 2152SOL    HW2 6909   1.550   3.214   5.032
 2153SOL     OW 6910   1.053   2.969   4.431
 2153SOL    HW1 6911   0.982   2.918   4.470
 2153SOL    HW2 6912   1.115   2.904   4.400
 2154SOL     OW 6913   1.021   2.102   4.690
 2154SOL    HW1 6914   1.018   2.055   4.607
 2154SOL    HW2 6915   1.016   2.034   4.757
 2155SOL     OW 6916   0.604   3.352   4.205
 2155SOL    HW1 6917   0.648   3.302   4.136
 2155SOL    HW2 6918   0.534   3.399   4.159
 2156SOL     OW 6919   1.723   2.255   5.101
 2156SOL    HW1 6920   1.797   2.315   5.107
 2156SOL    HW2 6921   1.752   2.186   5.041
 2157SOL     OW 6922   0.253   3.203   4.015
 2157SOL    HW1 6923   0.160   3.213   3.995
 2157SOL    HW2 6924   0.263   3.241   4.102
 2158SOL     OW 6925   0.106   2.861   5.441
 2158SOL    HW1 6926   0.045   2.852   5.515
 2158SOL    HW2 6927   0.192   2.842   5.479
 2159SOL     OW 6928   0.674   2.058   5.223
 2159SOL    HW1 6929   0.758   2.038   5.182
 2159SOL    HW2 6930   0.697   2.089   5.311
 2160SOL     OW 6931   0.080   2.179   3.761
 2160SOL    HW1 6932   3.985   2.179   3.767
 2160SOL    HW2 6933   0.101   2.260   3.713
 2161SOL     OW 6934   1.429   2.721   5.124
 2161SOL    HW1 6935   1.381   2.782   5.068
 2161SOL    HW2 6936   1.519   2.723   5.090
 2162SOL     OW 6937   0.022   2.089   4.096
 2162SOL    HW1 6938   0.045   2.155   4.031
 2162SOL    HW2 6939   0.105   2.053   4.125
 2163SOL     OW 6940   1.178   3.201   3.841
 2163SOL    HW1 6941   1.087   3.172   3.843
 2163SOL    HW2 6942   1.206   3.200   3.932
 2164SOL     OW 6943   0.619   2.692   5.159
 2164SOL    HW1 6944   0.675   2.769   5.144
 2164SOL    HW2 6945   0.680   2.619   5.167
 2165SOL     OW 6946   1.485   3.640   4.704
 2165SOL    HW1 6947   1.510   3.696   4.630
 2165SOL    HW2 6948   1.568   3.619   4.746
 2166SOL     OW 6949   0.716   2.426   5.429
 2166SOL    HW1 6950   0.759   2.489   5.488
 2166SOL    HW2 6951   0.745   2.340   5.461
 2167SOL     OW 6952   1.472   3.062   5.356
 2167SOL    HW1 6953   1.459   3.075   5.450
 2167SOL    HW2 6954   1.565   3.077   5.341
 2168SOL     OW 6955   0.379   3.606   5.283
 2168SOL    HW1 6956   0.291   3.641   5.270
 2168SOL    HW2 6957   0.364   3.523   5.330
 2169SOL     OW 6958   1.670   2.743   4.978
 2169SOL    HW1 6959   1.662   2.658   4.936
 2169SOL    HW2 6960   1.659   2.807   4.907
 2170SOL     OW 6961   1.216   2.182   4.182
 2170SOL    HW1 6962   1.278   2.110   4.174
 2170SOL    HW2 6963   1.245   2.231   4.259
 2171SOL     OW 6964   0.590   2.601   4.394
 2171SOL    HW1 6965   0.629   2.687   4.379
 2171SOL    HW2 6966   0.522   2.592   4.327
 2172SOL     OW 6967   1.755   2.236   5.379
 2172SOL    HW1 6968   1.746   2.245   5.284
 2172SOL    HW2 6969   1.685   2.177   5.405
 2173SOL     OW 6970   1.748   2.799   5.233
 2173SOL    HW1 6971   1.742   2.894   5.246
 2173SOL    HW2 6972   1.731   2.787   5.140
 2174SOL     OW 6973   0.864   3.229   3.759
 2174SOL    HW1 6974   0.823   3.258   3.841
 2174SOL    HW2 6975   0.880   3.311   3.711
 2175SOL     OW 6976   0.658   3.652   4.663
 2175SOL    HW1 6977   0.636   3.743   4.643
 2175SOL    HW2 6978   0.754   3.650   4.660
 2176SOL     OW 6979   0.868   2.828   4.578
 2176SOL    HW1 6980   0.918   2.757   4.618
 2176SOL    HW2 6981   0.833   2.878   4.653
 2177SOL     OW 6982   1.078   2.850   3.812
 2177SOL    HW1 6983   1.057   2.901   3.734
 2177SOL    HW2 6984   1.153   2.797   3.787
 2178SOL     OW 6985   1.853   3.414   4.567
 2178SOL    HW1 6986   1.774   3.403   4.514
 2178SOL    HW2 6987   1.845   3.350   4.637
 2179SOL     OW 6988   0.224   3.166   5.579
 2179SOL    HW1 6989   0.153   3.108   5.554
 2179SOL    HW2 6990   0.212   3.179   5.674
 2180SOL     OW 6991   0.112   3.137   4.442
 2180SOL    HW1 6992   0.127   3.087   4.523
 2180SOL    HW2 6993   0.107   3.070   4.373
 2181SOL     OW 6994   0.681   3.265   5.353
 2181SOL    HW1 6995   0.600   3.223   5.382
 2181SOL    HW2 6996   0.677   3.353   5.389
 2182SOL     OW 6997   0.441   2.296   4.257
 2182SOL    HW1 6998   0.443   2.226   4.191
 2182SOL    HW2 6999   0.386   2.262   4.327
 2183SOL     OW 7000   1.701   3.350   4.818
 2183SOL    HW1 7001   1.619   3.327   4.774
 2183SOL    HW2 7002   1.712   3.282   4.885
 2184SOL     OW 7003   0.332   2.417   5.015
 2184SOL    HW1 7004   0.388   2.361   5.070
 2184SOL    HW2 7005   0.348   2.387   4.926
 2185SOL     OW 7006   0.827   3.441   4.401
 2185SOL    HW1 7007   0.815   3.490   4.320
 2185SOL    HW2 7008   0.751   3.382   4.405
 2186SOL     OW 7009   1.438   2.090   4.843
 2186SOL    HW1 7010   1.450   2.004   4.882
 2186SOL    HW2 7011   1.382   2.137   4.906
 2187SOL     OW 7012   1.009   1.880   4.866
 2187SOL    HW1 7013   0.955   1.812   4.825
 2187SOL    HW2 7014   1.097   1.843   4.868
 2188SOL     OW 7015   0.772   3.194   4.040
 2188SOL    HW1 7016   0.740   3.104   4.046
 2188SOL    HW2 7017   0.855   3.194   4.088
 2189SOL     OW 7018   0.620   3.417   5.009
 2189SOL    HW1 7019   0.622   3.498   5.059
 2189SOL    HW2 7020   0.708   3.410   4.971
 2190SOL     OW 7021   1.350   1.914   3.890
 2190SOL    HW1 7022   1.379   1.854   3.821
 2190SOL    HW2 7023   1.263   1.883   3.915
 2191SOL     OW 7024   1.297   2.323   4.405
 2191SOL    HW1 7025   1.244   2.402   4.412
 2191SOL    HW2 7026   1.293   2.283   4.492
 2192SOL     OW 7027   1.572   2.056   4.593
 2192SOL    HW1 7028   1.534   2.081   4.678
 2192SOL    HW2 7029   1.588   2.139   4.549
 2193SOL     OW 7030   0.046   2.913   3.963
 2193SOL    HW1 7031   0.140   2.897   3.954
 2193SOL    HW2 7032   0.011   2.832   3.999
 2194SOL     OW 7033   0.884   3.518   4.068
 2194SOL    HW1 7034   0.814   3.498   4.007
 2194SOL    HW2 7035   0.853   3.594   4.117
 2195SOL     OW 7036   0.231   2.485   5.706
 2195SOL    HW1 7037   0.138   2.494   5.727
 2195SOL    HW2 7038   0.233   2.455   5.615
 2196SOL     OW 7039   0.229   2.133   6.573
 2196SOL    HW1 7040   0.249   2.101   6.660
 2196SOL    HW2 7041   0.134   2.125   6.566
 2197SOL     OW 7042   0.011   2.223   6.217
 2197SOL    HW1 7043   3.924   2.241   6.253
 2197SOL    HW2 7044   3.995   2.189   6.130
 2198SOL     OW 7045   0.577   3.146   6.771
 2198SOL    HW1 7046   0.491   3.151   6.730
 2198SOL    HW2 7047   0.593   3.235   6.805
 2199SOL     OW 7048   1.561   3.374   6.294
 2199SOL    HW1 7049   1.518   3.353   6.377
 2199SOL    HW2 7050   1.489   3.377   6.231
 2200SOL     OW 7051   1.116   2.578   6.286
 2200SOL    HW1 7052   1.167   2.658   6.271
 2200SOL    HW2 7053   1.075   2.592   6.371
 2201SOL     OW 7054   1.766   2.472   5.818
 2201SOL    HW1 7055   1.749   2.470   5.724
 2201SOL    HW2 7056   1.741   2.385   5.849
 2202SOL     OW 7057   0.756   3.003   6.626
 2202SOL    HW1 7058   0.690   3.037   6.686
 2202SOL    HW2 7059   0.791   3.080   6.581
 2203SOL     OW 7060   0.866   2.637   7.409
 2203SOL    HW1 7061   0.857   2.708   7.472
 2203SOL    HW2 7062   0.890   2.680   7.327
 2204SOL     OW 7063   0.686   2.865   6.233
 2204SOL    HW1 7064   0.751   2.853   6.302
 2204SOL    HW2 7065   0.616   2.917   6.274
 2205SOL     OW 7066   0.710   3.012   7.399
 2205SOL    HW1 7067   0.758   3.090   7.426
 2205SOL    HW2 7068   0.628   3.045   7.364
 2206SOL     OW 7069   0.351   3.264   6.664
 2206SOL    HW1 7070   0.268   3.250   6.618
 2206SOL    HW2 7071   0.400   3.323   6.607
 2207SOL     OW 7072   1.461   3.362   6.940
 2207SOL    HW1 7073   1.512   3.442   6.950
 2207SOL    HW2 7074   1.398   3.365   7.013
 2208SOL     OW 7075   0.450   2.262   7.076
 2208SOL    HW1 7076   0.525   2.202   7.078
 2208SOL    HW2 7077   0.373   2.206   7.088
 2209SOL     OW 7078   0.224   3.571   6.052
 2209SOL    HW1 7079   0.228   3.652   6.103
 2209SOL    HW2 7080   0.301   3.575   5.995
 2210SOL     OW 7081   1.137   3.203   7.279
 2210SOL    HW1 7082   1.177   3.198   7.365
 2210SOL    HW2 7083   1.084   3.123   7.272
 2211SOL     OW 7084   0.248   3.305   6.125
 2211SOL    HW1 7085   0.220   3.396   6.112
 2211SOL    HW2 7086   0.178   3.267   6.179
 2212SOL     OW 7087   0.247   2.930   6.470
 2212SOL    HW1 7088   0.265   2.846   6.512
 2212SOL    HW2 7089   0.194   2.978   6.535
 2213SOL     OW 7090   0.613   3.648   7.015
 2213SOL    HW1 7091   0.530   3.634   7.061
 2213SOL    HW2 7092   0.638   3.737   7.039
 2214SOL     OW 7093   0.580   2.846   5.722
 2214SOL    HW1 7094   0.627   2.892   5.653
 2214SOL    HW2 7095   0.622   2.875   5.803
 2215SOL     OW 7096   1.639   1.993   7.006
 2215SOL    HW1 7097   1.563   2.023   6.956
 2215SOL    HW2 7098   1.605   1.980   7.095
 2216SOL     OW 7099   0.141   2.512   6.160
 2216SOL    HW1 7100   0.086   2.433   6.160
 2216SOL    HW2 7101   0.105   2.566   6.229
 2217SOL     OW 7102   1.842   3.613   5.924
 2217SOL    HW1 7103   1.908   3.588   5.988
 2217SOL    HW2 7104   1.864   3.703   5.900
 2218SOL     OW 7105   0.041   3.454   5.726
 2218SOL    HW1 7106   0.033   3.362   5.749
 2218SOL    HW2 7107   3.961   3.495   5.760
 2219SOL     OW 7108   1.690   2.800   6.226
 2219SOL    HW1 7109   1.750   2.738   6.183
 2219SOL    HW2 7110   1.658   2.856   6.156
 2220SOL     OW 7111   1.643   2.975   6.012
 2220SOL    HW1 7112   1.729   2.979   5.970
 2220SOL    HW2 7113   1.649   3.038   6.084
 2221SOL     OW 7114   0.136   2.614   7.176
 2221SOL    HW1 7115   0.231   2.608   7.177
 2221SOL    HW2 7116   0.117   2.705   7.200
 2222SOL     OW 7117   0.614   3.247   6.320
 2222SOL    HW1 7118   0.567   3.164   6.330
 2222SOL    HW2 7119   0.597   3.274   6.230
 2223SOL     OW 7120   1.288   3.100   7.010
 2223SOL    HW1 7121   1.322   3.034   6.949
 2223SOL    HW2 7122   1.348   3.096   7.085
 2224SOL     OW 7123   0.817   1.862   6.095
 2224SOL    HW1 7124   0.857   1.946   6.076
 2224SOL    HW2 7125   0.723   1.880   6.102
 2225SOL     OW 7126   0.185   2.814   6.864
 2225SOL    HW1 7127   0.273   2.779   6.850
 2225SOL    HW2 7128   0.131   2.773   6.796
 2226SOL     OW 7129   1.532   2.855   5.784
 2226SOL    HW1 7130   1.461   2.799   5.815
 2226SOL    HW2 7131   1.571   2.891   5.864
 2227SOL     OW 7132   1.213   3.665   7.212
 2227SOL    HW1 7133   1.194   3.725   7.140
 2227SOL    HW2 7134   1.215   3.578   7.171
 2228SOL     OW 7135   0.339   2.109   7.400
 2228SOL    HW1 7136   0.378   2.196   7.407
 2228SOL    HW2 7137   0.248   2.122   7.426
 2229SOL     OW 7138   1.465   3.282   6.537
 2229SOL    HW1 7139   1.398   3.297   6.603
 2229SOL    HW2 7140   1.453   3.191   6.510
 2230SOL     OW 7141   1.656   3.600   6.166
 2230SOL    HW1 7142   1.640   3.569   6.077
 2230SOL    HW2 7143   1.632   3.525   6.221
 2231SOL     OW 7144   0.596   2.580   5.850
 2231SOL    HW1 7145   0.603   2.663   5.803
 2231SOL    HW2 7146   0.533   2.597   5.920
 2232SOL     OW 7147   1.578   3.536   5.894
 2232SOL    HW1 7148   1.670   3.562   5.889
 2232SOL    HW2 7149   1.553   3.516   5.804
 2233SOL     OW 7150   0.793   2.480   7.038
 2233SOL    HW1 7151   0.766   2.456   7.126
 2233SOL    HW2 7152   0.753   2.413   6.982
 2234SOL     OW 7153   0.954   2.749   7.169
 2234SOL    HW1 7154   1.009   2.679   7.133
 2234SOL    HW2 7155   0.907   2.783   7.093
 2235SOL     OW 7156   0.990   2.277   6.821
 2235SOL    HW1 7157   0.903   2.294   6.855
 2235SOL    HW2 7158   0.975   2.231   6.738
 2236SOL     OW 7159   1.050   2.561   6.011
 2236SOL    HW1 7160   1.061   2.559   6.107
 2236SOL    HW2 7161   0.969   2.513   5.996
 2237SOL     OW 7162   0.082   2.688   6.376
 2237SOL    HW1 7163   0.159   2.659   6.425
 2237SOL    HW2 7164   0.095   2.782   6.365
 2238SOL     OW 7165   0.127   3.714   7.161
 2238SOL    HW1 7166   0.134   3.683   7.251
 2238SOL    HW2 7167   0.035   3.702   7.139
 2239SOL     OW 7168   0.892   2.211   5.778
 2239SOL    HW1 7169   0.934   2.273   5.718
 2239SOL    HW2 7170   0.915   2.125   5.743
 2240SOL     OW 7171   1.377   3.007   6.126
 2240SOL    HW1 7172   1.455   2.993   6.072
 2240SOL    HW2 7173   1.324   3.068   6.075
 2241SOL     OW 7174   0.545   2.041   6.479
 2241SOL    HW1 7175   0.552   2.073   6.569
 2241SOL    HW2 7176   0.547   2.120   6.426
 2242SOL     OW 7177   1.006   3.307   6.058
 2242SOL    HW1 7178   0.967   3.380   6.009
 2242SOL    HW2 7179   0.988   3.327   6.150
 2243SOL     OW 7180   0.359   3.669   6.445
 2243SOL    HW1 7181   0.435   3.613   6.456
 2243SOL    HW2 7182   0.393   3.758   6.454
 2244SOL     OW 7183   1.798   2.937   6.454
 2244SOL    HW1 7184   1.752   2.902   6.377
 2244SOL    HW2 7185   1.733   2.935   6.524
 2245SOL     OW 7186   1.228   3.399   7.098
 2245SOL    HW1 7187   1.214   3.327   7.159
 2245SOL    HW2 7188   1.162   3.386   7.029
 2246SOL     OW 7189   0.311   2.817   5.828
 2246SOL    HW1 7190   0.395   2.840   5.789
 2246SOL    HW2 7191   0.297   2.726   5.803
 2247SOL     OW 7192   1.465   2.625   6.312
 2247SOL    HW1 7193   1.476   2.536   6.343
 2247SOL    HW2 7194   1.554   2.658   6.300
 2248SOL     OW 7195   0.466   3.121   7.323
 2248SOL    HW1 7196   0.440   3.130   7.231
 2248SOL    HW2 7197   0.384   3.127   7.372
 2249SOL     OW 7198   1.113   3.642   5.809
 2249SOL    HW1 7199   1.050   3.595   5.864
 2249SOL    HW2 7200   1.143   3.577   5.745
 2250SOL     OW 7201   0.204   2.140   7.094
 2250SOL    HW1 7202   0.114   2.171   7.084
 2250SOL    HW2 7203   0.195   2.055   7.137
 2251SOL     OW 7204   1.627   3.242   5.674
 2251SOL    HW1 7205   1.587   3.327   5.657
 2251SOL    HW2 7206   1.559   3.179   5.655
 2252SOL     OW 7207   0.469   3.600   5.907
 2252SOL    HW1 7208   0.507   3.663   5.968
 2252SOL    HW2 7209   0.542   3.573   5.852
 2253SOL     OW 7210   1.382   1.987   5.939
 2253SOL    HW1 7211   1.380   1.937   5.858
 2253SOL    HW2 7212   1.469   1.969   5.976
 2254SOL     OW 7213   0.251   3.656   6.815
 2254SOL    HW1 7214   0.298   3.591   6.868
 2254SOL    HW2 7215   0.248   3.617   6.727
 2255SOL     OW 7216   0.938   3.561   6.487
 2255SOL    HW1 7217   1.015   3.509   6.507
 2255SOL    HW2 7218   0.893   3.512   6.418
 2256SOL     OW 7219   0.397   2.555   6.058
 2256SOL    HW1 7220   0.423   2.465   6.072
 2256SOL    HW2 7221   0.305   2.558   6.085
 2257SOL     OW 7222   0.635   1.982   5.686
 2257SOL    HW1 7223   0.704   1.917   5.702
 2257SOL    HW2 7224   0.589   1.949   5.609
 2258SOL     OW 7225   0.766   2.140   7.340
 2258SOL    HW1 7226   0.842   2.082   7.342
 2258SOL    HW2 7227   0.719   2.120   7.421
 2259SOL     OW 7228   0.876   3.382   6.780
 2259SOL    HW1 7229   0.860   3.347   6.693
 2259SOL    HW2 7230   0.946   3.328   6.816
 2260SOL     OW 7231   1.350   2.455   7.027
 2260SOL    HW1 7232   1.412   2.425   7.094
 2260SOL    HW2 7233   1.373   2.546   7.012
 2261SOL     OW 7234   0.815   3.256   6.525
 2261SOL    HW1 7235   0.900   3.245   6.482
 2261SOL    HW2 7236   0.752   3.257   6.453
 2262SOL     OW 7237   0.930   2.373   6.488
 2262SOL    HW1 7238   0.906   2.364   6.396
 2262SOL    HW2 7239   0.954   2.285   6.516
 2263SOL     OW 7240   0.554   1.924   6.084
 2263SOL    HW1 7241   0.471   1.929   6.132
 2263SOL    HW2 7242   0.558   2.007   6.035
 2264SOL     OW 7243   1.428   3.060   5.627
 2264SOL    HW1 7244   1.459   2.984   5.676
 2264SOL    HW2 7245   1.342   3.080   5.664
 2265SOL     OW 7246   0.307   1.913   5.756
 2265SOL    HW1 7247   0.372   1.952   5.698
 2265SOL    HW2 7248   0.356   1.847   5.806
 2266SOL     OW 7249   0.937   2.108   6.047
 2266SOL    HW1 7250   0.905   2.149   5.967
 2266SOL    HW2 7251   1.031   2.124   6.046
 2267SOL     OW 7252   1.080   2.541   7.045
 2267SOL    HW1 7253   1.009   2.478   7.049
 2267SOL    HW2 7254   1.160   2.488   7.042
 2268SOL     OW 7255   1.223   3.432   6.380
 2268SOL    HW1 7256   1.239   3.500   6.314
 2268SOL    HW2 7257   1.291   3.445   6.445
 2269SOL     OW 7258   0.466   3.012   6.323
 2269SOL    HW1 7259   0.394   2.989   6.382
 2269SOL    HW2 7260   0.432   2.996   6.235
 2270SOL     OW 7261   1.268   3.658   6.192
 2270SOL    HW1 7262   1.314   3.722   6.138
 2270SOL    HW2 7263   1.197   3.707   6.234
 2271SOL     OW 7264   1.024   2.403   5.609
 2271SOL    HW1 7265   0.983   2.487   5.590
 2271SOL    HW2 7266   1.090   2.423   5.675
 2272SOL     OW 7267   0.081   2.433   6.976
 2272SOL    HW1 7268   0.171   2.420   6.946
 2272SOL    HW2 7269   0.088   2.503   7.041
 2273SOL     OW 7270   0.567   2.089   6.751
 2273SOL    HW1 7271   0.607   2.012   6.790
 2273SOL    HW2 7272   0.476   2.086   6.780
 2274SOL     OW 7273   0.870   2.322   6.225
 2274SOL    HW1 7274   0.821   2.375   6.163
 2274SOL    HW2 7275   0.889   2.240   6.178
 2275SOL     OW 7276   1.023   1.912   6.336
 2275SOL    HW1 7277   0.961   1.911   6.264
 2275SOL    HW2 7278   0.998   1.838   6.391
 2276SOL     OW 7279   1.436   3.026   6.443
 2276SOL    HW1 7280   1.368   2.958   6.440
 2276SOL    HW2 7281   1.464   3.036   6.352
 2277SOL     OW 7282   1.837   2.687   5.963
 2277SOL    HW1 7283   1.925   2.657   5.985
 2277SOL    HW2 7284   1.804   2.623   5.900
 2278SOL     OW 7285   0.489   3.279   5.746
 2278SOL    HW1 7286   0.413   3.249   5.797
 2278SOL    HW2 7287   0.469   3.255   5.656
 2279SOL     OW 7288   1.670   3.130   6.228
 2279SOL    HW1 7289   1.764   3.130   6.245
 2279SOL    HW2 7290   1.640   3.218   6.252
 2280SOL     OW 7291   1.393   2.436   5.655
 2280SOL    HW1 7292   1.337   2.414   5.730
 2280SOL    HW2 7293   1.481   2.414   5.683
 2281SOL     OW 7294   0.573   2.131   5.908
 2281SOL    HW1 7295   0.600   2.082   5.831
 2281SOL    HW2 7296   0.541   2.214   5.873
 2282SOL     OW 7297   1.753   3.102   7.162
 2282SOL    HW1 7298   1.840   3.063   7.158
 2282SOL    HW2 7299   1.769   3.193   7.188
 2283SOL     OW 7300   1.058   3.214   6.918
 2283SOL    HW1 7301   0.983   3.184   6.970
 2283SOL    HW2 7302   1.134   3.174   6.961
 2284SOL     OW 7303   1.609   3.488   7.241
 2284SOL    HW1 7304   1.601   3.521   7.151
 2284SOL    HW2 7305   1.692   3.441   7.242
 2285SOL     OW 7306   1.129   3.064   6.691
 2285SOL    HW1 7307   1.071   3.103   6.756
 2285SOL    HW2 7308   1.097   3.098   6.607
 2286SOL     OW 7309   1.623   2.962   6.659
 2286SOL    HW1 7310   1.619   3.023   6.733
 2286SOL    HW2 7311   1.545   2.983   6.607
 2287SOL     OW 7312   0.912   1.957   6.983
 2287SOL    HW1 7313   0.931   1.942   6.890
 2287SOL    HW2 7314   0.991   1.997   7.018
 2288SOL     OW 7315   0.984   2.977   7.308
 2288SOL    HW1 7316   0.892   2.992   7.330
 2288SOL    HW2 7317   0.983   2.899   7.253
 2289SOL     OW 7318   0.708   2.922   5.957
 2289SOL    HW1 7319   0.694   2.907   6.050
 2289SOL    HW2 7320   0.784   2.869   5.934
 2290SOL     OW 7321   0.421   2.677   6.838
 2290SOL    HW1 7322   0.489   2.685   6.904
 2290SOL    HW2 7323   0.386   2.589   6.850
 2291SOL     OW 7324   1.261   2.238   6.880
 2291SOL    HW1 7325   1.291   2.320   6.919
 2291SOL    HW2 7326   1.176   2.259   6.842
 2292SOL     OW 7327   0.065   3.441   6.931
 2292SOL    HW1 7328   0.069   3.504   6.859
 2292SOL    HW2 7329   0.156   3.428   6.957
 2293SOL     OW 7330   0.373   2.964   6.071
 2293SOL    HW1 7331   0.367   3.043   6.017
 2293SOL    HW2 7332   0.372   2.892   6.007
 2294SOL     OW 7333   0.551   2.400   6.448
 2294SOL    HW1 7334   0.567   2.456   6.372
 2294SOL    HW2 7335   0.618   2.426   6.511
 2295SOL     OW 7336   1.248   3.211   5.975
 2295SOL    HW1 7337   1.304   3.282   6.006
 2295SOL    HW2 7338   1.161   3.232   6.009
 2296SOL     OW 7339   1.281   3.320   6.733
 2296SOL    HW1 7340   1.338   3.324   6.811
 2296SOL    HW2 7341   1.225   3.244   6.748
 2297SOL     OW 7342   1.538   2.496   6.006
 2297SOL    HW1 7343   1.515   2.543   6.086
 2297SOL    HW2 7344   1.608   2.547   5.966
 2298SOL     OW 7345   0.345   3.388   6.905
 2298SOL    HW1 7346   0.335   3.338   6.824
 2298SOL    HW2 7347   0.439   3.404   6.912
 2299SOL     OW 7348   0.414   2.602   7.187
 2299SOL    HW1 7349   0.476   2.647   7.130
 2299SOL    HW2 7350   0.454   2.517   7.204
 2300SOL     OW 7351   1.558   2.667   7.286
 2300SOL    HW1 7352   1.481   2.719   7.264
 2300SOL    HW2 7353   1.620   2.685   7.216
 2301SOL     OW 7354   0.995   1.985   7.342
 2301SOL    HW1 7355   1.050   2.056   7.309
 2301SOL    HW2 7356   1.042   1.906   7.318
 2302SOL     OW 7357   0.498   1.899   7.331
 2302SOL    HW1 7358   0.454   1.846   7.264
 2302SOL    HW2 7359   0.442   1.976   7.340
 2303SOL     OW 7360   0.585   2.735   6.618
 2303SOL    HW1 7361   0.615   2.826   6.616
 2303SOL    HW2 7362   0.529   2.730   6.695
 2304SOL     OW 7363   1.357   2.721   6.618
 2304SOL    HW1 7364   1.280   2.715   6.562
 2304SOL    HW2 7365   1.382   2.630   6.636
 2305SOL     OW 7366   1.201   2.391   5.850
 2305SOL    HW1 7367   1.207   2.312   5.903
 2305SOL    HW2 7368   1.161   2.456   5.908
 2306SOL     OW 7369   0.311   2.060   6.834
 2306SOL    HW1 7370   0.264   2.097   6.908
 2306SOL    HW2 7371   0.287   1.967   6.834
 2307SOL     OW 7372   0.059   3.167   6.866
 2307SOL    HW1 7373   0.090   3.127   6.947
 2307SOL    HW2 7374   0.051   3.260   6.886
 2308SOL     OW 7375   0.725   2.494   6.644
 2308SOL    HW1 7376   0.799   2.477   6.585
 2308SOL    HW2 7377   0.697   2.582   6.622
 2309SOL     OW 7378   1.730   2.823   7.445
 2309SOL    HW1 7379   1.676   2.774   7.384
 2309SOL    HW2 7380   1.673   2.841   7.519
 2310SOL     OW 7381   0.312   1.925   6.207
 2310SOL    HW1 7382   0.292   2.016   6.228
 2310SOL    HW2 7383   0.317   1.881   6.291
 2311SOL     OW 7384   1.637   2.244   5.923
 2311SOL    HW1 7385   1.644   2.172   5.986
 2311SOL    HW2 7386   1.597   2.315   5.973
 2312SOL     OW 7387   1.029   2.621   6.548
 2312SOL    HW1 7388   1.024   2.638   6.642
 2312SOL    HW2 7389   1.001   2.530   6.539
 2313SOL     OW 7390   0.985   3.429   7.304
 2313SOL    HW1 7391   0.967   3.472   7.221
 2313SOL    HW2 7392   1.027   3.346   7.281
 2314SOL     OW 7393   1.855   3.368   7.191
 2314SOL    HW1 7394   1.873   3.395   7.101
 2314SOL    HW2 7395   1.936   3.386   7.239
 2315SOL     OW 7396   0.352   2.782   7.387
 2315SOL    HW1 7397   0.431   2.803   7.437
 2315SOL    HW2 7398   0.380   2.716   7.324
 2316SOL     OW 7399   1.529   2.134   5.700
 2316SOL    HW1 7400   1.461   2.076   5.734
 2316SOL    HW2 7401   1.568   2.173   5.778
 2317SOL     OW 7402   1.291   2.689   5.617
 2317SOL    HW1 7403   1.333   2.603   5.621
 2317SOL    HW2 7404   1.322   2.727   5.535
 2318SOL     OW 7405   1.066   3.198   6.441
 2318SOL    HW1 7406   1.068   3.126   6.378
 2318SOL    HW2 7407   1.127   3.263   6.405
 2319SOL     OW 7408   0.314   2.666   6.536
 2319SOL    HW1 7409   0.407   2.684   6.529
 2319SOL    HW2 7410   0.308   2.576   6.569
 2320SOL     OW 7411   0.331   2.382   6.600
 2320SOL    HW1 7412   0.297   2.294   6.582
 2320SOL    HW2 7413   0.407   2.390   6.542
 2321SOL     OW 7414   1.130   2.247   7.264
 2321SOL    HW1 7415   1.079   2.295   7.329
 2321SOL    HW2 7416   1.212   2.296   7.257
 2322SOL     OW 7417   1.150   2.064   7.056
 2322SOL    HW1 7418   1.143   2.127   7.127
 2322SOL    HW2 7419   1.197   2.111   6.987
 2323SOL     OW 7420   3.999   3.182   5.768
 2323SOL    HW1 7421   3.905   3.197   5.772
 2323SOL    HW2 7422   0.009   3.088   5.787
 2324SOL     OW 7423   0.075   3.663   6.480
 2324SOL    HW1 7424   0.087   3.568   6.482
 2324SOL    HW2 7425   0.164   3.698   6.477
 2325SOL     OW 7426   0.507   3.427   6.501
 2325SOL    HW1 7427   0.574   3.493   6.522
 2325SOL    HW2 7428   0.550   3.368   6.440
 2326SOL     OW 7429   0.983   2.653   6.813
 2326SOL    HW1 7430   1.037   2.630   6.888
 2326SOL    HW2 7431   0.897   2.616   6.834
 2327SOL     OW 7432   0.037   2.417   6.696
 2327SOL    HW1 7433   0.119   2.392   6.653
 2327SOL    HW2 7434   0.057   2.414   6.789
 2328SOL     OW 7435   0.207   2.376   7.313
 2328SOL    HW1 7436   0.248   2.330   7.240
 2328SOL    HW2 7437   0.157   2.447   7.273
 2329SOL     OW 7438   1.345   2.819   7.236
 2329SOL    HW1 7439   1.377   2.909   7.234
 2329SOL    HW2 7440   1.347   2.791   7.144
 2330SOL     OW 7441   0.817   2.430   5.945
 2330SOL    HW1 7442   0.821   2.355   5.886
 2330SOL    HW2 7443   0.743   2.482   5.913
 2331SOL     OW 7444   1.669   2.505   6.819
 2331SOL    HW1 7445   1.677   2.431   6.879
 2331SOL    HW2 7446   1.716   2.477   6.741
 2332SOL     OW 7447   0.298   3.409   7.315
 2332SOL    HW1 7448   0.248   3.478   7.358
 2332SOL    HW2 7449   0.264   3.328   7.354
 2333SOL     OW 7450   0.702   2.313   6.846
 2333SOL    HW1 7451   0.651   2.239   6.815
 2333SOL    HW2 7452   0.698   2.376   6.773
 2334SOL     OW 7453   0.930   3.535   7.054
 2334SOL    HW1 7454   0.902   3.499   6.969
 2334SOL    HW2 7455   0.922   3.630   7.043
 2335SOL     OW 7456   0.458   2.352   5.779
 2335SOL    HW1 7457   0.523   2.420   5.798
 2335SOL    HW2 7458   0.378   2.401   5.759
 2336SOL     OW 7459   0.157   2.998   7.060
 2336SOL    HW1 7460   0.158   2.947   7.141
 2336SOL    HW2 7461   0.171   2.934   6.990
 2337SOL     OW 7462   1.325   2.910   6.810
 2337SOL    HW1 7463   1.351   2.850   6.740
 2337SOL    HW2 7464   1.254   2.961   6.771
 2338SOL     OW 7465   1.307   2.727   5.891
 2338SOL    HW1 7466   1.236   2.688   5.942
 2338SOL    HW2 7467   1.285   2.708   5.800
 2339SOL     OW 7468   1.770   3.606   6.735
 2339SOL    HW1 7469   1.832   3.633   6.668
 2339SOL    HW2 7470   1.748   3.515   6.713
 2340SOL     OW 7471   1.243   3.595   6.698
 2340SOL    HW1 7472   1.326   3.616   6.653
 2340SOL    HW2 7473   1.248   3.502   6.717
 2341SOL     OW 7474   0.075   3.077   6.613
 2341SOL    HW1 7475   0.082   3.104   6.705
 2341SOL    HW2 7476   3.982   3.086   6.593
 2342SOL     OW 7477   0.679   3.526   7.315
 2342SOL    HW1 7478   0.622   3.603   7.319
 2342SOL    HW2 7479   0.738   3.543   7.242
 2343SOL     OW 7480   1.674   1.986   6.046
 2343SOL    HW1 7481   1.769   1.991   6.051
 2343SOL    HW2 7482   1.651   1.909   6.098
 2344SOL     OW 7483   1.390   3.431   6.071
 2344SOL    HW1 7484   1.450   3.463   6.004
 2344SOL    HW2 7485   1.343   3.508   6.101
 2345SOL     OW 7486   0.168   3.626   7.417
 2345SOL    HW1 7487   0.112   3.574   7.475
 2345SOL    HW2 7488   0.215   3.685   7.476
 2346SOL     OW 7489   1.268   2.798   6.255
 2346SOL    HW1 7490   1.341   2.738   6.270
 2346SOL    HW2 7491   1.305   2.868   6.202
 2347SOL     OW 7492   0.814   3.135   7.016
 2347SOL    HW1 7493   0.785   3.175   7.099
 2347SOL    HW2 7494   0.743   3.155   6.954
 2348SOL     OW 7495   0.675   3.477   5.743
 2348SOL    HW1 7496   0.682   3.493   5.649
 2348SOL    HW2 7497   0.617   3.401   5.750
 2349SOL     OW 7498   1.625   3.588   6.976
 2349SOL    HW1 7499   1.676   3.594   6.895
 2349SOL    HW2 7500   1.612   3.679   7.003
 2350SOL     OW 7501   0.268   2.176   6.303
 2350SOL    HW1 7502   0.182   2.210   6.277
 2350SOL    HW2 7503   0.261   2.166   6.398
 2351SOL     OW 7504   1.207   3.468   5.621
 2351SOL    HW1 7505   1.197   3.376   5.645
 2351SOL    HW2 7506   1.146   3.480   5.548
 2352SOL     OW 7507   0.824   2.868   6.958
 2352SOL    HW1 7508   0.867   2.864   6.873
 2352SOL    HW2 7509   0.823   2.961   6.981
 2353SOL     OW 7510   0.916   2.772   5.876
 2353SOL    HW1 7511   0.976   2.804   5.809
 2353SOL    HW2 7512   0.964   2.703   5.921
 2354SOL     OW 7513   1.490   3.489   5.628
 2354SOL    HW1 7514   1.396   3.480   5.612
 2354SOL    HW2 7515   1.529   3.495   5.540
 2355SOL     OW 7516   0.374   3.165   7.077
 2355SOL    HW1 7517   0.359   3.245   7.027
 2355SOL    HW2 7518   0.296   3.111   7.060
 2356SOL     OW 7519   1.609   3.144   6.865
 2356SOL    HW1 7520   1.670   3.132   6.937
 2356SOL    HW2 7521   1.550   3.214   6.895
 2357SOL     OW 7522   1.049   2.972   6.292
 2357SOL    HW1 7523   0.980   2.919   6.331
 2357SOL    HW2 7524   1.114   2.908   6.263
 2358SOL     OW 7525   1.000   2.107   6.555
 2358SOL    HW1 7526   1.013   2.062   6.472
 2358SOL    HW2 7527   1.001   2.038   6.621
 2359SOL     OW 7528   0.604   3.352   6.067
 2359SOL    HW1 7529   0.648   3.302   5.998
 2359SOL    HW2 7530   0.534   3.399   6.021
 2360SOL     OW 7531   1.728   2.267   6.957
 2360SOL    HW1 7532   1.788   2.307   7.020
 2360SOL    HW2 7533   1.749   2.173   6.961
 2361SOL     OW 7534   0.253   3.203   5.877
 2361SOL    HW1 7535   0.160   3.213   5.857
 2361SOL    HW2 7536   0.263   3.241   5.964
 2362SOL     OW 7537   0.106   2.861   7.303
 2362SOL    HW1 7538   0.045   2.852   7.376
 2362SOL    HW2 7539   0.192   2.842   7.341
 2363SOL     OW 7540   0.672   2.059   7.086
 2363SOL    HW1 7541   0.756   2.038   7.045
 2363SOL    HW2 7542   0.696   2.090   7.174
 2364SOL     OW 7543   0.081   2.179   5.623
 2364SOL    HW1 7544   3.985   2.179   5.629
 2364SOL    HW2 7545   0.101   2.260   5.575
 2365SOL     OW 7546   1.426   2.721   6.984
 2365SOL    HW1 7547   1.381   2.784   6.928
 2365SOL    HW2 7548   1.518   2.729   6.961
 2366SOL     OW 7549   0.021   2.089   5.958
 2366SOL    HW1 7550   0.045   2.155   5.893
 2366SOL    HW2 7551   0.105   2.053   5.987
 2367SOL     OW 7552   1.178   3.201   5.703
 2367SOL    HW1 7553   1.087   3.171   5.705
 2367SOL    HW2 7554   1.206   3.200   5.794
 2368SOL     OW 7555   0.619   2.692   7.021
 2368SOL    HW1 7556   0.675   2.768   7.006
 2368SOL    HW2 7557   0.680   2.619   7.029
 2369SOL     OW 7558   1.485   3.640   6.566
 2369SOL    HW1 7559   1.510   3.696   6.492
 2369SOL    HW2 7560   1.568   3.618   6.608
 2370SOL     OW 7561   0.717   2.426   7.291
 2370SOL    HW1 7562   0.759   2.488   7.350
 2370SOL    HW2 7563   0.745   2.340   7.323
 2371SOL     OW 7564   1.472   3.064   7.217
 2371SOL    HW1 7565   1.462   3.076   7.312
 2371SOL    HW2 7566   1.566   3.077   7.202
 2372SOL     OW 7567   0.379   3.606   7.145
 2372SOL    HW1 7568   0.291   3.641   7.132
 2372SOL    HW2 7569   0.364   3.523   7.192
 2373SOL     OW 7570   1.673   2.769   6.853
 2373SOL    HW1 7571   1.672   2.678   6.824
 2373SOL    HW2 7572   1.661   2.820   6.772
 2374SOL     OW 7573   1.206   2.183   6.038
 2374SOL    HW1 7574   1.270   2.114   6.021
 2374SOL    HW2 7575   1.237   2.227   6.117
 2375SOL     OW 7576   0.590   2.601   6.257
 2375SOL    HW1 7577   0.629   2.687   6.241
 2375SOL    HW2 7578   0.522   2.592   6.189
 2376SOL     OW 7579   1.729   2.796   7.112
 2376SOL    HW1 7580   1.743   2.889   7.127
 2376SOL    HW2 7581   1.722   2.787   7.017
 2377SOL     OW 7582   0.864   3.229   5.621
 2377SOL    HW1 7583   0.822   3.258   5.703
 2377SOL    HW2 7584   0.880   3.311   5.573
 2378SOL     OW 7585   0.659   3.652   6.525
 2378SOL    HW1 7586   0.636   3.743   6.505
 2378SOL    HW2 7587   0.754   3.650   6.522
 2379SOL     OW 7588   0.867   2.828   6.441
 2379SOL    HW1 7589   0.918   2.757   6.482
 2379SOL    HW2 7590   0.832   2.878   6.515
 2380SOL     OW 7591   1.077   2.849   5.673
 2380SOL    HW1 7592   1.057   2.901   5.595
 2380SOL    HW2 7593   1.153   2.797   5.649
 2381SOL     OW 7594   1.853   3.415   6.429
 2381SOL    HW1 7595   1.774   3.403   6.377
 2381SOL    HW2 7596   1.847   3.349   6.498
 2382SOL     OW 7597   0.224   3.166   7.441
 2382SOL    HW1 7598   0.153   3.108   7.415
 2382SOL    HW2 7599   0.212   3.179   7.535
 2383SOL     OW 7600   0.112   3.137   6.304
 2383SOL    HW1 7601   0.126   3.087   6.385
 2383SOL    HW2 7602   0.108   3.071   6.235
 2384SOL     OW 7603   0.681   3.265   7.215
 2384SOL    HW1 7604   0.600   3.223   7.244
 2384SOL    HW2 7605   0.677   3.353   7.251
 2385SOL     OW 7606   0.441   2.296   6.119
 2385SOL    HW1 7607   0.444   2.227   6.054
 2385SOL    HW2 7608   0.386   2.261   6.189
 2386SOL     OW 7609   1.700   3.351   6.681
 2386SOL    HW1 7610   1.619   3.327   6.637
 2386SOL    HW2 7611   1.713   3.282   6.746
 2387SOL     OW 7612   0.333   2.417   6.877
 2387SOL    HW1 7613   0.388   2.361   6.932
 2387SOL    HW2 7614   0.348   2.387   6.788
 2388SOL     OW 7615   0.827   3.441   6.263
 2388SOL    HW1 7616   0.815   3.491   6.182
 2388SOL    HW2 7617   0.751   3.382   6.267
 2389SOL     OW 7618   0.997   1.881   6.726
 2389SOL    HW1 7619   0.953   1.809   6.683
 2389SOL    HW2 7620   1.088   1.852   6.734
 2390SOL     OW 7621   0.772   3.194   5.902
 2390SOL    HW1 7622   0.740   3.104   5.907
 2390SOL    HW2 7623   0.855   3.193   5.950
 2391SOL     OW 7624   0.620   3.417   6.871
 2391SOL    HW1 7625   0.622   3.498   6.921
 2391SOL    HW2 7626   0.708   3.410   6.833
 2392SOL     OW 7627   1.343   1.896   5.692
 2392SOL    HW1 7628   1.358   1.823   5.631
 2392SOL    HW2 7629   1.258   1.877   5.731
 2393SOL     OW 7630   1.261   2.353   6.263
 2393SOL    HW1 7631   1.210   2.433   6.255
 2393SOL    HW2 7632   1.248   2.325   6.354
 2394SOL     OW 7633   0.046   2.913   5.825
 2394SOL    HW1 7634   0.140   2.897   5.817
 2394SOL    HW2 7635   0.011   2.831   5.861
 2395SOL     OW 7636   0.884   3.518   5.930
 2395SOL    HW1 7637   0.814   3.498   5.869
 2395SOL    HW2 7638   0.853   3.594   5.979
 2396SOL     OW 7639   0.231   2.485   7.568
 2396SOL    HW1 7640   0.138   2.493   7.589
 2396SOL    HW2 7641   0.233   2.455   7.477
 2397SOL     OW 7642   0.229   2.133   8.435
 2397SOL    HW1 7643   0.249   2.101   8.522
 2397SOL    HW2 7644   0.134   2.125   8.428
 2398SOL     OW 7645   0.011   2.223   8.079
 2398SOL    HW1 7646   3.924   2.241   8.114
 2398SOL    HW2 7647   3.995   2.189   7.991
 2399SOL     OW 7648   0.577   3.147   8.633
 2399SOL    HW1 7649   0.491   3.151   8.592
 2399SOL    HW2 7650   0.593   3.235   8.667
 2400SOL     OW 7651   1.561   3.373   8.155
 2400SOL    HW1 7652   1.518   3.352   8.239
 2400SOL    HW2 7653   1.489   3.377   8.092
 2401SOL     OW 7654   1.131   2.560   8.151
 2401SOL    HW1 7655   1.180   2.641   8.136
 2401SOL    HW2 7656   1.084   2.575   8.233
 2402SOL     OW 7657   0.756   3.003   8.488
 2402SOL    HW1 7658   0.690   3.037   8.548
 2402SOL    HW2 7659   0.791   3.080   8.443
 2403SOL     OW 7660   0.867   2.636   9.270
 2403SOL    HW1 7661   0.857   2.707   9.333
 2403SOL    HW2 7662   0.890   2.679   9.188
 2404SOL     OW 7663   0.686   2.865   8.095
 2404SOL    HW1 7664   0.751   2.853   8.164
 2404SOL    HW2 7665   0.616   2.917   8.137
 2405SOL     OW 7666   0.710   3.012   9.262
 2405SOL    HW1 7667   0.758   3.091   9.288
 2405SOL    HW2 7668   0.628   3.045   9.226
 2406SOL     OW 7669   0.351   3.264   8.526
 2406SOL    HW1 7670   0.268   3.250   8.479
 2406SOL    HW2 7671   0.400   3.323   8.469
 2407SOL     OW 7672   1.461   3.362   8.802
 2407SOL    HW1 7673   1.512   3.442   8.812
 2407SOL    HW2 7674   1.397   3.364   8.874
 2408SOL     OW 7675   0.450   2.262   8.938
 2408SOL    HW1 7676   0.525   2.202   8.940
 2408SOL    HW2 7677   0.373   2.206   8.950
 2409SOL     OW 7678   1.608   2.309   8.190
 2409SOL    HW1 7679   1.528   2.324   8.139
 2409SOL    HW2 7680   1.617   2.388   8.243
 2410SOL     OW 7681   0.225   3.571   7.914
 2410SOL    HW1 7682   0.228   3.652   7.965
 2410SOL    HW2 7683   0.301   3.575   7.857
 2411SOL     OW 7684   1.137   3.203   9.141
 2411SOL    HW1 7685   1.177   3.198   9.227
 2411SOL    HW2 7686   1.084   3.124   9.134
 2412SOL     OW 7687   0.248   3.305   7.988
 2412SOL    HW1 7688   0.220   3.396   7.974
 2412SOL    HW2 7689   0.178   3.267   8.041
 2413SOL     OW 7690   0.246   2.930   8.332
 2413SOL    HW1 7691   0.265   2.846   8.373
 2413SOL    HW2 7692   0.194   2.978   8.397
 2414SOL     OW 7693   0.613   3.648   8.877
 2414SOL    HW1 7694   0.530   3.634   8.923
 2414SOL    HW2 7695   0.638   3.737   8.902
 2415SOL     OW 7696   0.580   2.846   7.584
 2415SOL    HW1 7697   0.627   2.892   7.515
 2415SOL    HW2 7698   0.622   2.875   7.665
 2416SOL     OW 7699   1.587   1.990   8.910
 2416SOL    HW1 7700   1.579   2.075   8.867
 2416SOL    HW2 7701   1.580   2.011   9.004
 2417SOL     OW 7702   0.141   2.512   8.022
 2417SOL    HW1 7703   0.086   2.433   8.022
 2417SOL    HW2 7704   0.105   2.566   8.092
 2418SOL     OW 7705   1.842   3.613   7.786
 2418SOL    HW1 7706   1.908   3.588   7.850
 2418SOL    HW2 7707   1.864   3.703   7.762
 2419SOL     OW 7708   0.041   3.454   7.588
 2419SOL    HW1 7709   0.033   3.362   7.611
 2419SOL    HW2 7710   3.961   3.495   7.622
 2420SOL     OW 7711   1.689   2.781   8.089
 2420SOL    HW1 7712   1.773   2.740   8.068
 2420SOL    HW2 7713   1.667   2.831   8.011
 2421SOL     OW 7714   1.646   2.969   7.878
 2421SOL    HW1 7715   1.731   2.976   7.835
 2421SOL    HW2 7716   1.651   3.030   7.951
 2422SOL     OW 7717   0.136   2.614   9.038
 2422SOL    HW1 7718   0.231   2.608   9.038
 2422SOL    HW2 7719   0.117   2.705   9.062
 2423SOL     OW 7720   0.614   3.247   8.182
 2423SOL    HW1 7721   0.567   3.164   8.192
 2423SOL    HW2 7722   0.597   3.274   8.092
 2424SOL     OW 7723   1.288   3.100   8.871
 2424SOL    HW1 7724   1.321   3.032   8.811
 2424SOL    HW2 7725   1.346   3.094   8.947
 2425SOL     OW 7726   0.817   1.862   7.958
 2425SOL    HW1 7727   0.858   1.946   7.938
 2425SOL    HW2 7728   0.724   1.880   7.965
 2426SOL     OW 7729   0.185   2.814   8.726
 2426SOL    HW1 7730   0.273   2.779   8.712
 2426SOL    HW2 7731   0.132   2.773   8.658
 2427SOL     OW 7732   1.530   2.856   7.650
 2427SOL    HW1 7733   1.459   2.800   7.681
 2427SOL    HW2 7734   1.570   2.891   7.729
 2428SOL     OW 7735   1.213   3.664   9.074
 2428SOL    HW1 7736   1.194   3.725   9.002
 2428SOL    HW2 7737   1.215   3.578   9.033
 2429SOL     OW 7738   0.339   2.109   9.262
 2429SOL    HW1 7739   0.378   2.196   9.269
 2429SOL    HW2 7740   0.248   2.122   9.287
 2430SOL     OW 7741   1.466   3.282   8.399
 2430SOL    HW1 7742   1.398   3.297   8.465
 2430SOL    HW2 7743   1.454   3.190   8.373
 2431SOL     OW 7744   1.656   3.600   8.028
 2431SOL    HW1 7745   1.641   3.570   7.939
 2431SOL    HW2 7746   1.632   3.525   8.083
 2432SOL     OW 7747   0.596   2.580   7.712
 2432SOL    HW1 7748   0.603   2.663   7.665
 2432SOL    HW2 7749   0.533   2.597   7.782
 2433SOL     OW 7750   1.279   2.218   8.383
 2433SOL    HW1 7751   1.191   2.182   8.391
 2433SOL    HW2 7752   1.333   2.162   8.439
 2434SOL     OW 7753   1.578   3.536   7.756
 2434SOL    HW1 7754   1.670   3.562   7.751
 2434SOL    HW2 7755   1.553   3.516   7.666
 2435SOL     OW 7756   0.792   2.480   8.900
 2435SOL    HW1 7757   0.765   2.455   8.988
 2435SOL    HW2 7758   0.752   2.413   8.844
 2436SOL     OW 7759   1.394   2.335   9.125
 2436SOL    HW1 7760   1.396   2.380   9.209
 2436SOL    HW2 7761   1.458   2.264   9.134
 2437SOL     OW 7762   0.954   2.749   9.031
 2437SOL    HW1 7763   1.009   2.679   8.995
 2437SOL    HW2 7764   0.906   2.783   8.955
 2438SOL     OW 7765   0.992   2.274   8.687
 2438SOL    HW1 7766   0.906   2.295   8.723
 2438SOL    HW2 7767   0.973   2.229   8.604
 2439SOL     OW 7768   1.047   2.567   7.880
 2439SOL    HW1 7769   1.064   2.556   7.974
 2439SOL    HW2 7770   0.967   2.517   7.864
 2440SOL     OW 7771   0.082   2.688   8.239
 2440SOL    HW1 7772   0.159   2.659   8.287
 2440SOL    HW2 7773   0.095   2.782   8.227
 2441SOL     OW 7774   0.127   3.714   9.023
 2441SOL    HW1 7775   0.134   3.683   9.113
 2441SOL    HW2 7776   0.035   3.702   9.001
 2442SOL     OW 7777   0.891   2.210   7.641
 2442SOL    HW1 7778   0.937   2.272   7.585
 2442SOL    HW2 7779   0.913   2.124   7.605
 2443SOL     OW 7780   1.706   2.440   9.281
 2443SOL    HW1 7781   1.670   2.510   9.227
 2443SOL    HW2 7782   1.736   2.374   9.218
 2444SOL     OW 7783   1.377   3.004   7.990
 2444SOL    HW1 7784   1.455   2.991   7.936
 2444SOL    HW2 7785   1.324   3.066   7.939
 2445SOL     OW 7786   0.545   2.041   8.341
 2445SOL    HW1 7787   0.552   2.073   8.431
 2445SOL    HW2 7788   0.547   2.120   8.287
 2446SOL     OW 7789   1.006   3.307   7.920
 2446SOL    HW1 7790   0.967   3.380   7.871
 2446SOL    HW2 7791   0.987   3.327   8.012
 2447SOL     OW 7792   0.359   3.669   8.307
 2447SOL    HW1 7793   0.435   3.613   8.318
 2447SOL    HW2 7794   0.393   3.758   8.316
 2448SOL     OW 7795   1.799   2.917   8.316
 2448SOL    HW1 7796   1.744   2.900   8.240
 2448SOL    HW2 7797   1.737   2.924   8.389
 2449SOL     OW 7798   1.228   3.399   8.959
 2449SOL    HW1 7799   1.214   3.327   9.020
 2449SOL    HW2 7800   1.162   3.386   8.891
 2450SOL     OW 7801   0.311   2.817   7.690
 2450SOL    HW1 7802   0.395   2.840   7.651
 2450SOL    HW2 7803   0.297   2.726   7.665
 2451SOL     OW 7804   1.482   2.600   8.171
 2451SOL    HW1 7805   1.470   2.561   8.257
 2451SOL    HW2 7806   1.557   2.659   8.181
 2452SOL     OW 7807   0.466   3.121   9.185
 2452SOL    HW1 7808   0.440   3.130   9.093
 2452SOL    HW2 7809   0.384   3.127   9.234
 2453SOL     OW 7810   1.113   3.642   7.671
 2453SOL    HW1 7811   1.050   3.595   7.726
 2453SOL    HW2 7812   1.143   3.578   7.607
 2454SOL     OW 7813   0.204   2.140   8.956
 2454SOL    HW1 7814   0.114   2.171   8.946
 2454SOL    HW2 7815   0.195   2.055   8.999
 2455SOL     OW 7816   1.628   3.242   7.538
 2455SOL    HW1 7817   1.588   3.327   7.520
 2455SOL    HW2 7818   1.559   3.179   7.517
 2456SOL     OW 7819   0.469   3.600   7.769
 2456SOL    HW1 7820   0.507   3.663   7.830
 2456SOL    HW2 7821   0.542   3.573   7.714
 2457SOL     OW 7822   1.392   1.976   7.873
 2457SOL    HW1 7823   1.388   1.992   7.779
 2457SOL    HW2 7824   1.485   1.985   7.895
 2458SOL     OW 7825   0.251   3.656   8.677
 2458SOL    HW1 7826   0.298   3.591   8.730
 2458SOL    HW2 7827   0.248   3.617   8.589
 2459SOL     OW 7828   0.937   3.561   8.349
 2459SOL    HW1 7829   1.015   3.509   8.369
 2459SOL    HW2 7830   0.893   3.512   8.280
 2460SOL     OW 7831   0.397   2.556   7.920
 2460SOL    HW1 7832   0.423   2.465   7.934
 2460SOL    HW2 7833   0.305   2.558   7.947
 2461SOL     OW 7834   1.537   2.086   9.173
 2461SOL    HW1 7835   1.550   2.107   9.265
 2461SOL    HW2 7836   1.466   2.021   9.172
 2462SOL     OW 7837   0.635   1.982   7.548
 2462SOL    HW1 7838   0.703   1.916   7.564
 2462SOL    HW2 7839   0.589   1.950   7.471
 2463SOL     OW 7840   0.766   2.140   9.202
 2463SOL    HW1 7841   0.843   2.082   9.203
 2463SOL    HW2 7842   0.718   2.117   9.282
 2464SOL     OW 7843   0.876   3.382   8.642
 2464SOL    HW1 7844   0.860   3.347   8.555
 2464SOL    HW2 7845   0.946   3.328   8.678
 2465SOL     OW 7846   1.341   2.450   8.880
 2465SOL    HW1 7847   1.371   2.419   8.965
 2465SOL    HW2 7848   1.377   2.539   8.873
 2466SOL     OW 7849   0.815   3.256   8.387
 2466SOL    HW1 7850   0.900   3.245   8.344
 2466SOL    HW2 7851   0.752   3.257   8.316
 2467SOL     OW 7852   0.928   2.371   8.351
 2467SOL    HW1 7853   0.904   2.364   8.258
 2467SOL    HW2 7854   0.959   2.284   8.375
 2468SOL     OW 7855   0.554   1.924   7.946
 2468SOL    HW1 7856   0.472   1.929   7.994
 2468SOL    HW2 7857   0.558   2.007   7.897
 2469SOL     OW 7858   1.428   3.060   7.489
 2469SOL    HW1 7859   1.457   2.985   7.540
 2469SOL    HW2 7860   1.342   3.082   7.525
 2470SOL     OW 7861   0.307   1.912   7.618
 2470SOL    HW1 7862   0.372   1.952   7.560
 2470SOL    HW2 7863   0.356   1.847   7.668
 2471SOL     OW 7864   0.939   2.108   7.909
 2471SOL    HW1 7865   0.908   2.150   7.829
 2471SOL    HW2 7866   1.033   2.125   7.911
 2472SOL     OW 7867   1.080   2.543   8.907
 2472SOL    HW1 7868   1.012   2.476   8.912
 2472SOL    HW2 7869   1.162   2.493   8.901
 2473SOL     OW 7870   1.223   3.432   8.241
 2473SOL    HW1 7871   1.239   3.500   8.176
 2473SOL    HW2 7872   1.291   3.445   8.307
 2474SOL     OW 7873   0.466   3.012   8.185
 2474SOL    HW1 7874   0.394   2.989   8.243
 2474SOL    HW2 7875   0.432   2.996   8.097
 2475SOL     OW 7876   1.268   3.658   8.054
 2475SOL    HW1 7877   1.314   3.722   8.000
 2475SOL    HW2 7878   1.197   3.707   8.096
 2476SOL     OW 7879   1.027   2.404   7.467
 2476SOL    HW1 7880   0.986   2.490   7.456
 2476SOL    HW2 7881   1.084   2.414   7.543
 2477SOL     OW 7882   0.081   2.433   8.838
 2477SOL    HW1 7883   0.170   2.420   8.808
 2477SOL    HW2 7884   0.088   2.503   8.903
 2478SOL     OW 7885   0.567   2.089   8.612
 2478SOL    HW1 7886   0.607   2.012   8.652
 2478SOL    HW2 7887   0.476   2.086   8.642
 2479SOL     OW 7888   0.868   2.321   8.088
 2479SOL    HW1 7889   0.821   2.374   8.024
 2479SOL    HW2 7890   0.889   2.240   8.041
 2480SOL     OW 7891   1.016   1.915   8.200
 2480SOL    HW1 7892   0.959   1.910   8.123
 2480SOL    HW2 7893   0.992   1.839   8.253
 2481SOL     OW 7894   1.437   3.025   8.305
 2481SOL    HW1 7895   1.368   2.959   8.305
 2481SOL    HW2 7896   1.460   3.035   8.213
 2482SOL     OW 7897   1.466   2.468   8.424
 2482SOL    HW1 7898   1.414   2.387   8.426
 2482SOL    HW2 7899   1.525   2.461   8.499
 2483SOL     OW 7900   1.837   2.671   7.828
 2483SOL    HW1 7901   1.898   2.621   7.882
 2483SOL    HW2 7902   1.841   2.628   7.742
 2484SOL     OW 7903   0.489   3.279   7.608
 2484SOL    HW1 7904   0.413   3.249   7.659
 2484SOL    HW2 7905   0.468   3.255   7.518
 2485SOL     OW 7906   1.671   3.126   8.094
 2485SOL    HW1 7907   1.766   3.129   8.107
 2485SOL    HW2 7908   1.641   3.214   8.115
 2486SOL     OW 7909   0.573   2.131   7.770
 2486SOL    HW1 7910   0.600   2.082   7.692
 2486SOL    HW2 7911   0.541   2.214   7.736
 2487SOL     OW 7912   1.752   3.102   9.021
 2487SOL    HW1 7913   1.840   3.062   9.017
 2487SOL    HW2 7914   1.768   3.192   9.048
 2488SOL     OW 7915   1.058   3.215   8.781
 2488SOL    HW1 7916   0.983   3.184   8.832
 2488SOL    HW2 7917   1.134   3.174   8.822
 2489SOL     OW 7918   1.609   3.488   9.103
 2489SOL    HW1 7919   1.602   3.521   9.013
 2489SOL    HW2 7920   1.692   3.440   9.104
 2490SOL     OW 7921   1.130   3.066   8.553
 2490SOL    HW1 7922   1.071   3.103   8.618
 2490SOL    HW2 7923   1.096   3.098   8.469
 2491SOL     OW 7924   1.628   2.960   8.525
 2491SOL    HW1 7925   1.623   3.022   8.598
 2491SOL    HW2 7926   1.549   2.977   8.474
 2492SOL     OW 7927   0.918   1.958   8.844
 2492SOL    HW1 7928   0.941   1.940   8.753
 2492SOL    HW2 7929   0.997   1.998   8.881
 2493SOL     OW 7930   0.984   2.977   9.171
 2493SOL    HW1 7931   0.892   2.993   9.192
 2493SOL    HW2 7932   0.983   2.899   9.115
 2494SOL     OW 7933   0.707   2.922   7.819
 2494SOL    HW1 7934   0.694   2.907   7.912
 2494SOL    HW2 7935   0.784   2.869   7.796
 2495SOL     OW 7936   0.421   2.677   8.700
 2495SOL    HW1 7937   0.489   2.685   8.766
 2495SOL    HW2 7938   0.386   2.589   8.712
 2496SOL     OW 7939   1.265   2.238   8.724
 2496SOL    HW1 7940   1.298   2.316   8.769
 2496SOL    HW2 7941   1.175   2.260   8.700
 2497SOL     OW 7942   0.065   3.441   8.793
 2497SOL    HW1 7943   0.069   3.504   8.721
 2497SOL    HW2 7944   0.156   3.428   8.819
 2498SOL     OW 7945   0.373   2.964   7.933
 2498SOL    HW1 7946   0.367   3.043   7.879
 2498SOL    HW2 7947   0.372   2.892   7.869
 2499SOL     OW 7948   0.551   2.400   8.310
 2499SOL    HW1 7949   0.567   2.456   8.234
 2499SOL    HW2 7950   0.618   2.426   8.373
 2500SOL     OW 7951   1.248   3.210   7.837
 2500SOL    HW1 7952   1.304   3.282   7.868
 2500SOL    HW2 7953   1.161   3.232   7.871
 2501SOL     OW 7954   1.281   3.320   8.595
 2501SOL    HW1 7955   1.337   3.323   8.673
 2501SOL    HW2 7956   1.226   3.243   8.608
 2502SOL     OW 7957   1.568   2.504   7.899
 2502SOL    HW1 7958   1.529   2.536   7.980
 2502SOL    HW2 7959   1.636   2.568   7.878
 2503SOL     OW 7960   0.345   3.388   8.767
 2503SOL    HW1 7961   0.336   3.338   8.686
 2503SOL    HW2 7962   0.439   3.403   8.774
 2504SOL     OW 7963   0.414   2.602   9.049
 2504SOL    HW1 7964   0.476   2.648   8.992
 2504SOL    HW2 7965   0.455   2.517   9.065
 2505SOL     OW 7966   1.601   2.641   9.129
 2505SOL    HW1 7967   1.516   2.683   9.123
 2505SOL    HW2 7968   1.654   2.683   9.062
 2506SOL     OW 7969   0.996   1.986   9.203
 2506SOL    HW1 7970   1.052   2.059   9.176
 2506SOL    HW2 7971   1.044   1.907   9.177
 2507SOL     OW 7972   0.498   1.899   9.193
 2507SOL    HW1 7973   0.454   1.846   9.126
 2507SOL    HW2 7974   0.442   1.976   9.203
 2508SOL     OW 7975   0.585   2.735   8.480
 2508SOL    HW1 7976   0.616   2.826   8.478
 2508SOL    HW2 7977   0.528   2.730   8.557
 2509SOL     OW 7978   1.357   2.721   8.477
 2509SOL    HW1 7979   1.273   2.711   8.431
 2509SOL    HW2 7980   1.398   2.634   8.471
 2510SOL     OW 7981   1.166   2.393   7.701
 2510SOL    HW1 7982   1.207   2.321   7.749
 2510SOL    HW2 7983   1.141   2.455   7.769
 2511SOL     OW 7984   0.311   2.060   8.696
 2511SOL    HW1 7985   0.264   2.097   8.770
 2511SOL    HW2 7986   0.287   1.967   8.696
 2512SOL     OW 7987   0.058   3.167   8.728
 2512SOL    HW1 7988   0.090   3.127   8.809
 2512SOL    HW2 7989   0.051   3.260   8.748
 2513SOL     OW 7990   0.725   2.494   8.506
 2513SOL    HW1 7991   0.799   2.477   8.448
 2513SOL    HW2 7992   0.697   2.582   8.484
 2514SOL     OW 7993   1.735   2.821   9.301
 2514SOL    HW1 7994   1.690   2.758   9.244
 2514SOL    HW2 7995   1.675   2.835   9.374
 2515SOL     OW 7996   0.312   1.925   8.069
 2515SOL    HW1 7997   0.292   2.016   8.090
 2515SOL    HW2 7998   0.317   1.881   8.153
 2516SOL     OW 7999   1.028   2.621   8.409
 2516SOL    HW1 8000   1.024   2.638   8.503
 2516SOL    HW2 8001   1.001   2.529   8.400
 2517SOL     OW 8002   0.985   3.429   9.166
 2517SOL    HW1 8003   0.967   3.472   9.083
 2517SOL    HW2 8004   1.027   3.347   9.143
 2518SOL     OW 8005   1.855   3.367   9.053
 2518SOL    HW1 8006   1.873   3.394   8.963
 2518SOL    HW2 8007   1.935   3.386   9.101
 2519SOL     OW 8008   0.352   2.782   9.249
 2519SOL    HW1 8009   0.431   2.803   9.299
 2519SOL    HW2 8010   0.380   2.716   9.186
 2520SOL     OW 8011   1.292   2.688   7.477
 2520SOL    HW1 8012   1.349   2.611   7.478
 2520SOL    HW2 8013   1.314   2.732   7.394
 2521SOL     OW 8014   1.066   3.198   8.302
 2521SOL    HW1 8015   1.069   3.125   8.240
 2521SOL    HW2 8016   1.127   3.262   8.267
 2522SOL     OW 8017   0.314   2.666   8.398
 2522SOL    HW1 8018   0.407   2.684   8.392
 2522SOL    HW2 8019   0.308   2.576   8.431
 2523SOL     OW 8020   0.331   2.382   8.462
 2523SOL    HW1 8021   0.297   2.294   8.444
 2523SOL    HW2 8022   0.407   2.390   8.404
 2524SOL     OW 8023   1.134   2.237   9.130
 2524SOL    HW1 8024   1.087   2.293   9.193
 2524SOL    HW2 8025   1.222   2.275   9.127
 2525SOL     OW 8026   1.161   2.064   8.918
 2525SOL    HW1 8027   1.150   2.127   8.990
 2525SOL    HW2 8028   1.200   2.115   8.847
 2526SOL     OW 8029   3.999   3.182   7.630
 2526SOL    HW1 8030   3.905   3.197   7.634
 2526SOL    HW2 8031   0.009   3.088   7.649
 2527SOL     OW 8032   0.075   3.663   8.342
 2527SOL    HW1 8033   0.087   3.568   8.344
 2527SOL    HW2 8034   0.164   3.698   8.339
 2528SOL     OW 8035   0.507   3.427   8.363
 2528SOL    HW1 8036   0.574   3.493   8.384
 2528SOL    HW2 8037   0.550   3.368   8.302
 2529SOL     OW 8038   0.982   2.654   8.675
 2529SOL    HW1 8039   1.038   2.631   8.749
 2529SOL    HW2 8040   0.897   2.616   8.697
 2530SOL     OW 8041   0.037   2.417   8.558
 2530SOL    HW1 8042   0.119   2.393   8.515
 2530SOL    HW2 8043   0.057   2.414   8.652
 2531SOL     OW 8044   0.206   2.376   9.175
 2531SOL    HW1 8045   0.248   2.331   9.101
 2531SOL    HW2 8046   0.157   2.447   9.135
 2532SOL     OW 8047   1.377   2.801   9.106
 2532SOL    HW1 8048   1.398   2.894   9.104
 2532SOL    HW2 8049   1.374   2.775   9.014
 2533SOL     OW 8050   0.817   2.431   7.809
 2533SOL    HW1 8051   0.822   2.355   7.750
 2533SOL    HW2 8052   0.744   2.482   7.776
 2534SOL     OW 8053   1.644   2.464   8.632
 2534SOL    HW1 8054   1.632   2.408   8.709
 2534SOL    HW2 8055   1.730   2.440   8.598
 2535SOL     OW 8056   0.298   3.408   9.177
 2535SOL    HW1 8057   0.248   3.478   9.220
 2535SOL    HW2 8058   0.264   3.328   9.216
 2536SOL     OW 8059   0.702   2.313   8.708
 2536SOL    HW1 8060   0.651   2.238   8.677
 2536SOL    HW2 8061   0.698   2.376   8.635
 2537SOL     OW 8062   0.930   3.535   8.916
 2537SOL    HW1 8063   0.902   3.499   8.831
 2537SOL    HW2 8064   0.922   3.630   8.905
 2538SOL     OW 8065   0.458   2.352   7.642
 2538SOL    HW1 8066   0.523   2.420   7.660
 2538SOL    HW2 8067   0.378   2.401   7.621
 2539SOL     OW 8068   0.157   2.998   8.922
 2539SOL    HW1 8069   0.159   2.947   9.003
 2539SOL    HW2 8070   0.171   2.934   8.852
 2540SOL     OW 8071   1.326   2.909   8.671
 2540SOL    HW1 8072   1.349   2.845   8.603
 2540SOL    HW2 8073   1.256   2.961   8.632
 2541SOL     OW 8074   1.308   2.722   7.754
 2541SOL    HW1 8075   1.236   2.687   7.806
 2541SOL    HW2 8076   1.283   2.703   7.663
 2542SOL     OW 8077   1.769   3.605   8.597
 2542SOL    HW1 8078   1.832   3.633   8.530
 2542SOL    HW2 8079   1.748   3.515   8.575
 2543SOL     OW 8080   1.243   3.595   8.560
 2543SOL    HW1 8081   1.326   3.615   8.515
 2543SOL    HW2 8082   1.248   3.502   8.579
 2544SOL     OW 8083   0.076   3.077   8.476
 2544SOL    HW1 8084   0.082   3.104   8.567
 2544SOL    HW2 8085   3.983   3.086   8.455
 2545SOL     OW 8086   0.679   3.526   9.177
 2545SOL    HW1 8087   0.622   3.603   9.181
 2545SOL    HW2 8088   0.738   3.543   9.104
 2546SOL     OW 8089   1.660   1.975   7.919
 2546SOL    HW1 8090   1.753   1.997   7.908
 2546SOL    HW2 8091   1.661   1.897   7.976
 2547SOL     OW 8092   1.390   3.431   7.933
 2547SOL    HW1 8093   1.450   3.463   7.866
 2547SOL    HW2 8094   1.343   3.508   7.963
 2548SOL     OW 8095   0.168   3.626   9.279
 2548SOL    HW1 8096   0.112   3.574   9.337
 2548SOL    HW2 8097   0.215   3.685   9.337
 2549SOL     OW 8098   1.279   2.787   8.120
 2549SOL    HW1 8099   1.352   2.725   8.123
 2549SOL    HW2 8100   1.312   2.860   8.067
 2550SOL     OW 8101   0.814   3.135   8.878
 2550SOL    HW1 8102   0.785   3.175   8.960
 2550SOL    HW2 8103   0.743   3.155   8.816
 2551SOL     OW 8104   0.675   3.477   7.605
 2551SOL    HW1 8105   0.682   3.493   7.511
 2551SOL    HW2 8106   0.617   3.401   7.612
 2552SOL     OW 8107   1.625   3.588   8.838
 2552SOL    HW1 8108   1.676   3.594   8.757
 2552SOL    HW2 8109   1.612   3.679   8.865
 2553SOL     OW 8110   0.268   2.176   8.165
 2553SOL    HW1 8111   0.182   2.210   8.139
 2553SOL    HW2 8112   0.261   2.166   8.260
 2554SOL     OW 8113   1.207   3.468   7.483
 2554SOL    HW1 8114   1.197   3.375   7.507
 2554SOL    HW2 8115   1.146   3.480   7.410
 2555SOL     OW 8116   0.823   2.868   8.821
 2555SOL    HW1 8117   0.868   2.863   8.736
 2555SOL    HW2 8118   0.823   2.961   8.843
 2556SOL     OW 8119   0.915   2.773   7.737
 2556SOL    HW1 8120   0.977   2.804   7.671
 2556SOL    HW2 8121   0.963   2.705   7.785
 2557SOL     OW 8122   1.491   3.489   7.490
 2557SOL    HW1 8123   1.397   3.480   7.474
 2557SOL    HW2 8124   1.529   3.495   7.402
 2558SOL     OW 8125   0.373   3.165   8.939
 2558SOL    HW1 8126   0.359   3.245   8.889
 2558SOL    HW2 8127   0.296   3.111   8.922
 2559SOL     OW 8128   1.610   3.145   8.728
 2559SOL    HW1 8129   1.670   3.134   8.802
 2559SOL    HW2 8130   1.550   3.214   8.757
 2560SOL     OW 8131   1.053   2.969   8.155
 2560SOL    HW1 8132   0.982   2.918   8.194
 2560SOL    HW2 8133   1.115   2.904   8.123
 2561SOL     OW 8134   1.022   2.102   8.414
 2561SOL    HW1 8135   1.018   2.055   8.331
 2561SOL    HW2 8136   1.016   2.034   8.481
 2562SOL     OW 8137   0.604   3.352   7.929
 2562SOL    HW1 8138   0.648   3.302   7.861
 2562SOL    HW2 8139   0.534   3.399   7.883
 2563SOL     OW 8140   1.725   2.251   8.823
 2563SOL    HW1 8141   1.797   2.313   8.830
 2563SOL    HW2 8142   1.759   2.182   8.765
 2564SOL     OW 8143   0.253   3.203   7.739
 2564SOL    HW1 8144   0.160   3.213   7.719
 2564SOL    HW2 8145   0.263   3.241   7.826
 2565SOL     OW 8146   0.106   2.861   9.165
 2565SOL    HW1 8147   0.045   2.852   9.239
 2565SOL    HW2 8148   0.192   2.842   9.203
 2566SOL     OW 8149   0.674   2.058   8.947
 2566SOL    HW1 8150   0.758   2.038   8.906
 2566SOL    HW2 8151   0.698   2.090   9.035
 2567SOL     OW 8152   0.080   2.179   7.485
 2567SOL    HW1 8153   3.985   2.179   7.491
 2567SOL    HW2 8154   0.101   2.260   7.437
 2568SOL     OW 8155   1.429   2.720   8.848
 2568SOL    HW1 8156   1.381   2.781   8.792
 2568SOL    HW2 8157   1.519   2.723   8.815
 2569SOL     OW 8158   0.021   2.090   7.821
 2569SOL    HW1 8159   0.044   2.155   7.754
 2569SOL    HW2 8160   0.105   2.053   7.849
 2570SOL     OW 8161   1.179   3.201   7.565
 2570SOL    HW1 8162   1.088   3.171   7.566
 2570SOL    HW2 8163   1.206   3.200   7.656
 2571SOL     OW 8164   0.619   2.692   8.883
 2571SOL    HW1 8165   0.675   2.768   8.868
 2571SOL    HW2 8166   0.680   2.619   8.891
 2572SOL     OW 8167   1.485   3.640   8.428
 2572SOL    HW1 8168   1.509   3.696   8.354
 2572SOL    HW2 8169   1.569   3.619   8.470
 2573SOL     OW 8170   0.716   2.426   9.153
 2573SOL    HW1 8171   0.759   2.488   9.212
 2573SOL    HW2 8172   0.745   2.340   9.185
 2574SOL     OW 8173   1.472   3.062   9.080
 2574SOL    HW1 8174   1.460   3.075   9.174
 2574SOL    HW2 8175   1.565   3.077   9.065
 2575SOL     OW 8176   0.379   3.606   9.007
 2575SOL    HW1 8177   0.291   3.641   8.994
 2575SOL    HW2 8178   0.364   3.523   9.054
 2576SOL     OW 8179   1.670   2.743   8.703
 2576SOL    HW1 8180   1.662   2.658   8.660
 2576SOL    HW2 8181   1.659   2.807   8.632
 2577SOL     OW 8182   1.212   2.184   7.908
 2577SOL    HW1 8183   1.275   2.112   7.901
 2577SOL    HW2 8184   1.244   2.235   7.983
 2578SOL     OW 8185   0.589   2.601   8.119
 2578SOL    HW1 8186   0.629   2.687   8.103
 2578SOL    HW2 8187   0.522   2.592   8.051
 2579SOL     OW 8188   1.756   2.242   9.098
 2579SOL    HW1 8189   1.740   2.244   9.003
 2579SOL    HW2 8190   1.695   2.176   9.131
 2580SOL     OW 8191   1.744   2.797   8.960
 2580SOL    HW1 8192   1.741   2.892   8.973
 2580SOL    HW2 8193   1.729   2.785   8.866
 2581SOL     OW 8194   0.864   3.229   7.484
 2581SOL    HW1 8195   0.822   3.258   7.565
 2581SOL    HW2 8196   0.880   3.310   7.435
 2582SOL     OW 8197   0.659   3.652   8.387
 2582SOL    HW1 8198   0.636   3.743   8.367
 2582SOL    HW2 8199   0.754   3.650   8.384
 2583SOL     OW 8200   0.868   2.829   8.302
 2583SOL    HW1 8201   0.918   2.757   8.342
 2583SOL    HW2 8202   0.833   2.878   8.377
 2584SOL     OW 8203   1.078   2.851   7.536
 2584SOL    HW1 8204   1.058   2.901   7.458
 2584SOL    HW2 8205   1.153   2.796   7.511
 2585SOL     OW 8206   1.853   3.414   8.291
 2585SOL    HW1 8207   1.773   3.403   8.239
 2585SOL    HW2 8208   1.844   3.350   8.361
 2586SOL     OW 8209   0.224   3.166   9.303
 2586SOL    HW1 8210   0.153   3.108   9.278
 2586SOL    HW2 8211   0.212   3.179   9.397
 2587SOL     OW 8212   0.112   3.137   8.167
 2587SOL    HW1 8213   0.127   3.086   8.247
 2587SOL    HW2 8214   0.107   3.071   8.097
 2588SOL     OW 8215   0.681   3.264   9.077
 2588SOL    HW1 8216   0.600   3.223   9.106
 2588SOL    HW2 8217   0.677   3.353   9.113
 2589SOL     OW 8218   0.441   2.296   7.981
 2589SOL    HW1 8219   0.444   2.227   7.915
 2589SOL    HW2 8220   0.385   2.261   8.051
 2590SOL     OW 8221   1.701   3.350   8.542
 2590SOL    HW1 8222   1.619   3.327   8.498
 2590SOL    HW2 8223   1.712   3.282   8.609
 2591SOL     OW 8224   0.333   2.417   8.739
 2591SOL    HW1 8225   0.388   2.361   8.794
 2591SOL    HW2 8226   0.348   2.387   8.650
 2592SOL     OW 8227   0.827   3.441   8.125
 2592SOL    HW1 8228   0.815   3.491   8.044
 2592SOL    HW2 8229   0.751   3.382   8.129
 2593SOL     OW 8230   1.437   2.089   8.568
 2593SOL    HW1 8231   1.449   2.003   8.608
 2593SOL    HW2 8232   1.382   2.137   8.630
 2594SOL     OW 8233   1.009   1.880   8.590
 2594SOL    HW1 8234   0.955   1.812   8.549
 2594SOL    HW2 8235   1.097   1.842   8.592
 2595SOL     OW 8236   0.771   3.194   7.765
 2595SOL    HW1 8237   0.740   3.104   7.770
 2595SOL    HW2 8238   0.855   3.193   7.812
 2596SOL     OW 8239   0.620   3.417   8.733
 2596SOL    HW1 8240   0.622   3.498   8.783
 2596SOL    HW2 8241   0.708   3.410   8.695
 2597SOL     OW 8242   1.299   2.325   8.130
 2597SOL    HW1 8243   1.243   2.402   8.136
 2597SOL    HW2 8244   1.293   2.284   8.217
 2598SOL     OW 8245   1.572   2.053   8.319
 2598SOL    HW1 8246   1.533   2.081   8.402
 2598SOL    HW2 8247   1.591   2.135   8.273
 2599SOL     OW 8248   0.046   2.913   7.687
 2599SOL    HW1 8249   0.140   2.897   7.678
 2599SOL    HW2 8250   0.011   2.831   7.723
 2600SOL     OW 8251   0.884   3.518   7.792
 2600SOL    HW1 8252   0.814   3.498   7.731
 2600SOL    HW2 8253   0.853   3.594   7.841
 2601SOL     OW 8254   0.231   2.484   9.430
 2601SOL    HW1 8255   0.138   2.493   9.451
 2601SOL    HW2 8256   0.233   2.454   9.339
 2602SOL     OW 8257   0.229   2.133  10.297
 2602SOL    HW1 8258   0.249   2.101  10.384
 2602SOL    HW2 8259   0.134   2.125  10.290
 2603SOL     OW 8260   0.011   2.223   9.941
 2603SOL    HW1 8261   3.924   2.241   9.977
 2603SOL    HW2 8262   3.995   2.189   9.854
 2604SOL     OW 8263   0.577   3.147  10.495
 2604SOL    HW1 8264   0.491   3.151  10.454
 2604SOL    HW2 8265   0.593   3.235  10.529
 2605SOL     OW 8266   1.561   3.373  10.017
 2605SOL    HW1 8267   1.518   3.352  10.101
 2605SOL    HW2 8268   1.489   3.377   9.954
 2606SOL     OW 8269   1.131   2.560  10.011
 2606SOL    HW1 8270   1.180   2.641   9.997
 2606SOL    HW2 8271   1.084   2.574  10.093
 2607SOL     OW 8272   1.771   2.467   9.539
 2607SOL    HW1 8273   1.748   2.462   9.446
 2607SOL    HW2 8274   1.736   2.387   9.577
 2608SOL     OW 8275   0.756   3.003  10.350
 2608SOL    HW1 8276   0.690   3.037  10.410
 2608SOL    HW2 8277   0.791   3.080  10.305
 2609SOL     OW 8278   0.867   2.636  11.132
 2609SOL    HW1 8279   0.857   2.707  11.195
 2609SOL    HW2 8280   0.890   2.679  11.050
 2610SOL     OW 8281   0.686   2.865   9.957
 2610SOL    HW1 8282   0.751   2.853  10.026
 2610SOL    HW2 8283   0.616   2.917   9.999
 2611SOL     OW 8284   0.710   3.012  11.124
 2611SOL    HW1 8285   0.758   3.090  11.150
 2611SOL    HW2 8286   0.628   3.045  11.087
 2612SOL     OW 8287   0.351   3.264  10.388
 2612SOL    HW1 8288   0.268   3.250  10.342
 2612SOL    HW2 8289   0.400   3.323  10.331
 2613SOL     OW 8290   1.461   3.362  10.664
 2613SOL    HW1 8291   1.512   3.442  10.674
 2613SOL    HW2 8292   1.397   3.364  10.736
 2614SOL     OW 8293   0.450   2.262  10.800
 2614SOL    HW1 8294   0.525   2.202  10.802
 2614SOL    HW2 8295   0.374   2.206  10.812
 2615SOL     OW 8296   1.606   2.308  10.048
 2615SOL    HW1 8297   1.525   2.330  10.002
 2615SOL    HW2 8298   1.624   2.384  10.104
 2616SOL     OW 8299   0.225   3.571   9.776
 2616SOL    HW1 8300   0.228   3.652   9.827
 2616SOL    HW2 8301   0.301   3.575   9.719
 2617SOL     OW 8302   1.137   3.203  11.003
 2617SOL    HW1 8303   1.177   3.198  11.089
 2617SOL    HW2 8304   1.084   3.124  10.996
 2618SOL     OW 8305   0.247   3.305   9.850
 2618SOL    HW1 8306   0.220   3.396   9.836
 2618SOL    HW2 8307   0.178   3.267   9.903
 2619SOL     OW 8308   0.246   2.930  10.194
 2619SOL    HW1 8309   0.265   2.846  10.235
 2619SOL    HW2 8310   0.194   2.978  10.259
 2620SOL     OW 8311   0.612   3.648  10.739
 2620SOL    HW1 8312   0.530   3.634  10.785
 2620SOL    HW2 8313   0.638   3.737  10.763
 2621SOL     OW 8314   0.580   2.846   9.446
 2621SOL    HW1 8315   0.627   2.892   9.377
 2621SOL    HW2 8316   0.622   2.875   9.527
 2622SOL     OW 8317   1.590   1.990  10.774
 2622SOL    HW1 8318   1.583   2.074  10.729
 2622SOL    HW2 8319   1.582   2.012  10.867
 2623SOL     OW 8320   0.141   2.512   9.884
 2623SOL    HW1 8321   0.086   2.433   9.884
 2623SOL    HW2 8322   0.105   2.566   9.953
 2624SOL     OW 8323   1.842   3.613   9.648
 2624SOL    HW1 8324   1.908   3.588   9.712
 2624SOL    HW2 8325   1.864   3.703   9.624
 2625SOL     OW 8326   0.041   3.454   9.450
 2625SOL    HW1 8327   0.033   3.362   9.473
 2625SOL    HW2 8328   3.961   3.495   9.484
 2626SOL     OW 8329   1.689   2.780   9.951
 2626SOL    HW1 8330   1.772   2.738   9.929
 2626SOL    HW2 8331   1.667   2.831   9.873
 2627SOL     OW 8332   1.646   2.968   9.739
 2627SOL    HW1 8333   1.732   2.974   9.697
 2627SOL    HW2 8334   1.651   3.030   9.812
 2628SOL     OW 8335   0.136   2.614  10.900
 2628SOL    HW1 8336   0.231   2.608  10.900
 2628SOL    HW2 8337   0.117   2.705  10.924
 2629SOL     OW 8338   0.614   3.247  10.044
 2629SOL    HW1 8339   0.567   3.164  10.054
 2629SOL    HW2 8340   0.597   3.274   9.954
 2630SOL     OW 8341   1.288   3.100  10.733
 2630SOL    HW1 8342   1.321   3.032  10.673
 2630SOL    HW2 8343   1.346   3.094  10.809
 2631SOL     OW 8344   0.817   1.861   9.819
 2631SOL    HW1 8345   0.857   1.946   9.800
 2631SOL    HW2 8346   0.723   1.880   9.826
 2632SOL     OW 8347   0.185   2.814  10.588
 2632SOL    HW1 8348   0.273   2.779  10.574
 2632SOL    HW2 8349   0.132   2.773  10.520
 2633SOL     OW 8350   1.531   2.856   9.508
 2633SOL    HW1 8351   1.462   2.799   9.540
 2633SOL    HW2 8352   1.572   2.890   9.588
 2634SOL     OW 8353   1.213   3.664  10.936
 2634SOL    HW1 8354   1.194   3.725  10.864
 2634SOL    HW2 8355   1.215   3.578  10.895
 2635SOL     OW 8356   0.339   2.109  11.124
 2635SOL    HW1 8357   0.378   2.196  11.131
 2635SOL    HW2 8358   0.248   2.122  11.149
 2636SOL     OW 8359   1.466   3.282  10.261
 2636SOL    HW1 8360   1.398   3.297  10.327
 2636SOL    HW2 8361   1.454   3.191  10.235
 2637SOL     OW 8362   1.655   3.600   9.890
 2637SOL    HW1 8363   1.641   3.570   9.801
 2637SOL    HW2 8364   1.632   3.525   9.945
 2638SOL     OW 8365   0.596   2.580   9.574
 2638SOL    HW1 8366   0.603   2.664   9.527
 2638SOL    HW2 8367   0.533   2.597   9.644
 2639SOL     OW 8368   1.279   2.218  10.244
 2639SOL    HW1 8369   1.190   2.182  10.253
 2639SOL    HW2 8370   1.333   2.162  10.300
 2640SOL     OW 8371   1.578   3.536   9.618
 2640SOL    HW1 8372   1.670   3.562   9.613
 2640SOL    HW2 8373   1.553   3.516   9.528
 2641SOL     OW 8374   0.791   2.480  10.762
 2641SOL    HW1 8375   0.765   2.455  10.850
 2641SOL    HW2 8376   0.752   2.413  10.706
 2642SOL     OW 8377   1.394   2.335  10.987
 2642SOL    HW1 8378   1.396   2.380  11.071
 2642SOL    HW2 8379   1.457   2.264  10.996
 2643SOL     OW 8380   0.954   2.749  10.893
 2643SOL    HW1 8381   1.009   2.679  10.857
 2643SOL    HW2 8382   0.906   2.783  10.817
 2644SOL     OW 8383   0.992   2.275  10.548
 2644SOL    HW1 8384   0.906   2.296  10.585
 2644SOL    HW2 8385   0.973   2.229  10.467
 2645SOL     OW 8386   1.051   2.560   9.736
 2645SOL    HW1 8387   1.067   2.553   9.830
 2645SOL    HW2 8388   0.969   2.514   9.722
 2646SOL     OW 8389   0.082   2.688  10.100
 2646SOL    HW1 8390   0.159   2.659  10.149
 2646SOL    HW2 8391   0.095   2.782  10.089
 2647SOL     OW 8392   0.127   3.714  10.885
 2647SOL    HW1 8393   0.134   3.683  10.975
 2647SOL    HW2 8394   0.035   3.702  10.863
 2648SOL     OW 8395   0.894   2.211   9.503
 2648SOL    HW1 8396   0.934   2.273   9.442
 2648SOL    HW2 8397   0.912   2.125   9.465
 2649SOL     OW 8398   1.706   2.439  11.142
 2649SOL    HW1 8399   1.670   2.509  11.088
 2649SOL    HW2 8400   1.737   2.374  11.079
 2650SOL     OW 8401   1.377   3.004   9.851
 2650SOL    HW1 8402   1.456   2.991   9.798
 2650SOL    HW2 8403   1.324   3.066   9.801
 2651SOL     OW 8404   0.546   2.041  10.203
 2651SOL    HW1 8405   0.552   2.073  10.293
 2651SOL    HW2 8406   0.547   2.121  10.150
 2652SOL     OW 8407   1.006   3.307   9.782
 2652SOL    HW1 8408   0.967   3.380   9.733
 2652SOL    HW2 8409   0.988   3.327   9.874
 2653SOL     OW 8410   0.359   3.669  10.169
 2653SOL    HW1 8411   0.435   3.613  10.180
 2653SOL    HW2 8412   0.392   3.758  10.178
 2654SOL     OW 8413   1.799   2.918  10.178
 2654SOL    HW1 8414   1.745   2.900  10.101
 2654SOL    HW2 8415   1.737   2.924  10.251
 2655SOL     OW 8416   1.228   3.399  10.821
 2655SOL    HW1 8417   1.214   3.327  10.882
 2655SOL    HW2 8418   1.162   3.386  10.753
 2656SOL     OW 8419   0.311   2.817   9.552
 2656SOL    HW1 8420   0.395   2.840   9.513
 2656SOL    HW2 8421   0.297   2.726   9.527
 2657SOL     OW 8422   1.479   2.604  10.036
 2657SOL    HW1 8423   1.470   2.562  10.121
 2657SOL    HW2 8424   1.556   2.660  10.044
 2658SOL     OW 8425   0.466   3.121  11.047
 2658SOL    HW1 8426   0.440   3.130  10.955
 2658SOL    HW2 8427   0.384   3.127  11.096
 2659SOL     OW 8428   1.113   3.642   9.533
 2659SOL    HW1 8429   1.050   3.595   9.588
 2659SOL    HW2 8430   1.143   3.578   9.469
 2660SOL     OW 8431   0.204   2.140  10.818
 2660SOL    HW1 8432   0.114   2.171  10.808
 2660SOL    HW2 8433   0.195   2.055  10.861
 2661SOL     OW 8434   1.628   3.242   9.399
 2661SOL    HW1 8435   1.587   3.327   9.382
 2661SOL    HW2 8436   1.559   3.179   9.379
 2662SOL     OW 8437   0.469   3.600   9.631
 2662SOL    HW1 8438   0.507   3.663   9.692
 2662SOL    HW2 8439   0.542   3.573   9.576
 2663SOL     OW 8440   1.398   1.970   9.740
 2663SOL    HW1 8441   1.382   1.946   9.649
 2663SOL    HW2 8442   1.491   1.951   9.754
 2664SOL     OW 8443   0.251   3.656  10.539
 2664SOL    HW1 8444   0.298   3.592  10.592
 2664SOL    HW2 8445   0.248   3.617  10.451
 2665SOL     OW 8446   0.937   3.561  10.211
 2665SOL    HW1 8447   1.015   3.509  10.232
 2665SOL    HW2 8448   0.893   3.512  10.142
 2666SOL     OW 8449   0.397   2.555   9.782
 2666SOL    HW1 8450   0.423   2.464   9.796
 2666SOL    HW2 8451   0.305   2.558   9.809
 2667SOL     OW 8452   1.537   2.086  11.035
 2667SOL    HW1 8453   1.549   2.108  11.127
 2667SOL    HW2 8454   1.467   2.021  11.035
 2668SOL     OW 8455   0.636   1.982   9.409
 2668SOL    HW1 8456   0.703   1.916   9.426
 2668SOL    HW2 8457   0.589   1.950   9.333
 2669SOL     OW 8458   0.766   2.140  11.064
 2669SOL    HW1 8459   0.843   2.082  11.065
 2669SOL    HW2 8460   0.719   2.117  11.144
 2670SOL     OW 8461   0.876   3.382  10.504
 2670SOL    HW1 8462   0.860   3.347  10.417
 2670SOL    HW2 8463   0.946   3.328  10.540
 2671SOL     OW 8464   1.341   2.451  10.742
 2671SOL    HW1 8465   1.371   2.419  10.827
 2671SOL    HW2 8466   1.377   2.539  10.735
 2672SOL     OW 8467   0.815   3.256  10.249
 2672SOL    HW1 8468   0.900   3.245  10.206
 2672SOL    HW2 8469   0.752   3.257  10.178
 2673SOL     OW 8470   0.928   2.371  10.213
 2673SOL    HW1 8471   0.905   2.363  10.120
 2673SOL    HW2 8472   0.959   2.284  10.237
 2674SOL     OW 8473   0.554   1.924   9.808
 2674SOL    HW1 8474   0.472   1.929   9.856
 2674SOL    HW2 8475   0.558   2.007   9.759
 2675SOL     OW 8476   1.428   3.061   9.351
 2675SOL    HW1 8477   1.458   2.985   9.401
 2675SOL    HW2 8478   1.342   3.081   9.388
 2676SOL     OW 8479   0.306   1.913   9.480
 2676SOL    HW1 8480   0.371   1.952   9.422
 2676SOL    HW2 8481   0.356   1.847   9.530
 2677SOL     OW 8482   0.938   2.108   9.771
 2677SOL    HW1 8483   0.908   2.149   9.690
 2677SOL    HW2 8484   1.033   2.124   9.773
 2678SOL     OW 8485   1.080   2.543  10.769
 2678SOL    HW1 8486   1.012   2.476  10.774
 2678SOL    HW2 8487   1.162   2.493  10.763
 2679SOL     OW 8488   1.223   3.432  10.103
 2679SOL    HW1 8489   1.239   3.500  10.038
 2679SOL    HW2 8490   1.291   3.445  10.169
 2680SOL     OW 8491   0.466   3.012  10.047
 2680SOL    HW1 8492   0.394   2.989  10.105
 2680SOL    HW2 8493   0.432   2.996   9.959
 2681SOL     OW 8494   1.268   3.658   9.916
 2681SOL    HW1 8495   1.314   3.722   9.862
 2681SOL    HW2 8496   1.197   3.707   9.958
 2682SOL     OW 8497   1.024   2.403   9.333
 2682SOL    HW1 8498   0.981   2.487   9.313
 2682SOL    HW2 8499   1.089   2.425   9.399
 2683SOL     OW 8500   0.081   2.433  10.700
 2683SOL    HW1 8501   0.170   2.420  10.670
 2683SOL    HW2 8502   0.088   2.503  10.765
 2684SOL     OW 8503   0.567   2.089  10.474
 2684SOL    HW1 8504   0.607   2.012  10.515
 2684SOL    HW2 8505   0.476   2.086  10.504
 2685SOL     OW 8506   0.868   2.321   9.950
 2685SOL    HW1 8507   0.820   2.374   9.887
 2685SOL    HW2 8508   0.888   2.240   9.903
 2686SOL     OW 8509   1.016   1.915  10.062
 2686SOL    HW1 8510   0.957   1.909   9.986
 2686SOL    HW2 8511   0.993   1.839  10.116
 2687SOL     OW 8512   1.437   3.025  10.167
 2687SOL    HW1 8513   1.368   2.959  10.167
 2687SOL    HW2 8514   1.461   3.035  10.075
 2688SOL     OW 8515   1.466   2.467  10.286
 2688SOL    HW1 8516   1.414   2.387  10.289
 2688SOL    HW2 8517   1.525   2.461  10.361
 2689SOL     OW 8518   1.845   2.678   9.693
 2689SOL    HW1 8519   1.903   2.628   9.751
 2689SOL    HW2 8520   1.818   2.615   9.626
 2690SOL     OW 8521   0.489   3.279   9.470
 2690SOL    HW1 8522   0.413   3.249   9.521
 2690SOL    HW2 8523   0.468   3.255   9.380
 2691SOL     OW 8524   1.671   3.126   9.956
 2691SOL    HW1 8525   1.766   3.129   9.969
 2691SOL    HW2 8526   1.641   3.214   9.977
 2692SOL     OW 8527   1.393   2.435   9.380
 2692SOL    HW1 8528   1.334   2.414   9.452
 2692SOL    HW2 8529   1.479   2.404   9.409
 2693SOL     OW 8530   0.574   2.131   9.632
 2693SOL    HW1 8531   0.601   2.082   9.554
 2693SOL    HW2 8532   0.541   2.214   9.598
 2694SOL     OW 8533   1.752   3.102  10.882
 2694SOL    HW1 8534   1.839   3.062  10.879
 2694SOL    HW2 8535   1.768   3.192  10.910
 2695SOL     OW 8536   1.058   3.215  10.643
 2695SOL    HW1 8537   0.983   3.184  10.694
 2695SOL    HW2 8538   1.134   3.174  10.684
 2696SOL     OW 8539   1.609   3.487  10.965
 2696SOL    HW1 8540   1.602   3.521  10.875
 2696SOL    HW2 8541   1.692   3.440  10.966
 2697SOL     OW 8542   1.129   3.066  10.415
 2697SOL    HW1 8543   1.071   3.103  10.480
 2697SOL    HW2 8544   1.096   3.098  10.331
 2698SOL     OW 8545   1.628   2.960  10.387
 2698SOL    HW1 8546   1.624   3.022  10.460
 2698SOL    HW2 8547   1.549   2.977  10.336
 2699SOL     OW 8548   0.918   1.959  10.706
 2699SOL    HW1 8549   0.941   1.940  10.615
 2699SOL    HW2 8550   0.997   1.998  10.743
 2700SOL     OW 8551   0.984   2.977  11.033
 2700SOL    HW1 8552   0.892   2.993  11.054
 2700SOL    HW2 8553   0.983   2.899  10.977
 2701SOL     OW 8554   0.707   2.922   9.681
 2701SOL    HW1 8555   0.694   2.907   9.774
 2701SOL    HW2 8556   0.784   2.869   9.658
 2702SOL     OW 8557   0.421   2.677  10.562
 2702SOL    HW1 8558   0.489   2.685  10.628
 2702SOL    HW2 8559   0.386   2.589  10.574
 2703SOL     OW 8560   1.265   2.238  10.586
 2703SOL    HW1 8561   1.298   2.316  10.632
 2703SOL    HW2 8562   1.175   2.260  10.563
 2704SOL     OW 8563   0.065   3.441  10.655
 2704SOL    HW1 8564   0.069   3.505  10.584
 2704SOL    HW2 8565   0.156   3.428  10.681
 2705SOL     OW 8566   0.373   2.964   9.794
 2705SOL    HW1 8567   0.367   3.043   9.741
 2705SOL    HW2 8568   0.372   2.892   9.731
 2706SOL     OW 8569   0.551   2.399  10.172
 2706SOL    HW1 8570   0.567   2.456  10.096
 2706SOL    HW2 8571   0.618   2.426  10.235
 2707SOL     OW 8572   1.248   3.210   9.699
 2707SOL    HW1 8573   1.304   3.282   9.730
 2707SOL    HW2 8574   1.161   3.232   9.733
 2708SOL     OW 8575   1.281   3.320  10.457
 2708SOL    HW1 8576   1.337   3.323  10.535
 2708SOL    HW2 8577   1.226   3.243  10.470
 2709SOL     OW 8578   1.578   2.488   9.782
 2709SOL    HW1 8579   1.534   2.538   9.851
 2709SOL    HW2 8580   1.627   2.553   9.733
 2710SOL     OW 8581   0.345   3.388  10.629
 2710SOL    HW1 8582   0.336   3.338  10.548
 2710SOL    HW2 8583   0.439   3.403  10.636
 2711SOL     OW 8584   0.414   2.602  10.911
 2711SOL    HW1 8585   0.476   2.648  10.854
 2711SOL    HW2 8586   0.455   2.517  10.928
 2712SOL     OW 8587   1.601   2.641  10.992
 2712SOL    HW1 8588   1.516   2.683  10.985
 2712SOL    HW2 8589   1.654   2.683  10.924
 2713SOL     OW 8590   0.996   1.986  11.065
 2713SOL    HW1 8591   1.052   2.058  11.037
 2713SOL    HW2 8592   1.044   1.907  11.039
 2714SOL     OW 8593   0.498   1.899  11.055
 2714SOL    HW1 8594   0.454   1.846  10.988
 2714SOL    HW2 8595   0.442   1.976  11.065
 2715SOL     OW 8596   0.584   2.735  10.341
 2715SOL    HW1 8597   0.616   2.826  10.341
 2715SOL    HW2 8598   0.528   2.730  10.419
 2716SOL     OW 8599   1.357   2.721  10.339
 2716SOL    HW1 8600   1.274   2.711  10.293
 2716SOL    HW2 8601   1.398   2.634  10.333
 2717SOL     OW 8602   1.205   2.391   9.577
 2717SOL    HW1 8603   1.212   2.312   9.632
 2717SOL    HW2 8604   1.162   2.455   9.633
 2718SOL     OW 8605   0.311   2.060  10.558
 2718SOL    HW1 8606   0.265   2.097  10.632
 2718SOL    HW2 8607   0.287   1.967  10.558
 2719SOL     OW 8608   0.058   3.167  10.590
 2719SOL    HW1 8609   0.090   3.127  10.671
 2719SOL    HW2 8610   0.051   3.260  10.610
 2720SOL     OW 8611   0.725   2.494  10.368
 2720SOL    HW1 8612   0.799   2.477  10.310
 2720SOL    HW2 8613   0.697   2.582  10.346
 2721SOL     OW 8614   1.735   2.821  11.163
 2721SOL    HW1 8615   1.690   2.758  11.106
 2721SOL    HW2 8616   1.675   2.835  11.236
 2722SOL     OW 8617   0.312   1.925   9.931
 2722SOL    HW1 8618   0.292   2.016   9.952
 2722SOL    HW2 8619   0.317   1.881  10.015
 2723SOL     OW 8620   1.612   2.240   9.682
 2723SOL    HW1 8621   1.619   2.184   9.760
 2723SOL    HW2 8622   1.589   2.326   9.716
 2724SOL     OW 8623   1.028   2.621  10.271
 2724SOL    HW1 8624   1.024   2.639  10.365
 2724SOL    HW2 8625   1.002   2.529  10.262
 2725SOL     OW 8626   0.985   3.429  11.028
 2725SOL    HW1 8627   0.967   3.472  10.945
 2725SOL    HW2 8628   1.027   3.346  11.005
 2726SOL     OW 8629   1.855   3.367  10.915
 2726SOL    HW1 8630   1.873   3.394  10.825
 2726SOL    HW2 8631   1.935   3.386  10.963
 2727SOL     OW 8632   0.352   2.782  11.111
 2727SOL    HW1 8633   0.431   2.803  11.161
 2727SOL    HW2 8634   0.380   2.716  11.048
 2728SOL     OW 8635   1.527   2.135   9.438
 2728SOL    HW1 8636   1.461   2.070   9.465
 2728SOL    HW2 8637   1.560   2.171   9.521
 2729SOL     OW 8638   1.291   2.689   9.341
 2729SOL    HW1 8639   1.334   2.603   9.344
 2729SOL    HW2 8640   1.323   2.728   9.259
 2730SOL     OW 8641   1.066   3.198  10.164
 2730SOL    HW1 8642   1.069   3.125  10.101
 2730SOL    HW2 8643   1.127   3.262  10.129
 2731SOL     OW 8644   0.314   2.666  10.260
 2731SOL    HW1 8645   0.407   2.684  10.254
 2731SOL    HW2 8646   0.308   2.576  10.293
 2732SOL     OW 8647   0.331   2.382  10.324
 2732SOL    HW1 8648   0.297   2.294  10.306
 2732SOL    HW2 8649   0.407   2.390  10.266
 2733SOL     OW 8650   1.134   2.238  10.992
 2733SOL    HW1 8651   1.087   2.293  11.055
 2733SOL    HW2 8652   1.222   2.275  10.989
 2734SOL     OW 8653   1.160   2.065  10.780
 2734SOL    HW1 8654   1.150   2.127  10.852
 2734SOL    HW2 8655   1.200   2.115  10.710
 2735SOL     OW 8656   3.999   3.182   9.492
 2735SOL    HW1 8657   3.905   3.197   9.496
 2735SOL    HW2 8658   0.009   3.088   9.511
 2736SOL     OW 8659   0.075   3.663  10.204
 2736SOL    HW1 8660   0.087   3.568  10.206
 2736SOL    HW2 8661   0.164   3.698  10.201
 2737SOL     OW 8662   0.507   3.427  10.225
 2737SOL    HW1 8663   0.574   3.493  10.246
 2737SOL    HW2 8664   0.550   3.368  10.164
 2738SOL     OW 8665   0.982   2.654  10.536
 2738SOL    HW1 8666   1.039   2.631  10.610
 2738SOL    HW2 8667   0.897   2.616  10.559
 2739SOL     OW 8668   0.037   2.417  10.420
 2739SOL    HW1 8669   0.119   2.393  10.377
 2739SOL    HW2 8670   0.057   2.414  10.514
 2740SOL     OW 8671   0.206   2.376  11.037
 2740SOL    HW1 8672   0.248   2.331  10.963
 2740SOL    HW2 8673   0.157   2.447  10.997
 2741SOL     OW 8674   1.377   2.801  10.968
 2741SOL    HW1 8675   1.398   2.894  10.966
 2741SOL    HW2 8676   1.374   2.775  10.876
 2742SOL     OW 8677   0.818   2.431   9.669
 2742SOL    HW1 8678   0.821   2.355   9.611
 2742SOL    HW2 8679   0.743   2.483   9.637
 2743SOL     OW 8680   1.643   2.464  10.494
 2743SOL    HW1 8681   1.632   2.408  10.571
 2743SOL    HW2 8682   1.730   2.440  10.460
 2744SOL     OW 8683   0.298   3.408  11.039
 2744SOL    HW1 8684   0.248   3.478  11.082
 2744SOL    HW2 8685   0.264   3.328  11.078
 2745SOL     OW 8686   0.702   2.313  10.569
 2745SOL    HW1 8687   0.651   2.238  10.539
 2745SOL    HW2 8688   0.698   2.376  10.497
 2746SOL     OW 8689   0.930   3.535  10.778
 2746SOL    HW1 8690   0.902   3.499  10.693
 2746SOL    HW2 8691   0.922   3.630  10.767
 2747SOL     OW 8692   0.458   2.352   9.503
 2747SOL    HW1 8693   0.523   2.421   9.522
 2747SOL    HW2 8694   0.378   2.400   9.483
 2748SOL     OW 8695   0.157   2.998  10.784
 2748SOL    HW1 8696   0.159   2.947  10.865
 2748SOL    HW2 8697   0.171   2.934  10.714
 2749SOL     OW 8698   1.326   2.909  10.533
 2749SOL    HW1 8699   1.349   2.845  10.465
 2749SOL    HW2 8700   1.256   2.961  10.494
 2750SOL     OW 8701   1.311   2.719   9.616
 2750SOL    HW1 8702   1.236   2.688   9.666
 2750SOL    HW2 8703   1.287   2.705   9.525
 2751SOL     OW 8704   1.769   3.605  10.459
 2751SOL    HW1 8705   1.832   3.633  10.392
 2751SOL    HW2 8706   1.748   3.515  10.437
 2752SOL     OW 8707   1.243   3.595  10.421
 2752SOL    HW1 8708   1.326   3.615  10.377
 2752SOL    HW2 8709   1.248   3.502  10.441
 2753SOL     OW 8710   0.076   3.077  10.337
 2753SOL    HW1 8711   0.082   3.104  10.429
 2753SOL    HW2 8712   3.983   3.086  10.317
 2754SOL     OW 8713   0.679   3.526  11.039
 2754SOL    HW1 8714   0.622   3.603  11.043
 2754SOL    HW2 8715   0.739   3.543  10.966
 2755SOL     OW 8716   1.390   3.431   9.795
 2755SOL    HW1 8717   1.450   3.463   9.728
 2755SOL    HW2 8718   1.343   3.508   9.825
 2756SOL     OW 8719   0.168   3.626  11.141
 2756SOL    HW1 8720   0.112   3.574  11.198
 2756SOL    HW2 8721   0.215   3.685  11.199
 2757SOL     OW 8722   1.278   2.787   9.981
 2757SOL    HW1 8723   1.351   2.727   9.988
 2757SOL    HW2 8724   1.311   2.860   9.929
 2758SOL     OW 8725   0.814   3.135  10.740
 2758SOL    HW1 8726   0.785   3.175  10.822
 2758SOL    HW2 8727   0.743   3.155  10.678
 2759SOL     OW 8728   0.675   3.477   9.467
 2759SOL    HW1 8729   0.682   3.493   9.373
 2759SOL    HW2 8730   0.617   3.401   9.474
 2760SOL     OW 8731   1.625   3.588  10.700
 2760SOL    HW1 8732   1.676   3.594  10.619
 2760SOL    HW2 8733   1.612   3.679  10.727
 2761SOL     OW 8734   0.268   2.176  10.027
 2761SOL    HW1 8735   0.182   2.210  10.001
 2761SOL    HW2 8736   0.261   2.166  10.122
 2762SOL     OW 8737   1.207   3.468   9.345
 2762SOL    HW1 8738   1.197   3.375   9.369
 2762SOL    HW2 8739   1.146   3.480   9.272
 2763SOL     OW 8740   0.823   2.868  10.683
 2763SOL    HW1 8741   0.868   2.863  10.598
 2763SOL    HW2 8742   0.823   2.961  10.705
 2764SOL     OW 8743   0.916   2.772   9.600
 2764SOL    HW1 8744   0.977   2.804   9.534
 2764SOL    HW2 8745   0.964   2.703   9.645
 2765SOL     OW 8746   1.490   3.489   9.352
 2765SOL    HW1 8747   1.396   3.480   9.336
 2765SOL    HW2 8748   1.529   3.495   9.264
 2766SOL     OW 8749   0.373   3.165  10.801
 2766SOL    HW1 8750   0.359   3.245  10.751
 2766SOL    HW2 8751   0.296   3.111  10.784
 2767SOL     OW 8752   1.610   3.145  10.590
 2767SOL    HW1 8753   1.670   3.134  10.664
 2767SOL    HW2 8754   1.550   3.214  10.619
 2768SOL     OW 8755   1.053   2.969  10.017
 2768SOL    HW1 8756   0.982   2.918  10.056
 2768SOL    HW2 8757   1.115   2.904   9.986
 2769SOL     OW 8758   1.021   2.102  10.277
 2769SOL    HW1 8759   1.017   2.055  10.194
 2769SOL    HW2 8760   1.016   2.034  10.343
 2770SOL     OW 8761   0.604   3.352   9.791
 2770SOL    HW1 8762   0.648   3.302   9.722
 2770SOL    HW2 8763   0.534   3.399   9.745
 2771SOL     OW 8764   1.726   2.249  10.683
 2771SOL    HW1 8765   1.797   2.312  10.692
 2771SOL    HW2 8766   1.761   2.181  10.626
 2772SOL     OW 8767   0.253   3.203   9.601
 2772SOL    HW1 8768   0.160   3.213   9.581
 2772SOL    HW2 8769   0.263   3.241   9.688
 2773SOL     OW 8770   0.106   2.861  11.027
 2773SOL    HW1 8771   0.045   2.852  11.101
 2773SOL    HW2 8772   0.192   2.842  11.065
 2774SOL     OW 8773   0.674   2.058  10.809
 2774SOL    HW1 8774   0.758   2.038  10.768
 2774SOL    HW2 8775   0.698   2.090  10.897
 2775SOL     OW 8776   0.080   2.180   9.347
 2775SOL    HW1 8777   3.985   2.179   9.353
 2775SOL    HW2 8778   0.101   2.260   9.299
 2776SOL     OW 8779   1.429   2.720  10.710
 2776SOL    HW1 8780   1.381   2.781  10.654
 2776SOL    HW2 8781   1.519   2.723  10.677
 2777SOL     OW 8782   0.022   2.089   9.682
 2777SOL    HW1 8783   0.045   2.155   9.616
 2777SOL    HW2 8784   0.106   2.053   9.711
 2778SOL     OW 8785   1.178   3.201   9.427
 2778SOL    HW1 8786   1.087   3.172   9.429
 2778SOL    HW2 8787   1.206   3.200   9.518
 2779SOL     OW 8788   0.619   2.692  10.745
 2779SOL    HW1 8789   0.675   2.769  10.730
 2779SOL    HW2 8790   0.680   2.619  10.753
 2780SOL     OW 8791   1.485   3.640  10.290
 2780SOL    HW1 8792   1.510   3.696  10.216
 2780SOL    HW2 8793   1.568   3.619  10.332
 2781SOL     OW 8794   0.716   2.426  11.015
 2781SOL    HW1 8795   0.759   2.488  11.074
 2781SOL    HW2 8796   0.745   2.340  11.047
 2782SOL     OW 8797   1.472   3.062  10.942
 2782SOL    HW1 8798   1.460   3.075  11.036
 2782SOL    HW2 8799   1.565   3.077  10.927
 2783SOL     OW 8800   0.379   3.606  10.869
 2783SOL    HW1 8801   0.291   3.641  10.856
 2783SOL    HW2 8802   0.364   3.523  10.916
 2784SOL     OW 8803   1.670   2.743  10.565
 2784SOL    HW1 8804   1.662   2.658  10.522
 2784SOL    HW2 8805   1.659   2.807  10.494
 2785SOL     OW 8806   1.216   2.182   9.768
 2785SOL    HW1 8807   1.279   2.110   9.760
 2785SOL    HW2 8808   1.245   2.231   9.845
 2786SOL     OW 8809   0.590   2.601   9.981
 2786SOL    HW1 8810   0.629   2.687   9.965
 2786SOL    HW2 8811   0.522   2.592   9.913
 2787SOL     OW 8812   1.758   2.241  10.959
 2787SOL    HW1 8813   1.741   2.243  10.865
 2787SOL    HW2 8814   1.698   2.175  10.993
 2788SOL     OW 8815   1.744   2.797  10.822
 2788SOL    HW1 8816   1.741   2.892  10.834
 2788SOL    HW2 8817   1.729   2.785  10.728
 2789SOL     OW 8818   0.864   3.229   9.346
 2789SOL    HW1 8819   0.823   3.258   9.427
 2789SOL    HW2 8820   0.880   3.310   9.297
 2790SOL     OW 8821   0.659   3.652  10.249
 2790SOL    HW1 8822   0.636   3.743  10.229
 2790SOL    HW2 8823   0.754   3.650  10.246
 2791SOL     OW 8824   0.868   2.828  10.164
 2791SOL    HW1 8825   0.918   2.757  10.204
 2791SOL    HW2 8826   0.833   2.878  10.239
 2792SOL     OW 8827   1.078   2.850   9.398
 2792SOL    HW1 8828   1.057   2.901   9.320
 2792SOL    HW2 8829   1.153   2.797   9.373
 2793SOL     OW 8830   1.853   3.414  10.153
 2793SOL    HW1 8831   1.774   3.403  10.101
 2793SOL    HW2 8832   1.845   3.350  10.223
 2794SOL     OW 8833   0.224   3.166  11.166
 2794SOL    HW1 8834   0.153   3.108  11.140
 2794SOL    HW2 8835   0.212   3.179  11.260
 2795SOL     OW 8836   0.112   3.137  10.029
 2795SOL    HW1 8837   0.127   3.087  10.109
 2795SOL    HW2 8838   0.107   3.071   9.959
 2796SOL     OW 8839   0.681   3.264  10.939
 2796SOL    HW1 8840   0.600   3.223  10.968
 2796SOL    HW2 8841   0.677   3.353  10.975
 2797SOL     OW 8842   0.441   2.296   9.843
 2797SOL    HW1 8843   0.442   2.227   9.777
 2797SOL    HW2 8844   0.386   2.262   9.913
 2798SOL     OW 8845   1.701   3.350  10.404
 2798SOL    HW1 8846   1.619   3.327  10.360
 2798SOL    HW2 8847   1.712   3.282  10.471
 2799SOL     OW 8848   0.333   2.417  10.601
 2799SOL    HW1 8849   0.388   2.361  10.656
 2799SOL    HW2 8850   0.348   2.387  10.512
 2800SOL     OW 8851   0.827   3.441   9.987
 2800SOL    HW1 8852   0.815   3.491   9.906
 2800SOL    HW2 8853   0.751   3.382   9.991
 2801SOL     OW 8854   1.437   2.090  10.429
 2801SOL    HW1 8855   1.450   2.004  10.468
 2801SOL    HW2 8856   1.382   2.137  10.492
 2802SOL     OW 8857   1.009   1.880  10.452
 2802SOL    HW1 8858   0.955   1.812  10.411
 2802SOL    HW2 8859   1.097   1.843  10.454
 2803SOL     OW 8860   0.771   3.194   9.626
 2803SOL    HW1 8861   0.740   3.104   9.632
 2803SOL    HW2 8862   0.855   3.194   9.674
 2804SOL     OW 8863   0.620   3.417  10.595
 2804SOL    HW1 8864   0.622   3.498  10.645
 2804SOL    HW2 8865   0.708   3.410  10.557
 2805SOL     OW 8866   1.351   1.914   9.476
 2805SOL    HW1 8867   1.379   1.853   9.408
 2805SOL    HW2 8868   1.263   1.883   9.500
 2806SOL     OW 8869   1.298   2.323   9.991
 2806SOL    HW1 8870   1.244   2.402   9.998
 2806SOL    HW2 8871   1.293   2.283  10.078
 2807SOL     OW 8872   1.571   2.056  10.181
 2807SOL    HW1 8873   1.532   2.081  10.265
 2807SOL    HW2 8874   1.588   2.139  10.136
 2808SOL     OW 8875   0.046   2.913   9.549
 2808SOL    HW1 8876   0.140   2.897   9.540
 2808SOL    HW2 8877   0.011   2.832   9.585
 2809SOL     OW 8878   0.884   3.518   9.654
 2809SOL    HW1 8879   0.814   3.498   9.593
 2809SOL    HW2 8880   0.853   3.594   9.703
 2810SOL     OW 8881   0.231   2.484  11.292
 2810SOL    HW1 8882   0.138   2.493  11.313
 2810SOL    HW2 8883   0.233   2.454  11.201
 2811SOL     OW 8884   0.229   2.133  12.159
 2811SOL    HW1 8885   0.249   2.101  12.246
 2811SOL    HW2 8886   0.134   2.125  12.152
 2812SOL     OW 8887   0.011   2.223  11.803
 2812SOL    HW1 8888   3.924   2.241  11.839
 2812SOL    HW2 8889   3.995   2.189  11.715
 2813SOL     OW 8890   0.577   3.147  12.357
 2813SOL    HW1 8891   0.491   3.151  12.316
 2813SOL    HW2 8892   0.593   3.235  12.391
 2814SOL     OW 8893   1.561   3.373  11.879
 2814SOL    HW1 8894   1.518   3.352  11.963
 2814SOL    HW2 8895   1.489   3.377  11.816
 2815SOL     OW 8896   1.131   2.560  11.872
 2815SOL    HW1 8897   1.180   2.641  11.859
 2815SOL    HW2 8898   1.084   2.574  11.955
 2816SOL     OW 8899   1.771   2.467  11.400
 2816SOL    HW1 8900   1.748   2.462  11.308
 2816SOL    HW2 8901   1.736   2.387  11.439
 2817SOL     OW 8902   0.756   3.003  12.212
 2817SOL    HW1 8903   0.690   3.037  12.272
 2817SOL    HW2 8904   0.791   3.080  12.167
 2818SOL     OW 8905   0.866   2.636  12.993
 2818SOL    HW1 8906   0.858   2.708  13.056
 2818SOL    HW2 8907   0.890   2.679  12.911
 2819SOL     OW 8908   0.686   2.865  11.819
 2819SOL    HW1 8909   0.751   2.853  11.888
 2819SOL    HW2 8910   0.616   2.917  11.861
 2820SOL     OW 8911   0.710   3.012  12.985
 2820SOL    HW1 8912   0.758   3.090  13.012
 2820SOL    HW2 8913   0.628   3.045  12.949
 2821SOL     OW 8914   0.351   3.264  12.250
 2821SOL    HW1 8915   0.268   3.250  12.204
 2821SOL    HW2 8916   0.400   3.323  12.193
 2822SOL     OW 8917   1.461   3.362  12.526
 2822SOL    HW1 8918   1.512   3.442  12.536
 2822SOL    HW2 8919   1.398   3.364  12.598
 2823SOL     OW 8920   0.450   2.262  12.662
 2823SOL    HW1 8921   0.525   2.202  12.665
 2823SOL    HW2 8922   0.374   2.206  12.674
 2824SOL     OW 8923   1.605   2.309  11.911
 2824SOL    HW1 8924   1.525   2.331  11.865
 2824SOL    HW2 8925   1.622   2.385  11.967
 2825SOL     OW 8926   0.225   3.571  11.638
 2825SOL    HW1 8927   0.228   3.652  11.689
 2825SOL    HW2 8928   0.301   3.575  11.581
 2826SOL     OW 8929   1.137   3.203  12.864
 2826SOL    HW1 8930   1.177   3.198  12.951
 2826SOL    HW2 8931   1.084   3.124  12.858
 2827SOL     OW 8932   0.247   3.305  11.712
 2827SOL    HW1 8933   0.220   3.396  11.698
 2827SOL    HW2 8934   0.178   3.267  11.765
 2828SOL     OW 8935   0.246   2.930  12.056
 2828SOL    HW1 8936   0.265   2.846  12.097
 2828SOL    HW2 8937   0.194   2.978  12.121
 2829SOL     OW 8938   0.612   3.649  12.601
 2829SOL    HW1 8939   0.530   3.634  12.647
 2829SOL    HW2 8940   0.638   3.737  12.625
 2830SOL     OW 8941   0.580   2.846  11.308
 2830SOL    HW1 8942   0.627   2.892  11.239
 2830SOL    HW2 8943   0.622   2.875  11.389
 2831SOL     OW 8944   1.590   1.990  12.637
 2831SOL    HW1 8945   1.584   2.074  12.592
 2831SOL    HW2 8946   1.582   2.012  12.730
 2832SOL     OW 8947   0.141   2.512  11.746
 2832SOL    HW1 8948   0.086   2.433  11.746
 2832SOL    HW2 8949   0.105   2.566  11.815
 2833SOL     OW 8950   1.842   3.613  11.510
 2833SOL    HW1 8951   1.908   3.588  11.574
 2833SOL    HW2 8952   1.864   3.703  11.486
 2834SOL     OW 8953   0.041   3.454  11.312
 2834SOL    HW1 8954   0.033   3.362  11.335
 2834SOL    HW2 8955   3.961   3.495  11.346
 2835SOL     OW 8956   1.689   2.780  11.813
 2835SOL    HW1 8957   1.772   2.738  11.791
 2835SOL    HW2 8958   1.667   2.831  11.735
 2836SOL     OW 8959   1.646   2.968  11.601
 2836SOL    HW1 8960   1.732   2.974  11.559
 2836SOL    HW2 8961   1.651   3.030  11.674
 2837SOL     OW 8962   0.136   2.614  12.762
 2837SOL    HW1 8963   0.231   2.608  12.762
 2837SOL    HW2 8964   0.117   2.705  12.786
 2838SOL     OW 8965   0.614   3.247  11.906
 2838SOL    HW1 8966   0.567   3.164  11.916
 2838SOL    HW2 8967   0.597   3.274  11.816
 2839SOL     OW 8968   1.288   3.100  12.595
 2839SOL    HW1 8969   1.321   3.032  12.535
 2839SOL    HW2 8970   1.346   3.094  12.671
 2840SOL     OW 8971   0.817   1.861  11.681
 2840SOL    HW1 8972   0.857   1.946  11.662
 2840SOL    HW2 8973   0.723   1.880  11.688
 2841SOL     OW 8974   0.185   2.814  12.449
 2841SOL    HW1 8975   0.273   2.779  12.436
 2841SOL    HW2 8976   0.132   2.773  12.382
 2842SOL     OW 8977   1.531   2.856  11.370
 2842SOL    HW1 8978   1.462   2.799  11.402
 2842SOL    HW2 8979   1.572   2.890  11.450
 2843SOL     OW 8980   1.212   3.664  12.798
 2843SOL    HW1 8981   1.194   3.725  12.726
 2843SOL    HW2 8982   1.215   3.578  12.757
 2844SOL     OW 8983   0.339   2.109  12.986
 2844SOL    HW1 8984   0.379   2.196  12.993
 2844SOL    HW2 8985   0.248   2.122  13.011
 2845SOL     OW 8986   1.466   3.282  12.123
 2845SOL    HW1 8987   1.398   3.297  12.189
 2845SOL    HW2 8988   1.454   3.191  12.097
 2846SOL     OW 8989   1.656   3.600  11.752
 2846SOL    HW1 8990   1.641   3.569  11.663
 2846SOL    HW2 8991   1.632   3.525  11.807
 2847SOL     OW 8992   0.596   2.580  11.436
 2847SOL    HW1 8993   0.603   2.664  11.390
 2847SOL    HW2 8994   0.533   2.597  11.506
 2848SOL     OW 8995   1.279   2.218  12.106
 2848SOL    HW1 8996   1.190   2.182  12.115
 2848SOL    HW2 8997   1.333   2.162  12.162
 2849SOL     OW 8998   1.578   3.536  11.480
 2849SOL    HW1 8999   1.670   3.562  11.475
 2849SOL    HW2 9000   1.553   3.516  11.390
 2850SOL     OW 9001   0.791   2.480  12.624
 2850SOL    HW1 9002   0.765   2.455  12.712
 2850SOL    HW2 9003   0.752   2.413  12.568
 2851SOL     OW 9004   1.394   2.335  12.849
 2851SOL    HW1 9005   1.396   2.380  12.933
 2851SOL    HW2 9006   1.458   2.264  12.858
 2852SOL     OW 9007   0.954   2.749  12.755
 2852SOL    HW1 9008   1.009   2.679  12.719
 2852SOL    HW2 9009   0.906   2.783  12.679
 2853SOL     OW 9010   0.992   2.274  12.410
 2853SOL    HW1 9011   0.906   2.296  12.447
 2853SOL    HW2 9012   0.973   2.229  12.329
 2854SOL     OW 9013   1.051   2.560  11.598
 2854SOL    HW1 9014   1.067   2.553  11.692
 2854SOL    HW2 9015   0.969   2.514  11.584
 2855SOL     OW 9016   0.082   2.688  11.962
 2855SOL    HW1 9017   0.159   2.659  12.011
 2855SOL    HW2 9018   0.095   2.782  11.951
 2856SOL     OW 9019   0.128   3.715  12.748
 2856SOL    HW1 9020   0.134   3.683  12.838
 2856SOL    HW2 9021   0.035   3.702  12.725
 2857SOL     OW 9022   0.894   2.211  11.365
 2857SOL    HW1 9023   0.934   2.273  11.304
 2857SOL    HW2 9024   0.912   2.125  11.327
 2858SOL     OW 9025   1.705   2.438  13.004
 2858SOL    HW1 9026   1.669   2.509  12.950
 2858SOL    HW2 9027   1.736   2.374  12.940
 2859SOL     OW 9028   1.377   3.004  11.713
 2859SOL    HW1 9029   1.456   2.991  11.660
 2859SOL    HW2 9030   1.324   3.066  11.663
 2860SOL     OW 9031   0.545   2.041  12.065
 2860SOL    HW1 9032   0.552   2.073  12.155
 2860SOL    HW2 9033   0.547   2.121  12.012
 2861SOL     OW 9034   1.006   3.307  11.644
 2861SOL    HW1 9035   0.967   3.380  11.595
 2861SOL    HW2 9036   0.988   3.327  11.736
 2862SOL     OW 9037   0.359   3.669  12.031
 2862SOL    HW1 9038   0.435   3.613  12.042
 2862SOL    HW2 9039   0.393   3.758  12.040
 2863SOL     OW 9040   1.799   2.918  12.040
 2863SOL    HW1 9041   1.744   2.900  11.963
 2863SOL    HW2 9042   1.737   2.924  12.113
 2864SOL     OW 9043   1.228   3.399  12.683
 2864SOL    HW1 9044   1.214   3.327  12.745
 2864SOL    HW2 9045   1.162   3.386  12.615
 2865SOL     OW 9046   0.311   2.817  11.414
 2865SOL    HW1 9047   0.395   2.840  11.375
 2865SOL    HW2 9048   0.297   2.726  11.389
 2866SOL     OW 9049   1.479   2.604  11.898
 2866SOL    HW1 9050   1.470   2.562  11.984
 2866SOL    HW2 9051   1.556   2.660  11.906
 2867SOL     OW 9052   0.466   3.121  12.909
 2867SOL    HW1 9053   0.440   3.130  12.817
 2867SOL    HW2 9054   0.384   3.127  12.958
 2868SOL     OW 9055   1.113   3.642  11.395
 2868SOL    HW1 9056   1.050   3.595  11.450
 2868SOL    HW2 9057   1.143   3.578  11.331
 2869SOL     OW 9058   0.204   2.140  12.680
 2869SOL    HW1 9059   0.114   2.171  12.670
 2869SOL    HW2 9060   0.195   2.055  12.723
 2870SOL     OW 9061   1.628   3.242  11.261
 2870SOL    HW1 9062   1.587   3.327  11.244
 2870SOL    HW2 9063   1.559   3.179  11.241
 2871SOL     OW 9064   0.469   3.600  11.493
 2871SOL    HW1 9065   0.506   3.663  11.554
 2871SOL    HW2 9066   0.542   3.573  11.438
 2872SOL     OW 9067   1.398   1.970  11.602
 2872SOL    HW1 9068   1.382   1.946  11.511
 2872SOL    HW2 9069   1.491   1.951  11.615
 2873SOL     OW 9070   0.251   3.656  12.401
 2873SOL    HW1 9071   0.298   3.591  12.454
 2873SOL    HW2 9072   0.248   3.617  12.313
 2874SOL     OW 9073   0.937   3.561  12.073
 2874SOL    HW1 9074   1.015   3.509  12.094
 2874SOL    HW2 9075   0.893   3.512  12.004
 2875SOL     OW 9076   0.397   2.555  11.644
 2875SOL    HW1 9077   0.423   2.465  11.658
 2875SOL    HW2 9078   0.305   2.558  11.671
 2876SOL     OW 9079   1.538   2.086  12.897
 2876SOL    HW1 9080   1.550   2.108  12.990
 2876SOL    HW2 9081   1.467   2.021  12.897
 2877SOL     OW 9082   0.636   1.982  11.271
 2877SOL    HW1 9083   0.703   1.916  11.288
 2877SOL    HW2 9084   0.589   1.950  11.195
 2878SOL     OW 9085   0.766   2.139  12.925
 2878SOL    HW1 9086   0.843   2.082  12.926
 2878SOL    HW2 9087   0.719   2.118  13.006
 2879SOL     OW 9088   0.876   3.382  12.366
 2879SOL    HW1 9089   0.860   3.347  12.279
 2879SOL    HW2 9090   0.946   3.328  12.402
 2880SOL     OW 9091   1.341   2.451  12.604
 2880SOL    HW1 9092   1.371   2.419  12.689
 2880SOL    HW2 9093   1.377   2.539  12.597
 2881SOL     OW 9094   0.815   3.256  12.111
 2881SOL    HW1 9095   0.900   3.245  12.068
 2881SOL    HW2 9096   0.752   3.257  12.039
 2882SOL     OW 9097   0.928   2.371  12.075
 2882SOL    HW1 9098   0.905   2.363  11.982
 2882SOL    HW2 9099   0.959   2.284  12.100
 2883SOL     OW 9100   0.554   1.924  11.670
 2883SOL    HW1 9101   0.472   1.929  11.718
 2883SOL    HW2 9102   0.558   2.007  11.621
 2884SOL     OW 9103   1.428   3.060  11.213
 2884SOL    HW1 9104   1.459   2.985  11.263
 2884SOL    HW2 9105   1.342   3.081  11.250
 2885SOL     OW 9106   0.307   1.913  11.342
 2885SOL    HW1 9107   0.372   1.952  11.284
 2885SOL    HW2 9108   0.355   1.847  11.392
 2886SOL     OW 9109   0.938   2.108  11.633
 2886SOL    HW1 9110   0.908   2.149  11.552
 2886SOL    HW2 9111   1.033   2.124  11.635
 2887SOL     OW 9112   1.080   2.543  12.631
 2887SOL    HW1 9113   1.012   2.476  12.636
 2887SOL    HW2 9114   1.162   2.493  12.625
 2888SOL     OW 9115   1.223   3.432  11.965
 2888SOL    HW1 9116   1.239   3.500  11.900
 2888SOL    HW2 9117   1.291   3.445  12.031
 2889SOL     OW 9118   0.466   3.012  11.909
 2889SOL    HW1 9119   0.394   2.989  11.968
 2889SOL    HW2 9120   0.432   2.996  11.821
 2890SOL     OW 9121   1.268   3.658  11.778
 2890SOL    HW1 9122   1.314   3.722  11.724
 2890SOL    HW2 9123   1.197   3.707  11.820
 2891SOL     OW 9124   1.024   2.403  11.195
 2891SOL    HW1 9125   0.981   2.487  11.175
 2891SOL    HW2 9126   1.089   2.425  11.261
 2892SOL     OW 9127   0.081   2.433  12.562
 2892SOL    HW1 9128   0.170   2.420  12.532
 2892SOL    HW2 9129   0.088   2.503  12.627
 2893SOL     OW 9130   0.567   2.089  12.336
 2893SOL    HW1 9131   0.607   2.012  12.377
 2893SOL    HW2 9132   0.476   2.086  12.366
 2894SOL     OW 9133   0.868   2.321  11.812
 2894SOL    HW1 9134   0.820   2.374  11.749
 2894SOL    HW2 9135   0.888   2.240  11.765
 2895SOL     OW 9136   1.016   1.915  11.924
 2895SOL    HW1 9137   0.957   1.909  11.848
 2895SOL    HW2 9138   0.993   1.840  11.978
 2896SOL     OW 9139   1.437   3.025  12.029
 2896SOL    HW1 9140   1.368   2.958  12.029
 2896SOL    HW2 9141   1.461   3.035  11.937
 2897SOL     OW 9142   1.466   2.467  12.148
 2897SOL    HW1 9143   1.414   2.387  12.151
 2897SOL    HW2 9144   1.525   2.461  12.223
 2898SOL     OW 9145   1.845   2.678  11.555
 2898SOL    HW1 9146   1.903   2.628  11.613
 2898SOL    HW2 9147   1.818   2.615  11.488
 2899SOL     OW 9148   0.489   3.279  11.332
 2899SOL    HW1 9149   0.413   3.249  11.383
 2899SOL    HW2 9150   0.468   3.255  11.242
 2900SOL     OW 9151   1.671   3.126  11.817
 2900SOL    HW1 9152   1.766   3.129  11.831
 2900SOL    HW2 9153   1.641   3.214  11.839
 2901SOL     OW 9154   1.393   2.435  11.242
 2901SOL    HW1 9155   1.334   2.414  11.314
 2901SOL    HW2 9156   1.479   2.404  11.271
 2902SOL     OW 9157   0.574   2.131  11.494
 2902SOL    HW1 9158   0.601   2.082  11.416
 2902SOL    HW2 9159   0.541   2.214  11.460
 2903SOL     OW 9160   1.752   3.102  12.744
 2903SOL    HW1 9161   1.839   3.062  12.741
 2903SOL    HW2 9162   1.768   3.192  12.772
 2904SOL     OW 9163   1.058   3.215  12.505
 2904SOL    HW1 9164   0.983   3.184  12.556
 2904SOL    HW2 9165   1.134   3.174  12.546
 2905SOL     OW 9166   1.608   3.488  12.826
 2905SOL    HW1 9167   1.602   3.521  12.737
 2905SOL    HW2 9168   1.692   3.440  12.828
 2906SOL     OW 9169   1.129   3.065  12.277
 2906SOL    HW1 9170   1.071   3.103  12.342
 2906SOL    HW2 9171   1.096   3.098  12.193
 2907SOL     OW 9172   1.628   2.960  12.249
 2907SOL    HW1 9173   1.624   3.022  12.322
 2907SOL    HW2 9174   1.549   2.977  12.198
 2908SOL     OW 9175   0.918   1.959  12.568
 2908SOL    HW1 9176   0.941   1.940  12.477
 2908SOL    HW2 9177   0.997   1.998  12.605
 2909SOL     OW 9178   0.984   2.977  12.894
 2909SOL    HW1 9179   0.892   2.993  12.916
 2909SOL    HW2 9180   0.983   2.899  12.839
 2910SOL     OW 9181   0.707   2.922  11.543
 2910SOL    HW1 9182   0.694   2.907  11.636
 2910SOL    HW2 9183   0.784   2.869  11.520
 2911SOL     OW 9184   0.421   2.677  12.424
 2911SOL    HW1 9185   0.489   2.686  12.490
 2911SOL    HW2 9186   0.386   2.589  12.436
 2912SOL     OW 9187   1.265   2.238  12.448
 2912SOL    HW1 9188   1.298   2.316  12.494
 2912SOL    HW2 9189   1.175   2.260  12.425
 2913SOL     OW 9190   0.065   3.441  12.517
 2913SOL    HW1 9191   0.069   3.504  12.445
 2913SOL    HW2 9192   0.156   3.428  12.543
 2914SOL     OW 9193   0.373   2.964  11.657
 2914SOL    HW1 9194   0.367   3.043  11.603
 2914SOL    HW2 9195   0.372   2.892  11.593
 2915SOL     OW 9196   0.551   2.399  12.034
 2915SOL    HW1 9197   0.567   2.456  11.958
 2915SOL    HW2 9198   0.618   2.426  12.097
 2916SOL     OW 9199   1.248   3.210  11.561
 2916SOL    HW1 9200   1.304   3.282  11.592
 2916SOL    HW2 9201   1.161   3.232  11.595
 2917SOL     OW 9202   1.281   3.320  12.319
 2917SOL    HW1 9203   1.337   3.323  12.397
 2917SOL    HW2 9204   1.226   3.243  12.332
 2918SOL     OW 9205   1.578   2.488  11.645
 2918SOL    HW1 9206   1.534   2.538  11.713
 2918SOL    HW2 9207   1.627   2.553  11.595
 2919SOL     OW 9208   0.345   3.388  12.491
 2919SOL    HW1 9209   0.336   3.338  12.410
 2919SOL    HW2 9210   0.439   3.404  12.498
 2920SOL     OW 9211   0.414   2.602  12.773
 2920SOL    HW1 9212   0.476   2.648  12.716
 2920SOL    HW2 9213   0.455   2.517  12.790
 2921SOL     OW 9214   1.601   2.641  12.853
 2921SOL    HW1 9215   1.516   2.683  12.847
 2921SOL    HW2 9216   1.654   2.683  12.786
 2922SOL     OW 9217   0.996   1.986  12.927
 2922SOL    HW1 9218   1.052   2.059  12.900
 2922SOL    HW2 9219   1.044   1.907  12.901
 2923SOL     OW 9220   0.498   1.899  12.917
 2923SOL    HW1 9221   0.454   1.846  12.850
 2923SOL    HW2 9222   0.442   1.976  12.926
 2924SOL     OW 9223   0.584   2.735  12.203
 2924SOL    HW1 9224   0.616   2.826  12.203
 2924SOL    HW2 9225   0.529   2.730  12.281
 2925SOL     OW 9226   1.357   2.721  12.201
 2925SOL    HW1 9227   1.273   2.711  12.155
 2925SOL    HW2 9228   1.398   2.634  12.195
 2926SOL     OW 9229   1.205   2.391  11.439
 2926SOL    HW1 9230   1.212   2.312  11.493
 2926SOL    HW2 9231   1.162   2.455  11.495
 2927SOL     OW 9232   0.311   2.060  12.419
 2927SOL    HW1 9233   0.265   2.097  12.494
 2927SOL    HW2 9234   0.287   1.967  12.420
 2928SOL     OW 9235   0.058   3.167  12.452
 2928SOL    HW1 9236   0.090   3.127  12.533
 2928SOL    HW2 9237   0.051   3.260  12.472
 2929SOL     OW 9238   0.725   2.493  12.230
 2929SOL    HW1 9239   0.799   2.477  12.172
 2929SOL    HW2 9240   0.697   2.582  12.208
 2930SOL     OW 9241   1.734   2.821  13.025
 2930SOL    HW1 9242   1.689   2.758  12.969
 2930SOL    HW2 9243   1.675   2.835  13.098
 2931SOL     OW 9244   0.312   1.925  11.793
 2931SOL    HW1 9245   0.292   2.016  11.814
 2931SOL    HW2 9246   0.317   1.881  11.877
 2932SOL     OW 9247   1.611   2.240  11.544
 2932SOL    HW1 9248   1.619   2.185  11.621
 2932SOL    HW2 9249   1.589   2.326  11.578
 2933SOL     OW 9250   1.028   2.621  12.133
 2933SOL    HW1 9251   1.024   2.639  12.227
 2933SOL    HW2 9252   1.002   2.529  12.124
 2934SOL     OW 9253   0.985   3.429  12.890
 2934SOL    HW1 9254   0.967   3.472  12.806
 2934SOL    HW2 9255   1.027   3.346  12.867
 2935SOL     OW 9256   1.855   3.367  12.777
 2935SOL    HW1 9257   1.873   3.394  12.687
 2935SOL    HW2 9258   1.935   3.386  12.825
 2936SOL     OW 9259   0.351   2.782  12.974
 2936SOL    HW1 9260   0.431   2.803  13.023
 2936SOL    HW2 9261   0.380   2.716  12.910
 2937SOL     OW 9262   1.527   2.135  11.301
 2937SOL    HW1 9263   1.462   2.070  11.327
 2937SOL    HW2 9264   1.560   2.171  11.383
 2938SOL     OW 9265   1.291   2.688  11.203
 2938SOL    HW1 9266   1.334   2.603  11.206
 2938SOL    HW2 9267   1.323   2.728  11.121
 2939SOL     OW 9268   1.065   3.198  12.026
 2939SOL    HW1 9269   1.069   3.125  11.963
 2939SOL    HW2 9270   1.127   3.262  11.991
 2940SOL     OW 9271   0.314   2.666  12.122
 2940SOL    HW1 9272   0.407   2.684  12.116
 2940SOL    HW2 9273   0.309   2.576  12.155
 2941SOL     OW 9274   0.331   2.382  12.186
 2941SOL    HW1 9275   0.297   2.294  12.168
 2941SOL    HW2 9276   0.407   2.390  12.128
 2942SOL     OW 9277   1.134   2.238  12.854
 2942SOL    HW1 9278   1.087   2.293  12.917
 2942SOL    HW2 9279   1.222   2.275  12.851
 2943SOL     OW 9280   1.160   2.065  12.642
 2943SOL    HW1 9281   1.150   2.127  12.714
 2943SOL    HW2 9282   1.200   2.115  12.572
 2944SOL     OW 9283   3.999   3.182  11.354
 2944SOL    HW1 9284   3.905   3.197  11.358
 2944SOL    HW2 9285   0.009   3.088  11.373
 2945SOL     OW 9286   0.075   3.663  12.066
 2945SOL    HW1 9287   0.087   3.568  12.068
 2945SOL    HW2 9288   0.164   3.698  12.063
 2946SOL     OW 9289   0.507   3.427  12.087
 2946SOL    HW1 9290   0.574   3.493  12.108
 2946SOL    HW2 9291   0.550   3.368  12.026
 2947SOL     OW 9292   0.982   2.654  12.398
 2947SOL    HW1 9293   1.039   2.631  12.472
 2947SOL    HW2 9294   0.897   2.616  12.421
 2948SOL     OW 9295   0.037   2.417  12.282
 2948SOL    HW1 9296   0.120   2.393  12.239
 2948SOL    HW2 9297   0.057   2.414  12.376
 2949SOL     OW 9298   0.206   2.375  12.899
 2949SOL    HW1 9299   0.248   2.330  12.826
 2949SOL    HW2 9300   0.157   2.447  12.859
 2950SOL     OW 9301   1.377   2.801  12.830
 2950SOL    HW1 9302   1.399   2.894  12.828
 2950SOL    HW2 9303   1.375   2.775  12.738
 2951SOL     OW 9304   0.818   2.431  11.531
 2951SOL    HW1 9305   0.821   2.355  11.473
 2951SOL    HW2 9306   0.743   2.483  11.499
 2952SOL     OW 9307   1.644   2.464  12.356
 2952SOL    HW1 9308   1.632   2.408  12.433
 2952SOL    HW2 9309   1.730   2.440  12.322
 2953SOL     OW 9310   0.297   3.409  12.902
 2953SOL    HW1 9311   0.247   3.478  12.945
 2953SOL    HW2 9312   0.264   3.328  12.940
 2954SOL     OW 9313   0.702   2.313  12.431
 2954SOL    HW1 9314   0.651   2.238  12.401
 2954SOL    HW2 9315   0.698   2.376  12.359
 2955SOL     OW 9316   0.929   3.535  12.640
 2955SOL    HW1 9317   0.902   3.499  12.555
 2955SOL    HW2 9318   0.922   3.630  12.629
 2956SOL     OW 9319   0.458   2.352  11.365
 2956SOL    HW1 9320   0.523   2.420  11.384
 2956SOL    HW2 9321   0.378   2.400  11.345
 2957SOL     OW 9322   0.157   2.998  12.646
 2957SOL    HW1 9323   0.159   2.946  12.727
 2957SOL    HW2 9324   0.171   2.934  12.576
 2958SOL     OW 9325   1.326   2.909  12.395
 2958SOL    HW1 9326   1.349   2.845  12.327
 2958SOL    HW2 9327   1.256   2.961  12.356
 2959SOL     OW 9328   1.311   2.719  11.478
 2959SOL    HW1 9329   1.236   2.688  11.528
 2959SOL    HW2 9330   1.287   2.705  11.387
 2960SOL     OW 9331   1.769   3.606  12.321
 2960SOL    HW1 9332   1.832   3.633  12.254
 2960SOL    HW2 9333   1.748   3.515  12.299
 2961SOL     OW 9334   1.243   3.595  12.283
 2961SOL    HW1 9335   1.326   3.615  12.239
 2961SOL    HW2 9336   1.248   3.502  12.303
 2962SOL     OW 9337   0.076   3.078  12.199
 2962SOL    HW1 9338   0.083   3.104  12.291
 2962SOL    HW2 9339   3.983   3.086  12.179
 2963SOL     OW 9340   0.679   3.526  12.901
 2963SOL    HW1 9341   0.623   3.603  12.904
 2963SOL    HW2 9342   0.739   3.542  12.829
 2964SOL     OW 9343   1.390   3.431  11.657
 2964SOL    HW1 9344   1.450   3.463  11.590
 2964SOL    HW2 9345   1.343   3.508  11.687
 2965SOL     OW 9346   0.167   3.627  13.004
 2965SOL    HW1 9347   0.111   3.574  13.061
 2965SOL    HW2 9348   0.215   3.685  13.064
 2966SOL     OW 9349   1.278   2.787  11.843
 2966SOL    HW1 9350   1.351   2.727  11.850
 2966SOL    HW2 9351   1.311   2.860  11.791
 2967SOL     OW 9352   0.814   3.135  12.602
 2967SOL    HW1 9353   0.786   3.175  12.684
 2967SOL    HW2 9354   0.743   3.155  12.540
 2968SOL     OW 9355   0.675   3.477  11.329
 2968SOL    HW1 9356   0.682   3.493  11.235
 2968SOL    HW2 9357   0.617   3.401  11.336
 2969SOL     OW 9358   1.625   3.588  12.562
 2969SOL    HW1 9359   1.676   3.594  12.481
 2969SOL    HW2 9360   1.612   3.679  12.589
 2970SOL     OW 9361   0.268   2.176  11.889
 2970SOL    HW1 9362   0.182   2.210  11.863
 2970SOL    HW2 9363   0.261   2.166  11.984
 2971SOL     OW 9364   1.207   3.468  11.207
 2971SOL    HW1 9365   1.197   3.375  11.231
 2971SOL    HW2 9366   1.146   3.480  11.134
 2972SOL     OW 9367   0.823   2.868  12.544
 2972SOL    HW1 9368   0.868   2.863  12.460
 2972SOL    HW2 9369   0.823   2.961  12.567
 2973SOL     OW 9370   0.916   2.772  11.462
 2973SOL    HW1 9371   0.977   2.804  11.396
 2973SOL    HW2 9372   0.964   2.703  11.507
 2974SOL     OW 9373   1.490   3.489  11.214
 2974SOL    HW1 9374   1.396   3.480  11.198
 2974SOL    HW2 9375   1.529   3.495  11.126
 2975SOL     OW 9376   0.373   3.165  12.663
 2975SOL    HW1 9377   0.359   3.245  12.613
 2975SOL    HW2 9378   0.296   3.111  12.646
 2976SOL     OW 9379   1.611   3.145  12.452
 2976SOL    HW1 9380   1.670   3.134  12.526
 2976SOL    HW2 9381   1.550   3.214  12.481
 2977SOL     OW 9382   1.053   2.969  11.879
 2977SOL    HW1 9383   0.982   2.918  11.918
 2977SOL    HW2 9384   1.115   2.904  11.848
 2978SOL     OW 9385   1.021   2.102  12.139
 2978SOL    HW1 9386   1.017   2.055  12.056
 2978SOL    HW2 9387   1.016   2.034  12.205
 2979SOL     OW 9388   0.604   3.352  11.653
 2979SOL    HW1 9389   0.648   3.302  11.584
 2979SOL    HW2 9390   0.534   3.399  11.607
 2980SOL     OW 9391   1.727   2.248  12.545
 2980SOL    HW1 9392   1.798   2.312  12.553
 2980SOL    HW2 9393   1.762   2.181  12.487
 2981SOL     OW 9394   0.253   3.203  11.463
 2981SOL    HW1 9395   0.160   3.213  11.443
 2981SOL    HW2 9396   0.263   3.241  11.550
 2982SOL     OW 9397   0.106   2.861  12.889
 2982SOL    HW1 9398   0.045   2.853  12.963
 2982SOL    HW2 9399   0.192   2.841  12.927
 2983SOL     OW 9400   0.674   2.058  12.671
 2983SOL    HW1 9401   0.758   2.038  12.630
 2983SOL    HW2 9402   0.698   2.089  12.759
 2984SOL     OW 9403   0.080   2.180  11.209
 2984SOL    HW1 9404   3.985   2.179  11.215
 2984SOL    HW2 9405   0.101   2.260  11.161
 2985SOL     OW 9406   1.429   2.720  12.572
 2985SOL    HW1 9407   1.381   2.782  12.516
 2985SOL    HW2 9408   1.519   2.723  12.539
 2986SOL     OW 9409   0.022   2.089  11.544
 2986SOL    HW1 9410   0.045   2.155  11.478
 2986SOL    HW2 9411   0.105   2.053  11.573
 2987SOL     OW 9412   1.178   3.201  11.289
 2987SOL    HW1 9413   1.087   3.172  11.291
 2987SOL    HW2 9414   1.206   3.200  11.380
 2988SOL     OW 9415   0.619   2.692  12.607
 2988SOL    HW1 9416   0.675   2.769  12.592
 2988SOL    HW2 9417   0.680   2.619  12.615
 2989SOL     OW 9418   1.485   3.640  12.152
 2989SOL    HW1 9419   1.510   3.696  12.078
 2989SOL    HW2 9420   1.568   3.619  12.195
 2990SOL     OW 9421   0.716   2.426  12.877
 2990SOL    HW1 9422   0.759   2.489  12.936
 2990SOL    HW2 9423   0.745   2.340  12.909
 2991SOL     OW 9424   1.472   3.062  12.804
 2991SOL    HW1 9425   1.459   3.075  12.898
 2991SOL    HW2 9426   1.565   3.077  12.789
 2992SOL     OW 9427   0.379   3.606  12.731
 2992SOL    HW1 9428   0.291   3.641  12.718
 2992SOL    HW2 9429   0.364   3.523  12.778
 2993SOL     OW 9430   1.670   2.743  12.427
 2993SOL    HW1 9431   1.662   2.658  12.384
 2993SOL    HW2 9432   1.659   2.807  12.356
 2994SOL     OW 9433   1.216   2.182  11.630
 2994SOL    HW1 9434   1.279   2.110  11.622
 2994SOL    HW2 9435   1.245   2.231  11.707
 2995SOL     OW 9436   0.590   2.601  11.843
 2995SOL    HW1 9437   0.629   2.687  11.827
 2995SOL    HW2 9438   0.522   2.592  11.775
 2996SOL     OW 9439   1.759   2.241  12.820
 2996SOL    HW1 9440   1.742   2.242  12.726
 2996SOL    HW2 9441   1.699   2.174  12.854
 2997SOL     OW 9442   1.743   2.797  12.684
 2997SOL    HW1 9443   1.741   2.892  12.697
 2997SOL    HW2 9444   1.729   2.785  12.590
 2998SOL     OW 9445   0.864   3.229  11.208
 2998SOL    HW1 9446   0.823   3.258  11.289
 2998SOL    HW2 9447   0.880   3.310  11.159
 2999SOL     OW 9448   0.659   3.652  12.111
 2999SOL    HW1 9449   0.636   3.743  12.091
 2999SOL    HW2 9450   0.754   3.650  12.108
 3000SOL     OW 9451   0.868   2.828  12.026
 3000SOL    HW1 9452   0.918   2.757  12.066
 3000SOL    HW2 9453   0.833   2.878  12.101
 3001SOL     OW 9454   1.078   2.850  11.260
 3001SOL    HW1 9455   1.057   2.901  11.182
 3001SOL    HW2 9456   1.153   2.797  11.235
 3002SOL     OW 9457   1.853   3.414  12.015
 3002SOL    HW1 9458   1.773   3.403  11.963
 3002SOL    HW2 9459   1.845   3.350  12.085
 3003SOL     OW 9460   0.225   3.166  13.027
 3003SOL    HW1 9461   0.152   3.109  13.002
 3003SOL    HW2 9462   0.213   3.179  13.121
 3004SOL     OW 9463   0.112   3.137  11.890
 3004SOL    HW1 9464   0.126   3.087  11.971
 3004SOL    HW2 9465   0.107   3.071  11.821
 3005SOL     OW 9466   0.681   3.265  12.800
 3005SOL    HW1 9467   0.600   3.223  12.830
 3005SOL    HW2 9468   0.677   3.353  12.837
 3006SOL     OW 9469   0.441   2.296  11.705
 3006SOL    HW1 9470   0.443   2.227  11.639
 3006SOL    HW2 9471   0.386   2.262  11.775
 3007SOL     OW 9472   1.701   3.350  12.266
 3007SOL    HW1 9473   1.619   3.327  12.222
 3007SOL    HW2 9474   1.712   3.282  12.333
 3008SOL     OW 9475   0.333   2.417  12.463
 3008SOL    HW1 9476   0.388   2.361  12.518
 3008SOL    HW2 9477   0.348   2.387  12.374
 3009SOL     OW 9478   0.827   3.441  11.849
 3009SOL    HW1 9479   0.815   3.490  11.768
 3009SOL    HW2 9480   0.751   3.382  11.853
 3010SOL     OW 9481   1.437   2.090  12.291
 3010SOL    HW1 9482   1.450   2.004  12.330
 3010SOL    HW2 9483   1.382   2.137  12.354
 3011SOL     OW 9484   1.009   1.880  12.314
 3011SOL    HW1 9485   0.955   1.812  12.273
 3011SOL    HW2 9486   1.097   1.843  12.316
 3012SOL     OW 9487   0.772   3.194  11.488
 3012SOL    HW1 9488   0.740   3.104  11.494
 3012SOL    HW2 9489   0.855   3.194  11.536
 3013SOL     OW 9490   0.620   3.417  12.457
 3013SOL    HW1 9491   0.622   3.498  12.507
 3013SOL    HW2 9492   0.708   3.410  12.419
 3014SOL     OW 9493   1.351   1.914  11.337
 3014SOL    HW1 9494   1.380   1.853  11.270
 3014SOL    HW2 9495   1.263   1.883  11.362
 3015SOL     OW 9496   1.298   2.323  11.853
 3015SOL    HW1 9497   1.244   2.402  11.860
 3015SOL    HW2 9498   1.293   2.283  11.940
 3016SOL     OW 9499   1.571   2.056  12.043
 3016SOL    HW1 9500   1.532   2.081  12.127
 3016SOL    HW2 9501   1.588   2.139  11.999
 3017SOL     OW 9502   0.046   2.913  11.411
 3017SOL    HW1 9503   0.140   2.897  11.402
 3017SOL    HW2 9504   0.011   2.832  11.447
 3018SOL     OW 9505   0.884   3.518  11.516
 3018SOL    HW1 9506   0.814   3.498  11.455
 3018SOL    HW2 9507   0.853   3.594  11.565
 3019SOL     OW 9508   0.230   2.485  13.155
 3019SOL    HW1 9509   0.137   2.493  13.174
 3019SOL    HW2 9510   0.233   2.455  13.064
 3020SOL     OW 9511   0.284   2.127   0.131
 3020SOL    HW1 9512   0.321   2.189   0.195
 3020SOL    HW2 9513   0.200   2.165   0.107
 3021SOL     OW 9514   0.006   2.224  13.658
 3021SOL    HW1 9515   3.913   2.243  13.662
 3021SOL    HW2 9516   0.020   2.189  13.570
 3022SOL     OW 9517   1.528   3.361  13.725
 3022SOL    HW1 9518   1.471   3.299  13.770
 3022SOL    HW2 9519   1.482   3.380  13.643
 3023SOL     OW 9520   1.127   2.563  13.732
 3023SOL    HW1 9521   1.182   2.638  13.709
 3023SOL    HW2 9522   1.082   2.590  13.812
 3024SOL     OW 9523   1.778   2.465  13.260
 3024SOL    HW1 9524   1.751   2.460  13.168
 3024SOL    HW2 9525   1.735   2.390  13.301
 3025SOL     OW 9526   0.686   2.872  13.672
 3025SOL    HW1 9527   0.740   2.851  13.748
 3025SOL    HW2 9528   0.613   2.923  13.708
 3026SOL     OW 9529   1.622   2.313  13.740
 3026SOL    HW1 9530   1.530   2.326  13.717
 3026SOL    HW2 9531   1.633   2.360  13.822
 3027SOL     OW 9532   0.222   3.572  13.498
 3027SOL    HW1 9533   0.241   3.631  13.570
 3027SOL    HW2 9534   0.300   3.576  13.443
 3028SOL     OW 9535   0.245   3.304  13.571
 3028SOL    HW1 9536   0.219   3.395  13.561
 3028SOL    HW2 9537   0.181   3.266  13.631
 3029SOL     OW 9538   0.252   2.938   0.019
 3029SOL    HW1 9539   0.273   2.896   0.102
 3029SOL    HW2 9540   0.213   3.022   0.044
 3030SOL     OW 9541   0.580   2.846  13.169
 3030SOL    HW1 9542   0.627   2.892  13.100
 3030SOL    HW2 9543   0.622   2.876  13.250
 3031SOL     OW 9544   0.143   2.506  13.616
 3031SOL    HW1 9545   0.070   2.447  13.594
 3031SOL    HW2 9546   0.104   2.572  13.673
 3032SOL     OW 9547   1.843   3.613  13.372
 3032SOL    HW1 9548   1.909   3.589  13.437
 3032SOL    HW2 9549   1.864   3.703  13.349
 3033SOL     OW 9550   0.041   3.455  13.174
 3033SOL    HW1 9551   0.033   3.363  13.197
 3033SOL    HW2 9552   3.964   3.497  13.214
 3034SOL     OW 9553   1.687   2.778  13.669
 3034SOL    HW1 9554   1.773   2.742  13.648
 3034SOL    HW2 9555   1.665   2.832  13.594
 3035SOL     OW 9556   1.647   2.967  13.460
 3035SOL    HW1 9557   1.732   2.972  13.417
 3035SOL    HW2 9558   1.653   3.030  13.532
 3036SOL     OW 9559   0.613   3.247  13.761
 3036SOL    HW1 9560   0.563   3.167  13.778
 3036SOL    HW2 9561   0.584   3.276  13.675
 3037SOL     OW 9562   0.816   1.860  13.543
 3037SOL    HW1 9563   0.856   1.944  13.523
 3037SOL    HW2 9564   0.722   1.879  13.551
 3038SOL     OW 9565   1.531   2.855  13.233
 3038SOL    HW1 9566   1.461   2.798  13.265
 3038SOL    HW2 9567   1.571   2.891  13.312
 3039SOL     OW 9568   1.655   3.597  13.612
 3039SOL    HW1 9569   1.637   3.568  13.523
 3039SOL    HW2 9570   1.645   3.518  13.666
 3040SOL     OW 9571   0.595   2.581  13.297
 3040SOL    HW1 9572   0.602   2.664  13.250
 3040SOL    HW2 9573   0.532   2.598  13.367
 3041SOL     OW 9574   1.253   2.192   0.044
 3041SOL    HW1 9575   1.184   2.138   0.083
 3041SOL    HW2 9576   1.333   2.164   0.089
 3042SOL     OW 9577   1.578   3.538  13.341
 3042SOL    HW1 9578   1.671   3.562  13.336
 3042SOL    HW2 9579   1.555   3.517  13.250
 3043SOL     OW 9580   1.049   2.559  13.459
 3043SOL    HW1 9581   1.063   2.549  13.553
 3043SOL    HW2 9582   0.967   2.511  13.442
 3044SOL     OW 9583   0.082   2.699  13.807
 3044SOL    HW1 9584   0.166   2.682  13.851
 3044SOL    HW2 9585   0.075   2.794  13.805
 3045SOL     OW 9586   0.891   2.211  13.225
 3045SOL    HW1 9587   0.934   2.273  13.165
 3045SOL    HW2 9588   0.914   2.124  13.190
 3046SOL     OW 9589   1.365   2.998  13.556
 3046SOL    HW1 9590   1.454   2.996  13.520
 3046SOL    HW2 9591   1.321   3.068  13.507
 3047SOL     OW 9592   1.003   3.304  13.504
 3047SOL    HW1 9593   0.967   3.380  13.456
 3047SOL    HW2 9594   0.975   3.317  13.594
 3048SOL     OW 9595   0.407   3.674  13.816
 3048SOL    HW1 9596   0.432   3.586  13.845
 3048SOL    HW2 9597   0.448   3.732  13.880
 3049SOL     OW 9598   1.791   2.916  13.898
 3049SOL    HW1 9599   1.735   2.904  13.822
 3049SOL    HW2 9600   1.732   2.911   0.074
 3050SOL     OW 9601   0.311   2.817  13.277
 3050SOL    HW1 9602   0.394   2.841  13.237
 3050SOL    HW2 9603   0.297   2.726  13.251
 3051SOL     OW 9604   1.487   2.595  13.745
 3051SOL    HW1 9605   1.479   2.547  13.828
 3051SOL    HW2 9606   1.562   2.653  13.758
 3052SOL     OW 9607   1.112   3.643  13.256
 3052SOL    HW1 9608   1.051   3.596  13.312
 3052SOL    HW2 9609   1.143   3.578  13.193
 3053SOL     OW 9610   1.628   3.242  13.122
 3053SOL    HW1 9611   1.587   3.327  13.105
 3053SOL    HW2 9612   1.559   3.178  13.103
 3054SOL     OW 9613   0.467   3.599  13.353
 3054SOL    HW1 9614   0.505   3.661  13.415
 3054SOL    HW2 9615   0.541   3.572  13.299
 3055SOL     OW 9616   1.402   1.974  13.462
 3055SOL    HW1 9617   1.382   1.949  13.371
 3055SOL    HW2 9618   1.493   1.950  13.474
 3056SOL     OW 9619   0.931   3.549   0.012
 3056SOL    HW1 9620   0.956   3.480   0.074
 3056SOL    HW2 9621   0.886   3.503  13.842
 3057SOL     OW 9622   0.395   2.558  13.505
 3057SOL    HW1 9623   0.424   2.467  13.517
 3057SOL    HW2 9624   0.304   2.558  13.535
 3058SOL     OW 9625   0.636   1.982  13.134
 3058SOL    HW1 9626   0.703   1.916  13.151
 3058SOL    HW2 9627   0.589   1.949  13.057
 3059SOL     OW 9628   0.552   1.925  13.533
 3059SOL    HW1 9629   0.468   1.928  13.577
 3059SOL    HW2 9630   0.557   2.007  13.484
 3060SOL     OW 9631   1.428   3.060  13.075
 3060SOL    HW1 9632   1.459   2.984  13.125
 3060SOL    HW2 9633   1.343   3.081  13.113
 3061SOL     OW 9634   0.306   1.912  13.203
 3061SOL    HW1 9635   0.372   1.951  13.145
 3061SOL    HW2 9636   0.355   1.847  13.254
 3062SOL     OW 9637   0.939   2.104  13.495
 3062SOL    HW1 9638   0.907   2.149  13.417
 3062SOL    HW2 9639   1.032   2.123  13.497
 3063SOL     OW 9640   0.469   3.005  13.770
 3063SOL    HW1 9641   0.395   2.985  13.828
 3063SOL    HW2 9642   0.434   2.994  13.682
 3064SOL     OW 9643   1.270   3.660  13.630
 3064SOL    HW1 9644   1.314   3.727  13.577
 3064SOL    HW2 9645   1.203   3.708  13.678
 3065SOL     OW 9646   1.024   2.403  13.057
 3065SOL    HW1 9647   0.981   2.487  13.037
 3065SOL    HW2 9648   1.089   2.424  13.123
 3066SOL     OW 9649   0.892   2.332  13.669
 3066SOL    HW1 9650   0.824   2.378  13.619
 3066SOL    HW2 9651   0.897   2.246  13.630
 3067SOL     OW 9652   1.026   1.900  13.778
 3067SOL    HW1 9653   0.966   1.912  13.704
 3067SOL    HW2 9654   0.994   1.821  13.822
 3068SOL     OW 9655   1.845   2.679  13.413
 3068SOL    HW1 9656   1.902   2.629  13.472
 3068SOL    HW2 9657   1.819   2.616  13.346
 3069SOL     OW 9658   0.489   3.279  13.195
 3069SOL    HW1 9659   0.413   3.248  13.245
 3069SOL    HW2 9660   0.468   3.255  13.104
 3070SOL     OW 9661   1.681   3.132  13.665
 3070SOL    HW1 9662   1.774   3.133  13.689
 3070SOL    HW2 9663   1.645   3.212  13.702
 3071SOL     OW 9664   1.393   2.435  13.104
 3071SOL    HW1 9665   1.334   2.415  13.176
 3071SOL    HW2 9666   1.479   2.406  13.133
 3072SOL     OW 9667   0.572   2.130  13.355
 3072SOL    HW1 9668   0.600   2.081  13.278
 3072SOL    HW2 9669   0.541   2.214  13.320
 3073SOL     OW 9670   0.708   2.923  13.401
 3073SOL    HW1 9671   0.694   2.909  13.494
 3073SOL    HW2 9672   0.784   2.870  13.379
 3074SOL     OW 9673   0.375   2.965  13.518
 3074SOL    HW1 9674   0.368   3.045  13.466
 3074SOL    HW2 9675   0.373   2.894  13.454
 3075SOL     OW 9676   0.570   2.404  13.869
 3075SOL    HW1 9677   0.581   2.469  13.800
 3075SOL    HW2 9678   0.629   2.434   0.039
 3076SOL     OW 9679   1.246   3.213  13.418
 3076SOL    HW1 9680   1.302   3.286  13.447
 3076SOL    HW2 9681   1.160   3.233  13.455
 3077SOL     OW 9682   1.577   2.492  13.492
 3077SOL    HW1 9683   1.539   2.530  13.572
 3077SOL    HW2 9684   1.626   2.564  13.453
 3078SOL     OW 9685   1.204   2.390  13.300
 3078SOL    HW1 9686   1.211   2.312  13.355
 3078SOL    HW2 9687   1.161   2.455  13.356
 3079SOL     OW 9688   0.302   1.923  13.642
 3079SOL    HW1 9689   0.291   2.013  13.671
 3079SOL    HW2 9690   0.315   1.873  13.722
 3080SOL     OW 9691   1.613   2.239  13.409
 3080SOL    HW1 9692   1.607   2.186  13.489
 3080SOL    HW2 9693   1.591   2.328  13.438
 3081SOL     OW 9694   1.529   2.134  13.163
 3081SOL    HW1 9695   1.462   2.071  13.190
 3081SOL    HW2 9696   1.561   2.171  13.246
 3082SOL     OW 9697   1.290   2.688  13.064
 3082SOL    HW1 9698   1.334   2.603  13.068
 3082SOL    HW2 9699   1.322   2.728  12.983
 3083SOL     OW 9700   3.999   3.182  13.215
 3083SOL    HW1 9701   3.905   3.198  13.220
 3083SOL    HW2 9702   0.009   3.089  13.234
 3084SOL     OW 9703   0.817   2.433  13.386
 3084SOL    HW1 9704   0.819   2.355  13.331
 3084SOL    HW2 9705   0.741   2.483  13.356
 3085SOL     OW 9706   0.458   2.352  13.226
 3085SOL    HW1 9707   0.523   2.420  13.245
 3085SOL    HW2 9708   0.377   2.400  13.207
 3086SOL     OW 9709   1.312   2.716  13.338
 3086SOL    HW1 9710   1.236   2.689  13.389
 3086SOL    HW2 9711   1.287   2.703  13.247
 3087SOL     OW 9712   1.383   3.435  13.507
 3087SOL    HW1 9713   1.444   3.472  13.443
 3087SOL    HW2 9714   1.339   3.511  13.544
 3088SOL     OW 9715   1.287   2.776  13.686
 3088SOL    HW1 9716   1.364   2.721  13.672
 3088SOL    HW2 9717   1.310   2.860  13.645
 3089SOL     OW 9718   0.674   3.478  13.191
 3089SOL    HW1 9719   0.682   3.493  13.097
 3089SOL    HW2 9720   0.617   3.401  13.198
 3090SOL     OW 9721   0.281   2.172  13.740
 3090SOL    HW1 9722   0.197   2.215  13.721
 3090SOL    HW2 9723   0.288   2.175  13.835
 3091SOL     OW 9724   1.207   3.468  13.069
 3091SOL    HW1 9725   1.197   3.376  13.093
 3091SOL    HW2 9726   1.146   3.480  12.996
 3092SOL     OW 9727   0.917   2.774  13.327
 3092SOL    HW1 9728   0.977   2.804  13.259
 3092SOL    HW2 9729   0.964   2.701  13.369
 3093SOL     OW 9730   1.490   3.489  13.076
 3093SOL    HW1 9731   1.396   3.480  13.060
 3093SOL    HW2 9732   1.529   3.495  12.988
 3094SOL     OW 9733   1.049   2.953  13.754
 3094SOL    HW1 9734   0.963   2.913  13.746
 3094SOL    HW2 9735   1.103   2.910  13.687
 3095SOL     OW 9736   0.602   3.355  13.507
 3095SOL    HW1 9737   0.645   3.304  13.439
 3095SOL    HW2 9738   0.531   3.401  13.461
 3096SOL     OW 9739   0.252   3.203  13.324
 3096SOL    HW1 9740   0.159   3.213  13.304
 3096SOL    HW2 9741   0.262   3.241  13.411
 3097SOL     OW 9742   0.080   2.179  13.072
 3097SOL    HW1 9743   3.985   2.178  13.078
 3097SOL    HW2 9744   0.101   2.259  13.024
 3098SOL     OW 9745   0.022   2.097  13.407
 3098SOL    HW1 9746   0.047   2.155  13.336
 3098SOL    HW2 9747   0.103   2.052  13.432
 3099SOL     OW 9748   1.178   3.201  13.149
 3099SOL    HW1 9749   1.087   3.172  13.152
 3099SOL    HW2 9750   1.206   3.201  13.241
 3100SOL     OW 9751   1.216   2.182  13.491
 3100SOL    HW1 9752   1.280   2.111  13.482
 3100SOL    HW2 9753   1.245   2.231  13.568
 3101SOL     OW 9754   0.592   2.611  13.693
 3101SOL    HW1 9755   0.628   2.698  13.674
 3101SOL    HW2 9756   0.522   2.599  13.629
 3102SOL     OW 9757   0.863   3.229  13.069
 3102SOL    HW1 9758   0.823   3.256  13.151
 3102SOL    HW2 9759   0.880   3.311  13.022
 3103SOL     OW 9760   0.656   3.708   0.067
 3103SOL    HW1 9761   0.652   3.802   0.087
 3103SOL    HW2 9762   0.748   3.685   0.079
 3104SOL     OW 9763   0.830   2.825  13.894
 3104SOL    HW1 9764   0.868   2.746   0.033
 3104SOL    HW2 9765   0.847   2.894   0.059
 3105SOL     OW 9766   1.077   2.848  13.122
 3105SOL    HW1 9767   1.057   2.901  13.044
 3105SOL    HW2 9768   1.153   2.796  13.097
 3106SOL     OW 9769   0.114   3.133  13.755
 3106SOL    HW1 9770   0.055   3.087  13.814
 3106SOL    HW2 9771   0.125   3.074  13.680
 3107SOL     OW 9772   0.444   2.300  13.557
 3107SOL    HW1 9773   0.449   2.227  13.495
 3107SOL    HW2 9774   0.401   2.263  13.634
 3108SOL     OW 9775   1.680   3.326   0.339
 3108SOL    HW1 9776   1.651   3.303   0.250
 3108SOL    HW2 9777   1.765   3.283   0.347
 3109SOL     OW 9778   0.819   3.416  13.709
 3109SOL    HW1 9779   0.796   3.466  13.631
 3109SOL    HW2 9780   0.743   3.360  13.725
 3110SOL     OW 9781   0.772   3.194  13.347
 3110SOL    HW1 9782   0.741   3.104  13.354
 3110SOL    HW2 9783   0.854   3.195  13.396
 3111SOL     OW 9784   1.350   1.914  13.200
 3111SOL    HW1 9785   1.379   1.854  13.131
 3111SOL    HW2 9786   1.263   1.883  13.224
 3112SOL     OW 9787   1.304   2.322  13.712
 3112SOL    HW1 9788   1.249   2.400  13.718
 3112SOL    HW2 9789   1.289   2.276  13.794
 3113SOL     OW 9790   0.046   2.913  13.270
 3113SOL    HW1 9791   0.140   2.897  13.263
 3113SOL    HW2 9792   0.010   2.832  13.308
 3114SOL     OW 9793   0.884   3.518  13.378
 3114SOL    HW1 9794   0.813   3.499  13.317
 3114SOL    HW2 9795   0.854   3.592  13.429
 3115SOL     OW 9796   0.233   3.951   0.970
 3115SOL    HW1 9797   0.251   3.961   1.063
 3115SOL    HW2 9798   0.140   3.970   0.961
 3116SOL     OW 9799   0.019   0.095   0.638
 3116SOL    HW1 9800   3.929   0.085   0.671
 3116SOL    HW2 9801   0.017   0.053   0.552
 3117SOL     OW 9802   1.806   0.355   0.270
 3117SOL    HW1 9803   1.782   0.324   0.183
 3117SOL    HW2 9804   1.724   0.354   0.319
 3118SOL     OW 9805   0.441   0.100   1.511
 3118SOL    HW1 9806   0.511   0.060   1.460
 3118SOL    HW2 9807   0.363   0.049   1.487
 3119SOL     OW 9808   1.597   3.847   1.464
 3119SOL    HW1 9809   1.600   3.932   1.419
 3119SOL    HW2 9810   1.582   3.869   1.556
 3120SOL     OW 9811   0.805   3.727   0.505
 3120SOL    HW1 9812   0.834   3.818   0.495
 3120SOL    HW2 9813   0.711   3.732   0.515
 3121SOL     OW 9814   1.269   0.063   0.937
 3121SOL    HW1 9815   1.197   0.007   0.906
 3121SOL    HW2 9816   1.324   0.003   0.988
 3122SOL     OW 9817   0.553   3.905   0.889
 3122SOL    HW1 9818   0.550   3.926   0.983
 3122SOL    HW2 9819   0.548   3.989   0.845
 3123SOL     OW 9820   0.193   3.984   1.498
 3123SOL    HW1 9821   0.105   0.020   1.498
 3123SOL    HW2 9822   0.188   3.906   1.554
 3124SOL     OW 9823   1.408   3.839   0.427
 3124SOL    HW1 9824   1.401   3.796   0.342
 3124SOL    HW2 9825   1.499   3.826   0.453
 3125SOL     OW 9826   1.534   3.941   1.723
 3125SOL    HW1 9827   1.560   3.945   1.815
 3125SOL    HW2 9828   1.468   3.871   1.719
 3126SOL     OW 9829   0.772   3.959   1.744
 3126SOL    HW1 9830   0.831   3.930   1.815
 3126SOL    HW2 9831   0.688   3.974   1.787
 3127SOL     OW 9832   0.533   3.784   0.512
 3127SOL    HW1 9833   0.478   3.785   0.590
 3127SOL    HW2 9834   0.546   3.877   0.491
 3128SOL     OW 9835   0.267   3.737   0.186
 3128SOL    HW1 9836   0.300   3.826   0.175
 3128SOL    HW2 9837   0.339   3.690   0.226
 3129SOL     OW 9838   0.563   3.944   1.166
 3129SOL    HW1 9839   0.603   3.869   1.211
 3129SOL    HW2 9840   0.472   3.943   1.193
 3130SOL     OW 9841   1.019   3.768   0.740
 3130SOL    HW1 9842   0.955   3.758   0.670
 3130SOL    HW2 9843   0.996   3.702   0.805
 3131SOL     OW 9844   0.923   3.804   1.400
 3131SOL    HW1 9845   0.951   3.784   1.311
 3131SOL    HW2 9846   0.995   3.854   1.438
 3132SOL     OW 9847   1.266   0.077   1.265
 3132SOL    HW1 9848   1.282   0.144   1.330
 3132SOL    HW2 9849   1.198   0.114   1.209
 3133SOL     OW 9850   0.505   3.751   1.755
 3133SOL    HW1 9851   0.454   3.704   1.689
 3133SOL    HW2 9852   0.472   3.840   1.753
 3134SOL     OW 9853   0.304   3.925   1.255
 3134SOL    HW1 9854   0.260   3.943   1.338
 3134SOL    HW2 9855   0.288   3.832   1.239
 3135SOL     OW 9856   1.595   3.941   0.152
 3135SOL    HW1 9857   1.515   3.889   0.158
 3135SOL    HW2 9858   1.570   0.027   0.187
 3136SOL     OW 9859   1.164   3.924   1.473
 3136SOL    HW1 9860   1.169   3.997   1.535
 3136SOL    HW2 9861   1.204   3.957   1.393
 3137SOL     OW 9862   0.918   3.824   0.151
 3137SOL    HW1 9863   0.949   3.815   0.061
 3137SOL    HW2 9864   0.976   3.768   0.202
 3138SOL     OW 9865   1.711   3.859   0.514
 3138SOL    HW1 9866   1.790   3.849   0.460
 3138SOL    HW2 9867   1.700   3.774   0.556
 3139SOL     OW 9868   1.835   3.883   0.970
 3139SOL    HW1 9869   1.871   3.801   0.938
 3139SOL    HW2 9870   1.754   3.896   0.921
 3140SOL     OW 9871   0.674   3.910   1.492
 3140SOL    HW1 9872   0.756   3.905   1.444
 3140SOL    HW2 9873   0.701   3.933   1.582
 3141SOL     OW 9874   0.048   0.025   0.042
 3141SOL    HW1 9875   3.960   0.024   0.005
 3141SOL    HW2 9876   0.090   0.101   0.002
 3142SOL     OW 9877   0.126   3.930   0.373
 3142SOL    HW1 9878   0.073   3.975   0.307
 3142SOL    HW2 9879   0.165   3.856   0.325
 3143SOL     OW 9880   1.190   0.012   0.465
 3143SOL    HW1 9881   1.257   3.943   0.466
 3143SOL    HW2 9882   1.212   0.066   0.541
 3144SOL     OW 9883   1.785   0.044   1.641
 3144SOL    HW1 9884   1.760   0.076   1.554
 3144SOL    HW2 9885   1.705   0.007   1.678
 3145SOL     OW 9886   1.817   3.913   1.238
 3145SOL    HW1 9887   1.823   3.822   1.267
 3145SOL    HW2 9888   1.822   3.909   1.143
 3146SOL     OW 9889   1.438   3.934   1.117
 3146SOL    HW1 9890   1.472   3.856   1.162
 3146SOL    HW2 9891   1.379   3.975   1.180
 3147SOL     OW 9892   1.014   3.737   1.150
 3147SOL    HW1 9893   0.956   3.681   1.098
 3147SOL    HW2 9894   1.100   3.695   1.145
 3148SOL     OW 9895   1.350   3.783   0.151
 3148SOL    HW1 9896   1.387   3.713   0.097
 3148SOL    HW2 9897   1.267   3.747   0.184
 3149SOL     OW 9898   1.284   0.163   0.681
 3149SOL    HW1 9899   1.277   0.258   0.689
 3149SOL    HW2 9900   1.290   0.131   0.771
 3150SOL     OW 9901   1.581   3.928   0.878
 3150SOL    HW1 9902   1.528   3.933   0.958
 3150SOL    HW2 9903   1.581   0.018   0.845
 3151SOL     OW 9904   0.234   3.952   2.830
 3151SOL    HW1 9905   0.253   3.962   2.923
 3151SOL    HW2 9906   0.140   3.969   2.823
 3152SOL     OW 9907   0.013   0.103   2.491
 3152SOL    HW1 9908   3.929   0.091   2.535
 3152SOL    HW2 9909   0.009   0.045   2.415
 3153SOL     OW 9910   1.777   0.321   2.055
 3153SOL    HW1 9911   1.703   0.300   1.997
 3153SOL    HW2 9912   1.737   0.334   2.141
 3154SOL     OW 9913   0.441   0.100   3.373
 3154SOL    HW1 9914   0.511   0.060   3.322
 3154SOL    HW2 9915   0.363   0.049   3.349
 3155SOL     OW 9916   1.597   3.847   3.326
 3155SOL    HW1 9917   1.600   3.932   3.281
 3155SOL    HW2 9918   1.582   3.869   3.418
 3156SOL     OW 9919   0.805   3.728   2.364
 3156SOL    HW1 9920   0.832   3.820   2.359
 3156SOL    HW2 9921   0.710   3.732   2.376
 3157SOL     OW 9922   1.268   0.063   2.802
 3157SOL    HW1 9923   1.198   0.007   2.768
 3157SOL    HW2 9924   1.325   0.003   2.851
 3158SOL     OW 9925   0.553   3.905   2.751
 3158SOL    HW1 9926   0.550   3.925   2.845
 3158SOL    HW2 9927   0.549   3.990   2.708
 3159SOL     OW 9928   0.194   3.983   3.360
 3159SOL    HW1 9929   0.105   0.020   3.360
 3159SOL    HW2 9930   0.188   3.906   3.416
 3160SOL     OW 9931   1.406   3.834   2.290
 3160SOL    HW1 9932   1.397   3.800   2.201
 3160SOL    HW2 9933   1.499   3.825   2.310
 3161SOL     OW 9934   1.534   3.941   3.585
 3161SOL    HW1 9935   1.560   3.945   3.677
 3161SOL    HW2 9936   1.468   3.871   3.581
 3162SOL     OW 9937   0.625   3.851   1.984
 3162SOL    HW1 9938   0.715   3.821   1.990
 3162SOL    HW2 9939   0.587   3.802   1.911
 3163SOL     OW 9940   0.772   3.959   3.606
 3163SOL    HW1 9941   0.831   3.930   3.676
 3163SOL    HW2 9942   0.688   3.974   3.649
 3164SOL     OW 9943   0.533   3.786   2.373
 3164SOL    HW1 9944   0.480   3.788   2.453
 3164SOL    HW2 9945   0.544   3.878   2.350
 3165SOL     OW 9946   0.288   3.757   2.040
 3165SOL    HW1 9947   0.334   3.839   2.023
 3165SOL    HW2 9948   0.353   3.701   2.081
 3166SOL     OW 9949   0.563   3.943   3.027
 3166SOL    HW1 9950   0.603   3.870   3.074
 3166SOL    HW2 9951   0.472   3.943   3.055
 3167SOL     OW 9952   1.019   3.768   2.603
 3167SOL    HW1 9953   0.955   3.756   2.533
 3167SOL    HW2 9954   0.996   3.702   2.668
 3168SOL     OW 9955   0.923   3.804   3.262
 3168SOL    HW1 9956   0.951   3.784   3.173
 3168SOL    HW2 9957   0.995   3.854   3.300
 3169SOL     OW 9958   1.266   0.077   3.127
 3169SOL    HW1 9959   1.283   0.144   3.192
 3169SOL    HW2 9960   1.198   0.114   3.070
 3170SOL     OW 9961   0.505   3.751   3.617
 3170SOL    HW1 9962   0.454   3.704   3.551
 3170SOL    HW2 9963   0.472   3.840   3.615
 3171SOL     OW 9964   0.304   3.925   3.117
 3171SOL    HW1 9965   0.260   3.943   3.200
 3171SOL    HW2 9966   0.288   3.832   3.100
 3172SOL     OW 9967   1.576   3.956   1.983
 3172SOL    HW1 9968   1.516   3.899   2.031
 3172SOL    HW2 9969   1.602   0.023   2.045
 3173SOL     OW 9970   1.164   3.924   3.335
 3173SOL    HW1 9971   1.169   3.997   3.397
 3173SOL    HW2 9972   1.204   3.958   3.255
 3174SOL     OW 9973   0.900   3.812   1.969
 3174SOL    HW1 9974   0.962   3.777   1.904
 3174SOL    HW2 9975   0.940   3.791   2.053
 3175SOL     OW 9976   1.713   3.858   2.366
 3175SOL    HW1 9977   1.790   3.844   2.310
 3175SOL    HW2 9978   1.701   3.775   2.412
 3176SOL     OW 9979   1.835   3.884   2.833
 3176SOL    HW1 9980   1.871   3.801   2.800
 3176SOL    HW2 9981   1.754   3.896   2.784
 3177SOL     OW 9982   0.674   3.910   3.354
 3177SOL    HW1 9983   0.756   3.905   3.306
 3177SOL    HW2 9984   0.700   3.933   3.444
 3178SOL     OW 9985   0.070   0.032   1.843
 3178SOL    HW1 9986   3.977   0.030   1.864
 3178SOL    HW2 9987   0.101   0.117   1.876
 3179SOL     OW 9988   0.105   3.912   2.229
 3179SOL    HW1 9989   0.080   3.994   2.186
 3179SOL    HW2 9990   0.184   3.884   2.183
 3180SOL     OW 9991   1.190   0.011   2.330
 3180SOL    HW1 9992   1.260   3.947   2.326
 3180SOL    HW2 9993   1.214   0.067   2.404
 3181SOL     OW 9994   1.785   0.044   3.503
 3181SOL    HW1 9995   1.760   0.076   3.416
 3181SOL    HW2 9996   1.705   0.007   3.540
 3182SOL     OW 9997   1.817   3.913   3.100
 3182SOL    HW1 9998   1.823   3.822   3.129
 3182SOL    HW2 9999   1.822   3.909   3.005
 3183SOL     OW10000   1.438   3.933   2.979
 3183SOL    HW110001   1.472   3.856   3.025
 3183SOL    HW210002   1.379   3.975   3.042
 3184SOL     OW10003   1.014   3.737   3.012
 3184SOL    HW110004   0.956   3.680   2.960
 3184SOL    HW210005   1.100   3.695   3.007
 3185SOL     OW10006   1.352   3.771   2.022
 3185SOL    HW110007   1.384   3.704   1.962
 3185SOL    HW210008   1.265   3.741   2.048
 3186SOL     OW10009   1.282   0.162   2.546
 3186SOL    HW110010   1.279   0.257   2.552
 3186SOL    HW210011   1.289   0.133   2.637
 3187SOL     OW10012   1.580   3.928   2.740
 3187SOL    HW110013   1.528   3.933   2.820
 3187SOL    HW210014   1.581   0.018   2.707
 3188SOL     OW10015   0.234   3.951   4.692
 3188SOL    HW110016   0.253   3.962   4.785
 3188SOL    HW210017   0.140   3.969   4.685
 3189SOL     OW10018   0.013   0.103   4.353
 3189SOL    HW110019   3.929   0.091   4.397
 3189SOL    HW210020   0.009   0.045   4.277
 3190SOL     OW10021   1.777   0.320   3.917
 3190SOL    HW110022   1.703   0.300   3.859
 3190SOL    HW210023   1.737   0.334   4.003
 3191SOL     OW10024   0.441   0.100   5.235
 3191SOL    HW110025   0.511   0.060   5.184
 3191SOL    HW210026   0.363   0.049   5.211
 3192SOL     OW10027   1.597   3.847   5.188
 3192SOL    HW110028   1.600   3.932   5.143
 3192SOL    HW210029   1.582   3.869   5.280
 3193SOL     OW10030   0.805   3.728   4.226
 3193SOL    HW110031   0.832   3.820   4.221
 3193SOL    HW210032   0.710   3.732   4.238
 3194SOL     OW10033   1.268   0.063   4.664
 3194SOL    HW110034   1.198   0.007   4.630
 3194SOL    HW210035   1.325   0.003   4.713
 3195SOL     OW10036   0.553   3.905   4.613
 3195SOL    HW110037   0.550   3.925   4.707
 3195SOL    HW210038   0.549   3.990   4.570
 3196SOL     OW10039   0.194   3.983   5.222
 3196SOL    HW110040   0.105   0.020   5.222
 3196SOL    HW210041   0.188   3.906   5.278
 3197SOL     OW10042   1.406   3.834   4.152
 3197SOL    HW110043   1.397   3.800   4.063
 3197SOL    HW210044   1.499   3.825   4.172
 3198SOL     OW10045   1.534   3.941   5.447
 3198SOL    HW110046   1.560   3.945   5.539
 3198SOL    HW210047   1.468   3.871   5.443
 3199SOL     OW10048   0.625   3.851   3.846
 3199SOL    HW110049   0.715   3.821   3.852
 3199SOL    HW210050   0.588   3.802   3.773
 3200SOL     OW10051   0.772   3.959   5.468
 3200SOL    HW110052   0.831   3.930   5.539
 3200SOL    HW210053   0.688   3.974   5.511
 3201SOL     OW10054   0.533   3.786   4.235
 3201SOL    HW110055   0.480   3.788   4.315
 3201SOL    HW210056   0.544   3.878   4.212
 3202SOL     OW10057   0.288   3.757   3.902
 3202SOL    HW110058   0.334   3.839   3.885
 3202SOL    HW210059   0.353   3.701   3.943
 3203SOL     OW10060   0.563   3.943   4.889
 3203SOL    HW110061   0.603   3.870   4.936
 3203SOL    HW210062   0.472   3.943   4.917
 3204SOL     OW10063   1.019   3.768   4.465
 3204SOL    HW110064   0.955   3.756   4.395
 3204SOL    HW210065   0.996   3.702   4.530
 3205SOL     OW10066   0.923   3.804   5.124
 3205SOL    HW110067   0.951   3.784   5.035
 3205SOL    HW210068   0.995   3.854   5.162
 3206SOL     OW10069   1.266   0.077   4.989
 3206SOL    HW110070   1.283   0.144   5.054
 3206SOL    HW210071   1.198   0.114   4.932
 3207SOL     OW10072   0.505   3.751   5.479
 3207SOL    HW110073   0.454   3.704   5.413
 3207SOL    HW210074   0.472   3.840   5.477
 3208SOL     OW10075   0.304   3.925   4.979
 3208SOL    HW110076   0.260   3.943   5.062
 3208SOL    HW210077   0.288   3.832   4.962
 3209SOL     OW10078   1.576   3.956   3.845
 3209SOL    HW110079   1.516   3.899   3.893
 3209SOL    HW210080   1.601   0.023   3.907
 3210SOL     OW10081   1.164   3.924   5.197
 3210SOL    HW110082   1.169   3.997   5.259
 3210SOL    HW210083   1.204   3.958   5.117
 3211SOL     OW10084   0.900   3.812   3.831
 3211SOL    HW110085   0.962   3.777   3.766
 3211SOL    HW210086   0.939   3.791   3.915
 3212SOL     OW10087   1.713   3.858   4.228
 3212SOL    HW110088   1.790   3.844   4.172
 3212SOL    HW210089   1.701   3.775   4.274
 3213SOL     OW10090   1.835   3.884   4.695
 3213SOL    HW110091   1.871   3.801   4.662
 3213SOL    HW210092   1.754   3.896   4.646
 3214SOL     OW10093   0.674   3.910   5.216
 3214SOL    HW110094   0.756   3.905   5.168
 3214SOL    HW210095   0.700   3.932   5.306
 3215SOL     OW10096   0.070   0.032   3.705
 3215SOL    HW110097   3.977   0.030   3.726
 3215SOL    HW210098   0.101   0.117   3.738
 3216SOL     OW10099   0.105   3.912   4.091
 3216SOL    HW110100   0.080   3.994   4.048
 3216SOL    HW210101   0.184   3.884   4.045
 3217SOL     OW10102   1.190   0.011   4.192
 3217SOL    HW110103   1.261   3.947   4.188
 3217SOL    HW210104   1.214   0.067   4.266
 3218SOL     OW10105   1.785   0.044   5.365
 3218SOL    HW110106   1.760   0.076   5.278
 3218SOL    HW210107   1.705   0.007   5.402
 3219SOL     OW10108   1.817   3.913   4.963
 3219SOL    HW110109   1.823   3.822   4.991
 3219SOL    HW210110   1.822   3.909   4.867
 3220SOL     OW10111   1.438   3.933   4.841
 3220SOL    HW110112   1.472   3.856   4.887
 3220SOL    HW210113   1.379   3.975   4.904
 3221SOL     OW10114   1.014   3.737   4.874
 3221SOL    HW110115   0.956   3.680   4.822
 3221SOL    HW210116   1.100   3.695   4.869
 3222SOL     OW10117   1.352   3.771   3.884
 3222SOL    HW110118   1.384   3.704   3.824
 3222SOL    HW210119   1.265   3.741   3.910
 3223SOL     OW10120   1.282   0.162   4.408
 3223SOL    HW110121   1.279   0.257   4.414
 3223SOL    HW210122   1.289   0.133   4.498
 3224SOL     OW10123   1.580   3.928   4.602
 3224SOL    HW110124   1.528   3.933   4.682
 3224SOL    HW210125   1.581   0.018   4.569
 3225SOL     OW10126   0.234   3.951   6.554
 3225SOL    HW110127   0.253   3.962   6.647
 3225SOL    HW210128   0.140   3.969   6.547
 3226SOL     OW10129   0.013   0.103   6.215
 3226SOL    HW110130   3.929   0.091   6.259
 3226SOL    HW210131   0.009   0.045   6.139
 3227SOL     OW10132   1.777   0.320   5.779
 3227SOL    HW110133   1.703   0.300   5.721
 3227SOL    HW210134   1.737   0.334   5.865
 3228SOL     OW10135   0.441   0.100   7.097
 3228SOL    HW110136   0.511   0.061   7.046
 3228SOL    HW210137   0.363   0.049   7.073
 3229SOL     OW10138   1.597   3.847   7.050
 3229SOL    HW110139   1.600   3.932   7.005
 3229SOL    HW210140   1.582   3.869   7.142
 3230SOL     OW10141   0.805   3.728   6.089
 3230SOL    HW110142   0.832   3.820   6.083
 3230SOL    HW210143   0.710   3.732   6.100
 3231SOL     OW10144   1.268   0.063   6.526
 3231SOL    HW110145   1.198   0.007   6.492
 3231SOL    HW210146   1.324   0.003   6.575
 3232SOL     OW10147   0.553   3.905   6.475
 3232SOL    HW110148   0.550   3.925   6.569
 3232SOL    HW210149   0.549   3.990   6.432
 3233SOL     OW10150   0.193   3.983   7.084
 3233SOL    HW110151   0.105   0.020   7.084
 3233SOL    HW210152   0.187   3.906   7.140
 3234SOL     OW10153   1.406   3.834   6.014
 3234SOL    HW110154   1.397   3.800   5.925
 3234SOL    HW210155   1.499   3.825   6.034
 3235SOL     OW10156   1.534   3.941   7.309
 3235SOL    HW110157   1.560   3.944   7.401
 3235SOL    HW210158   1.468   3.872   7.305
 3236SOL     OW10159   0.625   3.851   5.708
 3236SOL    HW110160   0.715   3.821   5.714
 3236SOL    HW210161   0.587   3.802   5.635
 3237SOL     OW10162   0.772   3.959   7.330
 3237SOL    HW110163   0.831   3.931   7.401
 3237SOL    HW210164   0.688   3.974   7.373
 3238SOL     OW10165   0.533   3.786   6.097
 3238SOL    HW110166   0.480   3.788   6.177
 3238SOL    HW210167   0.544   3.878   6.074
 3239SOL     OW10168   0.288   3.757   5.764
 3239SOL    HW110169   0.334   3.839   5.747
 3239SOL    HW210170   0.353   3.701   5.805
 3240SOL     OW10171   0.563   3.943   6.751
 3240SOL    HW110172   0.603   3.870   6.798
 3240SOL    HW210173   0.472   3.943   6.779
 3241SOL     OW10174   1.019   3.768   6.327
 3241SOL    HW110175   0.955   3.756   6.256
 3241SOL    HW210176   0.996   3.702   6.392
 3242SOL     OW10177   0.923   3.804   6.986
 3242SOL    HW110178   0.951   3.784   6.897
 3242SOL    HW210179   0.995   3.854   7.024
 3243SOL     OW10180   1.266   0.077   6.851
 3243SOL    HW110181   1.283   0.144   6.916
 3243SOL    HW210182   1.198   0.114   6.794
 3244SOL     OW10183   0.505   3.751   7.341
 3244SOL    HW110184   0.454   3.704   7.275
 3244SOL    HW210185   0.472   3.840   7.339
 3245SOL     OW10186   0.304   3.925   6.841
 3245SOL    HW110187   0.260   3.943   6.923
 3245SOL    HW210188   0.288   3.832   6.824
 3246SOL     OW10189   1.576   3.956   5.707
 3246SOL    HW110190   1.516   3.900   5.755
 3246SOL    HW210191   1.601   0.024   5.769
 3247SOL     OW10192   1.164   3.924   7.060
 3247SOL    HW110193   1.169   3.998   7.121
 3247SOL    HW210194   1.204   3.957   6.979
 3248SOL     OW10195   0.900   3.812   5.693
 3248SOL    HW110196   0.962   3.777   5.628
 3248SOL    HW210197   0.940   3.791   5.777
 3249SOL     OW10198   1.714   3.858   6.090
 3249SOL    HW110199   1.790   3.844   6.034
 3249SOL    HW210200   1.701   3.775   6.136
 3250SOL     OW10201   1.835   3.884   6.557
 3250SOL    HW110202   1.871   3.801   6.524
 3250SOL    HW210203   1.754   3.896   6.508
 3251SOL     OW10204   0.674   3.910   7.078
 3251SOL    HW110205   0.757   3.905   7.030
 3251SOL    HW210206   0.701   3.933   7.168
 3252SOL     OW10207   0.070   0.032   5.567
 3252SOL    HW110208   3.977   0.030   5.588
 3252SOL    HW210209   0.101   0.117   5.600
 3253SOL     OW10210   0.105   3.912   5.953
 3253SOL    HW110211   0.080   3.994   5.910
 3253SOL    HW210212   0.184   3.884   5.907
 3254SOL     OW10213   1.190   0.011   6.054
 3254SOL    HW110214   1.261   3.947   6.050
 3254SOL    HW210215   1.213   0.067   6.128
 3255SOL     OW10216   1.785   0.045   7.227
 3255SOL    HW110217   1.760   0.076   7.140
 3255SOL    HW210218   1.705   0.007   7.264
 3256SOL     OW10219   1.817   3.913   6.825
 3256SOL    HW110220   1.823   3.822   6.853
 3256SOL    HW210221   1.822   3.909   6.729
 3257SOL     OW10222   1.439   3.933   6.703
 3257SOL    HW110223   1.472   3.856   6.749
 3257SOL    HW210224   1.379   3.975   6.766
 3258SOL     OW10225   1.014   3.737   6.736
 3258SOL    HW110226   0.956   3.680   6.684
 3258SOL    HW210227   1.100   3.695   6.731
 3259SOL     OW10228   1.352   3.771   5.746
 3259SOL    HW110229   1.384   3.704   5.686
 3259SOL    HW210230   1.265   3.741   5.772
 3260SOL     OW10231   1.282   0.162   6.270
 3260SOL    HW110232   1.279   0.258   6.275
 3260SOL    HW210233   1.289   0.133   6.361
 3261SOL     OW10234   1.580   3.928   6.464
 3261SOL    HW110235   1.528   3.933   6.544
 3261SOL    HW210236   1.581   0.018   6.431
 3262SOL     OW10237   0.234   3.952   8.416
 3262SOL    HW110238   0.253   3.961   8.509
 3262SOL    HW210239   0.140   3.969   8.409
 3263SOL     OW10240   0.013   0.102   8.077
 3263SOL    HW110241   3.929   0.090   8.121
 3263SOL    HW210242   0.009   0.045   8.001
 3264SOL     OW10243   1.777   0.321   7.641
 3264SOL    HW110244   1.704   0.300   7.583
 3264SOL    HW210245   1.737   0.334   7.727
 3265SOL     OW10246   0.441   0.099   8.959
 3265SOL    HW110247   0.511   0.060   8.908
 3265SOL    HW210248   0.363   0.049   8.935
 3266SOL     OW10249   1.597   3.847   8.912
 3266SOL    HW110250   1.600   3.932   8.867
 3266SOL    HW210251   1.582   3.869   9.004
 3267SOL     OW10252   0.805   3.728   7.951
 3267SOL    HW110253   0.832   3.820   7.945
 3267SOL    HW210254   0.710   3.732   7.962
 3268SOL     OW10255   1.268   0.063   8.388
 3268SOL    HW110256   1.198   0.007   8.354
 3268SOL    HW210257   1.324   0.003   8.437
 3269SOL     OW10258   0.553   3.905   8.337
 3269SOL    HW110259   0.550   3.925   8.431
 3269SOL    HW210260   0.549   3.990   8.294
 3270SOL     OW10261   0.194   3.983   8.946
 3270SOL    HW110262   0.105   0.020   8.946
 3270SOL    HW210263   0.188   3.906   9.002
 3271SOL     OW10264   1.406   3.834   7.876
 3271SOL    HW110265   1.397   3.800   7.787
 3271SOL    HW210266   1.499   3.825   7.896
 3272SOL     OW10267   1.534   3.941   9.171
 3272SOL    HW110268   1.560   3.945   9.263
 3272SOL    HW210269   1.468   3.872   9.167
 3273SOL     OW10270   0.625   3.851   7.571
 3273SOL    HW110271   0.715   3.821   7.576
 3273SOL    HW210272   0.587   3.802   7.497
 3274SOL     OW10273   0.772   3.959   9.192
 3274SOL    HW110274   0.831   3.931   9.263
 3274SOL    HW210275   0.688   3.974   9.235
 3275SOL     OW10276   0.533   3.786   7.959
 3275SOL    HW110277   0.480   3.788   8.039
 3275SOL    HW210278   0.544   3.878   7.935
 3276SOL     OW10279   0.288   3.757   7.626
 3276SOL    HW110280   0.334   3.839   7.608
 3276SOL    HW210281   0.353   3.701   7.667
 3277SOL     OW10282   0.563   3.943   8.614
 3277SOL    HW110283   0.603   3.869   8.660
 3277SOL    HW210284   0.472   3.943   8.641
 3278SOL     OW10285   1.019   3.768   8.189
 3278SOL    HW110286   0.955   3.757   8.118
 3278SOL    HW210287   0.996   3.702   8.254
 3279SOL     OW10288   0.923   3.804   8.848
 3279SOL    HW110289   0.951   3.784   8.759
 3279SOL    HW210290   0.995   3.854   8.886
 3280SOL     OW10291   1.266   0.077   8.713
 3280SOL    HW110292   1.282   0.144   8.778
 3280SOL    HW210293   1.198   0.114   8.656
 3281SOL     OW10294   0.505   3.751   9.203
 3281SOL    HW110295   0.454   3.704   9.137
 3281SOL    HW210296   0.472   3.840   9.201
 3282SOL     OW10297   0.304   3.925   8.703
 3282SOL    HW110298   0.260   3.943   8.786
 3282SOL    HW210299   0.288   3.832   8.686
 3283SOL     OW10300   1.576   3.955   7.569
 3283SOL    HW110301   1.515   3.900   7.617
 3283SOL    HW210302   1.601   0.023   7.631
 3284SOL     OW10303   1.164   3.924   8.922
 3284SOL    HW110304   1.169   3.997   8.983
 3284SOL    HW210305   1.204   3.957   8.841
 3285SOL     OW10306   0.900   3.812   7.555
 3285SOL    HW110307   0.962   3.777   7.490
 3285SOL    HW210308   0.940   3.791   7.639
 3286SOL     OW10309   1.714   3.858   7.952
 3286SOL    HW110310   1.790   3.844   7.896
 3286SOL    HW210311   1.701   3.775   7.998
 3287SOL     OW10312   1.835   3.884   8.419
 3287SOL    HW110313   1.871   3.801   8.386
 3287SOL    HW210314   1.754   3.896   8.370
 3288SOL     OW10315   0.674   3.910   8.940
 3288SOL    HW110316   0.757   3.905   8.892
 3288SOL    HW210317   0.701   3.933   9.030
 3289SOL     OW10318   0.070   0.032   7.430
 3289SOL    HW110319   3.977   0.030   7.451
 3289SOL    HW210320   0.101   0.117   7.462
 3290SOL     OW10321   0.105   3.912   7.815
 3290SOL    HW110322   0.080   3.994   7.772
 3290SOL    HW210323   0.184   3.884   7.769
 3291SOL     OW10324   1.190   0.011   7.917
 3291SOL    HW110325   1.260   3.947   7.911
 3291SOL    HW210326   1.214   0.067   7.990
 3292SOL     OW10327   1.785   0.044   9.089
 3292SOL    HW110328   1.760   0.076   9.002
 3292SOL    HW210329   1.705   0.008   9.126
 3293SOL     OW10330   1.817   3.913   8.687
 3293SOL    HW110331   1.823   3.822   8.715
 3293SOL    HW210332   1.822   3.909   8.591
 3294SOL     OW10333   1.439   3.933   8.565
 3294SOL    HW110334   1.472   3.856   8.611
 3294SOL    HW210335   1.379   3.975   8.628
 3295SOL     OW10336   1.014   3.737   8.598
 3295SOL    HW110337   0.956   3.680   8.546
 3295SOL    HW210338   1.100   3.695   8.593
 3296SOL     OW10339   1.352   3.771   7.608
 3296SOL    HW110340   1.384   3.704   7.547
 3296SOL    HW210341   1.265   3.741   7.634
 3297SOL     OW10342   1.282   0.162   8.132
 3297SOL    HW110343   1.278   0.257   8.138
 3297SOL    HW210344   1.289   0.133   8.223
 3298SOL     OW10345   1.580   3.928   8.326
 3298SOL    HW110346   1.528   3.933   8.406
 3298SOL    HW210347   1.581   0.018   8.292
 3299SOL     OW10348   0.234   3.951  10.278
 3299SOL    HW110349   0.253   3.962  10.371
 3299SOL    HW210350   0.140   3.969  10.271
 3300SOL     OW10351   0.013   0.103   9.939
 3300SOL    HW110352   3.929   0.091   9.983
 3300SOL    HW210353   0.009   0.045   9.863
 3301SOL     OW10354   1.777   0.321   9.503
 3301SOL    HW110355   1.703   0.300   9.445
 3301SOL    HW210356   1.737   0.334   9.589
 3302SOL     OW10357   0.441   0.100  10.821
 3302SOL    HW110358   0.511   0.060  10.770
 3302SOL    HW210359   0.363   0.049  10.797
 3303SOL     OW10360   1.597   3.847  10.774
 3303SOL    HW110361   1.600   3.932  10.729
 3303SOL    HW210362   1.582   3.869  10.866
 3304SOL     OW10363   0.805   3.728   9.812
 3304SOL    HW110364   0.832   3.820   9.807
 3304SOL    HW210365   0.710   3.732   9.824
 3305SOL     OW10366   1.268   0.063  10.250
 3305SOL    HW110367   1.198   0.007  10.216
 3305SOL    HW210368   1.324   0.003  10.299
 3306SOL     OW10369   0.553   3.905  10.199
 3306SOL    HW110370   0.550   3.925  10.293
 3306SOL    HW210371   0.549   3.990  10.156
 3307SOL     OW10372   0.194   3.983  10.808
 3307SOL    HW110373   0.105   0.020  10.808
 3307SOL    HW210374   0.188   3.906  10.864
 3308SOL     OW10375   1.406   3.834   9.738
 3308SOL    HW110376   1.397   3.800   9.649
 3308SOL    HW210377   1.499   3.825   9.758
 3309SOL     OW10378   1.534   3.941  11.033
 3309SOL    HW110379   1.560   3.945  11.125
 3309SOL    HW210380   1.468   3.871  11.029
 3310SOL     OW10381   0.625   3.851   9.432
 3310SOL    HW110382   0.715   3.821   9.438
 3310SOL    HW210383   0.587   3.802   9.359
 3311SOL     OW10384   0.772   3.959  11.054
 3311SOL    HW110385   0.831   3.931  11.125
 3311SOL    HW210386   0.688   3.974  11.097
 3312SOL     OW10387   0.533   3.786   9.821
 3312SOL    HW110388   0.480   3.788   9.901
 3312SOL    HW210389   0.544   3.878   9.798
 3313SOL     OW10390   0.288   3.757   9.488
 3313SOL    HW110391   0.334   3.839   9.471
 3313SOL    HW210392   0.353   3.701   9.529
 3314SOL     OW10393   0.563   3.943  10.475
 3314SOL    HW110394   0.603   3.870  10.522
 3314SOL    HW210395   0.472   3.943  10.503
 3315SOL     OW10396   1.019   3.768  10.051
 3315SOL    HW110397   0.955   3.756   9.980
 3315SOL    HW210398   0.996   3.702  10.116
 3316SOL     OW10399   0.923   3.804  10.710
 3316SOL    HW110400   0.951   3.784  10.621
 3316SOL    HW210401   0.995   3.854  10.748
 3317SOL     OW10402   1.266   0.077  10.575
 3317SOL    HW110403   1.283   0.144  10.640
 3317SOL    HW210404   1.198   0.114  10.518
 3318SOL     OW10405   0.505   3.751  11.065
 3318SOL    HW110406   0.454   3.704  10.999
 3318SOL    HW210407   0.472   3.840  11.063
 3319SOL     OW10408   0.304   3.925  10.565
 3319SOL    HW110409   0.260   3.943  10.647
 3319SOL    HW210410   0.288   3.832  10.548
 3320SOL     OW10411   1.576   3.956   9.431
 3320SOL    HW110412   1.516   3.899   9.479
 3320SOL    HW210413   1.602   0.023   9.493
 3321SOL     OW10414   1.164   3.924  10.783
 3321SOL    HW110415   1.169   3.997  10.845
 3321SOL    HW210416   1.204   3.957  10.703
 3322SOL     OW10417   0.900   3.812   9.417
 3322SOL    HW110418   0.962   3.777   9.352
 3322SOL    HW210419   0.940   3.791   9.501
 3323SOL     OW10420   1.713   3.858   9.814
 3323SOL    HW110421   1.790   3.844   9.758
 3323SOL    HW210422   1.701   3.775   9.860
 3324SOL     OW10423   1.835   3.883  10.281
 3324SOL    HW110424   1.871   3.801  10.248
 3324SOL    HW210425   1.754   3.896  10.232
 3325SOL     OW10426   0.674   3.910  10.802
 3325SOL    HW110427   0.757   3.905  10.754
 3325SOL    HW210428   0.701   3.933  10.892
 3326SOL     OW10429   0.070   0.032   9.291
 3326SOL    HW110430   3.977   0.030   9.312
 3326SOL    HW210431   0.101   0.117   9.324
 3327SOL     OW10432   0.105   3.912   9.677
 3327SOL    HW110433   0.080   3.994   9.634
 3327SOL    HW210434   0.184   3.884   9.631
 3328SOL     OW10435   1.190   0.011   9.778
 3328SOL    HW110436   1.261   3.947   9.774
 3328SOL    HW210437   1.214   0.067   9.852
 3329SOL     OW10438   1.785   0.044  10.951
 3329SOL    HW110439   1.760   0.076  10.864
 3329SOL    HW210440   1.705   0.008  10.987
 3330SOL     OW10441   1.817   3.913  10.549
 3330SOL    HW110442   1.823   3.822  10.577
 3330SOL    HW210443   1.822   3.909  10.453
 3331SOL     OW10444   1.438   3.933  10.427
 3331SOL    HW110445   1.472   3.856  10.473
 3331SOL    HW210446   1.379   3.975  10.490
 3332SOL     OW10447   1.014   3.737  10.460
 3332SOL    HW110448   0.956   3.680  10.408
 3332SOL    HW210449   1.100   3.695  10.455
 3333SOL     OW10450   1.352   3.771   9.470
 3333SOL    HW110451   1.384   3.704   9.410
 3333SOL    HW210452   1.265   3.741   9.496
 3334SOL     OW10453   1.282   0.162   9.994
 3334SOL    HW110454   1.279   0.257  10.000
 3334SOL    HW210455   1.289   0.133  10.085
 3335SOL     OW10456   1.580   3.928  10.188
 3335SOL    HW110457   1.528   3.933  10.268
 3335SOL    HW210458   1.581   0.018  10.155
 3336SOL     OW10459   0.234   3.952  12.140
 3336SOL    HW110460   0.253   3.961  12.233
 3336SOL    HW210461   0.140   3.969  12.133
 3337SOL     OW10462   0.013   0.102  11.801
 3337SOL    HW110463   3.929   0.091  11.845
 3337SOL    HW210464   0.009   0.045  11.725
 3338SOL     OW10465   1.777   0.321  11.365
 3338SOL    HW110466   1.703   0.300  11.307
 3338SOL    HW210467   1.737   0.334  11.451
 3339SOL     OW10468   0.441   0.099  12.684
 3339SOL    HW110469   0.511   0.061  12.632
 3339SOL    HW210470   0.363   0.049  12.659
 3340SOL     OW10471   1.597   3.847  12.636
 3340SOL    HW110472   1.600   3.932  12.591
 3340SOL    HW210473   1.581   3.869  12.728
 3341SOL     OW10474   0.805   3.728  11.674
 3341SOL    HW110475   0.832   3.820  11.669
 3341SOL    HW210476   0.710   3.732  11.686
 3342SOL     OW10477   1.268   0.063  12.112
 3342SOL    HW110478   1.198   0.007  12.078
 3342SOL    HW210479   1.324   0.003  12.161
 3343SOL     OW10480   0.553   3.905  12.061
 3343SOL    HW110481   0.550   3.925  12.155
 3343SOL    HW210482   0.549   3.990  12.018
 3344SOL     OW10483   0.193   3.983  12.670
 3344SOL    HW110484   0.105   0.019  12.670
 3344SOL    HW210485   0.187   3.905  12.725
 3345SOL     OW10486   1.406   3.834  11.601
 3345SOL    HW110487   1.397   3.800  11.512
 3345SOL    HW210488   1.499   3.825  11.620
 3346SOL     OW10489   1.534   3.941  12.895
 3346SOL    HW110490   1.559   3.946  12.987
 3346SOL    HW210491   1.468   3.871  12.892
 3347SOL     OW10492   0.625   3.851  11.294
 3347SOL    HW110493   0.715   3.821  11.300
 3347SOL    HW210494   0.587   3.802  11.221
 3348SOL     OW10495   0.771   3.959  12.916
 3348SOL    HW110496   0.831   3.931  12.986
 3348SOL    HW210497   0.688   3.973  12.961
 3349SOL     OW10498   0.533   3.786  11.683
 3349SOL    HW110499   0.480   3.788  11.763
 3349SOL    HW210500   0.544   3.878  11.660
 3350SOL     OW10501   0.288   3.757  11.350
 3350SOL    HW110502   0.334   3.839  11.333
 3350SOL    HW210503   0.353   3.701  11.391
 3351SOL     OW10504   0.563   3.943  12.337
 3351SOL    HW110505   0.603   3.870  12.384
 3351SOL    HW210506   0.472   3.943  12.365
 3352SOL     OW10507   1.019   3.768  11.913
 3352SOL    HW110508   0.955   3.756  11.843
 3352SOL    HW210509   0.996   3.702  11.978
 3353SOL     OW10510   0.923   3.804  12.572
 3353SOL    HW110511   0.951   3.784  12.483
 3353SOL    HW210512   0.995   3.854  12.610
 3354SOL     OW10513   1.266   0.077  12.437
 3354SOL    HW110514   1.283   0.144  12.502
 3354SOL    HW210515   1.198   0.114  12.380
 3355SOL     OW10516   0.504   3.751  12.927
 3355SOL    HW110517   0.453   3.704  12.861
 3355SOL    HW210518   0.472   3.841  12.923
 3356SOL     OW10519   0.304   3.925  12.427
 3356SOL    HW110520   0.260   3.943  12.509
 3356SOL    HW210521   0.288   3.832  12.410
 3357SOL     OW10522   1.576   3.956  11.293
 3357SOL    HW110523   1.516   3.899  11.342
 3357SOL    HW210524   1.602   0.023  11.355
 3358SOL     OW10525   1.164   3.924  12.645
 3358SOL    HW110526   1.169   3.997  12.707
 3358SOL    HW210527   1.204   3.957  12.565
 3359SOL     OW10528   0.900   3.812  11.279
 3359SOL    HW110529   0.962   3.777  11.214
 3359SOL    HW210530   0.940   3.791  11.363
 3360SOL     OW10531   1.713   3.858  11.676
 3360SOL    HW110532   1.790   3.844  11.620
 3360SOL    HW210533   1.701   3.775  11.722
 3361SOL     OW10534   1.835   3.883  12.143
 3361SOL    HW110535   1.871   3.801  12.110
 3361SOL    HW210536   1.754   3.896  12.094
 3362SOL     OW10537   0.674   3.910  12.664
 3362SOL    HW110538   0.757   3.905  12.616
 3362SOL    HW210539   0.701   3.933  12.754
 3363SOL     OW10540   0.070   0.032  11.153
 3363SOL    HW110541   3.977   0.030  11.174
 3363SOL    HW210542   0.101   0.117  11.186
 3364SOL     OW10543   0.105   3.912  11.539
 3364SOL    HW110544   0.080   3.994  11.496
 3364SOL    HW210545   0.184   3.884  11.493
 3365SOL     OW10546   1.190   0.011  11.640
 3365SOL    HW110547   1.261   3.947  11.636
 3365SOL    HW210548   1.213   0.067  11.714
 3366SOL     OW10549   1.785   0.044  12.813
 3366SOL    HW110550   1.760   0.076  12.726
 3366SOL    HW210551   1.705   0.007  12.849
 3367SOL     OW10552   1.817   3.913  12.411
 3367SOL    HW110553   1.823   3.822  12.439
 3367SOL    HW210554   1.822   3.909  12.315
 3368SOL     OW10555   1.438   3.933  12.289
 3368SOL    HW110556   1.472   3.856  12.335
 3368SOL    HW210557   1.379   3.975  12.352
 3369SOL     OW10558   1.014   3.737  12.322
 3369SOL    HW110559   0.956   3.680  12.270
 3369SOL    HW210560   1.100   3.695  12.317
 3370SOL     OW10561   1.352   3.771  11.332
 3370SOL    HW110562   1.384   3.704  11.272
 3370SOL    HW210563   1.265   3.741  11.358
 3371SOL     OW10564   1.282   0.162  11.856
 3371SOL    HW110565   1.279   0.257  11.861
 3371SOL    HW210566   1.289   0.133  11.947
 3372SOL     OW10567   1.580   3.928  12.050
 3372SOL    HW110568   1.528   3.933  12.130
 3372SOL    HW210569   1.581   0.018  12.017
 3373SOL     OW10570   0.010   0.100  13.652
 3373SOL    HW110571   3.916   0.093  13.663
 3373SOL    HW210572   0.029   0.046  13.575
 3374SOL     OW10573   1.777   0.321  13.227
 3374SOL    HW110574   1.701   0.304  13.171
 3374SOL    HW210575   1.742   0.320  13.316
 3375SOL     OW10576   1.613   0.172  13.766
 3375SOL    HW110577   1.525   0.153  13.732
 3375SOL    HW210578   1.606   0.260  13.803
 3376SOL     OW10579   0.807   3.729  13.537
 3376SOL    HW110580   0.832   3.821  13.531
 3376SOL    HW210581   0.712   3.730  13.549
 3377SOL     OW10582   1.404   3.834  13.461
 3377SOL    HW110583   1.398   3.799  13.371
 3377SOL    HW210584   1.498   3.830  13.482
 3378SOL     OW10585   0.624   3.851  13.155
 3378SOL    HW110586   0.714   3.821  13.163
 3378SOL    HW210587   0.588   3.802  13.082
 3379SOL     OW10588   0.534   3.782  13.544
 3379SOL    HW110589   0.481   3.774  13.622
 3379SOL    HW210590   0.541   3.877  13.529
 3380SOL     OW10591   0.288   3.759  13.213
 3380SOL    HW110592   0.343   3.833  13.187
 3380SOL    HW210593   0.349   3.699  13.256
 3381SOL     OW10594   1.011   3.765  13.775
 3381SOL    HW110595   0.955   3.759  13.698
 3381SOL    HW210596   0.992   3.685  13.825
 3382SOL     OW10597   1.573   3.960  13.155
 3382SOL    HW110598   1.520   3.898  13.206
 3382SOL    HW210599   1.616   0.014  13.221
 3383SOL     OW10600   0.900   3.813  13.141
 3383SOL    HW110601   0.961   3.777  13.076
 3383SOL    HW210602   0.940   3.790  13.225
 3384SOL     OW10603   1.727   3.859  13.557
 3384SOL    HW110604   1.794   3.846  13.490
 3384SOL    HW210605   1.710   3.771  13.590
 3385SOL     OW10606   1.847   3.890   0.058
 3385SOL    HW110607   1.869   3.797   0.054
 3385SOL    HW210608   1.755   3.892   0.084
 3386SOL     OW10609   0.071   0.030  13.018
 3386SOL    HW110610   3.978   0.029  13.037
 3386SOL    HW210611   0.101   0.116  13.049
 3387SOL     OW10612   0.113   3.919  13.405
 3387SOL    HW110613   0.085   3.992  13.350
 3387SOL    HW210614   0.186   3.879  13.356
 3388SOL     OW10615   1.185   0.004  13.514
 3388SOL    HW110616   1.259   3.946  13.495
 3388SOL    HW210617   1.218   0.064  13.581
 3389SOL     OW10618   1.353   3.771  13.194
 3389SOL    HW110619   1.383   3.703  13.133
 3389SOL    HW210620   1.265   3.741  13.220
 3390SOL     OW10621   1.307   0.158  13.735
 3390SOL    HW110622   1.272   0.245  13.715
 3390SOL    HW210623   1.294   0.148  13.829
 3391SOL     OW10624   2.097   0.644   0.117
 3391SOL    HW110625   2.011   0.614   0.148
 3391SOL    HW210626   2.112   0.594   0.037
 3392SOL     OW10627   2.078   0.299   0.992
 3392SOL    HW110628   2.116   0.256   1.068
 3392SOL    HW210629   1.995   0.254   0.978
 3393SOL     OW10630   1.872   0.397   0.635
 3393SOL    HW110631   1.784   0.410   0.671
 3393SOL    HW210632   1.863   0.324   0.574
 3394SOL     OW10633   2.430   1.287   1.175
 3394SOL    HW110634   2.342   1.290   1.136
 3394SOL    HW210635   2.445   1.376   1.207
 3395SOL     OW10636   3.423   1.512   0.707
 3395SOL    HW110637   3.379   1.491   0.789
 3395SOL    HW210638   3.353   1.515   0.642
 3396SOL     OW10639   2.994   0.698   0.700
 3396SOL    HW110640   3.042   0.780   0.687
 3396SOL    HW210641   2.946   0.711   0.782
 3397SOL     OW10642   3.612   0.630   0.226
 3397SOL    HW110643   3.623   0.617   0.132
 3397SOL    HW210644   3.623   0.543   0.264
 3398SOL     OW10645   2.618   1.142   1.041
 3398SOL    HW110646   2.549   1.177   1.098
 3398SOL    HW210647   2.653   1.219   0.996
 3399SOL     OW10648   2.730   0.774   1.823
 3399SOL    HW110649   2.716   0.845   1.885
 3399SOL    HW210650   2.753   0.818   1.741
 3400SOL     OW10651   2.548   1.002   0.647
 3400SOL    HW110652   2.613   0.991   0.716
 3400SOL    HW210653   2.478   1.054   0.687
 3401SOL     OW10654   2.573   1.150   1.812
 3401SOL    HW110655   2.620   1.229   1.840
 3401SOL    HW210656   2.490   1.183   1.777
 3402SOL     OW10657   2.193   1.422   1.069
 3402SOL    HW110658   2.118   1.388   1.020
 3402SOL    HW210659   2.243   1.472   1.005
 3403SOL     OW10660   3.322   1.500   1.355
 3403SOL    HW110661   3.374   1.580   1.364
 3403SOL    HW210662   3.261   1.502   1.428
 3404SOL     OW10663   2.305   0.396   1.494
 3404SOL    HW110664   2.394   0.360   1.493
 3404SOL    HW210665   2.249   0.319   1.502
 3405SOL     OW10666   3.472   0.450   0.736
 3405SOL    HW110667   3.403   0.485   0.680
 3405SOL    HW210668   3.500   0.524   0.790
 3406SOL     OW10669   2.106   1.700   0.477
 3406SOL    HW110670   2.141   1.770   0.532
 3406SOL    HW210671   2.169   1.692   0.406
 3407SOL     OW10672   2.998   1.342   1.693
 3407SOL    HW110673   3.039   1.337   1.779
 3407SOL    HW210674   2.946   1.262   1.687
 3408SOL     OW10675   2.080   1.435   0.533
 3408SOL    HW110676   2.078   1.531   0.532
 3408SOL    HW210677   2.022   1.411   0.605
 3409SOL     OW10678   2.120   1.090   0.890
 3409SOL    HW110679   2.117   1.003   0.931
 3409SOL    HW210680   2.063   1.144   0.944
 3410SOL     OW10681   2.473   1.792   1.429
 3410SOL    HW110682   2.391   1.774   1.476
 3410SOL    HW210683   2.497   1.880   1.456
 3411SOL     OW10684   2.431   0.980   0.159
 3411SOL    HW110685   2.457   1.028   0.080
 3411SOL    HW210686   2.484   1.019   0.228
 3412SOL     OW10687   3.442   0.138   1.457
 3412SOL    HW110688   3.466   0.212   1.400
 3412SOL    HW210689   3.412   0.179   1.538
 3413SOL     OW10690   1.977   0.654   0.559
 3413SOL    HW110691   1.950   0.566   0.582
 3413SOL    HW210692   1.970   0.704   0.640
 3414SOL     OW10693   3.706   1.760   0.334
 3414SOL    HW110694   3.766   1.725   0.399
 3414SOL    HW210695   3.729   1.853   0.328
 3415SOL     OW10696   1.895   1.595   0.106
 3415SOL    HW110697   1.895   1.501   0.126
 3415SOL    HW210698   1.868   1.637   0.188
 3416SOL     OW10699   3.548   0.917   0.644
 3416SOL    HW110700   3.633   0.875   0.629
 3416SOL    HW210701   3.531   0.968   0.565
 3417SOL     OW10702   3.505   1.105   0.433
 3417SOL    HW110703   3.591   1.112   0.391
 3417SOL    HW210704   3.508   1.168   0.505
 3418SOL     OW10705   1.985   0.748   1.582
 3418SOL    HW110706   2.076   0.776   1.589
 3418SOL    HW210707   1.934   0.829   1.590
 3419SOL     OW10708   2.476   1.385   0.734
 3419SOL    HW110709   2.430   1.302   0.743
 3419SOL    HW210710   2.459   1.412   0.644
 3420SOL     OW10711   3.150   1.238   1.423
 3420SOL    HW110712   3.183   1.172   1.363
 3420SOL    HW210713   3.208   1.232   1.499
 3421SOL     OW10714   2.682   0.002   0.518
 3421SOL    HW110715   2.726   0.083   0.492
 3421SOL    HW210716   2.589   0.025   0.519
 3422SOL     OW10717   2.052   0.965   1.272
 3422SOL    HW110718   2.137   0.924   1.257
 3422SOL    HW210719   1.990   0.911   1.223
 3423SOL     OW10720   3.393   0.994   0.204
 3423SOL    HW110721   3.324   0.936   0.236
 3423SOL    HW210722   3.431   1.032   0.283
 3424SOL     OW10723   3.046   1.807   1.622
 3424SOL    HW110724   3.058   1.865   1.547
 3424SOL    HW210725   3.063   1.719   1.587
 3425SOL     OW10726   2.216   0.255   1.827
 3425SOL    HW110727   2.260   0.340   1.827
 3425SOL    HW210728   2.123   0.275   1.836
 3426SOL     OW10729   3.328   1.420   0.951
 3426SOL    HW110730   3.260   1.434   1.017
 3426SOL    HW210731   3.316   1.329   0.925
 3427SOL     OW10732   3.522   1.740   0.583
 3427SOL    HW110733   3.500   1.716   0.493
 3427SOL    HW210734   3.499   1.663   0.635
 3428SOL     OW10735   2.458   0.719   0.263
 3428SOL    HW110736   2.461   0.802   0.214
 3428SOL    HW210737   2.399   0.737   0.336
 3429SOL     OW10738   3.138   0.365   0.940
 3429SOL    HW110739   3.050   0.326   0.946
 3429SOL    HW210740   3.195   0.304   0.986
 3430SOL     OW10741   3.426   1.730   0.313
 3430SOL    HW110742   3.521   1.730   0.310
 3430SOL    HW210743   3.399   1.692   0.229
 3431SOL     OW10744   2.658   0.616   1.453
 3431SOL    HW110745   2.629   0.592   1.541
 3431SOL    HW210746   2.617   0.551   1.396
 3432SOL     OW10747   3.255   0.476   1.677
 3432SOL    HW110748   3.259   0.521   1.762
 3432SOL    HW210749   3.313   0.402   1.687
 3433SOL     OW10750   2.816   0.888   1.583
 3433SOL    HW110751   2.871   0.818   1.547
 3433SOL    HW210752   2.768   0.922   1.507
 3434SOL     OW10753   2.854   0.403   1.240
 3434SOL    HW110754   2.770   0.427   1.281
 3434SOL    HW210755   2.829   0.373   1.153
 3435SOL     OW10756   2.913   0.702   0.428
 3435SOL    HW110757   2.929   0.693   0.522
 3435SOL    HW210758   2.830   0.655   0.413
 3436SOL     OW10759   1.951   0.823   0.775
 3436SOL    HW110760   2.031   0.814   0.827
 3436SOL    HW210761   1.907   0.900   0.811
 3437SOL     OW10762   2.736   0.360   0.219
 3437SOL    HW110763   2.774   0.417   0.152
 3437SOL    HW210764   2.740   0.273   0.180
 3438SOL     OW10765   3.572   0.575   1.829
 3438SOL    HW110766   3.534   0.649   1.783
 3438SOL    HW210767   3.596   0.513   1.760
 3439SOL     OW10768   3.238   1.142   0.542
 3439SOL    HW110769   3.317   1.129   0.490
 3439SOL    HW210770   3.186   1.205   0.493
 3440SOL     OW10771   2.418   0.198   0.882
 3440SOL    HW110772   2.422   0.217   0.976
 3440SOL    HW210773   2.415   0.284   0.840
 3441SOL     OW10774   2.868   1.442   0.476
 3441SOL    HW110775   2.833   1.516   0.425
 3441SOL    HW210776   2.848   1.465   0.566
 3442SOL     OW10777   2.217   1.794   0.864
 3442SOL    HW110778   2.254   1.706   0.875
 3442SOL    HW210779   2.286   1.853   0.892
 3443SOL     OW10780   3.666   1.062   0.867
 3443SOL    HW110781   3.611   1.039   0.792
 3443SOL    HW210782   3.605   1.066   0.941
 3444SOL     OW10783   3.089   1.539   1.514
 3444SOL    HW110784   3.076   1.466   1.574
 3444SOL    HW210785   3.027   1.523   1.442
 3445SOL     OW10786   2.174   0.939   0.229
 3445SOL    HW110787   2.266   0.952   0.205
 3445SOL    HW210788   2.161   0.845   0.225
 3446SOL     OW10789   3.338   0.745   0.731
 3446SOL    HW110790   3.333   0.701   0.816
 3446SOL    HW210791   3.416   0.799   0.737
 3447SOL     OW10792   2.329   1.264   1.738
 3447SOL    HW110793   2.302   1.268   1.647
 3447SOL    HW210794   2.247   1.261   1.788
 3448SOL     OW10795   2.983   1.781   0.231
 3448SOL    HW110796   2.922   1.733   0.287
 3448SOL    HW210797   3.013   1.716   0.167
 3449SOL     OW10798   2.035   0.276   1.498
 3449SOL    HW110799   1.975   0.350   1.492
 3449SOL    HW210800   2.043   0.259   1.592
 3450SOL     OW10801   3.495   1.372   0.085
 3450SOL    HW110802   3.460   1.457   0.057
 3450SOL    HW210803   3.425   1.310   0.064
 3451SOL     OW10804   2.337   1.723   0.329
 3451SOL    HW110805   2.375   1.793   0.382
 3451SOL    HW210806   2.402   1.709   0.259
 3452SOL     OW10807   3.297   0.143   0.393
 3452SOL    HW110808   3.256   0.057   0.382
 3452SOL    HW210809   3.379   0.125   0.440
 3453SOL     OW10810   2.153   1.763   1.223
 3453SOL    HW110811   2.193   1.682   1.255
 3453SOL    HW210812   2.117   1.740   1.137
 3454SOL     OW10813   2.799   1.698   0.899
 3454SOL    HW110814   2.878   1.648   0.920
 3454SOL    HW210815   2.756   1.648   0.830
 3455SOL     OW10816   2.254   0.696   0.473
 3455SOL    HW110817   2.276   0.604   0.485
 3455SOL    HW210818   2.161   0.701   0.496
 3456SOL     OW10819   3.393   0.231   1.727
 3456SOL    HW110820   3.389   0.256   1.819
 3456SOL    HW210821   3.367   0.139   1.726
 3457SOL     OW10822   2.483   0.101   0.118
 3457SOL    HW110823   2.578   0.101   0.126
 3457SOL    HW210824   2.466   0.131   0.029
 3458SOL     OW10825   2.639   0.281   1.765
 3458SOL    HW110826   2.705   0.213   1.770
 3458SOL    HW210827   2.578   0.261   1.837
 3459SOL     OW10828   2.738   1.522   1.194
 3459SOL    HW110829   2.723   1.486   1.106
 3459SOL    HW210830   2.808   1.467   1.230
 3460SOL     OW10831   3.204   0.587   1.430
 3460SOL    HW110832   3.233   0.559   1.517
 3460SOL    HW210833   3.237   0.676   1.421
 3461SOL     OW10834   2.677   1.395   0.939
 3461SOL    HW110835   2.762   1.383   0.896
 3461SOL    HW210836   2.614   1.396   0.868
 3462SOL     OW10837   2.791   0.511   0.901
 3462SOL    HW110838   2.767   0.503   0.809
 3462SOL    HW210839   2.819   0.423   0.926
 3463SOL     OW10840   2.411   0.054   0.499
 3463SOL    HW110841   2.334   0.060   0.557
 3463SOL    HW210842   2.404   0.130   0.442
 3464SOL     OW10843   3.292   1.203   0.044
 3464SOL    HW110844   3.311   1.123   0.093
 3464SOL    HW210845   3.200   1.222   0.065
 3465SOL     OW10846   2.196   0.008   0.182
 3465SOL    HW110847   2.178   0.091   0.137
 3465SOL    HW210848   2.276   0.024   0.231
 3466SOL     OW10849   2.802   0.248   0.465
 3466SOL    HW110850   2.771   0.287   0.384
 3466SOL    HW210851   2.897   0.250   0.458
 3467SOL     OW10852   2.942   0.682   1.459
 3467SOL    HW110853   2.871   0.618   1.466
 3467SOL    HW210854   3.021   0.629   1.454
 3468SOL     OW10855   3.084   1.571   0.795
 3468SOL    HW110856   3.101   1.637   0.727
 3468SOL    HW210857   3.154   1.583   0.859
 3469SOL     OW10858   2.331   1.150   0.732
 3469SOL    HW110859   2.262   1.130   0.796
 3469SOL    HW210860   2.289   1.136   0.647
 3470SOL     OW10861   3.130   1.795   0.607
 3470SOL    HW110862   3.178   1.857   0.552
 3470SOL    HW210863   3.064   1.848   0.651
 3471SOL     OW10864   2.863   0.535   0.055
 3471SOL    HW110865   2.864   0.539  13.860
 3471SOL    HW210866   2.953   0.555   0.082
 3472SOL     OW10867   1.941   0.552   1.395
 3472SOL    HW110868   2.033   0.552   1.366
 3472SOL    HW210869   1.935   0.625   1.457
 3473SOL     OW10870   2.427   0.232   1.161
 3473SOL    HW110871   2.452   0.140   1.171
 3473SOL    HW210872   2.337   0.236   1.193
 3474SOL     OW10873   2.732   0.461   0.638
 3474SOL    HW110874   2.685   0.515   0.574
 3474SOL    HW210875   2.752   0.380   0.592
 3475SOL     OW10876   2.857   0.041   0.778
 3475SOL    HW110877   2.819   0.067   0.694
 3475SOL    HW210878   2.867   3.946   0.772
 3476SOL     OW10879   3.300   1.162   0.858
 3476SOL    HW110880   3.230   1.097   0.855
 3476SOL    HW210881   3.324   1.174   0.766
 3477SOL     OW10882   3.327   0.606   0.977
 3477SOL    HW110883   3.276   0.525   0.982
 3477SOL    HW210884   3.388   0.600   1.051
 3478SOL     OW10885   3.724   0.824   0.374
 3478SOL    HW110886   3.764   0.766   0.439
 3478SOL    HW210887   3.678   0.764   0.315
 3479SOL     OW10888   2.348   1.406   0.156
 3479SOL    HW110889   2.274   1.375   0.207
 3479SOL    HW210890   2.330   1.378   0.066
 3480SOL     OW10891   3.528   1.264   0.647
 3480SOL    HW110892   3.623   1.269   0.656
 3480SOL    HW210893   3.498   1.354   0.663
 3481SOL     OW10894   3.281   0.590   0.087
 3481SOL    HW110895   3.211   0.576   0.151
 3481SOL    HW210896   3.334   0.510   0.092
 3482SOL     OW10897   2.380   0.254   0.322
 3482SOL    HW110898   2.422   0.208   0.250
 3482SOL    HW210899   2.361   0.341   0.286
 3483SOL     OW10900   3.614   1.234   1.570
 3483SOL    HW110901   3.701   1.199   1.553
 3483SOL    HW210902   3.630   1.323   1.601
 3484SOL     OW10903   2.920   1.354   1.334
 3484SOL    HW110904   2.845   1.322   1.385
 3484SOL    HW210905   2.996   1.312   1.375
 3485SOL     OW10906   3.467   1.627   1.654
 3485SOL    HW110907   3.461   1.661   1.565
 3485SOL    HW210908   3.549   1.577   1.655
 3486SOL     OW10909   2.991   1.204   1.105
 3486SOL    HW110910   2.932   1.242   1.170
 3486SOL    HW210911   2.959   1.236   1.021
 3487SOL     OW10912   3.492   1.097   1.076
 3487SOL    HW110913   3.485   1.159   1.149
 3487SOL    HW210914   3.414   1.113   1.023
 3488SOL     OW10915   2.775   0.113   1.402
 3488SOL    HW110916   2.795   0.087   1.312
 3488SOL    HW210917   2.855   0.155   1.433
 3489SOL     OW10918   2.846   1.115   1.723
 3489SOL    HW110919   2.754   1.131   1.745
 3489SOL    HW210920   2.844   1.037   1.667
 3490SOL     OW10921   2.576   1.059   0.376
 3490SOL    HW110922   2.561   1.042   0.469
 3490SOL    HW210923   2.651   1.003   0.353
 3491SOL     OW10924   2.281   0.815   1.251
 3491SOL    HW110925   2.350   0.823   1.318
 3491SOL    HW210926   2.246   0.727   1.264
 3492SOL     OW10927   3.129   0.375   1.276
 3492SOL    HW110928   3.163   0.453   1.320
 3492SOL    HW210929   3.042   0.401   1.245
 3493SOL     OW10930   1.933   1.578   1.353
 3493SOL    HW110931   1.897   1.642   1.291
 3493SOL    HW210932   2.027   1.582   1.339
 3494SOL     OW10933   2.209   1.112   0.488
 3494SOL    HW110934   2.210   1.184   0.426
 3494SOL    HW210935   2.216   1.033   0.434
 3495SOL     OW10936   2.417   0.534   0.858
 3495SOL    HW110937   2.432   0.593   0.784
 3495SOL    HW210938   2.481   0.562   0.924
 3496SOL     OW10939   3.110   1.346   0.397
 3496SOL    HW110940   3.167   1.419   0.423
 3496SOL    HW210941   3.024   1.370   0.429
 3497SOL     OW10942   3.143   1.458   1.147
 3497SOL    HW110943   3.199   1.461   1.225
 3497SOL    HW210944   3.088   1.380   1.160
 3498SOL     OW10945   3.441   0.632   0.490
 3498SOL    HW110946   3.399   0.694   0.549
 3498SOL    HW210947   3.478   0.687   0.420
 3499SOL     OW10948   2.215   1.515   1.318
 3499SOL    HW110949   2.200   1.473   1.233
 3499SOL    HW210950   2.310   1.526   1.323
 3500SOL     OW10951   2.277   0.744   1.601
 3500SOL    HW110952   2.338   0.790   1.543
 3500SOL    HW210953   2.318   0.659   1.618
 3501SOL     OW10954   3.464   0.777   1.681
 3501SOL    HW110955   3.378   0.819   1.675
 3501SOL    HW210956   3.516   0.820   1.614
 3502SOL     OW10957   2.882   0.125   1.779
 3502SOL    HW110958   2.922   0.202   1.738
 3502SOL    HW210959   2.864   0.066   1.706
 3503SOL     OW10960   2.348   0.034   1.763
 3503SOL    HW110961   2.354   0.043   1.668
 3503SOL    HW210962   2.290   0.105   1.790
 3504SOL     OW10963   2.445   0.873   1.031
 3504SOL    HW110964   2.475   0.964   1.032
 3504SOL    HW210965   2.388   0.866   1.108
 3505SOL     OW10966   3.219   0.859   1.029
 3505SOL    HW110967   3.136   0.849   0.983
 3505SOL    HW210968   3.260   0.773   1.023
 3506SOL     OW10969   3.079   0.547   0.269
 3506SOL    HW110970   3.085   0.467   0.321
 3506SOL    HW210971   3.023   0.605   0.321
 3507SOL     OW10972   2.164   0.211   1.242
 3507SOL    HW110973   2.123   0.240   1.325
 3507SOL    HW210974   2.151   0.116   1.241
 3508SOL     OW10975   1.907   1.313   1.278
 3508SOL    HW110976   1.941   1.258   1.348
 3508SOL    HW210977   1.915   1.402   1.312
 3509SOL     OW10978   2.586   0.633   1.055
 3509SOL    HW110979   2.661   0.618   0.997
 3509SOL    HW210980   2.557   0.722   1.034
 3510SOL     OW10981   3.595   0.957   1.859
 3510SOL    HW110982   3.550   0.899   1.797
 3510SOL    HW210983   3.531   0.970   1.929
 3511SOL     OW10984   2.183   0.057   0.647
 3511SOL    HW110985   2.163   0.150   0.659
 3511SOL    HW210986   2.142   0.013   0.721
 3512SOL     OW10987   3.440   0.387   0.390
 3512SOL    HW110988   3.426   0.324   0.460
 3512SOL    HW210989   3.432   0.473   0.432
 3513SOL     OW10990   2.890   0.759   0.960
 3513SOL    HW110991   2.886   0.777   1.054
 3513SOL    HW210992   2.863   0.668   0.951
 3514SOL     OW10993   2.844   1.566   1.717
 3514SOL    HW110994   2.829   1.610   1.633
 3514SOL    HW210995   2.887   1.484   1.694
 3515SOL     OW10996   3.707   1.502   1.600
 3515SOL    HW110997   3.729   1.530   1.511
 3515SOL    HW210998   3.788   1.515   1.650
 3516SOL     OW10999   2.215   0.915   1.809
 3516SOL    HW111000   2.297   0.935   1.854
 3516SOL    HW211001   2.240   0.853   1.740
 3517SOL     OW11002   3.394   0.270   0.144
 3517SOL    HW111003   3.328   0.200   0.149
 3517SOL    HW211004   3.398   0.305   0.233
 3518SOL     OW11005   3.153   0.832   0.055
 3518SOL    HW111006   3.200   0.748   0.061
 3518SOL    HW211007   3.171   0.863  13.867
 3519SOL     OW11008   2.928   1.336   0.854
 3519SOL    HW111009   2.931   1.263   0.791
 3519SOL    HW211010   2.989   1.400   0.819
 3520SOL     OW11011   2.170   0.809   0.946
 3520SOL    HW111012   2.263   0.831   0.941
 3520SOL    HW211013   2.168   0.719   0.979
 3521SOL     OW11014   2.198   0.534   1.013
 3521SOL    HW111015   2.157   0.449   0.997
 3521SOL    HW211016   2.274   0.535   0.955
 3522SOL     OW11017   2.995   0.382   1.693
 3522SOL    HW111018   2.947   0.437   1.756
 3522SOL    HW211019   3.082   0.422   1.689
 3523SOL     OW11020   3.013   0.225   1.481
 3523SOL    HW111021   3.004   0.279   1.559
 3523SOL    HW211022   3.036   0.287   1.411
 3524SOL     OW11023   1.882   1.310   0.177
 3524SOL    HW111024   1.798   1.321   0.131
 3524SOL    HW211025   1.875   1.224   0.218
 3525SOL     OW11026   1.971   1.719   0.971
 3525SOL    HW111027   1.933   1.662   0.904
 3525SOL    HW211028   2.041   1.765   0.925
 3526SOL     OW11029   2.363   1.567   0.910
 3526SOL    HW111030   2.431   1.630   0.932
 3526SOL    HW211031   2.407   1.505   0.851
 3527SOL     OW11032   2.844   0.790   1.225
 3527SOL    HW111033   2.899   0.769   1.301
 3527SOL    HW211034   2.758   0.755   1.248
 3528SOL     OW11035   1.895   0.547   1.117
 3528SOL    HW111036   1.971   0.519   1.064
 3528SOL    HW211037   1.928   0.548   1.207
 3529SOL     OW11038   2.064   0.526   1.714
 3529SOL    HW111039   2.132   0.504   1.650
 3529SOL    HW211040   2.018   0.600   1.675
 3530SOL     OW11041   3.241   0.938   1.658
 3530SOL    HW111042   3.261   1.032   1.657
 3530SOL    HW211043   3.237   0.913   1.566
 3531SOL     OW11044   2.677   0.579   0.370
 3531SOL    HW111045   2.688   0.502   0.315
 3531SOL    HW211046   2.603   0.626   0.331
 3532SOL     OW11047   3.503   0.602   1.185
 3532SOL    HW111048   3.492   0.541   1.259
 3532SOL    HW211049   3.589   0.580   1.149
 3533SOL     OW11050   2.116   1.539   1.708
 3533SOL    HW111051   2.096   1.609   1.771
 3533SOL    HW211052   2.117   1.459   1.761
 3534SOL     OW11053   2.564   0.455   1.259
 3534SOL    HW111054   2.515   0.377   1.233
 3534SOL    HW211055   2.558   0.514   1.184
 3535SOL     OW11056   2.788   1.679   1.468
 3535SOL    HW111057   2.764   1.644   1.382
 3535SOL    HW211058   2.785   1.774   1.457
 3536SOL     OW11059   2.302   0.495   0.231
 3536SOL    HW111060   2.372   0.558   0.243
 3536SOL    HW211061   2.231   0.544   0.191
 3537SOL     OW11062   2.007   1.140   1.472
 3537SOL    HW111063   2.009   1.089   1.553
 3537SOL    HW211064   2.024   1.077   1.403
 3538SOL     OW11065   3.186   1.046   1.223
 3538SOL    HW111066   3.210   0.983   1.155
 3538SOL    HW211067   3.117   1.099   1.184
 3539SOL     OW11068   3.174   0.857   0.326
 3539SOL    HW111069   3.098   0.825   0.375
 3539SOL    HW211070   3.151   0.844   0.234
 3540SOL     OW11071   3.639   1.744   1.155
 3540SOL    HW111072   3.694   1.771   1.081
 3540SOL    HW211073   3.611   1.655   1.132
 3541SOL     OW11074   3.103   1.734   1.113
 3541SOL    HW111075   3.185   1.755   1.068
 3541SOL    HW211076   3.109   1.640   1.131
 3542SOL     OW11077   1.949   1.263   1.015
 3542SOL    HW111078   1.932   1.278   1.108
 3542SOL    HW211079   1.873   1.212   0.985
 3543SOL     OW11080   2.541   1.664   1.728
 3543SOL    HW111081   2.493   1.746   1.727
 3543SOL    HW211082   2.608   1.675   1.660
 3544SOL     OW11083   2.760   0.104   0.136
 3544SOL    HW111084   2.800   0.090   0.050
 3544SOL    HW211085   2.771   0.020   0.181
 3545SOL     OW11086   3.557   0.125   0.484
 3545SOL    HW111087   3.638   0.135   0.435
 3545SOL    HW211088   3.554   0.033   0.507
 3546SOL     OW11089   3.251   1.571   0.484
 3546SOL    HW111090   3.314   1.605   0.420
 3546SOL    HW211091   3.205   1.649   0.515
 3547SOL     OW11092   2.030   1.743   1.859
 3547SOL    HW111093   1.966   1.690   1.908
 3547SOL    HW211094   2.011   1.833   1.885
 3548SOL     OW11095   3.138   0.926   0.671
 3548SOL    HW111096   3.212   0.866   0.680
 3548SOL    HW211097   3.172   0.999   0.618
 3549SOL     OW11098   2.676   1.273   1.429
 3549SOL    HW111099   2.648   1.312   1.512
 3549SOL    HW211100   2.606   1.294   1.367
 3550SOL     OW11101   2.547   1.584   0.179
 3550SOL    HW111102   2.528   1.628   0.096
 3550SOL    HW211103   2.488   1.509   0.180
 3551SOL     OW11104   3.485   1.727   1.391
 3551SOL    HW111105   3.539   1.732   1.312
 3551SOL    HW211106   3.472   1.818   1.418
 3552SOL     OW11107   3.702   0.181   0.970
 3552SOL    HW111108   3.728   0.097   0.930
 3552SOL    HW211109   3.616   0.199   0.934
 3553SOL     OW11110   2.126   0.317   0.717
 3553SOL    HW111111   2.040   0.352   0.695
 3553SOL    HW211112   2.124   0.306   0.812
 3554SOL     OW11113   3.079   1.602   0.034
 3554SOL    HW111114   3.069   1.511   0.061
 3554SOL    HW211115   3.042   1.605  13.846
 3555SOL     OW11116   2.686   1.006   1.372
 3555SOL    HW111117   2.729   1.002   1.286
 3555SOL    HW211118   2.685   1.098   1.395
 3556SOL     OW11119   2.782   0.910   0.287
 3556SOL    HW111120   2.852   0.949   0.236
 3556SOL    HW211121   2.824   0.840   0.336
 3557SOL     OW11122   3.349   1.637   0.068
 3557SOL    HW111123   3.255   1.624   0.053
 3557SOL    HW211124   3.387   1.638  13.880
 3558SOL     OW11125   2.232   1.297   1.493
 3558SOL    HW111126   2.220   1.376   1.439
 3558SOL    HW211127   2.154   1.245   1.476
 3559SOL     OW11128   3.465   1.280   1.279
 3559SOL    HW111129   3.533   1.274   1.346
 3559SOL    HW211130   3.408   1.351   1.309
 3560SOL     OW11131   2.914   1.107   0.706
 3560SOL    HW111132   2.844   1.056   0.746
 3560SOL    HW211133   2.978   1.042   0.677
 3561SOL     OW11134   2.877   0.248   0.968
 3561SOL    HW111135   2.866   0.198   0.887
 3561SOL    HW211136   2.871   0.182   1.038
 3562SOL     OW11137   2.466   1.489   0.481
 3562SOL    HW111138   2.509   1.438   0.413
 3562SOL    HW211139   2.402   1.544   0.435
 3563SOL     OW11140   3.582   0.392   1.373
 3563SOL    HW111141   3.653   0.456   1.372
 3563SOL    HW211142   3.613   0.320   1.318
 3564SOL     OW11143   2.130   1.325   0.296
 3564SOL    HW111144   2.045   1.335   0.252
 3564SOL    HW211145   2.119   1.369   0.380
 3565SOL     OW11146   1.975   1.023   1.720
 3565SOL    HW111147   1.898   0.999   1.772
 3565SOL    HW211148   2.049   0.985   1.766
 3566SOL     OW11149   2.554   0.247   1.499
 3566SOL    HW111150   2.622   0.194   1.458
 3566SOL    HW211151   2.581   0.255   1.590
 3567SOL     OW11152   1.901   0.438   0.010
 3567SOL    HW111153   1.874   0.347   0.020
 3567SOL    HW211154   1.907   0.451  13.815
 3568SOL     OW11155   3.289   0.857   1.399
 3568SOL    HW111156   3.240   0.919   1.345
 3568SOL    HW211157   3.378   0.860   1.364
 3569SOL     OW11158   1.944   0.149   0.368
 3569SOL    HW111159   1.912   0.228   0.323
 3569SOL    HW211160   2.024   0.126   0.321
 3570SOL     OW11161   3.048   1.347   0.122
 3570SOL    HW111162   2.954   1.332   0.111
 3570SOL    HW211163   3.064   1.335   0.215
 3571SOL     OW11164   2.482   0.829   1.433
 3571SOL    HW111165   2.538   0.905   1.418
 3571SOL    HW211166   2.543   0.756   1.442
 3572SOL     OW11167   3.345   1.779   0.979
 3572SOL    HW111168   3.369   1.837   0.907
 3572SOL    HW211169   3.428   1.755   1.019
 3573SOL     OW11170   2.580   0.562   1.705
 3573SOL    HW111171   2.620   0.625   1.765
 3573SOL    HW211172   2.609   0.477   1.738
 3574SOL     OW11173   3.333   1.200   1.632
 3574SOL    HW111174   3.322   1.214   1.726
 3574SOL    HW211175   3.427   1.215   1.616
 3575SOL     OW11176   2.239   1.745   1.569
 3575SOL    HW111177   2.162   1.766   1.517
 3575SOL    HW211178   2.218   1.661   1.609
 3576SOL     OW11179   3.528   0.881   1.259
 3576SOL    HW111180   3.526   0.796   1.215
 3576SOL    HW211181   3.522   0.945   1.188
 3577SOL     OW11182   3.091   0.334   0.439
 3577SOL    HW111183   3.156   0.263   0.433
 3577SOL    HW211184   3.110   0.376   0.522
 3578SOL     OW11185   2.452   0.737   0.670
 3578SOL    HW111186   2.490   0.824   0.655
 3578SOL    HW211187   2.384   0.730   0.603
 3579SOL     OW11188   3.618   0.380   1.642
 3579SOL    HW111189   3.597   0.388   1.549
 3579SOL    HW211190   3.558   0.313   1.674
 3580SOL     OW11191   3.614   0.931   1.514
 3580SOL    HW111192   3.607   1.025   1.530
 3580SOL    HW211193   3.592   0.921   1.422
 3581SOL     OW11194   2.769   1.395   0.059
 3581SOL    HW111195   2.698   1.385   0.123
 3581SOL    HW211196   2.725   1.410  13.876
 3582SOL     OW11197   2.521   1.794   0.944
 3582SOL    HW111198   2.504   1.884   0.916
 3582SOL    HW211199   2.616   1.784   0.936
 3583SOL     OW11200   2.729   0.967   0.855
 3583SOL    HW111201   2.780   0.896   0.894
 3583SOL    HW211202   2.694   1.016   0.929
 3584SOL     OW11203   2.959   1.008   0.109
 3584SOL    HW111204   2.948   1.056   0.026
 3584SOL    HW211205   3.034   0.951   0.094
 3585SOL     OW11206   3.717   1.556   0.841
 3585SOL    HW111207   3.638   1.542   0.790
 3585SOL    HW211208   3.712   1.490   0.911
 3586SOL     OW11209   2.088   1.302   1.856
 3586SOL    HW111210   2.020   1.240   1.829
 3586SOL    HW211211   2.073   1.314   1.950
 3587SOL     OW11212   1.942   1.223   0.663
 3587SOL    HW111213   1.953   1.179   0.747
 3587SOL    HW211214   2.019   1.197   0.612
 3588SOL     OW11215   2.542   1.403   1.626
 3588SOL    HW111216   2.463   1.359   1.659
 3588SOL    HW211217   2.538   1.490   1.665
 3589SOL     OW11218   3.677   0.182   1.244
 3589SOL    HW111219   3.679   0.087   1.252
 3589SOL    HW211220   3.694   0.198   1.151
 3590SOL     OW11221   2.293   0.435   0.531
 3590SOL    HW111222   2.324   0.364   0.476
 3590SOL    HW211223   2.245   0.391   0.601
 3591SOL     OW11224   3.560   1.491   1.098
 3591SOL    HW111225   3.481   1.467   1.050
 3591SOL    HW211226   3.573   1.420   1.161
 3592SOL     OW11227   2.191   0.555   1.293
 3592SOL    HW111228   2.245   0.497   1.347
 3592SOL    HW211229   2.211   0.528   1.203
 3593SOL     OW11230   2.690   1.578   0.678
 3593SOL    HW111231   2.678   1.634   0.602
 3593SOL    HW211232   2.613   1.520   0.677
 3594SOL     OW11233   3.323   0.251   1.111
 3594SOL    HW111234   3.337   0.163   1.146
 3594SOL    HW211235   3.266   0.294   1.175
 3595SOL     OW11236   2.868   0.029   1.147
 3595SOL    HW111237   2.789   3.984   1.115
 3595SOL    HW211238   2.934   3.960   1.155
 3596SOL     OW11239   2.633   1.322   0.319
 3596SOL    HW111240   2.604   1.232   0.337
 3596SOL    HW211241   2.717   1.329   0.364
 3597SOL     OW11242   2.483   1.556   1.285
 3597SOL    HW111243   2.484   1.638   1.334
 3597SOL    HW211244   2.571   1.548   1.248
 3598SOL     OW11245   3.184   0.068   0.132
 3598SOL    HW111246   3.207   3.985   0.090
 3598SOL    HW211247   3.115   0.046   0.194
 3599SOL     OW11248   3.144   0.456   0.685
 3599SOL    HW111249   3.097   0.539   0.681
 3599SOL    HW211250   3.149   0.436   0.779
 3600SOL     OW11251   3.452   0.210   0.867
 3600SOL    HW111252   3.403   0.233   0.946
 3600SOL    HW211253   3.451   0.291   0.815
 3601SOL     OW11254   1.902   1.070   0.308
 3601SOL    HW111255   1.998   1.068   0.306
 3601SOL    HW211256   1.876   0.981   0.329
 3602SOL     OW11257   2.757   1.652   0.343
 3602SOL    HW111258   2.682   1.624   0.290
 3602SOL    HW211259   2.724   1.725   0.394
 3603SOL     OW11260   2.091   0.621   1.983
 3603SOL    HW111261   2.001   0.627   2.015
 3603SOL    HW211262   2.083   0.600   1.890
 3604SOL     OW11263   2.079   0.299   2.853
 3604SOL    HW111264   2.116   0.256   2.930
 3604SOL    HW211265   1.995   0.254   2.840
 3605SOL     OW11266   1.871   0.395   2.497
 3605SOL    HW111267   1.784   0.411   2.533
 3605SOL    HW211268   1.859   0.324   2.434
 3606SOL     OW11269   2.429   1.287   3.037
 3606SOL    HW111270   2.342   1.290   2.998
 3606SOL    HW211271   2.445   1.376   3.069
 3607SOL     OW11272   3.423   1.512   2.569
 3607SOL    HW111273   3.380   1.492   2.652
 3607SOL    HW211274   3.351   1.517   2.506
 3608SOL     OW11275   2.994   0.698   2.562
 3608SOL    HW111276   3.042   0.780   2.548
 3608SOL    HW211277   2.946   0.712   2.644
 3609SOL     OW11278   3.621   0.622   2.090
 3609SOL    HW111279   3.604   0.611   1.996
 3609SOL    HW211280   3.606   0.535   2.128
 3610SOL     OW11281   2.618   1.142   2.904
 3610SOL    HW111282   2.549   1.177   2.960
 3610SOL    HW211283   2.653   1.219   2.859
 3611SOL     OW11284   2.730   0.774   3.685
 3611SOL    HW111285   2.716   0.845   3.747
 3611SOL    HW211286   2.753   0.818   3.603
 3612SOL     OW11287   2.548   1.002   2.508
 3612SOL    HW111288   2.613   0.991   2.578
 3612SOL    HW211289   2.479   1.054   2.549
 3613SOL     OW11290   2.573   1.150   3.674
 3613SOL    HW111291   2.620   1.229   3.702
 3613SOL    HW211292   2.490   1.184   3.639
 3614SOL     OW11293   2.193   1.422   2.931
 3614SOL    HW111294   2.118   1.388   2.882
 3614SOL    HW211295   2.242   1.473   2.866
 3615SOL     OW11296   3.322   1.500   3.217
 3615SOL    HW111297   3.374   1.580   3.226
 3615SOL    HW211298   3.261   1.502   3.290
 3616SOL     OW11299   2.305   0.395   3.356
 3616SOL    HW111300   2.394   0.360   3.354
 3616SOL    HW211301   2.249   0.319   3.364
 3617SOL     OW11302   3.473   0.450   2.598
 3617SOL    HW111303   3.402   0.483   2.543
 3617SOL    HW211304   3.498   0.525   2.652
 3618SOL     OW11305   2.099   1.700   2.332
 3618SOL    HW111306   2.132   1.767   2.391
 3618SOL    HW211307   2.168   1.690   2.266
 3619SOL     OW11308   2.998   1.342   3.555
 3619SOL    HW111309   3.039   1.337   3.641
 3619SOL    HW211310   2.946   1.262   3.549
 3620SOL     OW11311   2.089   1.435   2.398
 3620SOL    HW111312   2.079   1.530   2.396
 3620SOL    HW211313   2.027   1.405   2.464
 3621SOL     OW11314   2.120   1.090   2.753
 3621SOL    HW111315   2.117   1.003   2.793
 3621SOL    HW211316   2.063   1.144   2.807
 3622SOL     OW11317   2.473   1.792   3.291
 3622SOL    HW111318   2.391   1.774   3.338
 3622SOL    HW211319   2.497   1.880   3.318
 3623SOL     OW11320   2.447   0.982   1.997
 3623SOL    HW111321   2.493   1.031   1.928
 3623SOL    HW211322   2.487   1.013   2.078
 3624SOL     OW11323   3.442   0.138   3.319
 3624SOL    HW111324   3.466   0.212   3.263
 3624SOL    HW211325   3.412   0.179   3.400
 3625SOL     OW11326   1.977   0.655   2.421
 3625SOL    HW111327   1.951   0.566   2.445
 3625SOL    HW211328   1.970   0.704   2.503
 3626SOL     OW11329   3.701   1.758   2.198
 3626SOL    HW111330   3.769   1.733   2.261
 3626SOL    HW211331   3.721   1.848   2.176
 3627SOL     OW11332   1.864   1.599   2.013
 3627SOL    HW111333   1.858   1.504   2.002
 3627SOL    HW211334   1.878   1.612   2.107
 3628SOL     OW11335   3.549   0.917   2.504
 3628SOL    HW111336   3.634   0.876   2.489
 3628SOL    HW211337   3.532   0.968   2.425
 3629SOL     OW11338   3.504   1.106   2.293
 3629SOL    HW111339   3.589   1.113   2.249
 3629SOL    HW211340   3.510   1.168   2.366
 3630SOL     OW11341   1.985   0.748   3.444
 3630SOL    HW111342   2.076   0.776   3.451
 3630SOL    HW211343   1.934   0.829   3.452
 3631SOL     OW11344   2.476   1.385   2.596
 3631SOL    HW111345   2.430   1.302   2.605
 3631SOL    HW211346   2.459   1.412   2.506
 3632SOL     OW11347   3.150   1.238   3.285
 3632SOL    HW111348   3.183   1.172   3.225
 3632SOL    HW211349   3.208   1.232   3.361
 3633SOL     OW11350   2.680   0.003   2.378
 3633SOL    HW111351   2.725   0.084   2.354
 3633SOL    HW211352   2.587   0.027   2.379
 3634SOL     OW11353   2.052   0.965   3.134
 3634SOL    HW111354   2.137   0.924   3.119
 3634SOL    HW211355   1.990   0.912   3.085
 3635SOL     OW11356   3.391   0.994   2.061
 3635SOL    HW111357   3.322   0.937   2.094
 3635SOL    HW211358   3.433   1.029   2.140
 3636SOL     OW11359   3.046   1.807   3.484
 3636SOL    HW111360   3.058   1.865   3.409
 3636SOL    HW211361   3.063   1.719   3.449
 3637SOL     OW11362   2.216   0.255   3.689
 3637SOL    HW111363   2.260   0.340   3.689
 3637SOL    HW211364   2.123   0.275   3.698
 3638SOL     OW11365   3.328   1.420   2.813
 3638SOL    HW111366   3.260   1.435   2.879
 3638SOL    HW211367   3.316   1.329   2.787
 3639SOL     OW11368   3.517   1.741   2.441
 3639SOL    HW111369   3.501   1.710   2.352
 3639SOL    HW211370   3.496   1.667   2.497
 3640SOL     OW11371   2.457   0.721   2.128
 3640SOL    HW111372   2.463   0.803   2.079
 3640SOL    HW211373   2.393   0.739   2.197
 3641SOL     OW11374   3.138   0.365   2.802
 3641SOL    HW111375   3.050   0.326   2.809
 3641SOL    HW211376   3.195   0.304   2.848
 3642SOL     OW11377   3.440   1.670   2.171
 3642SOL    HW111378   3.530   1.701   2.166
 3642SOL    HW211379   3.415   1.653   2.080
 3643SOL     OW11380   2.658   0.616   3.315
 3643SOL    HW111381   2.629   0.592   3.403
 3643SOL    HW211382   2.617   0.551   3.258
 3644SOL     OW11383   3.254   0.476   3.539
 3644SOL    HW111384   3.259   0.521   3.624
 3644SOL    HW211385   3.313   0.402   3.549
 3645SOL     OW11386   2.816   0.888   3.445
 3645SOL    HW111387   2.871   0.818   3.409
 3645SOL    HW211388   2.768   0.922   3.369
 3646SOL     OW11389   2.854   0.403   3.102
 3646SOL    HW111390   2.770   0.427   3.143
 3646SOL    HW211391   2.829   0.373   3.015
 3647SOL     OW11392   2.913   0.699   2.288
 3647SOL    HW111393   2.928   0.692   2.382
 3647SOL    HW211394   2.831   0.652   2.273
 3648SOL     OW11395   1.950   0.822   2.638
 3648SOL    HW111396   2.030   0.814   2.689
 3648SOL    HW211397   1.907   0.900   2.674
 3649SOL     OW11398   2.756   0.351   2.061
 3649SOL    HW111399   2.797   0.410   1.998
 3649SOL    HW211400   2.752   0.266   2.017
 3650SOL     OW11401   3.572   0.575   3.691
 3650SOL    HW111402   3.534   0.649   3.645
 3650SOL    HW211403   3.596   0.513   3.622
 3651SOL     OW11404   3.238   1.141   2.403
 3651SOL    HW111405   3.318   1.129   2.351
 3651SOL    HW211406   3.186   1.204   2.352
 3652SOL     OW11407   2.418   0.198   2.744
 3652SOL    HW111408   2.422   0.216   2.837
 3652SOL    HW211409   2.415   0.284   2.702
 3653SOL     OW11410   2.867   1.444   2.334
 3653SOL    HW111411   2.830   1.516   2.284
 3653SOL    HW211412   2.849   1.466   2.425
 3654SOL     OW11413   2.218   1.798   2.726
 3654SOL    HW111414   2.255   1.711   2.737
 3654SOL    HW211415   2.288   1.857   2.754
 3655SOL     OW11416   3.666   1.062   2.728
 3655SOL    HW111417   3.611   1.039   2.653
 3655SOL    HW211418   3.605   1.065   2.802
 3656SOL     OW11419   3.089   1.539   3.375
 3656SOL    HW111420   3.076   1.466   3.436
 3656SOL    HW211421   3.027   1.523   3.304
 3657SOL     OW11422   2.182   0.959   2.112
 3657SOL    HW111423   2.264   0.977   2.067
 3657SOL    HW211424   2.152   0.876   2.075
 3658SOL     OW11425   3.340   0.743   2.591
 3658SOL    HW111426   3.333   0.701   2.677
 3658SOL    HW211427   3.417   0.799   2.599
 3659SOL     OW11428   2.329   1.264   3.600
 3659SOL    HW111429   2.301   1.268   3.508
 3659SOL    HW211430   2.247   1.261   3.649
 3660SOL     OW11431   2.984   1.778   2.092
 3660SOL    HW111432   2.911   1.736   2.138
 3660SOL    HW211433   3.007   1.716   2.023
 3661SOL     OW11434   2.035   0.276   3.360
 3661SOL    HW111435   1.975   0.350   3.354
 3661SOL    HW211436   2.043   0.259   3.454
 3662SOL     OW11437   3.488   1.382   1.949
 3662SOL    HW111438   3.446   1.466   1.934
 3662SOL    HW211439   3.420   1.317   1.930
 3663SOL     OW11440   2.337   1.716   2.197
 3663SOL    HW111441   2.377   1.790   2.243
 3663SOL    HW211442   2.394   1.702   2.121
 3664SOL     OW11443   3.297   0.165   2.264
 3664SOL    HW111444   3.255   0.093   2.217
 3664SOL    HW211445   3.373   0.125   2.306
 3665SOL     OW11446   2.154   1.766   3.086
 3665SOL    HW111447   2.193   1.685   3.117
 3665SOL    HW211448   2.115   1.743   3.001
 3666SOL     OW11449   2.799   1.698   2.761
 3666SOL    HW111450   2.877   1.648   2.782
 3666SOL    HW211451   2.756   1.649   2.692
 3667SOL     OW11452   2.255   0.695   2.337
 3667SOL    HW111453   2.275   0.603   2.349
 3667SOL    HW211454   2.161   0.702   2.356
 3668SOL     OW11455   3.393   0.231   3.589
 3668SOL    HW111456   3.389   0.256   3.681
 3668SOL    HW211457   3.367   0.139   3.588
 3669SOL     OW11458   2.504   0.134   1.969
 3669SOL    HW111459   2.534   0.052   2.009
 3669SOL    HW211460   2.441   0.106   1.902
 3670SOL     OW11461   2.639   0.281   3.627
 3670SOL    HW111462   2.705   0.213   3.632
 3670SOL    HW211463   2.578   0.262   3.699
 3671SOL     OW11464   2.738   1.522   3.056
 3671SOL    HW111465   2.723   1.486   2.969
 3671SOL    HW211466   2.808   1.467   3.092
 3672SOL     OW11467   3.204   0.587   3.292
 3672SOL    HW111468   3.233   0.559   3.379
 3672SOL    HW211469   3.237   0.676   3.283
 3673SOL     OW11470   2.677   1.395   2.802
 3673SOL    HW111471   2.762   1.383   2.758
 3673SOL    HW211472   2.613   1.396   2.730
 3674SOL     OW11473   2.791   0.511   2.764
 3674SOL    HW111474   2.767   0.503   2.671
 3674SOL    HW211475   2.819   0.423   2.789
 3675SOL     OW11476   2.408   0.057   2.354
 3675SOL    HW111477   2.333   0.062   2.414
 3675SOL    HW211478   2.403   0.138   2.303
 3676SOL     OW11479   3.289   1.199   1.903
 3676SOL    HW111480   3.320   1.123   1.953
 3676SOL    HW211481   3.204   1.220   1.941
 3677SOL     OW11482   2.189   0.043   2.071
 3677SOL    HW111483   2.202   0.111   2.006
 3677SOL    HW211484   2.273   0.037   2.117
 3678SOL     OW11485   2.802   0.248   2.324
 3678SOL    HW111486   2.776   0.289   2.241
 3678SOL    HW211487   2.897   0.251   2.324
 3679SOL     OW11488   2.942   0.682   3.321
 3679SOL    HW111489   2.871   0.618   3.328
 3679SOL    HW211490   3.021   0.629   3.316
 3680SOL     OW11491   3.084   1.571   2.656
 3680SOL    HW111492   3.101   1.637   2.589
 3680SOL    HW211493   3.154   1.584   2.721
 3681SOL     OW11494   2.331   1.149   2.595
 3681SOL    HW111495   2.262   1.130   2.659
 3681SOL    HW211496   2.291   1.134   2.510
 3682SOL     OW11497   3.131   1.794   2.470
 3682SOL    HW111498   3.178   1.855   2.413
 3682SOL    HW211499   3.064   1.847   2.513
 3683SOL     OW11500   2.885   0.545   1.887
 3683SOL    HW111501   2.841   0.628   1.868
 3683SOL    HW211502   2.948   0.567   1.956
 3684SOL     OW11503   1.941   0.552   3.257
 3684SOL    HW111504   2.033   0.552   3.228
 3684SOL    HW211505   1.935   0.625   3.319
 3685SOL     OW11506   2.427   0.232   3.023
 3685SOL    HW111507   2.452   0.140   3.034
 3685SOL    HW211508   2.337   0.236   3.055
 3686SOL     OW11509   2.732   0.461   2.501
 3686SOL    HW111510   2.684   0.515   2.438
 3686SOL    HW211511   2.752   0.380   2.453
 3687SOL     OW11512   2.857   0.041   2.641
 3687SOL    HW111513   2.822   0.067   2.556
 3687SOL    HW211514   2.867   3.946   2.635
 3688SOL     OW11515   3.300   1.162   2.720
 3688SOL    HW111516   3.230   1.097   2.718
 3688SOL    HW211517   3.325   1.174   2.628
 3689SOL     OW11518   3.327   0.606   2.839
 3689SOL    HW111519   3.276   0.525   2.844
 3689SOL    HW211520   3.388   0.600   2.913
 3690SOL     OW11521   3.722   0.824   2.237
 3690SOL    HW111522   3.764   0.766   2.301
 3690SOL    HW211523   3.683   0.764   2.173
 3691SOL     OW11524   2.354   1.418   2.018
 3691SOL    HW111525   2.279   1.391   2.071
 3691SOL    HW211526   2.338   1.378   1.932
 3692SOL     OW11527   3.528   1.265   2.508
 3692SOL    HW111528   3.623   1.269   2.517
 3692SOL    HW211529   3.498   1.353   2.528
 3693SOL     OW11530   3.256   0.574   1.932
 3693SOL    HW111531   3.193   0.555   2.001
 3693SOL    HW211532   3.342   0.556   1.971
 3694SOL     OW11533   2.389   0.266   2.179
 3694SOL    HW111534   2.441   0.226   2.110
 3694SOL    HW211535   2.362   0.351   2.143
 3695SOL     OW11536   3.614   1.234   3.432
 3695SOL    HW111537   3.701   1.199   3.415
 3695SOL    HW211538   3.630   1.323   3.463
 3696SOL     OW11539   2.920   1.354   3.196
 3696SOL    HW111540   2.845   1.322   3.247
 3696SOL    HW211541   2.996   1.312   3.237
 3697SOL     OW11542   3.467   1.627   3.516
 3697SOL    HW111543   3.461   1.661   3.427
 3697SOL    HW211544   3.549   1.577   3.517
 3698SOL     OW11545   2.991   1.204   2.967
 3698SOL    HW111546   2.932   1.242   3.032
 3698SOL    HW211547   2.959   1.236   2.883
 3699SOL     OW11548   3.492   1.097   2.938
 3699SOL    HW111549   3.485   1.159   3.011
 3699SOL    HW211550   3.414   1.113   2.885
 3700SOL     OW11551   2.775   0.113   3.264
 3700SOL    HW111552   2.795   0.087   3.174
 3700SOL    HW211553   2.855   0.155   3.295
 3701SOL     OW11554   2.846   1.115   3.585
 3701SOL    HW111555   2.754   1.131   3.607
 3701SOL    HW211556   2.844   1.037   3.529
 3702SOL     OW11557   2.571   1.062   2.233
 3702SOL    HW111558   2.557   1.045   2.326
 3702SOL    HW211559   2.646   1.008   2.210
 3703SOL     OW11560   2.281   0.815   3.113
 3703SOL    HW111561   2.350   0.823   3.180
 3703SOL    HW211562   2.246   0.727   3.126
 3704SOL     OW11563   3.129   0.375   3.137
 3704SOL    HW111564   3.163   0.453   3.182
 3704SOL    HW211565   3.042   0.401   3.107
 3705SOL     OW11566   1.933   1.578   3.215
 3705SOL    HW111567   1.898   1.641   3.153
 3705SOL    HW211568   2.028   1.581   3.201
 3706SOL     OW11569   2.211   1.109   2.353
 3706SOL    HW111570   2.216   1.184   2.293
 3706SOL    HW211571   2.208   1.032   2.296
 3707SOL     OW11572   2.418   0.535   2.720
 3707SOL    HW111573   2.432   0.594   2.646
 3707SOL    HW211574   2.481   0.562   2.786
 3708SOL     OW11575   3.110   1.348   2.251
 3708SOL    HW111576   3.166   1.420   2.282
 3708SOL    HW211577   3.023   1.369   2.285
 3709SOL     OW11578   3.143   1.458   3.009
 3709SOL    HW111579   3.199   1.461   3.087
 3709SOL    HW211580   3.088   1.381   3.022
 3710SOL     OW11581   3.436   0.631   2.345
 3710SOL    HW111582   3.396   0.690   2.410
 3710SOL    HW211583   3.485   0.690   2.287
 3711SOL     OW11584   2.214   1.516   3.179
 3711SOL    HW111585   2.200   1.474   3.095
 3711SOL    HW211586   2.309   1.527   3.185
 3712SOL     OW11587   2.277   0.744   3.463
 3712SOL    HW111588   2.338   0.790   3.405
 3712SOL    HW211589   2.318   0.660   3.480
 3713SOL     OW11590   3.463   0.777   3.543
 3713SOL    HW111591   3.378   0.819   3.537
 3713SOL    HW211592   3.516   0.820   3.476
 3714SOL     OW11593   2.882   0.125   3.641
 3714SOL    HW111594   2.922   0.202   3.600
 3714SOL    HW211595   2.864   0.066   3.568
 3715SOL     OW11596   2.348   0.034   3.625
 3715SOL    HW111597   2.354   0.043   3.530
 3715SOL    HW211598   2.290   0.105   3.652
 3716SOL     OW11599   2.446   0.873   2.894
 3716SOL    HW111600   2.474   0.964   2.893
 3716SOL    HW211601   2.388   0.866   2.970
 3717SOL     OW11602   3.219   0.859   2.891
 3717SOL    HW111603   3.135   0.849   2.845
 3717SOL    HW211604   3.260   0.773   2.885
 3718SOL     OW11605   3.065   0.535   2.123
 3718SOL    HW111606   3.073   0.456   2.176
 3718SOL    HW211607   3.022   0.599   2.180
 3719SOL     OW11608   2.163   0.211   3.104
 3719SOL    HW111609   2.123   0.240   3.186
 3719SOL    HW211610   2.151   0.116   3.104
 3720SOL     OW11611   1.907   1.313   3.140
 3720SOL    HW111612   1.941   1.258   3.210
 3720SOL    HW211613   1.915   1.402   3.174
 3721SOL     OW11614   2.586   0.633   2.917
 3721SOL    HW111615   2.661   0.618   2.859
 3721SOL    HW211616   2.557   0.721   2.897
 3722SOL     OW11617   3.595   0.957   3.721
 3722SOL    HW111618   3.550   0.900   3.659
 3722SOL    HW211619   3.531   0.970   3.791
 3723SOL     OW11620   2.184   0.057   2.510
 3723SOL    HW111621   2.163   0.150   2.521
 3723SOL    HW211622   2.145   0.014   2.586
 3724SOL     OW11623   3.471   0.389   2.242
 3724SOL    HW111624   3.440   0.320   2.301
 3724SOL    HW211625   3.449   0.471   2.287
 3725SOL     OW11626   2.891   0.759   2.822
 3725SOL    HW111627   2.886   0.777   2.916
 3725SOL    HW211628   2.863   0.668   2.813
 3726SOL     OW11629   2.844   1.566   3.579
 3726SOL    HW111630   2.829   1.610   3.495
 3726SOL    HW211631   2.887   1.484   3.556
 3727SOL     OW11632   3.707   1.502   3.462
 3727SOL    HW111633   3.729   1.530   3.373
 3727SOL    HW211634   3.788   1.515   3.512
 3728SOL     OW11635   2.215   0.915   3.671
 3728SOL    HW111636   2.297   0.935   3.716
 3728SOL    HW211637   2.240   0.853   3.602
 3729SOL     OW11638   3.367   0.275   1.997
 3729SOL    HW111639   3.292   0.217   2.009
 3729SOL    HW211640   3.381   0.314   2.084
 3730SOL     OW11641   3.152   0.827   1.892
 3730SOL    HW111642   3.195   0.741   1.895
 3730SOL    HW211643   3.185   0.866   1.811
 3731SOL     OW11644   2.928   1.336   2.716
 3731SOL    HW111645   2.931   1.264   2.654
 3731SOL    HW211646   2.989   1.401   2.681
 3732SOL     OW11647   2.170   0.809   2.809
 3732SOL    HW111648   2.263   0.831   2.803
 3732SOL    HW211649   2.168   0.719   2.841
 3733SOL     OW11650   2.198   0.534   2.875
 3733SOL    HW111651   2.157   0.449   2.859
 3733SOL    HW211652   2.275   0.535   2.817
 3734SOL     OW11653   2.995   0.382   3.555
 3734SOL    HW111654   2.947   0.437   3.618
 3734SOL    HW211655   3.082   0.422   3.551
 3735SOL     OW11656   3.013   0.225   3.343
 3735SOL    HW111657   3.004   0.279   3.421
 3735SOL    HW211658   3.036   0.287   3.273
 3736SOL     OW11659   1.866   1.319   2.056
 3736SOL    HW111660   1.778   1.331   2.019
 3736SOL    HW211661   1.865   1.229   2.090
 3737SOL     OW11662   1.975   1.720   2.840
 3737SOL    HW111663   1.935   1.664   2.774
 3737SOL    HW211664   2.042   1.769   2.792
 3738SOL     OW11665   2.362   1.569   2.771
 3738SOL    HW111666   2.430   1.632   2.794
 3738SOL    HW211667   2.405   1.507   2.712
 3739SOL     OW11668   2.844   0.790   3.087
 3739SOL    HW111669   2.899   0.769   3.163
 3739SOL    HW211670   2.758   0.755   3.110
 3740SOL     OW11671   1.895   0.546   2.979
 3740SOL    HW111672   1.971   0.520   2.926
 3740SOL    HW211673   1.928   0.547   3.069
 3741SOL     OW11674   2.064   0.526   3.576
 3741SOL    HW111675   2.132   0.504   3.512
 3741SOL    HW211676   2.018   0.600   3.537
 3742SOL     OW11677   3.241   0.938   3.520
 3742SOL    HW111678   3.261   1.032   3.519
 3742SOL    HW211679   3.237   0.913   3.428
 3743SOL     OW11680   2.678   0.572   2.223
 3743SOL    HW111681   2.684   0.496   2.164
 3743SOL    HW211682   2.604   0.622   2.190
 3744SOL     OW11683   3.503   0.602   3.047
 3744SOL    HW111684   3.492   0.541   3.121
 3744SOL    HW211685   3.589   0.580   3.011
 3745SOL     OW11686   2.116   1.539   3.570
 3745SOL    HW111687   2.097   1.609   3.632
 3745SOL    HW211688   2.116   1.459   3.624
 3746SOL     OW11689   2.564   0.455   3.121
 3746SOL    HW111690   2.515   0.377   3.095
 3746SOL    HW211691   2.558   0.514   3.046
 3747SOL     OW11692   2.788   1.679   3.330
 3747SOL    HW111693   2.764   1.644   3.244
 3747SOL    HW211694   2.785   1.774   3.319
 3748SOL     OW11695   2.326   0.494   2.047
 3748SOL    HW111696   2.384   0.567   2.070
 3748SOL    HW211697   2.241   0.534   2.035
 3749SOL     OW11698   2.007   1.141   3.334
 3749SOL    HW111699   2.009   1.089   3.415
 3749SOL    HW211700   2.024   1.077   3.265
 3750SOL     OW11701   3.186   1.046   3.085
 3750SOL    HW111702   3.210   0.984   3.017
 3750SOL    HW211703   3.117   1.099   3.046
 3751SOL     OW11704   3.174   0.855   2.168
 3751SOL    HW111705   3.098   0.827   2.219
 3751SOL    HW211706   3.148   0.843   2.077
 3752SOL     OW11707   3.639   1.744   3.016
 3752SOL    HW111708   3.694   1.771   2.943
 3752SOL    HW211709   3.611   1.655   2.994
 3753SOL     OW11710   3.103   1.734   2.975
 3753SOL    HW111711   3.185   1.755   2.930
 3753SOL    HW211712   3.109   1.640   2.993
 3754SOL     OW11713   1.948   1.264   2.876
 3754SOL    HW111714   1.932   1.279   2.970
 3754SOL    HW211715   1.873   1.212   2.847
 3755SOL     OW11716   2.541   1.664   3.590
 3755SOL    HW111717   2.492   1.746   3.589
 3755SOL    HW211718   2.608   1.675   3.522
 3756SOL     OW11719   3.553   0.122   2.349
 3756SOL    HW111720   3.635   0.135   2.301
 3756SOL    HW211721   3.554   0.029   2.371
 3757SOL     OW11722   3.252   1.567   2.347
 3757SOL    HW111723   3.312   1.600   2.281
 3757SOL    HW211724   3.204   1.645   2.376
 3758SOL     OW11725   2.032   1.744   3.720
 3758SOL    HW111726   1.968   1.692   3.770
 3758SOL    HW211727   2.010   1.835   3.740
 3759SOL     OW11728   3.139   0.926   2.533
 3759SOL    HW111729   3.213   0.866   2.541
 3759SOL    HW211730   3.173   0.999   2.481
 3760SOL     OW11731   2.676   1.273   3.291
 3760SOL    HW111732   2.647   1.312   3.374
 3760SOL    HW211733   2.606   1.294   3.229
 3761SOL     OW11734   2.535   1.620   2.013
 3761SOL    HW111735   2.545   1.629   1.918
 3761SOL    HW211736   2.480   1.543   2.024
 3762SOL     OW11737   3.485   1.727   3.253
 3762SOL    HW111738   3.539   1.732   3.174
 3762SOL    HW211739   3.473   1.818   3.280
 3763SOL     OW11740   3.702   0.180   2.832
 3763SOL    HW111741   3.727   0.097   2.793
 3763SOL    HW211742   3.616   0.199   2.796
 3764SOL     OW11743   2.127   0.317   2.577
 3764SOL    HW111744   2.040   0.352   2.556
 3764SOL    HW211745   2.125   0.307   2.672
 3765SOL     OW11746   3.069   1.606   1.893
 3765SOL    HW111747   3.060   1.514   1.921
 3765SOL    HW211748   3.004   1.617   1.825
 3766SOL     OW11749   2.686   1.006   3.234
 3766SOL    HW111750   2.728   1.002   3.148
 3766SOL    HW211751   2.685   1.098   3.257
 3767SOL     OW11752   2.778   0.910   2.152
 3767SOL    HW111753   2.839   0.943   2.086
 3767SOL    HW211754   2.825   0.841   2.197
 3768SOL     OW11755   3.353   1.626   1.904
 3768SOL    HW111756   3.258   1.619   1.890
 3768SOL    HW211757   3.390   1.632   1.816
 3769SOL     OW11758   2.232   1.298   3.354
 3769SOL    HW111759   2.219   1.377   3.301
 3769SOL    HW211760   2.154   1.245   3.338
 3770SOL     OW11761   3.465   1.280   3.141
 3770SOL    HW111762   3.533   1.273   3.208
 3770SOL    HW211763   3.408   1.350   3.171
 3771SOL     OW11764   2.915   1.108   2.569
 3771SOL    HW111765   2.843   1.056   2.608
 3771SOL    HW211766   2.977   1.042   2.538
 3772SOL     OW11767   2.877   0.248   2.830
 3772SOL    HW111768   2.866   0.198   2.749
 3772SOL    HW211769   2.871   0.182   2.900
 3773SOL     OW11770   2.464   1.490   2.343
 3773SOL    HW111771   2.506   1.440   2.273
 3773SOL    HW211772   2.402   1.547   2.299
 3774SOL     OW11773   3.582   0.392   3.235
 3774SOL    HW111774   3.653   0.456   3.234
 3774SOL    HW211775   3.613   0.320   3.181
 3775SOL     OW11776   2.121   1.346   2.149
 3775SOL    HW111777   2.027   1.342   2.128
 3775SOL    HW211778   2.124   1.380   2.238
 3776SOL     OW11779   1.975   1.023   3.582
 3776SOL    HW111780   1.898   0.999   3.635
 3776SOL    HW211781   2.049   0.985   3.629
 3777SOL     OW11782   2.554   0.247   3.361
 3777SOL    HW111783   2.622   0.194   3.320
 3777SOL    HW211784   2.581   0.255   3.452
 3778SOL     OW11785   1.960   0.318   1.852
 3778SOL    HW111786   1.888   0.337   1.912
 3778SOL    HW211787   1.972   0.400   1.804
 3779SOL     OW11788   3.289   0.857   3.261
 3779SOL    HW111789   3.240   0.919   3.207
 3779SOL    HW211790   3.378   0.860   3.226
 3780SOL     OW11791   1.944   0.154   2.202
 3780SOL    HW111792   1.913   0.215   2.136
 3780SOL    HW211793   2.029   0.124   2.171
 3781SOL     OW11794   3.041   1.339   1.979
 3781SOL    HW111795   2.950   1.309   1.982
 3781SOL    HW211796   3.069   1.340   2.071
 3782SOL     OW11797   2.482   0.829   3.295
 3782SOL    HW111798   2.538   0.905   3.280
 3782SOL    HW211799   2.543   0.756   3.304
 3783SOL     OW11800   3.345   1.778   2.841
 3783SOL    HW111801   3.369   1.838   2.769
 3783SOL    HW211802   3.428   1.755   2.881
 3784SOL     OW11803   2.580   0.562   3.567
 3784SOL    HW111804   2.620   0.626   3.627
 3784SOL    HW211805   2.609   0.477   3.600
 3785SOL     OW11806   3.333   1.200   3.494
 3785SOL    HW111807   3.322   1.214   3.588
 3785SOL    HW211808   3.427   1.215   3.478
 3786SOL     OW11809   2.239   1.745   3.431
 3786SOL    HW111810   2.162   1.765   3.378
 3786SOL    HW211811   2.219   1.661   3.472
 3787SOL     OW11812   3.528   0.881   3.121
 3787SOL    HW111813   3.526   0.796   3.077
 3787SOL    HW211814   3.522   0.945   3.050
 3788SOL     OW11815   3.084   0.335   2.307
 3788SOL    HW111816   3.152   0.268   2.298
 3788SOL    HW211817   3.106   0.380   2.389
 3789SOL     OW11818   2.453   0.738   2.531
 3789SOL    HW111819   2.491   0.824   2.516
 3789SOL    HW211820   2.384   0.730   2.465
 3790SOL     OW11821   3.618   0.380   3.504
 3790SOL    HW111822   3.597   0.388   3.411
 3790SOL    HW211823   3.558   0.313   3.536
 3791SOL     OW11824   3.614   0.931   3.376
 3791SOL    HW111825   3.607   1.025   3.392
 3791SOL    HW211826   3.592   0.921   3.283
 3792SOL     OW11827   2.723   1.367   1.896
 3792SOL    HW111828   2.686   1.393   1.980
 3792SOL    HW211829   2.742   1.450   1.851
 3793SOL     OW11830   2.522   1.794   2.807
 3793SOL    HW111831   2.506   1.884   2.778
 3793SOL    HW211832   2.617   1.783   2.798
 3794SOL     OW11833   2.729   0.967   2.717
 3794SOL    HW111834   2.780   0.896   2.756
 3794SOL    HW211835   2.694   1.016   2.792
 3795SOL     OW11836   2.941   0.989   1.951
 3795SOL    HW111837   2.919   1.040   1.873
 3795SOL    HW211838   3.016   0.935   1.924
 3796SOL     OW11839   3.716   1.557   2.704
 3796SOL    HW111840   3.638   1.540   2.652
 3796SOL    HW211841   3.714   1.490   2.772
 3797SOL     OW11842   2.088   1.302   3.718
 3797SOL    HW111843   2.020   1.240   3.691
 3797SOL    HW211844   2.073   1.314   3.812
 3798SOL     OW11845   1.943   1.226   2.526
 3798SOL    HW111846   1.953   1.181   2.609
 3798SOL    HW211847   2.016   1.194   2.472
 3799SOL     OW11848   2.542   1.403   3.488
 3799SOL    HW111849   2.463   1.359   3.521
 3799SOL    HW211850   2.538   1.490   3.527
 3800SOL     OW11851   3.677   0.182   3.106
 3800SOL    HW111852   3.679   0.087   3.114
 3800SOL    HW211853   3.694   0.198   3.013
 3801SOL     OW11854   2.290   0.434   2.387
 3801SOL    HW111855   2.323   0.362   2.333
 3801SOL    HW211856   2.244   0.391   2.458
 3802SOL     OW11857   3.560   1.491   2.960
 3802SOL    HW111858   3.481   1.467   2.912
 3802SOL    HW211859   3.573   1.420   3.023
 3803SOL     OW11860   2.191   0.555   3.155
 3803SOL    HW111861   2.245   0.497   3.209
 3803SOL    HW211862   2.211   0.529   3.065
 3804SOL     OW11863   2.689   1.578   2.540
 3804SOL    HW111864   2.678   1.633   2.463
 3804SOL    HW211865   2.613   1.520   2.540
 3805SOL     OW11866   3.323   0.252   2.973
 3805SOL    HW111867   3.337   0.164   3.008
 3805SOL    HW211868   3.266   0.295   3.037
 3806SOL     OW11869   2.867   0.029   3.009
 3806SOL    HW111870   2.789   3.983   2.977
 3806SOL    HW211871   2.933   3.960   3.017
 3807SOL     OW11872   2.635   1.332   2.175
 3807SOL    HW111873   2.603   1.243   2.183
 3807SOL    HW211874   2.716   1.334   2.227
 3808SOL     OW11875   2.483   1.556   3.147
 3808SOL    HW111876   2.485   1.638   3.196
 3808SOL    HW211877   2.570   1.548   3.110
 3809SOL     OW11878   3.176   0.072   2.022
 3809SOL    HW111879   3.187   3.996   1.964
 3809SOL    HW211880   3.091   0.058   2.063
 3810SOL     OW11881   3.145   0.457   2.548
 3810SOL    HW111882   3.098   0.540   2.544
 3810SOL    HW211883   3.149   0.436   2.642
 3811SOL     OW11884   3.452   0.210   2.729
 3811SOL    HW111885   3.403   0.233   2.808
 3811SOL    HW211886   3.451   0.290   2.676
 3812SOL     OW11887   1.906   1.071   2.167
 3812SOL    HW111888   2.000   1.063   2.151
 3812SOL    HW211889   1.878   0.983   2.191
 3813SOL     OW11890   2.748   1.652   2.202
 3813SOL    HW111891   2.673   1.637   2.144
 3813SOL    HW211892   2.721   1.727   2.256
 3814SOL     OW11893   2.091   0.620   3.845
 3814SOL    HW111894   2.001   0.627   3.877
 3814SOL    HW211895   2.083   0.600   3.752
 3815SOL     OW11896   2.079   0.299   4.715
 3815SOL    HW111897   2.116   0.256   4.792
 3815SOL    HW211898   1.995   0.254   4.702
 3816SOL     OW11899   1.871   0.395   4.359
 3816SOL    HW111900   1.784   0.411   4.395
 3816SOL    HW211901   1.859   0.324   4.296
 3817SOL     OW11902   2.429   1.287   4.899
 3817SOL    HW111903   2.342   1.291   4.860
 3817SOL    HW211904   2.445   1.376   4.931
 3818SOL     OW11905   3.423   1.512   4.431
 3818SOL    HW111906   3.380   1.492   4.514
 3818SOL    HW211907   3.351   1.517   4.368
 3819SOL     OW11908   2.994   0.698   4.424
 3819SOL    HW111909   3.042   0.780   4.410
 3819SOL    HW211910   2.946   0.712   4.506
 3820SOL     OW11911   3.621   0.622   3.952
 3820SOL    HW111912   3.604   0.611   3.858
 3820SOL    HW211913   3.606   0.535   3.990
 3821SOL     OW11914   2.618   1.142   4.766
 3821SOL    HW111915   2.549   1.177   4.822
 3821SOL    HW211916   2.653   1.219   4.721
 3822SOL     OW11917   2.730   0.774   5.547
 3822SOL    HW111918   2.716   0.845   5.609
 3822SOL    HW211919   2.753   0.818   5.465
 3823SOL     OW11920   2.548   1.002   4.370
 3823SOL    HW111921   2.613   0.991   4.440
 3823SOL    HW211922   2.479   1.054   4.410
 3824SOL     OW11923   2.572   1.150   5.536
 3824SOL    HW111924   2.620   1.228   5.562
 3824SOL    HW211925   2.489   1.183   5.501
 3825SOL     OW11926   2.193   1.422   4.793
 3825SOL    HW111927   2.118   1.388   4.744
 3825SOL    HW211928   2.242   1.474   4.729
 3826SOL     OW11929   3.322   1.500   5.079
 3826SOL    HW111930   3.374   1.580   5.088
 3826SOL    HW211931   3.261   1.502   5.152
 3827SOL     OW11932   2.305   0.396   5.218
 3827SOL    HW111933   2.394   0.360   5.216
 3827SOL    HW211934   2.249   0.319   5.226
 3828SOL     OW11935   3.473   0.450   4.460
 3828SOL    HW111936   3.402   0.483   4.405
 3828SOL    HW211937   3.498   0.525   4.514
 3829SOL     OW11938   2.095   1.699   4.188
 3829SOL    HW111939   2.126   1.766   4.248
 3829SOL    HW211940   2.165   1.689   4.124
 3830SOL     OW11941   2.998   1.342   5.417
 3830SOL    HW111942   3.039   1.337   5.503
 3830SOL    HW211943   2.946   1.262   5.410
 3831SOL     OW11944   2.090   1.435   4.260
 3831SOL    HW111945   2.078   1.530   4.256
 3831SOL    HW211946   2.027   1.406   4.326
 3832SOL     OW11947   2.120   1.090   4.615
 3832SOL    HW111948   2.116   1.003   4.655
 3832SOL    HW211949   2.063   1.144   4.669
 3833SOL     OW11950   2.473   1.791   5.154
 3833SOL    HW111951   2.391   1.774   5.200
 3833SOL    HW211952   2.497   1.880   5.180
 3834SOL     OW11953   2.447   0.982   3.859
 3834SOL    HW111954   2.493   1.031   3.790
 3834SOL    HW211955   2.487   1.013   3.940
 3835SOL     OW11956   3.442   0.138   5.181
 3835SOL    HW111957   3.466   0.212   5.125
 3835SOL    HW211958   3.412   0.179   5.262
 3836SOL     OW11959   1.977   0.655   4.283
 3836SOL    HW111960   1.951   0.566   4.307
 3836SOL    HW211961   1.970   0.704   4.365
 3837SOL     OW11962   3.701   1.758   4.060
 3837SOL    HW111963   3.769   1.733   4.123
 3837SOL    HW211964   3.721   1.848   4.038
 3838SOL     OW11965   1.866   1.600   3.874
 3838SOL    HW111966   1.858   1.506   3.863
 3838SOL    HW211967   1.880   1.613   3.968
 3839SOL     OW11968   3.549   0.917   4.366
 3839SOL    HW111969   3.634   0.876   4.351
 3839SOL    HW211970   3.532   0.968   4.287
 3840SOL     OW11971   3.504   1.106   4.155
 3840SOL    HW111972   3.589   1.113   4.111
 3840SOL    HW211973   3.510   1.168   4.228
 3841SOL     OW11974   1.984   0.748   5.306
 3841SOL    HW111975   2.075   0.776   5.313
 3841SOL    HW211976   1.933   0.829   5.313
 3842SOL     OW11977   2.476   1.386   4.458
 3842SOL    HW111978   2.430   1.302   4.468
 3842SOL    HW211979   2.458   1.413   4.368
 3843SOL     OW11980   3.150   1.238   5.147
 3843SOL    HW111981   3.183   1.172   5.087
 3843SOL    HW211982   3.208   1.232   5.223
 3844SOL     OW11983   2.680   0.003   4.240
 3844SOL    HW111984   2.725   0.084   4.216
 3844SOL    HW211985   2.587   0.027   4.241
 3845SOL     OW11986   2.052   0.965   4.997
 3845SOL    HW111987   2.137   0.924   4.981
 3845SOL    HW211988   1.990   0.912   4.947
 3846SOL     OW11989   3.391   0.994   3.923
 3846SOL    HW111990   3.322   0.937   3.957
 3846SOL    HW211991   3.433   1.029   4.002
 3847SOL     OW11992   3.046   1.807   5.346
 3847SOL    HW111993   3.059   1.865   5.271
 3847SOL    HW211994   3.063   1.719   5.311
 3848SOL     OW11995   2.216   0.255   5.551
 3848SOL    HW111996   2.259   0.340   5.551
 3848SOL    HW211997   2.123   0.275   5.560
 3849SOL     OW11998   3.328   1.420   4.675
 3849SOL    HW111999   3.260   1.435   4.741
 3849SOL    HW212000   3.316   1.329   4.649
 3850SOL     OW12001   3.517   1.741   4.303
 3850SOL    HW112002   3.501   1.710   4.214
 3850SOL    HW212003   3.496   1.667   4.359
 3851SOL     OW12004   2.457   0.721   3.990
 3851SOL    HW112005   2.463   0.803   3.941
 3851SOL    HW212006   2.393   0.739   4.059
 3852SOL     OW12007   3.138   0.365   4.664
 3852SOL    HW112008   3.050   0.326   4.671
 3852SOL    HW212009   3.195   0.304   4.710
 3853SOL     OW12010   3.440   1.670   4.033
 3853SOL    HW112011   3.530   1.701   4.028
 3853SOL    HW212012   3.415   1.653   3.942
 3854SOL     OW12013   2.658   0.616   5.177
 3854SOL    HW112014   2.629   0.592   5.265
 3854SOL    HW212015   2.617   0.551   5.120
 3855SOL     OW12016   3.254   0.476   5.401
 3855SOL    HW112017   3.259   0.521   5.486
 3855SOL    HW212018   3.313   0.402   5.411
 3856SOL     OW12019   2.816   0.888   5.307
 3856SOL    HW112020   2.871   0.818   5.271
 3856SOL    HW212021   2.768   0.922   5.231
 3857SOL     OW12022   2.854   0.403   4.964
 3857SOL    HW112023   2.770   0.427   5.005
 3857SOL    HW212024   2.829   0.373   4.877
 3858SOL     OW12025   2.913   0.699   4.150
 3858SOL    HW112026   2.928   0.692   4.244
 3858SOL    HW212027   2.831   0.652   4.135
 3859SOL     OW12028   1.950   0.822   4.500
 3859SOL    HW112029   2.030   0.814   4.551
 3859SOL    HW212030   1.907   0.900   4.536
 3860SOL     OW12031   2.756   0.351   3.923
 3860SOL    HW112032   2.797   0.410   3.860
 3860SOL    HW212033   2.752   0.266   3.879
 3861SOL     OW12034   3.572   0.575   5.553
 3861SOL    HW112035   3.534   0.649   5.507
 3861SOL    HW212036   3.596   0.513   5.484
 3862SOL     OW12037   3.238   1.141   4.265
 3862SOL    HW112038   3.318   1.129   4.213
 3862SOL    HW212039   3.186   1.204   4.214
 3863SOL     OW12040   2.418   0.198   4.606
 3863SOL    HW112041   2.422   0.216   4.699
 3863SOL    HW212042   2.415   0.284   4.564
 3864SOL     OW12043   2.867   1.444   4.196
 3864SOL    HW112044   2.830   1.516   4.146
 3864SOL    HW212045   2.849   1.466   4.287
 3865SOL     OW12046   2.219   1.802   4.588
 3865SOL    HW112047   2.255   1.714   4.600
 3865SOL    HW212048   2.290   1.860   4.616
 3866SOL     OW12049   3.666   1.062   4.591
 3866SOL    HW112050   3.611   1.039   4.515
 3866SOL    HW212051   3.605   1.065   4.664
 3867SOL     OW12052   3.089   1.539   5.238
 3867SOL    HW112053   3.076   1.466   5.298
 3867SOL    HW212054   3.027   1.523   5.166
 3868SOL     OW12055   2.182   0.959   3.974
 3868SOL    HW112056   2.264   0.977   3.929
 3868SOL    HW212057   2.152   0.876   3.936
 3869SOL     OW12058   3.340   0.743   4.453
 3869SOL    HW112059   3.333   0.701   4.539
 3869SOL    HW212060   3.417   0.799   4.460
 3870SOL     OW12061   2.328   1.265   5.463
 3870SOL    HW112062   2.301   1.269   5.372
 3870SOL    HW212063   2.246   1.261   5.513
 3871SOL     OW12064   2.984   1.778   3.954
 3871SOL    HW112065   2.911   1.736   4.000
 3871SOL    HW212066   3.007   1.716   3.885
 3872SOL     OW12067   2.035   0.276   5.222
 3872SOL    HW112068   1.975   0.350   5.216
 3872SOL    HW212069   2.043   0.259   5.316
 3873SOL     OW12070   3.488   1.382   3.811
 3873SOL    HW112071   3.446   1.466   3.796
 3873SOL    HW212072   3.420   1.317   3.792
 3874SOL     OW12073   2.338   1.716   4.059
 3874SOL    HW112074   2.376   1.790   4.106
 3874SOL    HW212075   2.394   1.702   3.983
 3875SOL     OW12076   3.297   0.165   4.126
 3875SOL    HW112077   3.254   0.093   4.079
 3875SOL    HW212078   3.373   0.125   4.168
 3876SOL     OW12079   2.156   1.768   4.947
 3876SOL    HW112080   2.194   1.686   4.979
 3876SOL    HW212081   2.115   1.744   4.864
 3877SOL     OW12082   2.799   1.698   4.623
 3877SOL    HW112083   2.877   1.648   4.644
 3877SOL    HW212084   2.756   1.648   4.553
 3878SOL     OW12085   2.255   0.695   4.199
 3878SOL    HW112086   2.275   0.603   4.211
 3878SOL    HW212087   2.161   0.702   4.218
 3879SOL     OW12088   3.393   0.231   5.451
 3879SOL    HW112089   3.389   0.256   5.543
 3879SOL    HW212090   3.367   0.139   5.450
 3880SOL     OW12091   2.504   0.134   3.831
 3880SOL    HW112092   2.534   0.052   3.871
 3880SOL    HW212093   2.441   0.106   3.764
 3881SOL     OW12094   2.639   0.281   5.489
 3881SOL    HW112095   2.705   0.213   5.494
 3881SOL    HW212096   2.578   0.261   5.561
 3882SOL     OW12097   2.738   1.522   4.918
 3882SOL    HW112098   2.723   1.486   4.831
 3882SOL    HW212099   2.808   1.467   4.954
 3883SOL     OW12100   3.204   0.587   5.154
 3883SOL    HW112101   3.233   0.559   5.241
 3883SOL    HW212102   3.237   0.676   5.145
 3884SOL     OW12103   2.677   1.395   4.664
 3884SOL    HW112104   2.761   1.383   4.620
 3884SOL    HW212105   2.613   1.396   4.592
 3885SOL     OW12106   2.791   0.511   4.626
 3885SOL    HW112107   2.767   0.503   4.533
 3885SOL    HW212108   2.819   0.423   4.651
 3886SOL     OW12109   2.408   0.057   4.216
 3886SOL    HW112110   2.333   0.062   4.276
 3886SOL    HW212111   2.403   0.138   4.165
 3887SOL     OW12112   3.289   1.199   3.765
 3887SOL    HW112113   3.320   1.123   3.815
 3887SOL    HW212114   3.204   1.220   3.803
 3888SOL     OW12115   2.189   0.043   3.933
 3888SOL    HW112116   2.202   0.111   3.868
 3888SOL    HW212117   2.273   0.037   3.979
 3889SOL     OW12118   2.802   0.248   4.186
 3889SOL    HW112119   2.776   0.289   4.103
 3889SOL    HW212120   2.897   0.251   4.186
 3890SOL     OW12121   2.942   0.682   5.183
 3890SOL    HW112122   2.871   0.618   5.190
 3890SOL    HW212123   3.021   0.629   5.178
 3891SOL     OW12124   3.084   1.571   4.518
 3891SOL    HW112125   3.101   1.637   4.451
 3891SOL    HW212126   3.154   1.584   4.583
 3892SOL     OW12127   2.331   1.149   4.457
 3892SOL    HW112128   2.262   1.130   4.521
 3892SOL    HW212129   2.291   1.134   4.372
 3893SOL     OW12130   3.131   1.794   4.332
 3893SOL    HW112131   3.178   1.855   4.275
 3893SOL    HW212132   3.064   1.847   4.375
 3894SOL     OW12133   2.885   0.545   3.749
 3894SOL    HW112134   2.841   0.628   3.730
 3894SOL    HW212135   2.948   0.567   3.818
 3895SOL     OW12136   1.941   0.552   5.119
 3895SOL    HW112137   2.033   0.552   5.090
 3895SOL    HW212138   1.935   0.624   5.181
 3896SOL     OW12139   2.427   0.232   4.885
 3896SOL    HW112140   2.452   0.140   4.896
 3896SOL    HW212141   2.337   0.236   4.917
 3897SOL     OW12142   2.732   0.461   4.363
 3897SOL    HW112143   2.684   0.515   4.300
 3897SOL    HW212144   2.752   0.380   4.315
 3898SOL     OW12145   2.857   0.041   4.503
 3898SOL    HW112146   2.823   0.067   4.418
 3898SOL    HW212147   2.867   3.946   4.497
 3899SOL     OW12148   3.300   1.162   4.582
 3899SOL    HW112149   3.230   1.097   4.579
 3899SOL    HW212150   3.325   1.174   4.490
 3900SOL     OW12151   3.327   0.606   4.701
 3900SOL    HW112152   3.276   0.525   4.706
 3900SOL    HW212153   3.388   0.600   4.775
 3901SOL     OW12154   3.722   0.824   4.099
 3901SOL    HW112155   3.764   0.766   4.163
 3901SOL    HW212156   3.683   0.764   4.035
 3902SOL     OW12157   2.354   1.418   3.880
 3902SOL    HW112158   2.280   1.391   3.933
 3902SOL    HW212159   2.338   1.378   3.794
 3903SOL     OW12160   3.528   1.265   4.370
 3903SOL    HW112161   3.623   1.269   4.379
 3903SOL    HW212162   3.498   1.353   4.390
 3904SOL     OW12163   3.256   0.574   3.794
 3904SOL    HW112164   3.193   0.555   3.863
 3904SOL    HW212165   3.342   0.556   3.833
 3905SOL     OW12166   2.389   0.266   4.041
 3905SOL    HW112167   2.441   0.226   3.972
 3905SOL    HW212168   2.362   0.351   4.005
 3906SOL     OW12169   3.614   1.234   5.294
 3906SOL    HW112170   3.701   1.199   5.277
 3906SOL    HW212171   3.630   1.324   5.325
 3907SOL     OW12172   2.920   1.354   5.058
 3907SOL    HW112173   2.845   1.322   5.109
 3907SOL    HW212174   2.996   1.312   5.099
 3908SOL     OW12175   3.467   1.627   5.378
 3908SOL    HW112176   3.461   1.661   5.289
 3908SOL    HW212177   3.549   1.577   5.379
 3909SOL     OW12178   2.991   1.204   4.829
 3909SOL    HW112179   2.932   1.242   4.894
 3909SOL    HW212180   2.959   1.236   4.745
 3910SOL     OW12181   3.492   1.097   4.800
 3910SOL    HW112182   3.485   1.159   4.873
 3910SOL    HW212183   3.414   1.113   4.747
 3911SOL     OW12184   2.775   0.113   5.126
 3911SOL    HW112185   2.795   0.087   5.036
 3911SOL    HW212186   2.855   0.155   5.157
 3912SOL     OW12187   2.847   1.114   5.447
 3912SOL    HW112188   2.755   1.131   5.468
 3912SOL    HW212189   2.844   1.037   5.391
 3913SOL     OW12190   2.570   1.062   4.095
 3913SOL    HW112191   2.557   1.045   4.188
 3913SOL    HW212192   2.646   1.008   4.072
 3914SOL     OW12193   2.281   0.815   4.975
 3914SOL    HW112194   2.350   0.823   5.042
 3914SOL    HW212195   2.246   0.727   4.988
 3915SOL     OW12196   3.129   0.375   4.999
 3915SOL    HW112197   3.163   0.453   5.044
 3915SOL    HW212198   3.042   0.401   4.969
 3916SOL     OW12199   1.934   1.578   5.077
 3916SOL    HW112200   1.898   1.641   5.015
 3916SOL    HW212201   2.028   1.580   5.062
 3917SOL     OW12202   2.211   1.109   4.215
 3917SOL    HW112203   2.216   1.184   4.155
 3917SOL    HW212204   2.208   1.032   4.158
 3918SOL     OW12205   2.418   0.535   4.582
 3918SOL    HW112206   2.432   0.594   4.508
 3918SOL    HW212207   2.481   0.562   4.648
 3919SOL     OW12208   3.110   1.348   4.113
 3919SOL    HW112209   3.166   1.420   4.144
 3919SOL    HW212210   3.023   1.369   4.147
 3920SOL     OW12211   3.143   1.458   4.871
 3920SOL    HW112212   3.199   1.461   4.948
 3920SOL    HW212213   3.089   1.380   4.884
 3921SOL     OW12214   3.436   0.631   4.207
 3921SOL    HW112215   3.396   0.690   4.272
 3921SOL    HW212216   3.485   0.690   4.149
 3922SOL     OW12217   2.214   1.517   5.041
 3922SOL    HW112218   2.200   1.474   4.956
 3922SOL    HW212219   2.309   1.528   5.046
 3923SOL     OW12220   2.277   0.745   5.325
 3923SOL    HW112221   2.338   0.790   5.267
 3923SOL    HW212222   2.318   0.659   5.342
 3924SOL     OW12223   3.463   0.777   5.405
 3924SOL    HW112224   3.378   0.819   5.399
 3924SOL    HW212225   3.516   0.820   5.338
 3925SOL     OW12226   2.881   0.125   5.503
 3925SOL    HW112227   2.922   0.202   5.462
 3925SOL    HW212228   2.864   0.066   5.430
 3926SOL     OW12229   2.348   0.034   5.487
 3926SOL    HW112230   2.354   0.043   5.392
 3926SOL    HW212231   2.290   0.105   5.514
 3927SOL     OW12232   2.446   0.873   4.756
 3927SOL    HW112233   2.474   0.964   4.755
 3927SOL    HW212234   2.388   0.866   4.832
 3928SOL     OW12235   3.219   0.859   4.753
 3928SOL    HW112236   3.135   0.849   4.707
 3928SOL    HW212237   3.260   0.773   4.747
 3929SOL     OW12238   3.065   0.535   3.985
 3929SOL    HW112239   3.073   0.456   4.038
 3929SOL    HW212240   3.022   0.599   4.042
 3930SOL     OW12241   2.163   0.211   4.966
 3930SOL    HW112242   2.123   0.240   5.048
 3930SOL    HW212243   2.151   0.116   4.966
 3931SOL     OW12244   1.907   1.313   5.002
 3931SOL    HW112245   1.941   1.258   5.073
 3931SOL    HW212246   1.915   1.402   5.036
 3932SOL     OW12247   2.586   0.633   4.779
 3932SOL    HW112248   2.661   0.618   4.721
 3932SOL    HW212249   2.557   0.721   4.759
 3933SOL     OW12250   3.595   0.957   5.583
 3933SOL    HW112251   3.550   0.900   5.521
 3933SOL    HW212252   3.531   0.970   5.653
 3934SOL     OW12253   2.184   0.057   4.372
 3934SOL    HW112254   2.163   0.150   4.383
 3934SOL    HW212255   2.145   0.014   4.448
 3935SOL     OW12256   3.471   0.389   4.104
 3935SOL    HW112257   3.440   0.320   4.163
 3935SOL    HW212258   3.449   0.471   4.149
 3936SOL     OW12259   2.891   0.759   4.684
 3936SOL    HW112260   2.886   0.777   4.778
 3936SOL    HW212261   2.863   0.668   4.675
 3937SOL     OW12262   2.844   1.568   5.441
 3937SOL    HW112263   2.830   1.611   5.357
 3937SOL    HW212264   2.887   1.485   5.419
 3938SOL     OW12265   3.707   1.502   5.324
 3938SOL    HW112266   3.729   1.530   5.235
 3938SOL    HW212267   3.787   1.515   5.374
 3939SOL     OW12268   2.215   0.915   5.532
 3939SOL    HW112269   2.297   0.935   5.578
 3939SOL    HW212270   2.240   0.853   5.464
 3940SOL     OW12271   3.367   0.275   3.859
 3940SOL    HW112272   3.292   0.217   3.871
 3940SOL    HW212273   3.381   0.314   3.946
 3941SOL     OW12274   3.152   0.827   3.754
 3941SOL    HW112275   3.195   0.741   3.757
 3941SOL    HW212276   3.185   0.866   3.673
 3942SOL     OW12277   2.928   1.336   4.578
 3942SOL    HW112278   2.931   1.264   4.516
 3942SOL    HW212279   2.989   1.401   4.543
 3943SOL     OW12280   2.170   0.809   4.671
 3943SOL    HW112281   2.263   0.831   4.664
 3943SOL    HW212282   2.168   0.719   4.703
 3944SOL     OW12283   2.199   0.534   4.737
 3944SOL    HW112284   2.157   0.449   4.721
 3944SOL    HW212285   2.275   0.535   4.679
 3945SOL     OW12286   2.995   0.382   5.417
 3945SOL    HW112287   2.947   0.437   5.480
 3945SOL    HW212288   3.082   0.422   5.413
 3946SOL     OW12289   3.013   0.225   5.205
 3946SOL    HW112290   3.004   0.279   5.283
 3946SOL    HW212291   3.036   0.287   5.135
 3947SOL     OW12292   1.866   1.319   3.918
 3947SOL    HW112293   1.779   1.332   3.881
 3947SOL    HW212294   1.865   1.230   3.952
 3948SOL     OW12295   1.978   1.720   4.708
 3948SOL    HW112296   1.937   1.665   4.642
 3948SOL    HW212297   2.040   1.775   4.658
 3949SOL     OW12298   2.361   1.570   4.633
 3949SOL    HW112299   2.430   1.633   4.656
 3949SOL    HW212300   2.404   1.508   4.574
 3950SOL     OW12301   2.844   0.790   4.949
 3950SOL    HW112302   2.899   0.769   5.025
 3950SOL    HW212303   2.758   0.755   4.972
 3951SOL     OW12304   1.895   0.546   4.841
 3951SOL    HW112305   1.971   0.520   4.788
 3951SOL    HW212306   1.928   0.547   4.931
 3952SOL     OW12307   2.064   0.526   5.438
 3952SOL    HW112308   2.132   0.504   5.374
 3952SOL    HW212309   2.018   0.600   5.399
 3953SOL     OW12310   3.241   0.938   5.382
 3953SOL    HW112311   3.261   1.032   5.381
 3953SOL    HW212312   3.237   0.913   5.290
 3954SOL     OW12313   2.678   0.572   4.085
 3954SOL    HW112314   2.684   0.496   4.026
 3954SOL    HW212315   2.604   0.622   4.052
 3955SOL     OW12316   3.503   0.602   4.909
 3955SOL    HW112317   3.492   0.541   4.983
 3955SOL    HW212318   3.589   0.580   4.873
 3956SOL     OW12319   2.116   1.536   5.432
 3956SOL    HW112320   2.098   1.607   5.493
 3956SOL    HW212321   2.117   1.457   5.486
 3957SOL     OW12322   2.564   0.455   4.983
 3957SOL    HW112323   2.515   0.377   4.957
 3957SOL    HW212324   2.558   0.514   4.908
 3958SOL     OW12325   2.787   1.679   5.192
 3958SOL    HW112326   2.764   1.644   5.106
 3958SOL    HW212327   2.785   1.774   5.181
 3959SOL     OW12328   2.326   0.494   3.909
 3959SOL    HW112329   2.384   0.567   3.932
 3959SOL    HW212330   2.241   0.534   3.897
 3960SOL     OW12331   2.007   1.141   5.196
 3960SOL    HW112332   2.009   1.089   5.277
 3960SOL    HW212333   2.024   1.077   5.127
 3961SOL     OW12334   3.186   1.046   4.947
 3961SOL    HW112335   3.210   0.984   4.879
 3961SOL    HW212336   3.117   1.099   4.908
 3962SOL     OW12337   3.174   0.855   4.030
 3962SOL    HW112338   3.098   0.827   4.081
 3962SOL    HW212339   3.148   0.843   3.939
 3963SOL     OW12340   3.639   1.744   4.878
 3963SOL    HW112341   3.694   1.771   4.805
 3963SOL    HW212342   3.611   1.655   4.856
 3964SOL     OW12343   3.103   1.734   4.837
 3964SOL    HW112344   3.185   1.755   4.792
 3964SOL    HW212345   3.109   1.640   4.855
 3965SOL     OW12346   1.948   1.264   4.738
 3965SOL    HW112347   1.932   1.279   4.831
 3965SOL    HW212348   1.873   1.212   4.709
 3966SOL     OW12349   2.542   1.664   5.451
 3966SOL    HW112350   2.492   1.746   5.450
 3966SOL    HW212351   2.608   1.675   5.384
 3967SOL     OW12352   3.553   0.122   4.211
 3967SOL    HW112353   3.635   0.135   4.163
 3967SOL    HW212354   3.554   0.029   4.233
 3968SOL     OW12355   3.252   1.567   4.209
 3968SOL    HW112356   3.312   1.600   4.143
 3968SOL    HW212357   3.204   1.645   4.238
 3969SOL     OW12358   2.038   1.741   5.582
 3969SOL    HW112359   1.974   1.693   5.634
 3969SOL    HW212360   2.013   1.833   5.592
 3970SOL     OW12361   3.139   0.926   4.395
 3970SOL    HW112362   3.213   0.866   4.403
 3970SOL    HW212363   3.173   0.999   4.343
 3971SOL     OW12364   2.676   1.273   5.153
 3971SOL    HW112365   2.647   1.312   5.236
 3971SOL    HW212366   2.606   1.294   5.091
 3972SOL     OW12367   2.536   1.620   3.875
 3972SOL    HW112368   2.545   1.629   3.780
 3972SOL    HW212369   2.480   1.543   3.886
 3973SOL     OW12370   3.485   1.727   5.115
 3973SOL    HW112371   3.539   1.732   5.036
 3973SOL    HW212372   3.472   1.818   5.142
 3974SOL     OW12373   3.702   0.180   4.694
 3974SOL    HW112374   3.727   0.097   4.656
 3974SOL    HW212375   3.616   0.199   4.658
 3975SOL     OW12376   2.127   0.317   4.439
 3975SOL    HW112377   2.040   0.352   4.418
 3975SOL    HW212378   2.125   0.307   4.534
 3976SOL     OW12379   3.069   1.606   3.755
 3976SOL    HW112380   3.059   1.514   3.783
 3976SOL    HW212381   3.004   1.617   3.687
 3977SOL     OW12382   2.686   1.005   5.096
 3977SOL    HW112383   2.728   1.002   5.010
 3977SOL    HW212384   2.685   1.098   5.119
 3978SOL     OW12385   2.778   0.910   4.014
 3978SOL    HW112386   2.839   0.943   3.948
 3978SOL    HW212387   2.825   0.841   4.059
 3979SOL     OW12388   3.353   1.626   3.766
 3979SOL    HW112389   3.258   1.619   3.752
 3979SOL    HW212390   3.390   1.632   3.678
 3980SOL     OW12391   2.232   1.298   5.217
 3980SOL    HW112392   2.220   1.377   5.163
 3980SOL    HW212393   2.154   1.245   5.200
 3981SOL     OW12394   3.465   1.280   5.003
 3981SOL    HW112395   3.533   1.274   5.070
 3981SOL    HW212396   3.408   1.350   5.033
 3982SOL     OW12397   2.915   1.108   4.431
 3982SOL    HW112398   2.843   1.056   4.470
 3982SOL    HW212399   2.977   1.042   4.400
 3983SOL     OW12400   2.877   0.248   4.692
 3983SOL    HW112401   2.866   0.198   4.611
 3983SOL    HW212402   2.871   0.182   4.762
 3984SOL     OW12403   2.464   1.490   4.205
 3984SOL    HW112404   2.506   1.440   4.135
 3984SOL    HW212405   2.402   1.547   4.161
 3985SOL     OW12406   3.582   0.392   5.097
 3985SOL    HW112407   3.653   0.456   5.096
 3985SOL    HW212408   3.613   0.320   5.043
 3986SOL     OW12409   2.121   1.346   4.011
 3986SOL    HW112410   2.027   1.342   3.990
 3986SOL    HW212411   2.124   1.380   4.100
 3987SOL     OW12412   1.975   1.025   5.445
 3987SOL    HW112413   1.898   1.000   5.497
 3987SOL    HW212414   2.049   0.985   5.491
 3988SOL     OW12415   2.554   0.247   5.223
 3988SOL    HW112416   2.622   0.194   5.182
 3988SOL    HW212417   2.581   0.255   5.314
 3989SOL     OW12418   1.960   0.318   3.714
 3989SOL    HW112419   1.888   0.337   3.774
 3989SOL    HW212420   1.972   0.400   3.666
 3990SOL     OW12421   3.289   0.857   5.123
 3990SOL    HW112422   3.240   0.919   5.069
 3990SOL    HW212423   3.378   0.860   5.088
 3991SOL     OW12424   1.944   0.154   4.064
 3991SOL    HW112425   1.913   0.215   3.998
 3991SOL    HW212426   2.029   0.124   4.033
 3992SOL     OW12427   3.041   1.339   3.841
 3992SOL    HW112428   2.950   1.309   3.844
 3992SOL    HW212429   3.069   1.340   3.933
 3993SOL     OW12430   2.482   0.829   5.158
 3993SOL    HW112431   2.538   0.905   5.142
 3993SOL    HW212432   2.543   0.756   5.166
 3994SOL     OW12433   3.345   1.778   4.703
 3994SOL    HW112434   3.369   1.838   4.631
 3994SOL    HW212435   3.428   1.755   4.743
 3995SOL     OW12436   2.580   0.562   5.429
 3995SOL    HW112437   2.620   0.625   5.489
 3995SOL    HW212438   2.609   0.477   5.462
 3996SOL     OW12439   3.333   1.200   5.356
 3996SOL    HW112440   3.322   1.214   5.450
 3996SOL    HW212441   3.427   1.215   5.340
 3997SOL     OW12442   2.239   1.744   5.293
 3997SOL    HW112443   2.162   1.762   5.238
 3997SOL    HW212444   2.219   1.660   5.333
 3998SOL     OW12445   3.528   0.881   4.983
 3998SOL    HW112446   3.526   0.796   4.939
 3998SOL    HW212447   3.522   0.945   4.912
 3999SOL     OW12448   3.084   0.335   4.169
 3999SOL    HW112449   3.152   0.268   4.160
 3999SOL    HW212450   3.106   0.380   4.251
 4000SOL     OW12451   2.453   0.738   4.393
 4000SOL    HW112452   2.491   0.824   4.378
 4000SOL    HW212453   2.384   0.730   4.327
 4001SOL     OW12454   3.618   0.380   5.366
 4001SOL    HW112455   3.597   0.388   5.273
 4001SOL    HW212456   3.558   0.313   5.398
 4002SOL     OW12457   3.614   0.931   5.238
 4002SOL    HW112458   3.607   1.025   5.254
 4002SOL    HW212459   3.592   0.921   5.145
 4003SOL     OW12460   2.723   1.367   3.758
 4003SOL    HW112461   2.686   1.393   3.842
 4003SOL    HW212462   2.742   1.450   3.713
 4004SOL     OW12463   2.522   1.795   4.669
 4004SOL    HW112464   2.507   1.885   4.640
 4004SOL    HW212465   2.617   1.783   4.660
 4005SOL     OW12466   2.729   0.967   4.579
 4005SOL    HW112467   2.780   0.896   4.618
 4005SOL    HW212468   2.694   1.016   4.654
 4006SOL     OW12469   2.941   0.989   3.813
 4006SOL    HW112470   2.919   1.040   3.735
 4006SOL    HW212471   3.016   0.935   3.786
 4007SOL     OW12472   3.716   1.557   4.566
 4007SOL    HW112473   3.638   1.540   4.514
 4007SOL    HW212474   3.715   1.490   4.634
 4008SOL     OW12475   2.085   1.300   5.582
 4008SOL    HW112476   2.023   1.236   5.546
 4008SOL    HW212477   2.057   1.313   5.673
 4009SOL     OW12478   1.943   1.227   4.388
 4009SOL    HW112479   1.953   1.182   4.471
 4009SOL    HW212480   2.016   1.195   4.334
 4010SOL     OW12481   2.541   1.403   5.349
 4010SOL    HW112482   2.463   1.359   5.382
 4010SOL    HW212483   2.538   1.490   5.388
 4011SOL     OW12484   3.677   0.182   4.968
 4011SOL    HW112485   3.679   0.087   4.976
 4011SOL    HW212486   3.694   0.198   4.875
 4012SOL     OW12487   2.290   0.434   4.249
 4012SOL    HW112488   2.323   0.362   4.195
 4012SOL    HW212489   2.244   0.391   4.320
 4013SOL     OW12490   3.560   1.491   4.822
 4013SOL    HW112491   3.481   1.467   4.774
 4013SOL    HW212492   3.573   1.420   4.885
 4014SOL     OW12493   2.191   0.555   5.017
 4014SOL    HW112494   2.245   0.497   5.071
 4014SOL    HW212495   2.211   0.529   4.927
 4015SOL     OW12496   2.689   1.578   4.402
 4015SOL    HW112497   2.678   1.633   4.325
 4015SOL    HW212498   2.613   1.520   4.402
 4016SOL     OW12499   3.323   0.252   4.835
 4016SOL    HW112500   3.337   0.164   4.870
 4016SOL    HW212501   3.266   0.295   4.899
 4017SOL     OW12502   2.867   0.029   4.871
 4017SOL    HW112503   2.790   3.983   4.839
 4017SOL    HW212504   2.934   3.960   4.879
 4018SOL     OW12505   2.635   1.332   4.037
 4018SOL    HW112506   2.603   1.242   4.045
 4018SOL    HW212507   2.716   1.334   4.089
 4019SOL     OW12508   2.483   1.556   5.009
 4019SOL    HW112509   2.485   1.638   5.058
 4019SOL    HW212510   2.570   1.548   4.972
 4020SOL     OW12511   3.176   0.072   3.884
 4020SOL    HW112512   3.187   3.996   3.826
 4020SOL    HW212513   3.091   0.058   3.925
 4021SOL     OW12514   3.145   0.457   4.410
 4021SOL    HW112515   3.098   0.540   4.406
 4021SOL    HW212516   3.149   0.436   4.504
 4022SOL     OW12517   3.452   0.210   4.591
 4022SOL    HW112518   3.403   0.233   4.670
 4022SOL    HW212519   3.451   0.290   4.538
 4023SOL     OW12520   1.906   1.071   4.029
 4023SOL    HW112521   2.000   1.063   4.013
 4023SOL    HW212522   1.878   0.983   4.053
 4024SOL     OW12523   2.748   1.652   4.064
 4024SOL    HW112524   2.673   1.637   4.006
 4024SOL    HW212525   2.721   1.726   4.118
 4025SOL     OW12526   2.091   0.621   5.707
 4025SOL    HW112527   2.001   0.627   5.739
 4025SOL    HW212528   2.083   0.600   5.614
 4026SOL     OW12529   2.079   0.299   6.577
 4026SOL    HW112530   2.116   0.256   6.654
 4026SOL    HW212531   1.995   0.255   6.563
 4027SOL     OW12532   1.871   0.395   6.221
 4027SOL    HW112533   1.784   0.411   6.258
 4027SOL    HW212534   1.858   0.325   6.158
 4028SOL     OW12535   2.433   1.283   6.759
 4028SOL    HW112536   2.341   1.270   6.737
 4028SOL    HW212537   2.436   1.372   6.795
 4029SOL     OW12538   3.423   1.512   6.293
 4029SOL    HW112539   3.380   1.492   6.376
 4029SOL    HW212540   3.351   1.517   6.230
 4030SOL     OW12541   2.994   0.698   6.286
 4030SOL    HW112542   3.042   0.780   6.272
 4030SOL    HW212543   2.946   0.712   6.368
 4031SOL     OW12544   3.621   0.622   5.814
 4031SOL    HW112545   3.604   0.611   5.720
 4031SOL    HW212546   3.607   0.535   5.851
 4032SOL     OW12547   2.622   1.142   6.625
 4032SOL    HW112548   2.553   1.177   6.682
 4032SOL    HW212549   2.657   1.218   6.579
 4033SOL     OW12550   2.730   0.774   7.409
 4033SOL    HW112551   2.716   0.846   7.470
 4033SOL    HW212552   2.753   0.818   7.326
 4034SOL     OW12553   2.549   1.001   6.232
 4034SOL    HW112554   2.614   0.990   6.301
 4034SOL    HW212555   2.479   1.053   6.272
 4035SOL     OW12556   2.594   1.141   7.404
 4035SOL    HW112557   2.632   1.225   7.427
 4035SOL    HW212558   2.513   1.163   7.358
 4036SOL     OW12559   3.322   1.500   6.941
 4036SOL    HW112560   3.374   1.580   6.949
 4036SOL    HW212561   3.262   1.502   7.015
 4037SOL     OW12562   2.305   0.396   7.081
 4037SOL    HW112563   2.394   0.360   7.079
 4037SOL    HW212564   2.248   0.319   7.088
 4038SOL     OW12565   3.473   0.450   6.322
 4038SOL    HW112566   3.402   0.483   6.267
 4038SOL    HW212567   3.498   0.525   6.376
 4039SOL     OW12568   2.095   1.706   6.034
 4039SOL    HW112569   2.114   1.787   6.082
 4039SOL    HW212570   2.175   1.689   5.984
 4040SOL     OW12571   2.997   1.345   7.279
 4040SOL    HW112572   3.040   1.339   7.365
 4040SOL    HW212573   2.946   1.264   7.272
 4041SOL     OW12574   2.122   1.089   6.475
 4041SOL    HW112575   2.119   1.000   6.512
 4041SOL    HW212576   2.063   1.140   6.530
 4042SOL     OW12577   2.447   0.982   5.721
 4042SOL    HW112578   2.493   1.030   5.652
 4042SOL    HW212579   2.487   1.012   5.802
 4043SOL     OW12580   3.442   0.138   7.043
 4043SOL    HW112581   3.466   0.212   6.986
 4043SOL    HW212582   3.412   0.179   7.124
 4044SOL     OW12583   1.977   0.655   6.145
 4044SOL    HW112584   1.950   0.566   6.169
 4044SOL    HW212585   1.969   0.705   6.226
 4045SOL     OW12586   3.701   1.757   5.922
 4045SOL    HW112587   3.769   1.733   5.985
 4045SOL    HW212588   3.721   1.848   5.900
 4046SOL     OW12589   1.870   1.599   5.734
 4046SOL    HW112590   1.861   1.505   5.722
 4046SOL    HW212591   1.861   1.612   5.829
 4047SOL     OW12592   3.549   0.917   6.228
 4047SOL    HW112593   3.634   0.876   6.213
 4047SOL    HW212594   3.532   0.968   6.149
 4048SOL     OW12595   3.504   1.106   6.017
 4048SOL    HW112596   3.589   1.113   5.973
 4048SOL    HW212597   3.510   1.168   6.090
 4049SOL     OW12598   1.985   0.747   7.167
 4049SOL    HW112599   2.076   0.774   7.173
 4049SOL    HW212600   1.935   0.828   7.179
 4050SOL     OW12601   2.510   1.364   6.306
 4050SOL    HW112602   2.452   1.288   6.320
 4050SOL    HW212603   2.487   1.395   6.219
 4051SOL     OW12604   3.150   1.238   7.010
 4051SOL    HW112605   3.183   1.171   6.949
 4051SOL    HW212606   3.209   1.232   7.085
 4052SOL     OW12607   2.680   0.003   6.102
 4052SOL    HW112608   2.725   0.084   6.078
 4052SOL    HW212609   2.587   0.027   6.103
 4053SOL     OW12610   2.052   0.964   6.863
 4053SOL    HW112611   2.136   0.922   6.845
 4053SOL    HW212612   1.990   0.917   6.807
 4054SOL     OW12613   3.391   0.994   5.785
 4054SOL    HW112614   3.322   0.937   5.819
 4054SOL    HW212615   3.433   1.029   5.864
 4055SOL     OW12616   3.047   1.804   7.206
 4055SOL    HW112617   3.055   1.864   7.132
 4055SOL    HW212618   3.065   1.718   7.169
 4056SOL     OW12619   2.216   0.254   7.414
 4056SOL    HW112620   2.260   0.339   7.412
 4056SOL    HW212621   2.123   0.275   7.423
 4057SOL     OW12622   3.328   1.420   6.537
 4057SOL    HW112623   3.260   1.435   6.603
 4057SOL    HW212624   3.317   1.328   6.511
 4058SOL     OW12625   3.518   1.741   6.165
 4058SOL    HW112626   3.501   1.710   6.076
 4058SOL    HW212627   3.496   1.666   6.221
 4059SOL     OW12628   2.457   0.721   5.852
 4059SOL    HW112629   2.463   0.803   5.803
 4059SOL    HW212630   2.393   0.739   5.921
 4060SOL     OW12631   3.137   0.365   6.527
 4060SOL    HW112632   3.050   0.326   6.533
 4060SOL    HW212633   3.195   0.304   6.572
 4061SOL     OW12634   3.440   1.670   5.895
 4061SOL    HW112635   3.531   1.701   5.890
 4061SOL    HW212636   3.415   1.653   5.804
 4062SOL     OW12637   2.658   0.616   7.039
 4062SOL    HW112638   2.629   0.592   7.127
 4062SOL    HW212639   2.617   0.551   6.982
 4063SOL     OW12640   3.254   0.477   7.263
 4063SOL    HW112641   3.259   0.521   7.348
 4063SOL    HW212642   3.313   0.402   7.272
 4064SOL     OW12643   2.816   0.887   7.169
 4064SOL    HW112644   2.871   0.818   7.133
 4064SOL    HW212645   2.768   0.921   7.093
 4065SOL     OW12646   2.853   0.403   6.826
 4065SOL    HW112647   2.770   0.427   6.867
 4065SOL    HW212648   2.830   0.373   6.739
 4066SOL     OW12649   2.913   0.699   6.012
 4066SOL    HW112650   2.928   0.692   6.106
 4066SOL    HW212651   2.831   0.652   5.997
 4067SOL     OW12652   1.950   0.822   6.361
 4067SOL    HW112653   2.029   0.815   6.413
 4067SOL    HW212654   1.902   0.896   6.399
 4068SOL     OW12655   2.756   0.351   5.785
 4068SOL    HW112656   2.797   0.410   5.722
 4068SOL    HW212657   2.752   0.266   5.741
 4069SOL     OW12658   3.572   0.575   7.415
 4069SOL    HW112659   3.534   0.649   7.369
 4069SOL    HW212660   3.596   0.513   7.346
 4070SOL     OW12661   3.238   1.141   6.127
 4070SOL    HW112662   3.318   1.129   6.075
 4070SOL    HW212663   3.186   1.204   6.076
 4071SOL     OW12664   2.418   0.198   6.468
 4071SOL    HW112665   2.422   0.216   6.562
 4071SOL    HW212666   2.415   0.284   6.426
 4072SOL     OW12667   2.868   1.443   6.054
 4072SOL    HW112668   2.830   1.518   6.008
 4072SOL    HW212669   2.848   1.459   6.146
 4073SOL     OW12670   3.666   1.062   6.453
 4073SOL    HW112671   3.611   1.040   6.377
 4073SOL    HW212672   3.605   1.065   6.526
 4074SOL     OW12673   3.087   1.539   7.099
 4074SOL    HW112674   3.074   1.468   7.161
 4074SOL    HW212675   3.029   1.518   7.025
 4075SOL     OW12676   2.182   0.959   5.836
 4075SOL    HW112677   2.264   0.976   5.791
 4075SOL    HW212678   2.151   0.876   5.799
 4076SOL     OW12679   3.340   0.743   6.316
 4076SOL    HW112680   3.334   0.701   6.401
 4076SOL    HW212681   3.418   0.799   6.322
 4077SOL     OW12682   2.353   1.195   7.302
 4077SOL    HW112683   2.319   1.210   7.214
 4077SOL    HW212684   2.277   1.167   7.353
 4078SOL     OW12685   2.983   1.778   5.815
 4078SOL    HW112686   2.914   1.734   5.863
 4078SOL    HW212687   3.008   1.717   5.746
 4079SOL     OW12688   2.036   0.277   7.084
 4079SOL    HW112689   1.975   0.351   7.077
 4079SOL    HW212690   2.042   0.259   7.178
 4080SOL     OW12691   3.488   1.382   5.673
 4080SOL    HW112692   3.446   1.466   5.658
 4080SOL    HW212693   3.420   1.317   5.654
 4081SOL     OW12694   2.341   1.699   5.919
 4081SOL    HW112695   2.344   1.789   5.953
 4081SOL    HW212696   2.396   1.701   5.841
 4082SOL     OW12697   3.297   0.165   5.988
 4082SOL    HW112698   3.254   0.093   5.941
 4082SOL    HW212699   3.373   0.125   6.030
 4083SOL     OW12700   2.821   1.691   6.483
 4083SOL    HW112701   2.902   1.641   6.499
 4083SOL    HW212702   2.774   1.640   6.418
 4084SOL     OW12703   2.255   0.696   6.062
 4084SOL    HW112704   2.275   0.603   6.073
 4084SOL    HW212705   2.161   0.702   6.080
 4085SOL     OW12706   3.393   0.231   7.313
 4085SOL    HW112707   3.389   0.256   7.405
 4085SOL    HW212708   3.367   0.139   7.312
 4086SOL     OW12709   2.504   0.134   5.693
 4086SOL    HW112710   2.534   0.052   5.733
 4086SOL    HW212711   2.441   0.106   5.626
 4087SOL     OW12712   2.639   0.281   7.352
 4087SOL    HW112713   2.705   0.212   7.356
 4087SOL    HW212714   2.578   0.261   7.423
 4088SOL     OW12715   2.734   1.517   6.783
 4088SOL    HW112716   2.723   1.487   6.692
 4088SOL    HW212717   2.807   1.466   6.816
 4089SOL     OW12718   3.203   0.587   7.016
 4089SOL    HW112719   3.233   0.559   7.103
 4089SOL    HW212720   3.237   0.676   7.007
 4090SOL     OW12721   2.676   1.398   6.525
 4090SOL    HW112722   2.762   1.386   6.485
 4090SOL    HW212723   2.615   1.389   6.453
 4091SOL     OW12724   2.791   0.511   6.488
 4091SOL    HW112725   2.767   0.503   6.395
 4091SOL    HW212726   2.819   0.423   6.513
 4092SOL     OW12727   2.408   0.057   6.078
 4092SOL    HW112728   2.333   0.062   6.138
 4092SOL    HW212729   2.403   0.138   6.027
 4093SOL     OW12730   3.289   1.198   5.627
 4093SOL    HW112731   3.320   1.123   5.677
 4093SOL    HW212732   3.204   1.220   5.665
 4094SOL     OW12733   2.189   0.042   5.795
 4094SOL    HW112734   2.202   0.111   5.730
 4094SOL    HW212735   2.273   0.037   5.841
 4095SOL     OW12736   2.802   0.248   6.048
 4095SOL    HW112737   2.776   0.289   5.965
 4095SOL    HW212738   2.897   0.250   6.048
 4096SOL     OW12739   2.942   0.682   7.045
 4096SOL    HW112740   2.871   0.618   7.052
 4096SOL    HW212741   3.021   0.629   7.040
 4097SOL     OW12742   3.085   1.571   6.383
 4097SOL    HW112743   3.100   1.636   6.314
 4097SOL    HW212744   3.156   1.585   6.445
 4098SOL     OW12745   2.333   1.149   6.319
 4098SOL    HW112746   2.264   1.128   6.382
 4098SOL    HW212747   2.293   1.135   6.234
 4099SOL     OW12748   3.130   1.793   6.194
 4099SOL    HW112749   3.176   1.855   6.138
 4099SOL    HW212750   3.066   1.847   6.241
 4100SOL     OW12751   2.885   0.545   5.611
 4100SOL    HW112752   2.841   0.628   5.592
 4100SOL    HW212753   2.948   0.567   5.680
 4101SOL     OW12754   1.942   0.551   6.981
 4101SOL    HW112755   2.033   0.552   6.952
 4101SOL    HW212756   1.935   0.624   7.042
 4102SOL     OW12757   2.427   0.232   6.747
 4102SOL    HW112758   2.452   0.140   6.757
 4102SOL    HW212759   2.337   0.236   6.779
 4103SOL     OW12760   2.732   0.461   6.225
 4103SOL    HW112761   2.684   0.515   6.162
 4103SOL    HW212762   2.752   0.380   6.177
 4104SOL     OW12763   2.857   0.041   6.365
 4104SOL    HW112764   2.822   0.067   6.280
 4104SOL    HW212765   2.867   3.946   6.359
 4105SOL     OW12766   3.300   1.162   6.444
 4105SOL    HW112767   3.230   1.097   6.441
 4105SOL    HW212768   3.326   1.174   6.352
 4106SOL     OW12769   3.327   0.606   6.563
 4106SOL    HW112770   3.276   0.525   6.568
 4106SOL    HW212771   3.388   0.600   6.637
 4107SOL     OW12772   3.722   0.824   5.961
 4107SOL    HW112773   3.764   0.766   6.025
 4107SOL    HW212774   3.683   0.764   5.897
 4108SOL     OW12775   2.355   1.416   5.742
 4108SOL    HW112776   2.283   1.384   5.796
 4108SOL    HW212777   2.339   1.377   5.656
 4109SOL     OW12778   3.528   1.265   6.233
 4109SOL    HW112779   3.623   1.269   6.241
 4109SOL    HW212780   3.498   1.353   6.253
 4110SOL     OW12781   3.256   0.574   5.656
 4110SOL    HW112782   3.194   0.555   5.725
 4110SOL    HW212783   3.342   0.556   5.695
 4111SOL     OW12784   2.389   0.266   5.903
 4111SOL    HW112785   2.441   0.226   5.834
 4111SOL    HW212786   2.362   0.351   5.867
 4112SOL     OW12787   3.614   1.234   7.156
 4112SOL    HW112788   3.701   1.199   7.139
 4112SOL    HW212789   3.630   1.324   7.187
 4113SOL     OW12790   2.922   1.356   6.921
 4113SOL    HW112791   2.846   1.323   6.970
 4113SOL    HW212792   2.997   1.313   6.961
 4114SOL     OW12793   3.467   1.627   7.240
 4114SOL    HW112794   3.461   1.661   7.151
 4114SOL    HW212795   3.549   1.577   7.240
 4115SOL     OW12796   2.992   1.204   6.692
 4115SOL    HW112797   2.930   1.242   6.755
 4115SOL    HW212798   2.960   1.236   6.607
 4116SOL     OW12799   3.492   1.097   6.662
 4116SOL    HW112800   3.484   1.159   6.735
 4116SOL    HW212801   3.414   1.113   6.609
 4117SOL     OW12802   2.775   0.114   6.988
 4117SOL    HW112803   2.795   0.087   6.898
 4117SOL    HW212804   2.855   0.155   7.019
 4118SOL     OW12805   2.852   1.114   7.307
 4118SOL    HW112806   2.761   1.127   7.335
 4118SOL    HW212807   2.849   1.036   7.252
 4119SOL     OW12808   2.570   1.061   5.957
 4119SOL    HW112809   2.557   1.045   6.050
 4119SOL    HW212810   2.646   1.007   5.934
 4120SOL     OW12811   2.282   0.815   6.837
 4120SOL    HW112812   2.350   0.823   6.904
 4120SOL    HW212813   2.246   0.727   6.849
 4121SOL     OW12814   3.129   0.375   6.862
 4121SOL    HW112815   3.163   0.453   6.906
 4121SOL    HW212816   3.042   0.401   6.831
 4122SOL     OW12817   2.210   1.114   6.077
 4122SOL    HW112818   2.215   1.183   6.011
 4122SOL    HW212819   2.208   1.033   6.026
 4123SOL     OW12820   2.418   0.535   6.444
 4123SOL    HW112821   2.432   0.594   6.370
 4123SOL    HW212822   2.481   0.562   6.510
 4124SOL     OW12823   3.111   1.348   5.975
 4124SOL    HW112824   3.167   1.420   6.006
 4124SOL    HW212825   3.024   1.370   6.008
 4125SOL     OW12826   3.144   1.457   6.733
 4125SOL    HW112827   3.200   1.460   6.810
 4125SOL    HW212828   3.090   1.379   6.745
 4126SOL     OW12829   3.436   0.631   6.069
 4126SOL    HW112830   3.396   0.690   6.134
 4126SOL    HW212831   3.485   0.690   6.011
 4127SOL     OW12832   2.218   1.481   6.911
 4127SOL    HW112833   2.197   1.489   6.818
 4127SOL    HW212834   2.308   1.511   6.918
 4128SOL     OW12835   2.276   0.746   7.189
 4128SOL    HW112836   2.337   0.791   7.130
 4128SOL    HW212837   2.317   0.660   7.204
 4129SOL     OW12838   3.463   0.777   7.267
 4129SOL    HW112839   3.378   0.819   7.261
 4129SOL    HW212840   3.516   0.820   7.200
 4130SOL     OW12841   2.882   0.125   7.365
 4130SOL    HW112842   2.922   0.202   7.324
 4130SOL    HW212843   2.864   0.065   7.292
 4131SOL     OW12844   2.348   0.034   7.349
 4131SOL    HW112845   2.353   0.043   7.254
 4131SOL    HW212846   2.290   0.105   7.376
 4132SOL     OW12847   2.445   0.873   6.617
 4132SOL    HW112848   2.475   0.963   6.617
 4132SOL    HW212849   2.389   0.866   6.694
 4133SOL     OW12850   3.219   0.859   6.615
 4133SOL    HW112851   3.136   0.849   6.569
 4133SOL    HW212852   3.260   0.772   6.609
 4134SOL     OW12853   3.065   0.535   5.847
 4134SOL    HW112854   3.073   0.456   5.900
 4134SOL    HW212855   3.022   0.599   5.904
 4135SOL     OW12856   2.163   0.211   6.828
 4135SOL    HW112857   2.123   0.240   6.910
 4135SOL    HW212858   2.151   0.116   6.827
 4136SOL     OW12859   1.928   1.302   6.872
 4136SOL    HW112860   1.947   1.248   6.949
 4136SOL    HW212861   1.890   1.382   6.908
 4137SOL     OW12862   2.587   0.633   6.641
 4137SOL    HW112863   2.661   0.617   6.583
 4137SOL    HW212864   2.557   0.721   6.620
 4138SOL     OW12865   3.595   0.957   7.445
 4138SOL    HW112866   3.550   0.900   7.383
 4138SOL    HW212867   3.531   0.970   7.515
 4139SOL     OW12868   2.184   0.057   6.233
 4139SOL    HW112869   2.163   0.150   6.245
 4139SOL    HW212870   2.144   0.014   6.309
 4140SOL     OW12871   3.471   0.389   5.966
 4140SOL    HW112872   3.439   0.320   6.025
 4140SOL    HW212873   3.449   0.471   6.011
 4141SOL     OW12874   2.891   0.759   6.546
 4141SOL    HW112875   2.886   0.777   6.640
 4141SOL    HW212876   2.863   0.668   6.537
 4142SOL     OW12877   2.833   1.566   7.306
 4142SOL    HW112878   2.813   1.612   7.225
 4142SOL    HW212879   2.882   1.488   7.279
 4143SOL     OW12880   3.707   1.502   7.186
 4143SOL    HW112881   3.729   1.530   7.097
 4143SOL    HW212882   3.788   1.515   7.236
 4144SOL     OW12883   2.220   0.921   7.395
 4144SOL    HW112884   2.302   0.931   7.443
 4144SOL    HW212885   2.240   0.857   7.327
 4145SOL     OW12886   3.367   0.275   5.721
 4145SOL    HW112887   3.292   0.217   5.733
 4145SOL    HW212888   3.381   0.314   5.808
 4146SOL     OW12889   3.152   0.827   5.616
 4146SOL    HW112890   3.195   0.741   5.619
 4146SOL    HW212891   3.185   0.866   5.535
 4147SOL     OW12892   2.928   1.335   6.443
 4147SOL    HW112893   2.930   1.263   6.380
 4147SOL    HW212894   2.988   1.400   6.407
 4148SOL     OW12895   2.171   0.810   6.532
 4148SOL    HW112896   2.264   0.830   6.526
 4148SOL    HW212897   2.167   0.720   6.564
 4149SOL     OW12898   2.198   0.534   6.599
 4149SOL    HW112899   2.157   0.449   6.583
 4149SOL    HW212900   2.274   0.535   6.541
 4150SOL     OW12901   2.995   0.382   7.279
 4150SOL    HW112902   2.947   0.437   7.342
 4150SOL    HW212903   3.082   0.422   7.275
 4151SOL     OW12904   3.013   0.225   7.067
 4151SOL    HW112905   3.004   0.280   7.145
 4151SOL    HW212906   3.036   0.287   6.997
 4152SOL     OW12907   1.870   1.319   5.782
 4152SOL    HW112908   1.783   1.332   5.746
 4152SOL    HW212909   1.869   1.229   5.816
 4153SOL     OW12910   2.844   0.790   6.812
 4153SOL    HW112911   2.899   0.769   6.887
 4153SOL    HW212912   2.758   0.754   6.834
 4154SOL     OW12913   1.895   0.546   6.703
 4154SOL    HW112914   1.971   0.520   6.650
 4154SOL    HW212915   1.928   0.547   6.793
 4155SOL     OW12916   2.065   0.526   7.300
 4155SOL    HW112917   2.132   0.503   7.236
 4155SOL    HW212918   2.019   0.600   7.261
 4156SOL     OW12919   3.240   0.938   7.244
 4156SOL    HW112920   3.261   1.032   7.243
 4156SOL    HW212921   3.237   0.913   7.152
 4157SOL     OW12922   2.678   0.572   5.947
 4157SOL    HW112923   2.684   0.496   5.889
 4157SOL    HW212924   2.604   0.622   5.914
 4158SOL     OW12925   3.503   0.602   6.771
 4158SOL    HW112926   3.492   0.541   6.844
 4158SOL    HW212927   3.589   0.580   6.735
 4159SOL     OW12928   2.564   0.455   6.845
 4159SOL    HW112929   2.516   0.377   6.819
 4159SOL    HW212930   2.558   0.514   6.770
 4160SOL     OW12931   2.767   1.677   7.052
 4160SOL    HW112932   2.776   1.641   6.963
 4160SOL    HW212933   2.781   1.771   7.042
 4161SOL     OW12934   2.326   0.494   5.771
 4161SOL    HW112935   2.384   0.567   5.794
 4161SOL    HW212936   2.240   0.534   5.759
 4162SOL     OW12937   2.005   1.133   7.066
 4162SOL    HW112938   2.003   1.080   7.146
 4162SOL    HW212939   2.020   1.069   6.996
 4163SOL     OW12940   3.186   1.046   6.810
 4163SOL    HW112941   3.210   0.984   6.741
 4163SOL    HW212942   3.117   1.099   6.770
 4164SOL     OW12943   3.174   0.855   5.892
 4164SOL    HW112944   3.098   0.827   5.943
 4164SOL    HW212945   3.148   0.843   5.801
 4165SOL     OW12946   3.639   1.744   6.740
 4165SOL    HW112947   3.694   1.771   6.667
 4165SOL    HW212948   3.611   1.655   6.718
 4166SOL     OW12949   3.104   1.732   6.699
 4166SOL    HW112950   3.186   1.753   6.654
 4166SOL    HW212951   3.111   1.638   6.716
 4167SOL     OW12952   1.946   1.235   6.614
 4167SOL    HW112953   1.936   1.256   6.707
 4167SOL    HW212954   1.864   1.192   6.591
 4168SOL     OW12955   3.553   0.122   6.073
 4168SOL    HW112956   3.635   0.135   6.025
 4168SOL    HW212957   3.554   0.029   6.096
 4169SOL     OW12958   3.252   1.568   6.071
 4169SOL    HW112959   3.312   1.600   6.005
 4169SOL    HW212960   3.204   1.646   6.100
 4170SOL     OW12961   1.972   1.807   7.354
 4170SOL    HW112962   1.922   1.742   7.405
 4170SOL    HW212963   1.963   1.888   7.404
 4171SOL     OW12964   3.139   0.926   6.257
 4171SOL    HW112965   3.213   0.866   6.265
 4171SOL    HW212966   3.173   0.998   6.205
 4172SOL     OW12967   2.679   1.271   7.014
 4172SOL    HW112968   2.653   1.308   7.099
 4172SOL    HW212969   2.606   1.293   6.955
 4173SOL     OW12970   2.542   1.615   5.733
 4173SOL    HW112971   2.549   1.626   5.638
 4173SOL    HW212972   2.483   1.540   5.744
 4174SOL     OW12973   3.485   1.726   6.977
 4174SOL    HW112974   3.539   1.732   6.898
 4174SOL    HW212975   3.473   1.817   7.004
 4175SOL     OW12976   3.702   0.180   6.557
 4175SOL    HW112977   3.727   0.097   6.517
 4175SOL    HW212978   3.616   0.199   6.520
 4176SOL     OW12979   2.127   0.318   6.301
 4176SOL    HW112980   2.040   0.352   6.280
 4176SOL    HW212981   2.125   0.307   6.396
 4177SOL     OW12982   3.069   1.605   5.618
 4177SOL    HW112983   3.060   1.514   5.644
 4177SOL    HW212984   3.004   1.617   5.548
 4178SOL     OW12985   2.686   1.004   6.957
 4178SOL    HW112986   2.730   1.000   6.872
 4178SOL    HW212987   2.687   1.097   6.980
 4179SOL     OW12988   2.778   0.911   5.876
 4179SOL    HW112989   2.839   0.943   5.810
 4179SOL    HW212990   2.825   0.841   5.921
 4180SOL     OW12991   3.353   1.626   5.628
 4180SOL    HW112992   3.258   1.619   5.614
 4180SOL    HW212993   3.390   1.632   5.540
 4181SOL     OW12994   2.249   1.252   7.061
 4181SOL    HW112995   2.241   1.336   7.016
 4181SOL    HW212996   2.163   1.211   7.049
 4182SOL     OW12997   3.465   1.280   6.865
 4182SOL    HW112998   3.533   1.274   6.931
 4182SOL    HW212999   3.408   1.351   6.895
 4183SOL     OW13000   2.915   1.108   6.293
 4183SOL    HW113001   2.843   1.057   6.331
 4183SOL    HW213002   2.977   1.043   6.262
 4184SOL     OW13003   2.876   0.248   6.554
 4184SOL    HW113004   2.866   0.198   6.473
 4184SOL    HW213005   2.871   0.182   6.624
 4185SOL     OW13006   2.494   1.476   6.044
 4185SOL    HW113007   2.529   1.425   5.971
 4185SOL    HW213008   2.427   1.532   6.005
 4186SOL     OW13009   3.582   0.392   6.959
 4186SOL    HW113010   3.653   0.456   6.958
 4186SOL    HW213011   3.613   0.320   6.905
 4187SOL     OW13012   2.125   1.348   5.889
 4187SOL    HW113013   2.032   1.342   5.869
 4187SOL    HW213014   2.132   1.423   5.948
 4188SOL     OW13015   1.973   1.010   7.302
 4188SOL    HW113016   1.897   0.996   7.359
 4188SOL    HW213017   2.047   0.980   7.355
 4189SOL     OW13018   2.554   0.248   7.085
 4189SOL    HW113019   2.622   0.195   7.044
 4189SOL    HW213020   2.581   0.255   7.176
 4190SOL     OW13021   1.960   0.318   5.576
 4190SOL    HW113022   1.888   0.337   5.637
 4190SOL    HW213023   1.972   0.400   5.528
 4191SOL     OW13024   3.289   0.857   6.986
 4191SOL    HW113025   3.240   0.919   6.931
 4191SOL    HW213026   3.378   0.860   6.950
 4192SOL     OW13027   1.944   0.154   5.926
 4192SOL    HW113028   1.913   0.215   5.860
 4192SOL    HW213029   2.029   0.124   5.895
 4193SOL     OW13030   3.041   1.340   5.703
 4193SOL    HW113031   2.951   1.307   5.706
 4193SOL    HW213032   3.069   1.340   5.795
 4194SOL     OW13033   2.482   0.829   7.020
 4194SOL    HW113034   2.538   0.905   7.005
 4194SOL    HW213035   2.543   0.756   7.028
 4195SOL     OW13036   3.345   1.777   6.564
 4195SOL    HW113037   3.368   1.838   6.493
 4195SOL    HW213038   3.429   1.756   6.605
 4196SOL     OW13039   2.580   0.562   7.292
 4196SOL    HW113040   2.620   0.625   7.351
 4196SOL    HW213041   2.609   0.477   7.323
 4197SOL     OW13042   3.333   1.200   7.217
 4197SOL    HW113043   3.322   1.214   7.312
 4197SOL    HW213044   3.427   1.215   7.202
 4198SOL     OW13045   3.528   0.881   6.845
 4198SOL    HW113046   3.526   0.796   6.801
 4198SOL    HW213047   3.522   0.945   6.774
 4199SOL     OW13048   3.084   0.335   6.031
 4199SOL    HW113049   3.152   0.268   6.022
 4199SOL    HW213050   3.106   0.380   6.113
 4200SOL     OW13051   2.452   0.737   6.256
 4200SOL    HW113052   2.491   0.824   6.240
 4200SOL    HW213053   2.384   0.729   6.189
 4201SOL     OW13054   3.618   0.380   7.228
 4201SOL    HW113055   3.597   0.388   7.135
 4201SOL    HW213056   3.558   0.313   7.260
 4202SOL     OW13057   3.614   0.931   7.100
 4202SOL    HW113058   3.608   1.025   7.116
 4202SOL    HW213059   3.592   0.920   7.007
 4203SOL     OW13060   2.723   1.365   5.613
 4203SOL    HW113061   2.691   1.385   5.701
 4203SOL    HW213062   2.742   1.451   5.575
 4204SOL     OW13063   2.730   0.966   6.440
 4204SOL    HW113064   2.780   0.895   6.480
 4204SOL    HW213065   2.695   1.015   6.514
 4205SOL     OW13066   2.941   0.989   5.675
 4205SOL    HW113067   2.919   1.039   5.597
 4205SOL    HW213068   3.016   0.935   5.648
 4206SOL     OW13069   3.717   1.556   6.428
 4206SOL    HW113070   3.638   1.541   6.376
 4206SOL    HW213071   3.714   1.490   6.496
 4207SOL     OW13072   1.932   1.185   6.240
 4207SOL    HW113073   1.950   1.151   6.327
 4207SOL    HW213074   2.013   1.172   6.191
 4208SOL     OW13075   2.552   1.397   7.217
 4208SOL    HW113076   2.466   1.357   7.230
 4208SOL    HW213077   2.535   1.491   7.217
 4209SOL     OW13078   3.677   0.182   6.830
 4209SOL    HW113079   3.679   0.087   6.838
 4209SOL    HW213080   3.694   0.198   6.737
 4210SOL     OW13081   2.291   0.435   6.111
 4210SOL    HW113082   2.323   0.362   6.057
 4210SOL    HW213083   2.244   0.392   6.182
 4211SOL     OW13084   3.560   1.491   6.684
 4211SOL    HW113085   3.481   1.467   6.636
 4211SOL    HW213086   3.573   1.420   6.747
 4212SOL     OW13087   2.191   0.555   6.879
 4212SOL    HW113088   2.245   0.497   6.933
 4212SOL    HW213089   2.211   0.529   6.789
 4213SOL     OW13090   2.709   1.562   6.263
 4213SOL    HW113091   2.684   1.602   6.180
 4213SOL    HW213092   2.636   1.503   6.284
 4214SOL     OW13093   3.323   0.251   6.697
 4214SOL    HW113094   3.337   0.163   6.732
 4214SOL    HW213095   3.266   0.294   6.761
 4215SOL     OW13096   2.867   0.029   6.733
 4215SOL    HW113097   2.789   3.984   6.701
 4215SOL    HW213098   2.933   3.960   6.741
 4216SOL     OW13099   2.649   1.321   5.882
 4216SOL    HW113100   2.613   1.234   5.898
 4216SOL    HW213101   2.722   1.327   5.945
 4217SOL     OW13102   2.484   1.545   6.882
 4217SOL    HW113103   2.491   1.625   6.935
 4217SOL    HW213104   2.571   1.534   6.844
 4218SOL     OW13105   3.176   0.072   5.746
 4218SOL    HW113106   3.187   3.996   5.688
 4218SOL    HW213107   3.091   0.058   5.787
 4219SOL     OW13108   3.145   0.457   6.273
 4219SOL    HW113109   3.098   0.540   6.268
 4219SOL    HW213110   3.149   0.436   6.366
 4220SOL     OW13111   3.452   0.210   6.453
 4220SOL    HW113112   3.403   0.233   6.532
 4220SOL    HW213113   3.451   0.290   6.400
 4221SOL     OW13114   1.909   1.071   5.890
 4221SOL    HW113115   2.003   1.060   5.873
 4221SOL    HW213116   1.878   0.984   5.915
 4222SOL     OW13117   2.741   1.658   5.933
 4222SOL    HW113118   2.677   1.628   5.869
 4222SOL    HW213119   2.706   1.741   5.964
 4223SOL     OW13120   2.092   0.623   7.568
 4223SOL    HW113121   2.001   0.626   7.600
 4223SOL    HW213122   2.084   0.600   7.476
 4224SOL     OW13123   2.079   0.299   8.439
 4224SOL    HW113124   2.116   0.256   8.516
 4224SOL    HW213125   1.995   0.254   8.426
 4225SOL     OW13126   1.871   0.395   8.083
 4225SOL    HW113127   1.784   0.410   8.119
 4225SOL    HW213128   1.859   0.325   8.020
 4226SOL     OW13129   2.429   1.288   8.623
 4226SOL    HW113130   2.342   1.292   8.585
 4226SOL    HW213131   2.445   1.376   8.656
 4227SOL     OW13132   3.423   1.512   8.155
 4227SOL    HW113133   3.380   1.492   8.238
 4227SOL    HW213134   3.351   1.517   8.091
 4228SOL     OW13135   2.994   0.698   8.148
 4228SOL    HW113136   3.042   0.780   8.134
 4228SOL    HW213137   2.946   0.712   8.230
 4229SOL     OW13138   3.621   0.622   7.676
 4229SOL    HW113139   3.604   0.611   7.582
 4229SOL    HW213140   3.607   0.535   7.713
 4230SOL     OW13141   2.617   1.142   8.489
 4230SOL    HW113142   2.548   1.177   8.546
 4230SOL    HW213143   2.653   1.219   8.445
 4231SOL     OW13144   2.730   0.774   9.271
 4231SOL    HW113145   2.716   0.845   9.333
 4231SOL    HW213146   2.753   0.818   9.189
 4232SOL     OW13147   2.548   1.003   8.094
 4232SOL    HW113148   2.613   0.991   8.163
 4232SOL    HW213149   2.479   1.055   8.135
 4233SOL     OW13150   2.573   1.151   9.260
 4233SOL    HW113151   2.620   1.229   9.288
 4233SOL    HW213152   2.490   1.184   9.225
 4234SOL     OW13153   2.194   1.422   8.517
 4234SOL    HW113154   2.119   1.388   8.468
 4234SOL    HW213155   2.242   1.475   8.454
 4235SOL     OW13156   3.322   1.500   8.803
 4235SOL    HW113157   3.374   1.580   8.812
 4235SOL    HW213158   3.260   1.503   8.876
 4236SOL     OW13159   2.305   0.396   8.942
 4236SOL    HW113160   2.394   0.360   8.940
 4236SOL    HW213161   2.249   0.319   8.950
 4237SOL     OW13162   3.473   0.450   8.184
 4237SOL    HW113163   3.402   0.483   8.128
 4237SOL    HW213164   3.498   0.525   8.238
 4238SOL     OW13165   2.998   1.342   9.141
 4238SOL    HW113166   3.039   1.337   9.227
 4238SOL    HW213167   2.946   1.262   9.135
 4239SOL     OW13168   2.070   1.463   7.996
 4239SOL    HW113169   2.076   1.519   8.073
 4239SOL    HW213170   2.028   1.383   8.029
 4240SOL     OW13171   2.120   1.089   8.338
 4240SOL    HW113172   2.118   1.003   8.378
 4240SOL    HW213173   2.063   1.143   8.393
 4241SOL     OW13174   2.472   1.792   8.878
 4241SOL    HW113175   2.391   1.776   8.928
 4241SOL    HW213176   2.496   1.882   8.901
 4242SOL     OW13177   2.449   0.981   7.583
 4242SOL    HW113178   2.499   1.026   7.515
 4242SOL    HW213179   2.486   1.012   7.665
 4243SOL     OW13180   3.442   0.138   8.905
 4243SOL    HW113181   3.466   0.212   8.848
 4243SOL    HW213182   3.412   0.179   8.986
 4244SOL     OW13183   1.978   0.653   8.008
 4244SOL    HW113184   1.951   0.565   8.031
 4244SOL    HW213185   1.971   0.703   8.090
 4245SOL     OW13186   3.701   1.758   7.784
 4245SOL    HW113187   3.769   1.733   7.847
 4245SOL    HW213188   3.721   1.848   7.762
 4246SOL     OW13189   3.549   0.917   8.090
 4246SOL    HW113190   3.634   0.876   8.075
 4246SOL    HW213191   3.532   0.968   8.011
 4247SOL     OW13192   3.504   1.106   7.879
 4247SOL    HW113193   3.588   1.113   7.835
 4247SOL    HW213194   3.510   1.168   7.952
 4248SOL     OW13195   1.985   0.748   9.029
 4248SOL    HW113196   2.076   0.776   9.037
 4248SOL    HW213197   1.934   0.829   9.038
 4249SOL     OW13198   2.478   1.385   8.185
 4249SOL    HW113199   2.432   1.301   8.194
 4249SOL    HW213200   2.462   1.411   8.094
 4250SOL     OW13201   3.150   1.238   8.871
 4250SOL    HW113202   3.183   1.172   8.811
 4250SOL    HW213203   3.208   1.232   8.947
 4251SOL     OW13204   2.680   0.003   7.964
 4251SOL    HW113205   2.725   0.084   7.940
 4251SOL    HW213206   2.587   0.027   7.965
 4252SOL     OW13207   2.052   0.966   8.719
 4252SOL    HW113208   2.137   0.924   8.705
 4252SOL    HW213209   1.990   0.910   8.672
 4253SOL     OW13210   3.391   0.994   7.647
 4253SOL    HW113211   3.321   0.937   7.681
 4253SOL    HW213212   3.433   1.029   7.726
 4254SOL     OW13213   3.047   1.807   9.070
 4254SOL    HW113214   3.058   1.865   8.995
 4254SOL    HW213215   3.064   1.719   9.035
 4255SOL     OW13216   2.216   0.255   9.275
 4255SOL    HW113217   2.260   0.340   9.275
 4255SOL    HW213218   2.123   0.276   9.284
 4256SOL     OW13219   3.328   1.420   8.399
 4256SOL    HW113220   3.260   1.435   8.465
 4256SOL    HW213221   3.316   1.329   8.373
 4257SOL     OW13222   3.517   1.741   8.027
 4257SOL    HW113223   3.501   1.710   7.938
 4257SOL    HW213224   3.496   1.666   8.083
 4258SOL     OW13225   2.457   0.721   7.714
 4258SOL    HW113226   2.462   0.803   7.665
 4258SOL    HW213227   2.392   0.739   7.783
 4259SOL     OW13228   3.137   0.365   8.389
 4259SOL    HW113229   3.050   0.326   8.395
 4259SOL    HW213230   3.195   0.304   8.434
 4260SOL     OW13231   3.440   1.669   7.758
 4260SOL    HW113232   3.530   1.701   7.752
 4260SOL    HW213233   3.415   1.653   7.667
 4261SOL     OW13234   2.658   0.616   8.901
 4261SOL    HW113235   2.629   0.592   8.989
 4261SOL    HW213236   2.617   0.551   8.844
 4262SOL     OW13237   3.254   0.476   9.125
 4262SOL    HW113238   3.259   0.521   9.210
 4262SOL    HW213239   3.313   0.402   9.135
 4263SOL     OW13240   2.816   0.888   9.031
 4263SOL    HW113241   2.871   0.818   8.995
 4263SOL    HW213242   2.768   0.922   8.955
 4264SOL     OW13243   2.854   0.403   8.688
 4264SOL    HW113244   2.770   0.427   8.729
 4264SOL    HW213245   2.829   0.373   8.601
 4265SOL     OW13246   2.913   0.699   7.874
 4265SOL    HW113247   2.928   0.692   7.968
 4265SOL    HW213248   2.830   0.652   7.859
 4266SOL     OW13249   1.951   0.822   8.224
 4266SOL    HW113250   2.031   0.813   8.275
 4266SOL    HW213251   1.908   0.900   8.259
 4267SOL     OW13252   2.756   0.351   7.647
 4267SOL    HW113253   2.797   0.410   7.584
 4267SOL    HW213254   2.751   0.266   7.603
 4268SOL     OW13255   3.572   0.575   9.277
 4268SOL    HW113256   3.534   0.649   9.231
 4268SOL    HW213257   3.596   0.513   9.208
 4269SOL     OW13258   3.238   1.141   7.988
 4269SOL    HW113259   3.318   1.129   7.938
 4269SOL    HW213260   3.187   1.204   7.938
 4270SOL     OW13261   2.418   0.198   8.330
 4270SOL    HW113262   2.422   0.216   8.424
 4270SOL    HW213263   2.415   0.284   8.288
 4271SOL     OW13264   2.866   1.442   7.920
 4271SOL    HW113265   2.835   1.520   7.873
 4271SOL    HW213266   2.852   1.462   8.012
 4272SOL     OW13267   2.220   1.796   8.285
 4272SOL    HW113268   2.263   1.715   8.310
 4272SOL    HW213269   2.283   1.865   8.307
 4273SOL     OW13270   3.666   1.062   8.315
 4273SOL    HW113271   3.611   1.040   8.239
 4273SOL    HW213272   3.605   1.065   8.388
 4274SOL     OW13273   3.089   1.539   8.961
 4274SOL    HW113274   3.076   1.466   9.022
 4274SOL    HW213275   3.027   1.523   8.891
 4275SOL     OW13276   2.181   0.950   7.700
 4275SOL    HW113277   2.261   0.975   7.655
 4275SOL    HW213278   2.153   0.869   7.656
 4276SOL     OW13279   3.340   0.743   8.178
 4276SOL    HW113280   3.333   0.701   8.263
 4276SOL    HW213281   3.417   0.799   8.184
 4277SOL     OW13282   2.329   1.264   9.185
 4277SOL    HW113283   2.301   1.269   9.094
 4277SOL    HW213284   2.247   1.261   9.235
 4278SOL     OW13285   2.988   1.777   7.683
 4278SOL    HW113286   2.911   1.737   7.724
 4278SOL    HW213287   3.009   1.718   7.610
 4279SOL     OW13288   2.035   0.276   8.946
 4279SOL    HW113289   1.975   0.350   8.940
 4279SOL    HW213290   2.043   0.259   9.040
 4280SOL     OW13291   3.488   1.382   7.535
 4280SOL    HW113292   3.446   1.466   7.520
 4280SOL    HW213293   3.420   1.317   7.516
 4281SOL     OW13294   3.296   0.165   7.850
 4281SOL    HW113295   3.255   0.094   7.802
 4281SOL    HW213296   3.373   0.125   7.892
 4282SOL     OW13297   2.163   1.783   8.673
 4282SOL    HW113298   2.199   1.703   8.711
 4282SOL    HW213299   2.121   1.754   8.592
 4283SOL     OW13300   2.800   1.699   8.348
 4283SOL    HW113301   2.878   1.648   8.369
 4283SOL    HW213302   2.757   1.649   8.279
 4284SOL     OW13303   2.255   0.695   7.924
 4284SOL    HW113304   2.276   0.602   7.936
 4284SOL    HW213305   2.162   0.702   7.942
 4285SOL     OW13306   3.393   0.231   9.175
 4285SOL    HW113307   3.389   0.256   9.267
 4285SOL    HW213308   3.367   0.139   9.174
 4286SOL     OW13309   2.504   0.134   7.555
 4286SOL    HW113310   2.534   0.052   7.594
 4286SOL    HW213311   2.442   0.106   7.488
 4287SOL     OW13312   2.639   0.281   9.213
 4287SOL    HW113313   2.705   0.213   9.218
 4287SOL    HW213314   2.579   0.262   9.285
 4288SOL     OW13315   2.738   1.521   8.642
 4288SOL    HW113316   2.722   1.485   8.555
 4288SOL    HW213317   2.808   1.468   8.679
 4289SOL     OW13318   3.204   0.587   8.878
 4289SOL    HW113319   3.233   0.559   8.965
 4289SOL    HW213320   3.237   0.676   8.869
 4290SOL     OW13321   2.678   1.395   8.389
 4290SOL    HW113322   2.762   1.383   8.345
 4290SOL    HW213323   2.614   1.395   8.317
 4291SOL     OW13324   2.791   0.511   8.350
 4291SOL    HW113325   2.767   0.503   8.257
 4291SOL    HW213326   2.819   0.423   8.375
 4292SOL     OW13327   2.408   0.057   7.940
 4292SOL    HW113328   2.333   0.062   8.000
 4292SOL    HW213329   2.403   0.138   7.889
 4293SOL     OW13330   3.290   1.198   7.488
 4293SOL    HW113331   3.321   1.123   7.539
 4293SOL    HW213332   3.205   1.220   7.527
 4294SOL     OW13333   2.188   0.044   7.657
 4294SOL    HW113334   2.202   0.112   7.591
 4294SOL    HW213335   2.273   0.037   7.702
 4295SOL     OW13336   2.802   0.248   7.910
 4295SOL    HW113337   2.776   0.289   7.827
 4295SOL    HW213338   2.897   0.250   7.910
 4296SOL     OW13339   2.942   0.682   8.907
 4296SOL    HW113340   2.871   0.618   8.914
 4296SOL    HW213341   3.021   0.629   8.902
 4297SOL     OW13342   3.085   1.570   8.241
 4297SOL    HW113343   3.102   1.637   8.175
 4297SOL    HW213344   3.153   1.583   8.307
 4298SOL     OW13345   2.331   1.152   8.180
 4298SOL    HW113346   2.262   1.130   8.243
 4298SOL    HW213347   2.292   1.133   8.095
 4299SOL     OW13348   3.130   1.794   8.056
 4299SOL    HW113349   3.177   1.854   7.998
 4299SOL    HW213350   3.066   1.849   8.101
 4300SOL     OW13351   2.885   0.545   7.473
 4300SOL    HW113352   2.841   0.628   7.454
 4300SOL    HW213353   2.948   0.567   7.542
 4301SOL     OW13354   1.941   0.552   8.843
 4301SOL    HW113355   2.033   0.552   8.814
 4301SOL    HW213356   1.936   0.624   8.905
 4302SOL     OW13357   2.427   0.232   8.609
 4302SOL    HW113358   2.452   0.140   8.620
 4302SOL    HW213359   2.337   0.236   8.641
 4303SOL     OW13360   2.732   0.461   8.087
 4303SOL    HW113361   2.684   0.514   8.023
 4303SOL    HW213362   2.752   0.380   8.039
 4304SOL     OW13363   2.857   0.041   8.227
 4304SOL    HW113364   2.823   0.067   8.142
 4304SOL    HW213365   2.867   3.946   8.221
 4305SOL     OW13366   3.300   1.162   8.306
 4305SOL    HW113367   3.230   1.097   8.303
 4305SOL    HW213368   3.326   1.174   8.214
 4306SOL     OW13369   3.327   0.606   8.425
 4306SOL    HW113370   3.276   0.525   8.430
 4306SOL    HW213371   3.388   0.600   8.499
 4307SOL     OW13372   3.722   0.824   7.823
 4307SOL    HW113373   3.764   0.766   7.887
 4307SOL    HW213374   3.683   0.764   7.759
 4308SOL     OW13375   3.528   1.265   8.095
 4308SOL    HW113376   3.623   1.269   8.103
 4308SOL    HW213377   3.498   1.353   8.114
 4309SOL     OW13378   3.256   0.574   7.518
 4309SOL    HW113379   3.194   0.555   7.587
 4309SOL    HW213380   3.342   0.556   7.557
 4310SOL     OW13381   2.389   0.266   7.765
 4310SOL    HW113382   2.441   0.226   7.696
 4310SOL    HW213383   2.362   0.351   7.729
 4311SOL     OW13384   3.614   1.234   9.018
 4311SOL    HW113385   3.701   1.199   9.001
 4311SOL    HW213386   3.630   1.323   9.049
 4312SOL     OW13387   2.920   1.353   8.781
 4312SOL    HW113388   2.845   1.322   8.833
 4312SOL    HW213389   2.996   1.312   8.823
 4313SOL     OW13390   3.467   1.627   9.102
 4313SOL    HW113391   3.461   1.661   9.013
 4313SOL    HW213392   3.549   1.577   9.103
 4314SOL     OW13393   2.991   1.204   8.553
 4314SOL    HW113394   2.932   1.242   8.618
 4314SOL    HW213395   2.958   1.236   8.469
 4315SOL     OW13396   3.492   1.097   8.524
 4315SOL    HW113397   3.485   1.159   8.597
 4315SOL    HW213398   3.414   1.113   8.471
 4316SOL     OW13399   2.775   0.113   8.850
 4316SOL    HW113400   2.795   0.087   8.760
 4316SOL    HW213401   2.855   0.155   8.881
 4317SOL     OW13402   2.846   1.115   9.171
 4317SOL    HW113403   2.754   1.131   9.193
 4317SOL    HW213404   2.844   1.037   9.116
 4318SOL     OW13405   2.572   1.065   7.818
 4318SOL    HW113406   2.557   1.047   7.911
 4318SOL    HW213407   2.647   1.010   7.795
 4319SOL     OW13408   2.281   0.815   8.699
 4319SOL    HW113409   2.350   0.823   8.766
 4319SOL    HW213410   2.246   0.727   8.712
 4320SOL     OW13411   3.129   0.375   8.724
 4320SOL    HW113412   3.163   0.453   8.768
 4320SOL    HW213413   3.042   0.401   8.693
 4321SOL     OW13414   1.935   1.577   8.802
 4321SOL    HW113415   1.902   1.640   8.738
 4321SOL    HW213416   2.030   1.576   8.788
 4322SOL     OW13417   2.214   1.103   7.940
 4322SOL    HW113418   2.198   1.172   7.876
 4322SOL    HW213419   2.215   1.022   7.888
 4323SOL     OW13420   2.417   0.535   8.306
 4323SOL    HW113421   2.432   0.594   8.232
 4323SOL    HW213422   2.481   0.562   8.372
 4324SOL     OW13423   3.110   1.348   7.837
 4324SOL    HW113424   3.165   1.420   7.867
 4324SOL    HW213425   3.023   1.369   7.871
 4325SOL     OW13426   3.143   1.458   8.595
 4325SOL    HW113427   3.199   1.461   8.673
 4325SOL    HW213428   3.088   1.381   8.608
 4326SOL     OW13429   3.436   0.631   7.932
 4326SOL    HW113430   3.396   0.690   7.995
 4326SOL    HW213431   3.485   0.689   7.873
 4327SOL     OW13432   2.212   1.523   8.764
 4327SOL    HW113433   2.198   1.480   8.679
 4327SOL    HW213434   2.307   1.532   8.771
 4328SOL     OW13435   2.277   0.744   9.049
 4328SOL    HW113436   2.338   0.790   8.991
 4328SOL    HW213437   2.318   0.659   9.066
 4329SOL     OW13438   3.463   0.777   9.129
 4329SOL    HW113439   3.378   0.819   9.123
 4329SOL    HW213440   3.516   0.819   9.062
 4330SOL     OW13441   2.882   0.125   9.227
 4330SOL    HW113442   2.922   0.202   9.186
 4330SOL    HW213443   2.864   0.066   9.154
 4331SOL     OW13444   2.348   0.034   9.211
 4331SOL    HW113445   2.354   0.043   9.116
 4331SOL    HW213446   2.290   0.105   9.238
 4332SOL     OW13447   2.445   0.873   8.479
 4332SOL    HW113448   2.475   0.964   8.480
 4332SOL    HW213449   2.388   0.866   8.556
 4333SOL     OW13450   3.219   0.859   8.477
 4333SOL    HW113451   3.136   0.849   8.431
 4333SOL    HW213452   3.260   0.773   8.471
 4334SOL     OW13453   3.065   0.535   7.709
 4334SOL    HW113454   3.073   0.456   7.762
 4334SOL    HW213455   3.022   0.599   7.767
 4335SOL     OW13456   2.163   0.211   8.690
 4335SOL    HW113457   2.123   0.240   8.772
 4335SOL    HW213458   2.151   0.116   8.690
 4336SOL     OW13459   1.909   1.313   8.725
 4336SOL    HW113460   1.941   1.256   8.796
 4336SOL    HW213461   1.915   1.401   8.761
 4337SOL     OW13462   2.586   0.633   8.503
 4337SOL    HW113463   2.661   0.618   8.445
 4337SOL    HW213464   2.557   0.722   8.482
 4338SOL     OW13465   3.595   0.957   9.307
 4338SOL    HW113466   3.550   0.900   9.245
 4338SOL    HW213467   3.531   0.970   9.377
 4339SOL     OW13468   2.184   0.057   8.096
 4339SOL    HW113469   2.163   0.150   8.107
 4339SOL    HW213470   2.145   0.014   8.172
 4340SOL     OW13471   3.471   0.389   7.828
 4340SOL    HW113472   3.439   0.320   7.887
 4340SOL    HW213473   3.449   0.470   7.873
 4341SOL     OW13474   2.890   0.759   8.408
 4341SOL    HW113475   2.886   0.777   8.502
 4341SOL    HW213476   2.863   0.668   8.399
 4342SOL     OW13477   2.844   1.566   9.165
 4342SOL    HW113478   2.829   1.610   9.081
 4342SOL    HW213479   2.887   1.484   9.142
 4343SOL     OW13480   3.707   1.502   9.048
 4343SOL    HW113481   3.729   1.530   8.959
 4343SOL    HW213482   3.788   1.515   9.098
 4344SOL     OW13483   2.215   0.915   9.256
 4344SOL    HW113484   2.296   0.935   9.302
 4344SOL    HW213485   2.240   0.853   9.188
 4345SOL     OW13486   3.367   0.275   7.583
 4345SOL    HW113487   3.292   0.217   7.595
 4345SOL    HW213488   3.381   0.314   7.670
 4346SOL     OW13489   3.152   0.827   7.478
 4346SOL    HW113490   3.195   0.741   7.481
 4346SOL    HW213491   3.184   0.867   7.397
 4347SOL     OW13492   2.927   1.336   8.302
 4347SOL    HW113493   2.931   1.263   8.240
 4347SOL    HW213494   2.989   1.400   8.267
 4348SOL     OW13495   2.171   0.810   8.395
 4348SOL    HW113496   2.264   0.830   8.389
 4348SOL    HW213497   2.168   0.719   8.427
 4349SOL     OW13498   2.198   0.534   8.461
 4349SOL    HW113499   2.157   0.449   8.445
 4349SOL    HW213500   2.274   0.535   8.403
 4350SOL     OW13501   2.995   0.382   9.142
 4350SOL    HW113502   2.947   0.437   9.204
 4350SOL    HW213503   3.082   0.422   9.137
 4351SOL     OW13504   3.013   0.225   8.929
 4351SOL    HW113505   3.004   0.279   9.007
 4351SOL    HW213506   3.036   0.287   8.859
 4352SOL     OW13507   1.853   1.307   7.667
 4352SOL    HW113508   1.758   1.315   7.654
 4352SOL    HW213509   1.865   1.216   7.693
 4353SOL     OW13510   1.978   1.727   8.436
 4353SOL    HW113511   1.939   1.667   8.372
 4353SOL    HW213512   2.026   1.790   8.383
 4354SOL     OW13513   2.361   1.570   8.357
 4354SOL    HW113514   2.428   1.634   8.381
 4354SOL    HW213515   2.408   1.507   8.301
 4355SOL     OW13516   2.844   0.790   8.673
 4355SOL    HW113517   2.899   0.769   8.749
 4355SOL    HW213518   2.758   0.755   8.696
 4356SOL     OW13519   1.895   0.547   8.565
 4356SOL    HW113520   1.971   0.520   8.512
 4356SOL    HW213521   1.928   0.547   8.655
 4357SOL     OW13522   2.064   0.526   9.162
 4357SOL    HW113523   2.132   0.504   9.099
 4357SOL    HW213524   2.018   0.600   9.123
 4358SOL     OW13525   3.241   0.938   9.106
 4358SOL    HW113526   3.261   1.032   9.105
 4358SOL    HW213527   3.237   0.913   9.014
 4359SOL     OW13528   2.678   0.572   7.809
 4359SOL    HW113529   2.684   0.496   7.751
 4359SOL    HW213530   2.604   0.622   7.776
 4360SOL     OW13531   3.503   0.602   8.633
 4360SOL    HW113532   3.492   0.541   8.706
 4360SOL    HW213533   3.589   0.580   8.597
 4361SOL     OW13534   2.115   1.537   9.157
 4361SOL    HW113535   2.098   1.608   9.219
 4361SOL    HW213536   2.116   1.458   9.210
 4362SOL     OW13537   2.564   0.455   8.707
 4362SOL    HW113538   2.515   0.377   8.681
 4362SOL    HW213539   2.558   0.514   8.632
 4363SOL     OW13540   2.789   1.679   8.916
 4363SOL    HW113541   2.764   1.644   8.830
 4363SOL    HW213542   2.785   1.774   8.905
 4364SOL     OW13543   2.326   0.494   7.634
 4364SOL    HW113544   2.384   0.567   7.656
 4364SOL    HW213545   2.240   0.535   7.621
 4365SOL     OW13546   2.007   1.140   8.920
 4365SOL    HW113547   2.010   1.089   9.001
 4365SOL    HW213548   2.025   1.077   8.851
 4366SOL     OW13549   3.186   1.046   8.671
 4366SOL    HW113550   3.211   0.983   8.603
 4366SOL    HW213551   3.117   1.099   8.632
 4367SOL     OW13552   3.174   0.855   7.754
 4367SOL    HW113553   3.097   0.827   7.804
 4367SOL    HW213554   3.148   0.843   7.663
 4368SOL     OW13555   3.639   1.744   8.602
 4368SOL    HW113556   3.694   1.771   8.529
 4368SOL    HW213557   3.611   1.655   8.580
 4369SOL     OW13558   3.103   1.733   8.560
 4369SOL    HW113559   3.185   1.755   8.516
 4369SOL    HW213560   3.109   1.640   8.579
 4370SOL     OW13561   1.947   1.266   8.460
 4370SOL    HW113562   1.932   1.280   8.554
 4370SOL    HW213563   1.874   1.212   8.432
 4371SOL     OW13564   2.538   1.666   9.176
 4371SOL    HW113565   2.488   1.747   9.176
 4371SOL    HW213566   2.604   1.679   9.108
 4372SOL     OW13567   3.553   0.122   7.935
 4372SOL    HW113568   3.635   0.135   7.887
 4372SOL    HW213569   3.554   0.029   7.957
 4373SOL     OW13570   3.251   1.567   7.933
 4373SOL    HW113571   3.312   1.599   7.867
 4373SOL    HW213572   3.204   1.646   7.961
 4374SOL     OW13573   2.038   1.742   9.307
 4374SOL    HW113574   1.972   1.698   9.361
 4374SOL    HW213575   2.007   1.832   9.302
 4375SOL     OW13576   3.139   0.926   8.119
 4375SOL    HW113577   3.213   0.866   8.127
 4375SOL    HW213578   3.173   0.999   8.066
 4376SOL     OW13579   2.676   1.273   8.877
 4376SOL    HW113580   2.648   1.312   8.960
 4376SOL    HW213581   2.606   1.295   8.816
 4377SOL     OW13582   3.485   1.727   8.839
 4377SOL    HW113583   3.539   1.732   8.760
 4377SOL    HW213584   3.473   1.818   8.866
 4378SOL     OW13585   3.702   0.180   8.419
 4378SOL    HW113586   3.727   0.097   8.379
 4378SOL    HW213587   3.616   0.199   8.382
 4379SOL     OW13588   2.127   0.317   8.163
 4379SOL    HW113589   2.040   0.352   8.142
 4379SOL    HW213590   2.125   0.307   8.259
 4380SOL     OW13591   3.069   1.607   7.479
 4380SOL    HW113592   3.058   1.515   7.504
 4380SOL    HW213593   3.005   1.620   7.410
 4381SOL     OW13594   2.686   1.006   8.820
 4381SOL    HW113595   2.729   1.002   8.735
 4381SOL    HW213596   2.685   1.098   8.843
 4382SOL     OW13597   2.778   0.911   7.738
 4382SOL    HW113598   2.839   0.943   7.671
 4382SOL    HW213599   2.825   0.841   7.783
 4383SOL     OW13600   3.353   1.626   7.491
 4383SOL    HW113601   3.259   1.620   7.477
 4383SOL    HW213602   3.390   1.632   7.402
 4384SOL     OW13603   2.232   1.299   8.939
 4384SOL    HW113604   2.218   1.378   8.887
 4384SOL    HW213605   2.154   1.246   8.923
 4385SOL     OW13606   3.465   1.280   8.727
 4385SOL    HW113607   3.533   1.274   8.794
 4385SOL    HW213608   3.408   1.350   8.757
 4386SOL     OW13609   2.914   1.108   8.155
 4386SOL    HW113610   2.844   1.056   8.193
 4386SOL    HW213611   2.977   1.042   8.124
 4387SOL     OW13612   2.876   0.248   8.416
 4387SOL    HW113613   2.866   0.198   8.335
 4387SOL    HW213614   2.871   0.182   8.486
 4388SOL     OW13615   2.467   1.492   7.931
 4388SOL    HW113616   2.510   1.435   7.867
 4388SOL    HW213617   2.388   1.522   7.887
 4389SOL     OW13618   3.582   0.392   8.821
 4389SOL    HW113619   3.653   0.456   8.820
 4389SOL    HW213620   3.613   0.320   8.767
 4390SOL     OW13621   2.131   1.294   7.770
 4390SOL    HW113622   2.053   1.304   7.716
 4390SOL    HW213623   2.124   1.365   7.834
 4391SOL     OW13624   1.975   1.023   9.167
 4391SOL    HW113625   1.898   0.999   9.220
 4391SOL    HW213626   2.049   0.985   9.214
 4392SOL     OW13627   2.554   0.247   8.947
 4392SOL    HW113628   2.622   0.194   8.906
 4392SOL    HW213629   2.581   0.255   9.038
 4393SOL     OW13630   1.960   0.318   7.438
 4393SOL    HW113631   1.887   0.337   7.497
 4393SOL    HW213632   1.973   0.400   7.389
 4394SOL     OW13633   3.289   0.857   8.847
 4394SOL    HW113634   3.240   0.919   8.793
 4394SOL    HW213635   3.378   0.860   8.812
 4395SOL     OW13636   1.944   0.154   7.789
 4395SOL    HW113637   1.913   0.215   7.722
 4395SOL    HW213638   2.029   0.124   7.757
 4396SOL     OW13639   3.042   1.339   7.565
 4396SOL    HW113640   2.953   1.304   7.568
 4396SOL    HW213641   3.070   1.340   7.656
 4397SOL     OW13642   2.482   0.829   8.881
 4397SOL    HW113643   2.538   0.905   8.866
 4397SOL    HW213644   2.543   0.756   8.890
 4398SOL     OW13645   3.345   1.778   8.427
 4398SOL    HW113646   3.369   1.838   8.355
 4398SOL    HW213647   3.428   1.755   8.467
 4399SOL     OW13648   2.580   0.562   9.153
 4399SOL    HW113649   2.620   0.626   9.213
 4399SOL    HW213650   2.609   0.477   9.186
 4400SOL     OW13651   3.333   1.200   9.080
 4400SOL    HW113652   3.322   1.214   9.174
 4400SOL    HW213653   3.427   1.215   9.064
 4401SOL     OW13654   2.239   1.745   9.019
 4401SOL    HW113655   2.155   1.763   8.977
 4401SOL    HW213656   2.227   1.660   9.061
 4402SOL     OW13657   3.528   0.881   8.707
 4402SOL    HW113658   3.526   0.796   8.663
 4402SOL    HW213659   3.522   0.945   8.636
 4403SOL     OW13660   3.084   0.335   7.893
 4403SOL    HW113661   3.152   0.268   7.884
 4403SOL    HW213662   3.106   0.380   7.975
 4404SOL     OW13663   2.452   0.738   8.118
 4404SOL    HW113664   2.491   0.824   8.102
 4404SOL    HW213665   2.385   0.729   8.051
 4405SOL     OW13666   3.618   0.380   9.090
 4405SOL    HW113667   3.597   0.388   8.997
 4405SOL    HW213668   3.558   0.313   9.122
 4406SOL     OW13669   3.614   0.931   8.962
 4406SOL    HW113670   3.607   1.025   8.978
 4406SOL    HW213671   3.592   0.921   8.870
 4407SOL     OW13672   2.728   1.367   7.484
 4407SOL    HW113673   2.692   1.400   7.567
 4407SOL    HW213674   2.747   1.446   7.433
 4408SOL     OW13675   2.522   1.791   8.393
 4408SOL    HW113676   2.501   1.881   8.366
 4408SOL    HW213677   2.617   1.786   8.384
 4409SOL     OW13678   2.729   0.967   8.303
 4409SOL    HW113679   2.780   0.896   8.342
 4409SOL    HW213680   2.694   1.016   8.378
 4410SOL     OW13681   2.942   0.990   7.537
 4410SOL    HW113682   2.920   1.039   7.458
 4410SOL    HW213683   3.016   0.935   7.511
 4411SOL     OW13684   3.717   1.557   8.290
 4411SOL    HW113685   3.638   1.540   8.238
 4411SOL    HW213686   3.714   1.489   8.358
 4412SOL     OW13687   2.088   1.302   9.304
 4412SOL    HW113688   2.020   1.240   9.278
 4412SOL    HW213689   2.075   1.314   9.398
 4413SOL     OW13690   1.958   1.230   8.104
 4413SOL    HW113691   1.955   1.190   8.191
 4413SOL    HW213692   2.018   1.175   8.054
 4414SOL     OW13693   2.542   1.403   9.074
 4414SOL    HW113694   2.464   1.360   9.107
 4414SOL    HW213695   2.539   1.491   9.113
 4415SOL     OW13696   3.677   0.182   8.692
 4415SOL    HW113697   3.679   0.087   8.700
 4415SOL    HW213698   3.694   0.198   8.599
 4416SOL     OW13699   2.291   0.434   7.973
 4416SOL    HW113700   2.323   0.362   7.919
 4416SOL    HW213701   2.244   0.391   8.044
 4417SOL     OW13702   3.560   1.491   8.546
 4417SOL    HW113703   3.481   1.467   8.498
 4417SOL    HW213704   3.573   1.420   8.609
 4418SOL     OW13705   2.191   0.555   8.741
 4418SOL    HW113706   2.245   0.497   8.795
 4418SOL    HW213707   2.211   0.528   8.651
 4419SOL     OW13708   2.690   1.579   8.127
 4419SOL    HW113709   2.675   1.633   8.049
 4419SOL    HW213710   2.614   1.521   8.131
 4420SOL     OW13711   3.323   0.252   8.559
 4420SOL    HW113712   3.337   0.164   8.594
 4420SOL    HW213713   3.266   0.294   8.623
 4421SOL     OW13714   2.867   0.029   8.595
 4421SOL    HW113715   2.790   3.983   8.563
 4421SOL    HW213716   2.934   3.960   8.603
 4422SOL     OW13717   2.627   1.338   7.762
 4422SOL    HW113718   2.599   1.247   7.766
 4422SOL    HW213719   2.711   1.339   7.809
 4423SOL     OW13720   2.482   1.556   8.734
 4423SOL    HW113721   2.484   1.639   8.783
 4423SOL    HW213722   2.570   1.548   8.696
 4424SOL     OW13723   3.176   0.072   7.608
 4424SOL    HW113724   3.187   3.997   7.549
 4424SOL    HW213725   3.091   0.058   7.649
 4425SOL     OW13726   3.145   0.457   8.135
 4425SOL    HW113727   3.098   0.540   8.130
 4425SOL    HW213728   3.149   0.436   8.228
 4426SOL     OW13729   3.452   0.210   8.315
 4426SOL    HW113730   3.403   0.233   8.394
 4426SOL    HW213731   3.451   0.290   8.262
 4427SOL     OW13732   1.907   1.063   7.759
 4427SOL    HW113733   2.001   1.057   7.741
 4427SOL    HW213734   1.881   0.973   7.781
 4428SOL     OW13735   2.749   1.655   7.794
 4428SOL    HW113736   2.669   1.628   7.749
 4428SOL    HW213737   2.724   1.732   7.845
 4429SOL     OW13738   2.091   0.620   9.431
 4429SOL    HW113739   2.001   0.627   9.463
 4429SOL    HW213740   2.083   0.600   9.338
 4430SOL     OW13741   2.079   0.299  10.301
 4430SOL    HW113742   2.116   0.256  10.378
 4430SOL    HW213743   1.995   0.254  10.288
 4431SOL     OW13744   1.871   0.395   9.945
 4431SOL    HW113745   1.784   0.411   9.981
 4431SOL    HW213746   1.859   0.325   9.882
 4432SOL     OW13747   2.429   1.287  10.485
 4432SOL    HW113748   2.342   1.291  10.445
 4432SOL    HW213749   2.445   1.376  10.517
 4433SOL     OW13750   3.423   1.512  10.017
 4433SOL    HW113751   3.380   1.492  10.100
 4433SOL    HW213752   3.351   1.517   9.954
 4434SOL     OW13753   2.994   0.698  10.010
 4434SOL    HW113754   3.042   0.780   9.996
 4434SOL    HW213755   2.946   0.712  10.092
 4435SOL     OW13756   3.621   0.622   9.538
 4435SOL    HW113757   3.604   0.611   9.444
 4435SOL    HW213758   3.606   0.535   9.575
 4436SOL     OW13759   2.618   1.142  10.352
 4436SOL    HW113760   2.549   1.177  10.408
 4436SOL    HW213761   2.653   1.219  10.307
 4437SOL     OW13762   2.730   0.774  11.133
 4437SOL    HW113763   2.715   0.845  11.195
 4437SOL    HW213764   2.753   0.818  11.051
 4438SOL     OW13765   2.548   1.002   9.956
 4438SOL    HW113766   2.613   0.991  10.026
 4438SOL    HW213767   2.479   1.055   9.996
 4439SOL     OW13768   2.573   1.151  11.122
 4439SOL    HW113769   2.620   1.229  11.150
 4439SOL    HW213770   2.490   1.184  11.087
 4440SOL     OW13771   2.194   1.421  10.378
 4440SOL    HW113772   2.118   1.389  10.329
 4440SOL    HW213773   2.242   1.475  10.315
 4441SOL     OW13774   3.322   1.500  10.665
 4441SOL    HW113775   3.374   1.580  10.674
 4441SOL    HW213776   3.260   1.502  10.738
 4442SOL     OW13777   2.305   0.395  10.804
 4442SOL    HW113778   2.394   0.360  10.802
 4442SOL    HW213779   2.249   0.318  10.812
 4443SOL     OW13780   3.473   0.450  10.046
 4443SOL    HW113781   3.402   0.483   9.991
 4443SOL    HW213782   3.498   0.525  10.100
 4444SOL     OW13783   2.092   1.696   9.770
 4444SOL    HW113784   2.107   1.765   9.835
 4444SOL    HW213785   2.170   1.697   9.715
 4445SOL     OW13786   2.998   1.342  11.003
 4445SOL    HW113787   3.039   1.337  11.089
 4445SOL    HW213788   2.946   1.262  10.996
 4446SOL     OW13789   2.091   1.433   9.846
 4446SOL    HW113790   2.080   1.528   9.839
 4446SOL    HW213791   2.028   1.406   9.913
 4447SOL     OW13792   2.120   1.090  10.200
 4447SOL    HW113793   2.116   1.003  10.241
 4447SOL    HW213794   2.063   1.144  10.255
 4448SOL     OW13795   2.474   1.791  10.742
 4448SOL    HW113796   2.392   1.774  10.789
 4448SOL    HW213797   2.498   1.881  10.766
 4449SOL     OW13798   2.447   0.982   9.445
 4449SOL    HW113799   2.493   1.031   9.376
 4449SOL    HW213800   2.486   1.013   9.526
 4450SOL     OW13801   3.442   0.138  10.767
 4450SOL    HW113802   3.466   0.212  10.710
 4450SOL    HW213803   3.412   0.179  10.848
 4451SOL     OW13804   1.977   0.655   9.870
 4451SOL    HW113805   1.951   0.566   9.893
 4451SOL    HW213806   1.970   0.704   9.951
 4452SOL     OW13807   3.701   1.758   9.646
 4452SOL    HW113808   3.769   1.733   9.709
 4452SOL    HW213809   3.721   1.848   9.624
 4453SOL     OW13810   1.864   1.605   9.463
 4453SOL    HW113811   1.857   1.510   9.448
 4453SOL    HW213812   1.885   1.613   9.556
 4454SOL     OW13813   3.549   0.917   9.952
 4454SOL    HW113814   3.634   0.876   9.937
 4454SOL    HW213815   3.532   0.968   9.873
 4455SOL     OW13816   3.504   1.106   9.741
 4455SOL    HW113817   3.588   1.113   9.697
 4455SOL    HW213818   3.510   1.168   9.814
 4456SOL     OW13819   1.985   0.748  10.892
 4456SOL    HW113820   2.076   0.776  10.899
 4456SOL    HW213821   1.934   0.829  10.900
 4457SOL     OW13822   2.476   1.386  10.044
 4457SOL    HW113823   2.430   1.303  10.054
 4457SOL    HW213824   2.458   1.413   9.954
 4458SOL     OW13825   3.150   1.238  10.733
 4458SOL    HW113826   3.183   1.172  10.673
 4458SOL    HW213827   3.208   1.232  10.809
 4459SOL     OW13828   2.680   0.003   9.826
 4459SOL    HW113829   2.725   0.084   9.802
 4459SOL    HW213830   2.587   0.027   9.827
 4460SOL     OW13831   2.052   0.965  10.583
 4460SOL    HW113832   2.137   0.924  10.567
 4460SOL    HW213833   1.990   0.912  10.532
 4461SOL     OW13834   3.391   0.994   9.509
 4461SOL    HW113835   3.322   0.937   9.543
 4461SOL    HW213836   3.433   1.029   9.588
 4462SOL     OW13837   3.047   1.807  10.932
 4462SOL    HW113838   3.058   1.865  10.857
 4462SOL    HW213839   3.064   1.719  10.897
 4463SOL     OW13840   2.216   0.255  11.137
 4463SOL    HW113841   2.260   0.340  11.137
 4463SOL    HW213842   2.123   0.275  11.147
 4464SOL     OW13843   3.328   1.420  10.261
 4464SOL    HW113844   3.260   1.435  10.327
 4464SOL    HW213845   3.316   1.329  10.235
 4465SOL     OW13846   3.518   1.741   9.889
 4465SOL    HW113847   3.501   1.710   9.800
 4465SOL    HW213848   3.496   1.667   9.945
 4466SOL     OW13849   2.457   0.721   9.576
 4466SOL    HW113850   2.463   0.803   9.527
 4466SOL    HW213851   2.393   0.739   9.645
 4467SOL     OW13852   3.138   0.365  10.250
 4467SOL    HW113853   3.050   0.326  10.257
 4467SOL    HW213854   3.195   0.304  10.296
 4468SOL     OW13855   3.440   1.670   9.619
 4468SOL    HW113856   3.530   1.701   9.614
 4468SOL    HW213857   3.415   1.653   9.529
 4469SOL     OW13858   2.658   0.616  10.763
 4469SOL    HW113859   2.629   0.592  10.851
 4469SOL    HW213860   2.617   0.551  10.706
 4470SOL     OW13861   3.254   0.476  10.987
 4470SOL    HW113862   3.259   0.521  11.072
 4470SOL    HW213863   3.313   0.402  10.997
 4471SOL     OW13864   2.816   0.888  10.893
 4471SOL    HW113865   2.871   0.818  10.857
 4471SOL    HW213866   2.769   0.922  10.817
 4472SOL     OW13867   2.854   0.403  10.550
 4472SOL    HW113868   2.771   0.427  10.591
 4472SOL    HW213869   2.829   0.373  10.463
 4473SOL     OW13870   2.913   0.699   9.736
 4473SOL    HW113871   2.928   0.692   9.830
 4473SOL    HW213872   2.831   0.652   9.721
 4474SOL     OW13873   1.950   0.822  10.086
 4474SOL    HW113874   2.030   0.814  10.137
 4474SOL    HW213875   1.907   0.900  10.122
 4475SOL     OW13876   2.756   0.351   9.509
 4475SOL    HW113877   2.797   0.410   9.446
 4475SOL    HW213878   2.752   0.266   9.464
 4476SOL     OW13879   3.572   0.575  11.139
 4476SOL    HW113880   3.534   0.649  11.093
 4476SOL    HW213881   3.596   0.513  11.070
 4477SOL     OW13882   3.238   1.141   9.851
 4477SOL    HW113883   3.318   1.129   9.799
 4477SOL    HW213884   3.186   1.204   9.800
 4478SOL     OW13885   2.418   0.198  10.192
 4478SOL    HW113886   2.422   0.216  10.286
 4478SOL    HW213887   2.415   0.284  10.150
 4479SOL     OW13888   2.867   1.444   9.782
 4479SOL    HW113889   2.830   1.517   9.732
 4479SOL    HW213890   2.849   1.465   9.873
 4480SOL     OW13891   2.225   1.799  10.144
 4480SOL    HW113892   2.259   1.713  10.168
 4480SOL    HW213893   2.291   1.861  10.175
 4481SOL     OW13894   3.666   1.062  10.176
 4481SOL    HW113895   3.611   1.039  10.101
 4481SOL    HW213896   3.605   1.065  10.250
 4482SOL     OW13897   3.090   1.539  10.823
 4482SOL    HW113898   3.076   1.466  10.884
 4482SOL    HW213899   3.026   1.523  10.753
 4483SOL     OW13900   2.182   0.959   9.560
 4483SOL    HW113901   2.264   0.977   9.516
 4483SOL    HW213902   2.152   0.876   9.522
 4484SOL     OW13903   3.340   0.743  10.039
 4484SOL    HW113904   3.333   0.701  10.125
 4484SOL    HW213905   3.417   0.799  10.046
 4485SOL     OW13906   2.329   1.264  11.048
 4485SOL    HW113907   2.302   1.268  10.956
 4485SOL    HW213908   2.247   1.261  11.098
 4486SOL     OW13909   2.984   1.778   9.541
 4486SOL    HW113910   2.910   1.736   9.586
 4486SOL    HW213911   3.007   1.716   9.472
 4487SOL     OW13912   2.035   0.276  10.808
 4487SOL    HW113913   1.975   0.350  10.802
 4487SOL    HW213914   2.043   0.259  10.902
 4488SOL     OW13915   3.488   1.382   9.397
 4488SOL    HW113916   3.446   1.466   9.382
 4488SOL    HW213917   3.420   1.317   9.378
 4489SOL     OW13918   2.337   1.716   9.651
 4489SOL    HW113919   2.372   1.791   9.699
 4489SOL    HW213920   2.394   1.710   9.574
 4490SOL     OW13921   3.297   0.165   9.712
 4490SOL    HW113922   3.255   0.094   9.664
 4490SOL    HW213923   3.373   0.125   9.754
 4491SOL     OW13924   2.159   1.766  10.538
 4491SOL    HW113925   2.197   1.685  10.569
 4491SOL    HW213926   2.120   1.743  10.453
 4492SOL     OW13927   2.799   1.699  10.208
 4492SOL    HW113928   2.877   1.647  10.230
 4492SOL    HW213929   2.756   1.649  10.139
 4493SOL     OW13930   2.255   0.695   9.785
 4493SOL    HW113931   2.275   0.603   9.797
 4493SOL    HW213932   2.161   0.702   9.804
 4494SOL     OW13933   3.393   0.231  11.037
 4494SOL    HW113934   3.389   0.256  11.129
 4494SOL    HW213935   3.367   0.139  11.036
 4495SOL     OW13936   2.504   0.134   9.417
 4495SOL    HW113937   2.534   0.052   9.457
 4495SOL    HW213938   2.441   0.106   9.350
 4496SOL     OW13939   2.639   0.281  11.075
 4496SOL    HW113940   2.705   0.213  11.080
 4496SOL    HW213941   2.578   0.262  11.147
 4497SOL     OW13942   2.738   1.522  10.504
 4497SOL    HW113943   2.722   1.486  10.417
 4497SOL    HW213944   2.808   1.468  10.540
 4498SOL     OW13945   3.204   0.587  10.740
 4498SOL    HW113946   3.233   0.559  10.827
 4498SOL    HW213947   3.237   0.676  10.731
 4499SOL     OW13948   2.677   1.395  10.250
 4499SOL    HW113949   2.761   1.383  10.206
 4499SOL    HW213950   2.613   1.396  10.179
 4500SOL     OW13951   2.791   0.511  10.212
 4500SOL    HW113952   2.767   0.503  10.119
 4500SOL    HW213953   2.819   0.423  10.237
 4501SOL     OW13954   2.408   0.057   9.802
 4501SOL    HW113955   2.333   0.062   9.862
 4501SOL    HW213956   2.403   0.138   9.751
 4502SOL     OW13957   3.289   1.199   9.351
 4502SOL    HW113958   3.320   1.123   9.401
 4502SOL    HW213959   3.204   1.220   9.389
 4503SOL     OW13960   2.189   0.043   9.519
 4503SOL    HW113961   2.202   0.111   9.453
 4503SOL    HW213962   2.273   0.037   9.565
 4504SOL     OW13963   2.802   0.248   9.772
 4504SOL    HW113964   2.776   0.289   9.689
 4504SOL    HW213965   2.897   0.251   9.772
 4505SOL     OW13966   2.942   0.682  10.769
 4505SOL    HW113967   2.871   0.618  10.776
 4505SOL    HW213968   3.021   0.629  10.764
 4506SOL     OW13969   3.085   1.570  10.104
 4506SOL    HW113970   3.101   1.637  10.037
 4506SOL    HW213971   3.154   1.584  10.169
 4507SOL     OW13972   2.332   1.150  10.043
 4507SOL    HW113973   2.262   1.131  10.107
 4507SOL    HW213974   2.291   1.134   9.958
 4508SOL     OW13975   3.131   1.794   9.918
 4508SOL    HW113976   3.178   1.854   9.861
 4508SOL    HW213977   3.065   1.848   9.962
 4509SOL     OW13978   2.885   0.545   9.335
 4509SOL    HW113979   2.841   0.628   9.316
 4509SOL    HW213980   2.948   0.567   9.404
 4510SOL     OW13981   1.941   0.552  10.705
 4510SOL    HW113982   2.033   0.552  10.676
 4510SOL    HW213983   1.935   0.624  10.767
 4511SOL     OW13984   2.427   0.232  10.471
 4511SOL    HW113985   2.452   0.140  10.482
 4511SOL    HW213986   2.337   0.236  10.503
 4512SOL     OW13987   2.732   0.461   9.949
 4512SOL    HW113988   2.684   0.515   9.886
 4512SOL    HW213989   2.752   0.380   9.901
 4513SOL     OW13990   2.857   0.041  10.089
 4513SOL    HW113991   2.823   0.067  10.004
 4513SOL    HW213992   2.867   3.946  10.083
 4514SOL     OW13993   3.300   1.162  10.168
 4514SOL    HW113994   3.230   1.097  10.166
 4514SOL    HW213995   3.325   1.174  10.076
 4515SOL     OW13996   3.327   0.606  10.287
 4515SOL    HW113997   3.276   0.525  10.292
 4515SOL    HW213998   3.388   0.600  10.361
 4516SOL     OW13999   3.722   0.824   9.685
 4516SOL    HW114000   3.764   0.766   9.749
 4516SOL    HW214001   3.683   0.764   9.621
 4517SOL     OW14002   2.355   1.418   9.466
 4517SOL    HW114003   2.280   1.391   9.520
 4517SOL    HW214004   2.338   1.379   9.380
 4518SOL     OW14005   3.528   1.265   9.956
 4518SOL    HW114006   3.623   1.269   9.965
 4518SOL    HW214007   3.498   1.353   9.976
 4519SOL     OW14008   3.256   0.574   9.379
 4519SOL    HW114009   3.193   0.555   9.449
 4519SOL    HW214010   3.342   0.556   9.419
 4520SOL     OW14011   2.389   0.266   9.627
 4520SOL    HW114012   2.441   0.226   9.558
 4520SOL    HW214013   2.362   0.351   9.591
 4521SOL     OW14014   3.614   1.234  10.880
 4521SOL    HW114015   3.701   1.199  10.863
 4521SOL    HW214016   3.630   1.323  10.911
 4522SOL     OW14017   2.920   1.354  10.644
 4522SOL    HW114018   2.845   1.322  10.695
 4522SOL    HW214019   2.996   1.312  10.685
 4523SOL     OW14020   3.467   1.627  10.964
 4523SOL    HW114021   3.461   1.661  10.875
 4523SOL    HW214022   3.549   1.577  10.965
 4524SOL     OW14023   2.991   1.204  10.415
 4524SOL    HW114024   2.932   1.242  10.480
 4524SOL    HW214025   2.959   1.236  10.331
 4525SOL     OW14026   3.492   1.097  10.386
 4525SOL    HW114027   3.485   1.159  10.459
 4525SOL    HW214028   3.414   1.113  10.333
 4526SOL     OW14029   2.775   0.113  10.712
 4526SOL    HW114030   2.795   0.088  10.622
 4526SOL    HW214031   2.855   0.155  10.743
 4527SOL     OW14032   2.846   1.115  11.033
 4527SOL    HW114033   2.754   1.131  11.055
 4527SOL    HW214034   2.844   1.037  10.978
 4528SOL     OW14035   2.570   1.061   9.681
 4528SOL    HW114036   2.556   1.045   9.774
 4528SOL    HW214037   2.646   1.008   9.658
 4529SOL     OW14038   2.281   0.815  10.561
 4529SOL    HW114039   2.350   0.823  10.628
 4529SOL    HW214040   2.246   0.727  10.574
 4530SOL     OW14041   3.129   0.375  10.585
 4530SOL    HW114042   3.163   0.453  10.630
 4530SOL    HW214043   3.042   0.401  10.555
 4531SOL     OW14044   1.934   1.577  10.663
 4531SOL    HW114045   1.900   1.641  10.601
 4531SOL    HW214046   2.029   1.580  10.650
 4532SOL     OW14047   2.211   1.109   9.801
 4532SOL    HW114048   2.216   1.184   9.741
 4532SOL    HW214049   2.208   1.033   9.743
 4533SOL     OW14050   2.418   0.535  10.168
 4533SOL    HW114051   2.432   0.594  10.094
 4533SOL    HW214052   2.481   0.562  10.234
 4534SOL     OW14053   3.110   1.348   9.699
 4534SOL    HW114054   3.166   1.420   9.730
 4534SOL    HW214055   3.023   1.370   9.733
 4535SOL     OW14056   3.143   1.458  10.457
 4535SOL    HW114057   3.199   1.461  10.535
 4535SOL    HW214058   3.088   1.381  10.470
 4536SOL     OW14059   3.436   0.631   9.793
 4536SOL    HW114060   3.396   0.689   9.858
 4536SOL    HW214061   3.485   0.690   9.735
 4537SOL     OW14062   2.215   1.514  10.628
 4537SOL    HW114063   2.200   1.473  10.542
 4537SOL    HW214064   2.310   1.526  10.633
 4538SOL     OW14065   2.277   0.744  10.911
 4538SOL    HW114066   2.338   0.790  10.853
 4538SOL    HW214067   2.318   0.660  10.928
 4539SOL     OW14068   3.464   0.777  10.991
 4539SOL    HW114069   3.378   0.819  10.985
 4539SOL    HW214070   3.516   0.819  10.924
 4540SOL     OW14071   2.882   0.125  11.089
 4540SOL    HW114072   2.922   0.202  11.048
 4540SOL    HW214073   2.864   0.066  11.016
 4541SOL     OW14074   2.348   0.034  11.073
 4541SOL    HW114075   2.353   0.043  10.978
 4541SOL    HW214076   2.290   0.105  11.100
 4542SOL     OW14077   2.446   0.873  10.342
 4542SOL    HW114078   2.474   0.964  10.341
 4542SOL    HW214079   2.388   0.866  10.418
 4543SOL     OW14080   3.219   0.859  10.339
 4543SOL    HW114081   3.135   0.849  10.293
 4543SOL    HW214082   3.260   0.772  10.333
 4544SOL     OW14083   3.065   0.535   9.571
 4544SOL    HW114084   3.073   0.456   9.624
 4544SOL    HW214085   3.022   0.599   9.628
 4545SOL     OW14086   2.163   0.211  10.552
 4545SOL    HW114087   2.123   0.240  10.634
 4545SOL    HW214088   2.151   0.116  10.552
 4546SOL     OW14089   1.906   1.313  10.588
 4546SOL    HW114090   1.941   1.257  10.658
 4546SOL    HW214091   1.915   1.402  10.622
 4547SOL     OW14092   2.586   0.633  10.365
 4547SOL    HW114093   2.661   0.618  10.307
 4547SOL    HW214094   2.557   0.721  10.345
 4548SOL     OW14095   3.595   0.957  11.169
 4548SOL    HW114096   3.550   0.900  11.107
 4548SOL    HW214097   3.531   0.970  11.239
 4549SOL     OW14098   2.184   0.057   9.958
 4549SOL    HW114099   2.163   0.150   9.969
 4549SOL    HW214100   2.145   0.014  10.034
 4550SOL     OW14101   3.471   0.389   9.690
 4550SOL    HW114102   3.439   0.320   9.749
 4550SOL    HW214103   3.449   0.471   9.735
 4551SOL     OW14104   2.891   0.759  10.270
 4551SOL    HW114105   2.886   0.776  10.364
 4551SOL    HW214106   2.863   0.668  10.261
 4552SOL     OW14107   2.844   1.567  11.027
 4552SOL    HW114108   2.829   1.610  10.943
 4552SOL    HW214109   2.887   1.484  11.004
 4553SOL     OW14110   3.707   1.502  10.910
 4553SOL    HW114111   3.729   1.530  10.821
 4553SOL    HW214112   3.788   1.515  10.960
 4554SOL     OW14113   2.215   0.915  11.119
 4554SOL    HW114114   2.297   0.935  11.164
 4554SOL    HW214115   2.240   0.853  11.050
 4555SOL     OW14116   3.367   0.275   9.445
 4555SOL    HW114117   3.292   0.217   9.457
 4555SOL    HW214118   3.381   0.314   9.532
 4556SOL     OW14119   3.152   0.827   9.340
 4556SOL    HW114120   3.195   0.741   9.343
 4556SOL    HW214121   3.185   0.866   9.259
 4557SOL     OW14122   2.928   1.336  10.164
 4557SOL    HW114123   2.931   1.263  10.102
 4557SOL    HW214124   2.989   1.401  10.129
 4558SOL     OW14125   2.170   0.809  10.257
 4558SOL    HW114126   2.263   0.831  10.250
 4558SOL    HW214127   2.168   0.719  10.289
 4559SOL     OW14128   2.199   0.534  10.323
 4559SOL    HW114129   2.158   0.449  10.307
 4559SOL    HW214130   2.275   0.535  10.265
 4560SOL     OW14131   2.995   0.382  11.004
 4560SOL    HW114132   2.947   0.437  11.066
 4560SOL    HW214133   3.082   0.422  10.999
 4561SOL     OW14134   3.013   0.225  10.791
 4561SOL    HW114135   3.004   0.279  10.869
 4561SOL    HW214136   3.036   0.287  10.721
 4562SOL     OW14137   1.866   1.320   9.503
 4562SOL    HW114138   1.779   1.333   9.467
 4562SOL    HW214139   1.865   1.231   9.538
 4563SOL     OW14140   1.978   1.729  10.297
 4563SOL    HW114141   1.940   1.667  10.234
 4563SOL    HW214142   2.019   1.796  10.242
 4564SOL     OW14143   2.361   1.570  10.220
 4564SOL    HW114144   2.429   1.634  10.242
 4564SOL    HW214145   2.405   1.509  10.161
 4565SOL     OW14146   2.844   0.790  10.535
 4565SOL    HW114147   2.899   0.769  10.611
 4565SOL    HW214148   2.758   0.756  10.558
 4566SOL     OW14149   1.895   0.546  10.427
 4566SOL    HW114150   1.971   0.521  10.374
 4566SOL    HW214151   1.928   0.547  10.517
 4567SOL     OW14152   2.064   0.526  11.024
 4567SOL    HW114153   2.133   0.504  10.960
 4567SOL    HW214154   2.018   0.600  10.985
 4568SOL     OW14155   3.241   0.938  10.968
 4568SOL    HW114156   3.261   1.032  10.967
 4568SOL    HW214157   3.236   0.913  10.876
 4569SOL     OW14158   2.678   0.572   9.671
 4569SOL    HW114159   2.684   0.496   9.612
 4569SOL    HW214160   2.604   0.622   9.638
 4570SOL     OW14161   3.503   0.602  10.495
 4570SOL    HW114162   3.492   0.541  10.568
 4570SOL    HW214163   3.589   0.580  10.459
 4571SOL     OW14164   2.115   1.537  11.018
 4571SOL    HW114165   2.099   1.607  11.082
 4571SOL    HW214166   2.116   1.457  11.071
 4572SOL     OW14167   2.564   0.455  10.569
 4572SOL    HW114168   2.515   0.377  10.542
 4572SOL    HW214169   2.558   0.514  10.494
 4573SOL     OW14170   2.789   1.679  10.778
 4573SOL    HW114171   2.764   1.644  10.692
 4573SOL    HW214172   2.785   1.774  10.767
 4574SOL     OW14173   2.326   0.494   9.495
 4574SOL    HW114174   2.384   0.567   9.518
 4574SOL    HW214175   2.241   0.534   9.483
 4575SOL     OW14176   2.006   1.140  10.782
 4575SOL    HW114177   2.009   1.089  10.863
 4575SOL    HW214178   2.024   1.077  10.713
 4576SOL     OW14179   3.186   1.046  10.533
 4576SOL    HW114180   3.210   0.984  10.465
 4576SOL    HW214181   3.117   1.099  10.494
 4577SOL     OW14182   3.174   0.855   9.616
 4577SOL    HW114183   3.098   0.827   9.667
 4577SOL    HW214184   3.148   0.843   9.525
 4578SOL     OW14185   3.639   1.744  10.464
 4578SOL    HW114186   3.694   1.771  10.391
 4578SOL    HW214187   3.611   1.655  10.442
 4579SOL     OW14188   3.103   1.734  10.423
 4579SOL    HW114189   3.185   1.755  10.378
 4579SOL    HW214190   3.109   1.640  10.441
 4580SOL     OW14191   1.948   1.264  10.324
 4580SOL    HW114192   1.931   1.279  10.417
 4580SOL    HW214193   1.873   1.212  10.295
 4581SOL     OW14194   2.538   1.666  11.038
 4581SOL    HW114195   2.487   1.746  11.038
 4581SOL    HW214196   2.604   1.678  10.970
 4582SOL     OW14197   3.553   0.122   9.797
 4582SOL    HW114198   3.635   0.135   9.749
 4582SOL    HW214199   3.554   0.029   9.819
 4583SOL     OW14200   3.252   1.567   9.795
 4583SOL    HW114201   3.312   1.600   9.729
 4583SOL    HW214202   3.204   1.645   9.824
 4584SOL     OW14203   2.040   1.740  11.172
 4584SOL    HW114204   1.972   1.698  11.224
 4584SOL    HW214205   2.009   1.829  11.158
 4585SOL     OW14206   3.139   0.926   9.981
 4585SOL    HW114207   3.213   0.866   9.989
 4585SOL    HW214208   3.173   0.999   9.929
 4586SOL     OW14209   2.675   1.273  10.739
 4586SOL    HW114210   2.647   1.312  10.822
 4586SOL    HW214211   2.606   1.295  10.678
 4587SOL     OW14212   2.537   1.619   9.461
 4587SOL    HW114213   2.544   1.630   9.366
 4587SOL    HW214214   2.480   1.543   9.473
 4588SOL     OW14215   3.485   1.727  10.701
 4588SOL    HW114216   3.539   1.732  10.622
 4588SOL    HW214217   3.473   1.818  10.728
 4589SOL     OW14218   3.702   0.180  10.281
 4589SOL    HW114219   3.727   0.097  10.241
 4589SOL    HW214220   3.616   0.199  10.244
 4590SOL     OW14221   2.127   0.317  10.025
 4590SOL    HW114222   2.040   0.352  10.004
 4590SOL    HW214223   2.125   0.307  10.120
 4591SOL     OW14224   3.069   1.606   9.341
 4591SOL    HW114225   3.059   1.514   9.368
 4591SOL    HW214226   3.004   1.617   9.273
 4592SOL     OW14227   2.687   1.006  10.682
 4592SOL    HW114228   2.728   1.003  10.596
 4592SOL    HW214229   2.685   1.099  10.705
 4593SOL     OW14230   2.778   0.910   9.600
 4593SOL    HW114231   2.839   0.943   9.534
 4593SOL    HW214232   2.826   0.841   9.645
 4594SOL     OW14233   3.353   1.626   9.352
 4594SOL    HW114234   3.258   1.619   9.338
 4594SOL    HW214235   3.390   1.632   9.264
 4595SOL     OW14236   2.232   1.297  10.803
 4595SOL    HW114237   2.220   1.376  10.749
 4595SOL    HW214238   2.154   1.245  10.786
 4596SOL     OW14239   3.465   1.280  10.589
 4596SOL    HW114240   3.533   1.273  10.656
 4596SOL    HW214241   3.408   1.350  10.619
 4597SOL     OW14242   2.915   1.107  10.017
 4597SOL    HW114243   2.843   1.057  10.056
 4597SOL    HW214244   2.977   1.042   9.985
 4598SOL     OW14245   2.877   0.248  10.278
 4598SOL    HW114246   2.866   0.198  10.197
 4598SOL    HW214247   2.871   0.182  10.348
 4599SOL     OW14248   2.464   1.489   9.791
 4599SOL    HW114249   2.506   1.440   9.720
 4599SOL    HW214250   2.402   1.547   9.746
 4600SOL     OW14251   3.582   0.392  10.683
 4600SOL    HW114252   3.653   0.456  10.682
 4600SOL    HW214253   3.613   0.320  10.629
 4601SOL     OW14254   2.121   1.345   9.596
 4601SOL    HW114255   2.027   1.342   9.575
 4601SOL    HW214256   2.125   1.380   9.685
 4602SOL     OW14257   1.975   1.023  11.030
 4602SOL    HW114258   1.898   0.999  11.083
 4602SOL    HW214259   2.049   0.985  11.077
 4603SOL     OW14260   2.554   0.247  10.809
 4603SOL    HW114261   2.622   0.194  10.768
 4603SOL    HW214262   2.581   0.255  10.900
 4604SOL     OW14263   1.960   0.318   9.300
 4604SOL    HW114264   1.888   0.337   9.360
 4604SOL    HW214265   1.972   0.400   9.252
 4605SOL     OW14266   3.289   0.857  10.709
 4605SOL    HW114267   3.240   0.919  10.655
 4605SOL    HW214268   3.378   0.860  10.674
 4606SOL     OW14269   1.944   0.154   9.650
 4606SOL    HW114270   1.913   0.215   9.584
 4606SOL    HW214271   2.029   0.124   9.619
 4607SOL     OW14272   3.041   1.339   9.427
 4607SOL    HW114273   2.950   1.309   9.430
 4607SOL    HW214274   3.069   1.340   9.519
 4608SOL     OW14275   2.482   0.829  10.743
 4608SOL    HW114276   2.538   0.905  10.728
 4608SOL    HW214277   2.543   0.756  10.752
 4609SOL     OW14278   3.345   1.779  10.289
 4609SOL    HW114279   3.369   1.838  10.217
 4609SOL    HW214280   3.428   1.755  10.329
 4610SOL     OW14281   2.580   0.562  11.015
 4610SOL    HW114282   2.620   0.626  11.075
 4610SOL    HW214283   2.609   0.477  11.048
 4611SOL     OW14284   3.333   1.200  10.942
 4611SOL    HW114285   3.322   1.214  11.036
 4611SOL    HW214286   3.427   1.215  10.926
 4612SOL     OW14287   2.239   1.746  10.882
 4612SOL    HW114288   2.163   1.761  10.826
 4612SOL    HW214289   2.222   1.661  10.923
 4613SOL     OW14290   3.528   0.881  10.569
 4613SOL    HW114291   3.526   0.796  10.525
 4613SOL    HW214292   3.522   0.945  10.498
 4614SOL     OW14293   3.084   0.335   9.755
 4614SOL    HW114294   3.152   0.268   9.746
 4614SOL    HW214295   3.106   0.380   9.837
 4615SOL     OW14296   2.453   0.738   9.979
 4615SOL    HW114297   2.491   0.824   9.964
 4615SOL    HW214298   2.384   0.730   9.913
 4616SOL     OW14299   3.618   0.380  10.952
 4616SOL    HW114300   3.597   0.388  10.859
 4616SOL    HW214301   3.558   0.313  10.984
 4617SOL     OW14302   3.614   0.931  10.824
 4617SOL    HW114303   3.607   1.025  10.840
 4617SOL    HW214304   3.592   0.921  10.732
 4618SOL     OW14305   2.723   1.367   9.344
 4618SOL    HW114306   2.686   1.394   9.428
 4618SOL    HW214307   2.742   1.450   9.299
 4619SOL     OW14308   2.523   1.794  10.255
 4619SOL    HW114309   2.506   1.885  10.228
 4619SOL    HW214310   2.618   1.784  10.246
 4620SOL     OW14311   2.729   0.967  10.165
 4620SOL    HW114312   2.780   0.896  10.204
 4620SOL    HW214313   2.694   1.016  10.240
 4621SOL     OW14314   2.941   0.989   9.399
 4621SOL    HW114315   2.919   1.040   9.321
 4621SOL    HW214316   3.016   0.935   9.372
 4622SOL     OW14317   3.716   1.557  10.152
 4622SOL    HW114318   3.638   1.540  10.100
 4622SOL    HW214319   3.714   1.490  10.220
 4623SOL     OW14320   2.088   1.301  11.166
 4623SOL    HW114321   2.020   1.240  11.140
 4623SOL    HW214322   2.074   1.313  11.260
 4624SOL     OW14323   1.942   1.227   9.975
 4624SOL    HW114324   1.954   1.181  10.058
 4624SOL    HW214325   2.015   1.196   9.921
 4625SOL     OW14326   2.543   1.403  10.937
 4625SOL    HW114327   2.464   1.360  10.969
 4625SOL    HW214328   2.538   1.491  10.975
 4626SOL     OW14329   3.677   0.182  10.554
 4626SOL    HW114330   3.679   0.087  10.562
 4626SOL    HW214331   3.694   0.198  10.461
 4627SOL     OW14332   2.290   0.434   9.835
 4627SOL    HW114333   2.323   0.362   9.781
 4627SOL    HW214334   2.244   0.391   9.906
 4628SOL     OW14335   3.560   1.491  10.408
 4628SOL    HW114336   3.481   1.467  10.360
 4628SOL    HW214337   3.573   1.420  10.471
 4629SOL     OW14338   2.191   0.555  10.603
 4629SOL    HW114339   2.245   0.497  10.657
 4629SOL    HW214340   2.211   0.529  10.513
 4630SOL     OW14341   2.689   1.578   9.987
 4630SOL    HW114342   2.675   1.630   9.908
 4630SOL    HW214343   2.613   1.520   9.991
 4631SOL     OW14344   3.323   0.252  10.421
 4631SOL    HW114345   3.337   0.164  10.456
 4631SOL    HW214346   3.266   0.295  10.485
 4632SOL     OW14347   2.867   0.029  10.457
 4632SOL    HW114348   2.789   3.983  10.425
 4632SOL    HW214349   2.934   3.960  10.465
 4633SOL     OW14350   2.635   1.332   9.623
 4633SOL    HW114351   2.603   1.242   9.631
 4633SOL    HW214352   2.716   1.333   9.675
 4634SOL     OW14353   2.483   1.556  10.596
 4634SOL    HW114354   2.484   1.638  10.645
 4634SOL    HW214355   2.570   1.549  10.558
 4635SOL     OW14356   3.176   0.072   9.470
 4635SOL    HW114357   3.187   3.996   9.412
 4635SOL    HW214358   3.091   0.058   9.511
 4636SOL     OW14359   3.145   0.457   9.996
 4636SOL    HW114360   3.098   0.540   9.992
 4636SOL    HW214361   3.149   0.436  10.090
 4637SOL     OW14362   3.452   0.210  10.177
 4637SOL    HW114363   3.403   0.233  10.256
 4637SOL    HW214364   3.451   0.290  10.124
 4638SOL     OW14365   1.906   1.071   9.615
 4638SOL    HW114366   2.000   1.063   9.599
 4638SOL    HW214367   1.878   0.983   9.639
 4639SOL     OW14368   2.746   1.654   9.653
 4639SOL    HW114369   2.674   1.636   9.592
 4639SOL    HW214370   2.715   1.728   9.704
 4640SOL     OW14371   2.091   0.620  11.293
 4640SOL    HW114372   2.001   0.627  11.324
 4640SOL    HW214373   2.083   0.600  11.200
 4641SOL     OW14374   2.079   0.299  12.163
 4641SOL    HW114375   2.116   0.256  12.240
 4641SOL    HW214376   1.995   0.254  12.150
 4642SOL     OW14377   1.871   0.395  11.807
 4642SOL    HW114378   1.784   0.411  11.844
 4642SOL    HW214379   1.859   0.325  11.744
 4643SOL     OW14380   2.429   1.287  12.347
 4643SOL    HW114381   2.342   1.291  12.307
 4643SOL    HW214382   2.445   1.376  12.379
 4644SOL     OW14383   3.423   1.512  11.879
 4644SOL    HW114384   3.380   1.492  11.962
 4644SOL    HW214385   3.351   1.517  11.816
 4645SOL     OW14386   2.994   0.698  11.872
 4645SOL    HW114387   3.042   0.780  11.858
 4645SOL    HW214388   2.946   0.712  11.954
 4646SOL     OW14389   3.621   0.622  11.400
 4646SOL    HW114390   3.605   0.611  11.306
 4646SOL    HW214391   3.606   0.535  11.438
 4647SOL     OW14392   2.618   1.142  12.214
 4647SOL    HW114393   2.549   1.177  12.270
 4647SOL    HW214394   2.653   1.219  12.169
 4648SOL     OW14395   2.730   0.774  12.995
 4648SOL    HW114396   2.715   0.846  13.056
 4648SOL    HW214397   2.753   0.817  12.912
 4649SOL     OW14398   2.548   1.002  11.818
 4649SOL    HW114399   2.613   0.991  11.888
 4649SOL    HW214400   2.479   1.055  11.858
 4650SOL     OW14401   2.573   1.151  12.984
 4650SOL    HW114402   2.620   1.229  13.012
 4650SOL    HW214403   2.490   1.184  12.949
 4651SOL     OW14404   2.194   1.421  12.240
 4651SOL    HW114405   2.118   1.389  12.191
 4651SOL    HW214406   2.242   1.475  12.177
 4652SOL     OW14407   3.322   1.500  12.527
 4652SOL    HW114408   3.374   1.580  12.536
 4652SOL    HW214409   3.260   1.503  12.600
 4653SOL     OW14410   2.305   0.395  12.667
 4653SOL    HW114411   2.394   0.360  12.665
 4653SOL    HW214412   2.249   0.319  12.674
 4654SOL     OW14413   3.473   0.450  11.908
 4654SOL    HW114414   3.402   0.483  11.853
 4654SOL    HW214415   3.498   0.525  11.962
 4655SOL     OW14416   2.093   1.693  11.631
 4655SOL    HW114417   2.110   1.760  11.698
 4655SOL    HW214418   2.171   1.696  11.575
 4656SOL     OW14419   2.998   1.342  12.865
 4656SOL    HW114420   3.039   1.337  12.951
 4656SOL    HW214421   2.946   1.262  12.858
 4657SOL     OW14422   2.092   1.431  11.708
 4657SOL    HW114423   2.081   1.526  11.700
 4657SOL    HW214424   2.028   1.406  11.775
 4658SOL     OW14425   2.120   1.090  12.062
 4658SOL    HW114426   2.116   1.003  12.103
 4658SOL    HW214427   2.063   1.144  12.117
 4659SOL     OW14428   2.474   1.791  12.603
 4659SOL    HW114429   2.392   1.774  12.651
 4659SOL    HW214430   2.498   1.881  12.628
 4660SOL     OW14431   2.447   0.982  11.307
 4660SOL    HW114432   2.493   1.031  11.238
 4660SOL    HW214433   2.487   1.013  11.388
 4661SOL     OW14434   3.442   0.138  12.629
 4661SOL    HW114435   3.466   0.212  12.572
 4661SOL    HW214436   3.412   0.179  12.710
 4662SOL     OW14437   1.977   0.655  11.732
 4662SOL    HW114438   1.951   0.566  11.755
 4662SOL    HW214439   1.970   0.704  11.813
 4663SOL     OW14440   3.701   1.758  11.508
 4663SOL    HW114441   3.769   1.733  11.571
 4663SOL    HW214442   3.721   1.848  11.486
 4664SOL     OW14443   1.862   1.606  11.326
 4664SOL    HW114444   1.855   1.512  11.310
 4664SOL    HW214445   1.885   1.613  11.419
 4665SOL     OW14446   3.549   0.917  11.814
 4665SOL    HW114447   3.634   0.876  11.799
 4665SOL    HW214448   3.532   0.968  11.735
 4666SOL     OW14449   3.504   1.106  11.603
 4666SOL    HW114450   3.588   1.113  11.559
 4666SOL    HW214451   3.510   1.168  11.676
 4667SOL     OW14452   1.985   0.748  12.754
 4667SOL    HW114453   2.076   0.776  12.761
 4667SOL    HW214454   1.934   0.829  12.762
 4668SOL     OW14455   2.476   1.386  11.906
 4668SOL    HW114456   2.430   1.303  11.916
 4668SOL    HW214457   2.458   1.413  11.816
 4669SOL     OW14458   3.150   1.238  12.595
 4669SOL    HW114459   3.183   1.172  12.535
 4669SOL    HW214460   3.208   1.232  12.671
 4670SOL     OW14461   2.680   0.003  11.688
 4670SOL    HW114462   2.725   0.084  11.664
 4670SOL    HW214463   2.587   0.027  11.689
 4671SOL     OW14464   2.052   0.965  12.445
 4671SOL    HW114465   2.137   0.924  12.429
 4671SOL    HW214466   1.990   0.912  12.394
 4672SOL     OW14467   3.391   0.994  11.371
 4672SOL    HW114468   3.322   0.937  11.404
 4672SOL    HW214469   3.433   1.029  11.450
 4673SOL     OW14470   3.047   1.807  12.794
 4673SOL    HW114471   3.058   1.865  12.719
 4673SOL    HW214472   3.064   1.719  12.759
 4674SOL     OW14473   2.215   0.254  13.000
 4674SOL    HW114474   2.259   0.340  12.999
 4674SOL    HW214475   2.123   0.275  13.009
 4675SOL     OW14476   3.328   1.420  12.123
 4675SOL    HW114477   3.260   1.435  12.189
 4675SOL    HW214478   3.316   1.329  12.097
 4676SOL     OW14479   3.518   1.741  11.751
 4676SOL    HW114480   3.501   1.710  11.662
 4676SOL    HW214481   3.496   1.667  11.807
 4677SOL     OW14482   2.457   0.721  11.438
 4677SOL    HW114483   2.463   0.803  11.389
 4677SOL    HW214484   2.393   0.739  11.507
 4678SOL     OW14485   3.138   0.365  12.112
 4678SOL    HW114486   3.050   0.326  12.119
 4678SOL    HW214487   3.195   0.304  12.158
 4679SOL     OW14488   3.440   1.670  11.481
 4679SOL    HW114489   3.530   1.701  11.476
 4679SOL    HW214490   3.415   1.654  11.391
 4680SOL     OW14491   2.658   0.616  12.625
 4680SOL    HW114492   2.629   0.592  12.713
 4680SOL    HW214493   2.617   0.551  12.567
 4681SOL     OW14494   3.254   0.476  12.849
 4681SOL    HW114495   3.259   0.521  12.934
 4681SOL    HW214496   3.313   0.401  12.859
 4682SOL     OW14497   2.816   0.888  12.755
 4682SOL    HW114498   2.871   0.818  12.719
 4682SOL    HW214499   2.768   0.922  12.679
 4683SOL     OW14500   2.854   0.403  12.412
 4683SOL    HW114501   2.770   0.427  12.453
 4683SOL    HW214502   2.829   0.373  12.325
 4684SOL     OW14503   2.913   0.699  11.598
 4684SOL    HW114504   2.928   0.692  11.692
 4684SOL    HW214505   2.831   0.652  11.583
 4685SOL     OW14506   1.950   0.822  11.948
 4685SOL    HW114507   2.030   0.814  11.999
 4685SOL    HW214508   1.907   0.900  11.984
 4686SOL     OW14509   2.756   0.351  11.371
 4686SOL    HW114510   2.797   0.410  11.308
 4686SOL    HW214511   2.752   0.266  11.326
 4687SOL     OW14512   3.572   0.576  13.001
 4687SOL    HW114513   3.534   0.650  12.955
 4687SOL    HW214514   3.596   0.514  12.932
 4688SOL     OW14515   3.238   1.141  11.713
 4688SOL    HW114516   3.318   1.129  11.661
 4688SOL    HW214517   3.186   1.204  11.663
 4689SOL     OW14518   2.418   0.198  12.054
 4689SOL    HW114519   2.422   0.216  12.148
 4689SOL    HW214520   2.415   0.284  12.012
 4690SOL     OW14521   2.868   1.444  11.644
 4690SOL    HW114522   2.830   1.517  11.594
 4690SOL    HW214523   2.849   1.466  11.735
 4691SOL     OW14524   2.226   1.800  12.006
 4691SOL    HW114525   2.260   1.714  12.031
 4691SOL    HW214526   2.292   1.862  12.037
 4692SOL     OW14527   3.666   1.062  12.038
 4692SOL    HW114528   3.611   1.040  11.963
 4692SOL    HW214529   3.605   1.065  12.112
 4693SOL     OW14530   3.090   1.539  12.685
 4693SOL    HW114531   3.076   1.466  12.746
 4693SOL    HW214532   3.026   1.524  12.615
 4694SOL     OW14533   2.182   0.958  11.423
 4694SOL    HW114534   2.264   0.977  11.377
 4694SOL    HW214535   2.152   0.876  11.384
 4695SOL     OW14536   3.341   0.743  11.901
 4695SOL    HW114537   3.333   0.701  11.987
 4695SOL    HW214538   3.417   0.799  11.908
 4696SOL     OW14539   2.329   1.263  12.910
 4696SOL    HW114540   2.302   1.268  12.819
 4696SOL    HW214541   2.247   1.261  12.960
 4697SOL     OW14542   2.984   1.778  11.403
 4697SOL    HW114543   2.910   1.736  11.448
 4697SOL    HW214544   3.007   1.716  11.334
 4698SOL     OW14545   2.035   0.276  12.670
 4698SOL    HW114546   1.975   0.350  12.664
 4698SOL    HW214547   2.043   0.259  12.764
 4699SOL     OW14548   3.488   1.382  11.259
 4699SOL    HW114549   3.446   1.466  11.244
 4699SOL    HW214550   3.420   1.317  11.240
 4700SOL     OW14551   2.338   1.717  11.512
 4700SOL    HW114552   2.373   1.792  11.560
 4700SOL    HW214553   2.395   1.709  11.435
 4701SOL     OW14554   3.297   0.165  11.574
 4701SOL    HW114555   3.255   0.094  11.527
 4701SOL    HW214556   3.373   0.125  11.616
 4702SOL     OW14557   2.157   1.764  12.405
 4702SOL    HW114558   2.197   1.682  12.435
 4702SOL    HW214559   2.121   1.743  12.319
 4703SOL     OW14560   2.799   1.699  12.070
 4703SOL    HW114561   2.877   1.647  12.092
 4703SOL    HW214562   2.756   1.649  12.001
 4704SOL     OW14563   2.255   0.695  11.647
 4704SOL    HW114564   2.275   0.602  11.659
 4704SOL    HW214565   2.162   0.702  11.666
 4705SOL     OW14566   3.393   0.231  12.898
 4705SOL    HW114567   3.389   0.256  12.991
 4705SOL    HW214568   3.367   0.139  12.898
 4706SOL     OW14569   2.504   0.134  11.279
 4706SOL    HW114570   2.534   0.052  11.319
 4706SOL    HW214571   2.441   0.106  11.212
 4707SOL     OW14572   2.639   0.282  12.937
 4707SOL    HW114573   2.705   0.213  12.942
 4707SOL    HW214574   2.578   0.262  13.009
 4708SOL     OW14575   2.738   1.522  12.366
 4708SOL    HW114576   2.722   1.486  12.278
 4708SOL    HW214577   2.808   1.468  12.402
 4709SOL     OW14578   3.204   0.587  12.602
 4709SOL    HW114579   3.233   0.559  12.689
 4709SOL    HW214580   3.237   0.676  12.593
 4710SOL     OW14581   2.677   1.395  12.112
 4710SOL    HW114582   2.761   1.383  12.068
 4710SOL    HW214583   2.613   1.396  12.041
 4711SOL     OW14584   2.791   0.511  12.074
 4711SOL    HW114585   2.767   0.503  11.981
 4711SOL    HW214586   2.819   0.423  12.099
 4712SOL     OW14587   2.408   0.057  11.664
 4712SOL    HW114588   2.333   0.062  11.724
 4712SOL    HW214589   2.403   0.138  11.613
 4713SOL     OW14590   3.290   1.199  11.213
 4713SOL    HW114591   3.320   1.123  11.263
 4713SOL    HW214592   3.204   1.220  11.251
 4714SOL     OW14593   2.189   0.043  11.381
 4714SOL    HW114594   2.202   0.111  11.315
 4714SOL    HW214595   2.273   0.037  11.427
 4715SOL     OW14596   2.802   0.248  11.634
 4715SOL    HW114597   2.776   0.289  11.551
 4715SOL    HW214598   2.897   0.251  11.633
 4716SOL     OW14599   2.942   0.682  12.631
 4716SOL    HW114600   2.871   0.618  12.638
 4716SOL    HW214601   3.021   0.629  12.626
 4717SOL     OW14602   3.085   1.570  11.966
 4717SOL    HW114603   3.101   1.637  11.899
 4717SOL    HW214604   3.154   1.584  12.031
 4718SOL     OW14605   2.332   1.149  11.905
 4718SOL    HW114606   2.262   1.131  11.969
 4718SOL    HW214607   2.291   1.134  11.820
 4719SOL     OW14608   3.131   1.794  11.780
 4719SOL    HW114609   3.178   1.854  11.723
 4719SOL    HW214610   3.065   1.848  11.824
 4720SOL     OW14611   2.885   0.545  11.197
 4720SOL    HW114612   2.841   0.628  11.178
 4720SOL    HW214613   2.948   0.567  11.266
 4721SOL     OW14614   1.941   0.552  12.567
 4721SOL    HW114615   2.033   0.552  12.538
 4721SOL    HW214616   1.935   0.624  12.629
 4722SOL     OW14617   2.427   0.232  12.333
 4722SOL    HW114618   2.452   0.140  12.344
 4722SOL    HW214619   2.337   0.236  12.365
 4723SOL     OW14620   2.732   0.461  11.811
 4723SOL    HW114621   2.684   0.515  11.748
 4723SOL    HW214622   2.752   0.380  11.763
 4724SOL     OW14623   2.857   0.041  11.951
 4724SOL    HW114624   2.823   0.067  11.866
 4724SOL    HW214625   2.867   3.946  11.945
 4725SOL     OW14626   3.300   1.162  12.030
 4725SOL    HW114627   3.229   1.098  12.028
 4725SOL    HW214628   3.325   1.174  11.938
 4726SOL     OW14629   3.327   0.606  12.149
 4726SOL    HW114630   3.276   0.525  12.154
 4726SOL    HW214631   3.388   0.600  12.223
 4727SOL     OW14632   3.722   0.824  11.547
 4727SOL    HW114633   3.764   0.766  11.611
 4727SOL    HW214634   3.683   0.764  11.483
 4728SOL     OW14635   2.355   1.418  11.328
 4728SOL    HW114636   2.280   1.391  11.381
 4728SOL    HW214637   2.338   1.380  11.242
 4729SOL     OW14638   3.528   1.265  11.818
 4729SOL    HW114639   3.623   1.269  11.827
 4729SOL    HW214640   3.498   1.353  11.838
 4730SOL     OW14641   3.256   0.574  11.241
 4730SOL    HW114642   3.193   0.555  11.311
 4730SOL    HW214643   3.342   0.556  11.281
 4731SOL     OW14644   2.389   0.266  11.489
 4731SOL    HW114645   2.441   0.226  11.420
 4731SOL    HW214646   2.362   0.351  11.453
 4732SOL     OW14647   3.614   1.234  12.742
 4732SOL    HW114648   3.701   1.199  12.724
 4732SOL    HW214649   3.630   1.323  12.773
 4733SOL     OW14650   2.920   1.354  12.506
 4733SOL    HW114651   2.845   1.322  12.557
 4733SOL    HW214652   2.996   1.312  12.547
 4734SOL     OW14653   3.467   1.627  12.826
 4734SOL    HW114654   3.461   1.661  12.737
 4734SOL    HW214655   3.549   1.577  12.827
 4735SOL     OW14656   2.991   1.204  12.277
 4735SOL    HW114657   2.932   1.242  12.342
 4735SOL    HW214658   2.959   1.236  12.193
 4736SOL     OW14659   3.492   1.097  12.248
 4736SOL    HW114660   3.485   1.159  12.321
 4736SOL    HW214661   3.414   1.113  12.195
 4737SOL     OW14662   2.775   0.113  12.574
 4737SOL    HW114663   2.795   0.087  12.484
 4737SOL    HW214664   2.855   0.155  12.605
 4738SOL     OW14665   2.846   1.115  12.896
 4738SOL    HW114666   2.754   1.131  12.916
 4738SOL    HW214667   2.844   1.037  12.840
 4739SOL     OW14668   2.570   1.061  11.543
 4739SOL    HW114669   2.556   1.045  11.636
 4739SOL    HW214670   2.646   1.008  11.520
 4740SOL     OW14671   2.281   0.815  12.423
 4740SOL    HW114672   2.350   0.823  12.490
 4740SOL    HW214673   2.246   0.727  12.436
 4741SOL     OW14674   3.129   0.375  12.447
 4741SOL    HW114675   3.163   0.453  12.492
 4741SOL    HW214676   3.042   0.401  12.417
 4742SOL     OW14677   1.934   1.577  12.525
 4742SOL    HW114678   1.898   1.641  12.464
 4742SOL    HW214679   2.029   1.581  12.512
 4743SOL     OW14680   2.211   1.109  11.663
 4743SOL    HW114681   2.216   1.184  11.604
 4743SOL    HW214682   2.208   1.033  11.605
 4744SOL     OW14683   2.418   0.535  12.030
 4744SOL    HW114684   2.432   0.594  11.956
 4744SOL    HW214685   2.481   0.562  12.096
 4745SOL     OW14686   3.110   1.348  11.561
 4745SOL    HW114687   3.166   1.420  11.592
 4745SOL    HW214688   3.023   1.370  11.595
 4746SOL     OW14689   3.143   1.458  12.319
 4746SOL    HW114690   3.199   1.461  12.397
 4746SOL    HW214691   3.088   1.381  12.332
 4747SOL     OW14692   3.436   0.631  11.655
 4747SOL    HW114693   3.396   0.689  11.720
 4747SOL    HW214694   3.484   0.690  11.597
 4748SOL     OW14695   2.216   1.512  12.490
 4748SOL    HW114696   2.201   1.471  12.405
 4748SOL    HW214697   2.311   1.524  12.494
 4749SOL     OW14698   2.277   0.745  12.774
 4749SOL    HW114699   2.338   0.790  12.715
 4749SOL    HW214700   2.318   0.660  12.790
 4750SOL     OW14701   3.463   0.777  12.853
 4750SOL    HW114702   3.378   0.819  12.846
 4750SOL    HW214703   3.516   0.819  12.785
 4751SOL     OW14704   2.882   0.125  12.951
 4751SOL    HW114705   2.922   0.202  12.910
 4751SOL    HW214706   2.864   0.065  12.878
 4752SOL     OW14707   2.348   0.034  12.935
 4752SOL    HW114708   2.353   0.043  12.840
 4752SOL    HW214709   2.289   0.105  12.962
 4753SOL     OW14710   2.446   0.873  12.204
 4753SOL    HW114711   2.474   0.964  12.203
 4753SOL    HW214712   2.388   0.866  12.280
 4754SOL     OW14713   3.219   0.859  12.201
 4754SOL    HW114714   3.135   0.849  12.155
 4754SOL    HW214715   3.260   0.772  12.195
 4755SOL     OW14716   3.065   0.535  11.433
 4755SOL    HW114717   3.073   0.456  11.486
 4755SOL    HW214718   3.022   0.599  11.490
 4756SOL     OW14719   2.163   0.211  12.414
 4756SOL    HW114720   2.123   0.240  12.496
 4756SOL    HW214721   2.151   0.116  12.414
 4757SOL     OW14722   1.906   1.313  12.450
 4757SOL    HW114723   1.941   1.257  12.520
 4757SOL    HW214724   1.915   1.402  12.483
 4758SOL     OW14725   2.586   0.633  12.227
 4758SOL    HW114726   2.661   0.618  12.169
 4758SOL    HW214727   2.557   0.721  12.207
 4759SOL     OW14728   3.596   0.955  13.033
 4759SOL    HW114729   3.550   0.900  12.969
 4759SOL    HW214730   3.531   0.970  13.102
 4760SOL     OW14731   2.184   0.057  11.820
 4760SOL    HW114732   2.163   0.150  11.831
 4760SOL    HW214733   2.145   0.014  11.896
 4761SOL     OW14734   3.471   0.389  11.552
 4761SOL    HW114735   3.439   0.320  11.611
 4761SOL    HW214736   3.449   0.471  11.597
 4762SOL     OW14737   2.891   0.759  12.132
 4762SOL    HW114738   2.886   0.776  12.226
 4762SOL    HW214739   2.863   0.668  12.123
 4763SOL     OW14740   2.844   1.566  12.889
 4763SOL    HW114741   2.829   1.610  12.805
 4763SOL    HW214742   2.887   1.484  12.866
 4764SOL     OW14743   3.707   1.502  12.772
 4764SOL    HW114744   3.729   1.530  12.683
 4764SOL    HW214745   3.788   1.516  12.822
 4765SOL     OW14746   2.215   0.914  12.982
 4765SOL    HW114747   2.297   0.935  13.026
 4765SOL    HW214748   2.239   0.853  12.913
 4766SOL     OW14749   3.367   0.275  11.307
 4766SOL    HW114750   3.292   0.217  11.319
 4766SOL    HW214751   3.381   0.314  11.394
 4767SOL     OW14752   3.153   0.827  11.202
 4767SOL    HW114753   3.195   0.741  11.205
 4767SOL    HW214754   3.185   0.866  11.121
 4768SOL     OW14755   2.928   1.336  12.026
 4768SOL    HW114756   2.931   1.263  11.964
 4768SOL    HW214757   2.989   1.401  11.991
 4769SOL     OW14758   2.170   0.809  12.119
 4769SOL    HW114759   2.263   0.831  12.112
 4769SOL    HW214760   2.168   0.719  12.151
 4770SOL     OW14761   2.199   0.534  12.185
 4770SOL    HW114762   2.158   0.449  12.169
 4770SOL    HW214763   2.275   0.535  12.127
 4771SOL     OW14764   2.995   0.382  12.866
 4771SOL    HW114765   2.947   0.437  12.927
 4771SOL    HW214766   3.082   0.422  12.861
 4772SOL     OW14767   3.013   0.225  12.653
 4772SOL    HW114768   3.004   0.279  12.731
 4772SOL    HW214769   3.036   0.287  12.583
 4773SOL     OW14770   1.866   1.320  11.366
 4773SOL    HW114771   1.779   1.333  11.329
 4773SOL    HW214772   1.865   1.230  11.400
 4774SOL     OW14773   1.976   1.731  12.156
 4774SOL    HW114774   1.939   1.668  12.094
 4774SOL    HW214775   2.017   1.797  12.100
 4775SOL     OW14776   2.361   1.570  12.082
 4775SOL    HW114777   2.429   1.635  12.104
 4775SOL    HW214778   2.405   1.509  12.023
 4776SOL     OW14779   2.845   0.790  12.397
 4776SOL    HW114780   2.899   0.769  12.473
 4776SOL    HW214781   2.758   0.755  12.420
 4777SOL     OW14782   1.895   0.546  12.289
 4777SOL    HW114783   1.971   0.521  12.236
 4777SOL    HW214784   1.928   0.547  12.379
 4778SOL     OW14785   2.065   0.526  12.886
 4778SOL    HW114786   2.132   0.504  12.822
 4778SOL    HW214787   2.019   0.600  12.847
 4779SOL     OW14788   3.241   0.938  12.830
 4779SOL    HW114789   3.261   1.032  12.829
 4779SOL    HW214790   3.236   0.913  12.738
 4780SOL     OW14791   2.678   0.572  11.533
 4780SOL    HW114792   2.683   0.496  11.474
 4780SOL    HW214793   2.604   0.622  11.500
 4781SOL     OW14794   3.503   0.602  12.357
 4781SOL    HW114795   3.492   0.541  12.430
 4781SOL    HW214796   3.588   0.580  12.321
 4782SOL     OW14797   2.115   1.536  12.880
 4782SOL    HW114798   2.100   1.606  12.943
 4782SOL    HW214799   2.116   1.456  12.932
 4783SOL     OW14800   2.564   0.455  12.431
 4783SOL    HW114801   2.515   0.377  12.405
 4783SOL    HW214802   2.558   0.514  12.356
 4784SOL     OW14803   2.789   1.679  12.640
 4784SOL    HW114804   2.764   1.644  12.554
 4784SOL    HW214805   2.785   1.774  12.629
 4785SOL     OW14806   2.327   0.494  11.357
 4785SOL    HW114807   2.384   0.567  11.380
 4785SOL    HW214808   2.241   0.534  11.345
 4786SOL     OW14809   2.006   1.140  12.644
 4786SOL    HW114810   2.009   1.089  12.725
 4786SOL    HW214811   2.024   1.077  12.575
 4787SOL     OW14812   3.186   1.046  12.395
 4787SOL    HW114813   3.210   0.984  12.327
 4787SOL    HW214814   3.117   1.099  12.356
 4788SOL     OW14815   3.174   0.855  11.478
 4788SOL    HW114816   3.098   0.827  11.529
 4788SOL    HW214817   3.148   0.843  11.387
 4789SOL     OW14818   3.639   1.744  12.326
 4789SOL    HW114819   3.694   1.771  12.253
 4789SOL    HW214820   3.611   1.655  12.304
 4790SOL     OW14821   3.103   1.734  12.285
 4790SOL    HW114822   3.185   1.755  12.240
 4790SOL    HW214823   3.109   1.640  12.303
 4791SOL     OW14824   1.948   1.264  12.187
 4791SOL    HW114825   1.931   1.279  12.280
 4791SOL    HW214826   1.873   1.212  12.157
 4792SOL     OW14827   2.538   1.665  12.900
 4792SOL    HW114828   2.487   1.746  12.900
 4792SOL    HW214829   2.604   1.679  12.832
 4793SOL     OW14830   3.553   0.122  11.659
 4793SOL    HW114831   3.635   0.135  11.611
 4793SOL    HW214832   3.554   0.029  11.681
 4794SOL     OW14833   3.252   1.567  11.658
 4794SOL    HW114834   3.312   1.600  11.591
 4794SOL    HW214835   3.204   1.645  11.686
 4795SOL     OW14836   2.040   1.737  13.035
 4795SOL    HW114837   1.971   1.698  13.087
 4795SOL    HW214838   2.010   1.827  13.019
 4796SOL     OW14839   3.139   0.926  11.843
 4796SOL    HW114840   3.213   0.866  11.851
 4796SOL    HW214841   3.173   0.999  11.791
 4797SOL     OW14842   2.675   1.273  12.602
 4797SOL    HW114843   2.647   1.313  12.684
 4797SOL    HW214844   2.606   1.295  12.540
 4798SOL     OW14845   2.537   1.619  11.323
 4798SOL    HW114846   2.544   1.630  11.228
 4798SOL    HW214847   2.481   1.543  11.335
 4799SOL     OW14848   3.485   1.727  12.563
 4799SOL    HW114849   3.539   1.732  12.484
 4799SOL    HW214850   3.473   1.818  12.590
 4800SOL     OW14851   3.702   0.180  12.143
 4800SOL    HW114852   3.727   0.097  12.103
 4800SOL    HW214853   3.616   0.199  12.106
 4801SOL     OW14854   2.127   0.317  11.887
 4801SOL    HW114855   2.040   0.352  11.866
 4801SOL    HW214856   2.125   0.307  11.982
 4802SOL     OW14857   3.069   1.606  11.204
 4802SOL    HW114858   3.059   1.514  11.230
 4802SOL    HW214859   3.004   1.617  11.135
 4803SOL     OW14860   2.687   1.006  12.544
 4803SOL    HW114861   2.728   1.003  12.458
 4803SOL    HW214862   2.685   1.099  12.567
 4804SOL     OW14863   2.778   0.910  11.462
 4804SOL    HW114864   2.839   0.943  11.396
 4804SOL    HW214865   2.826   0.841  11.507
 4805SOL     OW14866   3.353   1.626  11.214
 4805SOL    HW114867   3.258   1.619  11.200
 4805SOL    HW214868   3.390   1.632  11.126
 4806SOL     OW14869   2.232   1.296  12.665
 4806SOL    HW114870   2.221   1.375  12.611
 4806SOL    HW214871   2.154   1.244  12.649
 4807SOL     OW14872   3.465   1.280  12.451
 4807SOL    HW114873   3.533   1.274  12.518
 4807SOL    HW214874   3.408   1.350  12.481
 4808SOL     OW14875   2.915   1.108  11.879
 4808SOL    HW114876   2.843   1.057  11.918
 4808SOL    HW214877   2.977   1.042  11.847
 4809SOL     OW14878   2.877   0.248  12.140
 4809SOL    HW114879   2.866   0.198  12.059
 4809SOL    HW214880   2.871   0.182  12.210
 4810SOL     OW14881   2.464   1.489  11.653
 4810SOL    HW114882   2.506   1.440  11.583
 4810SOL    HW214883   2.402   1.547  11.608
 4811SOL     OW14884   3.582   0.392  12.545
 4811SOL    HW114885   3.653   0.456  12.544
 4811SOL    HW214886   3.613   0.320  12.491
 4812SOL     OW14887   2.121   1.345  11.458
 4812SOL    HW114888   2.027   1.342  11.437
 4812SOL    HW214889   2.125   1.379  11.547
 4813SOL     OW14890   1.975   1.023  12.892
 4813SOL    HW114891   1.898   0.999  12.945
 4813SOL    HW214892   2.049   0.984  12.939
 4814SOL     OW14893   2.554   0.247  12.671
 4814SOL    HW114894   2.622   0.194  12.630
 4814SOL    HW214895   2.581   0.255  12.762
 4815SOL     OW14896   1.960   0.318  11.162
 4815SOL    HW114897   1.887   0.337  11.222
 4815SOL    HW214898   1.973   0.400  11.114
 4816SOL     OW14899   3.289   0.857  12.571
 4816SOL    HW114900   3.240   0.919  12.517
 4816SOL    HW214901   3.378   0.860  12.536
 4817SOL     OW14902   1.944   0.154  11.512
 4817SOL    HW114903   1.913   0.215  11.446
 4817SOL    HW214904   2.029   0.124  11.481
 4818SOL     OW14905   3.041   1.339  11.289
 4818SOL    HW114906   2.950   1.310  11.292
 4818SOL    HW214907   3.068   1.339  11.381
 4819SOL     OW14908   2.482   0.829  12.606
 4819SOL    HW114909   2.538   0.905  12.590
 4819SOL    HW214910   2.543   0.756  12.614
 4820SOL     OW14911   3.345   1.778  12.151
 4820SOL    HW114912   3.369   1.838  12.079
 4820SOL    HW214913   3.428   1.755  12.191
 4821SOL     OW14914   2.580   0.562  12.877
 4821SOL    HW114915   2.620   0.625  12.937
 4821SOL    HW214916   2.609   0.477  12.909
 4822SOL     OW14917   3.333   1.199  12.804
 4822SOL    HW114918   3.322   1.214  12.898
 4822SOL    HW214919   3.426   1.215  12.788
 4823SOL     OW14920   2.240   1.745  12.743
 4823SOL    HW114921   2.164   1.760  12.686
 4823SOL    HW214922   2.222   1.661  12.785
 4824SOL     OW14923   3.528   0.881  12.431
 4824SOL    HW114924   3.526   0.796  12.387
 4824SOL    HW214925   3.522   0.945  12.360
 4825SOL     OW14926   3.084   0.335  11.617
 4825SOL    HW114927   3.152   0.268  11.608
 4825SOL    HW214928   3.106   0.380  11.699
 4826SOL     OW14929   2.453   0.738  11.841
 4826SOL    HW114930   2.491   0.824  11.826
 4826SOL    HW214931   2.384   0.730  11.775
 4827SOL     OW14932   3.617   0.381  12.814
 4827SOL    HW114933   3.597   0.388  12.721
 4827SOL    HW214934   3.558   0.313  12.847
 4828SOL     OW14935   3.614   0.931  12.686
 4828SOL    HW114936   3.607   1.025  12.702
 4828SOL    HW214937   3.592   0.921  12.594
 4829SOL     OW14938   2.724   1.367  11.207
 4829SOL    HW114939   2.685   1.394  11.290
 4829SOL    HW214940   2.742   1.449  11.161
 4830SOL     OW14941   2.523   1.794  12.117
 4830SOL    HW114942   2.507   1.885  12.090
 4830SOL    HW214943   2.618   1.784  12.108
 4831SOL     OW14944   2.729   0.967  12.027
 4831SOL    HW114945   2.780   0.896  12.067
 4831SOL    HW214946   2.694   1.016  12.102
 4832SOL     OW14947   2.941   0.989  11.261
 4832SOL    HW114948   2.919   1.040  11.183
 4832SOL    HW214949   3.016   0.935  11.234
 4833SOL     OW14950   3.716   1.557  12.014
 4833SOL    HW114951   3.638   1.541  11.962
 4833SOL    HW214952   3.714   1.490  12.082
 4834SOL     OW14953   2.088   1.301  13.028
 4834SOL    HW114954   2.020   1.240  13.002
 4834SOL    HW214955   2.074   1.313  13.122
 4835SOL     OW14956   1.942   1.227  11.837
 4835SOL    HW114957   1.953   1.181  11.920
 4835SOL    HW214958   2.015   1.197  11.783
 4836SOL     OW14959   2.543   1.403  12.799
 4836SOL    HW114960   2.463   1.360  12.831
 4836SOL    HW214961   2.538   1.491  12.837
 4837SOL     OW14962   3.677   0.182  12.416
 4837SOL    HW114963   3.679   0.087  12.424
 4837SOL    HW214964   3.694   0.198  12.323
 4838SOL     OW14965   2.290   0.434  11.697
 4838SOL    HW114966   2.323   0.362  11.643
 4838SOL    HW214967   2.244   0.391  11.768
 4839SOL     OW14968   3.560   1.491  12.270
 4839SOL    HW114969   3.481   1.467  12.222
 4839SOL    HW214970   3.573   1.420  12.333
 4840SOL     OW14971   2.191   0.555  12.465
 4840SOL    HW114972   2.245   0.497  12.519
 4840SOL    HW214973   2.211   0.529  12.375
 4841SOL     OW14974   2.688   1.578  11.849
 4841SOL    HW114975   2.675   1.630  11.770
 4841SOL    HW214976   2.613   1.519  11.853
 4842SOL     OW14977   3.324   0.251  12.283
 4842SOL    HW114978   3.337   0.163  12.318
 4842SOL    HW214979   3.266   0.294  12.347
 4843SOL     OW14980   2.867   0.029  12.319
 4843SOL    HW114981   2.789   3.984  12.287
 4843SOL    HW214982   2.933   3.960  12.327
 4844SOL     OW14983   2.635   1.332  11.486
 4844SOL    HW114984   2.603   1.243  11.493
 4844SOL    HW214985   2.716   1.333  11.537
 4845SOL     OW14986   2.483   1.556  12.458
 4845SOL    HW114987   2.485   1.638  12.507
 4845SOL    HW214988   2.571   1.549  12.420
 4846SOL     OW14989   3.176   0.072  11.332
 4846SOL    HW114990   3.186   3.996  11.274
 4846SOL    HW214991   3.091   0.058  11.374
 4847SOL     OW14992   3.145   0.457  11.858
 4847SOL    HW114993   3.098   0.540  11.854
 4847SOL    HW214994   3.149   0.436  11.952
 4848SOL     OW14995   3.452   0.210  12.039
 4848SOL    HW114996   3.403   0.233  12.118
 4848SOL    HW214997   3.451   0.290  11.986
 4849SOL     OW14998   1.906   1.071  11.477
 4849SOL    HW114999   2.000   1.063  11.461
 4849SOL    HW215000   1.878   0.983  11.501
 4850SOL     OW15001   2.746   1.654  11.515
 4850SOL    HW115002   2.674   1.635  11.454
 4850SOL    HW215003   2.715   1.728  11.566
 4851SOL     OW15004   2.091   0.621  13.156
 4851SOL    HW115005   2.000   0.625  13.186
 4851SOL    HW215006   2.084   0.600  13.062
 4852SOL     OW15007   2.113   0.264   0.126
 4852SOL    HW115008   2.147   0.323   0.194
 4852SOL    HW215009   2.018   0.275   0.130
 4853SOL     OW15010   1.871   0.389  13.646
 4853SOL    HW115011   1.778   0.400  13.668
 4853SOL    HW215012   1.877   0.301  13.611
 4854SOL     OW15013   3.392   1.500  13.724
 4854SOL    HW115014   3.333   1.441  13.772
 4854SOL    HW215015   3.346   1.519  13.642
 4855SOL     OW15016   2.991   0.701  13.735
 4855SOL    HW115017   3.046   0.775  13.708
 4855SOL    HW215018   2.938   0.734  13.807
 4856SOL     OW15019   3.627   0.619  13.261
 4856SOL    HW115020   3.608   0.611  13.168
 4856SOL    HW215021   3.605   0.534  13.298
 4857SOL     OW15022   2.547   1.012  13.673
 4857SOL    HW115023   2.601   0.989  13.748
 4857SOL    HW215024   2.473   1.060  13.710
 4858SOL     OW15025   3.480   0.462  13.766
 4858SOL    HW115026   3.396   0.472  13.721
 4858SOL    HW215027   3.500   0.548  13.802
 4859SOL     OW15028   2.095   1.692  13.497
 4859SOL    HW115029   2.114   1.759  13.562
 4859SOL    HW215030   2.169   1.695  13.437
 4860SOL     OW15031   2.095   1.430  13.569
 4860SOL    HW115032   2.084   1.524  13.562
 4860SOL    HW215033   2.030   1.402  13.634
 4861SOL     OW15034   2.100   1.105   0.024
 4861SOL    HW115035   2.121   1.042   0.093
 4861SOL    HW215036   2.035   1.163   0.064
 4862SOL     OW15037   2.447   0.982  13.167
 4862SOL    HW115038   2.493   1.031  13.099
 4862SOL    HW215039   2.486   1.014  13.249
 4863SOL     OW15040   1.979   0.656  13.588
 4863SOL    HW115041   1.949   0.567  13.602
 4863SOL    HW215042   1.963   0.700  13.672
 4864SOL     OW15043   3.701   1.758  13.370
 4864SOL    HW115044   3.770   1.732  13.431
 4864SOL    HW215045   3.722   1.849  13.348
 4865SOL     OW15046   1.860   1.606  13.190
 4865SOL    HW115047   1.853   1.512  13.172
 4865SOL    HW215048   1.886   1.612  13.282
 4866SOL     OW15049   3.546   0.913  13.666
 4866SOL    HW115050   3.636   0.884  13.650
 4866SOL    HW215051   3.526   0.971  13.593
 4867SOL     OW15052   3.504   1.105  13.463
 4867SOL    HW115053   3.588   1.111  13.418
 4867SOL    HW215054   3.511   1.168  13.535
 4868SOL     OW15055   2.467   1.384  13.761
 4868SOL    HW115056   2.424   1.299  13.768
 4868SOL    HW215057   2.445   1.415  13.673
 4869SOL     OW15058   2.681   0.003  13.551
 4869SOL    HW115059   2.725   0.083  13.525
 4869SOL    HW215060   2.588   0.025  13.549
 4870SOL     OW15061   3.391   0.993  13.234
 4870SOL    HW115062   3.321   0.936  13.267
 4870SOL    HW215063   3.431   1.030  13.312
 4871SOL     OW15064   3.517   1.741  13.613
 4871SOL    HW115065   3.497   1.711  13.524
 4871SOL    HW215066   3.511   1.661  13.666
 4872SOL     OW15067   2.456   0.722  13.299
 4872SOL    HW115068   2.461   0.804  13.249
 4872SOL    HW215069   2.391   0.739  13.367
 4873SOL     OW15070   3.108   0.338   0.054
 4873SOL    HW115071   3.018   0.323   0.083
 4873SOL    HW215072   3.162   0.297   0.122
 4874SOL     OW15073   3.440   1.672  13.342
 4874SOL    HW115074   3.531   1.702  13.337
 4874SOL    HW215075   3.415   1.655  13.252
 4875SOL     OW15076   2.911   0.696  13.460
 4875SOL    HW115077   2.924   0.685  13.554
 4875SOL    HW215078   2.829   0.650  13.441
 4876SOL     OW15079   1.942   0.817  13.811
 4876SOL    HW115080   2.025   0.815  13.859
 4876SOL    HW215081   1.898   0.895  13.844
 4877SOL     OW15082   2.755   0.351  13.232
 4877SOL    HW115083   2.796   0.409  13.169
 4877SOL    HW215084   2.753   0.266  13.188
 4878SOL     OW15085   3.225   1.135  13.554
 4878SOL    HW115086   3.315   1.135  13.521
 4878SOL    HW215087   3.182   1.207  13.508
 4879SOL     OW15088   2.865   1.441  13.504
 4879SOL    HW115089   2.831   1.516  13.455
 4879SOL    HW215090   2.837   1.456  13.594
 4880SOL     OW15091   2.263   1.786  13.852
 4880SOL    HW115092   2.245   1.701  13.891
 4880SOL    HW215093   2.336   1.821   0.004
 4881SOL     OW15094   3.652   1.055  13.898
 4881SOL    HW115095   3.592   1.050  13.824
 4881SOL    HW215096   3.595   1.051   0.075
 4882SOL     OW15097   2.183   0.958  13.286
 4882SOL    HW115098   2.264   0.978  13.239
 4882SOL    HW215099   2.152   0.876  13.246
 4883SOL     OW15100   3.351   0.731  13.751
 4883SOL    HW115101   3.336   0.692  13.837
 4883SOL    HW215102   3.419   0.797  13.766
 4884SOL     OW15103   2.984   1.778  13.264
 4884SOL    HW115104   2.910   1.737  13.310
 4884SOL    HW215105   3.007   1.716  13.195
 4885SOL     OW15106   3.488   1.382  13.120
 4885SOL    HW115107   3.446   1.466  13.106
 4885SOL    HW215108   3.420   1.317  13.102
 4886SOL     OW15109   2.339   1.717  13.373
 4886SOL    HW115110   2.373   1.791  13.422
 4886SOL    HW215111   2.395   1.710  13.296
 4887SOL     OW15112   3.285   0.161  13.442
 4887SOL    HW115113   3.251   0.102  13.375
 4887SOL    HW215114   3.375   0.131  13.457
 4888SOL     OW15115   2.787   1.691   0.011
 4888SOL    HW115116   2.820   1.625   0.072
 4888SOL    HW215117   2.746   1.640  13.841
 4889SOL     OW15118   2.255   0.698  13.509
 4889SOL    HW115119   2.276   0.605  13.519
 4889SOL    HW215120   2.160   0.703  13.525
 4890SOL     OW15121   2.504   0.134  13.140
 4890SOL    HW115122   2.534   0.052  13.180
 4890SOL    HW215123   2.442   0.106  13.073
 4891SOL     OW15124   2.411   0.057  13.527
 4891SOL    HW115125   2.335   0.060  13.586
 4891SOL    HW215126   2.404   0.137  13.475
 4892SOL     OW15127   3.290   1.198  13.075
 4892SOL    HW115128   3.320   1.123  13.126
 4892SOL    HW215129   3.204   1.220  13.113
 4893SOL     OW15130   2.190   0.044  13.241
 4893SOL    HW115131   2.204   0.112  13.175
 4893SOL    HW215132   2.275   0.035  13.285
 4894SOL     OW15133   2.801   0.246  13.494
 4894SOL    HW115134   2.774   0.289  13.413
 4894SOL    HW215135   2.896   0.253  13.494
 4895SOL     OW15136   2.326   1.143  13.772
 4895SOL    HW115137   2.252   1.129  13.832
 4895SOL    HW215138   2.289   1.130  13.685
 4896SOL     OW15139   3.132   1.796  13.634
 4896SOL    HW115140   3.176   1.862  13.580
 4896SOL    HW215141   3.065   1.845  13.682
 4897SOL     OW15142   2.885   0.545  13.059
 4897SOL    HW115143   2.841   0.628  13.039
 4897SOL    HW215144   2.948   0.567  13.127
 4898SOL     OW15145   2.757   0.474  13.667
 4898SOL    HW115146   2.687   0.518  13.618
 4898SOL    HW215147   2.762   0.387  13.627
 4899SOL     OW15148   2.862   0.040  13.797
 4899SOL    HW115149   2.830   0.063  13.710
 4899SOL    HW215150   2.884   3.947  13.789
 4900SOL     OW15151   3.727   0.822  13.409
 4900SOL    HW115152   3.773   0.765  13.471
 4900SOL    HW215153   3.687   0.761  13.346
 4901SOL     OW15154   2.355   1.418  13.190
 4901SOL    HW115155   2.280   1.391  13.243
 4901SOL    HW215156   2.338   1.380  13.103
 4902SOL     OW15157   3.538   1.267  13.669
 4902SOL    HW115158   3.632   1.272  13.686
 4902SOL    HW215159   3.503   1.350  13.701
 4903SOL     OW15160   3.256   0.574  13.104
 4903SOL    HW115161   3.193   0.555  13.174
 4903SOL    HW215162   3.341   0.554  13.142
 4904SOL     OW15163   2.390   0.266  13.351
 4904SOL    HW115164   2.442   0.225  13.281
 4904SOL    HW215165   2.363   0.350  13.315
 4905SOL     OW15166   2.571   1.063  13.401
 4905SOL    HW115167   2.556   1.047  13.494
 4905SOL    HW215168   2.647   1.009  13.379
 4906SOL     OW15169   2.214   1.108  13.526
 4906SOL    HW115170   2.216   1.184  13.468
 4906SOL    HW215171   2.210   1.033  13.467
 4907SOL     OW15172   2.433   0.541  13.864
 4907SOL    HW115173   2.445   0.610  13.799
 4907SOL    HW215174   2.487   0.568   0.038
 4908SOL     OW15175   3.108   1.351  13.419
 4908SOL    HW115176   3.163   1.424  13.447
 4908SOL    HW215177   3.022   1.371  13.454
 4909SOL     OW15178   3.446   0.631  13.512
 4909SOL    HW115179   3.406   0.683  13.583
 4909SOL    HW215180   3.483   0.697  13.453
 4910SOL     OW15181   3.066   0.533  13.297
 4910SOL    HW115182   3.071   0.453  13.350
 4910SOL    HW215183   3.022   0.597  13.353
 4911SOL     OW15184   2.193   0.053  13.685
 4911SOL    HW115185   2.171   0.145  13.694
 4911SOL    HW215186   2.118   0.006  13.723
 4912SOL     OW15187   3.460   0.389  13.408
 4912SOL    HW115188   3.441   0.321  13.472
 4912SOL    HW215189   3.445   0.471  13.455
 4913SOL     OW15190   3.366   0.278  13.167
 4913SOL    HW115191   3.293   0.218  13.181
 4913SOL    HW215192   3.381   0.317  13.253
 4914SOL     OW15193   3.152   0.827  13.064
 4914SOL    HW115194   3.195   0.741  13.067
 4914SOL    HW215195   3.184   0.867  12.983
 4915SOL     OW15196   1.866   1.320  13.228
 4915SOL    HW115197   1.779   1.333  13.191
 4915SOL    HW215198   1.865   1.231  13.262
 4916SOL     OW15199   2.678   0.575  13.388
 4916SOL    HW115200   2.681   0.496  13.332
 4916SOL    HW215201   2.601   0.623  13.357
 4917SOL     OW15202   2.327   0.494  13.219
 4917SOL    HW115203   2.384   0.567  13.241
 4917SOL    HW215204   2.240   0.533  13.207
 4918SOL     OW15205   3.176   0.849  13.339
 4918SOL    HW115206   3.097   0.829  13.389
 4918SOL    HW215207   3.150   0.841  13.247
 4919SOL     OW15208   3.543   0.117  13.474
 4919SOL    HW115209   3.635   0.127  13.449
 4919SOL    HW215210   3.545   0.053  13.546
 4920SOL     OW15211   3.245   1.572  13.508
 4920SOL    HW115212   3.306   1.608  13.444
 4920SOL    HW215213   3.200   1.649  13.544
 4921SOL     OW15214   3.150   0.913  13.685
 4921SOL    HW115215   3.228   0.859  13.669
 4921SOL    HW215216   3.171   0.998  13.645
 4922SOL     OW15217   2.538   1.619  13.185
 4922SOL    HW115218   2.544   1.630  13.090
 4922SOL    HW215219   2.480   1.543  13.196
 4923SOL     OW15220   3.675   0.161   0.059
 4923SOL    HW115221   3.711   0.072   0.061
 4923SOL    HW215222   3.583   0.148   0.038
 4924SOL     OW15223   2.138   0.313  13.745
 4924SOL    HW115224   2.047   0.331  13.721
 4924SOL    HW215225   2.137   0.308  13.840
 4925SOL     OW15226   3.069   1.606  13.065
 4925SOL    HW115227   3.060   1.514  13.092
 4925SOL    HW215228   3.004   1.618  12.997
 4926SOL     OW15229   2.780   0.913  13.328
 4926SOL    HW115230   2.840   0.943  13.259
 4926SOL    HW215231   2.825   0.839  13.368
 4927SOL     OW15232   3.353   1.626  13.076
 4927SOL    HW115233   3.258   1.619  13.062
 4927SOL    HW215234   3.390   1.632  12.988
 4928SOL     OW15235   2.912   1.090  13.754
 4928SOL    HW115236   2.825   1.053  13.745
 4928SOL    HW215237   2.963   1.051  13.684
 4929SOL     OW15238   2.459   1.489  13.509
 4929SOL    HW115239   2.503   1.441  13.439
 4929SOL    HW215240   2.401   1.550  13.463
 4930SOL     OW15241   2.121   1.344  13.319
 4930SOL    HW115242   2.027   1.342  13.299
 4930SOL    HW215243   2.126   1.379  13.408
 4931SOL     OW15244   1.960   0.318  13.024
 4931SOL    HW115245   1.886   0.337  13.083
 4931SOL    HW215246   1.972   0.400  12.976
 4932SOL     OW15247   1.953   0.155  13.368
 4932SOL    HW115248   1.922   0.218  13.302
 4932SOL    HW215249   2.037   0.124  13.334
 4933SOL     OW15250   3.041   1.339  13.150
 4933SOL    HW115251   2.949   1.310  13.153
 4933SOL    HW215252   3.068   1.340  13.241
 4934SOL     OW15253   3.081   0.331  13.485
 4934SOL    HW115254   3.150   0.266  13.472
 4934SOL    HW215255   3.110   0.382  13.561
 4935SOL     OW15256   2.455   0.750  13.692
 4935SOL    HW115257   2.489   0.837  13.672
 4935SOL    HW215258   2.385   0.736  13.629
 4936SOL     OW15259   2.725   1.367  13.068
 4936SOL    HW115260   2.685   1.394  13.151
 4936SOL    HW215261   2.742   1.449  13.023
 4937SOL     OW15262   2.514   1.847   0.068
 4937SOL    HW115263   2.526   1.941   0.055
 4937SOL    HW215264   2.603   1.813   0.078
 4938SOL     OW15265   2.692   0.964  13.894
 4938SOL    HW115266   2.729   0.885   0.035
 4938SOL    HW215267   2.709   1.034   0.057
 4939SOL     OW15268   2.940   0.987  13.123
 4939SOL    HW115269   2.918   1.039  13.046
 4939SOL    HW215270   3.015   0.934  13.096
 4940SOL     OW15271   1.947   1.229  13.701
 4940SOL    HW115272   1.948   1.172  13.778
 4940SOL    HW215273   2.018   1.196  13.646
 4941SOL     OW15274   2.291   0.437  13.552
 4941SOL    HW115275   2.325   0.364  13.500
 4941SOL    HW215276   2.252   0.395  13.629
 4942SOL     OW15277   3.542   1.460   0.344
 4942SOL    HW115278   3.512   1.439   0.255
 4942SOL    HW215279   3.628   1.419   0.351
 4943SOL     OW15280   2.681   1.552  13.710
 4943SOL    HW115281   2.661   1.607  13.635
 4943SOL    HW215282   2.603   1.498  13.722
 4944SOL     OW15283   2.635   1.333  13.346
 4944SOL    HW115284   2.603   1.243  13.353
 4944SOL    HW215285   2.716   1.334  13.397
 4945SOL     OW15286   3.176   0.074  13.200
 4945SOL    HW115287   3.195   0.001  13.142
 4945SOL    HW215288   3.088   0.055  13.234
 4946SOL     OW15289   3.156   0.460  13.716
 4946SOL    HW115290   3.104   0.541  13.717
 4946SOL    HW215291   3.150   0.428  13.806
 4947SOL     OW15292   1.907   1.072  13.339
 4947SOL    HW115293   2.001   1.063  13.321
 4947SOL    HW215294   1.879   0.983  13.362
 4948SOL     OW15295   2.746   1.653  13.376
 4948SOL    HW115296   2.674   1.636  13.315
 4948SOL    HW215297   2.716   1.727  13.429
 4949SOL     OW15298   2.097   2.501   0.108
 4949SOL    HW115299   2.010   2.471   0.137
 4949SOL    HW215300   2.115   2.449   0.030
 4950SOL     OW15301   1.870   2.282   0.632
 4950SOL    HW115302   1.781   2.278   0.665
 4950SOL    HW215303   1.880   2.202   0.580
 4951SOL     OW15304   2.429   3.150   1.175
 4951SOL    HW115305   2.341   3.155   1.136
 4951SOL    HW215306   2.445   3.238   1.209
 4952SOL     OW15307   3.423   3.373   0.707
 4952SOL    HW115308   3.378   3.351   0.789
 4952SOL    HW215309   3.353   3.377   0.642
 4953SOL     OW15310   2.991   2.560   0.701
 4953SOL    HW115311   3.041   2.641   0.687
 4953SOL    HW215312   2.945   2.575   0.784
 4954SOL     OW15313   3.624   2.466   0.230
 4954SOL    HW115314   3.632   2.428   0.142
 4954SOL    HW215315   3.587   2.395   0.283
 4955SOL     OW15316   2.616   3.004   1.041
 4955SOL    HW115317   2.547   3.039   1.097
 4955SOL    HW215318   2.652   3.081   0.997
 4956SOL     OW15319   2.728   2.635   1.822
 4956SOL    HW115320   2.716   2.706   1.885
 4956SOL    HW215321   2.752   2.680   1.740
 4957SOL     OW15322   2.547   2.862   0.647
 4957SOL    HW115323   2.613   2.852   0.716
 4957SOL    HW215324   2.478   2.916   0.687
 4958SOL     OW15325   2.573   3.013   1.812
 4958SOL    HW115326   2.620   3.091   1.840
 4958SOL    HW215327   2.490   3.046   1.777
 4959SOL     OW15328   2.194   3.286   1.067
 4959SOL    HW115329   2.120   3.251   1.018
 4959SOL    HW215330   2.242   3.338   1.004
 4960SOL     OW15331   3.322   3.362   1.354
 4960SOL    HW115332   3.374   3.442   1.364
 4960SOL    HW215333   3.260   3.365   1.427
 4961SOL     OW15334   2.283   2.235   1.477
 4961SOL    HW115335   2.371   2.200   1.491
 4961SOL    HW215336   2.226   2.160   1.490
 4962SOL     OW15337   3.473   2.309   0.742
 4962SOL    HW115338   3.399   2.333   0.686
 4962SOL    HW215339   3.490   2.388   0.794
 4963SOL     OW15340   2.082   3.574   0.483
 4963SOL    HW115341   2.112   3.643   0.542
 4963SOL    HW215342   2.143   3.577   0.409
 4964SOL     OW15343   2.998   3.203   1.693
 4964SOL    HW115344   3.039   3.198   1.779
 4964SOL    HW215345   2.946   3.124   1.686
 4965SOL     OW15346   2.083   3.303   0.531
 4965SOL    HW115347   2.074   3.398   0.536
 4965SOL    HW215348   2.027   3.270   0.601
 4966SOL     OW15349   2.120   2.953   0.890
 4966SOL    HW115350   2.116   2.867   0.932
 4966SOL    HW215351   2.062   3.008   0.943
 4967SOL     OW15352   2.473   3.649   1.429
 4967SOL    HW115353   2.391   3.633   1.476
 4967SOL    HW215354   2.499   3.738   1.454
 4968SOL     OW15355   2.431   2.841   0.159
 4968SOL    HW115356   2.457   2.888   0.079
 4968SOL    HW215357   2.484   2.880   0.228
 4969SOL     OW15358   3.457   1.986   1.467
 4969SOL    HW115359   3.465   2.068   1.418
 4969SOL    HW215360   3.445   2.014   1.558
 4970SOL     OW15361   1.982   2.521   0.560
 4970SOL    HW115362   1.949   2.434   0.581
 4970SOL    HW215363   1.972   2.571   0.641
 4971SOL     OW15364   3.698   3.615   0.340
 4971SOL    HW115365   3.763   3.581   0.401
 4971SOL    HW215366   3.723   3.707   0.326
 4972SOL     OW15367   1.883   3.466   0.107
 4972SOL    HW115368   1.888   3.375   0.135
 4972SOL    HW215369   1.868   3.515   0.188
 4973SOL     OW15370   3.549   2.780   0.644
 4973SOL    HW115371   3.633   2.739   0.628
 4973SOL    HW215372   3.530   2.830   0.565
 4974SOL     OW15373   3.505   2.967   0.433
 4974SOL    HW115374   3.591   2.973   0.391
 4974SOL    HW215375   3.508   3.030   0.505
 4975SOL     OW15376   1.983   2.606   1.583
 4975SOL    HW115377   2.075   2.632   1.595
 4975SOL    HW215378   1.934   2.687   1.594
 4976SOL     OW15379   2.476   3.248   0.735
 4976SOL    HW115380   2.430   3.165   0.744
 4976SOL    HW215381   2.459   3.275   0.644
 4977SOL     OW15382   3.150   3.100   1.424
 4977SOL    HW115383   3.183   3.033   1.363
 4977SOL    HW215384   3.208   3.094   1.499
 4978SOL     OW15385   2.701   1.861   0.517
 4978SOL    HW115386   2.739   1.945   0.493
 4978SOL    HW215387   2.606   1.876   0.514
 4979SOL     OW15388   2.053   2.829   1.271
 4979SOL    HW115389   2.137   2.786   1.256
 4979SOL    HW215390   1.988   2.773   1.228
 4980SOL     OW15391   3.393   2.857   0.204
 4980SOL    HW115392   3.324   2.798   0.235
 4980SOL    HW215393   3.431   2.894   0.283
 4981SOL     OW15394   3.075   3.665   1.626
 4981SOL    HW115395   3.056   3.724   1.554
 4981SOL    HW215396   3.077   3.578   1.585
 4982SOL     OW15397   3.327   3.282   0.951
 4982SOL    HW115398   3.259   3.296   1.017
 4982SOL    HW215399   3.316   3.191   0.925
 4983SOL     OW15400   3.517   3.603   0.586
 4983SOL    HW115401   3.505   3.576   0.495
 4983SOL    HW215402   3.496   3.525   0.637
 4984SOL     OW15403   2.459   2.581   0.262
 4984SOL    HW115404   2.463   2.664   0.213
 4984SOL    HW215405   2.400   2.599   0.335
 4985SOL     OW15406   3.140   2.216   0.932
 4985SOL    HW115407   3.051   2.181   0.941
 4985SOL    HW215408   3.192   2.163   0.993
 4986SOL     OW15409   3.422   3.595   0.312
 4986SOL    HW115410   3.517   3.595   0.313
 4986SOL    HW215411   3.398   3.555   0.228
 4987SOL     OW15412   2.655   2.480   1.449
 4987SOL    HW115413   2.630   2.456   1.539
 4987SOL    HW215414   2.614   2.413   1.395
 4988SOL     OW15415   3.256   2.335   1.678
 4988SOL    HW115416   3.258   2.380   1.763
 4988SOL    HW215417   3.316   2.262   1.688
 4989SOL     OW15418   2.816   2.749   1.583
 4989SOL    HW115419   2.871   2.679   1.547
 4989SOL    HW215420   2.769   2.784   1.507
 4990SOL     OW15421   2.855   2.275   1.238
 4990SOL    HW115422   2.770   2.296   1.276
 4990SOL    HW215423   2.835   2.229   1.157
 4991SOL     OW15424   2.912   2.563   0.429
 4991SOL    HW115425   2.928   2.555   0.523
 4991SOL    HW215426   2.830   2.516   0.414
 4992SOL     OW15427   1.951   2.686   0.776
 4992SOL    HW115428   2.032   2.680   0.827
 4992SOL    HW215429   1.906   2.762   0.811
 4993SOL     OW15430   1.986   3.702   1.576
 4993SOL    HW115431   1.986   3.683   1.670
 4993SOL    HW215432   1.893   3.707   1.552
 4994SOL     OW15433   2.732   2.220   0.214
 4994SOL    HW115434   2.771   2.280   0.150
 4994SOL    HW215435   2.744   2.133   0.176
 4995SOL     OW15436   3.573   2.437   1.828
 4995SOL    HW115437   3.534   2.511   1.781
 4995SOL    HW215438   3.596   2.374   1.760
 4996SOL     OW15439   3.238   3.004   0.543
 4996SOL    HW115440   3.316   2.991   0.490
 4996SOL    HW215441   3.186   3.067   0.493
 4997SOL     OW15442   2.409   2.052   0.895
 4997SOL    HW115443   2.412   2.076   0.987
 4997SOL    HW215444   2.428   2.133   0.848
 4998SOL     OW15445   2.868   3.305   0.475
 4998SOL    HW115446   2.832   3.379   0.425
 4998SOL    HW215447   2.849   3.326   0.566
 4999SOL     OW15448   2.213   3.672   0.842
 4999SOL    HW115449   2.263   3.592   0.859
 4999SOL    HW215450   2.274   3.743   0.862
 5000SOL     OW15451   3.666   2.922   0.867
 5000SOL    HW115452   3.611   2.901   0.792
 5000SOL    HW215453   3.605   2.926   0.941
 5001SOL     OW15454   3.090   3.399   1.512
 5001SOL    HW115455   3.075   3.327   1.573
 5001SOL    HW215456   3.024   3.386   1.443
 5002SOL     OW15457   2.175   2.801   0.230
 5002SOL    HW115458   2.266   2.814   0.205
 5002SOL    HW215459   2.160   2.707   0.224
 5003SOL     OW15460   3.339   2.604   0.727
 5003SOL    HW115461   3.332   2.562   0.813
 5003SOL    HW215462   3.417   2.660   0.735
 5004SOL     OW15463   2.328   3.126   1.737
 5004SOL    HW115464   2.301   3.131   1.645
 5004SOL    HW215465   2.246   3.124   1.786
 5005SOL     OW15466   2.987   3.640   0.233
 5005SOL    HW115467   2.924   3.594   0.288
 5005SOL    HW215468   3.013   3.575   0.167
 5006SOL     OW15469   3.494   3.237   0.084
 5006SOL    HW115470   3.456   3.320   0.055
 5006SOL    HW215471   3.426   3.172   0.065
 5007SOL     OW15472   2.339   3.595   0.323
 5007SOL    HW115473   2.370   3.659   0.387
 5007SOL    HW215474   2.416   3.572   0.272
 5008SOL     OW15475   3.265   1.972   0.436
 5008SOL    HW115476   3.259   1.940   0.346
 5008SOL    HW215477   3.359   1.969   0.456
 5009SOL     OW15478   2.121   3.654   1.226
 5009SOL    HW115479   2.169   3.586   1.273
 5009SOL    HW215480   2.107   3.618   1.139
 5010SOL     OW15481   2.800   3.562   0.901
 5010SOL    HW115482   2.877   3.509   0.921
 5010SOL    HW215483   2.755   3.512   0.832
 5011SOL     OW15484   2.254   2.557   0.474
 5011SOL    HW115485   2.275   2.464   0.485
 5011SOL    HW215486   2.161   2.563   0.495
 5012SOL     OW15487   3.398   2.087   1.726
 5012SOL    HW115488   3.407   2.108   1.819
 5012SOL    HW215489   3.329   2.020   1.723
 5013SOL     OW15490   2.627   2.139   1.754
 5013SOL    HW115491   2.704   2.082   1.754
 5013SOL    HW215492   2.581   2.117   1.835
 5014SOL     OW15493   2.738   3.382   1.194
 5014SOL    HW115494   2.722   3.347   1.107
 5014SOL    HW215495   2.808   3.328   1.230
 5015SOL     OW15496   3.203   2.451   1.432
 5015SOL    HW115497   3.234   2.420   1.517
 5015SOL    HW215498   3.239   2.539   1.425
 5016SOL     OW15499   2.678   3.256   0.940
 5016SOL    HW115500   2.762   3.245   0.895
 5016SOL    HW215501   2.613   3.258   0.869
 5017SOL     OW15502   2.789   2.370   0.903
 5017SOL    HW115503   2.765   2.362   0.810
 5017SOL    HW215504   2.822   2.284   0.926
 5018SOL     OW15505   2.445   1.923   0.483
 5018SOL    HW115506   2.372   1.915   0.544
 5018SOL    HW215507   2.427   2.003   0.433
 5019SOL     OW15508   3.292   3.066   0.045
 5019SOL    HW115509   3.312   2.985   0.092
 5019SOL    HW215510   3.200   3.082   0.064
 5020SOL     OW15511   2.805   2.110   0.461
 5020SOL    HW115512   2.774   2.150   0.380
 5020SOL    HW215513   2.899   2.128   0.461
 5021SOL     OW15514   2.943   2.543   1.459
 5021SOL    HW115515   2.875   2.476   1.465
 5021SOL    HW215516   3.025   2.494   1.453
 5022SOL     OW15517   3.084   3.432   0.794
 5022SOL    HW115518   3.101   3.499   0.728
 5022SOL    HW215519   3.154   3.444   0.859
 5023SOL     OW15520   2.331   3.012   0.732
 5023SOL    HW115521   2.262   2.993   0.796
 5023SOL    HW215522   2.289   2.998   0.647
 5024SOL     OW15523   3.130   3.658   0.606
 5024SOL    HW115524   3.176   3.723   0.552
 5024SOL    HW215525   3.059   3.708   0.647
 5025SOL     OW15526   2.860   2.407   0.058
 5025SOL    HW115527   2.860   2.400  13.863
 5025SOL    HW215528   2.952   2.406   0.083
 5026SOL     OW15529   1.938   2.423   1.386
 5026SOL    HW115530   2.031   2.419   1.365
 5026SOL    HW215531   1.932   2.489   1.455
 5027SOL     OW15532   2.417   2.084   1.169
 5027SOL    HW115533   2.466   2.006   1.196
 5027SOL    HW215534   2.333   2.076   1.215
 5028SOL     OW15535   2.726   2.320   0.639
 5028SOL    HW115536   2.687   2.376   0.572
 5028SOL    HW215537   2.751   2.240   0.592
 5029SOL     OW15538   2.874   1.916   0.752
 5029SOL    HW115539   2.819   1.905   0.674
 5029SOL    HW215540   2.854   1.839   0.806
 5030SOL     OW15541   3.299   3.025   0.857
 5030SOL    HW115542   3.230   2.959   0.856
 5030SOL    HW215543   3.324   3.036   0.765
 5031SOL     OW15544   3.327   2.468   0.977
 5031SOL    HW115545   3.278   2.386   0.979
 5031SOL    HW215546   3.387   2.462   1.051
 5032SOL     OW15547   3.723   2.678   0.373
 5032SOL    HW115548   3.766   2.623   0.439
 5032SOL    HW215549   3.683   2.616   0.312
 5033SOL     OW15550   2.351   3.266   0.158
 5033SOL    HW115551   2.275   3.236   0.208
 5033SOL    HW215552   2.331   3.242   0.067
 5034SOL     OW15553   3.528   3.126   0.646
 5034SOL    HW115554   3.623   3.130   0.656
 5034SOL    HW215555   3.499   3.216   0.663
 5035SOL     OW15556   3.283   2.447   0.087
 5035SOL    HW115557   3.215   2.438   0.153
 5035SOL    HW215558   3.321   2.360   0.080
 5036SOL     OW15559   2.384   2.126   0.319
 5036SOL    HW115560   2.437   2.089   0.248
 5036SOL    HW215561   2.354   2.210   0.285
 5037SOL     OW15562   3.614   3.097   1.570
 5037SOL    HW115563   3.701   3.061   1.553
 5037SOL    HW215564   3.630   3.186   1.600
 5038SOL     OW15565   2.920   3.214   1.333
 5038SOL    HW115566   2.845   3.184   1.384
 5038SOL    HW215567   2.996   3.174   1.374
 5039SOL     OW15568   3.468   3.490   1.655
 5039SOL    HW115569   3.460   3.523   1.566
 5039SOL    HW215570   3.550   3.440   1.655
 5040SOL     OW15571   2.990   3.065   1.105
 5040SOL    HW115572   2.933   3.104   1.170
 5040SOL    HW215573   2.958   3.099   1.021
 5041SOL     OW15574   3.492   2.959   1.076
 5041SOL    HW115575   3.485   3.021   1.149
 5041SOL    HW215576   3.414   2.975   1.023
 5042SOL     OW15577   2.779   1.960   1.395
 5042SOL    HW115578   2.803   1.940   1.305
 5042SOL    HW215579   2.858   1.999   1.433
 5043SOL     OW15580   2.846   2.977   1.723
 5043SOL    HW115581   2.754   2.993   1.744
 5043SOL    HW215582   2.844   2.899   1.667
 5044SOL     OW15583   2.577   2.921   0.376
 5044SOL    HW115584   2.562   2.904   0.469
 5044SOL    HW215585   2.651   2.866   0.354
 5045SOL     OW15586   2.280   2.675   1.251
 5045SOL    HW115587   2.348   2.687   1.317
 5045SOL    HW215588   2.245   2.588   1.268
 5046SOL     OW15589   3.128   2.239   1.276
 5046SOL    HW115590   3.161   2.316   1.322
 5046SOL    HW215591   3.038   2.261   1.253
 5047SOL     OW15592   1.932   3.435   1.352
 5047SOL    HW115593   1.904   3.510   1.300
 5047SOL    HW215594   2.028   3.438   1.348
 5048SOL     OW15595   2.209   2.974   0.488
 5048SOL    HW115596   2.209   3.047   0.425
 5048SOL    HW215597   2.215   2.896   0.434
 5049SOL     OW15598   2.408   2.399   0.863
 5049SOL    HW115599   2.423   2.455   0.788
 5049SOL    HW215600   2.475   2.425   0.926
 5050SOL     OW15601   3.110   3.208   0.397
 5050SOL    HW115602   3.166   3.281   0.423
 5050SOL    HW215603   3.023   3.232   0.429
 5051SOL     OW15604   3.143   3.321   1.147
 5051SOL    HW115605   3.199   3.324   1.225
 5051SOL    HW215606   3.088   3.244   1.161
 5052SOL     OW15607   3.444   2.486   0.483
 5052SOL    HW115608   3.395   2.537   0.547
 5052SOL    HW215609   3.476   2.551   0.420
 5053SOL     OW15610   2.208   3.390   1.314
 5053SOL    HW115611   2.196   3.346   1.230
 5053SOL    HW215612   2.303   3.401   1.322
 5054SOL     OW15613   2.277   2.608   1.602
 5054SOL    HW115614   2.339   2.651   1.544
 5054SOL    HW215615   2.320   2.526   1.628
 5055SOL     OW15616   3.464   2.640   1.681
 5055SOL    HW115617   3.378   2.682   1.675
 5055SOL    HW215618   3.516   2.683   1.613
 5056SOL     OW15619   2.857   1.986   1.753
 5056SOL    HW115620   2.915   2.058   1.727
 5056SOL    HW215621   2.905   1.907   1.729
 5057SOL     OW15622   2.374   1.897   1.747
 5057SOL    HW115623   2.327   1.841   1.684
 5057SOL    HW215624   2.314   1.969   1.764
 5058SOL     OW15625   2.445   2.735   1.032
 5058SOL    HW115626   2.477   2.825   1.030
 5058SOL    HW215627   2.389   2.731   1.109
 5059SOL     OW15628   3.219   2.721   1.029
 5059SOL    HW115629   3.136   2.711   0.982
 5059SOL    HW215630   3.261   2.635   1.024
 5060SOL     OW15631   3.081   2.405   0.273
 5060SOL    HW115632   3.084   2.324   0.324
 5060SOL    HW215633   3.025   2.463   0.325
 5061SOL     OW15634   1.908   3.173   1.276
 5061SOL    HW115635   1.941   3.119   1.348
 5061SOL    HW215636   1.915   3.262   1.309
 5062SOL     OW15637   2.583   2.490   1.056
 5062SOL    HW115638   2.660   2.475   1.001
 5062SOL    HW215639   2.558   2.581   1.037
 5063SOL     OW15640   3.593   2.821   1.858
 5063SOL    HW115641   3.551   2.760   1.798
 5063SOL    HW215642   3.530   2.833   1.929
 5064SOL     OW15643   2.223   1.907   0.618
 5064SOL    HW115644   2.145   1.956   0.594
 5064SOL    HW215645   2.204   1.872   0.705
 5065SOL     OW15646   3.481   2.238   0.372
 5065SOL    HW115647   3.504   2.171   0.437
 5065SOL    HW215648   3.456   2.314   0.424
 5066SOL     OW15649   2.889   2.621   0.960
 5066SOL    HW115650   2.886   2.638   1.054
 5066SOL    HW215651   2.863   2.529   0.952
 5067SOL     OW15652   2.847   3.430   1.718
 5067SOL    HW115653   2.829   3.472   1.634
 5067SOL    HW215654   2.889   3.347   1.695
 5068SOL     OW15655   3.707   3.364   1.599
 5068SOL    HW115656   3.729   3.392   1.511
 5068SOL    HW215657   3.787   3.377   1.650
 5069SOL     OW15658   2.216   2.781   1.808
 5069SOL    HW115659   2.298   2.798   1.854
 5069SOL    HW215660   2.239   2.718   1.740
 5070SOL     OW15661   3.412   2.123   0.136
 5070SOL    HW115662   3.353   2.051   0.159
 5070SOL    HW215663   3.435   2.163   0.220
 5071SOL     OW15664   3.154   2.691   0.055
 5071SOL    HW115665   3.201   2.608   0.060
 5071SOL    HW215666   3.172   2.724  13.867
 5072SOL     OW15667   2.928   3.198   0.854
 5072SOL    HW115668   2.931   3.125   0.791
 5072SOL    HW215669   2.989   3.262   0.819
 5073SOL     OW15670   2.172   2.672   0.946
 5073SOL    HW115671   2.265   2.695   0.938
 5073SOL    HW215672   2.172   2.586   0.987
 5074SOL     OW15673   2.187   2.359   1.013
 5074SOL    HW115674   2.147   2.286   0.965
 5074SOL    HW215675   2.266   2.380   0.963
 5075SOL     OW15676   2.996   2.238   1.682
 5075SOL    HW115677   2.949   2.293   1.745
 5075SOL    HW215678   3.084   2.276   1.678
 5076SOL     OW15679   3.022   2.065   1.470
 5076SOL    HW115680   3.012   2.127   1.541
 5076SOL    HW215681   3.063   2.115   1.399
 5077SOL     OW15682   1.881   3.175   0.181
 5077SOL    HW115683   1.800   3.187   0.131
 5077SOL    HW215684   1.873   3.087   0.219
 5078SOL     OW15685   1.957   3.644   0.938
 5078SOL    HW115686   1.927   3.565   0.893
 5078SOL    HW215687   2.043   3.661   0.899
 5079SOL     OW15688   2.358   3.437   0.906
 5079SOL    HW115689   2.426   3.500   0.930
 5079SOL    HW215690   2.403   3.374   0.850
 5080SOL     OW15691   2.844   2.653   1.226
 5080SOL    HW115692   2.902   2.631   1.299
 5080SOL    HW215693   2.759   2.619   1.252
 5081SOL     OW15694   1.899   2.399   1.117
 5081SOL    HW115695   1.984   2.398   1.072
 5081SOL    HW215696   1.921   2.413   1.209
 5082SOL     OW15697   2.059   2.385   1.723
 5082SOL    HW115698   2.119   2.353   1.656
 5082SOL    HW215699   2.010   2.456   1.681
 5083SOL     OW15700   3.240   2.801   1.659
 5083SOL    HW115701   3.261   2.894   1.657
 5083SOL    HW215702   3.237   2.775   1.567
 5084SOL     OW15703   2.676   2.437   0.372
 5084SOL    HW115704   2.688   2.363   0.313
 5084SOL    HW215705   2.604   2.487   0.332
 5085SOL     OW15706   3.503   2.464   1.186
 5085SOL    HW115707   3.492   2.403   1.259
 5085SOL    HW215708   3.589   2.442   1.149
 5086SOL     OW15709   2.106   3.412   1.727
 5086SOL    HW115710   2.083   3.478   1.792
 5086SOL    HW215711   2.107   3.330   1.775
 5087SOL     OW15712   2.558   2.313   1.260
 5087SOL    HW115713   2.509   2.237   1.227
 5087SOL    HW215714   2.557   2.375   1.188
 5088SOL     OW15715   2.791   3.535   1.468
 5088SOL    HW115716   2.764   3.499   1.383
 5088SOL    HW215717   2.783   3.630   1.457
 5089SOL     OW15718   2.303   2.360   0.229
 5089SOL    HW115719   2.369   2.429   0.236
 5089SOL    HW215720   2.227   2.403   0.190
 5090SOL     OW15721   2.008   3.003   1.473
 5090SOL    HW115722   2.009   2.951   1.553
 5090SOL    HW215723   2.025   2.940   1.403
 5091SOL     OW15724   3.186   2.908   1.223
 5091SOL    HW115725   3.210   2.845   1.155
 5091SOL    HW215726   3.117   2.961   1.184
 5092SOL     OW15727   3.174   2.720   0.325
 5092SOL    HW115728   3.099   2.686   0.374
 5092SOL    HW215729   3.151   2.706   0.233
 5093SOL     OW15730   3.636   3.605   1.152
 5093SOL    HW115731   3.695   3.631   1.081
 5093SOL    HW215732   3.610   3.516   1.130
 5094SOL     OW15733   3.105   3.596   1.112
 5094SOL    HW115734   3.188   3.616   1.068
 5094SOL    HW215735   3.110   3.502   1.131
 5095SOL     OW15736   1.947   3.127   1.012
 5095SOL    HW115737   1.932   3.141   1.106
 5095SOL    HW215738   1.872   3.074   0.984
 5096SOL     OW15739   2.540   3.525   1.729
 5096SOL    HW115740   2.485   3.604   1.733
 5096SOL    HW215741   2.600   3.542   1.656
 5097SOL     OW15742   2.784   1.968   0.132
 5097SOL    HW115743   2.819   1.958   0.043
 5097SOL    HW215744   2.833   1.906   0.185
 5098SOL     OW15745   3.570   2.008   0.515
 5098SOL    HW115746   3.649   2.000   0.460
 5098SOL    HW215747   3.561   1.921   0.555
 5099SOL     OW15748   3.251   3.434   0.484
 5099SOL    HW115749   3.314   3.468   0.420
 5099SOL    HW215750   3.204   3.511   0.515
 5100SOL     OW15751   1.994   3.654   1.839
 5100SOL    HW115752   1.943   3.590   1.888
 5100SOL    HW215753   2.044   3.700   1.907
 5101SOL     OW15754   3.138   2.787   0.671
 5101SOL    HW115755   3.212   2.727   0.679
 5101SOL    HW215756   3.172   2.860   0.619
 5102SOL     OW15757   2.676   3.135   1.430
 5102SOL    HW115758   2.648   3.174   1.512
 5102SOL    HW215759   2.606   3.158   1.368
 5103SOL     OW15760   2.546   3.449   0.180
 5103SOL    HW115761   2.525   3.496   0.099
 5103SOL    HW215762   2.488   3.373   0.179
 5104SOL     OW15763   3.484   3.588   1.390
 5104SOL    HW115764   3.538   3.592   1.311
 5104SOL    HW215765   3.472   3.679   1.416
 5105SOL     OW15766   3.700   2.043   0.968
 5105SOL    HW115767   3.730   1.956   0.942
 5105SOL    HW215768   3.613   2.051   0.927
 5106SOL     OW15769   3.083   3.462   0.032
 5106SOL    HW115770   3.071   3.372   0.061
 5106SOL    HW215771   3.039   3.466  13.847
 5107SOL     OW15772   2.686   2.868   1.372
 5107SOL    HW115773   2.731   2.865   1.287
 5107SOL    HW215774   2.685   2.961   1.395
 5108SOL     OW15775   2.783   2.773   0.288
 5108SOL    HW115776   2.853   2.811   0.235
 5108SOL    HW215777   2.826   2.701   0.336
 5109SOL     OW15778   3.350   3.502   0.066
 5109SOL    HW115779   3.256   3.485   0.054
 5109SOL    HW215780   3.386   3.501  13.877
 5110SOL     OW15781   2.232   3.164   1.491
 5110SOL    HW115782   2.217   3.242   1.437
 5110SOL    HW215783   2.154   3.110   1.476
 5111SOL     OW15784   3.465   3.142   1.279
 5111SOL    HW115785   3.533   3.135   1.346
 5111SOL    HW215786   3.408   3.212   1.309
 5112SOL     OW15787   2.914   2.969   0.706
 5112SOL    HW115788   2.844   2.917   0.746
 5112SOL    HW215789   2.978   2.904   0.676
 5113SOL     OW15790   2.882   2.102   0.966
 5113SOL    HW115791   2.878   2.054   0.883
 5113SOL    HW215792   2.878   2.034   1.033
 5114SOL     OW15793   2.466   3.351   0.481
 5114SOL    HW115794   2.509   3.300   0.413
 5114SOL    HW215795   2.399   3.401   0.434
 5115SOL     OW15796   3.584   2.252   1.379
 5115SOL    HW115797   3.656   2.316   1.375
 5115SOL    HW215798   3.613   2.180   1.323
 5116SOL     OW15799   2.130   3.187   0.296
 5116SOL    HW115800   2.046   3.196   0.252
 5116SOL    HW215801   2.119   3.233   0.379
 5117SOL     OW15802   1.974   2.884   1.719
 5117SOL    HW115803   1.898   2.861   1.772
 5117SOL    HW215804   2.048   2.847   1.767
 5118SOL     OW15805   2.535   2.060   1.499
 5118SOL    HW115806   2.618   2.039   1.457
 5118SOL    HW215807   2.559   2.090   1.587
 5119SOL     OW15808   1.874   2.288   0.052
 5119SOL    HW115809   1.863   2.193   0.058
 5119SOL    HW215810   1.932   2.301  13.877
 5120SOL     OW15811   3.290   2.720   1.400
 5120SOL    HW115812   3.241   2.782   1.346
 5120SOL    HW215813   3.379   2.722   1.364
 5121SOL     OW15814   3.048   3.210   0.122
 5121SOL    HW115815   2.954   3.194   0.111
 5121SOL    HW215816   3.063   3.196   0.216
 5122SOL     OW15817   2.481   2.692   1.432
 5122SOL    HW115818   2.536   2.769   1.418
 5122SOL    HW215819   2.543   2.620   1.441
 5123SOL     OW15820   3.347   3.642   0.981
 5123SOL    HW115821   3.372   3.692   0.903
 5123SOL    HW215822   3.430   3.614   1.019
 5124SOL     OW15823   2.580   2.424   1.702
 5124SOL    HW115824   2.619   2.488   1.762
 5124SOL    HW215825   2.605   2.339   1.736
 5125SOL     OW15826   3.333   3.062   1.632
 5125SOL    HW115827   3.323   3.076   1.726
 5125SOL    HW215828   3.427   3.076   1.616
 5126SOL     OW15829   2.240   3.601   1.563
 5126SOL    HW115830   2.154   3.642   1.548
 5126SOL    HW215831   2.220   3.517   1.605
 5127SOL     OW15832   3.528   2.743   1.258
 5127SOL    HW115833   3.526   2.658   1.215
 5127SOL    HW215834   3.522   2.806   1.187
 5128SOL     OW15835   3.081   2.182   0.455
 5128SOL    HW115836   3.144   2.111   0.448
 5128SOL    HW215837   3.108   2.231   0.532
 5129SOL     OW15838   2.448   2.598   0.671
 5129SOL    HW115839   2.490   2.684   0.657
 5129SOL    HW215840   2.382   2.592   0.602
 5130SOL     OW15841   3.623   2.226   1.649
 5130SOL    HW115842   3.606   2.239   1.556
 5130SOL    HW215843   3.554   2.168   1.679
 5131SOL     OW15844   3.616   2.792   1.514
 5131SOL    HW115845   3.609   2.886   1.530
 5131SOL    HW215846   3.593   2.782   1.421
 5132SOL     OW15847   2.768   3.259   0.060
 5132SOL    HW115848   2.697   3.246   0.123
 5132SOL    HW215849   2.724   3.271  13.876
 5133SOL     OW15850   2.522   3.653   0.943
 5133SOL    HW115851   2.500   3.743   0.920
 5133SOL    HW215852   2.617   3.649   0.936
 5134SOL     OW15853   2.729   2.829   0.855
 5134SOL    HW115854   2.780   2.758   0.894
 5134SOL    HW215855   2.695   2.878   0.929
 5135SOL     OW15856   2.960   2.870   0.108
 5135SOL    HW115857   2.949   2.917   0.025
 5135SOL    HW215858   3.034   2.812   0.093
 5136SOL     OW15859   3.716   3.416   0.841
 5136SOL    HW115860   3.636   3.401   0.790
 5136SOL    HW215861   3.712   3.351   0.911
 5137SOL     OW15862   2.087   3.165   1.856
 5137SOL    HW115863   2.020   3.103   1.826
 5137SOL    HW215864   2.069   3.177   1.949
 5138SOL     OW15865   1.945   3.093   0.665
 5138SOL    HW115866   1.952   3.045   0.748
 5138SOL    HW215867   2.017   3.059   0.612
 5139SOL     OW15868   2.544   3.265   1.628
 5139SOL    HW115869   2.464   3.222   1.659
 5139SOL    HW215870   2.540   3.353   1.665
 5140SOL     OW15871   3.676   2.042   1.239
 5140SOL    HW115872   3.669   1.947   1.244
 5140SOL    HW215873   3.689   2.061   1.146
 5141SOL     OW15874   2.291   2.292   0.533
 5141SOL    HW115875   2.323   2.235   0.463
 5141SOL    HW215876   2.251   2.233   0.596
 5142SOL     OW15877   3.560   3.352   1.097
 5142SOL    HW115878   3.480   3.327   1.051
 5142SOL    HW215879   3.574   3.282   1.161
 5143SOL     OW15880   2.192   2.416   1.289
 5143SOL    HW115881   2.238   2.356   1.348
 5143SOL    HW215882   2.211   2.382   1.202
 5144SOL     OW15883   2.689   3.440   0.678
 5144SOL    HW115884   2.677   3.491   0.597
 5144SOL    HW215885   2.613   3.383   0.682
 5145SOL     OW15886   3.293   2.088   1.117
 5145SOL    HW115887   3.317   2.007   1.162
 5145SOL    HW215888   3.242   2.137   1.182
 5146SOL     OW15889   2.870   1.880   1.142
 5146SOL    HW115890   2.817   1.812   1.101
 5146SOL    HW215891   2.959   1.843   1.144
 5147SOL     OW15892   2.634   3.184   0.319
 5147SOL    HW115893   2.605   3.095   0.336
 5147SOL    HW215894   2.718   3.191   0.364
 5148SOL     OW15895   2.482   3.416   1.284
 5148SOL    HW115896   2.483   3.498   1.335
 5148SOL    HW215897   2.569   3.410   1.247
 5149SOL     OW15898   3.210   1.927   0.163
 5149SOL    HW115899   3.243   1.867   0.097
 5149SOL    HW215900   3.128   1.888   0.193
 5150SOL     OW15901   3.157   2.323   0.680
 5150SOL    HW115902   3.105   2.403   0.688
 5150SOL    HW215903   3.154   2.283   0.767
 5151SOL     OW15904   3.445   2.063   0.877
 5151SOL    HW115905   3.386   2.085   0.949
 5151SOL    HW215906   3.446   2.141   0.822
 5152SOL     OW15907   1.902   2.931   0.309
 5152SOL    HW115908   1.997   2.927   0.306
 5152SOL    HW215909   1.875   2.841   0.328
 5153SOL     OW15910   2.755   3.518   0.346
 5153SOL    HW115911   2.683   3.488   0.290
 5153SOL    HW215912   2.720   3.593   0.393
 5154SOL     OW15913   2.094   2.492   1.983
 5154SOL    HW115914   2.008   2.468   2.018
 5154SOL    HW215915   2.092   2.462   1.892
 5155SOL     OW15916   1.868   2.285   2.493
 5155SOL    HW115917   1.779   2.280   2.527
 5155SOL    HW215918   1.879   2.206   2.440
 5156SOL     OW15919   2.429   3.150   3.037
 5156SOL    HW115920   2.341   3.154   2.998
 5156SOL    HW215921   2.444   3.238   3.071
 5157SOL     OW15922   3.423   3.374   2.570
 5157SOL    HW115923   3.380   3.352   2.653
 5157SOL    HW215924   3.351   3.377   2.506
 5158SOL     OW15925   2.991   2.560   2.563
 5158SOL    HW115926   3.041   2.641   2.548
 5158SOL    HW215927   2.945   2.575   2.645
 5159SOL     OW15928   3.628   2.469   2.092
 5159SOL    HW115929   3.608   2.461   1.999
 5159SOL    HW215930   3.593   2.389   2.131
 5160SOL     OW15931   2.617   3.004   2.903
 5160SOL    HW115932   2.548   3.039   2.960
 5160SOL    HW215933   2.652   3.081   2.859
 5161SOL     OW15934   2.728   2.635   3.684
 5161SOL    HW115935   2.716   2.706   3.747
 5161SOL    HW215936   2.752   2.680   3.602
 5162SOL     OW15937   2.548   2.863   2.509
 5162SOL    HW115938   2.613   2.853   2.578
 5162SOL    HW215939   2.479   2.916   2.548
 5163SOL     OW15940   2.573   3.013   3.674
 5163SOL    HW115941   2.620   3.091   3.702
 5163SOL    HW215942   2.490   3.046   3.639
 5164SOL     OW15943   2.193   3.286   2.929
 5164SOL    HW115944   2.120   3.250   2.880
 5164SOL    HW215945   2.242   3.338   2.865
 5165SOL     OW15946   3.322   3.362   3.216
 5165SOL    HW115947   3.374   3.442   3.227
 5165SOL    HW215948   3.260   3.365   3.289
 5166SOL     OW15949   2.284   2.236   3.339
 5166SOL    HW115950   2.372   2.201   3.353
 5166SOL    HW215951   2.227   2.160   3.350
 5167SOL     OW15952   3.473   2.310   2.604
 5167SOL    HW115953   3.400   2.333   2.548
 5167SOL    HW215954   3.490   2.388   2.657
 5168SOL     OW15955   2.083   3.578   2.341
 5168SOL    HW115956   2.116   3.638   2.407
 5168SOL    HW215957   2.153   3.574   2.276
 5169SOL     OW15958   2.998   3.204   3.555
 5169SOL    HW115959   3.039   3.198   3.641
 5169SOL    HW215960   2.946   3.124   3.548
 5170SOL     OW15961   2.091   3.304   2.397
 5170SOL    HW115962   2.073   3.397   2.403
 5170SOL    HW215963   2.032   3.264   2.461
 5171SOL     OW15964   2.120   2.953   2.753
 5171SOL    HW115965   2.116   2.867   2.794
 5171SOL    HW215966   2.062   3.008   2.806
 5172SOL     OW15967   2.473   3.649   3.291
 5172SOL    HW115968   2.391   3.633   3.338
 5172SOL    HW215969   2.499   3.738   3.316
 5173SOL     OW15970   2.448   2.843   1.996
 5173SOL    HW115971   2.493   2.893   1.928
 5173SOL    HW215972   2.487   2.875   2.078
 5174SOL     OW15973   3.457   1.986   3.329
 5174SOL    HW115974   3.465   2.068   3.280
 5174SOL    HW215975   3.445   2.014   3.420
 5175SOL     OW15976   1.983   2.523   2.422
 5175SOL    HW115977   1.948   2.436   2.442
 5175SOL    HW215978   1.973   2.572   2.503
 5176SOL     OW15979   3.700   3.615   2.203
 5176SOL    HW115980   3.769   3.590   2.264
 5176SOL    HW215981   3.721   3.705   2.179
 5177SOL     OW15982   1.890   3.455   1.985
 5177SOL    HW115983   1.875   3.363   2.006
 5177SOL    HW215984   1.870   3.502   2.065
 5178SOL     OW15985   3.550   2.781   2.505
 5178SOL    HW115986   3.634   2.739   2.488
 5178SOL    HW215987   3.531   2.830   2.425
 5179SOL     OW15988   3.503   2.968   2.293
 5179SOL    HW115989   3.588   2.974   2.249
 5179SOL    HW215990   3.510   3.030   2.366
 5180SOL     OW15991   1.983   2.607   3.445
 5180SOL    HW115992   2.074   2.634   3.456
 5180SOL    HW215993   1.933   2.688   3.455
 5181SOL     OW15994   2.476   3.249   2.597
 5181SOL    HW115995   2.430   3.165   2.606
 5181SOL    HW215996   2.459   3.275   2.506
 5182SOL     OW15997   3.150   3.100   3.285
 5182SOL    HW115998   3.183   3.033   3.225
 5182SOL    HW215999   3.208   3.094   3.361
 5183SOL     OW16000   2.699   1.861   2.378
 5183SOL    HW116001   2.739   1.945   2.355
 5183SOL    HW216002   2.605   1.878   2.374
 5184SOL     OW16003   2.053   2.829   3.133
 5184SOL    HW116004   2.137   2.786   3.118
 5184SOL    HW216005   1.989   2.774   3.089
 5185SOL     OW16006   3.391   2.856   2.061
 5185SOL    HW116007   3.321   2.799   2.094
 5185SOL    HW216008   3.432   2.891   2.140
 5186SOL     OW16009   3.075   3.665   3.488
 5186SOL    HW116010   3.056   3.724   3.416
 5186SOL    HW216011   3.077   3.578   3.447
 5187SOL     OW16012   3.327   3.282   2.812
 5187SOL    HW116013   3.260   3.297   2.879
 5187SOL    HW216014   3.316   3.191   2.787
 5188SOL     OW16015   3.512   3.603   2.442
 5188SOL    HW116016   3.502   3.570   2.353
 5188SOL    HW216017   3.494   3.528   2.498
 5189SOL     OW16018   2.459   2.586   2.130
 5189SOL    HW116019   2.463   2.667   2.079
 5189SOL    HW216020   2.393   2.603   2.197
 5190SOL     OW16021   3.140   2.216   2.795
 5190SOL    HW116022   3.051   2.181   2.803
 5190SOL    HW216023   3.192   2.163   2.855
 5191SOL     OW16024   3.437   3.537   2.170
 5191SOL    HW116025   3.529   3.563   2.166
 5191SOL    HW216026   3.414   3.516   2.079
 5192SOL     OW16027   2.655   2.480   3.311
 5192SOL    HW116028   2.630   2.456   3.401
 5192SOL    HW216029   2.614   2.413   3.257
 5193SOL     OW16030   3.256   2.335   3.540
 5193SOL    HW116031   3.258   2.380   3.625
 5193SOL    HW216032   3.316   2.262   3.550
 5194SOL     OW16033   2.816   2.749   3.445
 5194SOL    HW116034   2.871   2.679   3.409
 5194SOL    HW216035   2.769   2.784   3.369
 5195SOL     OW16036   2.855   2.275   3.100
 5195SOL    HW116037   2.770   2.296   3.138
 5195SOL    HW216038   2.835   2.229   3.019
 5196SOL     OW16039   2.913   2.560   2.288
 5196SOL    HW116040   2.929   2.554   2.382
 5196SOL    HW216041   2.830   2.514   2.274
 5197SOL     OW16042   1.950   2.685   2.640
 5197SOL    HW116043   2.032   2.679   2.690
 5197SOL    HW216044   1.906   2.763   2.674
 5198SOL     OW16045   1.986   3.702   3.438
 5198SOL    HW116046   1.986   3.683   3.532
 5198SOL    HW216047   1.893   3.707   3.415
 5199SOL     OW16048   2.756   2.212   2.058
 5199SOL    HW116049   2.797   2.272   1.996
 5199SOL    HW216050   2.766   2.126   2.017
 5200SOL     OW16051   3.573   2.437   3.690
 5200SOL    HW116052   3.534   2.511   3.643
 5200SOL    HW216053   3.596   2.374   3.622
 5201SOL     OW16054   3.238   3.004   2.403
 5201SOL    HW116055   3.317   2.991   2.352
 5201SOL    HW216056   3.186   3.066   2.352
 5202SOL     OW16057   2.408   2.051   2.756
 5202SOL    HW116058   2.411   2.075   2.849
 5202SOL    HW216059   2.427   2.133   2.710
 5203SOL     OW16060   2.868   3.307   2.334
 5203SOL    HW116061   2.829   3.380   2.285
 5203SOL    HW216062   2.849   3.327   2.426
 5204SOL     OW16063   2.213   3.671   2.702
 5204SOL    HW116064   2.263   3.591   2.721
 5204SOL    HW216065   2.273   3.743   2.723
 5205SOL     OW16066   3.666   2.923   2.728
 5205SOL    HW116067   3.611   2.900   2.653
 5205SOL    HW216068   3.605   2.927   2.802
 5206SOL     OW16069   3.090   3.399   3.374
 5206SOL    HW116070   3.076   3.327   3.435
 5206SOL    HW216071   3.024   3.385   3.305
 5207SOL     OW16072   2.181   2.818   2.113
 5207SOL    HW116073   2.262   2.837   2.066
 5207SOL    HW216074   2.149   2.737   2.074
 5208SOL     OW16075   3.340   2.605   2.589
 5208SOL    HW116076   3.333   2.562   2.674
 5208SOL    HW216077   3.418   2.660   2.597
 5209SOL     OW16078   2.328   3.126   3.599
 5209SOL    HW116079   2.301   3.131   3.507
 5209SOL    HW216080   2.246   3.124   3.648
 5210SOL     OW16081   2.975   3.643   2.085
 5210SOL    HW116082   2.913   3.596   2.140
 5210SOL    HW216083   3.005   3.578   2.021
 5211SOL     OW16084   3.488   3.245   1.951
 5211SOL    HW116085   3.445   3.329   1.933
 5211SOL    HW216086   3.421   3.180   1.931
 5212SOL     OW16087   2.330   3.596   2.187
 5212SOL    HW116088   2.367   3.661   2.246
 5212SOL    HW216089   2.403   3.572   2.130
 5213SOL     OW16090   3.263   1.970   2.295
 5213SOL    HW116091   3.254   1.944   2.203
 5213SOL    HW216092   3.357   1.975   2.310
 5214SOL     OW16093   2.121   3.654   3.088
 5214SOL    HW116094   2.169   3.586   3.135
 5214SOL    HW216095   2.107   3.618   3.001
 5215SOL     OW16096   2.800   3.562   2.763
 5215SOL    HW116097   2.877   3.509   2.784
 5215SOL    HW216098   2.755   3.512   2.694
 5216SOL     OW16099   2.256   2.557   2.338
 5216SOL    HW116100   2.274   2.463   2.348
 5216SOL    HW216101   2.162   2.564   2.356
 5217SOL     OW16102   3.398   2.087   3.588
 5217SOL    HW116103   3.407   2.108   3.681
 5217SOL    HW216104   3.329   2.020   3.585
 5218SOL     OW16105   2.507   1.987   1.967
 5218SOL    HW116106   2.571   1.920   1.993
 5218SOL    HW216107   2.459   1.948   1.894
 5219SOL     OW16108   2.627   2.139   3.616
 5219SOL    HW116109   2.704   2.082   3.616
 5219SOL    HW216110   2.581   2.116   3.697
 5220SOL     OW16111   2.738   3.382   3.056
 5220SOL    HW116112   2.722   3.347   2.969
 5220SOL    HW216113   2.808   3.328   3.092
 5221SOL     OW16114   3.203   2.451   3.294
 5221SOL    HW116115   3.234   2.420   3.379
 5221SOL    HW216116   3.239   2.539   3.287
 5222SOL     OW16117   2.677   3.257   2.802
 5222SOL    HW116118   2.761   3.245   2.758
 5222SOL    HW216119   2.613   3.258   2.731
 5223SOL     OW16120   2.789   2.370   2.765
 5223SOL    HW116121   2.766   2.363   2.673
 5223SOL    HW216122   2.822   2.284   2.789
 5224SOL     OW16123   2.444   1.926   2.340
 5224SOL    HW116124   2.370   1.917   2.400
 5224SOL    HW216125   2.426   2.006   2.291
 5225SOL     OW16126   3.290   3.061   1.903
 5225SOL    HW116127   3.321   2.985   1.953
 5225SOL    HW216128   3.204   3.081   1.940
 5226SOL     OW16129   2.804   2.111   2.321
 5226SOL    HW116130   2.776   2.151   2.239
 5226SOL    HW216131   2.899   2.126   2.325
 5227SOL     OW16132   2.943   2.543   3.321
 5227SOL    HW116133   2.875   2.476   3.327
 5227SOL    HW216134   3.025   2.494   3.315
 5228SOL     OW16135   3.084   3.432   2.656
 5228SOL    HW116136   3.101   3.500   2.590
 5228SOL    HW216137   3.153   3.443   2.721
 5229SOL     OW16138   2.331   3.012   2.595
 5229SOL    HW116139   2.262   2.993   2.658
 5229SOL    HW216140   2.291   2.996   2.510
 5230SOL     OW16141   3.130   3.658   2.468
 5230SOL    HW116142   3.175   3.722   2.414
 5230SOL    HW216143   3.059   3.707   2.510
 5231SOL     OW16144   2.885   2.403   1.884
 5231SOL    HW116145   2.843   2.487   1.865
 5231SOL    HW216146   2.951   2.425   1.951
 5232SOL     OW16147   1.938   2.423   3.248
 5232SOL    HW116148   2.031   2.419   3.227
 5232SOL    HW216149   1.932   2.489   3.317
 5233SOL     OW16150   2.417   2.083   3.031
 5233SOL    HW116151   2.466   2.005   3.057
 5233SOL    HW216152   2.333   2.075   3.076
 5234SOL     OW16153   2.726   2.320   2.502
 5234SOL    HW116154   2.685   2.375   2.436
 5234SOL    HW216155   2.751   2.240   2.454
 5235SOL     OW16156   2.874   1.916   2.614
 5235SOL    HW116157   2.819   1.905   2.536
 5235SOL    HW216158   2.854   1.839   2.668
 5236SOL     OW16159   3.300   3.025   2.719
 5236SOL    HW116160   3.230   2.959   2.718
 5236SOL    HW216161   3.325   3.035   2.627
 5237SOL     OW16162   3.327   2.468   2.839
 5237SOL    HW116163   3.278   2.387   2.841
 5237SOL    HW216164   3.387   2.462   2.913
 5238SOL     OW16165   3.723   2.680   2.237
 5238SOL    HW116166   3.767   2.624   2.301
 5238SOL    HW216167   3.686   2.619   2.173
 5239SOL     OW16168   2.353   3.279   2.018
 5239SOL    HW116169   2.278   3.251   2.070
 5239SOL    HW216170   2.337   3.241   1.931
 5240SOL     OW16171   3.528   3.127   2.508
 5240SOL    HW116172   3.623   3.130   2.517
 5240SOL    HW216173   3.499   3.216   2.529
 5241SOL     OW16174   3.256   2.433   1.933
 5241SOL    HW116175   3.194   2.414   2.004
 5241SOL    HW216176   3.340   2.401   1.966
 5242SOL     OW16177   2.384   2.130   2.174
 5242SOL    HW116178   2.427   2.080   2.105
 5242SOL    HW216179   2.362   2.214   2.134
 5243SOL     OW16180   3.614   3.097   3.432
 5243SOL    HW116181   3.701   3.061   3.415
 5243SOL    HW216182   3.630   3.186   3.462
 5244SOL     OW16183   2.920   3.215   3.195
 5244SOL    HW116184   2.845   3.184   3.246
 5244SOL    HW216185   2.996   3.174   3.236
 5245SOL     OW16186   3.468   3.490   3.517
 5245SOL    HW116187   3.460   3.523   3.428
 5245SOL    HW216188   3.550   3.440   3.517
 5246SOL     OW16189   2.991   3.066   2.967
 5246SOL    HW116190   2.932   3.104   3.032
 5246SOL    HW216191   2.958   3.098   2.883
 5247SOL     OW16192   3.493   2.960   2.938
 5247SOL    HW116193   3.485   3.021   3.011
 5247SOL    HW216194   3.414   2.975   2.886
 5248SOL     OW16195   2.779   1.960   3.257
 5248SOL    HW116196   2.803   1.940   3.167
 5248SOL    HW216197   2.858   1.999   3.295
 5249SOL     OW16198   2.846   2.977   3.585
 5249SOL    HW116199   2.754   2.993   3.606
 5249SOL    HW216200   2.844   2.899   3.529
 5250SOL     OW16201   2.571   2.923   2.233
 5250SOL    HW116202   2.556   2.906   2.326
 5250SOL    HW216203   2.646   2.870   2.210
 5251SOL     OW16204   2.280   2.675   3.113
 5251SOL    HW116205   2.348   2.687   3.179
 5251SOL    HW216206   2.245   2.588   3.130
 5252SOL     OW16207   3.128   2.239   3.138
 5252SOL    HW116208   3.161   2.316   3.184
 5252SOL    HW216209   3.038   2.261   3.115
 5253SOL     OW16210   1.933   3.435   3.214
 5253SOL    HW116211   1.904   3.510   3.162
 5253SOL    HW216212   2.028   3.438   3.210
 5254SOL     OW16213   2.211   2.972   2.352
 5254SOL    HW116214   2.215   3.045   2.291
 5254SOL    HW216215   2.208   2.894   2.296
 5255SOL     OW16216   2.409   2.399   2.725
 5255SOL    HW116217   2.423   2.456   2.649
 5255SOL    HW216218   2.476   2.425   2.788
 5256SOL     OW16219   3.110   3.210   2.251
 5256SOL    HW116220   3.166   3.282   2.282
 5256SOL    HW216221   3.023   3.232   2.285
 5257SOL     OW16222   3.143   3.321   3.009
 5257SOL    HW116223   3.199   3.324   3.087
 5257SOL    HW216224   3.088   3.243   3.022
 5258SOL     OW16225   3.442   2.484   2.342
 5258SOL    HW116226   3.396   2.538   2.406
 5258SOL    HW216227   3.485   2.547   2.284
 5259SOL     OW16228   2.208   3.390   3.176
 5259SOL    HW116229   2.196   3.346   3.092
 5259SOL    HW216230   2.303   3.401   3.184
 5260SOL     OW16231   2.277   2.608   3.464
 5260SOL    HW116232   2.339   2.651   3.406
 5260SOL    HW216233   2.320   2.527   3.489
 5261SOL     OW16234   3.464   2.640   3.543
 5261SOL    HW116235   3.378   2.682   3.537
 5261SOL    HW216236   3.516   2.683   3.475
 5262SOL     OW16237   2.857   1.986   3.615
 5262SOL    HW116238   2.915   2.058   3.589
 5262SOL    HW216239   2.905   1.907   3.591
 5263SOL     OW16240   2.372   1.897   3.610
 5263SOL    HW116241   2.326   1.842   3.547
 5263SOL    HW216242   2.311   1.969   3.628
 5264SOL     OW16243   2.446   2.734   2.894
 5264SOL    HW116244   2.477   2.825   2.891
 5264SOL    HW216245   2.389   2.731   2.971
 5265SOL     OW16246   3.219   2.721   2.891
 5265SOL    HW116247   3.136   2.711   2.844
 5265SOL    HW216248   3.261   2.635   2.886
 5266SOL     OW16249   3.066   2.390   2.128
 5266SOL    HW116250   3.075   2.312   2.183
 5266SOL    HW216251   3.023   2.455   2.185
 5267SOL     OW16252   1.908   3.173   3.138
 5267SOL    HW116253   1.941   3.118   3.210
 5267SOL    HW216254   1.915   3.262   3.171
 5268SOL     OW16255   2.583   2.490   2.918
 5268SOL    HW116256   2.660   2.475   2.863
 5268SOL    HW216257   2.558   2.580   2.900
 5269SOL     OW16258   3.593   2.821   3.720
 5269SOL    HW116259   3.551   2.760   3.660
 5269SOL    HW216260   3.530   2.833   3.791
 5270SOL     OW16261   2.222   1.902   2.476
 5270SOL    HW116262   2.146   1.956   2.455
 5270SOL    HW216263   2.206   1.871   2.565
 5271SOL     OW16264   3.479   2.237   2.228
 5271SOL    HW116265   3.506   2.172   2.294
 5271SOL    HW216266   3.456   2.314   2.279
 5272SOL     OW16267   2.889   2.621   2.822
 5272SOL    HW116268   2.886   2.638   2.916
 5272SOL    HW216269   2.863   2.529   2.814
 5273SOL     OW16270   2.847   3.430   3.580
 5273SOL    HW116271   2.829   3.472   3.496
 5273SOL    HW216272   2.889   3.347   3.558
 5274SOL     OW16273   3.707   3.364   3.461
 5274SOL    HW116274   3.729   3.392   3.373
 5274SOL    HW216275   3.787   3.377   3.512
 5275SOL     OW16276   2.216   2.781   3.670
 5275SOL    HW116277   2.298   2.798   3.716
 5275SOL    HW216278   2.239   2.718   3.602
 5276SOL     OW16279   3.392   2.135   1.989
 5276SOL    HW116280   3.327   2.070   2.015
 5276SOL    HW216281   3.424   2.171   2.072
 5277SOL     OW16282   3.153   2.688   1.893
 5277SOL    HW116283   3.196   2.602   1.896
 5277SOL    HW216284   3.185   2.727   1.812
 5278SOL     OW16285   2.927   3.198   2.716
 5278SOL    HW116286   2.931   3.125   2.654
 5278SOL    HW216287   2.989   3.262   2.681
 5279SOL     OW16288   2.172   2.673   2.809
 5279SOL    HW116289   2.264   2.695   2.799
 5279SOL    HW216290   2.172   2.586   2.849
 5280SOL     OW16291   2.188   2.360   2.874
 5280SOL    HW116292   2.147   2.288   2.826
 5280SOL    HW216293   2.267   2.380   2.825
 5281SOL     OW16294   2.996   2.238   3.544
 5281SOL    HW116295   2.949   2.293   3.607
 5281SOL    HW216296   3.084   2.276   3.540
 5282SOL     OW16297   3.022   2.065   3.332
 5282SOL    HW116298   3.012   2.127   3.403
 5282SOL    HW216299   3.063   2.115   3.261
 5283SOL     OW16300   1.867   3.183   2.057
 5283SOL    HW116301   1.780   3.197   2.020
 5283SOL    HW216302   1.864   3.093   2.091
 5284SOL     OW16303   1.957   3.644   2.799
 5284SOL    HW116304   1.927   3.565   2.755
 5284SOL    HW216305   2.043   3.661   2.761
 5285SOL     OW16306   2.358   3.437   2.768
 5285SOL    HW116307   2.426   3.500   2.792
 5285SOL    HW216308   2.403   3.374   2.712
 5286SOL     OW16309   2.844   2.653   3.088
 5286SOL    HW116310   2.902   2.631   3.161
 5286SOL    HW216311   2.759   2.619   3.114
 5287SOL     OW16312   1.899   2.398   2.979
 5287SOL    HW116313   1.983   2.399   2.934
 5287SOL    HW216314   1.921   2.413   3.071
 5288SOL     OW16315   2.061   2.387   3.585
 5288SOL    HW116316   2.121   2.355   3.518
 5288SOL    HW216317   2.012   2.458   3.542
 5289SOL     OW16318   3.240   2.801   3.521
 5289SOL    HW116319   3.261   2.894   3.519
 5289SOL    HW216320   3.237   2.775   3.429
 5290SOL     OW16321   2.678   2.431   2.224
 5290SOL    HW116322   2.682   2.357   2.164
 5290SOL    HW216323   2.604   2.484   2.192
 5291SOL     OW16324   3.503   2.464   3.048
 5291SOL    HW116325   3.492   2.403   3.121
 5291SOL    HW216326   3.589   2.442   3.011
 5292SOL     OW16327   2.106   3.412   3.589
 5292SOL    HW116328   2.083   3.478   3.654
 5292SOL    HW216329   2.107   3.329   3.637
 5293SOL     OW16330   2.558   2.312   3.122
 5293SOL    HW116331   2.509   2.237   3.089
 5293SOL    HW216332   2.557   2.375   3.050
 5294SOL     OW16333   2.791   3.535   3.330
 5294SOL    HW116334   2.764   3.499   3.245
 5294SOL    HW216335   2.783   3.630   3.319
 5295SOL     OW16336   2.326   2.360   2.053
 5295SOL    HW116337   2.383   2.434   2.073
 5295SOL    HW216338   2.241   2.400   2.034
 5296SOL     OW16339   2.008   3.003   3.335
 5296SOL    HW116340   2.009   2.951   3.415
 5296SOL    HW216341   2.025   2.939   3.265
 5297SOL     OW16342   3.186   2.908   3.085
 5297SOL    HW116343   3.210   2.845   3.017
 5297SOL    HW216344   3.117   2.961   3.046
 5298SOL     OW16345   3.173   2.718   2.168
 5298SOL    HW116346   3.098   2.688   2.218
 5298SOL    HW216347   3.148   2.705   2.077
 5299SOL     OW16348   3.636   3.606   3.014
 5299SOL    HW116349   3.694   3.631   2.943
 5299SOL    HW216350   3.610   3.516   2.992
 5300SOL     OW16351   3.105   3.596   2.974
 5300SOL    HW116352   3.188   3.616   2.930
 5300SOL    HW216353   3.110   3.502   2.993
 5301SOL     OW16354   1.946   3.129   2.874
 5301SOL    HW116355   1.932   3.142   2.968
 5301SOL    HW216356   1.873   3.074   2.846
 5302SOL     OW16357   2.540   3.525   3.591
 5302SOL    HW116358   2.485   3.604   3.595
 5302SOL    HW216359   2.600   3.542   3.518
 5303SOL     OW16360   3.574   2.009   2.375
 5303SOL    HW116361   3.643   1.997   2.309
 5303SOL    HW216362   3.563   1.923   2.414
 5304SOL     OW16363   3.252   3.430   2.347
 5304SOL    HW116364   3.312   3.463   2.280
 5304SOL    HW216365   3.204   3.508   2.377
 5305SOL     OW16366   1.994   3.654   3.701
 5305SOL    HW116367   1.943   3.590   3.750
 5305SOL    HW216368   2.044   3.700   3.769
 5306SOL     OW16369   3.139   2.787   2.533
 5306SOL    HW116370   3.213   2.727   2.540
 5306SOL    HW216371   3.173   2.860   2.481
 5307SOL     OW16372   2.675   3.135   3.292
 5307SOL    HW116373   2.648   3.174   3.374
 5307SOL    HW216374   2.606   3.158   3.230
 5308SOL     OW16375   2.537   3.478   2.019
 5308SOL    HW116376   2.545   3.494   1.925
 5308SOL    HW216377   2.479   3.402   2.025
 5309SOL     OW16378   3.484   3.588   3.252
 5309SOL    HW116379   3.538   3.593   3.173
 5309SOL    HW216380   3.472   3.679   3.278
 5310SOL     OW16381   3.699   2.043   2.830
 5310SOL    HW116382   3.730   1.956   2.804
 5310SOL    HW216383   3.613   2.051   2.789
 5311SOL     OW16384   3.069   3.468   1.897
 5311SOL    HW116385   3.059   3.376   1.921
 5311SOL    HW216386   3.008   3.480   1.824
 5312SOL     OW16387   2.686   2.868   3.234
 5312SOL    HW116388   2.730   2.865   3.149
 5312SOL    HW216389   2.685   2.961   3.257
 5313SOL     OW16390   2.778   2.772   2.152
 5313SOL    HW116391   2.839   2.805   2.086
 5313SOL    HW216392   2.826   2.703   2.197
 5314SOL     OW16393   3.352   3.491   1.904
 5314SOL    HW116394   3.258   3.480   1.888
 5314SOL    HW216395   3.390   3.496   1.816
 5315SOL     OW16396   2.232   3.164   3.353
 5315SOL    HW116397   2.217   3.242   3.299
 5315SOL    HW216398   2.154   3.110   3.338
 5316SOL     OW16399   3.465   3.142   3.141
 5316SOL    HW116400   3.533   3.135   3.208
 5316SOL    HW216401   3.408   3.212   3.171
 5317SOL     OW16402   2.915   2.969   2.569
 5317SOL    HW116403   2.844   2.918   2.607
 5317SOL    HW216404   2.977   2.904   2.538
 5318SOL     OW16405   2.882   2.102   2.828
 5318SOL    HW116406   2.878   2.054   2.745
 5318SOL    HW216407   2.878   2.034   2.895
 5319SOL     OW16408   2.465   3.352   2.342
 5319SOL    HW116409   2.509   3.301   2.274
 5319SOL    HW216410   2.397   3.401   2.296
 5320SOL     OW16411   3.584   2.252   3.241
 5320SOL    HW116412   3.656   2.316   3.237
 5320SOL    HW216413   3.613   2.180   3.185
 5321SOL     OW16414   2.121   3.207   2.151
 5321SOL    HW116415   2.028   3.204   2.128
 5321SOL    HW216416   2.124   3.244   2.239
 5322SOL     OW16417   1.974   2.884   3.581
 5322SOL    HW116418   1.898   2.861   3.634
 5322SOL    HW216419   2.048   2.847   3.629
 5323SOL     OW16420   2.535   2.060   3.361
 5323SOL    HW116421   2.618   2.039   3.319
 5323SOL    HW216422   2.559   2.090   3.449
 5324SOL     OW16423   1.898   2.279   1.926
 5324SOL    HW116424   1.857   2.198   1.897
 5324SOL    HW216425   1.948   2.309   1.850
 5325SOL     OW16426   3.290   2.721   3.262
 5325SOL    HW116427   3.241   2.782   3.208
 5325SOL    HW216428   3.379   2.722   3.226
 5326SOL     OW16429   3.040   3.201   1.979
 5326SOL    HW116430   2.949   3.171   1.981
 5326SOL    HW216431   3.068   3.200   2.071
 5327SOL     OW16432   2.481   2.692   3.295
 5327SOL    HW116433   2.536   2.769   3.280
 5327SOL    HW216434   2.543   2.620   3.303
 5328SOL     OW16435   3.347   3.642   2.843
 5328SOL    HW116436   3.372   3.693   2.766
 5328SOL    HW216437   3.430   3.614   2.882
 5329SOL     OW16438   2.580   2.424   3.564
 5329SOL    HW116439   2.619   2.488   3.624
 5329SOL    HW216440   2.605   2.339   3.598
 5330SOL     OW16441   3.333   3.062   3.494
 5330SOL    HW116442   3.322   3.076   3.588
 5330SOL    HW216443   3.427   3.076   3.478
 5331SOL     OW16444   2.240   3.601   3.425
 5331SOL    HW116445   2.154   3.642   3.411
 5331SOL    HW216446   2.220   3.517   3.467
 5332SOL     OW16447   3.528   2.743   3.120
 5332SOL    HW116448   3.526   2.657   3.077
 5332SOL    HW216449   3.522   2.806   3.049
 5333SOL     OW16450   3.079   2.181   2.319
 5333SOL    HW116451   3.142   2.110   2.311
 5333SOL    HW216452   3.108   2.230   2.396
 5334SOL     OW16453   2.449   2.599   2.533
 5334SOL    HW116454   2.490   2.684   2.518
 5334SOL    HW216455   2.383   2.591   2.465
 5335SOL     OW16456   3.623   2.226   3.511
 5335SOL    HW116457   3.606   2.239   3.418
 5335SOL    HW216458   3.554   2.168   3.541
 5336SOL     OW16459   3.616   2.792   3.375
 5336SOL    HW116460   3.609   2.886   3.392
 5336SOL    HW216461   3.593   2.782   3.283
 5337SOL     OW16462   2.725   3.230   1.897
 5337SOL    HW116463   2.685   3.257   1.979
 5337SOL    HW216464   2.742   3.311   1.850
 5338SOL     OW16465   2.522   3.653   2.805
 5338SOL    HW116466   2.500   3.743   2.782
 5338SOL    HW216467   2.617   3.649   2.799
 5339SOL     OW16468   2.729   2.829   2.717
 5339SOL    HW116469   2.780   2.758   2.756
 5339SOL    HW216470   2.695   2.878   2.792
 5340SOL     OW16471   2.941   2.850   1.951
 5340SOL    HW116472   2.919   2.901   1.873
 5340SOL    HW216473   3.016   2.797   1.924
 5341SOL     OW16474   3.715   3.417   2.703
 5341SOL    HW116475   3.636   3.398   2.653
 5341SOL    HW216476   3.716   3.351   2.772
 5342SOL     OW16477   2.087   3.165   3.718
 5342SOL    HW116478   2.020   3.103   3.688
 5342SOL    HW216479   2.069   3.177   3.811
 5343SOL     OW16480   1.946   3.095   2.527
 5343SOL    HW116481   1.952   3.047   2.609
 5343SOL    HW216482   2.014   3.055   2.471
 5344SOL     OW16483   2.544   3.265   3.490
 5344SOL    HW116484   2.464   3.222   3.521
 5344SOL    HW216485   2.540   3.353   3.527
 5345SOL     OW16486   3.676   2.042   3.101
 5345SOL    HW116487   3.669   1.947   3.106
 5345SOL    HW216488   3.689   2.061   3.008
 5346SOL     OW16489   2.291   2.292   2.386
 5346SOL    HW116490   2.325   2.232   2.319
 5346SOL    HW216491   2.251   2.235   2.451
 5347SOL     OW16492   3.560   3.353   2.960
 5347SOL    HW116493   3.480   3.327   2.913
 5347SOL    HW216494   3.574   3.282   3.023
 5348SOL     OW16495   2.192   2.416   3.151
 5348SOL    HW116496   2.238   2.357   3.210
 5348SOL    HW216497   2.210   2.382   3.063
 5349SOL     OW16498   2.689   3.440   2.539
 5349SOL    HW116499   2.675   3.489   2.458
 5349SOL    HW216500   2.613   3.382   2.545
 5350SOL     OW16501   3.293   2.088   2.979
 5350SOL    HW116502   3.317   2.007   3.024
 5350SOL    HW216503   3.242   2.137   3.044
 5351SOL     OW16504   2.870   1.880   3.004
 5351SOL    HW116505   2.817   1.812   2.963
 5351SOL    HW216506   2.959   1.843   3.006
 5352SOL     OW16507   2.634   3.194   2.178
 5352SOL    HW116508   2.602   3.104   2.183
 5352SOL    HW216509   2.717   3.194   2.226
 5353SOL     OW16510   2.482   3.417   3.146
 5353SOL    HW116511   2.483   3.498   3.197
 5353SOL    HW216512   2.569   3.410   3.109
 5354SOL     OW16513   3.215   1.916   2.027
 5354SOL    HW116514   3.244   1.850   1.964
 5354SOL    HW216515   3.127   1.887   2.053
 5355SOL     OW16516   3.157   2.323   2.543
 5355SOL    HW116517   3.105   2.403   2.550
 5355SOL    HW216518   3.154   2.284   2.630
 5356SOL     OW16519   3.445   2.063   2.739
 5356SOL    HW116520   3.386   2.085   2.811
 5356SOL    HW216521   3.446   2.141   2.684
 5357SOL     OW16522   1.906   2.933   2.168
 5357SOL    HW116523   1.999   2.924   2.150
 5357SOL    HW216524   1.877   2.844   2.191
 5358SOL     OW16525   2.746   3.518   2.206
 5358SOL    HW116526   2.676   3.498   2.145
 5358SOL    HW216527   2.715   3.594   2.255
 5359SOL     OW16528   2.094   2.492   3.845
 5359SOL    HW116529   2.008   2.469   3.880
 5359SOL    HW216530   2.092   2.463   3.754
 5360SOL     OW16531   1.866   2.287   4.352
 5360SOL    HW116532   1.777   2.283   4.387
 5360SOL    HW216533   1.872   2.210   4.295
 5361SOL     OW16534   2.429   3.150   4.899
 5361SOL    HW116535   2.341   3.154   4.860
 5361SOL    HW216536   2.444   3.238   4.933
 5362SOL     OW16537   3.423   3.374   4.432
 5362SOL    HW116538   3.380   3.352   4.515
 5362SOL    HW216539   3.351   3.377   4.368
 5363SOL     OW16540   2.991   2.560   4.425
 5363SOL    HW116541   3.041   2.641   4.410
 5363SOL    HW216542   2.945   2.575   4.507
 5364SOL     OW16543   3.628   2.469   3.954
 5364SOL    HW116544   3.608   2.461   3.861
 5364SOL    HW216545   3.593   2.389   3.993
 5365SOL     OW16546   2.616   3.004   4.765
 5365SOL    HW116547   2.548   3.039   4.822
 5365SOL    HW216548   2.652   3.081   4.721
 5366SOL     OW16549   2.727   2.636   5.546
 5366SOL    HW116550   2.719   2.707   5.610
 5366SOL    HW216551   2.752   2.680   5.464
 5367SOL     OW16552   2.548   2.863   4.371
 5367SOL    HW116553   2.613   2.853   4.440
 5367SOL    HW216554   2.479   2.916   4.410
 5368SOL     OW16555   2.573   3.013   5.536
 5368SOL    HW116556   2.620   3.092   5.563
 5368SOL    HW216557   2.490   3.047   5.500
 5369SOL     OW16558   2.193   3.286   4.791
 5369SOL    HW116559   2.120   3.250   4.742
 5369SOL    HW216560   2.242   3.338   4.727
 5370SOL     OW16561   3.322   3.362   5.078
 5370SOL    HW116562   3.374   3.442   5.088
 5370SOL    HW216563   3.260   3.365   5.151
 5371SOL     OW16564   2.285   2.237   5.203
 5371SOL    HW116565   2.373   2.203   5.216
 5371SOL    HW216566   2.228   2.160   5.208
 5372SOL     OW16567   3.473   2.310   4.466
 5372SOL    HW116568   3.400   2.333   4.410
 5372SOL    HW216569   3.490   2.388   4.519
 5373SOL     OW16570   2.083   3.578   4.203
 5373SOL    HW116571   2.116   3.638   4.269
 5373SOL    HW216572   2.153   3.574   4.138
 5374SOL     OW16573   2.998   3.204   5.417
 5374SOL    HW116574   3.039   3.198   5.503
 5374SOL    HW216575   2.946   3.124   5.410
 5375SOL     OW16576   2.091   3.304   4.259
 5375SOL    HW116577   2.073   3.397   4.265
 5375SOL    HW216578   2.032   3.264   4.323
 5376SOL     OW16579   2.120   2.953   4.615
 5376SOL    HW116580   2.116   2.867   4.656
 5376SOL    HW216581   2.062   3.008   4.668
 5377SOL     OW16582   2.473   3.649   5.153
 5377SOL    HW116583   2.391   3.633   5.200
 5377SOL    HW216584   2.499   3.738   5.178
 5378SOL     OW16585   2.448   2.843   3.858
 5378SOL    HW116586   2.493   2.893   3.790
 5378SOL    HW216587   2.487   2.875   3.940
 5379SOL     OW16588   3.457   1.986   5.191
 5379SOL    HW116589   3.465   2.068   5.142
 5379SOL    HW216590   3.445   2.014   5.282
 5380SOL     OW16591   1.984   2.523   4.284
 5380SOL    HW116592   1.948   2.437   4.303
 5380SOL    HW216593   1.973   2.573   4.365
 5381SOL     OW16594   3.700   3.615   4.065
 5381SOL    HW116595   3.769   3.590   4.126
 5381SOL    HW216596   3.721   3.705   4.041
 5382SOL     OW16597   1.890   3.455   3.846
 5382SOL    HW116598   1.875   3.363   3.868
 5382SOL    HW216599   1.870   3.502   3.927
 5383SOL     OW16600   3.550   2.781   4.367
 5383SOL    HW116601   3.634   2.739   4.350
 5383SOL    HW216602   3.531   2.830   4.287
 5384SOL     OW16603   3.503   2.968   4.155
 5384SOL    HW116604   3.588   2.974   4.111
 5384SOL    HW216605   3.510   3.030   4.228
 5385SOL     OW16606   1.983   2.608   5.306
 5385SOL    HW116607   2.074   2.635   5.317
 5385SOL    HW216608   1.932   2.688   5.315
 5386SOL     OW16609   2.476   3.249   4.459
 5386SOL    HW116610   2.430   3.165   4.468
 5386SOL    HW216611   2.459   3.275   4.368
 5387SOL     OW16612   3.150   3.100   5.147
 5387SOL    HW116613   3.183   3.033   5.087
 5387SOL    HW216614   3.208   3.094   5.223
 5388SOL     OW16615   2.700   1.861   4.240
 5388SOL    HW116616   2.739   1.945   4.217
 5388SOL    HW216617   2.605   1.878   4.236
 5389SOL     OW16618   2.053   2.829   4.996
 5389SOL    HW116619   2.137   2.786   4.980
 5389SOL    HW216620   1.988   2.774   4.951
 5390SOL     OW16621   3.391   2.856   3.923
 5390SOL    HW116622   3.321   2.799   3.956
 5390SOL    HW216623   3.432   2.891   4.002
 5391SOL     OW16624   3.075   3.665   5.350
 5391SOL    HW116625   3.056   3.724   5.277
 5391SOL    HW216626   3.077   3.578   5.309
 5392SOL     OW16627   3.327   3.282   4.674
 5392SOL    HW116628   3.260   3.297   4.741
 5392SOL    HW216629   3.316   3.191   4.649
 5393SOL     OW16630   3.512   3.603   4.304
 5393SOL    HW116631   3.502   3.570   4.215
 5393SOL    HW216632   3.494   3.528   4.360
 5394SOL     OW16633   2.459   2.586   3.992
 5394SOL    HW116634   2.463   2.667   3.941
 5394SOL    HW216635   2.393   2.604   4.059
 5395SOL     OW16636   3.140   2.216   4.657
 5395SOL    HW116637   3.051   2.181   4.665
 5395SOL    HW216638   3.192   2.163   4.717
 5396SOL     OW16639   3.437   3.537   4.032
 5396SOL    HW116640   3.529   3.563   4.028
 5396SOL    HW216641   3.414   3.516   3.941
 5397SOL     OW16642   2.654   2.480   5.173
 5397SOL    HW116643   2.630   2.456   5.263
 5397SOL    HW216644   2.613   2.413   5.119
 5398SOL     OW16645   3.256   2.335   5.402
 5398SOL    HW116646   3.258   2.380   5.487
 5398SOL    HW216647   3.316   2.262   5.412
 5399SOL     OW16648   2.816   2.749   5.307
 5399SOL    HW116649   2.871   2.679   5.271
 5399SOL    HW216650   2.769   2.784   5.231
 5400SOL     OW16651   2.855   2.275   4.962
 5400SOL    HW116652   2.770   2.296   5.000
 5400SOL    HW216653   2.835   2.229   4.881
 5401SOL     OW16654   2.913   2.560   4.150
 5401SOL    HW116655   2.929   2.554   4.244
 5401SOL    HW216656   2.830   2.514   4.136
 5402SOL     OW16657   1.950   2.685   4.502
 5402SOL    HW116658   2.032   2.680   4.552
 5402SOL    HW216659   1.906   2.762   4.536
 5403SOL     OW16660   1.986   3.701   5.299
 5403SOL    HW116661   1.986   3.683   5.393
 5403SOL    HW216662   1.893   3.708   5.277
 5404SOL     OW16663   2.756   2.212   3.920
 5404SOL    HW116664   2.797   2.272   3.858
 5404SOL    HW216665   2.766   2.126   3.879
 5405SOL     OW16666   3.573   2.437   5.552
 5405SOL    HW116667   3.534   2.511   5.505
 5405SOL    HW216668   3.596   2.374   5.484
 5406SOL     OW16669   3.238   3.004   4.265
 5406SOL    HW116670   3.317   2.991   4.214
 5406SOL    HW216671   3.186   3.066   4.214
 5407SOL     OW16672   2.407   2.052   4.618
 5407SOL    HW116673   2.410   2.075   4.711
 5407SOL    HW216674   2.427   2.133   4.572
 5408SOL     OW16675   2.868   3.307   4.196
 5408SOL    HW116676   2.829   3.380   4.147
 5408SOL    HW216677   2.849   3.327   4.288
 5409SOL     OW16678   2.213   3.671   4.564
 5409SOL    HW116679   2.263   3.591   4.583
 5409SOL    HW216680   2.273   3.743   4.585
 5410SOL     OW16681   3.666   2.923   4.590
 5410SOL    HW116682   3.611   2.900   4.515
 5410SOL    HW216683   3.605   2.927   4.664
 5411SOL     OW16684   3.090   3.399   5.236
 5411SOL    HW116685   3.076   3.327   5.297
 5411SOL    HW216686   3.024   3.385   5.167
 5412SOL     OW16687   2.181   2.818   3.975
 5412SOL    HW116688   2.262   2.837   3.928
 5412SOL    HW216689   2.149   2.737   3.936
 5413SOL     OW16690   3.340   2.605   4.451
 5413SOL    HW116691   3.333   2.562   4.536
 5413SOL    HW216692   3.418   2.660   4.459
 5414SOL     OW16693   2.328   3.126   5.461
 5414SOL    HW116694   2.301   3.131   5.369
 5414SOL    HW216695   2.246   3.125   5.510
 5415SOL     OW16696   2.975   3.643   3.947
 5415SOL    HW116697   2.913   3.596   4.002
 5415SOL    HW216698   3.005   3.578   3.883
 5416SOL     OW16699   3.488   3.245   3.813
 5416SOL    HW116700   3.445   3.329   3.795
 5416SOL    HW216701   3.421   3.180   3.793
 5417SOL     OW16702   2.330   3.596   4.049
 5417SOL    HW116703   2.367   3.661   4.108
 5417SOL    HW216704   2.403   3.572   3.992
 5418SOL     OW16705   3.263   1.970   4.157
 5418SOL    HW116706   3.254   1.944   4.065
 5418SOL    HW216707   3.357   1.975   4.172
 5419SOL     OW16708   2.121   3.654   4.950
 5419SOL    HW116709   2.169   3.587   4.997
 5419SOL    HW216710   2.107   3.618   4.863
 5420SOL     OW16711   2.800   3.561   4.625
 5420SOL    HW116712   2.877   3.509   4.646
 5420SOL    HW216713   2.755   3.512   4.556
 5421SOL     OW16714   2.256   2.557   4.200
 5421SOL    HW116715   2.275   2.464   4.210
 5421SOL    HW216716   2.162   2.564   4.217
 5422SOL     OW16717   3.398   2.087   5.450
 5422SOL    HW116718   3.407   2.108   5.543
 5422SOL    HW216719   3.330   2.020   5.447
 5423SOL     OW16720   2.507   1.987   3.829
 5423SOL    HW116721   2.570   1.920   3.855
 5423SOL    HW216722   2.459   1.949   3.756
 5424SOL     OW16723   2.627   2.139   5.477
 5424SOL    HW116724   2.704   2.083   5.477
 5424SOL    HW216725   2.582   2.118   5.558
 5425SOL     OW16726   2.738   3.382   4.918
 5425SOL    HW116727   2.722   3.347   4.831
 5425SOL    HW216728   2.808   3.328   4.954
 5426SOL     OW16729   3.202   2.451   5.157
 5426SOL    HW116730   3.233   2.420   5.242
 5426SOL    HW216731   3.239   2.539   5.149
 5427SOL     OW16732   2.677   3.256   4.664
 5427SOL    HW116733   2.761   3.245   4.620
 5427SOL    HW216734   2.613   3.258   4.593
 5428SOL     OW16735   2.789   2.370   4.627
 5428SOL    HW116736   2.766   2.363   4.535
 5428SOL    HW216737   2.822   2.284   4.651
 5429SOL     OW16738   2.445   1.926   4.202
 5429SOL    HW116739   2.370   1.915   4.260
 5429SOL    HW216740   2.426   2.006   4.153
 5430SOL     OW16741   3.290   3.061   3.765
 5430SOL    HW116742   3.321   2.985   3.815
 5430SOL    HW216743   3.204   3.081   3.802
 5431SOL     OW16744   2.804   2.111   4.183
 5431SOL    HW116745   2.776   2.151   4.101
 5431SOL    HW216746   2.899   2.126   4.186
 5432SOL     OW16747   2.943   2.543   5.183
 5432SOL    HW116748   2.875   2.475   5.189
 5432SOL    HW216749   3.025   2.495   5.177
 5433SOL     OW16750   3.084   3.432   4.518
 5433SOL    HW116751   3.101   3.500   4.452
 5433SOL    HW216752   3.153   3.443   4.583
 5434SOL     OW16753   2.331   3.012   4.457
 5434SOL    HW116754   2.262   2.993   4.520
 5434SOL    HW216755   2.291   2.996   4.372
 5435SOL     OW16756   3.130   3.658   4.330
 5435SOL    HW116757   3.175   3.723   4.276
 5435SOL    HW216758   3.059   3.707   4.372
 5436SOL     OW16759   2.886   2.403   3.746
 5436SOL    HW116760   2.843   2.487   3.727
 5436SOL    HW216761   2.951   2.425   3.813
 5437SOL     OW16762   1.938   2.423   5.110
 5437SOL    HW116763   2.031   2.419   5.089
 5437SOL    HW216764   1.932   2.489   5.179
 5438SOL     OW16765   2.416   2.083   4.893
 5438SOL    HW116766   2.465   2.005   4.919
 5438SOL    HW216767   2.332   2.074   4.937
 5439SOL     OW16768   2.726   2.320   4.364
 5439SOL    HW116769   2.685   2.375   4.298
 5439SOL    HW216770   2.751   2.240   4.316
 5440SOL     OW16771   2.874   1.916   4.476
 5440SOL    HW116772   2.819   1.905   4.398
 5440SOL    HW216773   2.854   1.839   4.530
 5441SOL     OW16774   3.300   3.025   4.581
 5441SOL    HW116775   3.230   2.959   4.580
 5441SOL    HW216776   3.325   3.035   4.489
 5442SOL     OW16777   3.327   2.468   4.701
 5442SOL    HW116778   3.278   2.387   4.703
 5442SOL    HW216779   3.387   2.462   4.775
 5443SOL     OW16780   3.722   2.680   4.099
 5443SOL    HW116781   3.767   2.624   4.163
 5443SOL    HW216782   3.685   2.619   4.035
 5444SOL     OW16783   2.353   3.279   3.880
 5444SOL    HW116784   2.278   3.251   3.932
 5444SOL    HW216785   2.337   3.241   3.793
 5445SOL     OW16786   3.528   3.127   4.370
 5445SOL    HW116787   3.623   3.130   4.379
 5445SOL    HW216788   3.499   3.216   4.391
 5446SOL     OW16789   3.256   2.433   3.795
 5446SOL    HW116790   3.194   2.414   3.866
 5446SOL    HW216791   3.340   2.401   3.828
 5447SOL     OW16792   2.384   2.130   4.036
 5447SOL    HW116793   2.427   2.080   3.967
 5447SOL    HW216794   2.362   2.214   3.995
 5448SOL     OW16795   3.614   3.097   5.294
 5448SOL    HW116796   3.701   3.061   5.277
 5448SOL    HW216797   3.630   3.186   5.324
 5449SOL     OW16798   2.920   3.214   5.057
 5449SOL    HW116799   2.846   3.184   5.108
 5449SOL    HW216800   2.996   3.174   5.098
 5450SOL     OW16801   3.468   3.490   5.379
 5450SOL    HW116802   3.460   3.523   5.289
 5450SOL    HW216803   3.550   3.440   5.379
 5451SOL     OW16804   2.991   3.065   4.829
 5451SOL    HW116805   2.933   3.104   4.894
 5451SOL    HW216806   2.958   3.098   4.745
 5452SOL     OW16807   3.493   2.960   4.800
 5452SOL    HW116808   3.485   3.021   4.873
 5452SOL    HW216809   3.414   2.975   4.748
 5453SOL     OW16810   2.779   1.960   5.119
 5453SOL    HW116811   2.803   1.940   5.029
 5453SOL    HW216812   2.858   1.999   5.157
 5454SOL     OW16813   2.846   2.977   5.446
 5454SOL    HW116814   2.754   2.993   5.468
 5454SOL    HW216815   2.844   2.899   5.391
 5455SOL     OW16816   2.571   2.923   4.095
 5455SOL    HW116817   2.556   2.906   4.188
 5455SOL    HW216818   2.646   2.870   4.072
 5456SOL     OW16819   2.280   2.675   4.975
 5456SOL    HW116820   2.348   2.687   5.041
 5456SOL    HW216821   2.245   2.588   4.992
 5457SOL     OW16822   3.128   2.239   5.000
 5457SOL    HW116823   3.161   2.316   5.046
 5457SOL    HW216824   3.038   2.261   4.977
 5458SOL     OW16825   1.932   3.435   5.076
 5458SOL    HW116826   1.904   3.510   5.024
 5458SOL    HW216827   2.028   3.438   5.072
 5459SOL     OW16828   2.211   2.972   4.214
 5459SOL    HW116829   2.215   3.045   4.153
 5459SOL    HW216830   2.208   2.894   4.158
 5460SOL     OW16831   2.409   2.399   4.587
 5460SOL    HW116832   2.423   2.456   4.511
 5460SOL    HW216833   2.476   2.425   4.650
 5461SOL     OW16834   3.110   3.210   4.113
 5461SOL    HW116835   3.166   3.282   4.144
 5461SOL    HW216836   3.023   3.232   4.147
 5462SOL     OW16837   3.143   3.321   4.871
 5462SOL    HW116838   3.199   3.324   4.949
 5462SOL    HW216839   3.088   3.243   4.884
 5463SOL     OW16840   3.442   2.484   4.204
 5463SOL    HW116841   3.396   2.538   4.268
 5463SOL    HW216842   3.485   2.547   4.146
 5464SOL     OW16843   2.208   3.390   5.038
 5464SOL    HW116844   2.196   3.346   4.954
 5464SOL    HW216845   2.303   3.401   5.046
 5465SOL     OW16846   2.276   2.610   5.327
 5465SOL    HW116847   2.339   2.653   5.268
 5465SOL    HW216848   2.319   2.528   5.351
 5466SOL     OW16849   3.464   2.640   5.405
 5466SOL    HW116850   3.378   2.682   5.399
 5466SOL    HW216851   3.516   2.683   5.337
 5467SOL     OW16852   2.857   1.986   5.477
 5467SOL    HW116853   2.915   2.058   5.452
 5467SOL    HW216854   2.905   1.907   5.453
 5468SOL     OW16855   2.372   1.896   5.471
 5468SOL    HW116856   2.325   1.841   5.409
 5468SOL    HW216857   2.311   1.968   5.490
 5469SOL     OW16858   2.446   2.734   4.756
 5469SOL    HW116859   2.477   2.825   4.753
 5469SOL    HW216860   2.389   2.731   4.833
 5470SOL     OW16861   3.219   2.721   4.753
 5470SOL    HW116862   3.136   2.711   4.706
 5470SOL    HW216863   3.261   2.635   4.748
 5471SOL     OW16864   3.066   2.390   3.990
 5471SOL    HW116865   3.075   2.312   4.044
 5471SOL    HW216866   3.023   2.455   4.047
 5472SOL     OW16867   1.908   3.173   5.000
 5472SOL    HW116868   1.941   3.119   5.072
 5472SOL    HW216869   1.915   3.262   5.032
 5473SOL     OW16870   2.583   2.490   4.780
 5473SOL    HW116871   2.660   2.475   4.725
 5473SOL    HW216872   2.558   2.580   4.762
 5474SOL     OW16873   3.593   2.821   5.582
 5474SOL    HW116874   3.551   2.760   5.522
 5474SOL    HW216875   3.530   2.833   5.653
 5475SOL     OW16876   2.222   1.897   4.334
 5475SOL    HW116877   2.148   1.955   4.314
 5475SOL    HW216878   2.207   1.869   4.424
 5476SOL     OW16879   3.479   2.237   4.090
 5476SOL    HW116880   3.507   2.172   4.156
 5476SOL    HW216881   3.456   2.314   4.141
 5477SOL     OW16882   2.889   2.621   4.684
 5477SOL    HW116883   2.886   2.638   4.778
 5477SOL    HW216884   2.863   2.529   4.676
 5478SOL     OW16885   2.847   3.430   5.442
 5478SOL    HW116886   2.829   3.472   5.358
 5478SOL    HW216887   2.889   3.347   5.420
 5479SOL     OW16888   3.707   3.364   5.323
 5479SOL    HW116889   3.729   3.392   5.235
 5479SOL    HW216890   3.787   3.377   5.374
 5480SOL     OW16891   2.215   2.778   5.537
 5480SOL    HW116892   2.299   2.799   5.578
 5480SOL    HW216893   2.238   2.717   5.466
 5481SOL     OW16894   3.392   2.135   3.851
 5481SOL    HW116895   3.327   2.070   3.877
 5481SOL    HW216896   3.424   2.171   3.934
 5482SOL     OW16897   3.153   2.688   3.755
 5482SOL    HW116898   3.196   2.602   3.759
 5482SOL    HW216899   3.185   2.727   3.674
 5483SOL     OW16900   2.927   3.198   4.578
 5483SOL    HW116901   2.931   3.125   4.516
 5483SOL    HW216902   2.989   3.262   4.543
 5484SOL     OW16903   2.172   2.673   4.671
 5484SOL    HW116904   2.264   2.695   4.661
 5484SOL    HW216905   2.172   2.586   4.711
 5485SOL     OW16906   2.188   2.360   4.736
 5485SOL    HW116907   2.147   2.289   4.688
 5485SOL    HW216908   2.267   2.380   4.686
 5486SOL     OW16909   2.996   2.238   5.406
 5486SOL    HW116910   2.949   2.293   5.469
 5486SOL    HW216911   3.084   2.276   5.402
 5487SOL     OW16912   3.021   2.065   5.194
 5487SOL    HW116913   3.012   2.127   5.266
 5487SOL    HW216914   3.063   2.115   5.123
 5488SOL     OW16915   1.867   3.183   3.919
 5488SOL    HW116916   1.780   3.197   3.882
 5488SOL    HW216917   1.864   3.093   3.953
 5489SOL     OW16918   1.957   3.644   4.661
 5489SOL    HW116919   1.927   3.565   4.617
 5489SOL    HW216920   2.043   3.661   4.623
 5490SOL     OW16921   2.358   3.437   4.630
 5490SOL    HW116922   2.426   3.500   4.654
 5490SOL    HW216923   2.403   3.374   4.574
 5491SOL     OW16924   2.844   2.653   4.950
 5491SOL    HW116925   2.902   2.631   5.023
 5491SOL    HW216926   2.759   2.618   4.976
 5492SOL     OW16927   1.899   2.398   4.841
 5492SOL    HW116928   1.984   2.400   4.796
 5492SOL    HW216929   1.921   2.412   4.934
 5493SOL     OW16930   2.064   2.390   5.447
 5493SOL    HW116931   2.123   2.356   5.379
 5493SOL    HW216932   2.015   2.459   5.404
 5494SOL     OW16933   3.240   2.801   5.383
 5494SOL    HW116934   3.261   2.894   5.381
 5494SOL    HW216935   3.237   2.775   5.290
 5495SOL     OW16936   2.678   2.431   4.086
 5495SOL    HW116937   2.682   2.357   4.026
 5495SOL    HW216938   2.604   2.484   4.054
 5496SOL     OW16939   3.503   2.464   4.910
 5496SOL    HW116940   3.492   2.403   4.983
 5496SOL    HW216941   3.589   2.442   4.873
 5497SOL     OW16942   2.106   3.412   5.451
 5497SOL    HW116943   2.083   3.478   5.516
 5497SOL    HW216944   2.108   3.330   5.499
 5498SOL     OW16945   2.558   2.312   4.984
 5498SOL    HW116946   2.509   2.237   4.951
 5498SOL    HW216947   2.557   2.375   4.912
 5499SOL     OW16948   2.791   3.535   5.192
 5499SOL    HW116949   2.764   3.499   5.107
 5499SOL    HW216950   2.783   3.630   5.181
 5500SOL     OW16951   2.326   2.360   3.915
 5500SOL    HW116952   2.383   2.434   3.935
 5500SOL    HW216953   2.241   2.400   3.896
 5501SOL     OW16954   2.008   3.003   5.197
 5501SOL    HW116955   2.009   2.951   5.277
 5501SOL    HW216956   2.025   2.940   5.127
 5502SOL     OW16957   3.186   2.908   4.947
 5502SOL    HW116958   3.210   2.845   4.879
 5502SOL    HW216959   3.117   2.961   4.908
 5503SOL     OW16960   3.173   2.718   4.030
 5503SOL    HW116961   3.098   2.688   4.080
 5503SOL    HW216962   3.148   2.705   3.939
 5504SOL     OW16963   3.636   3.606   4.876
 5504SOL    HW116964   3.694   3.631   4.805
 5504SOL    HW216965   3.610   3.516   4.854
 5505SOL     OW16966   3.105   3.596   4.836
 5505SOL    HW116967   3.188   3.616   4.792
 5505SOL    HW216968   3.110   3.502   4.855
 5506SOL     OW16969   1.946   3.129   4.736
 5506SOL    HW116970   1.932   3.142   4.830
 5506SOL    HW216971   1.873   3.074   4.708
 5507SOL     OW16972   2.540   3.525   5.453
 5507SOL    HW116973   2.485   3.604   5.457
 5507SOL    HW216974   2.601   3.542   5.381
 5508SOL     OW16975   3.574   2.009   4.237
 5508SOL    HW116976   3.643   1.997   4.171
 5508SOL    HW216977   3.563   1.923   4.276
 5509SOL     OW16978   3.252   3.430   4.209
 5509SOL    HW116979   3.312   3.463   4.142
 5509SOL    HW216980   3.204   3.508   4.239
 5510SOL     OW16981   1.995   3.654   5.563
 5510SOL    HW116982   1.943   3.590   5.612
 5510SOL    HW216983   2.045   3.701   5.630
 5511SOL     OW16984   3.139   2.787   4.395
 5511SOL    HW116985   3.213   2.727   4.403
 5511SOL    HW216986   3.173   2.860   4.343
 5512SOL     OW16987   2.676   3.135   5.154
 5512SOL    HW116988   2.648   3.174   5.236
 5512SOL    HW216989   2.606   3.158   5.092
 5513SOL     OW16990   2.537   3.478   3.881
 5513SOL    HW116991   2.545   3.494   3.787
 5513SOL    HW216992   2.479   3.402   3.887
 5514SOL     OW16993   3.484   3.588   5.114
 5514SOL    HW116994   3.538   3.593   5.035
 5514SOL    HW216995   3.472   3.679   5.140
 5515SOL     OW16996   3.699   2.043   4.692
 5515SOL    HW116997   3.730   1.956   4.666
 5515SOL    HW216998   3.613   2.051   4.651
 5516SOL     OW16999   3.069   3.468   3.759
 5516SOL    HW117000   3.059   3.376   3.783
 5516SOL    HW217001   3.008   3.480   3.686
 5517SOL     OW17002   2.686   2.868   5.096
 5517SOL    HW117003   2.730   2.864   5.011
 5517SOL    HW217004   2.685   2.961   5.119
 5518SOL     OW17005   2.778   2.772   4.014
 5518SOL    HW117006   2.839   2.805   3.948
 5518SOL    HW217007   2.826   2.703   4.059
 5519SOL     OW17008   3.352   3.491   3.766
 5519SOL    HW117009   3.258   3.480   3.750
 5519SOL    HW217010   3.390   3.496   3.678
 5520SOL     OW17011   2.231   3.165   5.215
 5520SOL    HW117012   2.218   3.242   5.161
 5520SOL    HW217013   2.154   3.110   5.200
 5521SOL     OW17014   3.465   3.142   5.003
 5521SOL    HW117015   3.533   3.135   5.070
 5521SOL    HW217016   3.408   3.212   5.033
 5522SOL     OW17017   2.915   2.969   4.431
 5522SOL    HW117018   2.844   2.918   4.469
 5522SOL    HW217019   2.977   2.904   4.400
 5523SOL     OW17020   2.882   2.102   4.690
 5523SOL    HW117021   2.878   2.054   4.607
 5523SOL    HW217022   2.878   2.033   4.757
 5524SOL     OW17023   2.465   3.352   4.204
 5524SOL    HW117024   2.509   3.301   4.136
 5524SOL    HW217025   2.397   3.401   4.158
 5525SOL     OW17026   3.584   2.252   5.103
 5525SOL    HW117027   3.656   2.316   5.099
 5525SOL    HW217028   3.613   2.180   5.047
 5526SOL     OW17029   2.121   3.207   4.013
 5526SOL    HW117030   2.029   3.204   3.990
 5526SOL    HW217031   2.124   3.244   4.101
 5527SOL     OW17032   1.975   2.884   5.444
 5527SOL    HW117033   1.898   2.861   5.495
 5527SOL    HW217034   2.048   2.846   5.492
 5528SOL     OW17035   2.535   2.059   5.223
 5528SOL    HW117036   2.618   2.039   5.181
 5528SOL    HW217037   2.559   2.090   5.311
 5529SOL     OW17038   1.897   2.280   3.782
 5529SOL    HW117039   1.858   2.198   3.753
 5529SOL    HW217040   1.949   2.311   3.708
 5530SOL     OW17041   3.290   2.721   5.124
 5530SOL    HW117042   3.241   2.782   5.070
 5530SOL    HW217043   3.379   2.722   5.088
 5531SOL     OW17044   3.040   3.201   3.841
 5531SOL    HW117045   2.949   3.171   3.843
 5531SOL    HW217046   3.068   3.200   3.933
 5532SOL     OW17047   2.481   2.692   5.157
 5532SOL    HW117048   2.536   2.769   5.142
 5532SOL    HW217049   2.543   2.620   5.165
 5533SOL     OW17050   3.347   3.642   4.705
 5533SOL    HW117051   3.372   3.693   4.628
 5533SOL    HW217052   3.430   3.614   4.744
 5534SOL     OW17053   2.580   2.425   5.426
 5534SOL    HW117054   2.619   2.488   5.486
 5534SOL    HW217055   2.606   2.340   5.460
 5535SOL     OW17056   3.333   3.062   5.356
 5535SOL    HW117057   3.322   3.075   5.450
 5535SOL    HW217058   3.427   3.076   5.340
 5536SOL     OW17059   2.240   3.601   5.287
 5536SOL    HW117060   2.154   3.642   5.272
 5536SOL    HW217061   2.220   3.517   5.329
 5537SOL     OW17062   3.528   2.743   4.982
 5537SOL    HW117063   3.526   2.657   4.939
 5537SOL    HW217064   3.522   2.806   4.911
 5538SOL     OW17065   3.080   2.181   4.181
 5538SOL    HW117066   3.142   2.110   4.173
 5538SOL    HW217067   3.109   2.230   4.258
 5539SOL     OW17068   2.449   2.599   4.396
 5539SOL    HW117069   2.490   2.684   4.380
 5539SOL    HW217070   2.383   2.591   4.327
 5540SOL     OW17071   3.623   2.227   5.373
 5540SOL    HW117072   3.606   2.239   5.280
 5540SOL    HW217073   3.554   2.168   5.403
 5541SOL     OW17074   3.616   2.792   5.237
 5541SOL    HW117075   3.609   2.886   5.254
 5541SOL    HW217076   3.593   2.782   5.145
 5542SOL     OW17077   2.725   3.230   3.759
 5542SOL    HW117078   2.685   3.257   3.841
 5542SOL    HW217079   2.742   3.311   3.712
 5543SOL     OW17080   2.522   3.653   4.667
 5543SOL    HW117081   2.500   3.743   4.644
 5543SOL    HW217082   2.617   3.649   4.661
 5544SOL     OW17083   2.729   2.829   4.579
 5544SOL    HW117084   2.780   2.758   4.618
 5544SOL    HW217085   2.695   2.878   4.654
 5545SOL     OW17086   2.941   2.850   3.813
 5545SOL    HW117087   2.919   2.901   3.734
 5545SOL    HW217088   3.016   2.797   3.786
 5546SOL     OW17089   3.715   3.417   4.565
 5546SOL    HW117090   3.636   3.398   4.515
 5546SOL    HW217091   3.716   3.351   4.634
 5547SOL     OW17092   2.087   3.164   5.580
 5547SOL    HW117093   2.019   3.105   5.549
 5547SOL    HW217094   2.067   3.178   5.672
 5548SOL     OW17095   1.946   3.095   4.389
 5548SOL    HW117096   1.952   3.047   4.471
 5548SOL    HW217097   2.014   3.056   4.333
 5549SOL     OW17098   2.543   3.265   5.352
 5549SOL    HW117099   2.463   3.222   5.383
 5549SOL    HW217100   2.540   3.353   5.389
 5550SOL     OW17101   3.676   2.042   4.963
 5550SOL    HW117102   3.669   1.947   4.968
 5550SOL    HW217103   3.689   2.061   4.870
 5551SOL     OW17104   2.292   2.293   4.247
 5551SOL    HW117105   2.325   2.233   4.180
 5551SOL    HW217106   2.251   2.236   4.312
 5552SOL     OW17107   3.560   3.353   4.822
 5552SOL    HW117108   3.480   3.327   4.775
 5552SOL    HW217109   3.574   3.282   4.885
 5553SOL     OW17110   2.192   2.417   5.013
 5553SOL    HW117111   2.239   2.357   5.072
 5553SOL    HW217112   2.210   2.382   4.925
 5554SOL     OW17113   2.689   3.440   4.401
 5554SOL    HW117114   2.675   3.489   4.320
 5554SOL    HW217115   2.613   3.382   4.407
 5555SOL     OW17116   3.293   2.088   4.841
 5555SOL    HW117117   3.317   2.007   4.886
 5555SOL    HW217118   3.242   2.137   4.906
 5556SOL     OW17119   2.870   1.880   4.866
 5556SOL    HW117120   2.817   1.812   4.825
 5556SOL    HW217121   2.959   1.843   4.869
 5557SOL     OW17122   2.634   3.194   4.040
 5557SOL    HW117123   2.602   3.104   4.045
 5557SOL    HW217124   2.717   3.194   4.088
 5558SOL     OW17125   2.482   3.417   5.008
 5558SOL    HW117126   2.483   3.498   5.059
 5558SOL    HW217127   2.569   3.410   4.971
 5559SOL     OW17128   3.215   1.916   3.889
 5559SOL    HW117129   3.244   1.850   3.826
 5559SOL    HW217130   3.127   1.887   3.915
 5560SOL     OW17131   3.157   2.323   4.405
 5560SOL    HW117132   3.105   2.403   4.412
 5560SOL    HW217133   3.154   2.284   4.492
 5561SOL     OW17134   3.445   2.063   4.601
 5561SOL    HW117135   3.386   2.085   4.673
 5561SOL    HW217136   3.446   2.141   4.546
 5562SOL     OW17137   1.906   2.933   4.030
 5562SOL    HW117138   1.999   2.924   4.012
 5562SOL    HW217139   1.877   2.844   4.053
 5563SOL     OW17140   2.746   3.518   4.068
 5563SOL    HW117141   2.676   3.498   4.007
 5563SOL    HW217142   2.715   3.594   4.117
 5564SOL     OW17143   2.085   2.493   5.710
 5564SOL    HW117144   1.999   2.461   5.738
 5564SOL    HW217145   2.092   2.466   5.619
 5565SOL     OW17146   2.430   3.151   6.761
 5565SOL    HW117147   2.343   3.153   6.723
 5565SOL    HW217148   2.444   3.240   6.794
 5566SOL     OW17149   3.423   3.374   6.294
 5566SOL    HW117150   3.380   3.352   6.377
 5566SOL    HW217151   3.351   3.377   6.231
 5567SOL     OW17152   2.993   2.561   6.288
 5567SOL    HW117153   3.042   2.642   6.273
 5567SOL    HW217154   2.949   2.574   6.371
 5568SOL     OW17155   3.629   2.469   5.816
 5568SOL    HW117156   3.609   2.460   5.722
 5568SOL    HW217157   3.593   2.390   5.855
 5569SOL     OW17158   2.619   3.005   6.627
 5569SOL    HW117159   2.550   3.037   6.684
 5569SOL    HW217160   2.653   3.083   6.583
 5570SOL     OW17161   2.734   2.637   7.408
 5570SOL    HW117162   2.717   2.709   7.467
 5570SOL    HW217163   2.755   2.679   7.324
 5571SOL     OW17164   2.555   2.883   6.228
 5571SOL    HW117165   2.613   2.854   6.299
 5571SOL    HW217166   2.480   2.921   6.273
 5572SOL     OW17167   2.572   3.013   7.400
 5572SOL    HW117168   2.620   3.091   7.427
 5572SOL    HW217169   2.490   3.047   7.363
 5573SOL     OW17170   2.193   3.287   6.654
 5573SOL    HW117171   2.119   3.251   6.604
 5573SOL    HW217172   2.242   3.339   6.589
 5574SOL     OW17173   3.322   3.362   6.940
 5574SOL    HW117174   3.373   3.442   6.951
 5574SOL    HW217175   3.259   3.364   7.013
 5575SOL     OW17176   2.260   2.228   7.052
 5575SOL    HW117177   2.330   2.163   7.045
 5575SOL    HW217178   2.186   2.189   7.006
 5576SOL     OW17179   3.473   2.310   6.328
 5576SOL    HW117180   3.399   2.332   6.272
 5576SOL    HW217181   3.488   2.388   6.381
 5577SOL     OW17182   2.083   3.579   6.065
 5577SOL    HW117183   2.116   3.638   6.132
 5577SOL    HW217184   2.153   3.574   6.000
 5578SOL     OW17185   2.998   3.203   7.279
 5578SOL    HW117186   3.039   3.197   7.366
 5578SOL    HW217187   2.946   3.123   7.272
 5579SOL     OW17188   2.091   3.303   6.121
 5579SOL    HW117189   2.073   3.397   6.127
 5579SOL    HW217190   2.032   3.263   6.184
 5580SOL     OW17191   2.119   2.952   6.483
 5580SOL    HW117192   2.102   2.873   6.534
 5580SOL    HW217193   2.064   3.019   6.523
 5581SOL     OW17194   2.473   3.649   7.015
 5581SOL    HW117195   2.391   3.633   7.062
 5581SOL    HW217196   2.499   3.738   7.040
 5582SOL     OW17197   2.449   2.845   5.719
 5582SOL    HW117198   2.495   2.895   5.651
 5582SOL    HW217199   2.488   2.876   5.801
 5583SOL     OW17200   3.458   1.986   7.054
 5583SOL    HW117201   3.463   2.067   7.004
 5583SOL    HW217202   3.445   2.014   7.144
 5584SOL     OW17203   3.700   3.615   5.927
 5584SOL    HW117204   3.769   3.589   5.988
 5584SOL    HW217205   3.721   3.705   5.903
 5585SOL     OW17206   1.890   3.456   5.708
 5585SOL    HW117207   1.876   3.364   5.730
 5585SOL    HW217208   1.870   3.503   5.789
 5586SOL     OW17209   3.550   2.782   6.229
 5586SOL    HW117210   3.634   2.739   6.211
 5586SOL    HW217211   3.531   2.831   6.149
 5587SOL     OW17212   3.503   2.968   6.016
 5587SOL    HW117213   3.588   2.974   5.973
 5587SOL    HW217214   3.509   3.030   6.089
 5588SOL     OW17215   2.476   3.249   6.321
 5588SOL    HW117216   2.431   3.165   6.331
 5588SOL    HW217217   2.459   3.275   6.230
 5589SOL     OW17218   3.151   3.100   7.009
 5589SOL    HW117219   3.183   3.033   6.949
 5589SOL    HW217220   3.209   3.094   7.085
 5590SOL     OW17221   2.051   2.829   6.852
 5590SOL    HW117222   2.139   2.795   6.842
 5590SOL    HW217223   1.994   2.762   6.815
 5591SOL     OW17224   3.391   2.856   5.785
 5591SOL    HW117225   3.321   2.799   5.818
 5591SOL    HW217226   3.432   2.891   5.864
 5592SOL     OW17227   3.076   3.665   7.212
 5592SOL    HW117228   3.056   3.724   7.140
 5592SOL    HW217229   3.077   3.578   7.172
 5593SOL     OW17230   3.327   3.282   6.536
 5593SOL    HW117231   3.260   3.297   6.603
 5593SOL    HW217232   3.316   3.191   6.510
 5594SOL     OW17233   3.512   3.603   6.166
 5594SOL    HW117234   3.502   3.570   6.077
 5594SOL    HW217235   3.493   3.528   6.222
 5595SOL     OW17236   2.460   2.589   5.848
 5595SOL    HW117237   2.473   2.665   5.791
 5595SOL    HW217238   2.412   2.623   5.923
 5596SOL     OW17239   3.141   2.216   6.519
 5596SOL    HW117240   3.052   2.183   6.528
 5596SOL    HW217241   3.193   2.163   6.579
 5597SOL     OW17242   3.437   3.537   5.894
 5597SOL    HW117243   3.529   3.563   5.890
 5597SOL    HW217244   3.414   3.517   5.803
 5598SOL     OW17245   2.661   2.466   7.044
 5598SOL    HW117246   2.638   2.437   7.132
 5598SOL    HW217247   2.599   2.421   6.986
 5599SOL     OW17248   3.256   2.336   7.264
 5599SOL    HW117249   3.258   2.380   7.349
 5599SOL    HW217250   3.315   2.262   7.274
 5600SOL     OW17251   2.818   2.749   7.168
 5600SOL    HW117252   2.873   2.680   7.131
 5600SOL    HW217253   2.772   2.786   7.092
 5601SOL     OW17254   2.864   2.271   6.821
 5601SOL    HW117255   2.787   2.314   6.858
 5601SOL    HW217256   2.833   2.230   6.741
 5602SOL     OW17257   2.912   2.560   6.013
 5602SOL    HW117258   2.929   2.552   6.107
 5602SOL    HW217259   2.829   2.512   6.000
 5603SOL     OW17260   1.986   3.703   7.162
 5603SOL    HW117261   1.986   3.684   7.256
 5603SOL    HW217262   1.893   3.706   7.138
 5604SOL     OW17263   2.755   2.213   5.780
 5604SOL    HW117264   2.797   2.274   5.718
 5604SOL    HW217265   2.770   2.127   5.742
 5605SOL     OW17266   3.573   2.438   7.414
 5605SOL    HW117267   3.534   2.511   7.367
 5605SOL    HW217268   3.596   2.374   7.346
 5606SOL     OW17269   3.238   3.004   6.127
 5606SOL    HW117270   3.318   2.991   6.075
 5606SOL    HW217271   3.186   3.066   6.076
 5607SOL     OW17272   2.868   3.307   6.058
 5607SOL    HW117273   2.829   3.380   6.010
 5607SOL    HW217274   2.849   3.326   6.150
 5608SOL     OW17275   2.213   3.671   6.426
 5608SOL    HW117276   2.263   3.591   6.445
 5608SOL    HW217277   2.273   3.742   6.447
 5609SOL     OW17278   3.666   2.923   6.452
 5609SOL    HW117279   3.612   2.900   6.377
 5609SOL    HW217280   3.605   2.927   6.526
 5610SOL     OW17281   3.089   3.399   7.098
 5610SOL    HW117282   3.076   3.327   7.159
 5610SOL    HW217283   3.025   3.384   7.028
 5611SOL     OW17284   2.186   2.806   5.839
 5611SOL    HW117285   2.265   2.834   5.794
 5611SOL    HW217286   2.151   2.735   5.786
 5612SOL     OW17287   3.341   2.604   6.312
 5612SOL    HW117288   3.331   2.562   6.397
 5612SOL    HW217289   3.418   2.660   6.321
 5613SOL     OW17290   2.327   3.125   7.323
 5613SOL    HW117291   2.301   3.130   7.231
 5613SOL    HW217292   2.245   3.126   7.372
 5614SOL     OW17293   2.975   3.643   5.809
 5614SOL    HW117294   2.913   3.596   5.864
 5614SOL    HW217295   3.005   3.578   5.746
 5615SOL     OW17296   3.488   3.245   5.674
 5615SOL    HW117297   3.445   3.329   5.657
 5615SOL    HW217298   3.421   3.180   5.655
 5616SOL     OW17299   2.330   3.596   5.911
 5616SOL    HW117300   2.367   3.661   5.970
 5616SOL    HW217301   2.403   3.572   5.854
 5617SOL     OW17302   3.264   1.968   6.020
 5617SOL    HW117303   3.256   1.944   5.928
 5617SOL    HW217304   3.359   1.974   6.034
 5618SOL     OW17305   2.121   3.654   6.812
 5618SOL    HW117306   2.169   3.586   6.859
 5618SOL    HW217307   2.107   3.618   6.725
 5619SOL     OW17308   2.800   3.562   6.486
 5619SOL    HW117309   2.876   3.508   6.509
 5619SOL    HW217310   2.755   3.512   6.418
 5620SOL     OW17311   3.397   2.087   7.311
 5620SOL    HW117312   3.406   2.108   7.404
 5620SOL    HW217313   3.327   2.022   7.308
 5621SOL     OW17314   2.508   1.989   5.687
 5621SOL    HW117315   2.573   1.923   5.711
 5621SOL    HW217316   2.459   1.949   5.615
 5622SOL     OW17317   2.738   3.383   6.780
 5622SOL    HW117318   2.722   3.347   6.693
 5622SOL    HW217319   2.808   3.328   6.816
 5623SOL     OW17320   3.203   2.451   7.019
 5623SOL    HW117321   3.234   2.420   7.104
 5623SOL    HW217322   3.239   2.540   7.011
 5624SOL     OW17323   2.677   3.258   6.526
 5624SOL    HW117324   2.761   3.245   6.482
 5624SOL    HW217325   2.613   3.257   6.455
 5625SOL     OW17326   2.784   2.366   6.492
 5625SOL    HW117327   2.775   2.364   6.396
 5625SOL    HW217328   2.823   2.282   6.514
 5626SOL     OW17329   2.339   1.934   6.049
 5626SOL    HW117330   2.319   1.973   6.134
 5626SOL    HW217331   2.364   2.009   5.994
 5627SOL     OW17332   3.290   3.061   5.627
 5627SOL    HW117333   3.321   2.985   5.677
 5627SOL    HW217334   3.204   3.081   5.665
 5628SOL     OW17335   2.818   2.122   6.052
 5628SOL    HW117336   2.780   2.147   5.968
 5628SOL    HW217337   2.912   2.134   6.041
 5629SOL     OW17338   2.942   2.544   7.041
 5629SOL    HW117339   2.876   2.476   7.054
 5629SOL    HW217340   3.025   2.496   7.037
 5630SOL     OW17341   3.085   3.431   6.379
 5630SOL    HW117342   3.102   3.500   6.314
 5630SOL    HW217343   3.153   3.443   6.445
 5631SOL     OW17344   2.328   3.013   6.320
 5631SOL    HW117345   2.260   2.991   6.385
 5631SOL    HW217346   2.288   2.995   6.236
 5632SOL     OW17347   3.130   3.658   6.192
 5632SOL    HW117348   3.175   3.723   6.138
 5632SOL    HW217349   3.059   3.707   6.234
 5633SOL     OW17350   2.886   2.404   5.608
 5633SOL    HW117351   2.844   2.487   5.589
 5633SOL    HW217352   2.951   2.424   5.676
 5634SOL     OW17353   2.760   2.328   6.225
 5634SOL    HW117354   2.702   2.374   6.164
 5634SOL    HW217355   2.782   2.246   6.180
 5635SOL     OW17356   2.901   1.919   6.340
 5635SOL    HW117357   2.838   1.930   6.269
 5635SOL    HW217358   2.872   1.840   6.386
 5636SOL     OW17359   3.299   3.025   6.443
 5636SOL    HW117360   3.230   2.959   6.443
 5636SOL    HW217361   3.323   3.034   6.351
 5637SOL     OW17362   3.328   2.468   6.562
 5637SOL    HW117363   3.277   2.387   6.565
 5637SOL    HW217364   3.387   2.462   6.637
 5638SOL     OW17365   3.723   2.680   5.961
 5638SOL    HW117366   3.767   2.624   6.025
 5638SOL    HW217367   3.686   2.619   5.897
 5639SOL     OW17368   2.353   3.279   5.742
 5639SOL    HW117369   2.278   3.251   5.795
 5639SOL    HW217370   2.337   3.241   5.656
 5640SOL     OW17371   3.528   3.128   6.231
 5640SOL    HW117372   3.624   3.131   6.241
 5640SOL    HW217373   3.499   3.216   6.253
 5641SOL     OW17374   3.256   2.433   5.657
 5641SOL    HW117375   3.194   2.415   5.728
 5641SOL    HW217376   3.340   2.401   5.690
 5642SOL     OW17377   2.402   2.138   5.894
 5642SOL    HW117378   2.444   2.095   5.821
 5642SOL    HW217379   2.371   2.221   5.859
 5643SOL     OW17380   3.614   3.097   7.156
 5643SOL    HW117381   3.701   3.061   7.139
 5643SOL    HW217382   3.631   3.186   7.186
 5644SOL     OW17383   2.921   3.217   6.920
 5644SOL    HW117384   2.845   3.185   6.971
 5644SOL    HW217385   2.996   3.174   6.961
 5645SOL     OW17386   3.469   3.491   7.241
 5645SOL    HW117387   3.460   3.523   7.152
 5645SOL    HW217388   3.550   3.440   7.241
 5646SOL     OW17389   2.993   3.068   6.691
 5646SOL    HW117390   2.932   3.102   6.756
 5646SOL    HW217391   2.958   3.097   6.607
 5647SOL     OW17392   3.493   2.960   6.662
 5647SOL    HW117393   3.485   3.021   6.735
 5647SOL    HW217394   3.414   2.974   6.610
 5648SOL     OW17395   2.801   1.934   6.973
 5648SOL    HW117396   2.821   1.932   6.880
 5648SOL    HW217397   2.868   1.989   7.012
 5649SOL     OW17398   2.846   2.976   7.309
 5649SOL    HW117399   2.754   2.992   7.329
 5649SOL    HW217400   2.845   2.898   7.253
 5650SOL     OW17401   2.569   2.922   5.956
 5650SOL    HW117402   2.558   2.911   6.050
 5650SOL    HW217403   2.645   2.868   5.934
 5651SOL     OW17404   2.288   2.694   6.840
 5651SOL    HW117405   2.356   2.698   6.907
 5651SOL    HW217406   2.243   2.611   6.857
 5652SOL     OW17407   3.132   2.238   6.862
 5652SOL    HW117408   3.162   2.317   6.908
 5652SOL    HW217409   3.042   2.258   6.838
 5653SOL     OW17410   1.933   3.435   6.938
 5653SOL    HW117411   1.904   3.509   6.885
 5653SOL    HW217412   2.028   3.438   6.934
 5654SOL     OW17413   2.205   2.971   6.076
 5654SOL    HW117414   2.215   3.048   6.019
 5654SOL    HW217415   2.209   2.896   6.017
 5655SOL     OW17416   3.110   3.211   5.975
 5655SOL    HW117417   3.166   3.282   6.006
 5655SOL    HW217418   3.023   3.232   6.009
 5656SOL     OW17419   3.143   3.321   6.732
 5656SOL    HW117420   3.198   3.322   6.811
 5656SOL    HW217421   3.088   3.243   6.743
 5657SOL     OW17422   3.442   2.484   6.065
 5657SOL    HW117423   3.396   2.537   6.130
 5657SOL    HW217424   3.485   2.548   6.009
 5658SOL     OW17425   2.208   3.390   6.900
 5658SOL    HW117426   2.196   3.347   6.816
 5658SOL    HW217427   2.303   3.401   6.908
 5659SOL     OW17428   3.464   2.640   7.267
 5659SOL    HW117429   3.378   2.682   7.261
 5659SOL    HW217430   3.516   2.683   7.199
 5660SOL     OW17431   2.883   1.980   7.358
 5660SOL    HW117432   2.912   2.058   7.311
 5660SOL    HW217433   2.931   1.908   7.317
 5661SOL     OW17434   2.444   2.722   6.614
 5661SOL    HW117435   2.474   2.813   6.607
 5661SOL    HW217436   2.387   2.722   6.690
 5662SOL     OW17437   3.219   2.721   6.614
 5662SOL    HW117438   3.134   2.710   6.572
 5662SOL    HW217439   3.260   2.635   6.609
 5663SOL     OW17440   3.065   2.392   5.851
 5663SOL    HW117441   3.077   2.314   5.905
 5663SOL    HW217442   3.022   2.455   5.908
 5664SOL     OW17443   1.906   3.173   6.861
 5664SOL    HW117444   1.939   3.117   6.932
 5664SOL    HW217445   1.914   3.262   6.895
 5665SOL     OW17446   2.620   2.510   6.681
 5665SOL    HW117447   2.656   2.467   6.603
 5665SOL    HW217448   2.557   2.574   6.647
 5666SOL     OW17449   3.594   2.821   7.444
 5666SOL    HW117450   3.551   2.761   7.384
 5666SOL    HW217451   3.530   2.833   7.515
 5667SOL     OW17452   3.479   2.237   5.952
 5667SOL    HW117453   3.506   2.172   6.018
 5667SOL    HW217454   3.456   2.314   6.003
 5668SOL     OW17455   2.893   2.618   6.545
 5668SOL    HW117456   2.888   2.641   6.638
 5668SOL    HW217457   2.857   2.529   6.540
 5669SOL     OW17458   2.847   3.429   7.304
 5669SOL    HW117459   2.829   3.472   7.220
 5669SOL    HW217460   2.889   3.347   7.281
 5670SOL     OW17461   3.707   3.364   7.186
 5670SOL    HW117462   3.729   3.392   7.097
 5670SOL    HW217463   3.787   3.377   7.236
 5671SOL     OW17464   2.218   2.774   7.380
 5671SOL    HW117465   2.297   2.809   7.422
 5671SOL    HW217466   2.250   2.727   7.304
 5672SOL     OW17467   3.392   2.135   5.713
 5672SOL    HW117468   3.327   2.070   5.739
 5672SOL    HW217469   3.424   2.171   5.796
 5673SOL     OW17470   3.152   2.687   5.616
 5673SOL    HW117471   3.196   2.602   5.621
 5673SOL    HW217472   3.185   2.727   5.535
 5674SOL     OW17473   2.926   3.198   6.439
 5674SOL    HW117474   2.930   3.125   6.378
 5674SOL    HW217475   2.989   3.262   6.404
 5675SOL     OW17476   2.993   2.245   7.263
 5675SOL    HW117477   2.948   2.295   7.330
 5675SOL    HW217478   3.082   2.280   7.262
 5676SOL     OW17479   3.026   2.066   7.058
 5676SOL    HW117480   3.012   2.130   7.128
 5676SOL    HW217481   3.065   2.116   6.986
 5677SOL     OW17482   1.867   3.186   5.779
 5677SOL    HW117483   1.780   3.199   5.742
 5677SOL    HW217484   1.865   3.097   5.814
 5678SOL     OW17485   1.957   3.645   6.523
 5678SOL    HW117486   1.926   3.565   6.479
 5678SOL    HW217487   2.043   3.661   6.485
 5679SOL     OW17488   2.358   3.437   6.491
 5679SOL    HW117489   2.426   3.500   6.516
 5679SOL    HW217490   2.403   3.373   6.436
 5680SOL     OW17491   2.848   2.660   6.809
 5680SOL    HW117492   2.891   2.630   6.889
 5680SOL    HW217493   2.763   2.615   6.810
 5681SOL     OW17494   3.240   2.801   7.245
 5681SOL    HW117495   3.261   2.894   7.243
 5681SOL    HW217496   3.236   2.775   7.153
 5682SOL     OW17497   2.674   2.430   5.949
 5682SOL    HW117498   2.682   2.354   5.890
 5682SOL    HW217499   2.604   2.482   5.910
 5683SOL     OW17500   3.503   2.464   6.772
 5683SOL    HW117501   3.492   2.403   6.845
 5683SOL    HW217502   3.589   2.442   6.736
 5684SOL     OW17503   2.106   3.412   7.313
 5684SOL    HW117504   2.083   3.478   7.379
 5684SOL    HW217505   2.107   3.329   7.360
 5685SOL     OW17506   2.790   3.536   7.054
 5685SOL    HW117507   2.765   3.499   6.970
 5685SOL    HW217508   2.782   3.630   7.043
 5686SOL     OW17509   2.322   2.365   5.777
 5686SOL    HW117510   2.379   2.440   5.794
 5686SOL    HW217511   2.236   2.403   5.758
 5687SOL     OW17512   2.007   3.002   7.057
 5687SOL    HW117513   2.010   2.951   7.137
 5687SOL    HW217514   2.023   2.938   6.987
 5688SOL     OW17515   3.187   2.909   6.809
 5688SOL    HW117516   3.210   2.845   6.741
 5688SOL    HW217517   3.118   2.961   6.770
 5689SOL     OW17518   3.173   2.719   5.892
 5689SOL    HW117519   3.099   2.688   5.943
 5689SOL    HW217520   3.148   2.704   5.801
 5690SOL     OW17521   3.636   3.605   6.738
 5690SOL    HW117522   3.694   3.631   6.667
 5690SOL    HW217523   3.610   3.516   6.717
 5691SOL     OW17524   3.105   3.596   6.698
 5691SOL    HW117525   3.188   3.616   6.654
 5691SOL    HW217526   3.110   3.502   6.717
 5692SOL     OW17527   1.947   3.133   6.595
 5692SOL    HW117528   1.931   3.143   6.689
 5692SOL    HW217529   1.878   3.075   6.564
 5693SOL     OW17530   2.540   3.525   7.315
 5693SOL    HW117531   2.485   3.604   7.318
 5693SOL    HW217532   2.601   3.541   7.242
 5694SOL     OW17533   3.574   2.009   6.099
 5694SOL    HW117534   3.643   1.996   6.033
 5694SOL    HW217535   3.563   1.922   6.138
 5695SOL     OW17536   3.252   3.430   6.071
 5695SOL    HW117537   3.312   3.463   6.004
 5695SOL    HW217538   3.204   3.508   6.101
 5696SOL     OW17539   1.994   3.654   7.426
 5696SOL    HW117540   1.943   3.590   7.474
 5696SOL    HW217541   2.044   3.701   7.493
 5697SOL     OW17542   3.139   2.788   6.256
 5697SOL    HW117543   3.213   2.727   6.264
 5697SOL    HW217544   3.173   2.861   6.204
 5698SOL     OW17545   2.676   3.138   7.014
 5698SOL    HW117546   2.647   3.176   7.097
 5698SOL    HW217547   2.605   3.157   6.953
 5699SOL     OW17548   2.537   3.478   5.743
 5699SOL    HW117549   2.545   3.494   5.649
 5699SOL    HW217550   2.479   3.402   5.749
 5700SOL     OW17551   3.484   3.588   6.976
 5700SOL    HW117552   3.538   3.592   6.897
 5700SOL    HW217553   3.473   3.679   7.002
 5701SOL     OW17554   3.699   2.043   6.554
 5701SOL    HW117555   3.730   1.956   6.528
 5701SOL    HW217556   3.613   2.051   6.513
 5702SOL     OW17557   3.069   3.468   5.621
 5702SOL    HW117558   3.059   3.376   5.645
 5702SOL    HW217559   3.008   3.480   5.548
 5703SOL     OW17560   2.693   2.872   6.959
 5703SOL    HW117561   2.732   2.865   6.872
 5703SOL    HW217562   2.691   2.966   6.977
 5704SOL     OW17563   2.776   2.770   5.874
 5704SOL    HW117564   2.838   2.803   5.809
 5704SOL    HW217565   2.825   2.703   5.922
 5705SOL     OW17566   3.352   3.491   5.628
 5705SOL    HW117567   3.258   3.480   5.612
 5705SOL    HW217568   3.390   3.496   5.540
 5706SOL     OW17569   2.230   3.165   7.078
 5706SOL    HW117570   2.217   3.242   7.023
 5706SOL    HW217571   2.154   3.110   7.061
 5707SOL     OW17572   3.465   3.142   6.865
 5707SOL    HW117573   3.532   3.135   6.932
 5707SOL    HW217574   3.408   3.212   6.895
 5708SOL     OW17575   2.915   2.969   6.294
 5708SOL    HW117576   2.842   2.918   6.331
 5708SOL    HW217577   2.977   2.903   6.263
 5709SOL     OW17578   2.883   2.104   6.549
 5709SOL    HW117579   2.893   2.054   6.468
 5709SOL    HW217580   2.878   2.037   6.618
 5710SOL     OW17581   2.465   3.352   6.066
 5710SOL    HW117582   2.509   3.301   5.998
 5710SOL    HW217583   2.398   3.402   6.019
 5711SOL     OW17584   3.585   2.252   6.965
 5711SOL    HW117585   3.656   2.316   6.961
 5711SOL    HW217586   3.614   2.180   6.909
 5712SOL     OW17587   2.121   3.206   5.875
 5712SOL    HW117588   2.028   3.205   5.852
 5712SOL    HW217589   2.124   3.244   5.963
 5713SOL     OW17590   1.974   2.902   7.316
 5713SOL    HW117591   1.897   2.869   7.362
 5713SOL    HW217592   2.046   2.849   7.349
 5714SOL     OW17593   1.901   2.276   5.639
 5714SOL    HW117594   1.855   2.200   5.604
 5714SOL    HW217595   1.953   2.308   5.565
 5715SOL     OW17596   3.291   2.721   6.987
 5715SOL    HW117597   3.240   2.781   6.932
 5715SOL    HW217598   3.379   2.723   6.950
 5716SOL     OW17599   3.040   3.201   5.703
 5716SOL    HW117600   2.950   3.171   5.705
 5716SOL    HW217601   3.068   3.201   5.795
 5717SOL     OW17602   2.492   2.697   7.010
 5717SOL    HW117603   2.551   2.772   6.997
 5717SOL    HW217604   2.549   2.625   7.036
 5718SOL     OW17605   3.347   3.642   6.567
 5718SOL    HW117606   3.372   3.693   6.490
 5718SOL    HW217607   3.430   3.614   6.605
 5719SOL     OW17608   3.334   3.062   7.218
 5719SOL    HW117609   3.323   3.076   7.312
 5719SOL    HW217610   3.427   3.076   7.202
 5720SOL     OW17611   2.240   3.601   7.150
 5720SOL    HW117612   2.154   3.642   7.135
 5720SOL    HW217613   2.220   3.517   7.191
 5721SOL     OW17614   3.529   2.743   6.845
 5721SOL    HW117615   3.526   2.657   6.802
 5721SOL    HW217616   3.522   2.806   6.773
 5722SOL     OW17617   3.088   2.185   6.038
 5722SOL    HW117618   3.149   2.110   6.034
 5722SOL    HW217619   3.113   2.232   6.118
 5723SOL     OW17620   3.623   2.226   7.235
 5723SOL    HW117621   3.606   2.239   7.142
 5723SOL    HW217622   3.553   2.168   7.265
 5724SOL     OW17623   3.616   2.792   7.099
 5724SOL    HW117624   3.609   2.886   7.116
 5724SOL    HW217625   3.593   2.781   7.007
 5725SOL     OW17626   2.725   3.229   5.621
 5725SOL    HW117627   2.685   3.257   5.704
 5725SOL    HW217628   2.741   3.311   5.574
 5726SOL     OW17629   2.522   3.653   6.529
 5726SOL    HW117630   2.501   3.744   6.506
 5726SOL    HW217631   2.617   3.648   6.522
 5727SOL     OW17632   2.728   2.826   6.441
 5727SOL    HW117633   2.778   2.755   6.482
 5727SOL    HW217634   2.694   2.876   6.515
 5728SOL     OW17635   2.940   2.850   5.674
 5728SOL    HW117636   2.920   2.901   5.596
 5728SOL    HW217637   3.016   2.797   5.649
 5729SOL     OW17638   3.715   3.417   6.427
 5729SOL    HW117639   3.636   3.398   6.376
 5729SOL    HW217640   3.716   3.350   6.496
 5730SOL     OW17641   2.086   3.164   7.440
 5730SOL    HW117642   2.025   3.098   7.407
 5730SOL    HW217643   2.062   3.175   7.532
 5731SOL     OW17644   1.946   3.096   6.251
 5731SOL    HW117645   1.940   3.044   6.330
 5731SOL    HW217646   2.016   3.055   6.200
 5732SOL     OW17647   2.543   3.264   7.215
 5732SOL    HW117648   2.463   3.222   7.245
 5732SOL    HW217649   2.540   3.352   7.252
 5733SOL     OW17650   3.677   2.042   6.825
 5733SOL    HW117651   3.669   1.947   6.830
 5733SOL    HW217652   3.690   2.061   6.733
 5734SOL     OW17653   3.560   3.353   6.684
 5734SOL    HW117654   3.480   3.327   6.637
 5734SOL    HW217655   3.574   3.282   6.748
 5735SOL     OW17656   2.688   3.441   6.263
 5735SOL    HW117657   2.674   3.488   6.181
 5735SOL    HW217658   2.614   3.382   6.271
 5736SOL     OW17659   3.294   2.087   6.703
 5736SOL    HW117660   3.316   2.006   6.748
 5736SOL    HW217661   3.243   2.137   6.767
 5737SOL     OW17662   2.875   1.883   6.714
 5737SOL    HW117663   2.820   1.820   6.668
 5737SOL    HW217664   2.961   1.840   6.720
 5738SOL     OW17665   2.634   3.193   5.902
 5738SOL    HW117666   2.603   3.103   5.908
 5738SOL    HW217667   2.716   3.194   5.951
 5739SOL     OW17668   2.482   3.417   6.870
 5739SOL    HW117669   2.484   3.498   6.920
 5739SOL    HW217670   2.569   3.410   6.833
 5740SOL     OW17671   3.215   1.916   5.751
 5740SOL    HW117672   3.244   1.850   5.688
 5740SOL    HW217673   3.127   1.888   5.777
 5741SOL     OW17674   3.158   2.323   6.267
 5741SOL    HW117675   3.104   2.402   6.273
 5741SOL    HW217676   3.154   2.284   6.354
 5742SOL     OW17677   3.445   2.063   6.463
 5742SOL    HW117678   3.387   2.085   6.535
 5742SOL    HW217679   3.446   2.141   6.408
 5743SOL     OW17680   1.904   2.940   5.890
 5743SOL    HW117681   1.998   2.928   5.878
 5743SOL    HW217682   1.871   2.851   5.908
 5744SOL     OW17683   2.746   3.518   5.930
 5744SOL    HW117684   2.676   3.499   5.869
 5744SOL    HW217685   2.715   3.594   5.979
 5745SOL     OW17686   1.854   2.286   8.071
 5745SOL    HW117687   1.770   2.288   8.116
 5745SOL    HW217688   1.849   2.207   8.016
 5746SOL     OW17689   2.429   3.150   8.623
 5746SOL    HW117690   2.341   3.154   8.584
 5746SOL    HW217691   2.444   3.238   8.657
 5747SOL     OW17692   3.423   3.374   8.156
 5747SOL    HW117693   3.380   3.352   8.239
 5747SOL    HW217694   3.351   3.377   8.092
 5748SOL     OW17695   2.991   2.561   8.149
 5748SOL    HW117696   3.041   2.641   8.134
 5748SOL    HW217697   2.945   2.575   8.231
 5749SOL     OW17698   3.627   2.469   7.678
 5749SOL    HW117699   3.608   2.461   7.585
 5749SOL    HW217700   3.593   2.389   7.717
 5750SOL     OW17701   2.616   3.004   8.489
 5750SOL    HW117702   2.548   3.039   8.546
 5750SOL    HW217703   2.652   3.081   8.445
 5751SOL     OW17704   2.728   2.635   9.270
 5751SOL    HW117705   2.716   2.706   9.332
 5751SOL    HW217706   2.752   2.679   9.188
 5752SOL     OW17707   2.548   2.864   8.095
 5752SOL    HW117708   2.614   2.854   8.165
 5752SOL    HW217709   2.479   2.917   8.135
 5753SOL     OW17710   2.573   3.013   9.260
 5753SOL    HW117711   2.620   3.091   9.288
 5753SOL    HW217712   2.490   3.046   9.225
 5754SOL     OW17713   2.193   3.286   8.515
 5754SOL    HW117714   2.120   3.250   8.466
 5754SOL    HW217715   2.242   3.338   8.451
 5755SOL     OW17716   3.322   3.362   8.802
 5755SOL    HW117717   3.374   3.442   8.812
 5755SOL    HW217718   3.260   3.365   8.875
 5756SOL     OW17719   2.293   2.257   8.949
 5756SOL    HW117720   2.385   2.231   8.947
 5756SOL    HW217721   2.246   2.174   8.954
 5757SOL     OW17722   3.473   2.309   8.190
 5757SOL    HW117723   3.400   2.333   8.133
 5757SOL    HW217724   3.490   2.388   8.242
 5758SOL     OW17725   2.083   3.578   7.927
 5758SOL    HW117726   2.116   3.639   7.993
 5758SOL    HW217727   2.153   3.574   7.862
 5759SOL     OW17728   2.998   3.204   9.141
 5759SOL    HW117729   3.039   3.198   9.227
 5759SOL    HW217730   2.946   3.124   9.134
 5760SOL     OW17731   2.091   3.304   7.984
 5760SOL    HW117732   2.073   3.398   7.988
 5760SOL    HW217733   2.031   3.265   8.048
 5761SOL     OW17734   2.119   2.953   8.339
 5761SOL    HW117735   2.116   2.867   8.380
 5761SOL    HW217736   2.062   3.008   8.392
 5762SOL     OW17737   2.473   3.649   8.877
 5762SOL    HW117738   2.391   3.633   8.924
 5762SOL    HW217739   2.499   3.738   8.902
 5763SOL     OW17740   2.445   2.843   7.581
 5763SOL    HW117741   2.492   2.891   7.513
 5763SOL    HW217742   2.484   2.873   7.663
 5764SOL     OW17743   3.457   1.986   8.915
 5764SOL    HW117744   3.465   2.068   8.866
 5764SOL    HW217745   3.445   2.014   9.006
 5765SOL     OW17746   1.982   2.518   8.010
 5765SOL    HW117747   1.943   2.433   8.031
 5765SOL    HW217748   1.972   2.570   8.090
 5766SOL     OW17749   3.699   3.615   7.789
 5766SOL    HW117750   3.769   3.590   7.850
 5766SOL    HW217751   3.721   3.705   7.765
 5767SOL     OW17752   1.890   3.455   7.571
 5767SOL    HW117753   1.876   3.363   7.592
 5767SOL    HW217754   1.870   3.502   7.651
 5768SOL     OW17755   3.550   2.781   8.091
 5768SOL    HW117756   3.634   2.738   8.073
 5768SOL    HW217757   3.531   2.831   8.011
 5769SOL     OW17758   3.503   2.968   7.879
 5769SOL    HW117759   3.588   2.974   7.835
 5769SOL    HW217760   3.510   3.030   7.952
 5770SOL     OW17761   1.982   2.603   9.033
 5770SOL    HW117762   2.074   2.626   9.046
 5770SOL    HW217763   1.935   2.686   9.043
 5771SOL     OW17764   2.476   3.249   8.183
 5771SOL    HW117765   2.430   3.165   8.192
 5771SOL    HW217766   2.459   3.275   8.092
 5772SOL     OW17767   3.150   3.100   8.871
 5772SOL    HW117768   3.183   3.033   8.811
 5772SOL    HW217769   3.209   3.094   8.947
 5773SOL     OW17770   2.675   1.863   7.954
 5773SOL    HW117771   2.718   1.946   7.933
 5773SOL    HW217772   2.585   1.888   7.975
 5774SOL     OW17773   2.053   2.829   8.719
 5774SOL    HW117774   2.137   2.786   8.704
 5774SOL    HW217775   1.989   2.773   8.676
 5775SOL     OW17776   3.391   2.856   7.647
 5775SOL    HW117777   3.322   2.799   7.679
 5775SOL    HW217778   3.432   2.891   7.726
 5776SOL     OW17779   3.075   3.665   9.074
 5776SOL    HW117780   3.056   3.724   9.002
 5776SOL    HW217781   3.077   3.578   9.033
 5777SOL     OW17782   2.259   2.158   9.262
 5777SOL    HW117783   2.308   2.232   9.296
 5777SOL    HW217784   2.167   2.181   9.276
 5778SOL     OW17785   3.327   3.282   8.398
 5778SOL    HW117786   3.260   3.297   8.465
 5778SOL    HW217787   3.316   3.191   8.372
 5779SOL     OW17788   3.512   3.603   8.028
 5779SOL    HW117789   3.502   3.570   7.939
 5779SOL    HW217790   3.494   3.528   8.084
 5780SOL     OW17791   2.469   2.593   7.730
 5780SOL    HW117792   2.471   2.666   7.668
 5780SOL    HW217793   2.401   2.617   7.793
 5781SOL     OW17794   3.140   2.216   8.381
 5781SOL    HW117795   3.051   2.182   8.389
 5781SOL    HW217796   3.192   2.163   8.441
 5782SOL     OW17797   3.437   3.537   7.756
 5782SOL    HW117798   3.529   3.563   7.752
 5782SOL    HW217799   3.414   3.516   7.665
 5783SOL     OW17800   2.656   2.481   8.900
 5783SOL    HW117801   2.630   2.456   8.989
 5783SOL    HW217802   2.614   2.415   8.844
 5784SOL     OW17803   3.256   2.336   9.126
 5784SOL    HW117804   3.258   2.380   9.211
 5784SOL    HW217805   3.316   2.262   9.136
 5785SOL     OW17806   2.816   2.749   9.031
 5785SOL    HW117807   2.871   2.679   8.995
 5785SOL    HW217808   2.769   2.784   8.955
 5786SOL     OW17809   2.855   2.275   8.686
 5786SOL    HW117810   2.770   2.296   8.724
 5786SOL    HW217811   2.834   2.228   8.605
 5787SOL     OW17812   2.913   2.561   7.874
 5787SOL    HW117813   2.929   2.554   7.968
 5787SOL    HW217814   2.830   2.514   7.861
 5788SOL     OW17815   1.951   2.686   8.224
 5788SOL    HW117816   2.032   2.679   8.274
 5788SOL    HW217817   1.907   2.763   8.259
 5789SOL     OW17818   1.986   3.702   9.024
 5789SOL    HW117819   1.986   3.683   9.118
 5789SOL    HW217820   1.893   3.707   9.001
 5790SOL     OW17821   2.753   2.209   7.642
 5790SOL    HW117822   2.800   2.269   7.583
 5790SOL    HW217823   2.769   2.122   7.606
 5791SOL     OW17824   3.573   2.437   9.276
 5791SOL    HW117825   3.534   2.511   9.229
 5791SOL    HW217826   3.596   2.374   9.208
 5792SOL     OW17827   3.238   3.004   7.989
 5792SOL    HW117828   3.317   2.990   7.938
 5792SOL    HW217829   3.186   3.066   7.938
 5793SOL     OW17830   2.403   2.045   8.337
 5793SOL    HW117831   2.420   2.070   8.428
 5793SOL    HW217832   2.420   2.125   8.287
 5794SOL     OW17833   2.868   3.308   7.920
 5794SOL    HW117834   2.829   3.380   7.871
 5794SOL    HW217835   2.849   3.328   8.012
 5795SOL     OW17836   2.213   3.671   8.289
 5795SOL    HW117837   2.263   3.592   8.307
 5795SOL    HW217838   2.273   3.743   8.309
 5796SOL     OW17839   3.666   2.923   8.314
 5796SOL    HW117840   3.612   2.900   8.239
 5796SOL    HW217841   3.605   2.927   8.388
 5797SOL     OW17842   3.089   3.399   8.960
 5797SOL    HW117843   3.075   3.327   9.021
 5797SOL    HW217844   3.025   3.385   8.891
 5798SOL     OW17845   2.179   2.823   7.702
 5798SOL    HW117846   2.258   2.836   7.650
 5798SOL    HW217847   2.150   2.735   7.680
 5799SOL     OW17848   3.340   2.605   8.175
 5799SOL    HW117849   3.333   2.562   8.260
 5799SOL    HW217850   3.418   2.660   8.183
 5800SOL     OW17851   2.328   3.126   9.185
 5800SOL    HW117852   2.301   3.131   9.094
 5800SOL    HW217853   2.246   3.125   9.234
 5801SOL     OW17854   2.975   3.643   7.671
 5801SOL    HW117855   2.913   3.595   7.726
 5801SOL    HW217856   3.005   3.578   7.607
 5802SOL     OW17857   3.488   3.245   7.537
 5802SOL    HW117858   3.445   3.329   7.519
 5802SOL    HW217859   3.421   3.180   7.517
 5803SOL     OW17860   2.330   3.596   7.773
 5803SOL    HW117861   2.367   3.661   7.832
 5803SOL    HW217862   2.403   3.572   7.716
 5804SOL     OW17863   3.263   1.969   7.882
 5804SOL    HW117864   3.254   1.945   7.790
 5804SOL    HW217865   3.357   1.975   7.896
 5805SOL     OW17866   2.121   3.654   8.674
 5805SOL    HW117867   2.169   3.586   8.721
 5805SOL    HW217868   2.107   3.618   8.587
 5806SOL     OW17869   2.800   3.561   8.349
 5806SOL    HW117870   2.877   3.509   8.369
 5806SOL    HW217871   2.755   3.512   8.280
 5807SOL     OW17872   2.259   2.554   7.940
 5807SOL    HW117873   2.276   2.460   7.927
 5807SOL    HW217874   2.164   2.558   7.953
 5808SOL     OW17875   3.397   2.087   9.174
 5808SOL    HW117876   3.406   2.108   9.267
 5808SOL    HW217877   3.329   2.020   9.170
 5809SOL     OW17878   2.628   2.141   9.204
 5809SOL    HW117879   2.704   2.082   9.203
 5809SOL    HW217880   2.577   2.113   9.280
 5810SOL     OW17881   2.738   3.382   8.642
 5810SOL    HW117882   2.722   3.347   8.555
 5810SOL    HW217883   2.808   3.328   8.678
 5811SOL     OW17884   3.203   2.451   8.880
 5811SOL    HW117885   3.233   2.420   8.965
 5811SOL    HW217886   3.239   2.539   8.872
 5812SOL     OW17887   2.677   3.257   8.388
 5812SOL    HW117888   2.761   3.245   8.344
 5812SOL    HW217889   2.613   3.258   8.317
 5813SOL     OW17890   2.789   2.370   8.351
 5813SOL    HW117891   2.765   2.362   8.258
 5813SOL    HW217892   2.822   2.284   8.375
 5814SOL     OW17893   2.423   1.954   7.997
 5814SOL    HW117894   2.342   1.926   8.040
 5814SOL    HW217895   2.395   2.018   7.932
 5815SOL     OW17896   3.290   3.061   7.489
 5815SOL    HW117897   3.321   2.985   7.539
 5815SOL    HW217898   3.204   3.080   7.526
 5816SOL     OW17899   2.802   2.108   7.907
 5816SOL    HW117900   2.776   2.148   7.824
 5816SOL    HW217901   2.896   2.121   7.913
 5817SOL     OW17902   2.943   2.543   8.907
 5817SOL    HW117903   2.874   2.476   8.913
 5817SOL    HW217904   3.024   2.494   8.901
 5818SOL     OW17905   3.084   3.432   8.242
 5818SOL    HW117906   3.101   3.500   8.176
 5818SOL    HW217907   3.154   3.443   8.307
 5819SOL     OW17908   2.331   3.012   8.181
 5819SOL    HW117909   2.262   2.993   8.245
 5819SOL    HW217910   2.291   2.996   8.096
 5820SOL     OW17911   3.130   3.658   8.054
 5820SOL    HW117912   3.175   3.722   8.000
 5820SOL    HW217913   3.059   3.707   8.096
 5821SOL     OW17914   2.882   2.402   7.471
 5821SOL    HW117915   2.835   2.482   7.449
 5821SOL    HW217916   2.948   2.430   7.535
 5822SOL     OW17917   1.939   2.422   8.834
 5822SOL    HW117918   2.032   2.418   8.813
 5822SOL    HW217919   1.933   2.487   8.904
 5823SOL     OW17920   2.459   2.086   8.602
 5823SOL    HW117921   2.499   2.006   8.636
 5823SOL    HW217922   2.375   2.092   8.647
 5824SOL     OW17923   2.726   2.319   8.087
 5824SOL    HW117924   2.690   2.376   8.019
 5824SOL    HW217925   2.750   2.239   8.040
 5825SOL     OW17926   2.877   1.917   8.201
 5825SOL    HW117927   2.820   1.910   8.125
 5825SOL    HW217928   2.855   1.840   8.254
 5826SOL     OW17929   3.300   3.025   8.305
 5826SOL    HW117930   3.230   2.959   8.304
 5826SOL    HW217931   3.325   3.035   8.213
 5827SOL     OW17932   3.327   2.468   8.425
 5827SOL    HW117933   3.278   2.387   8.427
 5827SOL    HW217934   3.387   2.462   8.499
 5828SOL     OW17935   3.723   2.680   7.823
 5828SOL    HW117936   3.767   2.624   7.887
 5828SOL    HW217937   3.685   2.619   7.760
 5829SOL     OW17938   2.353   3.279   7.604
 5829SOL    HW117939   2.277   3.251   7.656
 5829SOL    HW217940   2.337   3.241   7.518
 5830SOL     OW17941   3.528   3.127   8.094
 5830SOL    HW117942   3.623   3.130   8.103
 5830SOL    HW217943   3.499   3.216   8.115
 5831SOL     OW17944   3.256   2.433   7.520
 5831SOL    HW117945   3.194   2.414   7.590
 5831SOL    HW217946   3.340   2.400   7.552
 5832SOL     OW17947   3.614   3.097   9.018
 5832SOL    HW117948   3.701   3.061   9.001
 5832SOL    HW217949   3.630   3.186   9.048
 5833SOL     OW17950   2.920   3.215   8.781
 5833SOL    HW117951   2.846   3.184   8.832
 5833SOL    HW217952   2.996   3.174   8.822
 5834SOL     OW17953   3.468   3.490   9.103
 5834SOL    HW117954   3.460   3.523   9.014
 5834SOL    HW217955   3.550   3.440   9.103
 5835SOL     OW17956   2.991   3.066   8.553
 5835SOL    HW117957   2.932   3.104   8.618
 5835SOL    HW217958   2.958   3.098   8.469
 5836SOL     OW17959   3.492   2.959   8.524
 5836SOL    HW117960   3.485   3.021   8.597
 5836SOL    HW217961   3.414   2.975   8.471
 5837SOL     OW17962   2.780   1.959   8.843
 5837SOL    HW117963   2.804   1.940   8.753
 5837SOL    HW217964   2.859   1.998   8.881
 5838SOL     OW17965   2.846   2.977   9.171
 5838SOL    HW117966   2.754   2.993   9.192
 5838SOL    HW217967   2.845   2.899   9.115
 5839SOL     OW17968   2.569   2.922   7.819
 5839SOL    HW117969   2.557   2.906   7.912
 5839SOL    HW217970   2.646   2.869   7.795
 5840SOL     OW17971   2.280   2.674   8.699
 5840SOL    HW117972   2.348   2.686   8.765
 5840SOL    HW217973   2.246   2.586   8.715
 5841SOL     OW17974   3.127   2.239   8.724
 5841SOL    HW117975   3.160   2.316   8.770
 5841SOL    HW217976   3.037   2.261   8.701
 5842SOL     OW17977   1.933   3.435   8.800
 5842SOL    HW117978   1.904   3.510   8.748
 5842SOL    HW217979   2.028   3.438   8.796
 5843SOL     OW17980   2.210   2.974   7.939
 5843SOL    HW117981   2.215   3.049   7.880
 5843SOL    HW217982   2.208   2.898   7.881
 5844SOL     OW17983   2.409   2.403   8.311
 5844SOL    HW117984   2.428   2.462   8.238
 5844SOL    HW217985   2.476   2.424   8.377
 5845SOL     OW17986   3.110   3.210   7.837
 5845SOL    HW117987   3.166   3.281   7.868
 5845SOL    HW217988   3.023   3.232   7.871
 5846SOL     OW17989   3.143   3.321   8.595
 5846SOL    HW117990   3.199   3.323   8.673
 5846SOL    HW217991   3.088   3.243   8.608
 5847SOL     OW17992   3.443   2.484   7.928
 5847SOL    HW117993   3.396   2.538   7.991
 5847SOL    HW217994   3.485   2.546   7.869
 5848SOL     OW17995   2.208   3.390   8.762
 5848SOL    HW117996   2.196   3.346   8.678
 5848SOL    HW217997   2.303   3.401   8.770
 5849SOL     OW17998   2.276   2.609   9.050
 5849SOL    HW117999   2.339   2.651   8.992
 5849SOL    HW218000   2.313   2.523   9.069
 5850SOL     OW18001   3.464   2.640   9.129
 5850SOL    HW118002   3.378   2.682   9.123
 5850SOL    HW218003   3.516   2.683   9.061
 5851SOL     OW18004   2.857   1.986   9.201
 5851SOL    HW118005   2.914   2.058   9.176
 5851SOL    HW218006   2.906   1.907   9.177
 5852SOL     OW18007   2.371   1.906   9.200
 5852SOL    HW118008   2.316   1.856   9.140
 5852SOL    HW218009   2.326   1.990   9.209
 5853SOL     OW18010   2.445   2.735   8.479
 5853SOL    HW118011   2.477   2.825   8.478
 5853SOL    HW218012   2.389   2.730   8.557
 5854SOL     OW18013   3.219   2.721   8.477
 5854SOL    HW118014   3.136   2.711   8.430
 5854SOL    HW218015   3.261   2.635   8.472
 5855SOL     OW18016   3.067   2.390   7.715
 5855SOL    HW118017   3.075   2.312   7.770
 5855SOL    HW218018   3.024   2.455   7.772
 5856SOL     OW18019   2.230   2.064   8.732
 5856SOL    HW118020   2.146   2.085   8.773
 5856SOL    HW218021   2.225   1.970   8.713
 5857SOL     OW18022   1.908   3.173   8.724
 5857SOL    HW118023   1.941   3.118   8.796
 5857SOL    HW218024   1.915   3.262   8.757
 5858SOL     OW18025   2.585   2.491   8.505
 5858SOL    HW118026   2.661   2.475   8.449
 5858SOL    HW218027   2.558   2.581   8.485
 5859SOL     OW18028   3.593   2.821   9.306
 5859SOL    HW118029   3.551   2.760   9.246
 5859SOL    HW218030   3.530   2.833   9.377
 5860SOL     OW18031   3.479   2.236   7.815
 5860SOL    HW118032   3.507   2.172   7.880
 5860SOL    HW218033   3.456   2.314   7.866
 5861SOL     OW18034   2.889   2.621   8.408
 5861SOL    HW118035   2.886   2.638   8.502
 5861SOL    HW218036   2.863   2.529   8.400
 5862SOL     OW18037   2.847   3.430   9.166
 5862SOL    HW118038   2.829   3.472   9.082
 5862SOL    HW218039   2.889   3.347   9.143
 5863SOL     OW18040   3.707   3.364   9.047
 5863SOL    HW118041   3.729   3.392   8.959
 5863SOL    HW218042   3.787   3.377   9.098
 5864SOL     OW18043   2.215   2.778   9.258
 5864SOL    HW118044   2.298   2.797   9.302
 5864SOL    HW218045   2.238   2.716   9.189
 5865SOL     OW18046   3.392   2.135   7.575
 5865SOL    HW118047   3.327   2.070   7.601
 5865SOL    HW218048   3.424   2.171   7.658
 5866SOL     OW18049   3.153   2.688   7.479
 5866SOL    HW118050   3.196   2.602   7.483
 5866SOL    HW218051   3.185   2.727   7.398
 5867SOL     OW18052   2.927   3.198   8.302
 5867SOL    HW118053   2.931   3.125   8.240
 5867SOL    HW218054   2.989   3.262   8.267
 5868SOL     OW18055   2.171   2.672   8.394
 5868SOL    HW118056   2.264   2.694   8.388
 5868SOL    HW218057   2.171   2.584   8.432
 5869SOL     OW18058   2.186   2.365   8.457
 5869SOL    HW118059   2.151   2.285   8.416
 5869SOL    HW218060   2.266   2.384   8.407
 5870SOL     OW18061   2.996   2.238   9.130
 5870SOL    HW118062   2.948   2.292   9.192
 5870SOL    HW218063   3.084   2.276   9.126
 5871SOL     OW18064   3.022   2.065   8.918
 5871SOL    HW118065   3.012   2.127   8.990
 5871SOL    HW218066   3.063   2.115   8.847
 5872SOL     OW18067   1.867   3.182   7.643
 5872SOL    HW118068   1.781   3.197   7.606
 5872SOL    HW218069   1.864   3.093   7.677
 5873SOL     OW18070   1.957   3.644   8.385
 5873SOL    HW118071   1.927   3.565   8.341
 5873SOL    HW218072   2.043   3.661   8.347
 5874SOL     OW18073   2.358   3.437   8.354
 5874SOL    HW118074   2.426   3.500   8.378
 5874SOL    HW218075   2.403   3.374   8.298
 5875SOL     OW18076   2.844   2.653   8.674
 5875SOL    HW118077   2.902   2.631   8.748
 5875SOL    HW218078   2.759   2.618   8.699
 5876SOL     OW18079   1.900   2.395   8.565
 5876SOL    HW118080   1.984   2.399   8.519
 5876SOL    HW218081   1.923   2.410   8.657
 5877SOL     OW18082   2.071   2.381   9.179
 5877SOL    HW118083   2.124   2.352   9.105
 5877SOL    HW218084   2.007   2.441   9.139
 5878SOL     OW18085   3.240   2.801   9.107
 5878SOL    HW118086   3.261   2.894   9.105
 5878SOL    HW218087   3.237   2.775   9.015
 5879SOL     OW18088   2.678   2.430   7.813
 5879SOL    HW118089   2.687   2.361   7.747
 5879SOL    HW218090   2.607   2.485   7.781
 5880SOL     OW18091   3.503   2.464   8.634
 5880SOL    HW118092   3.492   2.403   8.707
 5880SOL    HW218093   3.589   2.442   8.597
 5881SOL     OW18094   2.106   3.412   9.175
 5881SOL    HW118095   2.083   3.478   9.240
 5881SOL    HW218096   2.107   3.330   9.223
 5882SOL     OW18097   2.557   2.318   8.711
 5882SOL    HW118098   2.521   2.237   8.675
 5882SOL    HW218099   2.557   2.379   8.638
 5883SOL     OW18100   2.791   3.535   8.916
 5883SOL    HW118101   2.764   3.499   8.831
 5883SOL    HW218102   2.783   3.630   8.905
 5884SOL     OW18103   2.008   3.003   8.920
 5884SOL    HW118104   2.010   2.951   9.001
 5884SOL    HW218105   2.025   2.939   8.851
 5885SOL     OW18106   3.186   2.908   8.671
 5885SOL    HW118107   3.210   2.845   8.603
 5885SOL    HW218108   3.117   2.961   8.632
 5886SOL     OW18109   3.173   2.718   7.754
 5886SOL    HW118110   3.097   2.688   7.804
 5886SOL    HW218111   3.149   2.705   7.663
 5887SOL     OW18112   3.636   3.605   8.600
 5887SOL    HW118113   3.694   3.631   8.529
 5887SOL    HW218114   3.610   3.516   8.579
 5888SOL     OW18115   3.105   3.596   8.560
 5888SOL    HW118116   3.188   3.616   8.516
 5888SOL    HW218117   3.110   3.502   8.579
 5889SOL     OW18118   1.946   3.129   8.460
 5889SOL    HW118119   1.932   3.142   8.554
 5889SOL    HW218120   1.872   3.074   8.432
 5890SOL     OW18121   2.540   3.525   9.177
 5890SOL    HW118122   2.485   3.604   9.181
 5890SOL    HW218123   2.600   3.542   9.104
 5891SOL     OW18124   3.575   2.009   7.961
 5891SOL    HW118125   3.643   1.997   7.895
 5891SOL    HW218126   3.563   1.923   8.000
 5892SOL     OW18127   3.252   3.430   7.934
 5892SOL    HW118128   3.312   3.463   7.866
 5892SOL    HW218129   3.204   3.508   7.963
 5893SOL     OW18130   1.994   3.654   9.287
 5893SOL    HW118131   1.943   3.590   9.336
 5893SOL    HW218132   2.044   3.700   9.355
 5894SOL     OW18133   3.139   2.787   8.119
 5894SOL    HW118134   3.213   2.727   8.127
 5894SOL    HW218135   3.173   2.860   8.066
 5895SOL     OW18136   2.676   3.135   8.878
 5895SOL    HW118137   2.648   3.174   8.960
 5895SOL    HW218138   2.606   3.158   8.816
 5896SOL     OW18139   2.537   3.478   7.605
 5896SOL    HW118140   2.545   3.494   7.511
 5896SOL    HW218141   2.479   3.402   7.611
 5897SOL     OW18142   3.484   3.588   8.838
 5897SOL    HW118143   3.538   3.592   8.759
 5897SOL    HW218144   3.472   3.679   8.864
 5898SOL     OW18145   3.699   2.043   8.416
 5898SOL    HW118146   3.730   1.956   8.390
 5898SOL    HW218147   3.613   2.051   8.375
 5899SOL     OW18148   3.069   3.468   7.483
 5899SOL    HW118149   3.059   3.376   7.507
 5899SOL    HW218150   3.008   3.480   7.410
 5900SOL     OW18151   2.686   2.868   8.820
 5900SOL    HW118152   2.731   2.864   8.735
 5900SOL    HW218153   2.685   2.961   8.843
 5901SOL     OW18154   2.779   2.774   7.739
 5901SOL    HW118155   2.839   2.806   7.671
 5901SOL    HW218156   2.827   2.704   7.783
 5902SOL     OW18157   3.352   3.492   7.490
 5902SOL    HW118158   3.258   3.480   7.474
 5902SOL    HW218159   3.390   3.496   7.402
 5903SOL     OW18160   2.231   3.165   8.939
 5903SOL    HW118161   2.217   3.242   8.885
 5903SOL    HW218162   2.154   3.110   8.924
 5904SOL     OW18163   3.465   3.142   8.727
 5904SOL    HW118164   3.533   3.135   8.794
 5904SOL    HW218165   3.408   3.212   8.757
 5905SOL     OW18166   2.915   2.969   8.155
 5905SOL    HW118167   2.844   2.918   8.194
 5905SOL    HW218168   2.977   2.904   8.123
 5906SOL     OW18169   2.882   2.102   8.415
 5906SOL    HW118170   2.879   2.055   8.332
 5906SOL    HW218171   2.878   2.034   8.482
 5907SOL     OW18172   2.465   3.352   7.928
 5907SOL    HW118173   2.510   3.301   7.861
 5907SOL    HW218174   2.398   3.401   7.881
 5908SOL     OW18175   3.585   2.252   8.827
 5908SOL    HW118176   3.656   2.316   8.823
 5908SOL    HW218177   3.614   2.180   8.771
 5909SOL     OW18178   2.122   3.206   7.738
 5909SOL    HW118179   2.029   3.204   7.714
 5909SOL    HW218180   2.123   3.244   7.826
 5910SOL     OW18181   1.975   2.884   9.167
 5910SOL    HW118182   1.898   2.861   9.220
 5910SOL    HW218183   2.049   2.846   9.214
 5911SOL     OW18184   2.539   2.059   8.947
 5911SOL    HW118185   2.623   2.037   8.908
 5911SOL    HW218186   2.560   2.089   9.036
 5912SOL     OW18187   3.290   2.721   8.848
 5912SOL    HW118188   3.241   2.782   8.794
 5912SOL    HW218189   3.379   2.722   8.812
 5913SOL     OW18190   3.040   3.201   7.565
 5913SOL    HW118191   2.950   3.170   7.567
 5913SOL    HW218192   3.068   3.200   7.657
 5914SOL     OW18193   2.481   2.692   8.880
 5914SOL    HW118194   2.537   2.769   8.866
 5914SOL    HW218195   2.543   2.620   8.890
 5915SOL     OW18196   3.347   3.642   8.429
 5915SOL    HW118197   3.372   3.693   8.352
 5915SOL    HW218198   3.430   3.614   8.467
 5916SOL     OW18199   2.579   2.423   9.151
 5916SOL    HW118200   2.619   2.486   9.211
 5916SOL    HW218201   2.606   2.338   9.185
 5917SOL     OW18202   3.333   3.062   9.080
 5917SOL    HW118203   3.323   3.076   9.174
 5917SOL    HW218204   3.427   3.076   9.064
 5918SOL     OW18205   2.240   3.601   9.011
 5918SOL    HW118206   2.154   3.642   8.996
 5918SOL    HW218207   2.220   3.517   9.053
 5919SOL     OW18208   3.528   2.743   8.706
 5919SOL    HW118209   3.526   2.657   8.663
 5919SOL    HW218210   3.522   2.806   8.635
 5920SOL     OW18211   3.078   2.180   7.906
 5920SOL    HW118212   3.142   2.109   7.897
 5920SOL    HW218213   3.108   2.230   7.983
 5921SOL     OW18214   2.456   2.599   8.123
 5921SOL    HW118215   2.497   2.685   8.107
 5921SOL    HW218216   2.386   2.594   8.058
 5922SOL     OW18217   3.623   2.226   9.097
 5922SOL    HW118218   3.606   2.239   9.004
 5922SOL    HW218219   3.554   2.168   9.127
 5923SOL     OW18220   3.616   2.792   8.961
 5923SOL    HW118221   3.609   2.886   8.978
 5923SOL    HW218222   3.593   2.782   8.869
 5924SOL     OW18223   2.725   3.230   7.484
 5924SOL    HW118224   2.684   3.258   7.565
 5924SOL    HW218225   2.742   3.310   7.435
 5925SOL     OW18226   2.522   3.653   8.391
 5925SOL    HW118227   2.500   3.743   8.368
 5925SOL    HW218228   2.617   3.649   8.384
 5926SOL     OW18229   2.729   2.829   8.303
 5926SOL    HW118230   2.780   2.758   8.342
 5926SOL    HW218231   2.695   2.878   8.378
 5927SOL     OW18232   2.942   2.852   7.538
 5927SOL    HW118233   2.919   2.901   7.459
 5927SOL    HW218234   3.016   2.797   7.511
 5928SOL     OW18235   3.715   3.417   8.289
 5928SOL    HW118236   3.636   3.398   8.238
 5928SOL    HW218237   3.716   3.350   8.357
 5929SOL     OW18238   2.087   3.165   9.304
 5929SOL    HW118239   2.020   3.104   9.274
 5929SOL    HW218240   2.069   3.177   9.397
 5930SOL     OW18241   1.946   3.095   8.113
 5930SOL    HW118242   1.953   3.047   8.196
 5930SOL    HW218243   2.015   3.057   8.058
 5931SOL     OW18244   2.544   3.265   9.076
 5931SOL    HW118245   2.464   3.222   9.107
 5931SOL    HW218246   2.540   3.353   9.113
 5932SOL     OW18247   3.676   2.042   8.687
 5932SOL    HW118248   3.669   1.947   8.692
 5932SOL    HW218249   3.689   2.061   8.595
 5933SOL     OW18250   3.560   3.353   8.546
 5933SOL    HW118251   3.480   3.327   8.499
 5933SOL    HW218252   3.574   3.282   8.609
 5934SOL     OW18253   2.193   2.413   8.737
 5934SOL    HW118254   2.242   2.356   8.797
 5934SOL    HW218255   2.211   2.378   8.650
 5935SOL     OW18256   2.689   3.441   8.125
 5935SOL    HW118257   2.676   3.489   8.044
 5935SOL    HW218258   2.613   3.382   8.131
 5936SOL     OW18259   3.293   2.088   8.566
 5936SOL    HW118260   3.317   2.007   8.610
 5936SOL    HW218261   3.242   2.137   8.630
 5937SOL     OW18262   2.870   1.880   8.590
 5937SOL    HW118263   2.817   1.812   8.549
 5937SOL    HW218264   2.959   1.843   8.592
 5938SOL     OW18265   2.633   3.194   7.765
 5938SOL    HW118266   2.602   3.104   7.769
 5938SOL    HW218267   2.717   3.193   7.812
 5939SOL     OW18268   2.482   3.417   8.732
 5939SOL    HW118269   2.483   3.498   8.783
 5939SOL    HW218270   2.569   3.410   8.695
 5940SOL     OW18271   3.216   1.917   7.613
 5940SOL    HW118272   3.242   1.853   7.547
 5940SOL    HW218273   3.128   1.888   7.640
 5941SOL     OW18274   3.157   2.323   8.129
 5941SOL    HW118275   3.105   2.403   8.136
 5941SOL    HW218276   3.154   2.284   8.216
 5942SOL     OW18277   3.445   2.063   8.325
 5942SOL    HW118278   3.386   2.085   8.397
 5942SOL    HW218279   3.446   2.141   8.270
 5943SOL     OW18280   1.904   2.931   7.756
 5943SOL    HW118281   1.997   2.923   7.738
 5943SOL    HW218282   1.876   2.843   7.780
 5944SOL     OW18283   2.746   3.518   7.793
 5944SOL    HW118284   2.676   3.498   7.731
 5944SOL    HW218285   2.715   3.594   7.841
 5945SOL     OW18286   2.088   2.478   9.435
 5945SOL    HW118287   1.997   2.485   9.464
 5945SOL    HW218288   2.082   2.450   9.344
 5946SOL     OW18289   1.857   2.285   9.933
 5946SOL    HW118290   1.772   2.285   9.977
 5946SOL    HW218291   1.855   2.208   9.878
 5947SOL     OW18292   2.429   3.150  10.485
 5947SOL    HW118293   2.341   3.154  10.446
 5947SOL    HW218294   2.444   3.238  10.519
 5948SOL     OW18295   3.423   3.374  10.018
 5948SOL    HW118296   3.380   3.352  10.101
 5948SOL    HW218297   3.351   3.377   9.954
 5949SOL     OW18298   2.991   2.561  10.011
 5949SOL    HW118299   3.041   2.641   9.996
 5949SOL    HW218300   2.945   2.575  10.093
 5950SOL     OW18301   3.628   2.469   9.540
 5950SOL    HW118302   3.608   2.461   9.447
 5950SOL    HW218303   3.593   2.389   9.579
 5951SOL     OW18304   2.616   3.004  10.351
 5951SOL    HW118305   2.548   3.039  10.408
 5951SOL    HW218306   2.652   3.081  10.307
 5952SOL     OW18307   2.728   2.635  11.131
 5952SOL    HW118308   2.716   2.706  11.195
 5952SOL    HW218309   2.752   2.679  11.050
 5953SOL     OW18310   2.548   2.863   9.957
 5953SOL    HW118311   2.613   2.853  10.026
 5953SOL    HW218312   2.479   2.916   9.997
 5954SOL     OW18313   2.573   3.013  11.122
 5954SOL    HW118314   2.620   3.091  11.150
 5954SOL    HW218315   2.490   3.046  11.087
 5955SOL     OW18316   2.193   3.286  10.377
 5955SOL    HW118317   2.120   3.250  10.328
 5955SOL    HW218318   2.242   3.338  10.313
 5956SOL     OW18319   3.322   3.362  10.664
 5956SOL    HW118320   3.374   3.442  10.674
 5956SOL    HW218321   3.260   3.365  10.737
 5957SOL     OW18322   2.291   2.239  10.783
 5957SOL    HW118323   2.381   2.210  10.799
 5957SOL    HW218324   2.237   2.166  10.811
 5958SOL     OW18325   3.473   2.310  10.052
 5958SOL    HW118326   3.400   2.333   9.996
 5958SOL    HW218327   3.490   2.388  10.105
 5959SOL     OW18328   2.083   3.578   9.789
 5959SOL    HW118329   2.116   3.638   9.855
 5959SOL    HW218330   2.153   3.574   9.724
 5960SOL     OW18331   2.998   3.204  11.003
 5960SOL    HW118332   3.039   3.198  11.089
 5960SOL    HW218333   2.946   3.124  10.996
 5961SOL     OW18334   2.091   3.304   9.845
 5961SOL    HW118335   2.073   3.397   9.851
 5961SOL    HW218336   2.031   3.264   9.909
 5962SOL     OW18337   2.120   2.953  10.201
 5962SOL    HW118338   2.116   2.867  10.242
 5962SOL    HW218339   2.062   3.008  10.254
 5963SOL     OW18340   2.473   3.649  10.739
 5963SOL    HW118341   2.391   3.633  10.786
 5963SOL    HW218342   2.499   3.738  10.764
 5964SOL     OW18343   2.448   2.844   9.444
 5964SOL    HW118344   2.493   2.893   9.376
 5964SOL    HW218345   2.487   2.875   9.526
 5965SOL     OW18346   3.458   1.986  10.777
 5965SOL    HW118347   3.465   2.068  10.728
 5965SOL    HW218348   3.445   2.014  10.868
 5966SOL     OW18349   1.983   2.521   9.870
 5966SOL    HW118350   1.945   2.435   9.888
 5966SOL    HW218351   1.972   2.569   9.952
 5967SOL     OW18352   3.700   3.615   9.651
 5967SOL    HW118353   3.769   3.590   9.712
 5967SOL    HW218354   3.721   3.705   9.627
 5968SOL     OW18355   1.890   3.455   9.433
 5968SOL    HW118356   1.875   3.363   9.454
 5968SOL    HW218357   1.870   3.502   9.513
 5969SOL     OW18358   3.550   2.781   9.953
 5969SOL    HW118359   3.634   2.739   9.935
 5969SOL    HW218360   3.531   2.830   9.873
 5970SOL     OW18361   3.503   2.968   9.741
 5970SOL    HW118362   3.588   2.974   9.697
 5970SOL    HW218363   3.510   3.030   9.814
 5971SOL     OW18364   1.982   2.604  10.895
 5971SOL    HW118365   2.074   2.626  10.908
 5971SOL    HW218366   1.935   2.687  10.905
 5972SOL     OW18367   2.476   3.249  10.045
 5972SOL    HW118368   2.430   3.165  10.054
 5972SOL    HW218369   2.459   3.275   9.954
 5973SOL     OW18370   3.150   3.100  10.733
 5973SOL    HW118371   3.183   3.033  10.673
 5973SOL    HW218372   3.208   3.094  10.809
 5974SOL     OW18373   2.674   1.863   9.818
 5974SOL    HW118374   2.714   1.948   9.799
 5974SOL    HW218375   2.580   1.883   9.826
 5975SOL     OW18376   2.053   2.830  10.581
 5975SOL    HW118377   2.137   2.786  10.566
 5975SOL    HW218378   1.989   2.773  10.538
 5976SOL     OW18379   3.391   2.856   9.509
 5976SOL    HW118380   3.321   2.799   9.542
 5976SOL    HW218381   3.432   2.891   9.588
 5977SOL     OW18382   3.075   3.665  10.936
 5977SOL    HW118383   3.056   3.724  10.864
 5977SOL    HW218384   3.077   3.578  10.895
 5978SOL     OW18385   2.262   2.164  11.115
 5978SOL    HW118386   2.308   2.233  11.161
 5978SOL    HW218387   2.169   2.183  11.128
 5979SOL     OW18388   3.327   3.282  10.260
 5979SOL    HW118389   3.260   3.297  10.327
 5979SOL    HW218390   3.316   3.191  10.235
 5980SOL     OW18391   3.513   3.603   9.890
 5980SOL    HW118392   3.502   3.570   9.801
 5980SOL    HW218393   3.494   3.528   9.946
 5981SOL     OW18394   2.457   2.583   9.576
 5981SOL    HW118395   2.464   2.665   9.526
 5981SOL    HW218396   2.393   2.602   9.644
 5982SOL     OW18397   3.140   2.216  10.243
 5982SOL    HW118398   3.051   2.181  10.251
 5982SOL    HW218399   3.192   2.163  10.303
 5983SOL     OW18400   3.437   3.537   9.618
 5983SOL    HW118401   3.529   3.563   9.614
 5983SOL    HW218402   3.414   3.516   9.527
 5984SOL     OW18403   2.654   2.480  10.760
 5984SOL    HW118404   2.629   2.456  10.849
 5984SOL    HW218405   2.614   2.412  10.705
 5985SOL     OW18406   3.256   2.336  10.988
 5985SOL    HW118407   3.258   2.380  11.073
 5985SOL    HW218408   3.316   2.262  10.998
 5986SOL     OW18409   2.816   2.749  10.893
 5986SOL    HW118410   2.871   2.679  10.857
 5986SOL    HW218411   2.769   2.784  10.817
 5987SOL     OW18412   2.855   2.275  10.548
 5987SOL    HW118413   2.769   2.296  10.586
 5987SOL    HW218414   2.835   2.228  10.467
 5988SOL     OW18415   2.913   2.560   9.736
 5988SOL    HW118416   2.929   2.554   9.830
 5988SOL    HW218417   2.831   2.514   9.722
 5989SOL     OW18418   1.950   2.684  10.087
 5989SOL    HW118419   2.032   2.679  10.137
 5989SOL    HW218420   1.906   2.762  10.122
 5990SOL     OW18421   1.986   3.701  10.885
 5990SOL    HW118422   1.986   3.683  10.979
 5990SOL    HW218423   1.893   3.708  10.863
 5991SOL     OW18424   2.756   2.213   9.508
 5991SOL    HW118425   2.798   2.271   9.444
 5991SOL    HW218426   2.758   2.127   9.465
 5992SOL     OW18427   3.573   2.437  11.138
 5992SOL    HW118428   3.534   2.511  11.091
 5992SOL    HW218429   3.596   2.374  11.070
 5993SOL     OW18430   3.238   3.004   9.851
 5993SOL    HW118431   3.317   2.991   9.800
 5993SOL    HW218432   3.186   3.066   9.800
 5994SOL     OW18433   2.410   2.054  10.201
 5994SOL    HW118434   2.409   2.072  10.295
 5994SOL    HW218435   2.429   2.138  10.160
 5995SOL     OW18436   2.868   3.307   9.782
 5995SOL    HW118437   2.829   3.380   9.733
 5995SOL    HW218438   2.849   3.327   9.874
 5996SOL     OW18439   2.213   3.671  10.151
 5996SOL    HW118440   2.263   3.592  10.169
 5996SOL    HW218441   2.273   3.743  10.171
 5997SOL     OW18442   3.666   2.923  10.176
 5997SOL    HW118443   3.611   2.900  10.101
 5997SOL    HW218444   3.605   2.927  10.250
 5998SOL     OW18445   3.090   3.399  10.822
 5998SOL    HW118446   3.076   3.327  10.883
 5998SOL    HW218447   3.024   3.385  10.753
 5999SOL     OW18448   2.182   2.820   9.561
 5999SOL    HW118449   2.264   2.839   9.515
 5999SOL    HW218450   2.151   2.739   9.521
 6000SOL     OW18451   3.340   2.605  10.037
 6000SOL    HW118452   3.332   2.562  10.122
 6000SOL    HW218453   3.418   2.660  10.045
 6001SOL     OW18454   2.328   3.126  11.047
 6001SOL    HW118455   2.301   3.131  10.955
 6001SOL    HW218456   2.246   3.125  11.096
 6002SOL     OW18457   2.975   3.643   9.533
 6002SOL    HW118458   2.913   3.595   9.588
 6002SOL    HW218459   3.005   3.578   9.469
 6003SOL     OW18460   3.488   3.245   9.399
 6003SOL    HW118461   3.445   3.329   9.381
 6003SOL    HW218462   3.421   3.180   9.379
 6004SOL     OW18463   2.330   3.596   9.635
 6004SOL    HW118464   2.367   3.661   9.694
 6004SOL    HW218465   2.403   3.572   9.578
 6005SOL     OW18466   3.263   1.970   9.743
 6005SOL    HW118467   3.254   1.944   9.651
 6005SOL    HW218468   3.357   1.975   9.758
 6006SOL     OW18469   2.121   3.654  10.536
 6006SOL    HW118470   2.169   3.587  10.583
 6006SOL    HW218471   2.107   3.618  10.449
 6007SOL     OW18472   2.800   3.561  10.211
 6007SOL    HW118473   2.877   3.509  10.232
 6007SOL    HW218474   2.755   3.512  10.142
 6008SOL     OW18475   2.255   2.557   9.786
 6008SOL    HW118476   2.275   2.464   9.797
 6008SOL    HW218477   2.161   2.563   9.804
 6009SOL     OW18478   3.397   2.087  11.036
 6009SOL    HW118479   3.406   2.108  11.129
 6009SOL    HW218480   3.329   2.020  11.032
 6010SOL     OW18481   2.510   1.985   9.421
 6010SOL    HW118482   2.573   1.913   9.431
 6010SOL    HW218483   2.451   1.956   9.351
 6011SOL     OW18484   2.628   2.140  11.065
 6011SOL    HW118485   2.704   2.082  11.065
 6011SOL    HW218486   2.577   2.112  11.142
 6012SOL     OW18487   2.738   3.382  10.504
 6012SOL    HW118488   2.722   3.347  10.417
 6012SOL    HW218489   2.808   3.328  10.540
 6013SOL     OW18490   3.203   2.451  10.742
 6013SOL    HW118491   3.233   2.420  10.827
 6013SOL    HW218492   3.239   2.539  10.735
 6014SOL     OW18493   2.677   3.257  10.250
 6014SOL    HW118494   2.761   3.245  10.206
 6014SOL    HW218495   2.613   3.258  10.179
 6015SOL     OW18496   2.789   2.370  10.213
 6015SOL    HW118497   2.766   2.362  10.121
 6015SOL    HW218498   2.822   2.284  10.237
 6016SOL     OW18499   2.406   1.928   9.815
 6016SOL    HW118500   2.344   1.941   9.887
 6016SOL    HW218501   2.394   2.004   9.759
 6017SOL     OW18502   3.290   3.061   9.351
 6017SOL    HW118503   3.321   2.985   9.401
 6017SOL    HW218504   3.204   3.081   9.388
 6018SOL     OW18505   2.800   2.110   9.770
 6018SOL    HW118506   2.774   2.149   9.687
 6018SOL    HW218507   2.895   2.122   9.775
 6019SOL     OW18508   2.942   2.543  10.769
 6019SOL    HW118509   2.875   2.476  10.775
 6019SOL    HW218510   3.025   2.494  10.763
 6020SOL     OW18511   3.084   3.432  10.104
 6020SOL    HW118512   3.101   3.500  10.038
 6020SOL    HW218513   3.153   3.443  10.169
 6021SOL     OW18514   2.331   3.012  10.043
 6021SOL    HW118515   2.262   2.993  10.106
 6021SOL    HW218516   2.291   2.996   9.958
 6022SOL     OW18517   3.130   3.658   9.916
 6022SOL    HW118518   3.175   3.722   9.862
 6022SOL    HW218519   3.059   3.707   9.958
 6023SOL     OW18520   2.886   2.404   9.332
 6023SOL    HW118521   2.843   2.487   9.313
 6023SOL    HW218522   2.951   2.425   9.399
 6024SOL     OW18523   1.938   2.423  10.696
 6024SOL    HW118524   2.031   2.419  10.675
 6024SOL    HW218525   1.932   2.488  10.766
 6025SOL     OW18526   2.413   2.083  10.478
 6025SOL    HW118527   2.462   2.005  10.506
 6025SOL    HW218528   2.330   2.077  10.526
 6026SOL     OW18529   2.726   2.319   9.950
 6026SOL    HW118530   2.685   2.376   9.884
 6026SOL    HW218531   2.751   2.240   9.902
 6027SOL     OW18532   2.875   1.917  10.062
 6027SOL    HW118533   2.820   1.907   9.985
 6027SOL    HW218534   2.854   1.840  10.116
 6028SOL     OW18535   3.300   3.025  10.167
 6028SOL    HW118536   3.230   2.959  10.166
 6028SOL    HW218537   3.325   3.035  10.075
 6029SOL     OW18538   3.327   2.468  10.287
 6029SOL    HW118539   3.278   2.387  10.289
 6029SOL    HW218540   3.387   2.462  10.361
 6030SOL     OW18541   3.723   2.680   9.685
 6030SOL    HW118542   3.767   2.624   9.749
 6030SOL    HW218543   3.685   2.619   9.621
 6031SOL     OW18544   2.353   3.279   9.466
 6031SOL    HW118545   2.278   3.251   9.518
 6031SOL    HW218546   2.337   3.241   9.380
 6032SOL     OW18547   3.528   3.127   9.956
 6032SOL    HW118548   3.623   3.130   9.965
 6032SOL    HW218549   3.499   3.216   9.977
 6033SOL     OW18550   3.256   2.433   9.382
 6033SOL    HW118551   3.194   2.414   9.452
 6033SOL    HW218552   3.340   2.401   9.414
 6034SOL     OW18553   2.385   2.127   9.628
 6034SOL    HW118554   2.429   2.074   9.561
 6034SOL    HW218555   2.364   2.209   9.584
 6035SOL     OW18556   3.614   3.097  10.880
 6035SOL    HW118557   3.701   3.061  10.863
 6035SOL    HW218558   3.630   3.186  10.910
 6036SOL     OW18559   2.920   3.215  10.643
 6036SOL    HW118560   2.845   3.184  10.694
 6036SOL    HW218561   2.996   3.174  10.684
 6037SOL     OW18562   3.468   3.490  10.965
 6037SOL    HW118563   3.460   3.523  10.876
 6037SOL    HW218564   3.550   3.440  10.965
 6038SOL     OW18565   2.991   3.066  10.415
 6038SOL    HW118566   2.932   3.104  10.480
 6038SOL    HW218567   2.958   3.098  10.331
 6039SOL     OW18568   3.493   2.960  10.386
 6039SOL    HW118569   3.485   3.021  10.459
 6039SOL    HW218570   3.414   2.975  10.334
 6040SOL     OW18571   2.779   1.960  10.705
 6040SOL    HW118572   2.803   1.940  10.615
 6040SOL    HW218573   2.858   1.998  10.743
 6041SOL     OW18574   2.846   2.977  11.033
 6041SOL    HW118575   2.754   2.993  11.054
 6041SOL    HW218576   2.844   2.899  10.977
 6042SOL     OW18577   2.571   2.923   9.681
 6042SOL    HW118578   2.557   2.906   9.774
 6042SOL    HW218579   2.647   2.870   9.658
 6043SOL     OW18580   2.280   2.675  10.561
 6043SOL    HW118581   2.348   2.687  10.627
 6043SOL    HW218582   2.245   2.588  10.577
 6044SOL     OW18583   3.128   2.239  10.586
 6044SOL    HW118584   3.160   2.316  10.632
 6044SOL    HW218585   3.037   2.261  10.563
 6045SOL     OW18586   1.932   3.435  10.662
 6045SOL    HW118587   1.904   3.510  10.610
 6045SOL    HW218588   2.028   3.438  10.658
 6046SOL     OW18589   2.210   2.972   9.800
 6046SOL    HW118590   2.215   3.045   9.739
 6046SOL    HW218591   2.208   2.894   9.744
 6047SOL     OW18592   2.410   2.398  10.172
 6047SOL    HW118593   2.424   2.456  10.097
 6047SOL    HW218594   2.476   2.425  10.236
 6048SOL     OW18595   3.110   3.210   9.699
 6048SOL    HW118596   3.166   3.282   9.730
 6048SOL    HW218597   3.023   3.232   9.733
 6049SOL     OW18598   3.143   3.321  10.457
 6049SOL    HW118599   3.199   3.323  10.535
 6049SOL    HW218600   3.088   3.243  10.470
 6050SOL     OW18601   3.442   2.484   9.790
 6050SOL    HW118602   3.396   2.538   9.854
 6050SOL    HW218603   3.485   2.546   9.732
 6051SOL     OW18604   2.208   3.390  10.624
 6051SOL    HW118605   2.196   3.346  10.540
 6051SOL    HW218606   2.303   3.401  10.632
 6052SOL     OW18607   2.276   2.610  10.912
 6052SOL    HW118608   2.339   2.652  10.854
 6052SOL    HW218609   2.316   2.526  10.935
 6053SOL     OW18610   3.464   2.640  10.991
 6053SOL    HW118611   3.378   2.682  10.985
 6053SOL    HW218612   3.516   2.683  10.923
 6054SOL     OW18613   2.857   1.986  11.063
 6054SOL    HW118614   2.914   2.058  11.037
 6054SOL    HW218615   2.905   1.907  11.039
 6055SOL     OW18616   2.372   1.907  11.061
 6055SOL    HW118617   2.316   1.855  11.003
 6055SOL    HW218618   2.327   1.991  11.067
 6056SOL     OW18619   2.446   2.734  10.342
 6056SOL    HW118620   2.477   2.825  10.340
 6056SOL    HW218621   2.389   2.730  10.419
 6057SOL     OW18622   3.219   2.721  10.339
 6057SOL    HW118623   3.136   2.711  10.292
 6057SOL    HW218624   3.261   2.635  10.334
 6058SOL     OW18625   3.066   2.391   9.576
 6058SOL    HW118626   3.074   2.312   9.630
 6058SOL    HW218627   3.024   2.455   9.633
 6059SOL     OW18628   1.908   3.173  10.586
 6059SOL    HW118629   1.941   3.118  10.658
 6059SOL    HW218630   1.915   3.262  10.619
 6060SOL     OW18631   2.583   2.490  10.366
 6060SOL    HW118632   2.660   2.475  10.311
 6060SOL    HW218633   2.557   2.581  10.347
 6061SOL     OW18634   3.593   2.821  11.168
 6061SOL    HW118635   3.551   2.760  11.108
 6061SOL    HW218636   3.530   2.833  11.239
 6062SOL     OW18637   3.479   2.237   9.676
 6062SOL    HW118638   3.507   2.172   9.742
 6062SOL    HW218639   3.456   2.314   9.727
 6063SOL     OW18640   2.889   2.621  10.270
 6063SOL    HW118641   2.886   2.638  10.364
 6063SOL    HW218642   2.863   2.529  10.262
 6064SOL     OW18643   2.847   3.430  11.028
 6064SOL    HW118644   2.829   3.472  10.944
 6064SOL    HW218645   2.889   3.347  11.005
 6065SOL     OW18646   3.707   3.364  10.909
 6065SOL    HW118647   3.729   3.392  10.821
 6065SOL    HW218648   3.787   3.377  10.960
 6066SOL     OW18649   2.215   2.778  11.121
 6066SOL    HW118650   2.298   2.797  11.164
 6066SOL    HW218651   2.238   2.717  11.051
 6067SOL     OW18652   3.392   2.135   9.437
 6067SOL    HW118653   3.326   2.070   9.463
 6067SOL    HW218654   3.424   2.171   9.520
 6068SOL     OW18655   3.153   2.688   9.341
 6068SOL    HW118656   3.196   2.602   9.345
 6068SOL    HW218657   3.185   2.727   9.260
 6069SOL     OW18658   2.927   3.198  10.164
 6069SOL    HW118659   2.931   3.125  10.102
 6069SOL    HW218660   2.989   3.262  10.129
 6070SOL     OW18661   2.172   2.673  10.257
 6070SOL    HW118662   2.264   2.695  10.248
 6070SOL    HW218663   2.172   2.586  10.296
 6071SOL     OW18664   2.188   2.364  10.320
 6071SOL    HW118665   2.147   2.291  10.273
 6071SOL    HW218666   2.268   2.382  10.271
 6072SOL     OW18667   2.996   2.238  10.991
 6072SOL    HW118668   2.949   2.293  11.054
 6072SOL    HW218669   3.084   2.276  10.988
 6073SOL     OW18670   3.022   2.065  10.780
 6073SOL    HW118671   3.012   2.127  10.851
 6073SOL    HW218672   3.063   2.115  10.709
 6074SOL     OW18673   1.867   3.183   9.505
 6074SOL    HW118674   1.780   3.197   9.468
 6074SOL    HW218675   1.864   3.093   9.539
 6075SOL     OW18676   1.957   3.644  10.247
 6075SOL    HW118677   1.927   3.565  10.203
 6075SOL    HW218678   2.043   3.661  10.209
 6076SOL     OW18679   2.358   3.437  10.216
 6076SOL    HW118680   2.426   3.500  10.240
 6076SOL    HW218681   2.403   3.374  10.160
 6077SOL     OW18682   2.844   2.653  10.536
 6077SOL    HW118683   2.902   2.631  10.610
 6077SOL    HW218684   2.759   2.618  10.562
 6078SOL     OW18685   1.900   2.396  10.427
 6078SOL    HW118686   1.985   2.400  10.383
 6078SOL    HW218687   1.921   2.410  10.520
 6079SOL     OW18688   2.067   2.382  11.041
 6079SOL    HW118689   2.117   2.350  10.966
 6079SOL    HW218690   2.003   2.442  11.004
 6080SOL     OW18691   3.240   2.801  10.969
 6080SOL    HW118692   3.261   2.894  10.967
 6080SOL    HW218693   3.237   2.775  10.877
 6081SOL     OW18694   2.678   2.431   9.673
 6081SOL    HW118695   2.684   2.357   9.612
 6081SOL    HW218696   2.604   2.483   9.640
 6082SOL     OW18697   3.503   2.464  10.496
 6082SOL    HW118698   3.492   2.403  10.569
 6082SOL    HW218699   3.589   2.442  10.459
 6083SOL     OW18700   2.106   3.412  11.037
 6083SOL    HW118701   2.083   3.478  11.102
 6083SOL    HW218702   2.107   3.330  11.085
 6084SOL     OW18703   2.560   2.312  10.570
 6084SOL    HW118704   2.508   2.237  10.538
 6084SOL    HW218705   2.558   2.375  10.498
 6085SOL     OW18706   2.791   3.535  10.778
 6085SOL    HW118707   2.764   3.499  10.693
 6085SOL    HW218708   2.783   3.630  10.767
 6086SOL     OW18709   2.327   2.356   9.494
 6086SOL    HW118710   2.384   2.429   9.518
 6086SOL    HW218711   2.240   2.396   9.484
 6087SOL     OW18712   2.008   3.003  10.783
 6087SOL    HW118713   2.010   2.951  10.863
 6087SOL    HW218714   2.025   2.940  10.713
 6088SOL     OW18715   3.186   2.908  10.533
 6088SOL    HW118716   3.210   2.845  10.465
 6088SOL    HW218717   3.117   2.961  10.494
 6089SOL     OW18718   3.173   2.718   9.616
 6089SOL    HW118719   3.097   2.688   9.666
 6089SOL    HW218720   3.148   2.705   9.525
 6090SOL     OW18721   3.636   3.606  10.462
 6090SOL    HW118722   3.694   3.631  10.391
 6090SOL    HW218723   3.610   3.516  10.440
 6091SOL     OW18724   3.105   3.596  10.422
 6091SOL    HW118725   3.188   3.616  10.378
 6091SOL    HW218726   3.110   3.502  10.441
 6092SOL     OW18727   1.946   3.129  10.322
 6092SOL    HW118728   1.932   3.142  10.416
 6092SOL    HW218729   1.873   3.074  10.294
 6093SOL     OW18730   2.540   3.525  11.039
 6093SOL    HW118731   2.485   3.604  11.043
 6093SOL    HW218732   2.600   3.542  10.966
 6094SOL     OW18733   3.575   2.009   9.823
 6094SOL    HW118734   3.643   1.997   9.757
 6094SOL    HW218735   3.563   1.923   9.862
 6095SOL     OW18736   3.252   3.430   9.795
 6095SOL    HW118737   3.312   3.463   9.728
 6095SOL    HW218738   3.204   3.508   9.825
 6096SOL     OW18739   1.994   3.654  11.149
 6096SOL    HW118740   1.943   3.590  11.198
 6096SOL    HW218741   2.044   3.700  11.216
 6097SOL     OW18742   3.139   2.787   9.981
 6097SOL    HW118743   3.213   2.727   9.989
 6097SOL    HW218744   3.173   2.860   9.929
 6098SOL     OW18745   2.676   3.135  10.740
 6098SOL    HW118746   2.648   3.174  10.822
 6098SOL    HW218747   2.606   3.158  10.678
 6099SOL     OW18748   2.537   3.478   9.467
 6099SOL    HW118749   2.545   3.494   9.373
 6099SOL    HW218750   2.479   3.402   9.473
 6100SOL     OW18751   3.484   3.588  10.700
 6100SOL    HW118752   3.538   3.593  10.621
 6100SOL    HW218753   3.472   3.679  10.726
 6101SOL     OW18754   3.699   2.043  10.278
 6101SOL    HW118755   3.730   1.956  10.252
 6101SOL    HW218756   3.613   2.051  10.237
 6102SOL     OW18757   3.069   3.468   9.345
 6102SOL    HW118758   3.059   3.376   9.369
 6102SOL    HW218759   3.008   3.480   9.272
 6103SOL     OW18760   2.686   2.868  10.682
 6103SOL    HW118761   2.730   2.864  10.597
 6103SOL    HW218762   2.685   2.961  10.705
 6104SOL     OW18763   2.778   2.772   9.600
 6104SOL    HW118764   2.839   2.805   9.534
 6104SOL    HW218765   2.826   2.703   9.645
 6105SOL     OW18766   3.352   3.491   9.352
 6105SOL    HW118767   3.258   3.480   9.336
 6105SOL    HW218768   3.390   3.496   9.264
 6106SOL     OW18769   2.231   3.165  10.801
 6106SOL    HW118770   2.217   3.242  10.747
 6106SOL    HW218771   2.154   3.110  10.786
 6107SOL     OW18772   3.465   3.142  10.589
 6107SOL    HW118773   3.533   3.135  10.656
 6107SOL    HW218774   3.408   3.212  10.619
 6108SOL     OW18775   2.915   2.969  10.017
 6108SOL    HW118776   2.844   2.918  10.055
 6108SOL    HW218777   2.977   2.904   9.986
 6109SOL     OW18778   2.882   2.102  10.276
 6109SOL    HW118779   2.878   2.054  10.194
 6109SOL    HW218780   2.878   2.034  10.344
 6110SOL     OW18781   2.465   3.352   9.790
 6110SOL    HW118782   2.509   3.301   9.722
 6110SOL    HW218783   2.398   3.401   9.743
 6111SOL     OW18784   3.585   2.252  10.689
 6111SOL    HW118785   3.656   2.316  10.685
 6111SOL    HW218786   3.613   2.180  10.633
 6112SOL     OW18787   2.121   3.207   9.599
 6112SOL    HW118788   2.028   3.204   9.576
 6112SOL    HW218789   2.124   3.244   9.687
 6113SOL     OW18790   1.974   2.884  11.029
 6113SOL    HW118791   1.898   2.861  11.082
 6113SOL    HW218792   2.049   2.846  11.077
 6114SOL     OW18793   2.537   2.060  10.809
 6114SOL    HW118794   2.621   2.038  10.769
 6114SOL    HW218795   2.559   2.089  10.897
 6115SOL     OW18796   3.290   2.721  10.710
 6115SOL    HW118797   3.241   2.782  10.656
 6115SOL    HW218798   3.379   2.722  10.674
 6116SOL     OW18799   3.040   3.201   9.427
 6116SOL    HW118800   2.950   3.171   9.429
 6116SOL    HW218801   3.068   3.200   9.519
 6117SOL     OW18802   2.481   2.692  10.743
 6117SOL    HW118803   2.537   2.769  10.728
 6117SOL    HW218804   2.543   2.620  10.751
 6118SOL     OW18805   3.347   3.642  10.291
 6118SOL    HW118806   3.372   3.693  10.214
 6118SOL    HW218807   3.430   3.614  10.329
 6119SOL     OW18808   2.578   2.424  11.013
 6119SOL    HW118809   2.619   2.487  11.073
 6119SOL    HW218810   2.606   2.338  11.046
 6120SOL     OW18811   3.333   3.062  10.942
 6120SOL    HW118812   3.323   3.076  11.036
 6120SOL    HW218813   3.427   3.076  10.926
 6121SOL     OW18814   2.240   3.601  10.873
 6121SOL    HW118815   2.154   3.642  10.858
 6121SOL    HW218816   2.220   3.517  10.915
 6122SOL     OW18817   3.528   2.743  10.568
 6122SOL    HW118818   3.526   2.657  10.525
 6122SOL    HW218819   3.522   2.806  10.497
 6123SOL     OW18820   3.079   2.181   9.768
 6123SOL    HW118821   3.142   2.110   9.759
 6123SOL    HW218822   3.108   2.230   9.845
 6124SOL     OW18823   2.449   2.599   9.981
 6124SOL    HW118824   2.491   2.684   9.966
 6124SOL    HW218825   2.383   2.592   9.913
 6125SOL     OW18826   3.623   2.227  10.959
 6125SOL    HW118827   3.606   2.239  10.866
 6125SOL    HW218828   3.554   2.168  10.989
 6126SOL     OW18829   3.616   2.792  10.823
 6126SOL    HW118830   3.609   2.886  10.840
 6126SOL    HW218831   3.593   2.782  10.731
 6127SOL     OW18832   2.725   3.230   9.345
 6127SOL    HW118833   2.685   3.258   9.427
 6127SOL    HW218834   2.742   3.311   9.298
 6128SOL     OW18835   2.522   3.653  10.253
 6128SOL    HW118836   2.500   3.743  10.230
 6128SOL    HW218837   2.617   3.649  10.246
 6129SOL     OW18838   2.729   2.829  10.165
 6129SOL    HW118839   2.780   2.758  10.204
 6129SOL    HW218840   2.695   2.878  10.240
 6130SOL     OW18841   2.941   2.850   9.399
 6130SOL    HW118842   2.919   2.901   9.320
 6130SOL    HW218843   3.016   2.797   9.373
 6131SOL     OW18844   3.715   3.417  10.151
 6131SOL    HW118845   3.636   3.398  10.100
 6131SOL    HW218846   3.716   3.351  10.220
 6132SOL     OW18847   2.087   3.165  11.166
 6132SOL    HW118848   2.020   3.104  11.136
 6132SOL    HW218849   2.069   3.177  11.259
 6133SOL     OW18850   1.946   3.095   9.975
 6133SOL    HW118851   1.952   3.047  10.057
 6133SOL    HW218852   2.014   3.056   9.920
 6134SOL     OW18853   2.544   3.265  10.938
 6134SOL    HW118854   2.464   3.222  10.969
 6134SOL    HW218855   2.540   3.353  10.975
 6135SOL     OW18856   3.676   2.042  10.549
 6135SOL    HW118857   3.669   1.947  10.554
 6135SOL    HW218858   3.689   2.061  10.456
 6136SOL     OW18859   2.294   2.294   9.834
 6136SOL    HW118860   2.323   2.232   9.767
 6136SOL    HW218861   2.244   2.240   9.896
 6137SOL     OW18862   3.560   3.353  10.408
 6137SOL    HW118863   3.480   3.327  10.361
 6137SOL    HW218864   3.574   3.282  10.471
 6138SOL     OW18865   2.192   2.417  10.598
 6138SOL    HW118866   2.237   2.356  10.657
 6138SOL    HW218867   2.210   2.382  10.511
 6139SOL     OW18868   2.689   3.441   9.987
 6139SOL    HW118869   2.676   3.489   9.906
 6139SOL    HW218870   2.613   3.382   9.993
 6140SOL     OW18871   3.294   2.088  10.428
 6140SOL    HW118872   3.317   2.007  10.472
 6140SOL    HW218873   3.242   2.137  10.492
 6141SOL     OW18874   2.871   1.880  10.452
 6141SOL    HW118875   2.817   1.812  10.412
 6141SOL    HW218876   2.959   1.843  10.454
 6142SOL     OW18877   2.634   3.194   9.626
 6142SOL    HW118878   2.602   3.104   9.632
 6142SOL    HW218879   2.717   3.194   9.674
 6143SOL     OW18880   2.482   3.417  10.594
 6143SOL    HW118881   2.483   3.498  10.645
 6143SOL    HW218882   2.569   3.410  10.557
 6144SOL     OW18883   3.215   1.916   9.475
 6144SOL    HW118884   3.244   1.850   9.412
 6144SOL    HW218885   3.127   1.887   9.501
 6145SOL     OW18886   3.158   2.323   9.991
 6145SOL    HW118887   3.105   2.403   9.998
 6145SOL    HW218888   3.154   2.284  10.078
 6146SOL     OW18889   3.445   2.063  10.187
 6146SOL    HW118890   3.387   2.085  10.259
 6146SOL    HW218891   3.446   2.141  10.132
 6147SOL     OW18892   1.905   2.932   9.617
 6147SOL    HW118893   1.999   2.924   9.599
 6147SOL    HW218894   1.877   2.844   9.639
 6148SOL     OW18895   2.746   3.518   9.654
 6148SOL    HW118896   2.676   3.498   9.593
 6148SOL    HW218897   2.715   3.594   9.703
 6149SOL     OW18898   2.088   2.478  11.298
 6149SOL    HW118899   1.997   2.485  11.327
 6149SOL    HW218900   2.081   2.450  11.206
 6150SOL     OW18901   1.855   2.285  11.796
 6150SOL    HW118902   1.771   2.287  11.841
 6150SOL    HW218903   1.851   2.206  11.742
 6151SOL     OW18904   2.429   3.150  12.347
 6151SOL    HW118905   2.341   3.154  12.309
 6151SOL    HW218906   2.444   3.238  12.381
 6152SOL     OW18907   3.423   3.374  11.880
 6152SOL    HW118908   3.380   3.352  11.963
 6152SOL    HW218909   3.351   3.377  11.816
 6153SOL     OW18910   2.991   2.561  11.872
 6153SOL    HW118911   3.041   2.641  11.858
 6153SOL    HW218912   2.945   2.575  11.955
 6154SOL     OW18913   3.628   2.469  11.402
 6154SOL    HW118914   3.608   2.461  11.309
 6154SOL    HW218915   3.593   2.389  11.441
 6155SOL     OW18916   2.616   3.004  12.213
 6155SOL    HW118917   2.548   3.039  12.270
 6155SOL    HW218918   2.652   3.081  12.169
 6156SOL     OW18919   2.728   2.635  12.993
 6156SOL    HW118920   2.716   2.707  13.056
 6156SOL    HW218921   2.752   2.679  12.912
 6157SOL     OW18922   2.548   2.863  11.819
 6157SOL    HW118923   2.613   2.853  11.888
 6157SOL    HW218924   2.479   2.916  11.859
 6158SOL     OW18925   2.573   3.013  12.984
 6158SOL    HW118926   2.620   3.091  13.012
 6158SOL    HW218927   2.490   3.046  12.949
 6159SOL     OW18928   2.193   3.286  12.239
 6159SOL    HW118929   2.120   3.250  12.190
 6159SOL    HW218930   2.242   3.338  12.175
 6160SOL     OW18931   3.322   3.362  12.526
 6160SOL    HW118932   3.374   3.442  12.537
 6160SOL    HW218933   3.259   3.364  12.599
 6161SOL     OW18934   2.293   2.239  12.643
 6161SOL    HW118935   2.383   2.211  12.659
 6161SOL    HW218936   2.239   2.169  12.680
 6162SOL     OW18937   3.473   2.310  11.914
 6162SOL    HW118938   3.400   2.333  11.858
 6162SOL    HW218939   3.490   2.388  11.967
 6163SOL     OW18940   2.083   3.578  11.651
 6163SOL    HW118941   2.116   3.638  11.718
 6163SOL    HW218942   2.153   3.574  11.586
 6164SOL     OW18943   2.998   3.203  12.865
 6164SOL    HW118944   3.039   3.198  12.951
 6164SOL    HW218945   2.946   3.124  12.858
 6165SOL     OW18946   2.091   3.304  11.707
 6165SOL    HW118947   2.073   3.397  11.713
 6165SOL    HW218948   2.032   3.264  11.771
 6166SOL     OW18949   2.120   2.953  12.063
 6166SOL    HW118950   2.116   2.867  12.104
 6166SOL    HW218951   2.062   3.008  12.116
 6167SOL     OW18952   2.473   3.649  12.601
 6167SOL    HW118953   2.391   3.633  12.648
 6167SOL    HW218954   2.499   3.738  12.626
 6168SOL     OW18955   2.448   2.844  11.306
 6168SOL    HW118956   2.494   2.893  11.238
 6168SOL    HW218957   2.487   2.875  11.388
 6169SOL     OW18958   3.458   1.986  12.639
 6169SOL    HW118959   3.464   2.068  12.590
 6169SOL    HW218960   3.445   2.014  12.730
 6170SOL     OW18961   1.982   2.520  11.732
 6170SOL    HW118962   1.944   2.435  11.750
 6170SOL    HW218963   1.971   2.569  11.814
 6171SOL     OW18964   3.700   3.615  11.513
 6171SOL    HW118965   3.769   3.590  11.574
 6171SOL    HW218966   3.721   3.705  11.489
 6172SOL     OW18967   1.890   3.455  11.295
 6172SOL    HW118968   1.875   3.363  11.316
 6172SOL    HW218969   1.870   3.502  11.375
 6173SOL     OW18970   3.550   2.781  11.815
 6173SOL    HW118971   3.634   2.739  11.798
 6173SOL    HW218972   3.531   2.830  11.735
 6174SOL     OW18973   3.503   2.968  11.603
 6174SOL    HW118974   3.588   2.974  11.559
 6174SOL    HW218975   3.510   3.030  11.676
 6175SOL     OW18976   1.982   2.604  12.756
 6175SOL    HW118977   2.074   2.626  12.770
 6175SOL    HW218978   1.935   2.687  12.767
 6176SOL     OW18979   2.476   3.249  11.907
 6176SOL    HW118980   2.430   3.165  11.916
 6176SOL    HW218981   2.459   3.275  11.816
 6177SOL     OW18982   3.150   3.100  12.595
 6177SOL    HW118983   3.183   3.033  12.535
 6177SOL    HW218984   3.208   3.094  12.671
 6178SOL     OW18985   2.674   1.863  11.680
 6178SOL    HW118986   2.714   1.948  11.661
 6178SOL    HW218987   2.581   1.882  11.688
 6179SOL     OW18988   2.053   2.830  12.443
 6179SOL    HW118989   2.137   2.786  12.428
 6179SOL    HW218990   1.989   2.773  12.400
 6180SOL     OW18991   3.391   2.856  11.371
 6180SOL    HW118992   3.321   2.799  11.404
 6180SOL    HW218993   3.432   2.891  11.450
 6181SOL     OW18994   3.075   3.665  12.798
 6181SOL    HW118995   3.056   3.724  12.725
 6181SOL    HW218996   3.077   3.578  12.757
 6182SOL     OW18997   2.260   2.164  12.974
 6182SOL    HW118998   2.307   2.230  13.026
 6182SOL    HW218999   2.168   2.186  12.984
 6183SOL     OW19000   3.327   3.282  12.122
 6183SOL    HW119001   3.260   3.297  12.189
 6183SOL    HW219002   3.316   3.191  12.097
 6184SOL     OW19003   3.513   3.603  11.752
 6184SOL    HW119004   3.502   3.570  11.663
 6184SOL    HW219005   3.494   3.528  11.808
 6185SOL     OW19006   2.457   2.583  11.438
 6185SOL    HW119007   2.464   2.664  11.388
 6185SOL    HW219008   2.392   2.602  11.506
 6186SOL     OW19009   3.140   2.216  12.105
 6186SOL    HW119010   3.051   2.181  12.113
 6186SOL    HW219011   3.192   2.163  12.165
 6187SOL     OW19012   3.437   3.537  11.480
 6187SOL    HW119013   3.529   3.563  11.476
 6187SOL    HW219014   3.414   3.516  11.389
 6188SOL     OW19015   2.654   2.480  12.622
 6188SOL    HW119016   2.629   2.456  12.711
 6188SOL    HW219017   2.614   2.412  12.567
 6189SOL     OW19018   3.256   2.336  12.850
 6189SOL    HW119019   3.258   2.380  12.935
 6189SOL    HW219020   3.316   2.262  12.860
 6190SOL     OW19021   2.816   2.749  12.755
 6190SOL    HW119022   2.871   2.679  12.719
 6190SOL    HW219023   2.769   2.784  12.679
 6191SOL     OW19024   2.855   2.275  12.410
 6191SOL    HW119025   2.770   2.296  12.448
 6191SOL    HW219026   2.835   2.228  12.329
 6192SOL     OW19027   2.913   2.561  11.598
 6192SOL    HW119028   2.929   2.554  11.692
 6192SOL    HW219029   2.831   2.514  11.584
 6193SOL     OW19030   1.950   2.684  11.949
 6193SOL    HW119031   2.032   2.679  11.999
 6193SOL    HW219032   1.906   2.762  11.984
 6194SOL     OW19033   1.986   3.702  12.748
 6194SOL    HW119034   1.986   3.683  12.842
 6194SOL    HW219035   1.893   3.707  12.725
 6195SOL     OW19036   2.756   2.213  11.369
 6195SOL    HW119037   2.798   2.271  11.306
 6195SOL    HW219038   2.758   2.127  11.327
 6196SOL     OW19039   3.573   2.438  13.000
 6196SOL    HW119040   3.534   2.512  12.953
 6196SOL    HW219041   3.596   2.375  12.932
 6197SOL     OW19042   3.238   3.004  11.713
 6197SOL    HW119043   3.317   2.991  11.662
 6197SOL    HW219044   3.186   3.066  11.662
 6198SOL     OW19045   2.410   2.054  12.063
 6198SOL    HW119046   2.408   2.072  12.157
 6198SOL    HW219047   2.429   2.138  12.022
 6199SOL     OW19048   2.868   3.307  11.644
 6199SOL    HW119049   2.829   3.380  11.595
 6199SOL    HW219050   2.849   3.327  11.736
 6200SOL     OW19051   2.213   3.671  12.012
 6200SOL    HW119052   2.263   3.591  12.031
 6200SOL    HW219053   2.273   3.743  12.033
 6201SOL     OW19054   3.666   2.923  12.038
 6201SOL    HW119055   3.611   2.900  11.963
 6201SOL    HW219056   3.605   2.927  12.112
 6202SOL     OW19057   3.090   3.399  12.684
 6202SOL    HW119058   3.076   3.327  12.745
 6202SOL    HW219059   3.024   3.385  12.615
 6203SOL     OW19060   2.182   2.820  11.423
 6203SOL    HW119061   2.264   2.839  11.377
 6203SOL    HW219062   2.151   2.739  11.383
 6204SOL     OW19063   3.340   2.605  11.899
 6204SOL    HW119064   3.332   2.562  11.984
 6204SOL    HW219065   3.418   2.660  11.907
 6205SOL     OW19066   2.328   3.126  12.909
 6205SOL    HW119067   2.301   3.131  12.817
 6205SOL    HW219068   2.246   3.125  12.959
 6206SOL     OW19069   2.975   3.643  11.395
 6206SOL    HW119070   2.913   3.596  11.450
 6206SOL    HW219071   3.005   3.578  11.331
 6207SOL     OW19072   3.488   3.245  11.261
 6207SOL    HW119073   3.445   3.329  11.243
 6207SOL    HW219074   3.421   3.180  11.241
 6208SOL     OW19075   2.330   3.596  11.497
 6208SOL    HW119076   2.367   3.661  11.556
 6208SOL    HW219077   2.403   3.572  11.440
 6209SOL     OW19078   3.263   1.970  11.605
 6209SOL    HW119079   3.254   1.944  11.513
 6209SOL    HW219080   3.357   1.975  11.620
 6210SOL     OW19081   2.121   3.654  12.398
 6210SOL    HW119082   2.169   3.587  12.446
 6210SOL    HW219083   2.107   3.618  12.311
 6211SOL     OW19084   2.800   3.562  12.073
 6211SOL    HW119085   2.877   3.509  12.094
 6211SOL    HW219086   2.755   3.512  12.004
 6212SOL     OW19087   2.255   2.557  11.648
 6212SOL    HW119088   2.275   2.464  11.659
 6212SOL    HW219089   2.161   2.564  11.666
 6213SOL     OW19090   3.397   2.087  12.898
 6213SOL    HW119091   3.406   2.108  12.991
 6213SOL    HW219092   3.329   2.020  12.895
 6214SOL     OW19093   2.509   1.985  11.282
 6214SOL    HW119094   2.572   1.914  11.294
 6214SOL    HW219095   2.451   1.955  11.212
 6215SOL     OW19096   2.628   2.140  12.927
 6215SOL    HW119097   2.704   2.082  12.927
 6215SOL    HW219098   2.578   2.113  13.004
 6216SOL     OW19099   2.738   3.382  12.366
 6216SOL    HW119100   2.722   3.347  12.279
 6216SOL    HW219101   2.808   3.328  12.402
 6217SOL     OW19102   3.203   2.451  12.604
 6217SOL    HW119103   3.234   2.420  12.689
 6217SOL    HW219104   3.239   2.539  12.597
 6218SOL     OW19105   2.677   3.257  12.112
 6218SOL    HW119106   2.761   3.245  12.068
 6218SOL    HW219107   2.613   3.258  12.041
 6219SOL     OW19108   2.789   2.370  12.075
 6219SOL    HW119109   2.766   2.362  11.983
 6219SOL    HW219110   2.822   2.284  12.099
 6220SOL     OW19111   2.407   1.927  11.677
 6220SOL    HW119112   2.345   1.940  11.749
 6220SOL    HW219113   2.394   2.004  11.621
 6221SOL     OW19114   3.290   3.061  11.213
 6221SOL    HW119115   3.321   2.985  11.263
 6221SOL    HW219116   3.204   3.081  11.250
 6222SOL     OW19117   2.800   2.110  11.632
 6222SOL    HW119118   2.775   2.149  11.549
 6222SOL    HW219119   2.895   2.122  11.637
 6223SOL     OW19120   2.943   2.543  12.631
 6223SOL    HW119121   2.875   2.476  12.637
 6223SOL    HW219122   3.025   2.494  12.625
 6224SOL     OW19123   3.084   3.432  11.966
 6224SOL    HW119124   3.101   3.500  11.900
 6224SOL    HW219125   3.153   3.443  12.031
 6225SOL     OW19126   2.331   3.012  11.905
 6225SOL    HW119127   2.262   2.993  11.968
 6225SOL    HW219128   2.291   2.996  11.820
 6226SOL     OW19129   3.130   3.658  11.778
 6226SOL    HW119130   3.175   3.722  11.724
 6226SOL    HW219131   3.059   3.707  11.820
 6227SOL     OW19132   2.886   2.404  11.194
 6227SOL    HW119133   2.843   2.487  11.175
 6227SOL    HW219134   2.951   2.425  11.261
 6228SOL     OW19135   1.937   2.423  12.558
 6228SOL    HW119136   2.031   2.419  12.536
 6228SOL    HW219137   1.932   2.488  12.628
 6229SOL     OW19138   2.412   2.083  12.340
 6229SOL    HW119139   2.461   2.006  12.369
 6229SOL    HW219140   2.330   2.079  12.389
 6230SOL     OW19141   2.726   2.319  11.812
 6230SOL    HW119142   2.685   2.376  11.746
 6230SOL    HW219143   2.751   2.240  11.764
 6231SOL     OW19144   2.875   1.917  11.924
 6231SOL    HW119145   2.820   1.907  11.847
 6231SOL    HW219146   2.854   1.840  11.978
 6232SOL     OW19147   3.300   3.025  12.029
 6232SOL    HW119148   3.230   2.959  12.028
 6232SOL    HW219149   3.324   3.035  11.937
 6233SOL     OW19150   3.327   2.468  12.149
 6233SOL    HW119151   3.278   2.387  12.151
 6233SOL    HW219152   3.387   2.462  12.223
 6234SOL     OW19153   3.723   2.680  11.547
 6234SOL    HW119154   3.767   2.624  11.611
 6234SOL    HW219155   3.686   2.619  11.483
 6235SOL     OW19156   2.353   3.279  11.328
 6235SOL    HW119157   2.278   3.251  11.380
 6235SOL    HW219158   2.337   3.241  11.242
 6236SOL     OW19159   3.528   3.127  11.818
 6236SOL    HW119160   3.623   3.130  11.827
 6236SOL    HW219161   3.499   3.216  11.839
 6237SOL     OW19162   3.256   2.433  11.244
 6237SOL    HW119163   3.194   2.414  11.314
 6237SOL    HW219164   3.340   2.401  11.276
 6238SOL     OW19165   2.386   2.127  11.491
 6238SOL    HW119166   2.430   2.074  11.424
 6238SOL    HW219167   2.364   2.209  11.446
 6239SOL     OW19168   3.614   3.097  12.742
 6239SOL    HW119169   3.701   3.061  12.725
 6239SOL    HW219170   3.630   3.186  12.773
 6240SOL     OW19171   2.920   3.215  12.505
 6240SOL    HW119172   2.845   3.184  12.556
 6240SOL    HW219173   2.996   3.174  12.546
 6241SOL     OW19174   3.468   3.490  12.827
 6241SOL    HW119175   3.460   3.523  12.737
 6241SOL    HW219176   3.550   3.440  12.827
 6242SOL     OW19177   2.991   3.066  12.277
 6242SOL    HW119178   2.933   3.104  12.342
 6242SOL    HW219179   2.958   3.098  12.193
 6243SOL     OW19180   3.493   2.960  12.248
 6243SOL    HW119181   3.485   3.021  12.321
 6243SOL    HW219182   3.414   2.975  12.196
 6244SOL     OW19183   2.780   1.960  12.568
 6244SOL    HW119184   2.803   1.940  12.477
 6244SOL    HW219185   2.859   1.998  12.605
 6245SOL     OW19186   2.846   2.977  12.895
 6245SOL    HW119187   2.754   2.993  12.916
 6245SOL    HW219188   2.844   2.899  12.839
 6246SOL     OW19189   2.571   2.923  11.543
 6246SOL    HW119190   2.557   2.906  11.636
 6246SOL    HW219191   2.647   2.870  11.520
 6247SOL     OW19192   2.280   2.675  12.423
 6247SOL    HW119193   2.348   2.687  12.489
 6247SOL    HW219194   2.245   2.588  12.439
 6248SOL     OW19195   3.128   2.239  12.448
 6248SOL    HW119196   3.160   2.316  12.494
 6248SOL    HW219197   3.037   2.261  12.425
 6249SOL     OW19198   1.933   3.435  12.524
 6249SOL    HW119199   1.904   3.510  12.472
 6249SOL    HW219200   2.028   3.438  12.520
 6250SOL     OW19201   2.210   2.972  11.662
 6250SOL    HW119202   2.215   3.045  11.601
 6250SOL    HW219203   2.208   2.894  11.606
 6251SOL     OW19204   2.410   2.398  12.033
 6251SOL    HW119205   2.425   2.456  11.959
 6251SOL    HW219206   2.476   2.425  12.098
 6252SOL     OW19207   3.110   3.210  11.561
 6252SOL    HW119208   3.166   3.282  11.592
 6252SOL    HW219209   3.023   3.232  11.595
 6253SOL     OW19210   3.143   3.321  12.319
 6253SOL    HW119211   3.199   3.323  12.397
 6253SOL    HW219212   3.088   3.243  12.332
 6254SOL     OW19213   3.442   2.484  11.652
 6254SOL    HW119214   3.396   2.538  11.716
 6254SOL    HW219215   3.485   2.547  11.594
 6255SOL     OW19216   2.208   3.390  12.486
 6255SOL    HW119217   2.196   3.346  12.402
 6255SOL    HW219218   2.303   3.401  12.494
 6256SOL     OW19219   2.276   2.609  12.774
 6256SOL    HW119220   2.339   2.652  12.716
 6256SOL    HW219221   2.317   2.526  12.797
 6257SOL     OW19222   3.464   2.640  12.853
 6257SOL    HW119223   3.378   2.682  12.847
 6257SOL    HW219224   3.516   2.683  12.785
 6258SOL     OW19225   2.857   1.986  12.924
 6258SOL    HW119226   2.914   2.058  12.899
 6258SOL    HW219227   2.906   1.907  12.901
 6259SOL     OW19228   2.371   1.906  12.922
 6259SOL    HW119229   2.316   1.854  12.864
 6259SOL    HW219230   2.327   1.991  12.928
 6260SOL     OW19231   2.446   2.734  12.204
 6260SOL    HW119232   2.477   2.825  12.202
 6260SOL    HW219233   2.389   2.730  12.281
 6261SOL     OW19234   3.219   2.721  12.201
 6261SOL    HW119235   3.136   2.711  12.154
 6261SOL    HW219236   3.261   2.635  12.196
 6262SOL     OW19237   3.066   2.391  11.438
 6262SOL    HW119238   3.074   2.312  11.492
 6262SOL    HW219239   3.024   2.455  11.495
 6263SOL     OW19240   1.908   3.173  12.448
 6263SOL    HW119241   1.941   3.118  12.520
 6263SOL    HW219242   1.915   3.262  12.481
 6264SOL     OW19243   2.583   2.490  12.228
 6264SOL    HW119244   2.660   2.475  12.173
 6264SOL    HW219245   2.557   2.581  12.209
 6265SOL     OW19246   3.594   2.820  13.031
 6265SOL    HW119247   3.551   2.760  12.970
 6265SOL    HW219248   3.530   2.833  13.101
 6266SOL     OW19249   3.479   2.237  11.538
 6266SOL    HW119250   3.507   2.172  11.604
 6266SOL    HW219251   3.456   2.314  11.589
 6267SOL     OW19252   2.889   2.621  12.132
 6267SOL    HW119253   2.886   2.638  12.226
 6267SOL    HW219254   2.863   2.529  12.124
 6268SOL     OW19255   2.847   3.430  12.890
 6268SOL    HW119256   2.829   3.472  12.806
 6268SOL    HW219257   2.889   3.347  12.868
 6269SOL     OW19258   3.707   3.364  12.771
 6269SOL    HW119259   3.729   3.392  12.683
 6269SOL    HW219260   3.787   3.377  12.822
 6270SOL     OW19261   2.215   2.778  12.982
 6270SOL    HW119262   2.298   2.797  13.026
 6270SOL    HW219263   2.238   2.717  12.913
 6271SOL     OW19264   3.392   2.135  11.299
 6271SOL    HW119265   3.326   2.070  11.325
 6271SOL    HW219266   3.424   2.171  11.382
 6272SOL     OW19267   3.153   2.688  11.203
 6272SOL    HW119268   3.196   2.602  11.207
 6272SOL    HW219269   3.185   2.727  11.122
 6273SOL     OW19270   2.927   3.198  12.026
 6273SOL    HW119271   2.931   3.125  11.963
 6273SOL    HW219272   2.989   3.262  11.991
 6274SOL     OW19273   2.172   2.672  12.119
 6274SOL    HW119274   2.264   2.695  12.110
 6274SOL    HW219275   2.172   2.586  12.159
 6275SOL     OW19276   2.188   2.365  12.182
 6275SOL    HW119277   2.147   2.292  12.135
 6275SOL    HW219278   2.268   2.383  12.133
 6276SOL     OW19279   2.996   2.238  12.853
 6276SOL    HW119280   2.948   2.292  12.916
 6276SOL    HW219281   3.084   2.276  12.850
 6277SOL     OW19282   3.022   2.065  12.642
 6277SOL    HW119283   3.012   2.127  12.713
 6277SOL    HW219284   3.063   2.115  12.571
 6278SOL     OW19285   1.867   3.183  11.367
 6278SOL    HW119286   1.780   3.197  11.330
 6278SOL    HW219287   1.864   3.093  11.401
 6279SOL     OW19288   1.957   3.644  12.109
 6279SOL    HW119289   1.927   3.565  12.065
 6279SOL    HW219290   2.043   3.661  12.071
 6280SOL     OW19291   2.358   3.437  12.078
 6280SOL    HW119292   2.426   3.500  12.102
 6280SOL    HW219293   2.403   3.374  12.022
 6281SOL     OW19294   2.844   2.653  12.398
 6281SOL    HW119295   2.902   2.631  12.471
 6281SOL    HW219296   2.759   2.618  12.424
 6282SOL     OW19297   1.901   2.396  12.289
 6282SOL    HW119298   1.985   2.400  12.245
 6282SOL    HW219299   1.921   2.409  12.382
 6283SOL     OW19300   2.065   2.381  12.903
 6283SOL    HW119301   2.117   2.352  12.828
 6283SOL    HW219302   2.002   2.442  12.867
 6284SOL     OW19303   3.240   2.801  12.831
 6284SOL    HW119304   3.261   2.894  12.829
 6284SOL    HW219305   3.237   2.775  12.738
 6285SOL     OW19306   2.678   2.431  11.535
 6285SOL    HW119307   2.684   2.357  11.474
 6285SOL    HW219308   2.604   2.483  11.501
 6286SOL     OW19309   3.503   2.464  12.358
 6286SOL    HW119310   3.492   2.403  12.431
 6286SOL    HW219311   3.589   2.442  12.321
 6287SOL     OW19312   2.106   3.412  12.899
 6287SOL    HW119313   2.083   3.478  12.964
 6287SOL    HW219314   2.107   3.330  12.947
 6288SOL     OW19315   2.560   2.311  12.432
 6288SOL    HW119316   2.508   2.238  12.401
 6288SOL    HW219317   2.558   2.375  12.360
 6289SOL     OW19318   2.791   3.535  12.640
 6289SOL    HW119319   2.764   3.499  12.555
 6289SOL    HW219320   2.783   3.630  12.629
 6290SOL     OW19321   2.326   2.355  11.353
 6290SOL    HW119322   2.384   2.427  11.378
 6290SOL    HW219323   2.240   2.395  11.345
 6291SOL     OW19324   2.008   3.003  12.645
 6291SOL    HW119325   2.010   2.951  12.725
 6291SOL    HW219326   2.025   2.939  12.575
 6292SOL     OW19327   3.187   2.908  12.395
 6292SOL    HW119328   3.210   2.845  12.327
 6292SOL    HW219329   3.117   2.961  12.356
 6293SOL     OW19330   3.173   2.718  11.478
 6293SOL    HW119331   3.098   2.688  11.528
 6293SOL    HW219332   3.148   2.705  11.387
 6294SOL     OW19333   3.636   3.606  12.324
 6294SOL    HW119334   3.694   3.631  12.253
 6294SOL    HW219335   3.610   3.516  12.302
 6295SOL     OW19336   3.105   3.596  12.284
 6295SOL    HW119337   3.188   3.616  12.240
 6295SOL    HW219338   3.110   3.502  12.303
 6296SOL     OW19339   1.946   3.129  12.184
 6296SOL    HW119340   1.932   3.142  12.278
 6296SOL    HW219341   1.873   3.074  12.156
 6297SOL     OW19342   2.540   3.525  12.901
 6297SOL    HW119343   2.485   3.604  12.905
 6297SOL    HW219344   2.601   3.542  12.828
 6298SOL     OW19345   3.574   2.009  11.685
 6298SOL    HW119346   3.643   1.997  11.619
 6298SOL    HW219347   3.563   1.923  11.724
 6299SOL     OW19348   3.252   3.430  11.657
 6299SOL    HW119349   3.312   3.463  11.590
 6299SOL    HW219350   3.204   3.508  11.687
 6300SOL     OW19351   1.994   3.654  13.011
 6300SOL    HW119352   1.942   3.590  13.060
 6300SOL    HW219353   2.044   3.700  13.078
 6301SOL     OW19354   3.139   2.787  11.843
 6301SOL    HW119355   3.213   2.727  11.851
 6301SOL    HW219356   3.173   2.860  11.791
 6302SOL     OW19357   2.676   3.135  12.602
 6302SOL    HW119358   2.648   3.174  12.684
 6302SOL    HW219359   2.606   3.158  12.540
 6303SOL     OW19360   2.537   3.478  11.329
 6303SOL    HW119361   2.545   3.494  11.235
 6303SOL    HW219362   2.479   3.402  11.335
 6304SOL     OW19363   3.484   3.588  12.562
 6304SOL    HW119364   3.538   3.593  12.483
 6304SOL    HW219365   3.473   3.679  12.588
 6305SOL     OW19366   3.699   2.043  12.140
 6305SOL    HW119367   3.730   1.956  12.114
 6305SOL    HW219368   3.613   2.051  12.099
 6306SOL     OW19369   3.069   3.468  11.207
 6306SOL    HW119370   3.059   3.376  11.231
 6306SOL    HW219371   3.008   3.480  11.134
 6307SOL     OW19372   2.686   2.868  12.544
 6307SOL    HW119373   2.730   2.865  12.459
 6307SOL    HW219374   2.685   2.961  12.567
 6308SOL     OW19375   2.778   2.772  11.462
 6308SOL    HW119376   2.839   2.805  11.395
 6308SOL    HW219377   2.826   2.703  11.507
 6309SOL     OW19378   3.352   3.491  11.214
 6309SOL    HW119379   3.258   3.480  11.198
 6309SOL    HW219380   3.390   3.496  11.126
 6310SOL     OW19381   2.231   3.164  12.663
 6310SOL    HW119382   2.217   3.242  12.609
 6310SOL    HW219383   2.154   3.110  12.648
 6311SOL     OW19384   3.465   3.142  12.451
 6311SOL    HW119385   3.533   3.135  12.518
 6311SOL    HW219386   3.408   3.212  12.481
 6312SOL     OW19387   2.915   2.969  11.879
 6312SOL    HW119388   2.844   2.918  11.917
 6312SOL    HW219389   2.977   2.904  11.848
 6313SOL     OW19390   2.882   2.102  12.138
 6313SOL    HW119391   2.878   2.054  12.055
 6313SOL    HW219392   2.878   2.034  12.205
 6314SOL     OW19393   2.465   3.352  11.652
 6314SOL    HW119394   2.509   3.301  11.584
 6314SOL    HW219395   2.398   3.401  11.606
 6315SOL     OW19396   3.585   2.252  12.551
 6315SOL    HW119397   3.656   2.316  12.547
 6315SOL    HW219398   3.614   2.180  12.495
 6316SOL     OW19399   2.121   3.207  11.461
 6316SOL    HW119400   2.028   3.204  11.438
 6316SOL    HW219401   2.124   3.244  11.549
 6317SOL     OW19402   1.974   2.884  12.891
 6317SOL    HW119403   1.898   2.861  12.944
 6317SOL    HW219404   2.048   2.846  12.939
 6318SOL     OW19405   2.537   2.060  12.671
 6318SOL    HW119406   2.621   2.038  12.631
 6318SOL    HW219407   2.559   2.089  12.759
 6319SOL     OW19408   3.290   2.721  12.572
 6319SOL    HW119409   3.241   2.782  12.518
 6319SOL    HW219410   3.379   2.722  12.536
 6320SOL     OW19411   3.040   3.201  11.289
 6320SOL    HW119412   2.950   3.171  11.291
 6320SOL    HW219413   3.068   3.200  11.381
 6321SOL     OW19414   2.481   2.692  12.605
 6321SOL    HW119415   2.537   2.769  12.590
 6321SOL    HW219416   2.543   2.620  12.613
 6322SOL     OW19417   3.347   3.642  12.153
 6322SOL    HW119418   3.372   3.693  12.076
 6322SOL    HW219419   3.430   3.614  12.191
 6323SOL     OW19420   2.579   2.424  12.875
 6323SOL    HW119421   2.619   2.486  12.935
 6323SOL    HW219422   2.605   2.338  12.908
 6324SOL     OW19423   3.333   3.062  12.804
 6324SOL    HW119424   3.322   3.075  12.898
 6324SOL    HW219425   3.427   3.076  12.788
 6325SOL     OW19426   2.240   3.601  12.735
 6325SOL    HW119427   2.154   3.642  12.721
 6325SOL    HW219428   2.220   3.517  12.777
 6326SOL     OW19429   3.528   2.743  12.431
 6326SOL    HW119430   3.526   2.657  12.387
 6326SOL    HW219431   3.522   2.806  12.359
 6327SOL     OW19432   3.079   2.181  11.630
 6327SOL    HW119433   3.142   2.110  11.621
 6327SOL    HW219434   3.108   2.230  11.707
 6328SOL     OW19435   2.449   2.599  11.843
 6328SOL    HW119436   2.491   2.684  11.828
 6328SOL    HW219437   2.383   2.592  11.774
 6329SOL     OW19438   3.623   2.227  12.822
 6329SOL    HW119439   3.606   2.239  12.728
 6329SOL    HW219440   3.553   2.168  12.851
 6330SOL     OW19441   3.616   2.792  12.686
 6330SOL    HW119442   3.609   2.886  12.702
 6330SOL    HW219443   3.593   2.782  12.593
 6331SOL     OW19444   2.725   3.230  11.207
 6331SOL    HW119445   2.685   3.257  11.289
 6331SOL    HW219446   2.742   3.311  11.160
 6332SOL     OW19447   2.522   3.653  12.115
 6332SOL    HW119448   2.500   3.743  12.092
 6332SOL    HW219449   2.617   3.649  12.109
 6333SOL     OW19450   2.729   2.829  12.027
 6333SOL    HW119451   2.780   2.758  12.066
 6333SOL    HW219452   2.695   2.878  12.102
 6334SOL     OW19453   2.941   2.850  11.261
 6334SOL    HW119454   2.919   2.901  11.182
 6334SOL    HW219455   3.016   2.797  11.235
 6335SOL     OW19456   3.715   3.417  12.013
 6335SOL    HW119457   3.636   3.398  11.962
 6335SOL    HW219458   3.716   3.351  12.082
 6336SOL     OW19459   2.087   3.164  13.028
 6336SOL    HW119460   2.020   3.104  12.998
 6336SOL    HW219461   2.068   3.177  13.121
 6337SOL     OW19462   1.946   3.095  11.837
 6337SOL    HW119463   1.952   3.047  11.920
 6337SOL    HW219464   2.014   3.056  11.782
 6338SOL     OW19465   2.543   3.265  12.800
 6338SOL    HW119466   2.464   3.222  12.831
 6338SOL    HW219467   2.540   3.353  12.837
 6339SOL     OW19468   3.676   2.042  12.411
 6339SOL    HW119469   3.669   1.947  12.416
 6339SOL    HW219470   3.689   2.061  12.318
 6340SOL     OW19471   2.293   2.294  11.696
 6340SOL    HW119472   2.323   2.232  11.630
 6340SOL    HW219473   2.248   2.241  11.761
 6341SOL     OW19474   3.560   3.353  12.270
 6341SOL    HW119475   3.480   3.327  12.223
 6341SOL    HW219476   3.574   3.282  12.334
 6342SOL     OW19477   2.192   2.416  12.460
 6342SOL    HW119478   2.237   2.356  12.519
 6342SOL    HW219479   2.209   2.382  12.373
 6343SOL     OW19480   2.689   3.440  11.849
 6343SOL    HW119481   2.675   3.489  11.768
 6343SOL    HW219482   2.613   3.382  11.855
 6344SOL     OW19483   3.294   2.088  12.290
 6344SOL    HW119484   3.317   2.007  12.334
 6344SOL    HW219485   3.242   2.137  12.354
 6345SOL     OW19486   2.871   1.880  12.314
 6345SOL    HW119487   2.817   1.812  12.274
 6345SOL    HW219488   2.959   1.843  12.316
 6346SOL     OW19489   2.634   3.194  11.488
 6346SOL    HW119490   2.602   3.104  11.494
 6346SOL    HW219491   2.717   3.194  11.536
 6347SOL     OW19492   2.482   3.417  12.456
 6347SOL    HW119493   2.483   3.498  12.507
 6347SOL    HW219494   2.569   3.410  12.419
 6348SOL     OW19495   3.215   1.916  11.337
 6348SOL    HW119496   3.244   1.850  11.274
 6348SOL    HW219497   3.127   1.887  11.363
 6349SOL     OW19498   3.158   2.323  11.853
 6349SOL    HW119499   3.105   2.403  11.860
 6349SOL    HW219500   3.154   2.284  11.940
 6350SOL     OW19501   3.445   2.063  12.049
 6350SOL    HW119502   3.387   2.085  12.121
 6350SOL    HW219503   3.446   2.141  11.994
 6351SOL     OW19504   1.905   2.932  11.479
 6351SOL    HW119505   1.999   2.924  11.461
 6351SOL    HW219506   1.877   2.844  11.501
 6352SOL     OW19507   2.746   3.518  11.516
 6352SOL    HW119508   2.676   3.498  11.454
 6352SOL    HW219509   2.715   3.594  11.565
 6353SOL     OW19510   2.087   2.478  13.160
 6353SOL    HW119511   1.996   2.485  13.190
 6353SOL    HW219512   2.080   2.450  13.069
 6354SOL     OW19513   1.877   2.268  13.656
 6354SOL    HW119514   1.789   2.283  13.690
 6354SOL    HW219515   1.865   2.213  13.579
 6355SOL     OW19516   3.390   3.360  13.726
 6355SOL    HW119517   3.332   3.299  13.771
 6355SOL    HW219518   3.345   3.380  13.643
 6356SOL     OW19519   2.989   2.562  13.733
 6356SOL    HW119520   3.044   2.637  13.709
 6356SOL    HW219521   2.943   2.591  13.812
 6357SOL     OW19522   3.636   2.467  13.262
 6357SOL    HW119523   3.613   2.460  13.170
 6357SOL    HW219524   3.593   2.392  13.304
 6358SOL     OW19525   2.546   2.872  13.673
 6358SOL    HW119526   2.601   2.851  13.748
 6358SOL    HW219527   2.473   2.921  13.710
 6359SOL     OW19528   3.486   2.323  13.755
 6359SOL    HW119529   3.398   2.318  13.717
 6359SOL    HW219530   3.481   2.397  13.816
 6360SOL     OW19531   2.084   3.579  13.516
 6360SOL    HW119532   2.120   3.628  13.590
 6360SOL    HW219533   2.154   3.577  13.452
 6361SOL     OW19534   2.093   3.303  13.569
 6361SOL    HW119535   2.072   3.397  13.574
 6361SOL    HW219536   2.032   3.262  13.631
 6362SOL     OW19537   2.102   2.968   0.025
 6362SOL    HW119538   2.121   2.904   0.094
 6362SOL    HW219539   2.034   3.024   0.062
 6363SOL     OW19540   2.448   2.843  13.167
 6363SOL    HW119541   2.493   2.892  13.099
 6363SOL    HW219542   2.486   2.875  13.249
 6364SOL     OW19543   1.979   2.522  13.591
 6364SOL    HW119544   1.949   2.433  13.610
 6364SOL    HW219545   1.966   2.570  13.673
 6365SOL     OW19546   3.699   3.615  13.374
 6365SOL    HW119547   3.769   3.588  13.433
 6365SOL    HW219548   3.718   3.706  13.353
 6366SOL     OW19549   1.890   3.455  13.157
 6366SOL    HW119550   1.875   3.363  13.178
 6366SOL    HW219551   1.870   3.502  13.238
 6367SOL     OW19552   3.548   2.778  13.669
 6367SOL    HW119553   3.636   2.746  13.649
 6367SOL    HW219554   3.526   2.833  13.594
 6368SOL     OW19555   3.504   2.967  13.462
 6368SOL    HW119556   3.588   2.972  13.418
 6368SOL    HW219557   3.511   3.030  13.534
 6369SOL     OW19558   2.468   3.246  13.761
 6369SOL    HW119559   2.424   3.161  13.769
 6369SOL    HW219560   2.446   3.276  13.673
 6370SOL     OW19561   2.673   1.862  13.542
 6370SOL    HW119562   2.714   1.946  13.522
 6370SOL    HW219563   2.580   1.881  13.551
 6371SOL     OW19564   3.391   2.855  13.233
 6371SOL    HW119565   3.321   2.798  13.266
 6371SOL    HW219566   3.431   2.892  13.312
 6372SOL     OW19567   3.514   3.598  13.614
 6372SOL    HW119568   3.498   3.569  13.524
 6372SOL    HW219569   3.508   3.518  13.666
 6373SOL     OW19570   2.455   2.582  13.299
 6373SOL    HW119571   2.462   2.663  13.249
 6373SOL    HW219572   2.390   2.601  13.367
 6374SOL     OW19573   3.121   2.192   0.049
 6374SOL    HW119574   3.040   2.146   0.071
 6374SOL    HW219575   3.190   2.144   0.094
 6375SOL     OW19576   3.437   3.538  13.341
 6375SOL    HW119577   3.530   3.564  13.338
 6375SOL    HW219578   3.415   3.517  13.250
 6376SOL     OW19579   2.910   2.559  13.460
 6376SOL    HW119580   2.925   2.548  13.554
 6376SOL    HW219581   2.829   2.512  13.442
 6377SOL     OW19582   1.946   2.684  13.808
 6377SOL    HW119583   2.026   2.677  13.860
 6377SOL    HW219584   1.900   2.760  13.846
 6378SOL     OW19585   2.755   2.212  13.231
 6378SOL    HW119586   2.797   2.271  13.168
 6378SOL    HW219587   2.760   2.126  13.189
 6379SOL     OW19588   3.226   2.998  13.556
 6379SOL    HW119589   3.315   2.995  13.521
 6379SOL    HW219590   3.183   3.068  13.507
 6380SOL     OW19591   2.866   3.305  13.504
 6380SOL    HW119592   2.829   3.379  13.456
 6380SOL    HW219593   2.837   3.317  13.594
 6381SOL     OW19594   2.252   3.664  13.806
 6381SOL    HW119595   2.221   3.589  13.857
 6381SOL    HW219596   2.307   3.713  13.867
 6382SOL     OW19597   3.651   2.918  13.899
 6382SOL    HW119598   3.593   2.908  13.824
 6382SOL    HW219599   3.593   2.912   0.075
 6383SOL     OW19600   2.182   2.820  13.286
 6383SOL    HW119601   2.263   2.839  13.239
 6383SOL    HW219602   2.151   2.739  13.247
 6384SOL     OW19603   3.349   2.595  13.746
 6384SOL    HW119604   3.337   2.552  13.830
 6384SOL    HW219605   3.422   2.655  13.759
 6385SOL     OW19606   2.975   3.643  13.256
 6385SOL    HW119607   2.913   3.596  13.312
 6385SOL    HW219608   3.005   3.578  13.193
 6386SOL     OW19609   3.488   3.245  13.122
 6386SOL    HW119610   3.445   3.329  13.104
 6386SOL    HW219611   3.421   3.179  13.103
 6387SOL     OW19612   2.330   3.596  13.358
 6387SOL    HW119613   2.366   3.660  13.418
 6387SOL    HW219614   2.403   3.572  13.301
 6388SOL     OW19615   3.264   1.974  13.465
 6388SOL    HW119616   3.254   1.946  13.374
 6388SOL    HW219617   3.359   1.974  13.479
 6389SOL     OW19618   2.794   3.549   0.011
 6389SOL    HW119619   2.818   3.482   0.075
 6389SOL    HW219620   2.748   3.503  13.842
 6390SOL     OW19621   2.252   2.565  13.507
 6390SOL    HW119622   2.271   2.472  13.513
 6390SOL    HW219623   2.158   2.572  13.526
 6391SOL     OW19624   2.509   1.986  13.142
 6391SOL    HW119625   2.572   1.915  13.155
 6391SOL    HW219626   2.452   1.955  13.072
 6392SOL     OW19627   2.407   1.926  13.539
 6392SOL    HW119628   2.340   1.936  13.607
 6392SOL    HW219629   2.395   2.002  13.482
 6393SOL     OW19630   3.290   3.060  13.075
 6393SOL    HW119631   3.321   2.985  13.125
 6393SOL    HW219632   3.204   3.081  13.113
 6394SOL     OW19633   2.800   2.106  13.494
 6394SOL    HW119634   2.773   2.148  13.413
 6394SOL    HW219635   2.894   2.121  13.499
 6395SOL     OW19636   2.326   3.005  13.772
 6395SOL    HW119637   2.252   2.992  13.831
 6395SOL    HW219638   2.289   2.992  13.685
 6396SOL     OW19639   3.132   3.661  13.629
 6396SOL    HW119640   3.176   3.728  13.577
 6396SOL    HW219641   3.065   3.708  13.678
 6397SOL     OW19642   2.886   2.403  13.056
 6397SOL    HW119643   2.843   2.487  13.037
 6397SOL    HW219644   2.951   2.425  13.123
 6398SOL     OW19645   2.754   2.332  13.669
 6398SOL    HW119646   2.690   2.379  13.616
 6398SOL    HW219647   2.761   2.246  13.627
 6399SOL     OW19648   2.886   1.903  13.778
 6399SOL    HW119649   2.828   1.911  13.703
 6399SOL    HW219650   2.858   1.822  13.822
 6400SOL     OW19651   3.727   2.678  13.410
 6400SOL    HW119652   3.775   2.623  13.471
 6400SOL    HW219653   3.690   2.617  13.346
 6401SOL     OW19654   2.353   3.279  13.190
 6401SOL    HW119655   2.278   3.251  13.243
 6401SOL    HW219656   2.337   3.241  13.104
 6402SOL     OW19657   3.539   3.130  13.668
 6402SOL    HW119658   3.632   3.134  13.686
 6402SOL    HW219659   3.504   3.213  13.701
 6403SOL     OW19660   3.256   2.433  13.105
 6403SOL    HW119661   3.194   2.415  13.176
 6403SOL    HW219662   3.340   2.400  13.138
 6404SOL     OW19663   2.388   2.123  13.354
 6404SOL    HW119664   2.431   2.074  13.283
 6404SOL    HW219665   2.364   2.207  13.314
 6405SOL     OW19666   2.571   2.925  13.401
 6405SOL    HW119667   2.556   2.909  13.494
 6405SOL    HW219668   2.647   2.871  13.379
 6406SOL     OW19669   2.214   2.972  13.525
 6406SOL    HW119670   2.215   3.046  13.465
 6406SOL    HW219671   2.209   2.895  13.469
 6407SOL     OW19672   2.447   2.396  13.860
 6407SOL    HW119673   2.449   2.468  13.798
 6407SOL    HW219674   2.488   2.430   0.039
 6408SOL     OW19675   3.108   3.213  13.419
 6408SOL    HW119676   3.164   3.286  13.447
 6408SOL    HW219677   3.022   3.233  13.454
 6409SOL     OW19678   3.444   2.487  13.501
 6409SOL    HW119679   3.402   2.530  13.576
 6409SOL    HW219680   3.480   2.559  13.450
 6410SOL     OW19681   3.066   2.390  13.300
 6410SOL    HW119682   3.074   2.312  13.354
 6410SOL    HW219683   3.023   2.455  13.356
 6411SOL     OW19684   3.480   2.236  13.400
 6411SOL    HW119685   3.504   2.173  13.468
 6411SOL    HW219686   3.457   2.315  13.449
 6412SOL     OW19687   3.392   2.135  13.161
 6412SOL    HW119688   3.326   2.070  13.187
 6412SOL    HW219689   3.425   2.170  13.244
 6413SOL     OW19690   3.152   2.687  13.064
 6413SOL    HW119691   3.196   2.602  13.068
 6413SOL    HW219692   3.185   2.727  12.983
 6414SOL     OW19693   1.867   3.183  13.228
 6414SOL    HW119694   1.780   3.197  13.191
 6414SOL    HW219695   1.864   3.094  13.263
 6415SOL     OW19696   2.677   2.434  13.390
 6415SOL    HW119697   2.682   2.358  13.332
 6415SOL    HW219698   2.602   2.483  13.358
 6416SOL     OW19699   2.327   2.353  13.211
 6416SOL    HW119700   2.385   2.424  13.238
 6416SOL    HW219701   2.240   2.392  13.206
 6417SOL     OW19702   3.175   2.714  13.339
 6417SOL    HW119703   3.097   2.689  13.389
 6417SOL    HW219704   3.149   2.702  13.247
 6418SOL     OW19705   3.578   2.008  13.549
 6418SOL    HW119706   3.644   1.996  13.481
 6418SOL    HW219707   3.565   1.921  13.586
 6419SOL     OW19708   3.245   3.435  13.508
 6419SOL    HW119709   3.306   3.471  13.444
 6419SOL    HW219710   3.201   3.511  13.545
 6420SOL     OW19711   3.149   2.776  13.686
 6420SOL    HW119712   3.225   2.721  13.671
 6420SOL    HW219713   3.171   2.860  13.645
 6421SOL     OW19714   2.537   3.478  13.191
 6421SOL    HW119715   2.545   3.494  13.097
 6421SOL    HW219716   2.479   3.402  13.197
 6422SOL     OW19717   3.683   2.021   0.084
 6422SOL    HW119718   3.698   1.933   0.049
 6422SOL    HW219719   3.589   2.033   0.077
 6423SOL     OW19720   2.115   2.283  13.798
 6423SOL    HW119721   2.055   2.263  13.726
 6423SOL    HW219722   2.137   2.198  13.835
 6424SOL     OW19723   3.069   3.468  13.069
 6424SOL    HW119724   3.059   3.376  13.093
 6424SOL    HW219725   3.008   3.480  12.996
 6425SOL     OW19726   2.780   2.774  13.327
 6425SOL    HW119727   2.840   2.805  13.259
 6425SOL    HW219728   2.826   2.701  13.368
 6426SOL     OW19729   3.352   3.491  13.075
 6426SOL    HW119730   3.258   3.480  13.060
 6426SOL    HW219731   3.390   3.496  12.988
 6427SOL     OW19732   2.912   2.953  13.754
 6427SOL    HW119733   2.825   2.913  13.745
 6427SOL    HW219734   2.965   2.911  13.686
 6428SOL     OW19735   2.462   3.353  13.508
 6428SOL    HW119736   2.506   3.303  13.440
 6428SOL    HW219737   2.395   3.404  13.461
 6429SOL     OW19738   2.122   3.206  13.323
 6429SOL    HW119739   2.029   3.204  13.300
 6429SOL    HW219740   2.124   3.245  13.411
 6430SOL     OW19741   3.040   3.201  13.149
 6430SOL    HW119742   2.949   3.171  13.152
 6430SOL    HW219743   3.068   3.201  13.241
 6431SOL     OW19744   3.079   2.181  13.491
 6431SOL    HW119745   3.142   2.110  13.481
 6431SOL    HW219746   3.110   2.230  13.568
 6432SOL     OW19747   2.452   2.610  13.693
 6432SOL    HW119748   2.489   2.697  13.674
 6432SOL    HW219749   2.381   2.600  13.630
 6433SOL     OW19750   2.725   3.230  13.069
 6433SOL    HW119751   2.685   3.257  13.151
 6433SOL    HW219752   2.741   3.311  13.022
 6434SOL     OW19753   2.512   3.710   0.066
 6434SOL    HW119754   2.510   3.804   0.082
 6434SOL    HW219755   2.604   3.686   0.079
 6435SOL     OW19756   2.692   2.825  13.894
 6435SOL    HW119757   2.729   2.745   0.032
 6435SOL    HW219758   2.711   2.893   0.059
 6436SOL     OW19759   2.940   2.849  13.123
 6436SOL    HW119760   2.919   2.901  13.045
 6436SOL    HW219761   3.015   2.796  13.096
 6437SOL     OW19762   1.952   3.095  13.699
 6437SOL    HW119763   1.946   3.039  13.776
 6437SOL    HW219764   2.019   3.053  13.644
 6438SOL     OW19765   2.283   2.304  13.546
 6438SOL    HW119766   2.321   2.226  13.504
 6438SOL    HW219767   2.278   2.282  13.638
 6439SOL     OW19768   3.541   3.326   0.341
 6439SOL    HW119769   3.511   3.298   0.254
 6439SOL    HW219770   3.625   3.282   0.353
 6440SOL     OW19771   2.680   3.414  13.710
 6440SOL    HW119772   2.659   3.465  13.632
 6440SOL    HW219773   2.603   3.361  13.726
 6441SOL     OW19774   2.634   3.195  13.347
 6441SOL    HW119775   2.603   3.105  13.353
 6441SOL    HW219776   2.717   3.195  13.396
 6442SOL     OW19777   3.215   1.915  13.198
 6442SOL    HW119778   3.243   1.850  13.135
 6442SOL    HW219779   3.127   1.887  13.225
 6443SOL     OW19780   3.165   2.322  13.713
 6443SOL    HW119781   3.109   2.399  13.720
 6443SOL    HW219782   3.153   2.276  13.797
 6444SOL     OW19783   1.906   2.933  13.339
 6444SOL    HW119784   2.000   2.924  13.321
 6444SOL    HW219785   1.878   2.844  13.361
 6445SOL     OW19786   2.746   3.518  13.378
 6445SOL    HW119787   2.675   3.499  13.317
 6445SOL    HW219788   2.715   3.593  13.429
 6446SOL     OW19789   2.094   3.985   0.986
 6446SOL    HW119790   2.118   3.963   1.076
 6446SOL    HW219791   2.004   3.953   0.977
 6447SOL     OW19792   1.878   0.063   0.709
 6447SOL    HW119793   1.802   0.114   0.680
 6447SOL    HW219794   1.904   0.012   0.632
 6448SOL     OW19795   3.660   0.359   0.252
 6448SOL    HW119796   3.635   0.309   0.175
 6448SOL    HW219797   3.582   0.360   0.307
 6449SOL     OW19798   2.300   0.097   1.507
 6449SOL    HW119799   2.373   0.056   1.461
 6449SOL    HW219800   2.225   0.042   1.485
 6450SOL     OW19801   3.459   3.848   1.463
 6450SOL    HW119802   3.460   3.934   1.420
 6450SOL    HW219803   3.446   3.868   1.556
 6451SOL     OW19804   2.667   3.727   0.504
 6451SOL    HW119805   2.696   3.818   0.495
 6451SOL    HW219806   2.572   3.732   0.515
 6452SOL     OW19807   3.131   0.062   0.938
 6452SOL    HW119808   3.059   0.007   0.906
 6452SOL    HW219809   3.186   0.003   0.988
 6453SOL     OW19810   2.415   3.905   0.890
 6453SOL    HW119811   2.410   3.925   0.984
 6453SOL    HW219812   2.410   3.990   0.847
 6454SOL     OW19813   2.053   3.984   1.490
 6454SOL    HW119814   1.998   0.062   1.494
 6454SOL    HW219815   2.019   3.927   1.560
 6455SOL     OW19816   3.270   3.840   0.426
 6455SOL    HW119817   3.262   3.797   0.340
 6455SOL    HW219818   3.360   3.822   0.453
 6456SOL     OW19819   3.398   3.940   1.724
 6456SOL    HW119820   3.423   3.944   1.817
 6456SOL    HW219821   3.331   3.872   1.720
 6457SOL     OW19822   2.635   3.961   1.745
 6457SOL    HW119823   2.689   3.930   1.817
 6457SOL    HW219824   2.549   3.976   1.784
 6458SOL     OW19825   2.395   3.784   0.511
 6458SOL    HW119826   2.344   3.784   0.592
 6458SOL    HW219827   2.406   3.876   0.490
 6459SOL     OW19828   2.134   3.743   0.211
 6459SOL    HW119829   2.166   3.829   0.181
 6459SOL    HW219830   2.214   3.695   0.233
 6460SOL     OW19831   2.421   3.943   1.167
 6460SOL    HW119832   2.461   3.869   1.211
 6460SOL    HW219833   2.329   3.941   1.195
 6461SOL     OW19834   2.881   3.769   0.740
 6461SOL    HW119835   2.817   3.757   0.670
 6461SOL    HW219836   2.858   3.702   0.805
 6462SOL     OW19837   2.784   3.804   1.400
 6462SOL    HW119838   2.812   3.784   1.311
 6462SOL    HW219839   2.857   3.854   1.438
 6463SOL     OW19840   3.128   0.077   1.265
 6463SOL    HW119841   3.143   0.145   1.331
 6463SOL    HW219842   3.060   0.114   1.208
 6464SOL     OW19843   2.369   3.750   1.754
 6464SOL    HW119844   2.316   3.704   1.690
 6464SOL    HW219845   2.335   3.839   1.755
 6465SOL     OW19846   2.158   3.921   1.252
 6465SOL    HW119847   2.114   3.940   1.335
 6465SOL    HW219848   2.145   3.827   1.239
 6466SOL     OW19849   3.459   3.941   0.151
 6466SOL    HW119850   3.379   3.889   0.157
 6466SOL    HW219851   3.436   0.024   0.193
 6467SOL     OW19852   3.025   3.924   1.473
 6467SOL    HW119853   3.030   3.997   1.535
 6467SOL    HW219854   3.066   3.958   1.393
 6468SOL     OW19855   2.779   3.823   0.151
 6468SOL    HW119856   2.810   3.814   0.061
 6468SOL    HW219857   2.837   3.768   0.202
 6469SOL     OW19858   3.586   3.863   0.528
 6469SOL    HW119859   3.656   3.849   0.464
 6469SOL    HW219860   3.567   3.775   0.561
 6470SOL     OW19861   3.696   3.895   0.964
 6470SOL    HW119862   3.730   3.809   0.939
 6470SOL    HW219863   3.611   3.901   0.922
 6471SOL     OW19864   2.536   3.912   1.493
 6471SOL    HW119865   2.618   3.905   1.444
 6471SOL    HW219866   2.562   3.933   1.582
 6472SOL     OW19867   1.928   3.862   0.341
 6472SOL    HW119868   1.908   3.937   0.285
 6472SOL    HW219869   2.009   3.826   0.305
 6473SOL     OW19870   3.051   0.011   0.467
 6473SOL    HW119871   3.118   3.943   0.466
 6473SOL    HW219872   3.074   0.066   0.541
 6474SOL     OW19873   3.647   0.050   1.632
 6474SOL    HW119874   3.607   0.080   1.550
 6474SOL    HW219875   3.575   0.007   1.679
 6475SOL     OW19876   3.679   3.911   1.236
 6475SOL    HW119877   3.669   3.818   1.260
 6475SOL    HW219878   3.687   3.910   1.141
 6476SOL     OW19879   3.301   3.934   1.118
 6476SOL    HW119880   3.330   3.854   1.160
 6476SOL    HW219881   3.241   3.975   1.181
 6477SOL     OW19882   2.876   3.737   1.150
 6477SOL    HW119883   2.818   3.681   1.098
 6477SOL    HW219884   2.961   3.695   1.145
 6478SOL     OW19885   3.213   3.783   0.151
 6478SOL    HW119886   3.250   3.713   0.098
 6478SOL    HW219887   3.130   3.747   0.183
 6479SOL     OW19888   3.146   0.163   0.681
 6479SOL    HW119889   3.140   0.258   0.688
 6479SOL    HW219890   3.152   0.132   0.772
 6480SOL     OW19891   3.441   3.931   0.878
 6480SOL    HW119892   3.388   3.932   0.958
 6480SOL    HW219893   3.439   0.021   0.846
 6481SOL     OW19894   2.094   3.983   2.847
 6481SOL    HW119895   2.118   3.964   2.937
 6481SOL    HW219896   2.004   3.953   2.839
 6482SOL     OW19897   1.877   0.062   2.573
 6482SOL    HW119898   1.805   0.117   2.544
 6482SOL    HW219899   1.901   0.011   2.496
 6483SOL     OW19900   3.636   0.321   2.047
 6483SOL    HW119901   3.559   0.306   1.991
 6483SOL    HW219902   3.599   0.339   2.133
 6484SOL     OW19903   2.300   0.097   3.369
 6484SOL    HW119904   2.373   0.056   3.323
 6484SOL    HW219905   2.224   0.042   3.347
 6485SOL     OW19906   3.459   3.848   3.325
 6485SOL    HW119907   3.460   3.934   3.282
 6485SOL    HW219908   3.446   3.867   3.418
 6486SOL     OW19909   2.668   3.729   2.365
 6486SOL    HW119910   2.695   3.820   2.359
 6486SOL    HW219911   2.573   3.732   2.376
 6487SOL     OW19912   3.130   0.062   2.801
 6487SOL    HW119913   3.060   0.007   2.768
 6487SOL    HW219914   3.186   0.003   2.851
 6488SOL     OW19915   2.415   3.905   2.752
 6488SOL    HW119916   2.411   3.925   2.846
 6488SOL    HW219917   2.410   3.991   2.710
 6489SOL     OW19918   2.053   3.984   3.352
 6489SOL    HW119919   1.998   0.063   3.356
 6489SOL    HW219920   2.019   3.927   3.422
 6490SOL     OW19921   3.267   3.835   2.289
 6490SOL    HW119922   3.258   3.800   2.200
 6490SOL    HW219923   3.359   3.822   2.311
 6491SOL     OW19924   3.398   3.940   3.586
 6491SOL    HW119925   3.423   3.944   3.679
 6491SOL    HW219926   3.331   3.872   3.582
 6492SOL     OW19927   2.488   3.850   1.986
 6492SOL    HW119928   2.579   3.820   1.989
 6492SOL    HW219929   2.450   3.803   1.912
 6493SOL     OW19930   2.636   3.961   3.607
 6493SOL    HW119931   2.689   3.930   3.679
 6493SOL    HW219932   2.549   3.976   3.646
 6494SOL     OW19933   2.396   3.786   2.374
 6494SOL    HW119934   2.346   3.788   2.456
 6494SOL    HW219935   2.406   3.878   2.349
 6495SOL     OW19936   2.149   3.756   2.040
 6495SOL    HW119937   2.192   3.841   2.027
 6495SOL    HW219938   2.217   3.701   2.080
 6496SOL     OW19939   2.420   3.943   3.029
 6496SOL    HW119940   2.461   3.869   3.073
 6496SOL    HW219941   2.329   3.941   3.057
 6497SOL     OW19942   2.881   3.768   2.602
 6497SOL    HW119943   2.817   3.756   2.532
 6497SOL    HW219944   2.858   3.702   2.668
 6498SOL     OW19945   2.784   3.804   3.262
 6498SOL    HW119946   2.812   3.784   3.173
 6498SOL    HW219947   2.857   3.854   3.300
 6499SOL     OW19948   3.128   0.077   3.127
 6499SOL    HW119949   3.143   0.145   3.193
 6499SOL    HW219950   3.060   0.114   3.070
 6500SOL     OW19951   2.369   3.750   3.616
 6500SOL    HW119952   2.316   3.704   3.551
 6500SOL    HW219953   2.334   3.839   3.617
 6501SOL     OW19954   2.157   3.922   3.114
 6501SOL    HW119955   2.114   3.940   3.197
 6501SOL    HW219956   2.145   3.828   3.101
 6502SOL     OW19957   3.443   3.956   1.985
 6502SOL    HW119958   3.379   3.899   2.028
 6502SOL    HW219959   3.455   0.028   2.047
 6503SOL     OW19960   3.025   3.924   3.335
 6503SOL    HW119961   3.030   3.996   3.397
 6503SOL    HW219962   3.066   3.959   3.255
 6504SOL     OW19963   2.763   3.812   1.968
 6504SOL    HW119964   2.825   3.778   1.904
 6504SOL    HW219965   2.802   3.791   2.053
 6505SOL     OW19966   3.588   3.860   2.384
 6505SOL    HW119967   3.657   3.846   2.319
 6505SOL    HW219968   3.569   3.773   2.419
 6506SOL     OW19969   3.696   3.896   2.826
 6506SOL    HW119970   3.730   3.809   2.802
 6506SOL    HW219971   3.610   3.901   2.784
 6507SOL     OW19972   2.536   3.912   3.355
 6507SOL    HW119973   2.618   3.905   3.306
 6507SOL    HW219974   2.562   3.933   3.444
 6508SOL     OW19975   1.908   0.053   1.897
 6508SOL    HW119976   1.866   0.032   1.813
 6508SOL    HW219977   1.941   0.142   1.885
 6509SOL     OW19978   1.926   3.867   2.173
 6509SOL    HW119979   1.914   3.956   2.140
 6509SOL    HW219980   2.008   3.838   2.133
 6510SOL     OW19981   3.052   0.012   2.330
 6510SOL    HW119982   3.122   3.947   2.325
 6510SOL    HW219983   3.076   0.068   2.404
 6511SOL     OW19984   3.647   0.050   3.493
 6511SOL    HW119985   3.607   0.080   3.412
 6511SOL    HW219986   3.575   0.007   3.541
 6512SOL     OW19987   3.679   3.911   3.099
 6512SOL    HW119988   3.669   3.819   3.122
 6512SOL    HW219989   3.687   3.910   3.003
 6513SOL     OW19990   3.301   3.934   2.980
 6513SOL    HW119991   3.330   3.854   3.023
 6513SOL    HW219992   3.242   3.975   3.043
 6514SOL     OW19993   2.876   3.737   3.012
 6514SOL    HW119994   2.818   3.680   2.961
 6514SOL    HW219995   2.961   3.695   3.007
 6515SOL     OW19996   3.215   3.771   2.020
 6515SOL    HW119997   3.247   3.702   1.961
 6515SOL    HW219998   3.128   3.742   2.047
 6516SOL     OW19999   3.145   0.162   2.546
 6516SOL    HW120000   3.141   0.257   2.551
 6516SOL    HW220001   3.151   0.133   2.637
 6517SOL     OW20002   3.441   3.931   2.740
 6517SOL    HW120003   3.388   3.932   2.819
 6517SOL    HW220004   3.439   0.021   2.708
 6518SOL     OW20005   2.094   3.983   4.709
 6518SOL    HW120006   2.118   3.964   4.799
 6518SOL    HW220007   2.004   3.953   4.701
 6519SOL     OW20008   1.877   0.062   4.435
 6519SOL    HW120009   1.805   0.117   4.406
 6519SOL    HW220010   1.901   0.011   4.358
 6520SOL     OW20011   3.636   0.321   3.909
 6520SOL    HW120012   3.559   0.306   3.853
 6520SOL    HW220013   3.599   0.339   3.995
 6521SOL     OW20014   2.300   0.097   5.231
 6521SOL    HW120015   2.373   0.056   5.185
 6521SOL    HW220016   2.225   0.042   5.209
 6522SOL     OW20017   3.459   3.848   5.187
 6522SOL    HW120018   3.460   3.934   5.144
 6522SOL    HW220019   3.446   3.867   5.280
 6523SOL     OW20020   2.668   3.729   4.227
 6523SOL    HW120021   2.695   3.820   4.221
 6523SOL    HW220022   2.573   3.732   4.238
 6524SOL     OW20023   3.130   0.062   4.663
 6524SOL    HW120024   3.060   0.007   4.630
 6524SOL    HW220025   3.186   0.003   4.713
 6525SOL     OW20026   2.415   3.905   4.614
 6525SOL    HW120027   2.411   3.925   4.708
 6525SOL    HW220028   2.410   3.991   4.572
 6526SOL     OW20029   2.052   3.984   5.214
 6526SOL    HW120030   1.998   0.063   5.218
 6526SOL    HW220031   2.019   3.928   5.284
 6527SOL     OW20032   3.267   3.835   4.151
 6527SOL    HW120033   3.258   3.800   4.062
 6527SOL    HW220034   3.359   3.822   4.173
 6528SOL     OW20035   3.398   3.940   5.448
 6528SOL    HW120036   3.423   3.944   5.541
 6528SOL    HW220037   3.331   3.872   5.444
 6529SOL     OW20038   2.488   3.850   3.848
 6529SOL    HW120039   2.579   3.820   3.851
 6529SOL    HW220040   2.450   3.803   3.774
 6530SOL     OW20041   2.635   3.961   5.469
 6530SOL    HW120042   2.689   3.930   5.541
 6530SOL    HW220043   2.549   3.976   5.508
 6531SOL     OW20044   2.396   3.786   4.236
 6531SOL    HW120045   2.346   3.788   4.318
 6531SOL    HW220046   2.406   3.878   4.211
 6532SOL     OW20047   2.149   3.756   3.902
 6532SOL    HW120048   2.192   3.841   3.889
 6532SOL    HW220049   2.217   3.701   3.942
 6533SOL     OW20050   2.420   3.943   4.891
 6533SOL    HW120051   2.461   3.869   4.935
 6533SOL    HW220052   2.329   3.941   4.919
 6534SOL     OW20053   2.881   3.768   4.464
 6534SOL    HW120054   2.817   3.756   4.394
 6534SOL    HW220055   2.858   3.702   4.530
 6535SOL     OW20056   2.784   3.804   5.124
 6535SOL    HW120057   2.812   3.784   5.035
 6535SOL    HW220058   2.857   3.854   5.162
 6536SOL     OW20059   3.128   0.077   4.989
 6536SOL    HW120060   3.143   0.145   5.055
 6536SOL    HW220061   3.060   0.114   4.932
 6537SOL     OW20062   2.369   3.750   5.478
 6537SOL    HW120063   2.316   3.704   5.413
 6537SOL    HW220064   2.335   3.839   5.479
 6538SOL     OW20065   2.157   3.922   4.976
 6538SOL    HW120066   2.114   3.940   5.059
 6538SOL    HW220067   2.145   3.828   4.963
 6539SOL     OW20068   3.443   3.956   3.847
 6539SOL    HW120069   3.379   3.899   3.890
 6539SOL    HW220070   3.455   0.028   3.909
 6540SOL     OW20071   3.025   3.924   5.197
 6540SOL    HW120072   3.030   3.996   5.259
 6540SOL    HW220073   3.066   3.959   5.117
 6541SOL     OW20074   2.763   3.812   3.830
 6541SOL    HW120075   2.825   3.778   3.766
 6541SOL    HW220076   2.802   3.791   3.915
 6542SOL     OW20077   3.588   3.860   4.246
 6542SOL    HW120078   3.657   3.846   4.181
 6542SOL    HW220079   3.569   3.773   4.281
 6543SOL     OW20080   3.696   3.896   4.688
 6543SOL    HW120081   3.730   3.809   4.664
 6543SOL    HW220082   3.610   3.901   4.646
 6544SOL     OW20083   2.536   3.912   5.217
 6544SOL    HW120084   2.618   3.905   5.168
 6544SOL    HW220085   2.562   3.933   5.306
 6545SOL     OW20086   1.908   0.053   3.759
 6545SOL    HW120087   1.866   0.032   3.675
 6545SOL    HW220088   1.941   0.142   3.747
 6546SOL     OW20089   1.926   3.867   4.035
 6546SOL    HW120090   1.914   3.956   4.002
 6546SOL    HW220091   2.008   3.838   3.995
 6547SOL     OW20092   3.052   0.012   4.192
 6547SOL    HW120093   3.122   3.947   4.187
 6547SOL    HW220094   3.076   0.068   4.266
 6548SOL     OW20095   3.647   0.050   5.355
 6548SOL    HW120096   3.607   0.080   5.274
 6548SOL    HW220097   3.575   0.007   5.403
 6549SOL     OW20098   3.679   3.911   4.961
 6549SOL    HW120099   3.669   3.819   4.984
 6549SOL    HW220100   3.687   3.910   4.865
 6550SOL     OW20101   3.301   3.934   4.842
 6550SOL    HW120102   3.330   3.854   4.885
 6550SOL    HW220103   3.242   3.975   4.905
 6551SOL     OW20104   2.876   3.737   4.874
 6551SOL    HW120105   2.818   3.680   4.823
 6551SOL    HW220106   2.961   3.695   4.869
 6552SOL     OW20107   3.215   3.771   3.882
 6552SOL    HW120108   3.247   3.702   3.824
 6552SOL    HW220109   3.128   3.742   3.909
 6553SOL     OW20110   3.145   0.162   4.408
 6553SOL    HW120111   3.141   0.257   4.413
 6553SOL    HW220112   3.151   0.133   4.499
 6554SOL     OW20113   3.441   3.931   4.602
 6554SOL    HW120114   3.388   3.932   4.681
 6554SOL    HW220115   3.439   0.021   4.570
 6555SOL     OW20116   2.094   3.983   6.571
 6555SOL    HW120117   2.118   3.963   6.661
 6555SOL    HW220118   2.004   3.953   6.563
 6556SOL     OW20119   1.877   0.062   6.297
 6556SOL    HW120120   1.805   0.118   6.268
 6556SOL    HW220121   1.901   0.011   6.220
 6557SOL     OW20122   3.636   0.321   5.771
 6557SOL    HW120123   3.559   0.306   5.715
 6557SOL    HW220124   3.599   0.339   5.857
 6558SOL     OW20125   2.300   0.097   7.093
 6558SOL    HW120126   2.373   0.056   7.047
 6558SOL    HW220127   2.224   0.043   7.071
 6559SOL     OW20128   3.460   3.848   7.049
 6559SOL    HW120129   3.460   3.934   7.006
 6559SOL    HW220130   3.446   3.868   7.141
 6560SOL     OW20131   2.668   3.729   6.088
 6560SOL    HW120132   2.694   3.821   6.083
 6560SOL    HW220133   2.573   3.732   6.100
 6561SOL     OW20134   3.130   0.062   6.526
 6561SOL    HW120135   3.060   0.007   6.492
 6561SOL    HW220136   3.186   0.003   6.575
 6562SOL     OW20137   2.415   3.906   6.476
 6562SOL    HW120138   2.411   3.925   6.570
 6562SOL    HW220139   2.410   3.991   6.434
 6563SOL     OW20140   2.053   3.984   7.076
 6563SOL    HW120141   1.997   0.062   7.080
 6563SOL    HW220142   2.019   3.926   7.145
 6564SOL     OW20143   3.267   3.836   6.013
 6564SOL    HW120144   3.258   3.800   5.924
 6564SOL    HW220145   3.359   3.822   6.035
 6565SOL     OW20146   3.397   3.941   7.310
 6565SOL    HW120147   3.423   3.944   7.403
 6565SOL    HW220148   3.331   3.872   7.306
 6566SOL     OW20149   2.488   3.850   5.710
 6566SOL    HW120150   2.579   3.820   5.713
 6566SOL    HW220151   2.450   3.803   5.636
 6567SOL     OW20152   2.636   3.962   7.331
 6567SOL    HW120153   2.689   3.930   7.403
 6567SOL    HW220154   2.549   3.976   7.370
 6568SOL     OW20155   2.395   3.786   6.098
 6568SOL    HW120156   2.346   3.788   6.180
 6568SOL    HW220157   2.406   3.878   6.073
 6569SOL     OW20158   2.150   3.756   5.764
 6569SOL    HW120159   2.192   3.841   5.751
 6569SOL    HW220160   2.218   3.701   5.804
 6570SOL     OW20161   2.420   3.943   6.753
 6570SOL    HW120162   2.461   3.868   6.796
 6570SOL    HW220163   2.329   3.940   6.781
 6571SOL     OW20164   2.881   3.768   6.326
 6571SOL    HW120165   2.817   3.756   6.256
 6571SOL    HW220166   2.858   3.702   6.392
 6572SOL     OW20167   2.784   3.805   6.986
 6572SOL    HW120168   2.812   3.784   6.897
 6572SOL    HW220169   2.857   3.854   7.024
 6573SOL     OW20170   3.128   0.077   6.851
 6573SOL    HW120171   3.143   0.145   6.916
 6573SOL    HW220172   3.060   0.113   6.794
 6574SOL     OW20173   2.369   3.750   7.341
 6574SOL    HW120174   2.316   3.704   7.276
 6574SOL    HW220175   2.334   3.839   7.341
 6575SOL     OW20176   2.158   3.921   6.838
 6575SOL    HW120177   2.114   3.940   6.921
 6575SOL    HW220178   2.145   3.827   6.824
 6576SOL     OW20179   3.443   3.956   5.709
 6576SOL    HW120180   3.379   3.899   5.752
 6576SOL    HW220181   3.455   0.028   5.771
 6577SOL     OW20182   3.025   3.924   7.059
 6577SOL    HW120183   3.030   3.997   7.121
 6577SOL    HW220184   3.065   3.958   6.979
 6578SOL     OW20185   2.763   3.812   5.692
 6578SOL    HW120186   2.825   3.778   5.628
 6578SOL    HW220187   2.801   3.791   5.777
 6579SOL     OW20188   3.588   3.860   6.108
 6579SOL    HW120189   3.657   3.846   6.043
 6579SOL    HW220190   3.569   3.773   6.143
 6580SOL     OW20191   3.696   3.896   6.550
 6580SOL    HW120192   3.730   3.809   6.526
 6580SOL    HW220193   3.610   3.901   6.508
 6581SOL     OW20194   2.536   3.912   7.079
 6581SOL    HW120195   2.618   3.905   7.030
 6581SOL    HW220196   2.563   3.934   7.168
 6582SOL     OW20197   1.908   0.053   5.620
 6582SOL    HW120198   1.866   0.032   5.537
 6582SOL    HW220199   1.941   0.142   5.609
 6583SOL     OW20200   1.926   3.867   5.897
 6583SOL    HW120201   1.914   3.956   5.864
 6583SOL    HW220202   2.008   3.838   5.857
 6584SOL     OW20203   3.052   0.012   6.054
 6584SOL    HW120204   3.122   3.947   6.049
 6584SOL    HW220205   3.076   0.068   6.128
 6585SOL     OW20206   3.647   0.050   7.218
 6585SOL    HW120207   3.608   0.080   7.136
 6585SOL    HW220208   3.575   0.007   7.265
 6586SOL     OW20209   3.679   3.911   6.823
 6586SOL    HW120210   3.669   3.819   6.846
 6586SOL    HW220211   3.687   3.910   6.727
 6587SOL     OW20212   3.301   3.934   6.704
 6587SOL    HW120213   3.329   3.853   6.746
 6587SOL    HW220214   3.242   3.975   6.767
 6588SOL     OW20215   2.876   3.737   6.736
 6588SOL    HW120216   2.818   3.680   6.685
 6588SOL    HW220217   2.961   3.695   6.731
 6589SOL     OW20218   3.215   3.771   5.743
 6589SOL    HW120219   3.247   3.702   5.686
 6589SOL    HW220220   3.128   3.742   5.771
 6590SOL     OW20221   3.145   0.162   6.270
 6590SOL    HW120222   3.141   0.257   6.275
 6590SOL    HW220223   3.151   0.133   6.361
 6591SOL     OW20224   3.441   3.931   6.463
 6591SOL    HW120225   3.389   3.932   6.543
 6591SOL    HW220226   3.439   0.021   6.432
 6592SOL     OW20227   2.094   3.984   8.433
 6592SOL    HW120228   2.118   3.964   8.523
 6592SOL    HW220229   2.004   3.953   8.425
 6593SOL     OW20230   1.877   0.062   8.159
 6593SOL    HW120231   1.805   0.117   8.130
 6593SOL    HW220232   1.902   0.011   8.082
 6594SOL     OW20233   3.636   0.321   7.633
 6594SOL    HW120234   3.559   0.307   7.577
 6594SOL    HW220235   3.599   0.338   7.719
 6595SOL     OW20236   2.300   0.097   8.955
 6595SOL    HW120237   2.373   0.056   8.909
 6595SOL    HW220238   2.225   0.042   8.933
 6596SOL     OW20239   3.459   3.848   8.911
 6596SOL    HW120240   3.460   3.934   8.868
 6596SOL    HW220241   3.446   3.868   9.004
 6597SOL     OW20242   2.668   3.729   7.951
 6597SOL    HW120243   2.695   3.820   7.945
 6597SOL    HW220244   2.573   3.732   7.962
 6598SOL     OW20245   3.130   0.062   8.388
 6598SOL    HW120246   3.060   0.007   8.354
 6598SOL    HW220247   3.186   0.003   8.437
 6599SOL     OW20248   2.415   3.905   8.338
 6599SOL    HW120249   2.411   3.925   8.432
 6599SOL    HW220250   2.410   3.991   8.296
 6600SOL     OW20251   2.053   3.984   8.938
 6600SOL    HW120252   1.998   0.062   8.942
 6600SOL    HW220253   2.019   3.927   9.008
 6601SOL     OW20254   3.267   3.835   7.875
 6601SOL    HW120255   3.258   3.800   7.786
 6601SOL    HW220256   3.359   3.822   7.897
 6602SOL     OW20257   3.398   3.940   9.172
 6602SOL    HW120258   3.423   3.944   9.265
 6602SOL    HW220259   3.331   3.872   9.168
 6603SOL     OW20260   2.488   3.850   7.572
 6603SOL    HW120261   2.579   3.820   7.575
 6603SOL    HW220262   2.450   3.803   7.498
 6604SOL     OW20263   2.635   3.961   9.193
 6604SOL    HW120264   2.689   3.930   9.265
 6604SOL    HW220265   2.549   3.976   9.232
 6605SOL     OW20266   2.396   3.786   7.960
 6605SOL    HW120267   2.346   3.788   8.042
 6605SOL    HW220268   2.406   3.878   7.935
 6606SOL     OW20269   2.149   3.756   7.627
 6606SOL    HW120270   2.192   3.840   7.612
 6606SOL    HW220271   2.217   3.701   7.666
 6607SOL     OW20272   2.420   3.943   8.615
 6607SOL    HW120273   2.461   3.869   8.659
 6607SOL    HW220274   2.329   3.941   8.643
 6608SOL     OW20275   2.881   3.768   8.189
 6608SOL    HW120276   2.817   3.756   8.118
 6608SOL    HW220277   2.858   3.702   8.254
 6609SOL     OW20278   2.784   3.805   8.848
 6609SOL    HW120279   2.812   3.784   8.759
 6609SOL    HW220280   2.857   3.854   8.886
 6610SOL     OW20281   3.128   0.077   8.713
 6610SOL    HW120282   3.143   0.145   8.778
 6610SOL    HW220283   3.060   0.114   8.656
 6611SOL     OW20284   2.369   3.750   9.203
 6611SOL    HW120285   2.316   3.704   9.137
 6611SOL    HW220286   2.335   3.839   9.203
 6612SOL     OW20287   2.157   3.922   8.700
 6612SOL    HW120288   2.114   3.940   8.783
 6612SOL    HW220289   2.145   3.828   8.687
 6613SOL     OW20290   3.443   3.956   7.571
 6613SOL    HW120291   3.379   3.899   7.614
 6613SOL    HW220292   3.455   0.028   7.633
 6614SOL     OW20293   3.025   3.924   8.921
 6614SOL    HW120294   3.030   3.997   8.983
 6614SOL    HW220295   3.065   3.958   8.841
 6615SOL     OW20296   2.763   3.812   7.554
 6615SOL    HW120297   2.824   3.777   7.489
 6615SOL    HW220298   2.802   3.790   7.638
 6616SOL     OW20299   3.588   3.860   7.970
 6616SOL    HW120300   3.657   3.846   7.905
 6616SOL    HW220301   3.569   3.773   8.005
 6617SOL     OW20302   3.696   3.896   8.412
 6617SOL    HW120303   3.730   3.809   8.388
 6617SOL    HW220304   3.611   3.901   8.370
 6618SOL     OW20305   2.536   3.912   8.941
 6618SOL    HW120306   2.618   3.905   8.892
 6618SOL    HW220307   2.562   3.933   9.030
 6619SOL     OW20308   1.907   0.053   7.483
 6619SOL    HW120309   1.866   0.032   7.400
 6619SOL    HW220310   1.941   0.142   7.471
 6620SOL     OW20311   1.926   3.867   7.759
 6620SOL    HW120312   1.914   3.956   7.725
 6620SOL    HW220313   2.008   3.838   7.719
 6621SOL     OW20314   3.052   0.012   7.916
 6621SOL    HW120315   3.122   3.947   7.911
 6621SOL    HW220316   3.076   0.068   7.990
 6622SOL     OW20317   3.647   0.050   9.080
 6622SOL    HW120318   3.607   0.080   8.998
 6622SOL    HW220319   3.575   0.007   9.127
 6623SOL     OW20320   3.679   3.911   8.685
 6623SOL    HW120321   3.669   3.819   8.708
 6623SOL    HW220322   3.687   3.910   8.589
 6624SOL     OW20323   3.301   3.934   8.566
 6624SOL    HW120324   3.330   3.853   8.609
 6624SOL    HW220325   3.242   3.975   8.629
 6625SOL     OW20326   2.876   3.737   8.598
 6625SOL    HW120327   2.818   3.680   8.546
 6625SOL    HW220328   2.961   3.695   8.593
 6626SOL     OW20329   3.215   3.771   7.606
 6626SOL    HW120330   3.247   3.702   7.547
 6626SOL    HW220331   3.128   3.742   7.632
 6627SOL     OW20332   3.145   0.162   8.132
 6627SOL    HW120333   3.141   0.257   8.137
 6627SOL    HW220334   3.151   0.133   8.223
 6628SOL     OW20335   3.441   3.931   8.326
 6628SOL    HW120336   3.389   3.932   8.405
 6628SOL    HW220337   3.439   0.021   8.294
 6629SOL     OW20338   2.094   3.983  10.295
 6629SOL    HW120339   2.118   3.964  10.385
 6629SOL    HW220340   2.004   3.953  10.287
 6630SOL     OW20341   1.877   0.062  10.021
 6630SOL    HW120342   1.805   0.118   9.992
 6630SOL    HW220343   1.902   0.011   9.944
 6631SOL     OW20344   3.636   0.321   9.495
 6631SOL    HW120345   3.559   0.306   9.439
 6631SOL    HW220346   3.599   0.339   9.581
 6632SOL     OW20347   2.300   0.097  10.817
 6632SOL    HW120348   2.373   0.056  10.771
 6632SOL    HW220349   2.225   0.042  10.795
 6633SOL     OW20350   3.459   3.848  10.773
 6633SOL    HW120351   3.460   3.934  10.730
 6633SOL    HW220352   3.446   3.867  10.866
 6634SOL     OW20353   2.668   3.729   9.813
 6634SOL    HW120354   2.695   3.820   9.807
 6634SOL    HW220355   2.573   3.732   9.824
 6635SOL     OW20356   3.130   0.062  10.250
 6635SOL    HW120357   3.060   0.007  10.216
 6635SOL    HW220358   3.186   0.002  10.299
 6636SOL     OW20359   2.415   3.905  10.200
 6636SOL    HW120360   2.411   3.925  10.294
 6636SOL    HW220361   2.410   3.991  10.158
 6637SOL     OW20362   2.052   3.984  10.800
 6637SOL    HW120363   1.999   0.063  10.804
 6637SOL    HW220364   2.018   3.928  10.870
 6638SOL     OW20365   3.267   3.835   9.737
 6638SOL    HW120366   3.258   3.800   9.648
 6638SOL    HW220367   3.359   3.822   9.759
 6639SOL     OW20368   3.398   3.940  11.034
 6639SOL    HW120369   3.423   3.944  11.127
 6639SOL    HW220370   3.331   3.872  11.030
 6640SOL     OW20371   2.488   3.850   9.434
 6640SOL    HW120372   2.579   3.820   9.437
 6640SOL    HW220373   2.450   3.803   9.360
 6641SOL     OW20374   2.636   3.961  11.055
 6641SOL    HW120375   2.689   3.930  11.127
 6641SOL    HW220376   2.549   3.976  11.094
 6642SOL     OW20377   2.396   3.786   9.822
 6642SOL    HW120378   2.346   3.788   9.904
 6642SOL    HW220379   2.406   3.878   9.797
 6643SOL     OW20380   2.149   3.756   9.489
 6643SOL    HW120381   2.192   3.841   9.475
 6643SOL    HW220382   2.217   3.701   9.528
 6644SOL     OW20383   2.420   3.943  10.477
 6644SOL    HW120384   2.461   3.869  10.521
 6644SOL    HW220385   2.329   3.941  10.505
 6645SOL     OW20386   2.881   3.768  10.050
 6645SOL    HW120387   2.817   3.756   9.980
 6645SOL    HW220388   2.858   3.702  10.116
 6646SOL     OW20389   2.784   3.804  10.710
 6646SOL    HW120390   2.812   3.784  10.621
 6646SOL    HW220391   2.857   3.854  10.748
 6647SOL     OW20392   3.128   0.077  10.575
 6647SOL    HW120393   3.143   0.145  10.640
 6647SOL    HW220394   3.060   0.114  10.518
 6648SOL     OW20395   2.369   3.750  11.064
 6648SOL    HW120396   2.316   3.704  10.999
 6648SOL    HW220397   2.335   3.839  11.065
 6649SOL     OW20398   2.157   3.922  10.562
 6649SOL    HW120399   2.114   3.940  10.645
 6649SOL    HW220400   2.145   3.828  10.549
 6650SOL     OW20401   3.443   3.956   9.433
 6650SOL    HW120402   3.379   3.899   9.476
 6650SOL    HW220403   3.455   0.028   9.495
 6651SOL     OW20404   3.026   3.924  10.783
 6651SOL    HW120405   3.030   3.997  10.845
 6651SOL    HW220406   3.066   3.959  10.703
 6652SOL     OW20407   2.763   3.812   9.416
 6652SOL    HW120408   2.825   3.778   9.352
 6652SOL    HW220409   2.802   3.791   9.501
 6653SOL     OW20410   3.588   3.860   9.832
 6653SOL    HW120411   3.657   3.846   9.767
 6653SOL    HW220412   3.569   3.773   9.867
 6654SOL     OW20413   3.696   3.896  10.274
 6654SOL    HW120414   3.730   3.809  10.250
 6654SOL    HW220415   3.610   3.901  10.232
 6655SOL     OW20416   2.536   3.911  10.803
 6655SOL    HW120417   2.618   3.905  10.754
 6655SOL    HW220418   2.562   3.933  10.892
 6656SOL     OW20419   1.908   0.053   9.345
 6656SOL    HW120420   1.866   0.032   9.261
 6656SOL    HW220421   1.941   0.142   9.333
 6657SOL     OW20422   1.926   3.867   9.621
 6657SOL    HW120423   1.914   3.956   9.588
 6657SOL    HW220424   2.008   3.838   9.581
 6658SOL     OW20425   3.052   0.012   9.778
 6658SOL    HW120426   3.122   3.947   9.773
 6658SOL    HW220427   3.076   0.068   9.852
 6659SOL     OW20428   3.647   0.050  10.941
 6659SOL    HW120429   3.607   0.080  10.860
 6659SOL    HW220430   3.575   0.007  10.989
 6660SOL     OW20431   3.679   3.911  10.547
 6660SOL    HW120432   3.669   3.819  10.570
 6660SOL    HW220433   3.687   3.910  10.451
 6661SOL     OW20434   3.301   3.934  10.428
 6661SOL    HW120435   3.330   3.853  10.471
 6661SOL    HW220436   3.242   3.975  10.491
 6662SOL     OW20437   2.876   3.737  10.460
 6662SOL    HW120438   2.818   3.680  10.408
 6662SOL    HW220439   2.961   3.695  10.455
 6663SOL     OW20440   3.215   3.771   9.468
 6663SOL    HW120441   3.247   3.702   9.410
 6663SOL    HW220442   3.128   3.742   9.495
 6664SOL     OW20443   3.145   0.162   9.994
 6664SOL    HW120444   3.141   0.257   9.999
 6664SOL    HW220445   3.151   0.133  10.085
 6665SOL     OW20446   3.441   3.931  10.188
 6665SOL    HW120447   3.388   3.932  10.267
 6665SOL    HW220448   3.439   0.021  10.156
 6666SOL     OW20449   2.094   3.983  12.157
 6666SOL    HW120450   2.118   3.964  12.247
 6666SOL    HW220451   2.004   3.953  12.149
 6667SOL     OW20452   1.877   0.062  11.883
 6667SOL    HW120453   1.805   0.118  11.854
 6667SOL    HW220454   1.902   0.011  11.806
 6668SOL     OW20455   3.636   0.321  11.357
 6668SOL    HW120456   3.559   0.306  11.301
 6668SOL    HW220457   3.599   0.339  11.443
 6669SOL     OW20458   2.300   0.097  12.679
 6669SOL    HW120459   2.373   0.056  12.633
 6669SOL    HW220460   2.224   0.042  12.657
 6670SOL     OW20461   3.460   3.848  12.635
 6670SOL    HW120462   3.460   3.934  12.593
 6670SOL    HW220463   3.446   3.867  12.728
 6671SOL     OW20464   2.668   3.729  11.674
 6671SOL    HW120465   2.695   3.820  11.669
 6671SOL    HW220466   2.573   3.732  11.686
 6672SOL     OW20467   3.130   0.062  12.112
 6672SOL    HW120468   3.060   0.007  12.078
 6672SOL    HW220469   3.186   0.002  12.161
 6673SOL     OW20470   2.415   3.905  12.062
 6673SOL    HW120471   2.411   3.925  12.156
 6673SOL    HW220472   2.410   3.991  12.020
 6674SOL     OW20473   2.052   3.984  12.662
 6674SOL    HW120474   1.998   0.062  12.666
 6674SOL    HW220475   2.019   3.927  12.732
 6675SOL     OW20476   3.267   3.835  11.599
 6675SOL    HW120477   3.258   3.800  11.510
 6675SOL    HW220478   3.359   3.822  11.621
 6676SOL     OW20479   3.397   3.940  12.896
 6676SOL    HW120480   3.421   3.945  12.989
 6676SOL    HW220481   3.331   3.872  12.892
 6677SOL     OW20482   2.488   3.850  11.296
 6677SOL    HW120483   2.579   3.820  11.299
 6677SOL    HW220484   2.450   3.803  11.222
 6678SOL     OW20485   2.635   3.961  12.917
 6678SOL    HW120486   2.689   3.930  12.989
 6678SOL    HW220487   2.549   3.975  12.956
 6679SOL     OW20488   2.396   3.786  11.684
 6679SOL    HW120489   2.346   3.788  11.766
 6679SOL    HW220490   2.406   3.878  11.659
 6680SOL     OW20491   2.149   3.756  11.350
 6680SOL    HW120492   2.192   3.841  11.337
 6680SOL    HW220493   2.218   3.701  11.390
 6681SOL     OW20494   2.420   3.943  12.339
 6681SOL    HW120495   2.461   3.869  12.383
 6681SOL    HW220496   2.329   3.941  12.367
 6682SOL     OW20497   2.881   3.768  11.912
 6682SOL    HW120498   2.817   3.756  11.842
 6682SOL    HW220499   2.858   3.702  11.978
 6683SOL     OW20500   2.784   3.805  12.572
 6683SOL    HW120501   2.812   3.784  12.483
 6683SOL    HW220502   2.857   3.854  12.610
 6684SOL     OW20503   3.128   0.077  12.436
 6684SOL    HW120504   3.143   0.145  12.502
 6684SOL    HW220505   3.060   0.113  12.380
 6685SOL     OW20506   2.369   3.750  12.926
 6685SOL    HW120507   2.316   3.704  12.861
 6685SOL    HW220508   2.334   3.839  12.927
 6686SOL     OW20509   2.157   3.922  12.424
 6686SOL    HW120510   2.114   3.940  12.507
 6686SOL    HW220511   2.145   3.828  12.411
 6687SOL     OW20512   3.443   3.956  11.295
 6687SOL    HW120513   3.379   3.899  11.338
 6687SOL    HW220514   3.455   0.029  11.357
 6688SOL     OW20515   3.025   3.924  12.645
 6688SOL    HW120516   3.030   3.996  12.707
 6688SOL    HW220517   3.065   3.959  12.565
 6689SOL     OW20518   2.763   3.812  11.278
 6689SOL    HW120519   2.825   3.778  11.214
 6689SOL    HW220520   2.802   3.791  11.363
 6690SOL     OW20521   3.588   3.860  11.694
 6690SOL    HW120522   3.657   3.846  11.629
 6690SOL    HW220523   3.569   3.773  11.729
 6691SOL     OW20524   3.696   3.896  12.136
 6691SOL    HW120525   3.730   3.809  12.112
 6691SOL    HW220526   3.610   3.901  12.094
 6692SOL     OW20527   2.536   3.912  12.665
 6692SOL    HW120528   2.618   3.905  12.616
 6692SOL    HW220529   2.562   3.933  12.754
 6693SOL     OW20530   1.908   0.053  11.207
 6693SOL    HW120531   1.866   0.032  11.123
 6693SOL    HW220532   1.941   0.142  11.195
 6694SOL     OW20533   1.926   3.867  11.483
 6694SOL    HW120534   1.914   3.956  11.450
 6694SOL    HW220535   2.008   3.838  11.443
 6695SOL     OW20536   3.052   0.012  11.640
 6695SOL    HW120537   3.122   3.947  11.635
 6695SOL    HW220538   3.076   0.068  11.714
 6696SOL     OW20539   3.647   0.050  12.803
 6696SOL    HW120540   3.607   0.080  12.721
 6696SOL    HW220541   3.576   0.007  12.851
 6697SOL     OW20542   3.680   3.911  12.409
 6697SOL    HW120543   3.669   3.819  12.432
 6697SOL    HW220544   3.687   3.910  12.313
 6698SOL     OW20545   3.301   3.934  12.290
 6698SOL    HW120546   3.330   3.853  12.333
 6698SOL    HW220547   3.242   3.975  12.353
 6699SOL     OW20548   2.876   3.737  12.322
 6699SOL    HW120549   2.818   3.680  12.271
 6699SOL    HW220550   2.961   3.695  12.317
 6700SOL     OW20551   3.215   3.771  11.330
 6700SOL    HW120552   3.247   3.702  11.272
 6700SOL    HW220553   3.128   3.742  11.357
 6701SOL     OW20554   3.145   0.162  11.856
 6701SOL    HW120555   3.141   0.257  11.861
 6701SOL    HW220556   3.151   0.133  11.947
 6702SOL     OW20557   3.441   3.931  12.050
 6702SOL    HW120558   3.388   3.932  12.129
 6702SOL    HW220559   3.439   0.021  12.018
 6703SOL     OW20560   1.883   0.090  13.687
 6703SOL    HW120561   1.802   0.108  13.736
 6703SOL    HW220562   1.872   0.001  13.655
 6704SOL     OW20563   3.635   0.319  13.219
 6704SOL    HW120564   3.558   0.307  13.163
 6704SOL    HW220565   3.600   0.331  13.307
 6705SOL     OW20566   3.466   0.175  13.764
 6705SOL    HW120567   3.377   0.158  13.732
 6705SOL    HW220568   3.460   0.259  13.809
 6706SOL     OW20569   2.670   3.729  13.538
 6706SOL    HW120570   2.694   3.821  13.532
 6706SOL    HW220571   2.575   3.730  13.549
 6707SOL     OW20572   3.267   3.837  13.460
 6707SOL    HW120573   3.261   3.800  13.371
 6707SOL    HW220574   3.360   3.829  13.483
 6708SOL     OW20575   2.488   3.851  13.157
 6708SOL    HW120576   2.579   3.820  13.161
 6708SOL    HW220577   2.450   3.803  13.084
 6709SOL     OW20578   2.397   3.783  13.545
 6709SOL    HW120579   2.343   3.775  13.623
 6709SOL    HW220580   2.403   3.877  13.529
 6710SOL     OW20581   2.150   3.756  13.212
 6710SOL    HW120582   2.193   3.840  13.198
 6710SOL    HW220583   2.216   3.701  13.252
 6711SOL     OW20584   2.873   3.765  13.775
 6711SOL    HW120585   2.817   3.759  13.697
 6711SOL    HW220586   2.854   3.686  13.824
 6712SOL     OW20587   3.441   3.960  13.157
 6712SOL    HW120588   3.383   3.898  13.201
 6712SOL    HW220589   3.470   0.019  13.227
 6713SOL     OW20590   2.763   3.812  13.140
 6713SOL    HW120591   2.825   3.778  13.075
 6713SOL    HW220592   2.802   3.789  13.224
 6714SOL     OW20593   3.590   3.858  13.564
 6714SOL    HW120594   3.657   3.848  13.497
 6714SOL    HW220595   3.573   3.769  13.595
 6715SOL     OW20596   3.711   3.891   0.047
 6715SOL    HW120597   3.742   3.801   0.058
 6715SOL    HW220598   3.622   3.889   0.080
 6716SOL     OW20599   1.909   0.052  13.067
 6716SOL    HW120600   1.866   0.032  12.984
 6716SOL    HW220601   1.941   0.142  13.056
 6717SOL     OW20602   1.924   3.868  13.344
 6717SOL    HW120603   1.915   3.960  13.318
 6717SOL    HW220604   2.006   3.840  13.304
 6718SOL     OW20605   3.048   0.005  13.513
 6718SOL    HW120606   3.122   3.946  13.495
 6718SOL    HW220607   3.081   0.065  13.580
 6719SOL     OW20608   3.216   3.771  13.191
 6719SOL    HW120609   3.246   3.701  13.133
 6719SOL    HW220610   3.129   3.743  13.219
 6720SOL     OW20611   3.171   0.158  13.734
 6720SOL    HW120612   3.134   0.244  13.715
 6720SOL    HW220613   3.156   0.145  13.827
 6721SOL     OW20614   3.955   0.632   0.124
 6721SOL    HW120615   3.888   0.628   0.193
 6721SOL    HW220616   3.920   0.577   0.054
 6722SOL     OW20617   3.953   0.295   0.991
 6722SOL    HW120618   3.965   0.273   1.083
 6722SOL    HW220619   3.867   0.260   0.969
 6723SOL     OW20620   3.731   0.393   0.639
 6723SOL    HW120621   3.644   0.407   0.675
 6723SOL    HW220622   3.722   0.316   0.583
 6724SOL     OW20623   0.013   1.521   1.050
 6724SOL    HW120624   3.965   1.440   1.035
 6724SOL    HW220625   0.082   1.519   0.983
 6725SOL     OW20626   3.946   1.718   0.473
 6725SOL    HW120627   3.948   1.792   0.533
 6725SOL    HW220628   0.038   1.706   0.448
 6726SOL     OW20629   3.937   1.438   0.509
 6726SOL    HW120630   3.926   1.533   0.513
 6726SOL    HW220631   3.884   1.404   0.581
 6727SOL     OW20632   3.810   0.648   0.557
 6727SOL    HW120633   3.795   0.557   0.581
 6727SOL    HW220634   3.813   0.696   0.640
 6728SOL     OW20635   3.698   1.616   0.102
 6728SOL    HW120636   3.732   1.528   0.120
 6728SOL    HW220637   3.701   1.661   0.187
 6729SOL     OW20638   3.827   0.748   1.578
 6729SOL    HW120639   3.911   0.786   1.605
 6729SOL    HW220640   3.768   0.823   1.575
 6730SOL     OW20641   3.803   0.818   0.772
 6730SOL    HW120642   3.896   0.812   0.793
 6730SOL    HW220643   3.771   0.891   0.824
 6731SOL     OW20644   3.847   1.866   1.568
 6731SOL    HW120645   3.849   1.836   1.660
 6731SOL    HW220646   3.763   1.836   1.535
 6732SOL     OW20647   3.924   0.310   1.519
 6732SOL    HW120648   3.848   0.356   1.484
 6732SOL    HW220649   3.887   0.247   1.581
 6733SOL     OW20650   3.806   0.549   1.391
 6733SOL    HW120651   3.901   0.546   1.378
 6733SOL    HW220652   3.792   0.625   1.447
 6734SOL     OW20653   3.790   1.573   1.348
 6734SOL    HW120654   3.763   1.637   1.283
 6734SOL    HW220655   3.886   1.579   1.350
 6735SOL     OW20656   0.070   1.093   0.531
 6735SOL    HW120657   0.084   1.152   0.457
 6735SOL    HW220658   0.139   1.028   0.523
 6736SOL     OW20659   0.007   0.215   1.245
 6736SOL    HW120660   3.981   0.240   1.333
 6736SOL    HW220661   0.006   0.119   1.245
 6737SOL     OW20662   3.753   1.311   1.278
 6737SOL    HW120663   3.797   1.262   1.347
 6737SOL    HW220664   3.766   1.403   1.301
 6738SOL     OW20665   3.742   1.317   0.173
 6738SOL    HW120666   3.659   1.331   0.127
 6738SOL    HW220667   3.729   1.234   0.219
 6739SOL     OW20668   3.801   1.795   0.937
 6739SOL    HW120669   3.779   1.713   0.892
 6739SOL    HW220670   3.895   1.806   0.922
 6740SOL     OW20671   0.215   1.553   0.871
 6740SOL    HW120672   0.287   1.616   0.872
 6740SOL    HW220673   0.237   1.492   0.801
 6741SOL     OW20674   3.753   0.535   1.117
 6741SOL    HW120675   3.833   0.526   1.065
 6741SOL    HW220676   3.784   0.547   1.206
 6742SOL     OW20677   3.907   0.529   1.714
 6742SOL    HW120678   3.944   0.477   1.643
 6742SOL    HW220679   3.860   0.600   1.669
 6743SOL     OW20680   3.944   1.535   1.726
 6743SOL    HW120681   3.936   1.613   1.781
 6743SOL    HW220682   3.988   1.471   1.783
 6744SOL     OW20683   3.860   1.130   1.474
 6744SOL    HW120684   3.931   1.121   1.536
 6744SOL    HW220685   3.894   1.094   1.392
 6745SOL     OW20686   3.810   1.266   1.013
 6745SOL    HW120687   3.783   1.278   1.104
 6745SOL    HW220688   3.748   1.202   0.978
 6746SOL     OW20689   3.840   1.792   1.827
 6746SOL    HW120690   3.790   1.726   1.874
 6746SOL    HW220691   3.892   1.835   1.895
 6747SOL     OW20692   3.803   0.401   0.004
 6747SOL    HW120693   3.766   0.319   0.036
 6747SOL    HW220694   3.775   0.407  13.812
 6748SOL     OW20695   3.793   0.145   0.346
 6748SOL    HW120696   3.758   0.222   0.302
 6748SOL    HW220697   3.888   0.159   0.346
 6749SOL     OW20698   3.800   1.235   0.663
 6749SOL    HW120699   3.793   1.188   0.746
 6749SOL    HW220700   3.884   1.208   0.626
 6750SOL     OW20701   3.752   1.079   0.306
 6750SOL    HW120702   3.848   1.084   0.304
 6750SOL    HW220703   3.733   0.988   0.328
 6751SOL     OW20704   3.956   0.630   1.970
 6751SOL    HW120705   3.875   0.633   2.020
 6751SOL    HW220706   3.931   0.598   1.884
 6752SOL     OW20707   3.954   0.293   2.852
 6752SOL    HW120708   3.965   0.273   2.945
 6752SOL    HW220709   3.866   0.259   2.831
 6753SOL     OW20710   3.731   0.392   2.501
 6753SOL    HW120711   3.644   0.407   2.537
 6753SOL    HW220712   3.720   0.315   2.445
 6754SOL     OW20713   0.013   1.521   2.911
 6754SOL    HW120714   3.965   1.439   2.898
 6754SOL    HW220715   0.082   1.520   2.845
 6755SOL     OW20716   3.941   1.719   2.336
 6755SOL    HW120717   3.948   1.792   2.398
 6755SOL    HW220718   0.032   1.702   2.309
 6756SOL     OW20719   3.942   1.439   2.372
 6756SOL    HW120720   3.922   1.532   2.375
 6756SOL    HW220721   3.886   1.400   2.439
 6757SOL     OW20722   3.809   0.648   2.420
 6757SOL    HW120723   3.795   0.557   2.445
 6757SOL    HW220724   3.813   0.696   2.502
 6758SOL     OW20725   3.754   1.596   1.991
 6758SOL    HW120726   3.734   1.504   2.009
 6758SOL    HW220727   3.724   1.643   2.068
 6759SOL     OW20728   3.827   0.749   3.440
 6759SOL    HW120729   3.911   0.786   3.467
 6759SOL    HW220730   3.768   0.823   3.437
 6760SOL     OW20731   3.803   0.817   2.635
 6760SOL    HW120732   3.897   0.811   2.656
 6760SOL    HW220733   3.772   0.891   2.686
 6761SOL     OW20734   3.847   1.866   3.430
 6761SOL    HW120735   3.849   1.836   3.522
 6761SOL    HW220736   3.763   1.836   3.397
 6762SOL     OW20737   3.924   0.310   3.381
 6762SOL    HW120738   3.848   0.356   3.346
 6762SOL    HW220739   3.887   0.247   3.443
 6763SOL     OW20740   3.806   0.549   3.253
 6763SOL    HW120741   3.901   0.546   3.240
 6763SOL    HW220742   3.792   0.625   3.309
 6764SOL     OW20743   0.267   0.290   2.196
 6764SOL    HW120744   0.310   0.224   2.141
 6764SOL    HW220745   0.298   0.374   2.162
 6765SOL     OW20746   3.790   1.573   3.210
 6765SOL    HW120747   3.763   1.637   3.145
 6765SOL    HW220748   3.886   1.579   3.212
 6766SOL     OW20749   0.068   1.092   2.388
 6766SOL    HW120750   0.068   1.141   2.305
 6766SOL    HW220751   0.128   1.019   2.373
 6767SOL     OW20752   0.007   0.215   3.107
 6767SOL    HW120753   3.981   0.241   3.195
 6767SOL    HW220754   0.006   0.120   3.108
 6768SOL     OW20755   3.753   1.311   3.140
 6768SOL    HW120756   3.797   1.262   3.210
 6768SOL    HW220757   3.766   1.403   3.163
 6769SOL     OW20758   3.729   1.327   2.049
 6769SOL    HW120759   3.643   1.340   2.010
 6769SOL    HW220760   3.722   1.243   2.095
 6770SOL     OW20761   3.801   1.795   2.799
 6770SOL    HW120762   3.779   1.713   2.754
 6770SOL    HW220763   3.895   1.806   2.785
 6771SOL     OW20764   0.215   1.554   2.733
 6771SOL    HW120765   0.288   1.615   2.735
 6771SOL    HW220766   0.237   1.491   2.664
 6772SOL     OW20767   3.753   0.535   2.979
 6772SOL    HW120768   3.833   0.527   2.927
 6772SOL    HW220769   3.784   0.546   3.069
 6773SOL     OW20770   3.907   0.529   3.576
 6773SOL    HW120771   3.944   0.477   3.505
 6773SOL    HW220772   3.860   0.600   3.531
 6774SOL     OW20773   3.944   1.535   3.588
 6774SOL    HW120774   3.936   1.613   3.643
 6774SOL    HW220775   3.988   1.471   3.644
 6775SOL     OW20776   3.860   1.130   3.336
 6775SOL    HW120777   3.932   1.121   3.398
 6775SOL    HW220778   3.894   1.093   3.254
 6776SOL     OW20779   3.810   1.266   2.875
 6776SOL    HW120780   3.783   1.278   2.966
 6776SOL    HW220781   3.748   1.202   2.840
 6777SOL     OW20782   3.840   1.792   3.689
 6777SOL    HW120783   3.790   1.726   3.736
 6777SOL    HW220784   3.892   1.835   3.757
 6778SOL     OW20785   3.823   0.316   1.856
 6778SOL    HW120786   3.752   0.334   1.918
 6778SOL    HW220787   3.826   0.394   1.799
 6779SOL     OW20788   3.779   0.152   2.207
 6779SOL    HW120789   3.748   0.209   2.137
 6779SOL    HW220790   3.874   0.151   2.196
 6780SOL     OW20791   3.801   1.238   2.526
 6780SOL    HW120792   3.794   1.188   2.608
 6780SOL    HW220793   3.880   1.205   2.484
 6781SOL     OW20794   3.753   1.082   2.172
 6781SOL    HW120795   3.843   1.082   2.140
 6781SOL    HW220796   3.735   0.990   2.192
 6782SOL     OW20797   3.956   0.630   3.833
 6782SOL    HW120798   3.875   0.633   3.882
 6782SOL    HW220799   3.931   0.598   3.746
 6783SOL     OW20800   3.954   0.293   4.714
 6783SOL    HW120801   3.965   0.273   4.807
 6783SOL    HW220802   3.866   0.259   4.693
 6784SOL     OW20803   3.731   0.392   4.363
 6784SOL    HW120804   3.644   0.407   4.399
 6784SOL    HW220805   3.720   0.315   4.307
 6785SOL     OW20806   0.013   1.521   4.773
 6785SOL    HW120807   3.965   1.439   4.759
 6785SOL    HW220808   0.082   1.520   4.707
 6786SOL     OW20809   3.941   1.719   4.198
 6786SOL    HW120810   3.948   1.792   4.260
 6786SOL    HW220811   0.032   1.702   4.171
 6787SOL     OW20812   3.942   1.439   4.234
 6787SOL    HW120813   3.922   1.532   4.237
 6787SOL    HW220814   3.886   1.400   4.301
 6788SOL     OW20815   3.809   0.648   4.282
 6788SOL    HW120816   3.795   0.557   4.307
 6788SOL    HW220817   3.813   0.696   4.364
 6789SOL     OW20818   3.754   1.596   3.853
 6789SOL    HW120819   3.734   1.504   3.871
 6789SOL    HW220820   3.724   1.643   3.930
 6790SOL     OW20821   3.827   0.749   5.302
 6790SOL    HW120822   3.911   0.786   5.329
 6790SOL    HW220823   3.768   0.823   5.299
 6791SOL     OW20824   3.803   0.817   4.497
 6791SOL    HW120825   3.897   0.811   4.518
 6791SOL    HW220826   3.772   0.891   4.548
 6792SOL     OW20827   3.847   1.866   5.292
 6792SOL    HW120828   3.849   1.836   5.384
 6792SOL    HW220829   3.762   1.836   5.259
 6793SOL     OW20830   3.924   0.310   5.243
 6793SOL    HW120831   3.848   0.356   5.208
 6793SOL    HW220832   3.887   0.247   5.305
 6794SOL     OW20833   3.806   0.549   5.115
 6794SOL    HW120834   3.901   0.546   5.102
 6794SOL    HW220835   3.792   0.625   5.171
 6795SOL     OW20836   0.267   0.290   4.058
 6795SOL    HW120837   0.310   0.224   4.003
 6795SOL    HW220838   0.298   0.374   4.025
 6796SOL     OW20839   3.790   1.573   5.072
 6796SOL    HW120840   3.763   1.637   5.007
 6796SOL    HW220841   3.886   1.579   5.074
 6797SOL     OW20842   0.068   1.092   4.250
 6797SOL    HW120843   0.068   1.141   4.167
 6797SOL    HW220844   0.128   1.019   4.235
 6798SOL     OW20845   0.007   0.215   4.968
 6798SOL    HW120846   3.981   0.241   5.057
 6798SOL    HW220847   0.006   0.120   4.970
 6799SOL     OW20848   3.752   1.311   5.002
 6799SOL    HW120849   3.797   1.262   5.072
 6799SOL    HW220850   3.766   1.403   5.025
 6800SOL     OW20851   3.729   1.327   3.911
 6800SOL    HW120852   3.643   1.340   3.872
 6800SOL    HW220853   3.722   1.243   3.957
 6801SOL     OW20854   3.801   1.795   4.661
 6801SOL    HW120855   3.779   1.714   4.616
 6801SOL    HW220856   3.895   1.806   4.647
 6802SOL     OW20857   0.215   1.554   4.595
 6802SOL    HW120858   0.288   1.615   4.597
 6802SOL    HW220859   0.238   1.491   4.526
 6803SOL     OW20860   3.753   0.535   4.841
 6803SOL    HW120861   3.833   0.527   4.789
 6803SOL    HW220862   3.784   0.546   4.931
 6804SOL     OW20863   3.907   0.529   5.438
 6804SOL    HW120864   3.945   0.477   5.367
 6804SOL    HW220865   3.860   0.600   5.393
 6805SOL     OW20866   3.944   1.535   5.451
 6805SOL    HW120867   3.936   1.613   5.505
 6805SOL    HW220868   3.989   1.471   5.506
 6806SOL     OW20869   3.860   1.130   5.198
 6806SOL    HW120870   3.932   1.121   5.260
 6806SOL    HW220871   3.894   1.093   5.116
 6807SOL     OW20872   3.810   1.266   4.737
 6807SOL    HW120873   3.783   1.278   4.828
 6807SOL    HW220874   3.748   1.202   4.702
 6808SOL     OW20875   3.840   1.792   5.551
 6808SOL    HW120876   3.790   1.726   5.598
 6808SOL    HW220877   3.892   1.835   5.619
 6809SOL     OW20878   3.823   0.316   3.718
 6809SOL    HW120879   3.752   0.334   3.780
 6809SOL    HW220880   3.825   0.394   3.662
 6810SOL     OW20881   3.779   0.152   4.069
 6810SOL    HW120882   3.748   0.209   3.999
 6810SOL    HW220883   3.874   0.151   4.058
 6811SOL     OW20884   3.800   1.238   4.388
 6811SOL    HW120885   3.794   1.188   4.470
 6811SOL    HW220886   3.880   1.205   4.346
 6812SOL     OW20887   3.753   1.082   4.034
 6812SOL    HW120888   3.843   1.082   4.002
 6812SOL    HW220889   3.735   0.990   4.054
 6813SOL     OW20890   3.956   0.630   5.695
 6813SOL    HW120891   3.875   0.633   5.744
 6813SOL    HW220892   3.931   0.598   5.608
 6814SOL     OW20893   3.954   0.293   6.576
 6814SOL    HW120894   3.965   0.273   6.669
 6814SOL    HW220895   3.866   0.259   6.555
 6815SOL     OW20896   3.731   0.392   6.225
 6815SOL    HW120897   3.644   0.407   6.261
 6815SOL    HW220898   3.720   0.315   6.169
 6816SOL     OW20899   0.013   1.521   6.635
 6816SOL    HW120900   3.965   1.439   6.621
 6816SOL    HW220901   0.082   1.520   6.569
 6817SOL     OW20902   3.941   1.719   6.060
 6817SOL    HW120903   3.948   1.792   6.122
 6817SOL    HW220904   0.032   1.702   6.033
 6818SOL     OW20905   3.942   1.439   6.096
 6818SOL    HW120906   3.922   1.532   6.099
 6818SOL    HW220907   3.886   1.400   6.163
 6819SOL     OW20908   3.809   0.648   6.144
 6819SOL    HW120909   3.795   0.557   6.169
 6819SOL    HW220910   3.813   0.696   6.227
 6820SOL     OW20911   3.754   1.596   5.715
 6820SOL    HW120912   3.734   1.504   5.733
 6820SOL    HW220913   3.724   1.643   5.792
 6821SOL     OW20914   3.827   0.749   7.164
 6821SOL    HW120915   3.912   0.786   7.191
 6821SOL    HW220916   3.768   0.823   7.161
 6822SOL     OW20917   3.803   0.817   6.359
 6822SOL    HW120918   3.897   0.812   6.380
 6822SOL    HW220919   3.772   0.891   6.410
 6823SOL     OW20920   3.848   1.866   7.154
 6823SOL    HW120921   3.849   1.836   7.245
 6823SOL    HW220922   3.762   1.837   7.121
 6824SOL     OW20923   3.924   0.310   7.105
 6824SOL    HW120924   3.848   0.356   7.070
 6824SOL    HW220925   3.887   0.247   7.167
 6825SOL     OW20926   3.806   0.549   6.977
 6825SOL    HW120927   3.901   0.546   6.964
 6825SOL    HW220928   3.792   0.625   7.033
 6826SOL     OW20929   0.266   0.290   5.920
 6826SOL    HW120930   0.310   0.225   5.865
 6826SOL    HW220931   0.298   0.374   5.887
 6827SOL     OW20932   3.790   1.573   6.934
 6827SOL    HW120933   3.763   1.637   6.869
 6827SOL    HW220934   3.886   1.579   6.936
 6828SOL     OW20935   0.067   1.092   6.111
 6828SOL    HW120936   0.068   1.141   6.030
 6828SOL    HW220937   0.129   1.020   6.097
 6829SOL     OW20938   0.007   0.215   6.831
 6829SOL    HW120939   3.981   0.241   6.919
 6829SOL    HW220940   0.006   0.120   6.832
 6830SOL     OW20941   3.752   1.311   6.864
 6830SOL    HW120942   3.797   1.263   6.933
 6830SOL    HW220943   3.766   1.403   6.887
 6831SOL     OW20944   3.729   1.327   5.773
 6831SOL    HW120945   3.643   1.340   5.734
 6831SOL    HW220946   3.722   1.243   5.819
 6832SOL     OW20947   3.801   1.795   6.523
 6832SOL    HW120948   3.779   1.713   6.478
 6832SOL    HW220949   3.895   1.806   6.509
 6833SOL     OW20950   0.215   1.554   6.457
 6833SOL    HW120951   0.288   1.615   6.459
 6833SOL    HW220952   0.237   1.491   6.388
 6834SOL     OW20953   3.753   0.535   6.703
 6834SOL    HW120954   3.833   0.527   6.651
 6834SOL    HW220955   3.784   0.546   6.793
 6835SOL     OW20956   3.907   0.529   7.300
 6835SOL    HW120957   3.944   0.477   7.229
 6835SOL    HW220958   3.860   0.600   7.256
 6836SOL     OW20959   3.944   1.535   7.313
 6836SOL    HW120960   3.936   1.613   7.367
 6836SOL    HW220961   3.989   1.471   7.368
 6837SOL     OW20962   3.860   1.129   7.060
 6837SOL    HW120963   3.932   1.121   7.122
 6837SOL    HW220964   3.894   1.094   6.978
 6838SOL     OW20965   3.810   1.266   6.599
 6838SOL    HW120966   3.783   1.278   6.690
 6838SOL    HW220967   3.748   1.202   6.564
 6839SOL     OW20968   3.841   1.792   7.413
 6839SOL    HW120969   3.790   1.726   7.460
 6839SOL    HW220970   3.892   1.835   7.481
 6840SOL     OW20971   3.823   0.316   5.580
 6840SOL    HW120972   3.752   0.334   5.642
 6840SOL    HW220973   3.826   0.394   5.523
 6841SOL     OW20974   3.779   0.152   5.931
 6841SOL    HW120975   3.748   0.209   5.861
 6841SOL    HW220976   3.874   0.151   5.920
 6842SOL     OW20977   3.800   1.238   6.250
 6842SOL    HW120978   3.794   1.188   6.332
 6842SOL    HW220979   3.880   1.205   6.208
 6843SOL     OW20980   3.752   1.082   5.896
 6843SOL    HW120981   3.843   1.082   5.864
 6843SOL    HW220982   3.735   0.990   5.916
 6844SOL     OW20983   3.956   0.630   7.557
 6844SOL    HW120984   3.875   0.633   7.606
 6844SOL    HW220985   3.931   0.598   7.470
 6845SOL     OW20986   3.953   0.293   8.438
 6845SOL    HW120987   3.965   0.273   8.531
 6845SOL    HW220988   3.866   0.259   8.417
 6846SOL     OW20989   3.731   0.392   8.087
 6846SOL    HW120990   3.644   0.407   8.123
 6846SOL    HW220991   3.720   0.315   8.030
 6847SOL     OW20992   0.013   1.521   8.498
 6847SOL    HW120993   3.965   1.439   8.483
 6847SOL    HW220994   0.082   1.520   8.431
 6848SOL     OW20995   3.941   1.719   7.922
 6848SOL    HW120996   3.948   1.792   7.984
 6848SOL    HW220997   0.031   1.702   7.895
 6849SOL     OW20998   3.943   1.439   7.959
 6849SOL    HW120999   3.922   1.532   7.961
 6849SOL    HW221000   3.886   1.400   8.025
 6850SOL     OW21001   3.809   0.648   8.006
 6850SOL    HW121002   3.795   0.557   8.031
 6850SOL    HW221003   3.813   0.696   8.089
 6851SOL     OW21004   3.755   1.596   7.577
 6851SOL    HW121005   3.734   1.505   7.595
 6851SOL    HW221006   3.724   1.643   7.655
 6852SOL     OW21007   3.827   0.749   9.026
 6852SOL    HW121008   3.911   0.786   9.053
 6852SOL    HW221009   3.768   0.823   9.023
 6853SOL     OW21010   3.803   0.817   8.221
 6853SOL    HW121011   3.897   0.811   8.242
 6853SOL    HW221012   3.772   0.891   8.272
 6854SOL     OW21013   3.847   1.866   9.016
 6854SOL    HW121014   3.849   1.836   9.108
 6854SOL    HW221015   3.763   1.836   8.983
 6855SOL     OW21016   3.924   0.310   8.967
 6855SOL    HW121017   3.848   0.356   8.932
 6855SOL    HW221018   3.887   0.247   9.029
 6856SOL     OW21019   3.806   0.549   8.839
 6856SOL    HW121020   3.901   0.546   8.826
 6856SOL    HW221021   3.792   0.625   8.895
 6857SOL     OW21022   0.267   0.290   7.782
 6857SOL    HW121023   0.310   0.224   7.727
 6857SOL    HW221024   0.298   0.374   7.748
 6858SOL     OW21025   3.790   1.573   8.796
 6858SOL    HW121026   3.763   1.637   8.731
 6858SOL    HW221027   3.886   1.579   8.798
 6859SOL     OW21028   0.068   1.092   7.974
 6859SOL    HW121029   0.068   1.141   7.891
 6859SOL    HW221030   0.129   1.020   7.958
 6860SOL     OW21031   0.007   0.215   8.693
 6860SOL    HW121032   3.981   0.241   8.781
 6860SOL    HW221033   0.006   0.120   8.694
 6861SOL     OW21034   3.752   1.311   8.726
 6861SOL    HW121035   3.797   1.262   8.796
 6861SOL    HW221036   3.766   1.403   8.749
 6862SOL     OW21037   3.729   1.326   7.636
 6862SOL    HW121038   3.643   1.340   7.596
 6862SOL    HW221039   3.722   1.242   7.681
 6863SOL     OW21040   3.801   1.795   8.385
 6863SOL    HW121041   3.779   1.714   8.340
 6863SOL    HW221042   3.895   1.806   8.371
 6864SOL     OW21043   0.215   1.554   8.319
 6864SOL    HW121044   0.288   1.615   8.321
 6864SOL    HW221045   0.237   1.492   8.250
 6865SOL     OW21046   3.753   0.535   8.565
 6865SOL    HW121047   3.833   0.527   8.513
 6865SOL    HW221048   3.784   0.546   8.655
 6866SOL     OW21049   3.907   0.529   9.162
 6866SOL    HW121050   3.944   0.477   9.091
 6866SOL    HW221051   3.860   0.600   9.117
 6867SOL     OW21052   3.944   1.535   9.175
 6867SOL    HW121053   3.936   1.613   9.229
 6867SOL    HW221054   3.988   1.471   9.231
 6868SOL     OW21055   3.860   1.130   8.922
 6868SOL    HW121056   3.932   1.121   8.984
 6868SOL    HW221057   3.894   1.094   8.840
 6869SOL     OW21058   3.810   1.266   8.461
 6869SOL    HW121059   3.783   1.278   8.552
 6869SOL    HW221060   3.749   1.202   8.426
 6870SOL     OW21061   3.840   1.792   9.275
 6870SOL    HW121062   3.790   1.726   9.322
 6870SOL    HW221063   3.892   1.835   9.343
 6871SOL     OW21064   3.823   0.316   7.442
 6871SOL    HW121065   3.752   0.335   7.503
 6871SOL    HW221066   3.826   0.394   7.385
 6872SOL     OW21067   3.779   0.152   7.793
 6872SOL    HW121068   3.748   0.209   7.723
 6872SOL    HW221069   3.874   0.152   7.782
 6873SOL     OW21070   3.800   1.238   8.112
 6873SOL    HW121071   3.794   1.188   8.194
 6873SOL    HW221072   3.880   1.205   8.070
 6874SOL     OW21073   3.752   1.082   7.758
 6874SOL    HW121074   3.843   1.082   7.726
 6874SOL    HW221075   3.735   0.990   7.778
 6875SOL     OW21076   3.956   0.630   9.419
 6875SOL    HW121077   3.875   0.633   9.468
 6875SOL    HW221078   3.931   0.598   9.332
 6876SOL     OW21079   3.954   0.293  10.300
 6876SOL    HW121080   3.965   0.273  10.393
 6876SOL    HW221081   3.866   0.259  10.279
 6877SOL     OW21082   3.731   0.392   9.949
 6877SOL    HW121083   3.644   0.407   9.985
 6877SOL    HW221084   3.720   0.315   9.893
 6878SOL     OW21085   0.013   1.521  10.359
 6878SOL    HW121086   3.965   1.439  10.346
 6878SOL    HW221087   0.082   1.520  10.293
 6879SOL     OW21088   3.941   1.719   9.784
 6879SOL    HW121089   3.948   1.792   9.846
 6879SOL    HW221090   0.032   1.702   9.757
 6880SOL     OW21091   3.943   1.439   9.820
 6880SOL    HW121092   3.922   1.532   9.823
 6880SOL    HW221093   3.886   1.400   9.887
 6881SOL     OW21094   3.809   0.648   9.868
 6881SOL    HW121095   3.795   0.557   9.893
 6881SOL    HW221096   3.813   0.696   9.950
 6882SOL     OW21097   3.755   1.596   9.439
 6882SOL    HW121098   3.734   1.504   9.457
 6882SOL    HW221099   3.724   1.643   9.517
 6883SOL     OW21100   3.827   0.749  10.888
 6883SOL    HW121101   3.911   0.786  10.915
 6883SOL    HW221102   3.767   0.823  10.885
 6884SOL     OW21103   3.803   0.817  10.083
 6884SOL    HW121104   3.897   0.812  10.104
 6884SOL    HW221105   3.772   0.891  10.134
 6885SOL     OW21106   3.847   1.866  10.878
 6885SOL    HW121107   3.849   1.836  10.970
 6885SOL    HW221108   3.763   1.836  10.845
 6886SOL     OW21109   3.924   0.310  10.829
 6886SOL    HW121110   3.848   0.356  10.794
 6886SOL    HW221111   3.887   0.247  10.891
 6887SOL     OW21112   3.806   0.549  10.701
 6887SOL    HW121113   3.901   0.546  10.688
 6887SOL    HW221114   3.792   0.625  10.757
 6888SOL     OW21115   0.267   0.290   9.644
 6888SOL    HW121116   0.310   0.224   9.589
 6888SOL    HW221117   0.298   0.374   9.610
 6889SOL     OW21118   3.790   1.573  10.658
 6889SOL    HW121119   3.763   1.636  10.593
 6889SOL    HW221120   3.886   1.579  10.660
 6890SOL     OW21121   0.068   1.092   9.836
 6890SOL    HW121122   0.068   1.141   9.753
 6890SOL    HW221123   0.128   1.019   9.820
 6891SOL     OW21124   0.007   0.215  10.555
 6891SOL    HW121125   3.981   0.241  10.643
 6891SOL    HW221126   0.006   0.120  10.556
 6892SOL     OW21127   3.753   1.311  10.588
 6892SOL    HW121128   3.797   1.262  10.658
 6892SOL    HW221129   3.766   1.403  10.611
 6893SOL     OW21130   3.729   1.326   9.497
 6893SOL    HW121131   3.643   1.340   9.458
 6893SOL    HW221132   3.722   1.243   9.543
 6894SOL     OW21133   3.801   1.795  10.247
 6894SOL    HW121134   3.779   1.714  10.202
 6894SOL    HW221135   3.895   1.806  10.232
 6895SOL     OW21136   0.215   1.554  10.181
 6895SOL    HW121137   0.288   1.615  10.183
 6895SOL    HW221138   0.237   1.491  10.112
 6896SOL     OW21139   3.753   0.535  10.427
 6896SOL    HW121140   3.833   0.527  10.375
 6896SOL    HW221141   3.784   0.546  10.517
 6897SOL     OW21142   3.907   0.529  11.024
 6897SOL    HW121143   3.944   0.477  10.953
 6897SOL    HW221144   3.860   0.600  10.979
 6898SOL     OW21145   3.944   1.535  11.037
 6898SOL    HW121146   3.936   1.613  11.091
 6898SOL    HW221147   3.988   1.471  11.093
 6899SOL     OW21148   3.860   1.130  10.784
 6899SOL    HW121149   3.932   1.121  10.846
 6899SOL    HW221150   3.894   1.094  10.702
 6900SOL     OW21151   3.810   1.266  10.323
 6900SOL    HW121152   3.783   1.278  10.414
 6900SOL    HW221153   3.748   1.202  10.288
 6901SOL     OW21154   3.840   1.792  11.137
 6901SOL    HW121155   3.790   1.726  11.184
 6901SOL    HW221156   3.892   1.835  11.205
 6902SOL     OW21157   3.823   0.316   9.304
 6902SOL    HW121158   3.752   0.334   9.366
 6902SOL    HW221159   3.826   0.394   9.247
 6903SOL     OW21160   3.779   0.152   9.655
 6903SOL    HW121161   3.748   0.209   9.585
 6903SOL    HW221162   3.874   0.151   9.644
 6904SOL     OW21163   3.801   1.238   9.974
 6904SOL    HW121164   3.794   1.188  10.056
 6904SOL    HW221165   3.880   1.205   9.932
 6905SOL     OW21166   3.753   1.082   9.620
 6905SOL    HW121167   3.843   1.082   9.588
 6905SOL    HW221168   3.735   0.990   9.640
 6906SOL     OW21169   3.956   0.630  11.281
 6906SOL    HW121170   3.875   0.633  11.330
 6906SOL    HW221171   3.931   0.598  11.194
 6907SOL     OW21172   3.954   0.293  12.162
 6907SOL    HW121173   3.965   0.273  12.255
 6907SOL    HW221174   3.866   0.259  12.141
 6908SOL     OW21175   3.731   0.392  11.811
 6908SOL    HW121176   3.644   0.407  11.847
 6908SOL    HW221177   3.720   0.315  11.754
 6909SOL     OW21178   0.013   1.521  12.221
 6909SOL    HW121179   3.965   1.439  12.207
 6909SOL    HW221180   0.082   1.520  12.155
 6910SOL     OW21181   3.941   1.719  11.646
 6910SOL    HW121182   3.948   1.792  11.708
 6910SOL    HW221183   0.032   1.702  11.619
 6911SOL     OW21184   3.943   1.439  11.682
 6911SOL    HW121185   3.922   1.532  11.685
 6911SOL    HW221186   3.886   1.400  11.749
 6912SOL     OW21187   3.809   0.648  11.730
 6912SOL    HW121188   3.795   0.557  11.755
 6912SOL    HW221189   3.813   0.696  11.813
 6913SOL     OW21190   3.755   1.596  11.301
 6913SOL    HW121191   3.734   1.504  11.319
 6913SOL    HW221192   3.724   1.643  11.378
 6914SOL     OW21193   3.827   0.749  12.750
 6914SOL    HW121194   3.911   0.786  12.776
 6914SOL    HW221195   3.767   0.823  12.747
 6915SOL     OW21196   3.803   0.817  11.945
 6915SOL    HW121197   3.897   0.812  11.966
 6915SOL    HW221198   3.772   0.891  11.996
 6916SOL     OW21199   3.847   1.866  12.741
 6916SOL    HW121200   3.849   1.836  12.832
 6916SOL    HW221201   3.763   1.836  12.708
 6917SOL     OW21202   3.924   0.311  12.692
 6917SOL    HW121203   3.848   0.356  12.656
 6917SOL    HW221204   3.887   0.247  12.752
 6918SOL     OW21205   3.806   0.549  12.563
 6918SOL    HW121206   3.901   0.546  12.550
 6918SOL    HW221207   3.792   0.625  12.619
 6919SOL     OW21208   0.267   0.290  11.506
 6919SOL    HW121209   0.310   0.224  11.451
 6919SOL    HW221210   0.298   0.374  11.472
 6920SOL     OW21211   3.790   1.573  12.520
 6920SOL    HW121212   3.763   1.636  12.455
 6920SOL    HW221213   3.886   1.579  12.522
 6921SOL     OW21214   0.068   1.092  11.698
 6921SOL    HW121215   0.068   1.141  11.615
 6921SOL    HW221216   0.128   1.019  11.682
 6922SOL     OW21217   0.007   0.215  12.417
 6922SOL    HW121218   3.981   0.241  12.505
 6922SOL    HW221219   0.006   0.120  12.418
 6923SOL     OW21220   3.753   1.311  12.450
 6923SOL    HW121221   3.797   1.262  12.520
 6923SOL    HW221222   3.766   1.403  12.473
 6924SOL     OW21223   3.729   1.326  11.359
 6924SOL    HW121224   3.643   1.340  11.320
 6924SOL    HW221225   3.722   1.243  11.405
 6925SOL     OW21226   3.801   1.795  12.109
 6925SOL    HW121227   3.779   1.714  12.064
 6925SOL    HW221228   3.895   1.806  12.094
 6926SOL     OW21229   0.215   1.554  12.043
 6926SOL    HW121230   0.288   1.615  12.045
 6926SOL    HW221231   0.237   1.491  11.974
 6927SOL     OW21232   3.753   0.535  12.289
 6927SOL    HW121233   3.833   0.527  12.237
 6927SOL    HW221234   3.784   0.546  12.379
 6928SOL     OW21235   3.908   0.530  12.886
 6928SOL    HW121236   3.944   0.477  12.815
 6928SOL    HW221237   3.861   0.601  12.842
 6929SOL     OW21238   3.944   1.535  12.899
 6929SOL    HW121239   3.937   1.614  12.953
 6929SOL    HW221240   3.987   1.471  12.956
 6930SOL     OW21241   3.860   1.130  12.646
 6930SOL    HW121242   3.932   1.121  12.708
 6930SOL    HW221243   3.894   1.094  12.564
 6931SOL     OW21244   3.810   1.266  12.185
 6931SOL    HW121245   3.783   1.278  12.276
 6931SOL    HW221246   3.748   1.202  12.150
 6932SOL     OW21247   3.841   1.793  13.000
 6932SOL    HW121248   3.790   1.726  13.047
 6932SOL    HW221249   3.892   1.836  13.069
 6933SOL     OW21250   3.823   0.316  11.166
 6933SOL    HW121251   3.752   0.334  11.228
 6933SOL    HW221252   3.826   0.394  11.109
 6934SOL     OW21253   3.779   0.152  11.517
 6934SOL    HW121254   3.748   0.209  11.447
 6934SOL    HW221255   3.874   0.151  11.506
 6935SOL     OW21256   3.801   1.238  11.836
 6935SOL    HW121257   3.794   1.188  11.918
 6935SOL    HW221258   3.880   1.205  11.794
 6936SOL     OW21259   3.753   1.082  11.482
 6936SOL    HW121260   3.843   1.082  11.450
 6936SOL    HW221261   3.735   0.990  11.502
 6937SOL     OW21262   3.955   0.629  13.144
 6937SOL    HW121263   3.871   0.633  13.190
 6937SOL    HW221264   3.932   0.598  13.056
 6938SOL     OW21265   3.722   0.390  13.647
 6938SOL    HW121266   3.632   0.408  13.674
 6938SOL    HW221267   3.720   0.299  13.617
 6939SOL     OW21268   3.941   1.716  13.503
 6939SOL    HW121269   3.943   1.791  13.562
 6939SOL    HW221270   0.033   1.700  13.481
 6940SOL     OW21271   3.942   1.436  13.542
 6940SOL    HW121272   3.924   1.530  13.545
 6940SOL    HW221273   3.884   1.398  13.609
 6941SOL     OW21274   3.949   1.092   0.001
 6941SOL    HW121275   3.983   1.047   0.078
 6941SOL    HW221276   3.870   1.138   0.033
 6942SOL     OW21277   3.826   0.649  13.593
 6942SOL    HW121278   3.783   0.565  13.610
 6942SOL    HW221279   3.815   0.697  13.675
 6943SOL     OW21280   3.753   1.597  13.162
 6943SOL    HW121281   3.734   1.505  13.181
 6943SOL    HW221282   3.724   1.643  13.241
 6944SOL     OW21283   3.798   0.809  13.812
 6944SOL    HW121284   3.892   0.815  13.829
 6944SOL    HW221285   3.762   0.889  13.851
 6945SOL     OW21286   0.098   1.810  13.881
 6945SOL    HW121287   0.057   1.735   0.025
 6945SOL    HW221288   0.168   1.836   0.040
 6946SOL     OW21289   0.266   0.293  13.369
 6946SOL    HW121290   0.310   0.223  13.321
 6946SOL    HW221291   0.303   0.374  13.333
 6947SOL     OW21292   0.070   1.091  13.554
 6947SOL    HW121293   0.069   1.144  13.474
 6947SOL    HW221294   0.133   1.021  13.536
 6948SOL     OW21295   3.729   1.327  13.221
 6948SOL    HW121296   3.643   1.340  13.181
 6948SOL    HW221297   3.722   1.243  13.267
 6949SOL     OW21298   0.312   1.533   0.021
 6949SOL    HW121299   0.266   1.615   0.040
 6949SOL    HW221300   0.253   1.485  13.863
 6950SOL     OW21301   3.823   0.317  13.027
 6950SOL    HW121302   3.751   0.334  13.089
 6950SOL    HW221303   3.825   0.395  12.971
 6951SOL     OW21304   3.788   0.154  13.374
 6951SOL    HW121305   3.754   0.210  13.305
 6951SOL    HW221306   3.882   0.152  13.359
 6952SOL     OW21307   3.807   1.234  13.694
 6952SOL    HW121308   3.796   1.171  13.765
 6952SOL    HW221309   3.885   1.204  13.647
 6953SOL     OW21310   3.753   1.081  13.342
 6953SOL    HW121311   3.843   1.083  13.310
 6953SOL    HW221312   3.736   0.989  13.363
 6954SOL     OW21313   3.955   2.496   0.127
 6954SOL    HW121314   3.881   2.493   0.189
 6954SOL    HW221315   3.924   2.447   0.051
 6955SOL     OW21316   3.960   2.126   0.985
 6955SOL    HW121317   3.967   2.123   1.081
 6955SOL    HW221318   3.868   2.112   0.967
 6956SOL     OW21319   3.726   2.245   0.636
 6956SOL    HW121320   3.645   2.267   0.682
 6956SOL    HW221321   3.708   2.161   0.593
 6957SOL     OW21322   0.013   3.380   1.051
 6957SOL    HW121323   3.966   3.299   1.032
 6957SOL    HW221324   0.082   3.383   0.984
 6958SOL     OW21325   3.940   3.577   0.478
 6958SOL    HW121326   3.954   3.650   0.538
 6958SOL    HW221327   0.025   3.562   0.438
 6959SOL     OW21328   3.935   3.298   0.509
 6959SOL    HW121329   3.926   3.394   0.511
 6959SOL    HW221330   3.883   3.267   0.583
 6960SOL     OW21331   3.817   2.504   0.559
 6960SOL    HW121332   3.787   2.416   0.583
 6960SOL    HW221333   3.813   2.554   0.640
 6961SOL     OW21334   3.738   3.470   0.113
 6961SOL    HW121335   3.726   3.378   0.134
 6961SOL    HW221336   3.709   3.517   0.192
 6962SOL     OW21337   3.828   2.603   1.583
 6962SOL    HW121338   3.913   2.639   1.611
 6962SOL    HW221339   3.770   2.679   1.580
 6963SOL     OW21340   3.803   2.678   0.770
 6963SOL    HW121341   3.896   2.674   0.792
 6963SOL    HW221342   3.769   2.752   0.822
 6964SOL     OW21343   3.849   3.718   1.568
 6964SOL    HW121344   3.850   3.691   1.659
 6964SOL    HW221345   3.759   3.701   1.539
 6965SOL     OW21346   3.924   2.156   1.515
 6965SOL    HW121347   3.843   2.198   1.487
 6965SOL    HW221348   3.896   2.075   1.556
 6966SOL     OW21349   3.807   2.411   1.389
 6966SOL    HW121350   3.902   2.406   1.379
 6966SOL    HW221351   3.793   2.485   1.449
 6967SOL     OW21352   3.790   3.434   1.348
 6967SOL    HW121353   3.764   3.500   1.284
 6967SOL    HW221354   3.886   3.441   1.352
 6968SOL     OW21355   0.071   2.952   0.530
 6968SOL    HW121356   0.082   3.015   0.458
 6968SOL    HW221357   0.146   2.892   0.521
 6969SOL     OW21358   0.008   2.075   1.250
 6969SOL    HW121359   3.979   2.104   1.336
 6969SOL    HW221360   0.010   1.979   1.256
 6970SOL     OW21361   3.752   3.173   1.278
 6970SOL    HW121362   3.797   3.124   1.347
 6970SOL    HW221363   3.766   3.265   1.300
 6971SOL     OW21364   3.998   1.921   0.653
 6971SOL    HW121365   0.019   2.013   0.667
 6971SOL    HW221366   0.020   1.878   0.735
 6972SOL     OW21367   3.739   3.177   0.175
 6972SOL    HW121368   3.657   3.189   0.127
 6972SOL    HW221369   3.729   3.094   0.220
 6973SOL     OW21370   3.803   3.653   0.937
 6973SOL    HW121371   3.782   3.571   0.892
 6973SOL    HW221372   3.897   3.663   0.924
 6974SOL     OW21373   0.215   3.420   0.872
 6974SOL    HW121374   0.277   3.492   0.869
 6974SOL    HW221375   0.244   3.359   0.804
 6975SOL     OW21376   3.756   2.400   1.117
 6975SOL    HW121377   3.839   2.395   1.071
 6975SOL    HW221378   3.780   2.408   1.210
 6976SOL     OW21379   3.903   2.378   1.722
 6976SOL    HW121380   3.932   2.319   1.653
 6976SOL    HW221381   3.857   2.448   1.676
 6977SOL     OW21382   3.943   3.395   1.727
 6977SOL    HW121383   3.936   3.476   1.778
 6977SOL    HW221384   3.989   3.335   1.785
 6978SOL     OW21385   3.859   2.992   1.474
 6978SOL    HW121386   3.931   2.983   1.537
 6978SOL    HW221387   3.895   2.957   1.392
 6979SOL     OW21388   3.810   3.128   1.013
 6979SOL    HW121389   3.784   3.140   1.104
 6979SOL    HW221390   3.747   3.064   0.979
 6980SOL     OW21391   3.839   3.651   1.827
 6980SOL    HW121392   3.790   3.586   1.875
 6980SOL    HW221393   3.888   3.699   1.894
 6981SOL     OW21394   3.780   2.268   0.029
 6981SOL    HW121395   3.742   2.186   0.059
 6981SOL    HW221396   3.761   2.271  13.835
 6982SOL     OW21397   3.787   2.022   0.348
 6982SOL    HW121398   3.763   2.051   0.260
 6982SOL    HW221399   3.883   2.021   0.347
 6983SOL     OW21400   3.799   3.096   0.664
 6983SOL    HW121401   3.794   3.050   0.747
 6983SOL    HW221402   3.884   3.073   0.628
 6984SOL     OW21403   3.751   2.938   0.307
 6984SOL    HW121404   3.847   2.943   0.304
 6984SOL    HW221405   3.732   2.847   0.328
 6985SOL     OW21406   3.954   2.494   1.972
 6985SOL    HW121407   3.873   2.491   2.022
 6985SOL    HW221408   3.931   2.457   1.887
 6986SOL     OW21409   3.961   2.125   2.848
 6986SOL    HW121410   3.967   2.122   2.943
 6986SOL    HW221411   3.868   2.112   2.829
 6987SOL     OW21412   3.725   2.242   2.498
 6987SOL    HW121413   3.646   2.267   2.544
 6987SOL    HW221414   3.704   2.158   2.457
 6988SOL     OW21415   0.012   3.381   2.912
 6988SOL    HW121416   3.966   3.299   2.895
 6988SOL    HW221417   0.082   3.383   2.846
 6989SOL     OW21418   3.941   3.583   2.337
 6989SOL    HW121419   3.953   3.655   2.398
 6989SOL    HW221420   0.030   3.562   2.306
 6990SOL     OW21421   3.940   3.301   2.371
 6990SOL    HW121422   3.924   3.395   2.377
 6990SOL    HW221423   3.886   3.263   2.439
 6991SOL     OW21424   3.818   2.503   2.421
 6991SOL    HW121425   3.788   2.416   2.445
 6991SOL    HW221426   3.813   2.553   2.503
 6992SOL     OW21427   3.752   3.458   1.992
 6992SOL    HW121428   3.734   3.366   2.009
 6992SOL    HW221429   3.723   3.504   2.071
 6993SOL     OW21430   3.828   2.603   3.445
 6993SOL    HW121431   3.913   2.639   3.473
 6993SOL    HW221432   3.770   2.679   3.442
 6994SOL     OW21433   3.803   2.677   2.633
 6994SOL    HW121434   3.896   2.673   2.655
 6994SOL    HW221435   3.770   2.751   2.684
 6995SOL     OW21436   3.849   3.718   3.430
 6995SOL    HW121437   3.850   3.690   3.521
 6995SOL    HW221438   3.759   3.701   3.401
 6996SOL     OW21439   3.924   2.156   3.377
 6996SOL    HW121440   3.843   2.198   3.349
 6996SOL    HW221441   3.896   2.075   3.418
 6997SOL     OW21442   0.001   1.883   2.025
 6997SOL    HW121443   0.032   1.972   2.011
 6997SOL    HW221444   0.066   1.844   2.084
 6998SOL     OW21445   3.807   2.411   3.251
 6998SOL    HW121446   3.902   2.406   3.241
 6998SOL    HW221447   3.793   2.485   3.311
 6999SOL     OW21448   0.280   2.149   2.187
 6999SOL    HW121449   0.298   2.078   2.125
 6999SOL    HW221450   0.306   2.228   2.140
 7000SOL     OW21451   3.790   3.434   3.210
 7000SOL    HW121452   3.764   3.500   3.146
 7000SOL    HW221453   3.886   3.440   3.214
 7001SOL     OW21454   0.068   2.952   2.387
 7001SOL    HW121455   0.068   3.004   2.307
 7001SOL    HW221456   0.132   2.883   2.370
 7002SOL     OW21457   0.008   2.075   3.112
 7002SOL    HW121458   3.979   2.104   3.198
 7002SOL    HW221459   0.010   1.979   3.119
 7003SOL     OW21460   3.752   3.173   3.140
 7003SOL    HW121461   3.796   3.124   3.209
 7003SOL    HW221462   3.767   3.265   3.162
 7004SOL     OW21463   0.001   1.919   2.513
 7004SOL    HW121464   0.016   2.013   2.527
 7004SOL    HW221465   0.022   1.879   2.598
 7005SOL     OW21466   3.728   3.188   2.050
 7005SOL    HW121467   3.642   3.201   2.010
 7005SOL    HW221468   3.721   3.104   2.095
 7006SOL     OW21469   3.803   3.654   2.799
 7006SOL    HW121470   3.781   3.572   2.754
 7006SOL    HW221471   3.897   3.663   2.786
 7007SOL     OW21472   0.215   3.419   2.734
 7007SOL    HW121473   0.278   3.491   2.730
 7007SOL    HW221474   0.244   3.358   2.667
 7008SOL     OW21475   3.756   2.400   2.979
 7008SOL    HW121476   3.839   2.395   2.933
 7008SOL    HW221477   3.780   2.408   3.072
 7009SOL     OW21478   3.903   2.378   3.584
 7009SOL    HW121479   3.932   2.319   3.515
 7009SOL    HW221480   3.857   2.448   3.538
 7010SOL     OW21481   3.943   3.395   3.589
 7010SOL    HW121482   3.936   3.476   3.640
 7010SOL    HW221483   3.989   3.334   3.647
 7011SOL     OW21484   3.859   2.992   3.336
 7011SOL    HW121485   3.931   2.983   3.399
 7011SOL    HW221486   3.895   2.957   3.254
 7012SOL     OW21487   3.810   3.128   2.875
 7012SOL    HW121488   3.783   3.140   2.966
 7012SOL    HW221489   3.748   3.064   2.840
 7013SOL     OW21490   3.839   3.651   3.689
 7013SOL    HW121491   3.790   3.586   3.737
 7013SOL    HW221492   3.888   3.699   3.756
 7014SOL     OW21493   3.801   2.198   1.904
 7014SOL    HW121494   3.717   2.164   1.875
 7014SOL    HW221495   3.821   2.269   1.842
 7015SOL     OW21496   3.766   2.021   2.175
 7015SOL    HW121497   3.757   2.089   2.108
 7015SOL    HW221498   3.858   2.024   2.200
 7016SOL     OW21499   3.800   3.100   2.527
 7016SOL    HW121500   3.794   3.051   2.608
 7016SOL    HW221501   3.880   3.069   2.485
 7017SOL     OW21502   3.752   2.941   2.172
 7017SOL    HW121503   3.842   2.943   2.140
 7017SOL    HW221504   3.735   2.849   2.191
 7018SOL     OW21505   3.954   2.494   3.834
 7018SOL    HW121506   3.873   2.491   3.884
 7018SOL    HW221507   3.931   2.457   3.749
 7019SOL     OW21508   3.960   2.125   4.710
 7019SOL    HW121509   3.967   2.122   4.805
 7019SOL    HW221510   3.868   2.112   4.691
 7020SOL     OW21511   3.725   2.242   4.360
 7020SOL    HW121512   3.646   2.267   4.406
 7020SOL    HW221513   3.704   2.158   4.319
 7021SOL     OW21514   0.012   3.381   4.773
 7021SOL    HW121515   3.966   3.299   4.757
 7021SOL    HW221516   0.082   3.383   4.708
 7022SOL     OW21517   3.941   3.583   4.199
 7022SOL    HW121518   3.953   3.655   4.260
 7022SOL    HW221519   0.030   3.562   4.168
 7023SOL     OW21520   3.940   3.301   4.233
 7023SOL    HW121521   3.924   3.395   4.239
 7023SOL    HW221522   3.886   3.263   4.301
 7024SOL     OW21523   3.818   2.504   4.283
 7024SOL    HW121524   3.788   2.416   4.307
 7024SOL    HW221525   3.813   2.553   4.365
 7025SOL     OW21526   3.752   3.458   3.854
 7025SOL    HW121527   3.734   3.366   3.871
 7025SOL    HW221528   3.723   3.504   3.933
 7026SOL     OW21529   3.828   2.603   5.307
 7026SOL    HW121530   3.913   2.639   5.335
 7026SOL    HW221531   3.770   2.679   5.304
 7027SOL     OW21532   3.803   2.677   4.495
 7027SOL    HW121533   3.896   2.673   4.517
 7027SOL    HW221534   3.770   2.751   4.546
 7028SOL     OW21535   3.849   3.718   5.292
 7028SOL    HW121536   3.850   3.690   5.383
 7028SOL    HW221537   3.759   3.701   5.263
 7029SOL     OW21538   3.924   2.156   5.239
 7029SOL    HW121539   3.843   2.198   5.211
 7029SOL    HW221540   3.896   2.075   5.280
 7030SOL     OW21541   0.001   1.883   3.887
 7030SOL    HW121542   0.032   1.972   3.873
 7030SOL    HW221543   0.066   1.844   3.946
 7031SOL     OW21544   3.807   2.411   5.113
 7031SOL    HW121545   3.902   2.406   5.103
 7031SOL    HW221546   3.793   2.485   5.173
 7032SOL     OW21547   0.280   2.149   4.049
 7032SOL    HW121548   0.298   2.078   3.987
 7032SOL    HW221549   0.306   2.228   4.002
 7033SOL     OW21550   3.790   3.434   5.072
 7033SOL    HW121551   3.764   3.500   5.008
 7033SOL    HW221552   3.886   3.440   5.076
 7034SOL     OW21553   0.068   2.952   4.249
 7034SOL    HW121554   0.068   3.004   4.169
 7034SOL    HW221555   0.132   2.883   4.232
 7035SOL     OW21556   0.008   2.075   4.974
 7035SOL    HW121557   3.979   2.104   5.060
 7035SOL    HW221558   0.011   1.979   4.981
 7036SOL     OW21559   3.752   3.173   5.002
 7036SOL    HW121560   3.796   3.124   5.071
 7036SOL    HW221561   3.767   3.265   5.024
 7037SOL     OW21562   0.001   1.919   4.375
 7037SOL    HW121563   0.016   2.013   4.389
 7037SOL    HW221564   0.022   1.879   4.460
 7038SOL     OW21565   3.728   3.188   3.912
 7038SOL    HW121566   3.642   3.201   3.872
 7038SOL    HW221567   3.721   3.104   3.957
 7039SOL     OW21568   3.803   3.654   4.661
 7039SOL    HW121569   3.781   3.572   4.616
 7039SOL    HW221570   3.897   3.663   4.648
 7040SOL     OW21571   0.215   3.419   4.596
 7040SOL    HW121572   0.278   3.491   4.592
 7040SOL    HW221573   0.244   3.358   4.529
 7041SOL     OW21574   3.756   2.400   4.841
 7041SOL    HW121575   3.839   2.395   4.795
 7041SOL    HW221576   3.780   2.408   4.934
 7042SOL     OW21577   3.903   2.378   5.446
 7042SOL    HW121578   3.932   2.319   5.377
 7042SOL    HW221579   3.857   2.448   5.400
 7043SOL     OW21580   3.943   3.395   5.451
 7043SOL    HW121581   3.937   3.476   5.502
 7043SOL    HW221582   3.989   3.334   5.509
 7044SOL     OW21583   3.859   2.992   5.198
 7044SOL    HW121584   3.930   2.983   5.261
 7044SOL    HW221585   3.895   2.957   5.116
 7045SOL     OW21586   3.810   3.128   4.737
 7045SOL    HW121587   3.783   3.140   4.828
 7045SOL    HW221588   3.748   3.064   4.702
 7046SOL     OW21589   3.839   3.651   5.551
 7046SOL    HW121590   3.790   3.586   5.599
 7046SOL    HW221591   3.888   3.699   5.618
 7047SOL     OW21592   3.801   2.198   3.766
 7047SOL    HW121593   3.717   2.164   3.737
 7047SOL    HW221594   3.821   2.269   3.704
 7048SOL     OW21595   3.766   2.021   4.037
 7048SOL    HW121596   3.757   2.089   3.970
 7048SOL    HW221597   3.858   2.024   4.062
 7049SOL     OW21598   3.800   3.100   4.389
 7049SOL    HW121599   3.794   3.051   4.470
 7049SOL    HW221600   3.880   3.069   4.347
 7050SOL     OW21601   3.752   2.941   4.034
 7050SOL    HW121602   3.842   2.943   4.002
 7050SOL    HW221603   3.735   2.849   4.053
 7051SOL     OW21604   3.954   2.495   5.696
 7051SOL    HW121605   3.873   2.491   5.746
 7051SOL    HW221606   3.931   2.457   5.611
 7052SOL     OW21607   3.961   2.125   6.572
 7052SOL    HW121608   3.967   2.122   6.667
 7052SOL    HW221609   3.868   2.112   6.553
 7053SOL     OW21610   3.725   2.243   6.222
 7053SOL    HW121611   3.645   2.268   6.268
 7053SOL    HW221612   3.704   2.158   6.182
 7054SOL     OW21613   0.013   3.381   6.636
 7054SOL    HW121614   3.966   3.299   6.619
 7054SOL    HW221615   0.082   3.383   6.570
 7055SOL     OW21616   3.941   3.583   6.061
 7055SOL    HW121617   3.953   3.655   6.122
 7055SOL    HW221618   0.030   3.562   6.030
 7056SOL     OW21619   3.940   3.301   6.095
 7056SOL    HW121620   3.923   3.395   6.101
 7056SOL    HW221621   3.886   3.263   6.163
 7057SOL     OW21622   3.818   2.503   6.146
 7057SOL    HW121623   3.788   2.416   6.169
 7057SOL    HW221624   3.813   2.553   6.227
 7058SOL     OW21625   3.752   3.458   5.716
 7058SOL    HW121626   3.734   3.366   5.733
 7058SOL    HW221627   3.723   3.504   5.795
 7059SOL     OW21628   3.828   2.603   7.169
 7059SOL    HW121629   3.912   2.639   7.197
 7059SOL    HW221630   3.769   2.679   7.166
 7060SOL     OW21631   3.803   2.677   6.357
 7060SOL    HW121632   3.896   2.673   6.379
 7060SOL    HW221633   3.770   2.751   6.408
 7061SOL     OW21634   3.849   3.718   7.154
 7061SOL    HW121635   3.850   3.691   7.246
 7061SOL    HW221636   3.760   3.701   7.124
 7062SOL     OW21637   3.924   2.156   7.101
 7062SOL    HW121638   3.843   2.198   7.072
 7062SOL    HW221639   3.896   2.075   7.142
 7063SOL     OW21640   0.001   1.883   5.749
 7063SOL    HW121641   0.032   1.972   5.735
 7063SOL    HW221642   0.066   1.844   5.808
 7064SOL     OW21643   3.807   2.411   6.975
 7064SOL    HW121644   3.902   2.406   6.965
 7064SOL    HW221645   3.793   2.485   7.035
 7065SOL     OW21646   0.280   2.149   5.911
 7065SOL    HW121647   0.299   2.078   5.849
 7065SOL    HW221648   0.307   2.228   5.864
 7066SOL     OW21649   3.790   3.434   6.934
 7066SOL    HW121650   3.764   3.500   6.870
 7066SOL    HW221651   3.886   3.441   6.938
 7067SOL     OW21652   0.068   2.952   6.111
 7067SOL    HW121653   0.068   3.004   6.031
 7067SOL    HW221654   0.132   2.883   6.094
 7068SOL     OW21655   0.009   2.075   6.836
 7068SOL    HW121656   3.979   2.104   6.922
 7068SOL    HW221657   0.010   1.979   6.842
 7069SOL     OW21658   3.753   3.173   6.864
 7069SOL    HW121659   3.796   3.124   6.934
 7069SOL    HW221660   3.767   3.265   6.886
 7070SOL     OW21661   0.001   1.919   6.237
 7070SOL    HW121662   0.016   2.013   6.251
 7070SOL    HW221663   0.022   1.880   6.322
 7071SOL     OW21664   3.728   3.188   5.774
 7071SOL    HW121665   3.642   3.201   5.734
 7071SOL    HW221666   3.721   3.104   5.819
 7072SOL     OW21667   3.803   3.654   6.523
 7072SOL    HW121668   3.781   3.572   6.478
 7072SOL    HW221669   3.897   3.663   6.510
 7073SOL     OW21670   0.215   3.419   6.458
 7073SOL    HW121671   0.278   3.491   6.454
 7073SOL    HW221672   0.243   3.358   6.391
 7074SOL     OW21673   3.756   2.400   6.704
 7074SOL    HW121674   3.839   2.395   6.657
 7074SOL    HW221675   3.780   2.408   6.796
 7075SOL     OW21676   3.903   2.378   7.308
 7075SOL    HW121677   3.932   2.319   7.238
 7075SOL    HW221678   3.857   2.448   7.262
 7076SOL     OW21679   3.943   3.395   7.313
 7076SOL    HW121680   3.937   3.476   7.364
 7076SOL    HW221681   3.989   3.334   7.371
 7077SOL     OW21682   3.859   2.993   7.060
 7077SOL    HW121683   3.931   2.983   7.123
 7077SOL    HW221684   3.894   2.956   6.978
 7078SOL     OW21685   3.810   3.128   6.599
 7078SOL    HW121686   3.783   3.140   6.690
 7078SOL    HW221687   3.748   3.064   6.564
 7079SOL     OW21688   3.839   3.652   7.413
 7079SOL    HW121689   3.790   3.586   7.461
 7079SOL    HW221690   3.888   3.699   7.480
 7080SOL     OW21691   3.801   2.198   5.628
 7080SOL    HW121692   3.717   2.164   5.599
 7080SOL    HW221693   3.821   2.269   5.566
 7081SOL     OW21694   3.766   2.021   5.899
 7081SOL    HW121695   3.757   2.089   5.832
 7081SOL    HW221696   3.858   2.024   5.923
 7082SOL     OW21697   3.800   3.100   6.251
 7082SOL    HW121698   3.793   3.050   6.332
 7082SOL    HW221699   3.880   3.068   6.209
 7083SOL     OW21700   3.752   2.941   5.896
 7083SOL    HW121701   3.842   2.943   5.864
 7083SOL    HW221702   3.735   2.849   5.916
 7084SOL     OW21703   3.954   2.494   7.558
 7084SOL    HW121704   3.873   2.491   7.608
 7084SOL    HW221705   3.932   2.457   7.473
 7085SOL     OW21706   3.961   2.125   8.434
 7085SOL    HW121707   3.967   2.122   8.529
 7085SOL    HW221708   3.868   2.112   8.415
 7086SOL     OW21709   3.726   2.242   8.084
 7086SOL    HW121710   3.646   2.267   8.130
 7086SOL    HW221711   3.705   2.158   8.043
 7087SOL     OW21712   0.013   3.381   8.498
 7087SOL    HW121713   3.966   3.299   8.481
 7087SOL    HW221714   0.082   3.383   8.432
 7088SOL     OW21715   3.941   3.582   7.923
 7088SOL    HW121716   3.953   3.655   7.984
 7088SOL    HW221717   0.030   3.562   7.892
 7089SOL     OW21718   3.941   3.301   7.957
 7089SOL    HW121719   3.924   3.395   7.963
 7089SOL    HW221720   3.886   3.263   8.026
 7090SOL     OW21721   3.818   2.503   8.008
 7090SOL    HW121722   3.788   2.416   8.031
 7090SOL    HW221723   3.813   2.553   8.089
 7091SOL     OW21724   3.752   3.458   7.578
 7091SOL    HW121725   3.734   3.366   7.595
 7091SOL    HW221726   3.723   3.504   7.657
 7092SOL     OW21727   3.828   2.603   9.031
 7092SOL    HW121728   3.913   2.639   9.058
 7092SOL    HW221729   3.770   2.679   9.028
 7093SOL     OW21730   3.803   2.677   8.220
 7093SOL    HW121731   3.896   2.673   8.241
 7093SOL    HW221732   3.770   2.751   8.270
 7094SOL     OW21733   3.849   3.718   9.016
 7094SOL    HW121734   3.850   3.691   9.107
 7094SOL    HW221735   3.759   3.701   8.987
 7095SOL     OW21736   3.924   2.156   8.963
 7095SOL    HW121737   3.843   2.198   8.934
 7095SOL    HW221738   3.896   2.075   9.004
 7096SOL     OW21739   0.001   1.883   7.611
 7096SOL    HW121740   0.032   1.972   7.596
 7096SOL    HW221741   0.067   1.845   7.670
 7097SOL     OW21742   3.807   2.411   8.837
 7097SOL    HW121743   3.902   2.406   8.827
 7097SOL    HW221744   3.793   2.485   8.897
 7098SOL     OW21745   0.280   2.149   7.773
 7098SOL    HW121746   0.299   2.078   7.711
 7098SOL    HW221747   0.307   2.228   7.726
 7099SOL     OW21748   3.790   3.434   8.796
 7099SOL    HW121749   3.764   3.500   8.732
 7099SOL    HW221750   3.886   3.441   8.800
 7100SOL     OW21751   0.068   2.952   7.973
 7100SOL    HW121752   0.067   3.004   7.893
 7100SOL    HW221753   0.132   2.883   7.956
 7101SOL     OW21754   0.009   2.075   8.698
 7101SOL    HW121755   3.979   2.104   8.785
 7101SOL    HW221756   0.010   1.979   8.704
 7102SOL     OW21757   3.752   3.173   8.726
 7102SOL    HW121758   3.796   3.124   8.795
 7102SOL    HW221759   3.766   3.265   8.748
 7103SOL     OW21760   0.001   1.919   8.100
 7103SOL    HW121761   0.016   2.013   8.112
 7103SOL    HW221762   0.022   1.880   8.184
 7104SOL     OW21763   3.728   3.188   7.636
 7104SOL    HW121764   3.642   3.201   7.597
 7104SOL    HW221765   3.721   3.104   7.681
 7105SOL     OW21766   3.803   3.654   8.385
 7105SOL    HW121767   3.781   3.572   8.340
 7105SOL    HW221768   3.898   3.663   8.372
 7106SOL     OW21769   0.215   3.419   8.320
 7106SOL    HW121770   0.278   3.491   8.316
 7106SOL    HW221771   0.243   3.358   8.253
 7107SOL     OW21772   3.756   2.400   8.566
 7107SOL    HW121773   3.839   2.395   8.519
 7107SOL    HW221774   3.781   2.408   8.658
 7108SOL     OW21775   3.903   2.378   9.170
 7108SOL    HW121776   3.932   2.319   9.100
 7108SOL    HW221777   3.857   2.448   9.124
 7109SOL     OW21778   3.943   3.395   9.175
 7109SOL    HW121779   3.937   3.476   9.226
 7109SOL    HW221780   3.989   3.334   9.233
 7110SOL     OW21781   3.859   2.992   8.922
 7110SOL    HW121782   3.931   2.983   8.985
 7110SOL    HW221783   3.895   2.957   8.840
 7111SOL     OW21784   3.810   3.128   8.461
 7111SOL    HW121785   3.783   3.140   8.552
 7111SOL    HW221786   3.748   3.064   8.426
 7112SOL     OW21787   3.839   3.651   9.275
 7112SOL    HW121788   3.790   3.586   9.323
 7112SOL    HW221789   3.888   3.699   9.342
 7113SOL     OW21790   3.801   2.198   7.490
 7113SOL    HW121791   3.717   2.164   7.460
 7113SOL    HW221792   3.821   2.269   7.428
 7114SOL     OW21793   3.766   2.021   7.761
 7114SOL    HW121794   3.757   2.089   7.694
 7114SOL    HW221795   3.858   2.024   7.785
 7115SOL     OW21796   3.800   3.100   8.113
 7115SOL    HW121797   3.794   3.051   8.194
 7115SOL    HW221798   3.880   3.069   8.071
 7116SOL     OW21799   3.752   2.941   7.758
 7116SOL    HW121800   3.842   2.943   7.726
 7116SOL    HW221801   3.734   2.849   7.778
 7117SOL     OW21802   3.954   2.494   9.420
 7117SOL    HW121803   3.873   2.491   9.470
 7117SOL    HW221804   3.932   2.457   9.335
 7118SOL     OW21805   3.961   2.125  10.296
 7118SOL    HW121806   3.967   2.122  10.391
 7118SOL    HW221807   3.868   2.112  10.277
 7119SOL     OW21808   3.725   2.242   9.946
 7119SOL    HW121809   3.646   2.267   9.992
 7119SOL    HW221810   3.704   2.158   9.905
 7120SOL     OW21811   0.013   3.381  10.360
 7120SOL    HW121812   3.966   3.299  10.343
 7120SOL    HW221813   0.082   3.383  10.294
 7121SOL     OW21814   3.941   3.582   9.785
 7121SOL    HW121815   3.953   3.655   9.846
 7121SOL    HW221816   0.030   3.562   9.754
 7122SOL     OW21817   3.940   3.301   9.819
 7122SOL    HW121818   3.924   3.395   9.825
 7122SOL    HW221819   3.886   3.263   9.887
 7123SOL     OW21820   3.818   2.503   9.870
 7123SOL    HW121821   3.788   2.416   9.893
 7123SOL    HW221822   3.813   2.553   9.951
 7124SOL     OW21823   3.752   3.458   9.440
 7124SOL    HW121824   3.734   3.366   9.457
 7124SOL    HW221825   3.723   3.504   9.519
 7125SOL     OW21826   3.828   2.603  10.893
 7125SOL    HW121827   3.913   2.639  10.920
 7125SOL    HW221828   3.770   2.679  10.890
 7126SOL     OW21829   3.803   2.677  10.081
 7126SOL    HW121830   3.896   2.673  10.103
 7126SOL    HW221831   3.770   2.751  10.132
 7127SOL     OW21832   3.849   3.718  10.878
 7127SOL    HW121833   3.850   3.690  10.969
 7127SOL    HW221834   3.759   3.701  10.849
 7128SOL     OW21835   3.924   2.156  10.825
 7128SOL    HW121836   3.843   2.198  10.797
 7128SOL    HW221837   3.896   2.075  10.866
 7129SOL     OW21838   0.001   1.883   9.473
 7129SOL    HW121839   0.032   1.972   9.459
 7129SOL    HW221840   0.066   1.844   9.532
 7130SOL     OW21841   3.807   2.411  10.699
 7130SOL    HW121842   3.902   2.406  10.689
 7130SOL    HW221843   3.793   2.485  10.759
 7131SOL     OW21844   0.281   2.149   9.635
 7131SOL    HW121845   0.298   2.078   9.573
 7131SOL    HW221846   0.306   2.228   9.588
 7132SOL     OW21847   3.790   3.434  10.658
 7132SOL    HW121848   3.764   3.500  10.594
 7132SOL    HW221849   3.886   3.440  10.662
 7133SOL     OW21850   0.068   2.952   9.835
 7133SOL    HW121851   0.068   3.004   9.755
 7133SOL    HW221852   0.132   2.883   9.818
 7134SOL     OW21853   0.009   2.075  10.560
 7134SOL    HW121854   3.979   2.104  10.647
 7134SOL    HW221855   0.010   1.979  10.566
 7135SOL     OW21856   3.752   3.173  10.588
 7135SOL    HW121857   3.796   3.124  10.657
 7135SOL    HW221858   3.766   3.265  10.610
 7136SOL     OW21859   0.001   1.919   9.961
 7136SOL    HW121860   0.016   2.013   9.975
 7136SOL    HW221861   0.022   1.879  10.046
 7137SOL     OW21862   3.728   3.188   9.498
 7137SOL    HW121863   3.642   3.201   9.459
 7137SOL    HW221864   3.721   3.104   9.543
 7138SOL     OW21865   3.803   3.654  10.247
 7138SOL    HW121866   3.781   3.572  10.202
 7138SOL    HW221867   3.897   3.663  10.234
 7139SOL     OW21868   0.215   3.419  10.182
 7139SOL    HW121869   0.278   3.491  10.178
 7139SOL    HW221870   0.244   3.358  10.115
 7140SOL     OW21871   3.756   2.400  10.428
 7140SOL    HW121872   3.839   2.395  10.381
 7140SOL    HW221873   3.780   2.408  10.520
 7141SOL     OW21874   3.903   2.378  11.032
 7141SOL    HW121875   3.932   2.319  10.962
 7141SOL    HW221876   3.857   2.448  10.986
 7142SOL     OW21877   3.943   3.395  11.037
 7142SOL    HW121878   3.937   3.476  11.088
 7142SOL    HW221879   3.989   3.334  11.095
 7143SOL     OW21880   3.859   2.992  10.784
 7143SOL    HW121881   3.931   2.983  10.847
 7143SOL    HW221882   3.895   2.957  10.702
 7144SOL     OW21883   3.810   3.128  10.323
 7144SOL    HW121884   3.783   3.140  10.414
 7144SOL    HW221885   3.748   3.064  10.288
 7145SOL     OW21886   3.839   3.651  11.137
 7145SOL    HW121887   3.790   3.586  11.185
 7145SOL    HW221888   3.888   3.699  11.204
 7146SOL     OW21889   3.801   2.198   9.352
 7146SOL    HW121890   3.717   2.164   9.323
 7146SOL    HW221891   3.821   2.269   9.290
 7147SOL     OW21892   3.766   2.021   9.623
 7147SOL    HW121893   3.757   2.089   9.556
 7147SOL    HW221894   3.858   2.024   9.647
 7148SOL     OW21895   3.800   3.100   9.975
 7148SOL    HW121896   3.794   3.051  10.056
 7148SOL    HW221897   3.880   3.069   9.933
 7149SOL     OW21898   3.752   2.941   9.620
 7149SOL    HW121899   3.842   2.943   9.588
 7149SOL    HW221900   3.734   2.849   9.640
 7150SOL     OW21901   3.954   2.494  11.282
 7150SOL    HW121902   3.873   2.491  11.332
 7150SOL    HW221903   3.932   2.457  11.197
 7151SOL     OW21904   3.961   2.125  12.158
 7151SOL    HW121905   3.967   2.122  12.253
 7151SOL    HW221906   3.868   2.112  12.139
 7152SOL     OW21907   3.725   2.242  11.808
 7152SOL    HW121908   3.646   2.267  11.854
 7152SOL    HW221909   3.704   2.158  11.767
 7153SOL     OW21910   0.013   3.381  12.222
 7153SOL    HW121911   3.966   3.299  12.205
 7153SOL    HW221912   0.082   3.383  12.156
 7154SOL     OW21913   3.941   3.583  11.647
 7154SOL    HW121914   3.953   3.655  11.708
 7154SOL    HW221915   0.030   3.562  11.616
 7155SOL     OW21916   3.940   3.301  11.681
 7155SOL    HW121917   3.924   3.395  11.687
 7155SOL    HW221918   3.886   3.263  11.749
 7156SOL     OW21919   3.818   2.503  11.732
 7156SOL    HW121920   3.788   2.416  11.755
 7156SOL    HW221921   3.813   2.553  11.813
 7157SOL     OW21922   3.752   3.458  11.302
 7157SOL    HW121923   3.734   3.366  11.319
 7157SOL    HW221924   3.723   3.504  11.381
 7158SOL     OW21925   3.828   2.603  12.755
 7158SOL    HW121926   3.913   2.639  12.782
 7158SOL    HW221927   3.769   2.679  12.752
 7159SOL     OW21928   3.803   2.677  11.943
 7159SOL    HW121929   3.896   2.673  11.965
 7159SOL    HW221930   3.770   2.751  11.994
 7160SOL     OW21931   3.849   3.718  12.741
 7160SOL    HW121932   3.850   3.691  12.832
 7160SOL    HW221933   3.760   3.701  12.712
 7161SOL     OW21934   3.924   2.156  12.687
 7161SOL    HW121935   3.843   2.198  12.658
 7161SOL    HW221936   3.896   2.075  12.728
 7162SOL     OW21937   0.001   1.883  11.335
 7162SOL    HW121938   0.032   1.972  11.321
 7162SOL    HW221939   0.066   1.844  11.394
 7163SOL     OW21940   3.807   2.411  12.561
 7163SOL    HW121941   3.902   2.406  12.551
 7163SOL    HW221942   3.793   2.485  12.621
 7164SOL     OW21943   0.281   2.149  11.497
 7164SOL    HW121944   0.298   2.078  11.435
 7164SOL    HW221945   0.306   2.228  11.450
 7165SOL     OW21946   3.790   3.434  12.520
 7165SOL    HW121947   3.764   3.500  12.456
 7165SOL    HW221948   3.886   3.440  12.524
 7166SOL     OW21949   0.068   2.952  11.697
 7166SOL    HW121950   0.068   3.004  11.617
 7166SOL    HW221951   0.132   2.883  11.680
 7167SOL     OW21952   0.008   2.075  12.422
 7167SOL    HW121953   3.979   2.104  12.509
 7167SOL    HW221954   0.010   1.979  12.428
 7168SOL     OW21955   3.753   3.173  12.450
 7168SOL    HW121956   3.796   3.124  12.519
 7168SOL    HW221957   3.767   3.265  12.472
 7169SOL     OW21958   0.001   1.919  11.823
 7169SOL    HW121959   0.016   2.013  11.837
 7169SOL    HW221960   0.022   1.879  11.908
 7170SOL     OW21961   3.728   3.188  11.360
 7170SOL    HW121962   3.642   3.201  11.320
 7170SOL    HW221963   3.721   3.104  11.405
 7171SOL     OW21964   3.803   3.654  12.109
 7171SOL    HW121965   3.781   3.572  12.064
 7171SOL    HW221966   3.897   3.663  12.096
 7172SOL     OW21967   0.215   3.419  12.044
 7172SOL    HW121968   0.278   3.491  12.040
 7172SOL    HW221969   0.244   3.358  11.977
 7173SOL     OW21970   3.756   2.400  12.290
 7173SOL    HW121971   3.839   2.395  12.243
 7173SOL    HW221972   3.780   2.408  12.382
 7174SOL     OW21973   3.903   2.378  12.894
 7174SOL    HW121974   3.932   2.319  12.825
 7174SOL    HW221975   3.857   2.448  12.848
 7175SOL     OW21976   3.943   3.396  12.899
 7175SOL    HW121977   3.936   3.477  12.951
 7175SOL    HW221978   3.987   3.334  12.958
 7176SOL     OW21979   3.859   2.992  12.646
 7176SOL    HW121980   3.931   2.983  12.709
 7176SOL    HW221981   3.895   2.957  12.564
 7177SOL     OW21982   3.810   3.128  12.185
 7177SOL    HW121983   3.783   3.140  12.276
 7177SOL    HW221984   3.748   3.064  12.150
 7178SOL     OW21985   3.841   3.653  13.000
 7178SOL    HW121986   3.791   3.587  13.048
 7178SOL    HW221987   3.888   3.701  13.068
 7179SOL     OW21988   3.801   2.198  11.214
 7179SOL    HW121989   3.717   2.164  11.185
 7179SOL    HW221990   3.821   2.269  11.152
 7180SOL     OW21991   3.766   2.021  11.485
 7180SOL    HW121992   3.757   2.089  11.418
 7180SOL    HW221993   3.858   2.024  11.510
 7181SOL     OW21994   3.800   3.100  11.837
 7181SOL    HW121995   3.794   3.051  11.918
 7181SOL    HW221996   3.880   3.069  11.795
 7182SOL     OW21997   3.752   2.941  11.482
 7182SOL    HW121998   3.842   2.943  11.450
 7182SOL    HW221999   3.735   2.849  11.502
 7183SOL     OW22000   3.953   2.493  13.145
 7183SOL    HW122001   3.870   2.490  13.193
 7183SOL    HW222002   3.932   2.457  13.059
 7184SOL     OW22003   3.724   2.244  13.661
 7184SOL    HW122004   3.637   2.273  13.688
 7184SOL    HW222005   3.709   2.159  13.620
 7185SOL     OW22006   3.942   3.579  13.502
 7185SOL    HW122007   3.942   3.657  13.557
 7185SOL    HW222008   0.034   3.564  13.482
 7186SOL     OW22009   3.941   3.298  13.542
 7186SOL    HW122010   3.926   3.392  13.545
 7186SOL    HW222011   3.884   3.262  13.610
 7187SOL     OW22012   3.949   2.952   0.000
 7187SOL    HW122013   3.983   2.909   0.078
 7187SOL    HW222014   3.871   3.000   0.031
 7188SOL     OW22015   3.832   2.504  13.597
 7188SOL    HW122016   3.782   2.424  13.612
 7188SOL    HW222017   3.817   2.557  13.675
 7189SOL     OW22018   3.750   3.459  13.162
 7189SOL    HW122019   3.733   3.366  13.181
 7189SOL    HW222020   3.722   3.504  13.242
 7190SOL     OW22021   3.800   2.673  13.809
 7190SOL    HW122022   3.894   2.680  13.827
 7190SOL    HW222023   3.762   2.750  13.850
 7191SOL     OW22024   0.111   3.636  13.842
 7191SOL    HW122025   0.069   3.576   0.004
 7191SOL    HW222026   0.183   3.676  13.891
 7192SOL     OW22027   0.002   1.886  13.199
 7192SOL    HW122028   0.039   1.971  13.177
 7192SOL    HW222029   0.066   1.845  13.257
 7193SOL     OW22030   0.280   2.149  13.354
 7193SOL    HW122031   0.300   2.077  13.295
 7193SOL    HW222032   0.311   2.227  13.308
 7194SOL     OW22033   0.070   2.952  13.554
 7194SOL    HW122034   0.069   3.008  13.476
 7194SOL    HW222035   0.135   2.885  13.535
 7195SOL     OW22036   3.986   1.927  13.668
 7195SOL    HW122037   0.013   2.017  13.681
 7195SOL    HW222038   0.024   1.879  13.742
 7196SOL     OW22039   3.729   3.189  13.222
 7196SOL    HW122040   3.643   3.202  13.182
 7196SOL    HW222041   3.721   3.105  13.267
 7197SOL     OW22042   0.320   3.404   0.015
 7197SOL    HW122043   0.268   3.481   0.036
 7197SOL    HW222044   0.262   3.349  13.863
 7198SOL     OW22045   3.801   2.198  13.075
 7198SOL    HW122046   3.717   2.164  13.046
 7198SOL    HW222047   3.821   2.269  13.014
 7199SOL     OW22048   3.766   2.022  13.347
 7199SOL    HW122049   3.757   2.088  13.278
 7199SOL    HW222050   3.858   2.025  13.372
 7200SOL     OW22051   3.807   3.096  13.695
 7200SOL    HW122052   3.795   3.031  13.764
 7200SOL    HW222053   3.884   3.067  13.647
 7201SOL     OW22054   3.752   2.941  13.343
 7201SOL    HW122055   3.842   2.943  13.310
 7201SOL    HW222056   3.736   2.849  13.363
 7202SOL     OW22057   3.962   3.976   0.990
 7202SOL    HW122058   3.967   3.970   1.085
 7202SOL    HW222059   3.872   3.952   0.968
 7203SOL     OW22060   3.750   0.064   0.689
 7203SOL    HW122061   3.672   0.119   0.692
 7203SOL    HW222062   3.723   3.986   0.639
 7204SOL     OW22063   3.916   0.005   1.507
 7204SOL    HW122064   3.827   0.038   1.498
 7204SOL    HW222065   3.909   3.934   1.571
 7205SOL     OW22066   3.983   3.768   0.182
 7205SOL    HW122067   0.020   3.832   0.122
 7205SOL    HW222068   0.051   3.702   0.191
 7206SOL     OW22069   0.001   3.935   1.255
 7206SOL    HW122070   3.968   3.944   1.345
 7206SOL    HW222071   0.026   3.843   1.248
 7207SOL     OW22072   0.024   3.777   0.648
 7207SOL    HW122073   0.043   3.871   0.652
 7207SOL    HW222074   0.034   3.746   0.738
 7208SOL     OW22075   3.788   3.869   0.343
 7208SOL    HW122076   3.787   3.962   0.322
 7208SOL    HW222077   3.866   3.835   0.298
 7209SOL     OW22078   3.963   3.974   2.851
 7209SOL    HW122079   3.967   3.970   2.946
 7209SOL    HW222080   3.872   3.952   2.830
 7210SOL     OW22081   3.748   0.062   2.554
 7210SOL    HW122082   3.672   0.120   2.556
 7210SOL    HW222083   3.720   3.986   2.503
 7211SOL     OW22084   3.917   0.005   3.369
 7211SOL    HW122085   3.827   0.038   3.360
 7211SOL    HW222086   3.910   3.934   3.433
 7212SOL     OW22087   3.991   3.754   2.025
 7212SOL    HW122088   0.028   3.833   1.984
 7212SOL    HW222089   0.061   3.720   2.080
 7213SOL     OW22090   0.001   3.936   3.117
 7213SOL    HW122091   3.968   3.944   3.206
 7213SOL    HW222092   0.026   3.843   3.110
 7214SOL     OW22093   0.019   3.778   2.513
 7214SOL    HW122094   0.046   3.870   2.518
 7214SOL    HW222095   0.031   3.744   2.602
 7215SOL     OW22096   3.804   0.052   1.895
 7215SOL    HW122097   3.737   0.020   1.834
 7215SOL    HW222098   3.808   0.146   1.879
 7216SOL     OW22099   3.783   3.870   2.186
 7216SOL    HW122100   3.778   3.962   2.160
 7216SOL    HW222101   3.872   3.843   2.162
 7217SOL     OW22102   3.963   3.974   4.713
 7217SOL    HW122103   3.967   3.970   4.808
 7217SOL    HW222104   3.872   3.952   4.692
 7218SOL     OW22105   3.748   0.062   4.416
 7218SOL    HW122106   3.672   0.120   4.418
 7218SOL    HW222107   3.720   3.986   4.365
 7219SOL     OW22108   3.917   0.005   5.231
 7219SOL    HW122109   3.827   0.038   5.222
 7219SOL    HW222110   3.909   3.934   5.295
 7220SOL     OW22111   3.991   3.754   3.887
 7220SOL    HW122112   0.028   3.832   3.847
 7220SOL    HW222113   0.061   3.720   3.942
 7221SOL     OW22114   0.001   3.935   4.979
 7221SOL    HW122115   3.968   3.945   5.068
 7221SOL    HW222116   0.026   3.843   4.972
 7222SOL     OW22117   0.019   3.778   4.375
 7222SOL    HW122118   0.046   3.870   4.381
 7222SOL    HW222119   0.031   3.744   4.464
 7223SOL     OW22120   3.804   0.052   3.757
 7223SOL    HW122121   3.737   0.020   3.696
 7223SOL    HW222122   3.808   0.146   3.741
 7224SOL     OW22123   3.783   3.870   4.048
 7224SOL    HW122124   3.778   3.962   4.022
 7224SOL    HW222125   3.872   3.843   4.024
 7225SOL     OW22126   3.962   3.974   6.575
 7225SOL    HW122127   3.967   3.970   6.670
 7225SOL    HW222128   3.872   3.952   6.554
 7226SOL     OW22129   3.748   0.062   6.278
 7226SOL    HW122130   3.672   0.120   6.280
 7226SOL    HW222131   3.720   3.986   6.227
 7227SOL     OW22132   3.917   0.005   7.093
 7227SOL    HW122133   3.827   0.038   7.083
 7227SOL    HW222134   3.909   3.934   7.156
 7228SOL     OW22135   3.991   3.754   5.749
 7228SOL    HW122136   0.028   3.832   5.708
 7228SOL    HW222137   0.061   3.720   5.804
 7229SOL     OW22138   0.001   3.936   6.841
 7229SOL    HW122139   3.968   3.944   6.930
 7229SOL    HW222140   0.026   3.843   6.833
 7230SOL     OW22141   0.019   3.778   6.237
 7230SOL    HW122142   0.046   3.870   6.243
 7230SOL    HW222143   0.031   3.744   6.326
 7231SOL     OW22144   3.804   0.052   5.619
 7231SOL    HW122145   3.737   0.020   5.558
 7231SOL    HW222146   3.808   0.146   5.603
 7232SOL     OW22147   3.783   3.870   5.910
 7232SOL    HW122148   3.778   3.962   5.883
 7232SOL    HW222149   3.872   3.843   5.886
 7233SOL     OW22150   3.962   3.974   8.437
 7233SOL    HW122151   3.967   3.970   8.532
 7233SOL    HW222152   3.872   3.952   8.416
 7234SOL     OW22153   3.748   0.062   8.140
 7234SOL    HW122154   3.672   0.120   8.142
 7234SOL    HW222155   3.720   3.986   8.089
 7235SOL     OW22156   3.917   0.005   8.955
 7235SOL    HW122157   3.827   0.038   8.946
 7235SOL    HW222158   3.909   3.934   9.019
 7236SOL     OW22159   3.991   3.755   7.611
 7236SOL    HW122160   0.028   3.833   7.570
 7236SOL    HW222161   0.061   3.720   7.666
 7237SOL     OW22162   0.001   3.936   8.703
 7237SOL    HW122163   3.968   3.944   8.792
 7237SOL    HW222164   0.026   3.843   8.696
 7238SOL     OW22165   0.019   3.778   8.099
 7238SOL    HW122166   0.046   3.869   8.104
 7238SOL    HW222167   0.031   3.744   8.188
 7239SOL     OW22168   3.804   0.052   7.481
 7239SOL    HW122169   3.738   0.020   7.420
 7239SOL    HW222170   3.808   0.146   7.465
 7240SOL     OW22171   3.783   3.870   7.772
 7240SOL    HW122172   3.778   3.962   7.745
 7240SOL    HW222173   3.872   3.843   7.747
 7241SOL     OW22174   3.963   3.974  10.299
 7241SOL    HW122175   3.967   3.970  10.394
 7241SOL    HW222176   3.872   3.952  10.278
 7242SOL     OW22177   3.748   0.062  10.002
 7242SOL    HW122178   3.672   0.120  10.004
 7242SOL    HW222179   3.720   3.986   9.951
 7243SOL     OW22180   3.917   0.005  10.817
 7243SOL    HW122181   3.827   0.038  10.808
 7243SOL    HW222182   3.909   3.934  10.881
 7244SOL     OW22183   3.991   3.754   9.473
 7244SOL    HW122184   0.028   3.833   9.432
 7244SOL    HW222185   0.061   3.720   9.528
 7245SOL     OW22186   0.001   3.936  10.565
 7245SOL    HW122187   3.968   3.944  10.654
 7245SOL    HW222188   0.026   3.843  10.558
 7246SOL     OW22189   0.019   3.778   9.961
 7246SOL    HW122190   0.046   3.869   9.966
 7246SOL    HW222191   0.031   3.744  10.050
 7247SOL     OW22192   3.804   0.052   9.343
 7247SOL    HW122193   3.737   0.020   9.282
 7247SOL    HW222194   3.808   0.146   9.327
 7248SOL     OW22195   3.783   3.870   9.634
 7248SOL    HW122196   3.778   3.962   9.607
 7248SOL    HW222197   3.872   3.843   9.610
 7249SOL     OW22198   3.962   3.974  12.161
 7249SOL    HW122199   3.967   3.970  12.256
 7249SOL    HW222200   3.872   3.952  12.140
 7250SOL     OW22201   3.748   0.062  11.864
 7250SOL    HW122202   3.672   0.120  11.866
 7250SOL    HW222203   3.720   3.986  11.813
 7251SOL     OW22204   3.916   0.005  12.679
 7251SOL    HW122205   3.827   0.038  12.670
 7251SOL    HW222206   3.909   3.933  12.742
 7252SOL     OW22207   3.991   3.754  11.335
 7252SOL    HW122208   0.028   3.833  11.294
 7252SOL    HW222209   0.061   3.720  11.390
 7253SOL     OW22210   0.001   3.936  12.427
 7253SOL    HW122211   3.968   3.944  12.516
 7253SOL    HW222212   0.025   3.843  12.419
 7254SOL     OW22213   0.019   3.778  11.823
 7254SOL    HW122214   0.046   3.870  11.828
 7254SOL    HW222215   0.031   3.744  11.912
 7255SOL     OW22216   3.804   0.052  11.205
 7255SOL    HW122217   3.737   0.020  11.144
 7255SOL    HW222218   3.808   0.146  11.189
 7256SOL     OW22219   3.783   3.870  11.496
 7256SOL    HW122220   3.778   3.962  11.469
 7256SOL    HW222221   3.872   3.843  11.472
 7257SOL     OW22222   3.742   0.083  13.686
 7257SOL    HW122223   3.671   0.110  13.744
 7257SOL    HW222224   3.721   3.992  13.662
 7258SOL     OW22225   3.992   3.758  13.200
 7258SOL    HW122226   0.034   3.832  13.155
 7258SOL    HW222227   0.061   3.720  13.255
 7259SOL     OW22228   3.984   3.793  13.667
 7259SOL    HW122229   0.027   3.877  13.679
 7259SOL    HW222230   0.026   3.734  13.730
 7260SOL     OW22231   3.805   0.052  13.066
 7260SOL    HW122232   3.737   0.020  13.007
 7260SOL    HW222233   3.808   0.146  13.050
 7261SOL     OW22234   3.780   3.871  13.356
 7261SOL    HW122235   3.778   3.964  13.335
 7261SOL    HW222236   3.868   3.843  13.330
   4.00000   4.00000  13.90000
