2aCDOC_1PEG_l14
22242
    1LIG      O    1   1.953   2.011   0.041
    1LIG      C    2   2.024   2.024   0.197
    1LIG     C1    3   1.951   1.983   0.364
    1LIG     O1    4   2.004   2.030   0.520
    1LIG     C2    5   1.949   1.988   0.675
    1LIG     C3    6   2.018   2.048   0.836
    1LIG     O2    7   1.963   2.011   0.990
    1LIG     C4    8   2.029   2.043   1.140
    1LIG     C5    9   1.959   1.994   1.303
    1LIG     O3   10   2.022   2.031   1.453
    1LIG     C6   11   1.967   1.982   1.603
    1LIG     C7   12   2.034   2.033   1.765
    1LIG     O4   13   1.973   1.994   1.916
    1LIG     C8   14   2.031   2.033   2.069
    1LIG     C9   15   1.955   1.988   2.229
    1LIG     O5   16   2.005   2.034   2.382
    1LIG    C10   17   1.947   1.991   2.533
    1LIG    C11   18   2.014   2.050   2.691
    1LIG     O6   19   1.959   2.013   2.843
    1LIG    C12   20   2.025   2.045   2.991
    1LIG    C13   21   1.955   1.997   3.152
    1LIG     O7   22   2.017   2.033   3.302
    1LIG    C14   23   1.963   1.984   3.450
    1LIG    C15   24   2.030   2.034   3.611
    1LIG     O8   25   1.970   1.996   3.763
    1LIG    C16   26   2.030   2.033   3.915
    1LIG    C17   27   1.954   1.988   4.075
    1LIG     O9   28   2.004   2.035   4.228
    1LIG    C18   29   1.945   1.992   4.378
    1LIG    C19   30   2.013   2.050   4.536
    1LIG    O10   31   1.957   2.013   4.687
    1LIG    C20   32   2.023   2.044   4.835
    1LIG    C21   33   1.953   1.998   4.995
    1LIG    O11   34   2.016   2.035   5.144
    1LIG    C22   35   1.963   1.985   5.293
    1LIG    C23   36   2.033   2.035   5.452
    1LIG    O12   37   1.977   1.995   5.603
    1LIG    C24   38   2.045   2.026   5.752
    1LIG    C25   39   1.974   1.979   5.912
    1LIG    O13   40   2.033   2.012   6.066
    1LIG    C26   41   1.984   1.967   6.220
    1LIG    C27   42   2.049   2.027   6.378
    1LIG    O14   43   1.990   1.987   6.527
    1LIG    C28   44   2.041   2.036   6.675
    1LIG    C29   45   1.970   1.985   6.833
    1LIG    O15   46   2.019   2.029   6.984
    1LIG    C30   47   1.961   1.986   7.133
    1LIG    C31   48   2.035   2.028   7.293
    1LIG    O16   49   1.976   1.990   7.443
    1LIG    C32   50   2.034   2.033   7.593
    1LIG    C33   51   1.968   1.983   7.755
    1LIG    O17   52   2.026   2.026   7.905
    1LIG    C34   53   1.970   1.988   8.058
    1LIG    C35   54   2.033   2.043   8.217
    1LIG    O18   55   1.964   2.007   8.363
    1LIG    C36   56   2.018   2.040   8.516
    1LIG    C37   57   1.938   1.994   8.673
    1LIG    O19   58   1.991   2.034   8.827
    1LIG    C38   59   1.940   1.981   8.976
    1LIG    C39   60   2.011   2.029   9.136
    1LIG    O20   61   1.956   1.992   9.290
    1LIG    C40   62   2.020   2.033   9.440
    1LIG    C41   63   1.955   1.982   9.602
    1LIG    O21   64   2.014   2.028   9.752
    1LIG    C42   65   1.960   1.985   9.903
    1LIG    C43   66   2.031   2.039  10.061
    1LIG    O22   67   1.971   2.004  10.211
    1LIG    C44   68   2.030   2.040  10.362
    1LIG    C45   69   1.953   1.995  10.521
    1LIG    O23   70   2.009   2.033  10.673
    1LIG    C46   71   1.952   1.982  10.820
    1LIG    C47   72   2.020   2.029  10.982
    1LIG    O24   73   1.963   1.991  11.134
    1LIG    C48   74   2.023   2.032  11.285
    1LIG    C49   75   1.958   1.980  11.447
    1LIG    O25   76   2.016   2.025  11.596
    1LIG    C50   77   1.960   1.984  11.747
    1LIG    C51   78   2.033   2.035  11.906
    1LIG    O26   79   1.972   2.002  12.057
    1LIG    C52   80   2.031   2.039  12.209
    1LIG    C53   81   1.955   1.995  12.369
    1LIG    O27   82   2.010   2.033  12.522
    1LIG    C54   83   1.954   1.981  12.672
    1LIG    C55   84   2.022   2.028  12.836
    1LIG    O28   85   1.966   1.989  12.991
    1LIG    C56   86   2.025   2.029  13.146
    1LIG    C57   87   1.956   1.975  13.310
    1LIG    O29   88   2.009   2.012  13.468
    1LIG    C58   89   1.940   1.970  13.617
    1LIG    C59   90   2.017   1.968  13.789
    1LIG      H   91   2.053   2.129   0.206
    1LIG     H1   92   2.119   1.970   0.192
    1LIG     H2   93   1.950   1.874   0.365
    1LIG     H3   94   1.846   2.012   0.358
    1LIG     H4   95   1.957   1.879   0.681
    1LIG     H5   96   1.842   2.010   0.678
    1LIG     H6   97   2.019   2.157   0.830
    1LIG     H7   98   2.123   2.020   0.835
    1LIG     H8   99   2.042   2.151   1.146
    1LIG     H9  100   2.131   2.003   1.139
    1LIG    H10  101   1.947   1.886   1.300
    1LIG    H11  102   1.857   2.033   1.302
    1LIG    H12  103   1.974   1.872   1.603
    1LIG    H13  104   1.859   2.002   1.606
    1LIG    H14  105   2.041   2.141   1.760
    1LIG    H15  106   2.138   1.998   1.764
    1LIG    H16  107   2.045   2.141   2.072
    1LIG    H17  108   2.133   1.993   2.073
    1LIG    H18  109   1.952   1.879   2.228
    1LIG    H19  110   1.850   2.018   2.220
    1LIG    H20  111   1.952   1.882   2.538
    1LIG    H21  112   1.839   2.014   2.534
    1LIG    H22  113   2.017   2.160   2.685
    1LIG    H23  114   2.120   2.022   2.690
    1LIG    H24  115   2.040   2.153   2.996
    1LIG    H25  116   2.127   2.003   2.988
    1LIG    H26  117   1.942   1.889   3.149
    1LIG    H27  118   1.853   2.037   3.151
    1LIG    H28  119   1.970   1.874   3.449
    1LIG    H29  120   1.855   2.004   3.453
    1LIG    H30  121   2.037   2.143   3.607
    1LIG    H31  122   2.134   2.000   3.610
    1LIG    H32  123   2.047   2.141   3.919
    1LIG    H33  124   2.131   1.990   3.918
    1LIG    H34  125   1.952   1.879   4.075
    1LIG    H35  126   1.849   2.018   4.066
    1LIG    H36  127   1.950   1.882   4.383
    1LIG    H37  128   1.838   2.015   4.378
    1LIG    H38  129   2.016   2.159   4.530
    1LIG    H39  130   2.118   2.022   4.535
    1LIG    H40  131   2.039   2.153   4.840
    1LIG    H41  132   2.125   2.002   4.833
    1LIG    H42  133   1.939   1.890   4.993
    1LIG    H43  134   1.851   2.039   4.995
    1LIG    H44  135   1.970   1.875   5.292
    1LIG    H45  136   1.856   2.006   5.297
    1LIG    H46  137   2.038   2.144   5.448
    1LIG    H47  138   2.138   2.003   5.449
    1LIG    H48  139   2.065   2.133   5.758
    1LIG    H49  140   2.143   1.977   5.749
    1LIG    H50  141   1.958   1.871   5.905
    1LIG    H51  142   1.873   2.021   5.906
    1LIG    H52  143   1.991   1.858   6.226
    1LIG    H53  144   1.877   1.986   6.230
    1LIG    H54  145   2.049   2.137   6.373
    1LIG    H55  146   2.155   1.998   6.378
    1LIG    H56  147   2.038   2.145   6.675
    1LIG    H57  148   2.147   2.010   6.682
    1LIG    H58  149   1.982   1.878   6.830
    1LIG    H59  150   1.863   2.002   6.825
    1LIG    H60  151   1.951   1.877   7.133
    1LIG    H61  152   1.857   2.022   7.137
    1LIG    H62  153   2.047   2.137   7.291
    1LIG    H63  154   2.137   1.989   7.289
    1LIG    H64  155   2.036   2.142   7.595
    1LIG    H65  156   2.140   2.003   7.594
    1LIG    H66  157   1.967   1.873   7.753
    1LIG    H67  158   1.862   2.012   7.753
    1LIG    H68  159   1.965   1.879   8.064
    1LIG    H69  160   1.866   2.021   8.061
    1LIG    H70  161   2.040   2.152   8.211
    1LIG    H71  162   2.138   2.012   8.221
    1LIG    H72  163   2.035   2.148   8.521
    1LIG    H73  164   2.118   1.995   8.520
    1LIG    H74  165   1.930   1.885   8.672
    1LIG    H75  166   1.834   2.029   8.666
    1LIG    H76  167   1.947   1.871   8.973
    1LIG    H77  168   1.833   2.002   8.983
    1LIG    H78  169   2.022   2.138   9.131
    1LIG    H79  170   2.113   1.989   9.131
    1LIG    H80  171   2.027   2.142   9.442
    1LIG    H81  172   2.124   1.998   9.439
    1LIG    H82  173   1.957   1.873   9.601
    1LIG    H83  174   1.849   2.009   9.601
    1LIG    H84  175   1.962   1.875   9.907
    1LIG    H85  176   1.854   2.012   9.907
    1LIG    H86  177   2.040   2.148  10.055
    1LIG    H87  178   2.135   2.006  10.059
    1LIG    H88  179   2.043   2.149  10.365
    1LIG    H89  180   2.132   1.999  10.366
    1LIG    H90  181   1.941   1.887  10.518
    1LIG    H91  182   1.850   2.034  10.515
    1LIG    H92  183   1.955   1.873  10.818
    1LIG    H93  184   1.846   2.008  10.823
    1LIG    H94  185   2.030   2.138  10.978
    1LIG    H95  186   2.123   1.990  10.978
    1LIG    H96  187   2.029   2.141  11.288
    1LIG    H97  188   2.128   1.998  11.285
    1LIG    H98  189   1.959   1.871  11.444
    1LIG    H99  190   1.851   2.008  11.445
    1LIG   H100  191   1.957   1.875  11.751
    1LIG   H101  192   1.855   2.015  11.751
    1LIG   H102  193   2.046   2.144  11.900
    1LIG   H103  194   2.136   1.998  11.903
    1LIG   H104  195   2.043   2.148  12.211
    1LIG   H105  196   2.133   1.999  12.212
    1LIG   H106  197   1.945   1.886  12.366
    1LIG   H107  198   1.852   2.032  12.363
    1LIG   H108  199   1.958   1.872  12.668
    1LIG   H109  200   1.848   2.006  12.674
    1LIG   H110  201   2.030   2.137  12.832
    1LIG   H111  202   2.125   1.991  12.831
    1LIG   H112  203   2.028   2.138  13.149
    1LIG   H113  204   2.129   1.996  13.147
    1LIG   H114  205   1.958   1.866  13.304
    1LIG   H115  206   1.850   2.003  13.306
    1LIG   H116  207   1.916   1.865  13.603
    1LIG   H117  208   1.844   2.019  13.624
    1LIG   H118  209   2.118   2.006  13.781
    1LIG   H119  210   2.027   1.860  13.800
    2MOL     C1  211   1.657   1.593   6.435
    2MOL     H1  212   1.655   1.484   6.450
    2MOL     O1  213   1.605   1.659   6.552
    2MOL     C2  214   1.603   1.804   6.550
    2MOL     H2  215   1.705   1.844   6.552
    2MOL     C3  216   1.526   1.846   6.676
    2MOL     H3  217   1.426   1.801   6.676
    2MOL     H4  218   1.516   1.954   6.681
    2MOL     O2  219   1.600   1.800   6.787
    2MOL     C4  220   1.543   1.837   6.911
    2MOL     C5  221   1.563   1.628   6.320
    2MOL     H5  222   1.462   1.597   6.347
    2MOL     O3  223   1.603   1.561   6.199
    2MOL     C6  224   1.567   1.421   6.195
    2MOL     C7  225   1.561   1.779   6.296
    2MOL     H6  226   1.659   1.810   6.260
    2MOL     O4  227   1.454   1.806   6.202
    2MOL     C8  228   1.493   1.849   6.072
    2MOL     C9  229   1.528   1.855   6.424
    2MOL     H7  230   1.420   1.844   6.443
    2MOL     O5  231   1.562   1.993   6.398
    2MOL    C10  232   1.462   2.090   6.436
    2MOL     H8  233   1.364   2.042   6.448
    2MOL     O6  234   1.502   2.150   6.559
    2MOL    C11  235   1.631   2.215   6.559
    2MOL     H9  236   1.710   2.142   6.535
    2MOL    C12  237   1.653   2.261   6.702
    2MOL    H10  238   1.576   2.334   6.731
    2MOL    H11  239   1.752   2.306   6.714
    2MOL     O7  240   1.642   2.142   6.781
    2MOL    C13  241   1.683   2.158   6.915
    2MOL    C14  242   1.450   2.203   6.331
    2MOL    H12  243   1.373   2.275   6.362
    2MOL     O8  244   1.414   2.147   6.204
    2MOL    C15  245   1.277   2.103   6.196
    2MOL    C16  246   1.581   2.281   6.318
    2MOL    H13  247   1.655   2.212   6.275
    2MOL     O9  248   1.559   2.397   6.235
    2MOL    C17  249   1.602   2.384   6.098
    2MOL    C18  250   1.633   2.329   6.456
    2MOL    H14  251   1.569   2.411   6.491
    2MOL    O10  252   1.770   2.373   6.436
    2MOL    C19  253   1.803   2.506   6.481
    2MOL    H15  254   1.712   2.561   6.509
    2MOL    O11  255   1.890   2.497   6.596
    2MOL    C20  256   2.020   2.432   6.576
    2MOL    H16  257   2.007   2.325   6.560
    2MOL    C21  258   2.104   2.464   6.700
    2MOL    H17  259   2.076   2.564   6.735
    2MOL    H18  260   2.210   2.465   6.676
    2MOL    O12  261   2.083   2.369   6.803
    2MOL    C22  262   2.150   2.412   6.922
    2MOL    C23  263   1.877   2.587   6.371
    2MOL    H19  264   1.897   2.688   6.408
    2MOL    O13  265   1.796   2.593   6.251
    2MOL    C24  266   1.687   2.687   6.255
    2MOL    C25  267   2.011   2.522   6.333
    2MOL    H20  268   1.994   2.426   6.284
    2MOL    O14  269   2.084   2.612   6.246
    2MOL    C26  270   2.088   2.568   6.109
    2MOL    C27  271   2.098   2.494   6.456
    2MOL    H21  272   2.143   2.589   6.487
    2MOL    O15  273   2.199   2.398   6.416
    2MOL    C28  274   2.336   2.431   6.448
    2MOL    H22  275   2.346   2.538   6.470
    2MOL    O16  276   2.376   2.353   6.562
    2MOL    C29  277   2.366   2.209   6.548
    2MOL    H23  278   2.261   2.180   6.533
    2MOL    C30  279   2.415   2.151   6.679
    2MOL    H24  280   2.379   2.048   6.692
    2MOL    H25  281   2.372   2.214   6.757
    2MOL    O17  282   2.558   2.157   6.684
    2MOL    C31  283   2.611   2.097   6.802
    2MOL    C32  284   2.428   2.393   6.331
    2MOL    H26  285   2.532   2.420   6.359
    2MOL    O18  286   2.390   2.463   6.211
    2MOL    C33  287   2.424   2.602   6.210
    2MOL    C34  288   2.424   2.242   6.303
    2MOL    H27  289   2.324   2.215   6.264
    2MOL    O19  290   2.528   2.210   6.211
    2MOL    C35  291   2.482   2.177   6.081
    2MOL    C36  292   2.450   2.160   6.429
    2MOL    H28  293   2.558   2.172   6.451
    2MOL    O20  294   2.417   2.023   6.399
    2MOL    C37  295   2.515   1.926   6.441
    2MOL    H29  296   2.612   1.974   6.463
    2MOL    O21  297   2.467   1.860   6.559
    2MOL    C38  298   2.340   1.790   6.545
    2MOL    H30  299   2.261   1.861   6.518
    2MOL    C39  300   2.306   1.730   6.680
    2MOL    H31  301   2.203   1.694   6.684
    2MOL    H32  302   2.311   1.814   6.750
    2MOL    O22  303   2.401   1.625   6.709
    2MOL    C40  304   2.370   1.535   6.816
    2MOL    C41  305   2.535   1.819   6.332
    2MOL    H33  306   2.610   1.750   6.369
    2MOL    O23  307   2.577   1.877   6.208
    2MOL    C42  308   2.715   1.913   6.203
    2MOL    C43  309   2.407   1.739   6.305
    2MOL    H34  310   2.332   1.804   6.259
    2MOL    O24  311   2.442   1.628   6.218
    2MOL    C44  312   2.402   1.642   6.081
    2MOL    C45  313   2.350   1.682   6.435
    2MOL    H35  314   2.414   1.599   6.468
    2MOL    O25  315   2.218   1.637   6.404
    2MOL    C46  316   2.183   1.506   6.450
    2MOL    H36  317   2.272   1.446   6.473
    2MOL    O26  318   2.103   1.519   6.568
    2MOL    C47  319   1.982   1.599   6.553
    2MOL    H37  320   2.006   1.705   6.534
    2MOL    C48  321   1.902   1.585   6.680
    2MOL    H38  322   1.901   1.480   6.710
    2MOL    H39  323   1.800   1.618   6.663
    2MOL    O27  324   1.956   1.663   6.784
    2MOL    C49  325   1.868   1.661   6.897
    2MOL    C50  326   2.099   1.435   6.341
    2MOL    H40  327   2.072   1.335   6.377
    2MOL    O28  328   2.177   1.425   6.219
    2MOL    C51  329   2.292   1.339   6.227
    2MOL    C52  330   1.970   1.514   6.311
    2MOL    H41  331   1.995   1.610   6.265
    2MOL    O29  332   1.884   1.434   6.228
    2MOL    C53  333   1.885   1.467   6.089
    2MOL    C54  334   1.894   1.542   6.441
    2MOL    H42  335   1.851   1.447   6.475
    2MOL    O30  336   1.791   1.639   6.409
    2MOL    H43  337   1.662   2.069   6.974
    2MOL    H44  338   1.791   2.173   6.919
    2MOL    H45  339   1.631   2.245   6.957
    2MOL    H46  340   1.619   1.818   6.987
    2MOL    H47  341   1.519   1.943   6.912
    2MOL    H48  342   1.454   1.778   6.934
    2MOL    H49  343   1.886   1.745   6.964
    2MOL    H50  344   1.764   1.667   6.864
    2MOL    H51  345   1.881   1.568   6.952
    2MOL    H52  346   2.437   1.448   6.813
    2MOL    H53  347   2.386   1.584   6.913
    2MOL    H54  348   2.267   1.499   6.807
    2MOL    H55  349   2.720   2.100   6.801
    2MOL    H56  350   2.574   2.152   6.888
    2MOL    H57  351   2.580   1.992   6.808
    2MOL    H58  352   2.125   2.346   7.005
    2MOL    H59  353   2.259   2.411   6.906
    2MOL    H60  354   2.118   2.513   6.950
    2MOL    H61  355   2.745   1.926   6.098
    2MOL    H62  356   2.731   2.008   6.256
    2MOL    H63  357   2.778   1.835   6.248
    2MOL    H64  358   2.567   2.159   6.015
    2MOL    H65  359   2.420   2.086   6.086
    2MOL    H66  360   2.422   2.260   6.041
    2MOL    H67  361   2.406   2.644   6.111
    2MOL    H68  362   2.363   2.658   6.283
    2MOL    H69  363   2.530   2.616   6.235
    2MOL    H70  364   2.145   2.640   6.049
    2MOL    H71  365   2.135   2.470   6.102
    2MOL    H72  366   1.986   2.562   6.069
    2MOL    H73  367   1.645   2.697   6.154
    2MOL    H74  368   1.609   2.653   6.323
    2MOL    H75  369   1.723   2.786   6.286
    2MOL    H76  370   1.570   2.471   6.041
    2MOL    H77  371   1.711   2.378   6.093
    2MOL    H78  372   1.560   2.294   6.052
    2MOL    H79  373   1.254   2.072   6.094
    2MOL    H80  374   1.261   2.018   6.263
    2MOL    H81  375   1.210   2.184   6.226
    2MOL    H82  376   1.417   1.821   5.999
    2MOL    H83  377   1.502   1.958   6.070
    2MOL    H84  378   1.589   1.803   6.044
    2MOL    H85  379   1.580   1.384   6.093
    2MOL    H86  380   1.631   1.363   6.263
    2MOL    H87  381   1.462   1.407   6.224
    2MOL    H88  382   1.826   1.394   6.034
    2MOL    H89  383   1.843   1.567   6.073
    2MOL    H90  384   1.988   1.466   6.052
    2MOL    H91  385   2.332   1.322   6.126
    2MOL    H92  386   2.370   1.384   6.288
    2MOL    H93  387   2.264   1.242   6.271
    2MOL    H94  388   2.440   1.559   6.021
    2MOL    H95  389   2.293   1.640   6.076
    2MOL    H96  390   2.438   1.737   6.039
    3MOL     C1  391   2.352   1.582   7.465
    3MOL     H1  392   2.358   1.473   7.450
    3MOL     O1  393   2.403   1.649   7.348
    3MOL     C2  394   2.402   1.795   7.351
    3MOL     H2  395   2.299   1.833   7.351
    3MOL     C3  396   2.475   1.843   7.226
    3MOL     H3  397   2.577   1.803   7.221
    3MOL     H4  398   2.479   1.951   7.223
    3MOL     O2  399   2.400   1.798   7.116
    3MOL     C4  400   2.457   1.834   6.992
    3MOL     C5  401   2.446   1.622   7.580
    3MOL     H5  402   2.549   1.595   7.552
    3MOL     O3  403   2.410   1.556   7.703
    3MOL     C6  404   2.443   1.417   7.710
    3MOL     C7  405   2.443   1.774   7.603
    3MOL     H6  406   2.341   1.804   7.633
    3MOL     O4  407   2.542   1.809   7.703
    3MOL     C8  408   2.488   1.850   7.829
    3MOL     C9  409   2.478   1.850   7.475
    3MOL     H7  410   2.586   1.840   7.457
    3MOL     O5  411   2.441   1.988   7.498
    3MOL    C10  412   2.539   2.086   7.456
    3MOL     H8  413   2.637   2.040   7.439
    3MOL     O6  414   2.492   2.148   7.336
    3MOL    C11  415   2.361   2.209   7.341
    3MOL     H9  416   2.285   2.135   7.370
    3MOL    C12  417   2.331   2.252   7.199
    3MOL    H10  418   2.410   2.320   7.162
    3MOL    H11  419   2.234   2.303   7.192
    3MOL     O7  420   2.329   2.130   7.123
    3MOL    C13  421   2.305   2.149   6.985
    3MOL    C14  422   2.553   2.198   7.561
    3MOL    H12  423   2.631   2.268   7.527
    3MOL     O8  424   2.589   2.143   7.689
    3MOL    C15  425   2.724   2.095   7.698
    3MOL    C16  426   2.421   2.278   7.577
    3MOL    H13  427   2.347   2.213   7.626
    3MOL     O9  428   2.451   2.395   7.653
    3MOL    C17  429   2.402   2.388   7.786
    3MOL    C18  430   2.359   2.323   7.444
    3MOL    H14  431   2.417   2.409   7.406
    3MOL    O10  432   2.222   2.361   7.471
    3MOL    C19  433   2.187   2.494   7.428
    3MOL    H15  434   2.277   2.552   7.402
    3MOL    O11  435   2.103   2.484   7.311
    3MOL    C20  436   1.972   2.424   7.327
    3MOL    H16  437   1.979   2.316   7.340
    3MOL    C21  438   1.891   2.461   7.203
    3MOL    H17  439   1.921   2.561   7.170
    3MOL    H18  440   1.784   2.465   7.225
    3MOL    O12  441   1.912   2.366   7.099
    3MOL    C22  442   1.846   2.414   6.981
    3MOL    C23  443   2.110   2.573   7.537
    3MOL    H19  444   2.089   2.674   7.500
    3MOL    O13  445   2.188   2.580   7.657
    3MOL    C24  446   2.295   2.675   7.653
    3MOL    C25  447   1.977   2.509   7.572
    3MOL    H20  448   1.995   2.414   7.623
    3MOL    O14  449   1.903   2.603   7.653
    3MOL    C26  450   1.904   2.570   7.791
    3MOL    C27  451   1.894   2.483   7.447
    3MOL    H21  452   1.849   2.578   7.417
    3MOL    O15  453   1.795   2.386   7.486
    3MOL    C28  454   1.659   2.424   7.455
    3MOL    H22  455   1.653   2.531   7.436
    3MOL    O16  456   1.616   2.348   7.341
    3MOL    C29  457   1.623   2.205   7.354
    3MOL    H23  458   1.727   2.174   7.371
    3MOL    C30  459   1.579   2.149   7.219
    3MOL    H24  460   1.606   2.043   7.209
    3MOL    H25  461   1.636   2.207   7.147
    3MOL    O17  462   1.437   2.170   7.201
    3MOL    C31  463   1.383   2.099   7.089
    3MOL    C32  464   1.567   2.388   7.572
    3MOL    H26  465   1.465   2.421   7.548
    3MOL    O18  466   1.613   2.452   7.692
    3MOL    C33  467   1.584   2.591   7.698
    3MOL    C34  468   1.564   2.238   7.598
    3MOL    H27  469   1.665   2.208   7.633
    3MOL    O19  470   1.463   2.213   7.697
    3MOL    C35  471   1.521   2.179   7.822
    3MOL    C36  472   1.535   2.157   7.472
    3MOL    H28  473   1.428   2.168   7.447
    3MOL    O20  474   1.570   2.021   7.503
    3MOL    C37  475   1.477   1.921   7.461
    3MOL    H29  476   1.378   1.965   7.438
    3MOL    O21  477   1.529   1.857   7.344
    3MOL    C38  478   1.659   1.793   7.360
    3MOL    H30  479   1.734   1.867   7.391
    3MOL    C39  480   1.700   1.737   7.226
    3MOL    H31  481   1.805   1.705   7.226
    3MOL    H32  482   1.693   1.819   7.155
    3MOL    O22  483   1.611   1.628   7.195
    3MOL    C40  484   1.657   1.535   7.097
    3MOL    C41  485   1.461   1.815   7.573
    3MOL    H33  486   1.386   1.743   7.542
    3MOL    O23  487   1.420   1.880   7.696
    3MOL    C42  488   1.284   1.926   7.697
    3MOL    C43  489   1.593   1.740   7.599
    3MOL    H34  490   1.667   1.809   7.641
    3MOL    O24  491   1.566   1.629   7.688
    3MOL    C44  492   1.615   1.647   7.821
    3MOL    C45  493   1.651   1.683   7.468
    3MOL    H35  494   1.585   1.602   7.434
    3MOL    O25  495   1.786   1.636   7.493
    3MOL    C46  496   1.817   1.503   7.444
    3MOL    H36  497   1.725   1.448   7.421
    3MOL    O26  498   1.900   1.513   7.326
    3MOL    C47  499   2.024   1.588   7.342
    3MOL    H37  500   2.004   1.694   7.362
    3MOL    C48  501   2.103   1.573   7.213
    3MOL    H38  502   2.089   1.472   7.173
    3MOL    H39  503   2.209   1.587   7.231
    3MOL    O27  504   2.060   1.670   7.120
    3MOL    C49  505   2.142   1.667   7.003
    3MOL    C50  506   1.897   1.427   7.551
    3MOL    H40  507   1.915   1.324   7.516
    3MOL    O28  508   1.823   1.425   7.674
    3MOL    C51  509   1.708   1.338   7.675
    3MOL    C52  510   2.032   1.494   7.579
    3MOL    H41  511   2.014   1.588   7.633
    3MOL    O29  512   2.113   1.402   7.654
    3MOL    C53  513   2.123   1.439   7.791
    3MOL    C54  514   2.112   1.528   7.453
    3MOL    H42  515   2.155   1.435   7.415
    3MOL    O30  516   2.215   1.623   7.490
    3MOL    H43  517   2.327   2.059   6.928
    3MOL    H44  518   2.199   2.170   6.969
    3MOL    H45  519   2.366   2.233   6.950
    3MOL    H46  520   2.383   1.809   6.917
    3MOL    H47  521   2.477   1.941   6.988
    3MOL    H48  522   2.549   1.778   6.973
    3MOL    H49  523   2.126   1.757   6.943
    3MOL    H50  524   2.246   1.661   7.032
    3MOL    H51  525   2.120   1.577   6.944
    3MOL    H52  526   1.596   1.444   7.101
    3MOL    H53  527   1.646   1.579   6.998
    3MOL    H54  528   1.762   1.508   7.115
    3MOL    H55  529   1.275   2.117   7.080
    3MOL    H56  530   1.430   2.132   6.996
    3MOL    H57  531   1.399   1.991   7.101
    3MOL    H58  532   1.870   2.349   6.897
    3MOL    H59  533   1.738   2.416   6.997
    3MOL    H60  534   1.880   2.514   6.956
    3MOL    H61  535   1.254   1.951   7.800
    3MOL    H62  536   1.273   2.015   7.634
    3MOL    H63  537   1.216   1.847   7.661
    3MOL    H64  538   1.446   2.158   7.898
    3MOL    H65  539   1.582   2.090   7.806
    3MOL    H66  540   1.586   2.260   7.857
    3MOL    H67  541   1.598   2.629   7.800
    3MOL    H68  542   1.649   2.647   7.630
    3MOL    H69  543   1.480   2.607   7.669
    3MOL    H70  544   1.845   2.642   7.849
    3MOL    H71  545   1.862   2.470   7.807
    3MOL    H72  546   2.007   2.571   7.827
    3MOL    H73  547   2.340   2.686   7.752
    3MOL    H74  548   2.373   2.640   7.584
    3MOL    H75  549   2.259   2.773   7.620
    3MOL    H76  550   2.430   2.478   7.841
    3MOL    H77  551   2.293   2.379   7.784
    3MOL    H78  552   2.445   2.300   7.836
    3MOL    H79  553   2.749   2.071   7.802
    3MOL    H80  554   2.738   2.004   7.638
    3MOL    H81  555   2.795   2.171   7.663
    3MOL    H82  556   2.569   1.876   7.897
    3MOL    H83  557   2.423   1.938   7.816
    3MOL    H84  558   2.429   1.768   7.873
    3MOL    H85  559   2.426   1.379   7.811
    3MOL    H86  560   2.380   1.359   7.641
    3MOL    H87  561   2.549   1.400   7.685
    3MOL    H88  562   2.178   1.363   7.847
    3MOL    H89  563   2.178   1.533   7.798
    3MOL    H90  564   2.023   1.451   7.835
    3MOL    H91  565   1.670   1.330   7.777
    3MOL    H92  566   1.628   1.378   7.612
    3MOL    H93  567   1.736   1.238   7.639
    3MOL    H94  568   1.590   1.560   7.883
    3MOL    H95  569   1.724   1.660   7.821
    3MOL    H96  570   1.568   1.736   7.866
    4SOL     OW  571   0.234   0.645   0.120
    4SOL    HW1  572   0.140   0.640   0.137
    4SOL    HW2  573   0.246   0.596   0.038
    5SOL     OW  574   0.226   0.285   0.985
    5SOL    HW1  575   0.251   0.250   1.070
    5SOL    HW2  576   0.134   0.262   0.975
    6SOL     OW  577   0.017   0.389   0.632
    6SOL    HW1  578   3.931   0.397   0.674
    6SOL    HW2  579   0.022   0.297   0.605
    7SOL     OW  580   0.574   1.279   1.179
    7SOL    HW1  581   0.487   1.284   1.139
    7SOL    HW2  582   0.590   1.367   1.213
    8SOL     OW  583   1.558   1.512   0.707
    8SOL    HW1  584   1.513   1.495   0.790
    8SOL    HW2  585   1.488   1.517   0.642
    9SOL     OW  586   1.131   0.699   0.704
    9SOL    HW1  587   1.180   0.780   0.690
    9SOL    HW2  588   1.083   0.713   0.785
   10SOL     OW  589   1.749   0.622   0.224
   10SOL    HW1  590   1.770   0.597   0.134
   10SOL    HW2  591   1.752   0.539   0.272
   11SOL     OW  592   0.760   1.144   1.036
   11SOL    HW1  593   0.691   1.176   1.095
   11SOL    HW2  594   0.793   1.222   0.992
   12SOL     OW  595   0.863   0.781   1.822
   12SOL    HW1  596   0.852   0.853   1.884
   12SOL    HW2  597   0.886   0.823   1.739
   13SOL     OW  598   0.686   1.008   0.649
   13SOL    HW1  599   0.750   0.992   0.718
   13SOL    HW2  600   0.616   1.057   0.691
   14SOL     OW  601   0.707   1.151   1.809
   14SOL    HW1  602   0.755   1.230   1.834
   14SOL    HW2  603   0.624   1.183   1.776
   15SOL     OW  604   0.351   1.404   1.079
   15SOL    HW1  605   0.269   1.388   1.032
   15SOL    HW2  606   0.400   1.464   1.022
   16SOL     OW  607   1.462   1.499   1.350
   16SOL    HW1  608   1.507   1.583   1.360
   16SOL    HW2  609   1.408   1.491   1.429
   17SOL     OW  610   0.451   0.406   1.500
   17SOL    HW1  611   0.530   0.353   1.495
   17SOL    HW2  612   0.379   0.342   1.502
   18SOL     OW  613   1.613   0.450   0.736
   18SOL    HW1  614   1.539   0.482   0.684
   18SOL    HW2  615   1.638   0.525   0.789
   19SOL     OW  616   0.228   1.709   0.474
   19SOL    HW1  617   0.245   1.791   0.521
   19SOL    HW2  618   0.288   1.711   0.400
   20SOL     OW  619   1.136   1.341   1.691
   20SOL    HW1  620   1.176   1.337   1.778
   20SOL    HW2  621   1.083   1.261   1.686
   21SOL     OW  622   0.241   1.444   0.542
   21SOL    HW1  623   0.221   1.537   0.530
   21SOL    HW2  624   0.168   1.410   0.593
   22SOL     OW  625   0.245   1.072   0.884
   22SOL    HW1  626   0.263   0.988   0.928
   22SOL    HW2  627   0.194   1.122   0.948
   23SOL     OW  628   0.615   1.790   1.432
   23SOL    HW1  629   0.532   1.773   1.476
   23SOL    HW2  630   0.637   1.880   1.456
   24SOL     OW  631   0.572   0.980   0.154
   24SOL    HW1  632   0.591   1.034   0.078
   24SOL    HW2  633   0.627   1.016   0.224
   25SOL     OW  634   1.577   0.133   1.458
   25SOL    HW1  635   1.599   0.208   1.403
   25SOL    HW2  636   1.559   0.172   1.544
   26SOL     OW  637   0.136   0.649   0.569
   26SOL    HW1  638   0.092   0.564   0.575
   26SOL    HW2  639   0.102   0.699   0.643
   27SOL     OW  640   0.017   1.603   0.131
   27SOL    HW1  641   0.025   1.508   0.140
   27SOL    HW2  642   3.968   1.631   0.208
   28SOL     OW  643   1.688   0.918   0.637
   28SOL    HW1  644   1.774   0.880   0.622
   28SOL    HW2  645   1.670   0.969   0.558
   29SOL     OW  646   1.646   1.109   0.430
   29SOL    HW1  647   1.734   1.113   0.391
   29SOL    HW2  648   1.650   1.168   0.505
   30SOL     OW  649   0.131   0.751   1.592
   30SOL    HW1  650   0.226   0.746   1.600
   30SOL    HW2  651   0.112   0.845   1.600
   31SOL     OW  652   0.611   1.383   0.735
   31SOL    HW1  653   0.565   1.299   0.744
   31SOL    HW2  654   0.596   1.409   0.644
   32SOL     OW  655   1.290   1.239   1.424
   32SOL    HW1  656   1.323   1.171   1.365
   32SOL    HW2  657   1.346   1.231   1.502
   33SOL     OW  658   0.817   0.001   0.516
   33SOL    HW1  659   0.861   0.084   0.493
   33SOL    HW2  660   0.724   0.023   0.516
   34SOL     OW  661   0.187   0.957   1.274
   34SOL    HW1  662   0.275   0.922   1.259
   34SOL    HW2  663   0.131   0.907   1.214
   35SOL     OW  664   1.532   0.993   0.200
   35SOL    HW1  665   1.464   0.933   0.229
   35SOL    HW2  666   1.570   1.027   0.281
   36SOL     OW  667   1.185   1.804   1.620
   36SOL    HW1  668   1.201   1.861   1.545
   36SOL    HW2  669   1.200   1.715   1.587
   37SOL     OW  670   0.338   0.254   1.818
   37SOL    HW1  671   0.385   0.337   1.810
   37SOL    HW2  672   0.248   0.279   1.842
   38SOL     OW  673   1.465   1.420   0.953
   38SOL    HW1  674   1.397   1.433   1.019
   38SOL    HW2  675   1.454   1.329   0.926
   39SOL     OW  676   1.672   1.726   0.571
   39SOL    HW1  677   1.622   1.710   0.491
   39SOL    HW2  678   1.647   1.654   0.629
   40SOL     OW  679   0.596   0.721   0.259
   40SOL    HW1  680   0.601   0.803   0.210
   40SOL    HW2  681   0.537   0.740   0.332
   41SOL     OW  682   1.277   0.361   0.939
   41SOL    HW1  683   1.190   0.321   0.944
   41SOL    HW2  684   1.334   0.301   0.987
   42SOL     OW  685   1.558   1.729   0.309
   42SOL    HW1  686   1.645   1.691   0.318
   42SOL    HW2  687   1.525   1.697   0.225
   43SOL     OW  688   0.796   0.616   1.455
   43SOL    HW1  689   0.766   0.593   1.543
   43SOL    HW2  690   0.753   0.552   1.398
   44SOL     OW  691   1.393   0.476   1.677
   44SOL    HW1  692   1.395   0.520   1.762
   44SOL    HW2  693   1.455   0.404   1.686
   45SOL     OW  694   0.958   0.889   1.581
   45SOL    HW1  695   1.012   0.817   1.547
   45SOL    HW2  696   0.910   0.921   1.505
   46SOL     OW  697   0.991   0.404   1.242
   46SOL    HW1  698   0.910   0.432   1.285
   46SOL    HW2  699   0.962   0.370   1.157
   47SOL     OW  700   1.049   0.701   0.428
   47SOL    HW1  701   1.063   0.692   0.522
   47SOL    HW2  702   0.968   0.653   0.411
   48SOL     OW  703   0.082   0.821   0.790
   48SOL    HW1  704   0.163   0.794   0.832
   48SOL    HW2  705   0.086   0.917   0.790
   49SOL     OW  706   0.129   1.851   1.571
   49SOL    HW1  707   0.136   1.819   1.661
   49SOL    HW2  708   0.037   1.840   1.549
   50SOL     OW  709   0.873   0.360   0.214
   50SOL    HW1  710   0.915   0.415   0.148
   50SOL    HW2  711   0.880   0.271   0.178
   51SOL     OW  712   1.712   0.576   1.828
   51SOL    HW1  713   1.674   0.652   1.784
   51SOL    HW2  714   1.735   0.516   1.757
   52SOL     OW  715   1.375   1.142   0.543
   52SOL    HW1  716   1.453   1.128   0.489
   52SOL    HW2  717   1.323   1.205   0.493
   53SOL     OW  718   0.557   0.196   0.883
   53SOL    HW1  719   0.559   0.214   0.977
   53SOL    HW2  720   0.549   0.282   0.842
   54SOL     OW  721   1.010   1.445   0.476
   54SOL    HW1  722   0.970   1.516   0.426
   54SOL    HW2  723   0.993   1.468   0.568
   55SOL     OW  724   0.363   1.809   0.864
   55SOL    HW1  725   0.427   1.738   0.867
   55SOL    HW2  726   0.415   1.889   0.877
   56SOL     OW  727   1.798   1.058   0.868
   56SOL    HW1  728   1.741   1.044   0.792
   56SOL    HW2  729   1.738   1.064   0.942
   57SOL     OW  730   1.228   1.540   1.513
   57SOL    HW1  731   1.214   1.466   1.573
   57SOL    HW2  732   1.168   1.523   1.440
   58SOL     OW  733   0.315   0.939   0.236
   58SOL    HW1  734   0.406   0.954   0.209
   58SOL    HW2  735   0.304   0.844   0.227
   59SOL     OW  736   1.474   0.740   0.730
   59SOL    HW1  737   1.465   0.694   0.814
   59SOL    HW2  738   1.551   0.795   0.741
   60SOL     OW  739   0.464   1.259   1.737
   60SOL    HW1  740   0.437   1.268   1.645
   60SOL    HW2  741   0.383   1.265   1.787
   61SOL     OW  742   1.119   1.780   0.234
   61SOL    HW1  743   1.057   1.732   0.288
   61SOL    HW2  744   1.147   1.716   0.168
   62SOL     OW  745   0.198   0.297   1.498
   62SOL    HW1  746   0.105   0.319   1.493
   62SOL    HW2  747   0.204   0.236   1.571
   63SOL     OW  748   1.631   1.371   0.081
   63SOL    HW1  749   1.593   1.454   0.055
   63SOL    HW2  750   1.563   1.306   0.062
   64SOL     OW  751   0.482   1.734   0.322
   64SOL    HW1  752   0.517   1.791   0.391
   64SOL    HW2  753   0.558   1.710   0.270
   65SOL     OW  754   1.434   0.145   0.399
   65SOL    HW1  755   1.398   0.066   0.359
   65SOL    HW2  756   1.515   0.115   0.440
   66SOL     OW  757   0.251   1.792   1.233
   66SOL    HW1  758   0.300   1.730   1.286
   66SOL    HW2  759   0.242   1.749   1.148
   67SOL     OW  760   0.937   1.698   0.901
   67SOL    HW1  761   1.015   1.645   0.921
   67SOL    HW2  762   0.892   1.649   0.832
   68SOL     OW  763   0.392   0.696   0.473
   68SOL    HW1  764   0.419   0.605   0.482
   68SOL    HW2  765   0.300   0.696   0.501
   69SOL     OW  766   1.533   0.234   1.726
   69SOL    HW1  767   1.534   0.256   1.819
   69SOL    HW2  768   1.496   0.145   1.723
   70SOL     OW  769   0.625   0.103   0.120
   70SOL    HW1  770   0.721   0.104   0.124
   70SOL    HW2  771   0.604   0.129   0.030
   71SOL     OW  772   0.780   0.282   1.762
   71SOL    HW1  773   0.841   0.209   1.771
   71SOL    HW2  774   0.716   0.269   1.832
   72SOL     OW  775   0.876   1.521   1.194
   72SOL    HW1  776   0.862   1.485   1.106
   72SOL    HW2  777   0.946   1.466   1.231
   73SOL     OW  778   1.343   0.587   1.431
   73SOL    HW1  779   1.372   0.557   1.517
   73SOL    HW2  780   1.376   0.676   1.423
   74SOL     OW  781   0.812   1.398   0.935
   74SOL    HW1  782   0.897   1.388   0.891
   74SOL    HW2  783   0.748   1.395   0.864
   75SOL     OW  784   0.928   0.510   0.902
   75SOL    HW1  785   0.904   0.502   0.810
   75SOL    HW2  786   0.958   0.423   0.928
   76SOL     OW  787   0.549   0.054   0.499
   76SOL    HW1  788   0.473   0.061   0.557
   76SOL    HW2  789   0.545   0.133   0.445
   77SOL     OW  790   1.430   1.201   0.045
   77SOL    HW1  791   1.452   1.120   0.092
   77SOL    HW2  792   1.337   1.214   0.064
   78SOL     OW  793   0.352   3.992   0.168
   78SOL    HW1  794   0.326   0.079   0.140
   78SOL    HW2  795   0.410   0.007   0.244
   79SOL     OW  796   0.936   0.247   0.467
   79SOL    HW1  797   0.906   0.285   0.384
   79SOL    HW2  798   1.032   0.246   0.459
   80SOL     OW  799   1.079   0.680   1.460
   80SOL    HW1  800   1.007   0.617   1.467
   80SOL    HW2  801   1.158   0.625   1.453
   81SOL     OW  802   1.225   1.569   0.794
   81SOL    HW1  803   1.243   1.638   0.729
   81SOL    HW2  804   1.293   1.580   0.860
   82SOL     OW  805   0.465   1.148   0.739
   82SOL    HW1  806   0.393   1.126   0.797
   82SOL    HW2  807   0.431   1.133   0.651
   83SOL     OW  808   1.270   1.795   0.603
   83SOL    HW1  809   1.314   1.858   0.546
   83SOL    HW2  810   1.207   1.847   0.653
   84SOL     OW  811   1.005   0.536   0.058
   84SOL    HW1  812   1.003   0.555  13.864
   84SOL    HW2  813   1.093   0.562   0.086
   85SOL     OW  814   0.078   0.569   1.392
   85SOL    HW1  815   0.167   0.553   1.361
   85SOL    HW2  816   0.088   0.640   1.456
   86SOL     OW  817   0.571   0.232   1.160
   86SOL    HW1  818   0.596   0.140   1.172
   86SOL    HW2  819   0.481   0.236   1.190
   87SOL     OW  820   0.872   0.462   0.638
   87SOL    HW1  821   0.822   0.514   0.576
   87SOL    HW2  822   0.889   0.379   0.593
   88SOL     OW  823   0.994   0.043   0.777
   88SOL    HW1  824   0.959   0.063   0.690
   88SOL    HW2  825   1.003   3.948   0.778
   89SOL     OW  826   1.436   1.164   0.858
   89SOL    HW1  827   1.368   1.095   0.856
   89SOL    HW2  828   1.458   1.177   0.766
   90SOL     OW  829   1.467   0.602   0.981
   90SOL    HW1  830   1.419   0.519   0.987
   90SOL    HW2  831   1.529   0.599   1.054
   91SOL     OW  832   1.850   0.819   0.381
   91SOL    HW1  833   1.901   0.764   0.439
   91SOL    HW2  834   1.813   0.758   0.317
   92SOL     OW  835   0.497   1.379   0.169
   92SOL    HW1  836   0.417   1.367   0.220
   92SOL    HW2  837   0.467   1.402   0.081
   93SOL     OW  838   1.668   1.267   0.647
   93SOL    HW1  839   1.763   1.270   0.662
   93SOL    HW2  840   1.637   1.355   0.669
   94SOL     OW  841   1.414   0.589   0.085
   94SOL    HW1  842   1.345   0.572   0.150
   94SOL    HW2  843   1.473   0.514   0.093
   95SOL     OW  844   0.524   0.256   0.324
   95SOL    HW1  845   0.561   0.206   0.252
   95SOL    HW2  846   0.509   0.344   0.288
   96SOL     OW  847   1.753   1.236   1.577
   96SOL    HW1  848   1.841   1.197   1.574
   96SOL    HW2  849   1.768   1.326   1.606
   97SOL     OW  850   1.061   1.353   1.335
   97SOL    HW1  851   0.986   1.322   1.386
   97SOL    HW2  852   1.136   1.312   1.376
   98SOL     OW  853   1.605   1.625   1.651
   98SOL    HW1  854   1.602   1.660   1.562
   98SOL    HW2  855   1.689   1.580   1.656
   99SOL     OW  856   1.126   1.201   1.107
   99SOL    HW1  857   1.068   1.240   1.173
   99SOL    HW2  858   1.091   1.232   1.023
  100SOL     OW  859   1.631   1.100   1.078
  100SOL    HW1  860   1.627   1.162   1.151
  100SOL    HW2  861   1.550   1.115   1.029
  101SOL     OW  862   0.914   0.108   1.403
  101SOL    HW1  863   0.934   0.085   1.312
  101SOL    HW2  864   0.994   0.151   1.434
  102SOL     OW  865   0.984   1.114   1.722
  102SOL    HW1  866   0.891   1.129   1.741
  102SOL    HW2  867   0.985   1.037   1.666
  103SOL     OW  868   0.712   1.059   0.374
  103SOL    HW1  869   0.697   1.045   0.468
  103SOL    HW2  870   0.787   1.003   0.354
  104SOL     OW  871   0.419   0.814   1.252
  104SOL    HW1  872   0.488   0.821   1.317
  104SOL    HW2  873   0.384   0.726   1.263
  105SOL     OW  874   1.267   0.376   1.275
  105SOL    HW1  875   1.301   0.453   1.319
  105SOL    HW2  876   1.181   0.403   1.242
  106SOL     OW  877   0.063   1.579   1.344
  106SOL    HW1  878   0.062   1.650   1.280
  106SOL    HW2  879   0.156   1.567   1.365
  107SOL     OW  880   0.370   1.104   0.486
  107SOL    HW1  881   0.364   1.181   0.429
  107SOL    HW2  882   0.380   1.030   0.426
  108SOL     OW  883   0.558   0.538   0.860
  108SOL    HW1  884   0.574   0.596   0.786
  108SOL    HW2  885   0.620   0.567   0.927
  109SOL     OW  886   1.248   1.346   0.395
  109SOL    HW1  887   1.304   1.419   0.423
  109SOL    HW2  888   1.161   1.368   0.427
  110SOL     OW  889   1.277   1.456   1.146
  110SOL    HW1  890   1.332   1.458   1.224
  110SOL    HW2  891   1.222   1.378   1.158
  111SOL     OW  892   1.587   0.633   0.486
  111SOL    HW1  893   1.542   0.694   0.544
  111SOL    HW2  894   1.621   0.687   0.415
  112SOL     OW  895   0.346   1.524   1.321
  112SOL    HW1  896   0.336   1.474   1.239
  112SOL    HW2  897   0.440   1.540   1.328
  113SOL     OW  898   0.411   0.741   1.601
  113SOL    HW1  899   0.471   0.788   1.544
  113SOL    HW2  900   0.452   0.656   1.615
  114SOL     OW  901   1.598   0.777   1.680
  114SOL    HW1  902   1.511   0.817   1.672
  114SOL    HW2  903   1.650   0.818   1.612
  115SOL     OW  904   1.022   0.118   1.777
  115SOL    HW1  905   1.051   0.198   1.733
  115SOL    HW2  906   1.015   0.054   1.707
  116SOL     OW  907   0.479   0.036   1.767
  116SOL    HW1  908   0.492   0.035   1.672
  116SOL    HW2  909   0.421   0.111   1.783
  117SOL     OW  910   0.583   0.873   1.031
  117SOL    HW1  911   0.613   0.964   1.029
  117SOL    HW2  912   0.526   0.867   1.108
  118SOL     OW  913   1.360   0.859   1.033
  118SOL    HW1  914   1.279   0.852   0.983
  118SOL    HW2  915   1.398   0.771   1.030
  119SOL     OW  916   1.217   0.542   0.273
  119SOL    HW1  917   1.222   0.462   0.324
  119SOL    HW2  918   1.163   0.601   0.326
  120SOL     OW  919   0.313   0.215   1.241
  120SOL    HW1  920   0.274   0.248   1.322
  120SOL    HW2  921   0.292   0.122   1.240
  121SOL     OW  922   0.055   1.304   1.280
  121SOL    HW1  923   0.089   1.265   1.361
  121SOL    HW2  924   0.050   1.398   1.298
  122SOL     OW  925   0.728   0.635   1.059
  122SOL    HW1  926   0.799   0.616   0.997
  122SOL    HW2  927   0.699   0.723   1.035
  123SOL     OW  928   1.733   0.959   1.851
  123SOL    HW1  929   1.685   0.904   1.789
  123SOL    HW2  930   1.674   0.970   1.925
  124SOL     OW  931   0.325   0.060   0.646
  124SOL    HW1  932   0.296   0.151   0.655
  124SOL    HW2  933   0.279   0.013   0.715
  125SOL     OW  934   1.573   0.385   0.391
  125SOL    HW1  935   1.572   0.322   0.462
  125SOL    HW2  936   1.567   0.471   0.434
  126SOL     OW  937   1.027   0.760   0.962
  126SOL    HW1  938   1.026   0.777   1.056
  126SOL    HW2  939   1.000   0.669   0.954
  127SOL     OW  940   0.983   1.566   1.714
  127SOL    HW1  941   0.967   1.610   1.631
  127SOL    HW2  942   1.025   1.484   1.690
  128SOL     OW  943   1.855   1.509   1.606
  128SOL    HW1  944   1.871   1.535   1.516
  128SOL    HW2  945   1.939   1.524   1.650
  129SOL     OW  946   0.351   0.919   1.802
  129SOL    HW1  947   0.430   0.938   1.852
  129SOL    HW2  948   0.378   0.854   1.737
  130SOL     OW  949   1.543   0.268   0.146
  130SOL    HW1  950   1.471   0.206   0.147
  130SOL    HW2  951   1.540   0.310   0.233
  131SOL     OW  952   1.294   0.831   0.055
  131SOL    HW1  953   1.339   0.747   0.060
  131SOL    HW2  954   1.313   0.863  13.867
  132SOL     OW  955   1.064   1.335   0.852
  132SOL    HW1  956   1.067   1.262   0.790
  132SOL    HW2  957   1.128   1.398   0.818
  133SOL     OW  958   0.314   0.808   0.951
  133SOL    HW1  959   0.408   0.825   0.945
  133SOL    HW2  960   0.307   0.718   0.984
  134SOL     OW  961   0.338   0.526   1.012
  134SOL    HW1  962   0.297   0.441   0.995
  134SOL    HW2  963   0.413   0.529   0.953
  135SOL     OW  964   1.134   0.384   1.689
  135SOL    HW1  965   1.088   0.439   1.751
  135SOL    HW2  966   1.222   0.421   1.684
  136SOL     OW  967   1.151   0.223   1.481
  136SOL    HW1  968   1.144   0.278   1.559
  136SOL    HW2  969   1.173   0.284   1.410
  137SOL     OW  970   0.008   1.325   0.187
  137SOL    HW1  971   3.914   1.341   0.185
  137SOL    HW2  972   0.017   1.235   0.219
  138SOL     OW  973   0.076   1.801   0.890
  138SOL    HW1  974   0.075   1.706   0.901
  138SOL    HW2  975   0.169   1.824   0.893
  139SOL     OW  976   0.504   1.570   0.909
  139SOL    HW1  977   0.574   1.632   0.934
  139SOL    HW2  978   0.548   1.506   0.854
  140SOL     OW  979   0.987   0.794   1.228
  140SOL    HW1  980   1.039   0.769   1.305
  140SOL    HW2  981   0.900   0.757   1.245
  141SOL     OW  982   0.038   0.565   1.113
  141SOL    HW1  983   0.105   0.516   1.064
  141SOL    HW2  984   0.061   0.552   1.205
  142SOL     OW  985   0.207   0.516   1.721
  142SOL    HW1  986   0.259   0.481   1.648
  142SOL    HW2  987   0.156   0.587   1.683
  143SOL     OW  988   1.376   0.941   1.659
  143SOL    HW1  989   1.397   1.035   1.659
  143SOL    HW2  990   1.374   0.917   1.567
  144SOL     OW  991   0.815   0.578   0.362
  144SOL    HW1  992   0.827   0.501   0.306
  144SOL    HW2  993   0.739   0.622   0.325
  145SOL     OW  994   1.643   0.601   1.189
  145SOL    HW1  995   1.632   0.541   1.262
  145SOL    HW2  996   1.730   0.582   1.154
  146SOL     OW  997   0.294   1.547   1.733
  146SOL    HW1  998   0.244   1.617   1.774
  146SOL    HW2  999   0.259   1.466   1.770
  147SOL     OW 1000   0.696   0.458   1.263
  147SOL    HW1 1001   0.650   0.379   1.235
  147SOL    HW2 1002   0.692   0.516   1.186
  148SOL     OW 1003   0.930   1.679   1.466
  148SOL    HW1 1004   0.904   1.648   1.379
  148SOL    HW2 1005   0.929   1.774   1.459
  149SOL     OW 1006   0.445   0.495   0.230
  149SOL    HW1 1007   0.512   0.563   0.238
  149SOL    HW2 1008   0.368   0.542   0.197
  150SOL     OW 1009   0.157   1.137   1.471
  150SOL    HW1 1010   0.164   1.084   1.551
  150SOL    HW2 1011   0.173   1.074   1.400
  151SOL     OW 1012   1.329   1.049   1.225
  151SOL    HW1 1013   1.353   0.986   1.157
  151SOL    HW2 1014   1.256   1.098   1.187
  152SOL     OW 1015   1.308   0.857   0.323
  152SOL    HW1 1016   1.231   0.824   0.369
  152SOL    HW2 1017   1.289   0.845   0.231
  153SOL     OW 1018   1.760   1.745   1.148
  153SOL    HW1 1019   1.825   1.773   1.083
  153SOL    HW2 1020   1.742   1.653   1.125
  154SOL     OW 1021   1.242   1.733   1.116
  154SOL    HW1 1022   1.324   1.751   1.070
  154SOL    HW2 1023   1.245   1.639   1.134
  155SOL     OW 1024   0.076   1.218   1.027
  155SOL    HW1 1025   0.082   1.243   1.119
  155SOL    HW2 1026   3.983   1.223   1.006
  156SOL     OW 1027   0.679   1.664   1.725
  156SOL    HW1 1028   0.625   1.743   1.722
  156SOL    HW2 1029   0.741   1.674   1.653
  157SOL     OW 1030   0.905   0.106   0.140
  157SOL    HW1 1031   0.940   0.089   0.052
  157SOL    HW2 1032   0.918   0.024   0.187
  158SOL     OW 1033   1.703   0.131   0.488
  158SOL    HW1 1034   1.787   0.134   0.442
  158SOL    HW2 1035   1.693   0.039   0.513
  159SOL     OW 1036   1.390   1.571   0.481
  159SOL    HW1 1037   1.445   1.607   0.412
  159SOL    HW2 1038   1.341   1.647   0.514
  160SOL     OW 1039   0.170   1.769   1.828
  160SOL    HW1 1040   0.110   1.722   1.886
  160SOL    HW2 1041   0.213   1.833   1.885
  161SOL     OW 1042   1.277   0.925   0.671
  161SOL    HW1 1043   1.350   0.864   0.677
  161SOL    HW2 1044   1.310   0.998   0.619
  162SOL     OW 1045   0.818   1.272   1.432
  162SOL    HW1 1046   0.792   1.311   1.515
  162SOL    HW2 1047   0.747   1.292   1.372
  163SOL     OW 1048   0.680   1.581   0.180
  163SOL    HW1 1049   0.665   1.618   0.093
  163SOL    HW2 1050   0.628   1.500   0.181
  164SOL     OW 1051   1.631   1.727   1.391
  164SOL    HW1 1052   1.679   1.734   1.309
  164SOL    HW2 1053   1.621   1.818   1.421
  165SOL     OW 1054   1.838   0.175   0.968
  165SOL    HW1 1055   1.869   0.099   0.918
  165SOL    HW2 1056   1.751   0.193   0.933
  166SOL     OW 1057   0.269   0.322   0.716
  166SOL    HW1 1058   0.184   0.359   0.693
  166SOL    HW2 1059   0.264   0.305   0.810
  167SOL     OW 1060   1.211   1.604   0.033
  167SOL    HW1 1061   1.203   1.513   0.062
  167SOL    HW2 1062   1.177   1.604  13.843
  168SOL     OW 1063   0.824   1.005   1.372
  168SOL    HW1 1064   0.867   1.002   1.286
  168SOL    HW2 1065   0.825   1.098   1.396
  169SOL     OW 1066   0.919   0.910   0.286
  169SOL    HW1 1067   0.990   0.947   0.234
  169SOL    HW2 1068   0.959   0.838   0.335
  170SOL     OW 1069   1.488   1.631   0.066
  170SOL    HW1 1070   1.394   1.626   0.049
  170SOL    HW2 1071   1.528   1.639  13.879
  171SOL     OW 1072   0.373   1.301   1.491
  171SOL    HW1 1073   0.358   1.382   1.442
  171SOL    HW2 1074   0.295   1.248   1.474
  172SOL     OW 1075   1.611   1.283   1.281
  172SOL    HW1 1076   1.671   1.276   1.355
  172SOL    HW2 1077   1.551   1.354   1.305
  173SOL     OW 1078   1.048   1.105   0.704
  173SOL    HW1 1079   0.978   1.054   0.745
  173SOL    HW2 1080   1.110   1.040   0.672
  174SOL     OW 1081   1.015   0.246   0.967
  174SOL    HW1 1082   1.003   0.197   0.885
  174SOL    HW2 1083   1.007   0.180   1.036
  175SOL     OW 1084   0.603   1.490   0.483
  175SOL    HW1 1085   0.643   1.438   0.414
  175SOL    HW2 1086   0.536   1.542   0.439
  176SOL     OW 1087   1.718   0.390   1.376
  176SOL    HW1 1088   1.789   0.454   1.377
  176SOL    HW2 1089   1.751   0.319   1.321
  177SOL     OW 1090   0.260   1.320   0.304
  177SOL    HW1 1091   0.184   1.351   0.255
  177SOL    HW2 1092   0.258   1.370   0.385
  178SOL     OW 1093   0.104   1.002   1.719
  178SOL    HW1 1094   0.043   0.988   1.791
  178SOL    HW2 1095   0.190   0.980   1.756
  179SOL     OW 1096   0.692   0.239   1.494
  179SOL    HW1 1097   0.763   0.188   1.454
  179SOL    HW2 1098   0.715   0.244   1.587
  180SOL     OW 1099   0.066   0.365   0.040
  180SOL    HW1 1100   3.972   0.359   0.056
  180SOL    HW2 1101   0.074   0.401  13.852
  181SOL     OW 1102   1.431   0.858   1.401
  181SOL    HW1 1103   1.383   0.918   1.344
  181SOL    HW2 1104   1.521   0.861   1.369
  182SOL     OW 1105   0.053   0.195   0.319
  182SOL    HW1 1106   0.066   0.268   0.260
  182SOL    HW2 1107   0.138   0.150   0.322
  183SOL     OW 1108   1.185   1.350   0.122
  183SOL    HW1 1109   1.092   1.328   0.112
  183SOL    HW2 1110   1.203   1.337   0.215
  184SOL     OW 1111   0.618   0.831   1.434
  184SOL    HW1 1112   0.674   0.907   1.419
  184SOL    HW2 1113   0.679   0.757   1.442
  185SOL     OW 1114   1.488   1.776   0.975
  185SOL    HW1 1115   1.515   1.837   0.906
  185SOL    HW2 1116   1.569   1.761   1.025
  186SOL     OW 1117   0.716   0.565   1.708
  186SOL    HW1 1118   0.755   0.628   1.769
  186SOL    HW2 1119   0.752   0.480   1.735
  187SOL     OW 1120   1.468   1.203   1.633
  187SOL    HW1 1121   1.457   1.216   1.727
  187SOL    HW2 1122   1.562   1.215   1.619
  188SOL     OW 1123   0.382   1.741   1.560
  188SOL    HW1 1124   0.294   1.778   1.547
  188SOL    HW2 1125   0.366   1.659   1.608
  189SOL     OW 1126   1.671   0.882   1.256
  189SOL    HW1 1127   1.664   0.797   1.213
  189SOL    HW2 1128   1.663   0.945   1.185
  190SOL     OW 1129   1.229   0.331   0.444
  190SOL    HW1 1130   1.294   0.261   0.438
  190SOL    HW2 1131   1.250   0.376   0.525
  191SOL     OW 1132   0.592   0.741   0.667
  191SOL    HW1 1133   0.629   0.827   0.649
  191SOL    HW2 1134   0.521   0.732   0.604
  192SOL     OW 1135   1.757   0.377   1.644
  192SOL    HW1 1136   1.740   0.382   1.550
  192SOL    HW2 1137   1.697   0.310   1.675
  193SOL     OW 1138   1.742   0.934   1.513
  193SOL    HW1 1139   1.746   1.029   1.526
  193SOL    HW2 1140   1.728   0.922   1.419
  194SOL     OW 1141   0.902   1.393   0.054
  194SOL    HW1 1142   0.829   1.381   0.114
  194SOL    HW2 1143   0.862   1.421  13.872
  195SOL     OW 1144   0.659   1.793   0.946
  195SOL    HW1 1145   0.638   1.884   0.924
  195SOL    HW2 1146   0.754   1.789   0.940
  196SOL     OW 1147   0.866   0.965   0.856
  196SOL    HW1 1148   0.916   0.894   0.896
  196SOL    HW2 1149   0.833   1.016   0.929
  197SOL     OW 1150   1.097   1.003   0.105
  197SOL    HW1 1151   1.086   1.052   0.023
  197SOL    HW2 1152   1.173   0.947   0.089
  198SOL     OW 1153   1.853   1.527   0.823
  198SOL    HW1 1154   1.765   1.535   0.786
  198SOL    HW2 1155   1.840   1.480   0.905
  199SOL     OW 1156   0.222   1.304   1.854
  199SOL    HW1 1157   0.153   1.242   1.830
  199SOL    HW2 1158   0.210   1.318   1.948
  200SOL     OW 1159   0.106   1.272   0.718
  200SOL    HW1 1160   0.113   1.217   0.796
  200SOL    HW2 1161   0.116   1.211   0.645
  201SOL     OW 1162   0.679   1.401   1.626
  201SOL    HW1 1163   0.599   1.357   1.656
  201SOL    HW2 1164   0.674   1.489   1.663
  202SOL     OW 1165   1.814   0.184   1.239
  202SOL    HW1 1166   1.816   0.090   1.253
  202SOL    HW2 1167   1.827   0.196   1.145
  203SOL     OW 1168   0.436   0.435   0.529
  203SOL    HW1 1169   0.464   0.361   0.474
  203SOL    HW2 1170   0.385   0.394   0.599
  204SOL     OW 1171   1.704   1.487   1.095
  204SOL    HW1 1172   1.620   1.464   1.055
  204SOL    HW2 1173   1.717   1.421   1.163
  205SOL     OW 1174   0.329   0.553   1.291
  205SOL    HW1 1175   0.384   0.496   1.344
  205SOL    HW2 1176   0.346   0.525   1.201
  206SOL     OW 1177   0.825   1.578   0.679
  206SOL    HW1 1178   0.819   1.625   0.596
  206SOL    HW2 1179   0.746   1.523   0.681
  207SOL     OW 1180   1.460   0.250   1.112
  207SOL    HW1 1181   1.477   0.163   1.148
  207SOL    HW2 1182   1.401   0.291   1.175
  208SOL     OW 1183   1.007   0.030   1.148
  208SOL    HW1 1184   0.933   3.976   1.120
  208SOL    HW2 1185   1.080   3.969   1.154
  209SOL     OW 1186   0.771   1.323   0.317
  209SOL    HW1 1187   0.738   1.234   0.331
  209SOL    HW2 1188   0.857   1.324   0.359
  210SOL     OW 1189   0.620   1.559   1.283
  210SOL    HW1 1190   0.623   1.640   1.335
  210SOL    HW2 1191   0.707   1.551   1.246
  211SOL     OW 1192   1.326   0.069   0.145
  211SOL    HW1 1193   1.353   3.999   0.085
  211SOL    HW2 1194   1.253   0.033   0.194
  212SOL     OW 1195   1.287   0.458   0.688
  212SOL    HW1 1196   1.238   0.540   0.687
  212SOL    HW2 1197   1.292   0.434   0.780
  213SOL     OW 1198   1.588   0.211   0.867
  213SOL    HW1 1199   1.536   0.231   0.945
  213SOL    HW2 1200   1.588   0.292   0.816
  214SOL     OW 1201   0.038   1.040   0.253
  214SOL    HW1 1202   0.134   1.031   0.252
  214SOL    HW2 1203   0.008   0.967   0.308
  215SOL     OW 1204   0.890   1.651   0.346
  215SOL    HW1 1205   0.818   1.620   0.290
  215SOL    HW2 1206   0.852   1.725   0.394
  216SOL     OW 1207   0.232   0.623   1.982
  216SOL    HW1 1208   0.139   0.630   2.004
  216SOL    HW2 1209   0.234   0.595   1.891
  217SOL     OW 1210   0.226   0.285   2.846
  217SOL    HW1 1211   0.250   0.251   2.932
  217SOL    HW2 1212   0.133   0.263   2.837
  218SOL     OW 1213   0.017   0.388   2.495
  218SOL    HW1 1214   3.931   0.397   2.536
  218SOL    HW2 1215   0.024   0.296   2.473
  219SOL     OW 1216   0.574   1.279   3.041
  219SOL    HW1 1217   0.487   1.284   3.001
  219SOL    HW2 1218   0.590   1.367   3.075
  220SOL     OW 1219   1.559   1.513   2.569
  220SOL    HW1 1220   1.514   1.495   2.652
  220SOL    HW2 1221   1.488   1.518   2.505
  221SOL     OW 1222   1.131   0.699   2.566
  221SOL    HW1 1223   1.180   0.780   2.552
  221SOL    HW2 1224   1.083   0.714   2.648
  222SOL     OW 1225   1.757   0.617   2.092
  222SOL    HW1 1226   1.742   0.607   1.998
  222SOL    HW2 1227   1.749   0.528   2.127
  223SOL     OW 1228   0.760   1.144   2.898
  223SOL    HW1 1229   0.691   1.176   2.957
  223SOL    HW2 1230   0.793   1.222   2.854
  224SOL     OW 1231   0.862   0.781   3.684
  224SOL    HW1 1232   0.852   0.853   3.746
  224SOL    HW2 1233   0.886   0.823   3.601
  225SOL     OW 1234   0.687   1.008   2.511
  225SOL    HW1 1235   0.750   0.992   2.581
  225SOL    HW2 1236   0.616   1.057   2.554
  226SOL     OW 1237   0.707   1.151   3.672
  226SOL    HW1 1238   0.755   1.230   3.696
  226SOL    HW2 1239   0.624   1.183   3.638
  227SOL     OW 1240   0.351   1.405   2.941
  227SOL    HW1 1241   0.269   1.388   2.894
  227SOL    HW2 1242   0.399   1.464   2.884
  228SOL     OW 1243   1.462   1.499   3.212
  228SOL    HW1 1244   1.507   1.583   3.222
  228SOL    HW2 1245   1.408   1.491   3.291
  229SOL     OW 1246   0.451   0.406   3.362
  229SOL    HW1 1247   0.530   0.353   3.357
  229SOL    HW2 1248   0.380   0.342   3.363
  230SOL     OW 1249   1.613   0.451   2.598
  230SOL    HW1 1250   1.539   0.482   2.545
  230SOL    HW2 1251   1.638   0.526   2.651
  231SOL     OW 1252   0.224   1.716   2.324
  231SOL    HW1 1253   0.243   1.791   2.380
  231SOL    HW2 1254   0.301   1.709   2.267
  232SOL     OW 1255   1.136   1.341   3.553
  232SOL    HW1 1256   1.176   1.337   3.640
  232SOL    HW2 1257   1.083   1.261   3.548
  233SOL     OW 1258   0.243   1.445   2.400
  233SOL    HW1 1259   0.214   1.536   2.390
  233SOL    HW2 1260   0.175   1.404   2.453
  234SOL     OW 1261   0.246   1.072   2.747
  234SOL    HW1 1262   0.263   0.988   2.791
  234SOL    HW2 1263   0.194   1.122   2.810
  235SOL     OW 1264   0.615   1.790   3.294
  235SOL    HW1 1265   0.532   1.773   3.338
  235SOL    HW2 1266   0.637   1.880   3.318
  236SOL     OW 1267   0.585   0.981   1.996
  236SOL    HW1 1268   0.629   1.031   1.927
  236SOL    HW2 1269   0.629   1.009   2.076
  237SOL     OW 1270   1.577   0.133   3.320
  237SOL    HW1 1271   1.599   0.208   3.265
  237SOL    HW2 1272   1.559   0.172   3.406
  238SOL     OW 1273   0.137   0.647   2.431
  238SOL    HW1 1274   0.092   0.563   2.438
  238SOL    HW2 1275   0.102   0.698   2.504
  239SOL     OW 1276   0.043   1.591   2.002
  239SOL    HW1 1277   0.030   1.499   2.022
  239SOL    HW2 1278   3.966   1.635   2.040
  240SOL     OW 1279   1.688   0.917   2.499
  240SOL    HW1 1280   1.774   0.880   2.483
  240SOL    HW2 1281   1.669   0.969   2.420
  241SOL     OW 1282   1.645   1.109   2.292
  241SOL    HW1 1283   1.731   1.116   2.249
  241SOL    HW2 1284   1.650   1.169   2.366
  242SOL     OW 1285   0.131   0.751   3.454
  242SOL    HW1 1286   0.226   0.746   3.462
  242SOL    HW2 1287   0.111   0.845   3.462
  243SOL     OW 1288   0.611   1.382   2.597
  243SOL    HW1 1289   0.566   1.299   2.606
  243SOL    HW2 1290   0.596   1.409   2.507
  244SOL     OW 1291   1.290   1.239   3.286
  244SOL    HW1 1292   1.323   1.171   3.227
  244SOL    HW2 1293   1.346   1.231   3.364
  245SOL     OW 1294   0.815   0.001   2.375
  245SOL    HW1 1295   0.860   0.083   2.356
  245SOL    HW2 1296   0.722   0.024   2.378
  246SOL     OW 1297   0.187   0.957   3.136
  246SOL    HW1 1298   0.275   0.922   3.121
  246SOL    HW2 1299   0.131   0.907   3.076
  247SOL     OW 1300   1.532   0.992   2.058
  247SOL    HW1 1301   1.462   0.934   2.089
  247SOL    HW2 1302   1.571   1.025   2.139
  248SOL     OW 1303   1.185   1.804   3.482
  248SOL    HW1 1304   1.201   1.861   3.407
  248SOL    HW2 1305   1.200   1.715   3.449
  249SOL     OW 1306   0.338   0.254   3.680
  249SOL    HW1 1307   0.385   0.337   3.672
  249SOL    HW2 1308   0.248   0.279   3.704
  250SOL     OW 1309   1.465   1.420   2.815
  250SOL    HW1 1310   1.397   1.434   2.881
  250SOL    HW2 1311   1.454   1.329   2.788
  251SOL     OW 1312   1.670   1.725   2.424
  251SOL    HW1 1313   1.628   1.692   2.343
  251SOL    HW2 1314   1.646   1.660   2.490
  252SOL     OW 1315   0.595   0.721   2.124
  252SOL    HW1 1316   0.604   0.803   2.075
  252SOL    HW2 1317   0.533   0.741   2.194
  253SOL     OW 1318   1.277   0.361   2.802
  253SOL    HW1 1319   1.190   0.321   2.806
  253SOL    HW2 1320   1.334   0.300   2.849
  254SOL     OW 1321   1.577   1.667   2.165
  254SOL    HW1 1322   1.661   1.712   2.150
  254SOL    HW2 1323   1.547   1.644   2.077
  255SOL     OW 1324   0.796   0.616   3.317
  255SOL    HW1 1325   0.766   0.593   3.405
  255SOL    HW2 1326   0.753   0.552   3.260
  256SOL     OW 1327   1.393   0.476   3.539
  256SOL    HW1 1328   1.395   0.520   3.624
  256SOL    HW2 1329   1.455   0.404   3.548
  257SOL     OW 1330   0.958   0.889   3.443
  257SOL    HW1 1331   1.012   0.817   3.409
  257SOL    HW2 1332   0.910   0.921   3.367
  258SOL     OW 1333   0.991   0.404   3.104
  258SOL    HW1 1334   0.910   0.432   3.147
  258SOL    HW2 1335   0.962   0.370   3.019
  259SOL     OW 1336   1.050   0.699   2.289
  259SOL    HW1 1337   1.064   0.691   2.383
  259SOL    HW2 1338   0.968   0.651   2.273
  260SOL     OW 1339   0.081   0.822   2.652
  260SOL    HW1 1340   0.163   0.794   2.694
  260SOL    HW2 1341   0.087   0.917   2.650
  261SOL     OW 1342   0.129   1.851   3.433
  261SOL    HW1 1343   0.136   1.819   3.523
  261SOL    HW2 1344   0.036   1.840   3.411
  262SOL     OW 1345   0.889   0.349   2.060
  262SOL    HW1 1346   0.931   0.407   1.997
  262SOL    HW2 1347   0.895   0.262   2.020
  263SOL     OW 1348   1.712   0.576   3.690
  263SOL    HW1 1349   1.674   0.652   3.646
  263SOL    HW2 1350   1.735   0.516   3.619
  264SOL     OW 1351   1.375   1.142   2.404
  264SOL    HW1 1352   1.454   1.129   2.352
  264SOL    HW2 1353   1.323   1.204   2.353
  265SOL     OW 1354   0.558   0.195   2.745
  265SOL    HW1 1355   0.560   0.214   2.839
  265SOL    HW2 1356   0.548   0.281   2.703
  266SOL     OW 1357   1.008   1.446   2.336
  266SOL    HW1 1358   0.967   1.517   2.287
  266SOL    HW2 1359   0.995   1.468   2.428
  267SOL     OW 1360   0.364   1.810   2.726
  267SOL    HW1 1361   0.428   1.739   2.729
  267SOL    HW2 1362   0.415   1.889   2.740
  268SOL     OW 1363   1.798   1.058   2.730
  268SOL    HW1 1364   1.741   1.045   2.654
  268SOL    HW2 1365   1.738   1.064   2.804
  269SOL     OW 1366   1.228   1.540   3.375
  269SOL    HW1 1367   1.214   1.466   3.435
  269SOL    HW2 1368   1.168   1.523   3.302
  270SOL     OW 1369   0.311   0.956   2.104
  270SOL    HW1 1370   0.397   0.978   2.067
  270SOL    HW2 1371   0.295   0.866   2.075
  271SOL     OW 1372   1.475   0.739   2.592
  271SOL    HW1 1373   1.466   0.694   2.676
  271SOL    HW2 1374   1.552   0.795   2.603
  272SOL     OW 1375   0.464   1.259   3.599
  272SOL    HW1 1376   0.437   1.268   3.507
  272SOL    HW2 1377   0.382   1.265   3.649
  273SOL     OW 1378   1.121   1.777   2.094
  273SOL    HW1 1379   1.049   1.734   2.141
  273SOL    HW2 1380   1.141   1.717   2.022
  274SOL     OW 1381   0.198   0.296   3.359
  274SOL    HW1 1382   0.105   0.319   3.355
  274SOL    HW2 1383   0.204   0.236   3.434
  275SOL     OW 1384   1.628   1.378   1.949
  275SOL    HW1 1385   1.589   1.463   1.932
  275SOL    HW2 1386   1.559   1.315   1.930
  276SOL     OW 1387   0.466   1.739   2.182
  276SOL    HW1 1388   0.507   1.797   2.246
  276SOL    HW2 1389   0.539   1.711   2.126
  277SOL     OW 1390   1.435   0.155   2.268
  277SOL    HW1 1391   1.397   0.091   2.208
  277SOL    HW2 1392   1.516   0.114   2.298
  278SOL     OW 1393   0.250   1.792   3.095
  278SOL    HW1 1394   0.300   1.730   3.149
  278SOL    HW2 1395   0.243   1.749   3.010
  279SOL     OW 1396   0.938   1.698   2.763
  279SOL    HW1 1397   1.015   1.646   2.782
  279SOL    HW2 1398   0.892   1.649   2.694
  280SOL     OW 1399   0.392   0.695   2.336
  280SOL    HW1 1400   0.421   0.604   2.348
  280SOL    HW2 1401   0.300   0.695   2.362
  281SOL     OW 1402   1.533   0.233   3.588
  281SOL    HW1 1403   1.535   0.256   3.681
  281SOL    HW2 1404   1.496   0.145   3.585
  282SOL     OW 1405   0.639   0.139   1.962
  282SOL    HW1 1406   0.679   0.063   2.004
  282SOL    HW2 1407   0.578   0.102   1.898
  283SOL     OW 1408   0.780   0.282   3.624
  283SOL    HW1 1409   0.841   0.209   3.633
  283SOL    HW2 1410   0.716   0.269   3.694
  284SOL     OW 1411   0.876   1.520   3.056
  284SOL    HW1 1412   0.862   1.485   2.968
  284SOL    HW2 1413   0.946   1.466   3.093
  285SOL     OW 1414   1.343   0.587   3.293
  285SOL    HW1 1415   1.372   0.557   3.379
  285SOL    HW2 1416   1.376   0.676   3.285
  286SOL     OW 1417   0.812   1.398   2.797
  286SOL    HW1 1418   0.897   1.388   2.754
  286SOL    HW2 1419   0.748   1.395   2.726
  287SOL     OW 1420   0.928   0.510   2.765
  287SOL    HW1 1421   0.905   0.502   2.673
  287SOL    HW2 1422   0.958   0.423   2.790
  288SOL     OW 1423   0.546   0.057   2.355
  288SOL    HW1 1424   0.471   0.064   2.414
  288SOL    HW2 1425   0.548   0.141   2.309
  289SOL     OW 1426   1.428   1.197   1.903
  289SOL    HW1 1427   1.459   1.122   1.953
  289SOL    HW2 1428   1.342   1.217   1.940
  290SOL     OW 1429   0.329   0.046   2.054
  290SOL    HW1 1430   0.365   0.089   1.977
  290SOL    HW2 1431   0.406   0.019   2.105
  291SOL     OW 1432   0.936   0.245   2.328
  291SOL    HW1 1433   0.908   0.288   2.247
  291SOL    HW2 1434   1.032   0.246   2.324
  292SOL     OW 1435   1.079   0.680   3.322
  292SOL    HW1 1436   1.007   0.617   3.329
  292SOL    HW2 1437   1.158   0.626   3.315
  293SOL     OW 1438   1.224   1.570   2.656
  293SOL    HW1 1439   1.243   1.637   2.591
  293SOL    HW2 1440   1.293   1.580   2.722
  294SOL     OW 1441   0.466   1.149   2.602
  294SOL    HW1 1442   0.392   1.126   2.659
  294SOL    HW2 1443   0.433   1.132   2.514
  295SOL     OW 1444   1.270   1.795   2.467
  295SOL    HW1 1445   1.313   1.857   2.408
  295SOL    HW2 1446   1.206   1.847   2.515
  296SOL     OW 1447   1.026   0.548   1.882
  296SOL    HW1 1448   0.983   0.631   1.863
  296SOL    HW2 1449   1.088   0.569   1.952
  297SOL     OW 1450   0.078   0.569   3.254
  297SOL    HW1 1451   0.167   0.553   3.223
  297SOL    HW2 1452   0.088   0.640   3.318
  298SOL     OW 1453   0.571   0.232   3.022
  298SOL    HW1 1454   0.596   0.140   3.034
  298SOL    HW2 1455   0.481   0.236   3.052
  299SOL     OW 1456   0.873   0.462   2.501
  299SOL    HW1 1457   0.820   0.513   2.440
  299SOL    HW2 1458   0.889   0.379   2.456
  300SOL     OW 1459   0.993   0.043   2.640
  300SOL    HW1 1460   0.962   0.064   2.552
  300SOL    HW2 1461   1.003   3.948   2.640
  301SOL     OW 1462   1.436   1.164   2.720
  301SOL    HW1 1463   1.368   1.096   2.717
  301SOL    HW2 1464   1.459   1.177   2.629
  302SOL     OW 1465   1.468   0.602   2.843
  302SOL    HW1 1466   1.419   0.519   2.849
  302SOL    HW2 1467   1.529   0.599   2.916
  303SOL     OW 1468   1.848   0.821   2.244
  303SOL    HW1 1469   1.903   0.767   2.302
  303SOL    HW2 1470   1.815   0.760   2.178
  304SOL     OW 1471   0.490   1.414   2.025
  304SOL    HW1 1472   0.415   1.382   2.075
  304SOL    HW2 1473   0.467   1.396   1.934
  305SOL     OW 1474   1.668   1.266   2.511
  305SOL    HW1 1475   1.763   1.270   2.523
  305SOL    HW2 1476   1.637   1.354   2.532
  306SOL     OW 1477   1.394   0.572   1.932
  306SOL    HW1 1478   1.333   0.554   2.004
  306SOL    HW2 1479   1.480   0.550   1.968
  307SOL     OW 1480   0.557   0.269   2.184
  307SOL    HW1 1481   0.594   0.227   2.107
  307SOL    HW2 1482   0.529   0.355   2.154
  308SOL     OW 1483   1.753   1.236   3.439
  308SOL    HW1 1484   1.841   1.197   3.436
  308SOL    HW2 1485   1.768   1.326   3.468
  309SOL     OW 1486   1.061   1.353   3.197
  309SOL    HW1 1487   0.986   1.322   3.248
  309SOL    HW2 1488   1.137   1.312   3.238
  310SOL     OW 1489   1.605   1.625   3.513
  310SOL    HW1 1490   1.602   1.660   3.424
  310SOL    HW2 1491   1.689   1.580   3.518
  311SOL     OW 1492   1.125   1.201   2.969
  311SOL    HW1 1493   1.067   1.240   3.035
  311SOL    HW2 1494   1.091   1.232   2.885
  312SOL     OW 1495   1.631   1.100   2.940
  312SOL    HW1 1496   1.627   1.162   3.013
  312SOL    HW2 1497   1.550   1.115   2.891
  313SOL     OW 1498   0.914   0.108   3.265
  313SOL    HW1 1499   0.934   0.085   3.174
  313SOL    HW2 1500   0.994   0.151   3.296
  314SOL     OW 1501   0.984   1.114   3.584
  314SOL    HW1 1502   0.891   1.129   3.603
  314SOL    HW2 1503   0.985   1.037   3.528
  315SOL     OW 1504   0.707   1.060   2.233
  315SOL    HW1 1505   0.694   1.046   2.327
  315SOL    HW2 1506   0.784   1.007   2.212
  316SOL     OW 1507   0.419   0.814   3.114
  316SOL    HW1 1508   0.488   0.821   3.179
  316SOL    HW2 1509   0.384   0.726   3.125
  317SOL     OW 1510   1.267   0.376   3.137
  317SOL    HW1 1511   1.301   0.453   3.181
  317SOL    HW2 1512   1.181   0.403   3.104
  318SOL     OW 1513   0.063   1.579   3.206
  318SOL    HW1 1514   0.063   1.651   3.143
  318SOL    HW2 1515   0.156   1.567   3.227
  319SOL     OW 1516   0.378   1.102   2.350
  319SOL    HW1 1517   0.367   1.179   2.293
  319SOL    HW2 1518   0.374   1.028   2.290
  320SOL     OW 1519   0.558   0.539   2.723
  320SOL    HW1 1520   0.574   0.596   2.648
  320SOL    HW2 1521   0.620   0.567   2.789
  321SOL     OW 1522   1.248   1.348   2.251
  321SOL    HW1 1523   1.303   1.419   2.283
  321SOL    HW2 1524   1.160   1.368   2.285
  322SOL     OW 1525   1.277   1.456   3.008
  322SOL    HW1 1526   1.332   1.458   3.086
  322SOL    HW2 1527   1.222   1.378   3.020
  323SOL     OW 1528   1.580   0.631   2.344
  323SOL    HW1 1529   1.541   0.693   2.405
  323SOL    HW2 1530   1.627   0.685   2.281
  324SOL     OW 1531   0.346   1.524   3.183
  324SOL    HW1 1532   0.336   1.474   3.102
  324SOL    HW2 1533   0.440   1.540   3.190
  325SOL     OW 1534   0.411   0.741   3.463
  325SOL    HW1 1535   0.471   0.788   3.405
  325SOL    HW2 1536   0.453   0.656   3.477
  326SOL     OW 1537   1.598   0.777   3.542
  326SOL    HW1 1538   1.511   0.817   3.534
  326SOL    HW2 1539   1.650   0.818   3.474
  327SOL     OW 1540   1.022   0.118   3.639
  327SOL    HW1 1541   1.051   0.198   3.595
  327SOL    HW2 1542   1.015   0.054   3.569
  328SOL     OW 1543   0.479   0.036   3.629
  328SOL    HW1 1544   0.492   0.035   3.534
  328SOL    HW2 1545   0.421   0.111   3.645
  329SOL     OW 1546   0.583   0.873   2.893
  329SOL    HW1 1547   0.613   0.964   2.891
  329SOL    HW2 1548   0.526   0.867   2.970
  330SOL     OW 1549   1.360   0.859   2.895
  330SOL    HW1 1550   1.279   0.852   2.845
  330SOL    HW2 1551   1.398   0.771   2.892
  331SOL     OW 1552   1.207   0.533   2.128
  331SOL    HW1 1553   1.215   0.454   2.181
  331SOL    HW2 1554   1.164   0.596   2.186
  332SOL     OW 1555   0.313   0.215   3.103
  332SOL    HW1 1556   0.274   0.248   3.184
  332SOL    HW2 1557   0.292   0.122   3.103
  333SOL     OW 1558   0.055   1.304   3.142
  333SOL    HW1 1559   0.089   1.265   3.222
  333SOL    HW2 1560   0.050   1.398   3.160
  334SOL     OW 1561   0.728   0.635   2.921
  334SOL    HW1 1562   0.799   0.616   2.859
  334SOL    HW2 1563   0.699   0.723   2.897
  335SOL     OW 1564   1.733   0.958   3.713
  335SOL    HW1 1565   1.685   0.904   3.651
  335SOL    HW2 1566   1.674   0.970   3.787
  336SOL     OW 1567   0.324   0.056   2.507
  336SOL    HW1 1568   0.295   0.148   2.510
  336SOL    HW2 1569   0.284   0.017   2.585
  337SOL     OW 1570   1.597   0.384   2.245
  337SOL    HW1 1571   1.582   0.317   2.312
  337SOL    HW2 1572   1.578   0.467   2.290
  338SOL     OW 1573   1.027   0.760   2.824
  338SOL    HW1 1574   1.026   0.777   2.918
  338SOL    HW2 1575   1.000   0.669   2.816
  339SOL     OW 1576   0.983   1.566   3.576
  339SOL    HW1 1577   0.967   1.610   3.493
  339SOL    HW2 1578   1.025   1.484   3.552
  340SOL     OW 1579   1.855   1.509   3.468
  340SOL    HW1 1580   1.871   1.535   3.378
  340SOL    HW2 1581   1.939   1.524   3.512
  341SOL     OW 1582   0.351   0.919   3.664
  341SOL    HW1 1583   0.430   0.938   3.714
  341SOL    HW2 1584   0.378   0.854   3.599
  342SOL     OW 1585   1.513   0.275   1.998
  342SOL    HW1 1586   1.437   0.219   2.012
  342SOL    HW2 1587   1.528   0.318   2.082
  343SOL     OW 1588   1.294   0.827   1.895
  343SOL    HW1 1589   1.336   0.741   1.897
  343SOL    HW2 1590   1.325   0.866   1.813
  344SOL     OW 1591   1.064   1.335   2.714
  344SOL    HW1 1592   1.067   1.262   2.653
  344SOL    HW2 1593   1.127   1.398   2.680
  345SOL     OW 1594   0.314   0.808   2.814
  345SOL    HW1 1595   0.408   0.825   2.807
  345SOL    HW2 1596   0.307   0.718   2.846
  346SOL     OW 1597   0.337   0.525   2.874
  346SOL    HW1 1598   0.297   0.440   2.856
  346SOL    HW2 1599   0.413   0.529   2.815
  347SOL     OW 1600   1.134   0.384   3.551
  347SOL    HW1 1601   1.088   0.439   3.613
  347SOL    HW2 1602   1.222   0.421   3.546
  348SOL     OW 1603   1.151   0.223   3.343
  348SOL    HW1 1604   1.144   0.278   3.421
  348SOL    HW2 1605   1.173   0.284   3.272
  349SOL     OW 1606   3.999   1.321   2.044
  349SOL    HW1 1607   3.905   1.337   2.049
  349SOL    HW2 1608   0.009   1.228   2.065
  350SOL     OW 1609   0.076   1.801   2.752
  350SOL    HW1 1610   0.075   1.706   2.763
  350SOL    HW2 1611   0.169   1.825   2.755
  351SOL     OW 1612   0.504   1.570   2.771
  351SOL    HW1 1613   0.573   1.632   2.796
  351SOL    HW2 1614   0.548   1.505   2.716
  352SOL     OW 1615   0.987   0.794   3.090
  352SOL    HW1 1616   1.039   0.769   3.167
  352SOL    HW2 1617   0.900   0.757   3.107
  353SOL     OW 1618   0.037   0.563   2.975
  353SOL    HW1 1619   0.106   0.517   2.927
  353SOL    HW2 1620   0.062   0.552   3.067
  354SOL     OW 1621   0.207   0.516   3.583
  354SOL    HW1 1622   0.259   0.482   3.510
  354SOL    HW2 1623   0.156   0.587   3.545
  355SOL     OW 1624   1.376   0.941   3.521
  355SOL    HW1 1625   1.397   1.035   3.521
  355SOL    HW2 1626   1.374   0.917   3.429
  356SOL     OW 1627   0.817   0.571   2.216
  356SOL    HW1 1628   0.820   0.494   2.160
  356SOL    HW2 1629   0.740   0.620   2.185
  357SOL     OW 1630   1.642   0.601   3.051
  357SOL    HW1 1631   1.632   0.541   3.124
  357SOL    HW2 1632   1.730   0.582   3.016
  358SOL     OW 1633   0.294   1.547   3.595
  358SOL    HW1 1634   0.244   1.617   3.636
  358SOL    HW2 1635   0.258   1.466   3.632
  359SOL     OW 1636   0.696   0.458   3.125
  359SOL    HW1 1637   0.650   0.379   3.097
  359SOL    HW2 1638   0.692   0.516   3.048
  360SOL     OW 1639   0.930   1.679   3.328
  360SOL    HW1 1640   0.904   1.648   3.242
  360SOL    HW2 1641   0.929   1.774   3.321
  361SOL     OW 1642   0.461   0.492   2.055
  361SOL    HW1 1643   0.524   0.562   2.072
  361SOL    HW2 1644   0.379   0.538   2.038
  362SOL     OW 1645   0.157   1.137   3.333
  362SOL    HW1 1646   0.164   1.084   3.413
  362SOL    HW2 1647   0.173   1.074   3.262
  363SOL     OW 1648   1.329   1.049   3.087
  363SOL    HW1 1649   1.353   0.986   3.019
  363SOL    HW2 1650   1.256   1.098   3.049
  364SOL     OW 1651   1.309   0.856   2.169
  364SOL    HW1 1652   1.232   0.826   2.218
  364SOL    HW2 1653   1.285   0.843   2.077
  365SOL     OW 1654   1.757   1.745   3.008
  365SOL    HW1 1655   1.825   1.771   2.946
  365SOL    HW2 1656   1.740   1.653   2.987
  366SOL     OW 1657   1.243   1.733   2.978
  366SOL    HW1 1658   1.324   1.751   2.932
  366SOL    HW2 1659   1.245   1.639   2.996
  367SOL     OW 1660   0.076   1.219   2.888
  367SOL    HW1 1661   0.082   1.243   2.981
  367SOL    HW2 1662   3.982   1.223   2.868
  368SOL     OW 1663   0.679   1.664   3.587
  368SOL    HW1 1664   0.625   1.743   3.584
  368SOL    HW2 1665   0.741   1.674   3.515
  369SOL     OW 1666   1.708   0.130   2.347
  369SOL    HW1 1667   1.790   0.132   2.297
  369SOL    HW2 1668   1.698   0.039   2.374
  370SOL     OW 1669   1.389   1.567   2.345
  370SOL    HW1 1670   1.447   1.598   2.276
  370SOL    HW2 1671   1.342   1.646   2.373
  371SOL     OW 1672   0.170   1.769   3.690
  371SOL    HW1 1673   0.110   1.722   3.748
  371SOL    HW2 1674   0.213   1.833   3.747
  372SOL     OW 1675   1.277   0.925   2.533
  372SOL    HW1 1676   1.350   0.863   2.538
  372SOL    HW2 1677   1.311   0.998   2.481
  373SOL     OW 1678   0.818   1.272   3.294
  373SOL    HW1 1679   0.792   1.311   3.377
  373SOL    HW2 1680   0.747   1.292   3.234
  374SOL     OW 1681   0.671   1.617   2.017
  374SOL    HW1 1682   0.680   1.627   1.923
  374SOL    HW2 1683   0.619   1.537   2.028
  375SOL     OW 1684   1.631   1.727   3.253
  375SOL    HW1 1685   1.679   1.734   3.171
  375SOL    HW2 1686   1.621   1.818   3.283
  376SOL     OW 1687   1.838   0.175   2.830
  376SOL    HW1 1688   1.868   0.099   2.780
  376SOL    HW2 1689   1.751   0.193   2.796
  377SOL     OW 1690   0.271   0.324   2.578
  377SOL    HW1 1691   0.186   0.360   2.553
  377SOL    HW2 1692   0.263   0.306   2.671
  378SOL     OW 1693   1.206   1.608   1.893
  378SOL    HW1 1694   1.197   1.516   1.920
  378SOL    HW2 1695   1.141   1.618   1.823
  379SOL     OW 1696   0.824   1.005   3.234
  379SOL    HW1 1697   0.867   1.002   3.148
  379SOL    HW2 1698   0.825   1.098   3.258
  380SOL     OW 1699   0.915   0.910   2.151
  380SOL    HW1 1700   0.977   0.942   2.086
  380SOL    HW2 1701   0.961   0.839   2.196
  381SOL     OW 1702   1.493   1.623   1.903
  381SOL    HW1 1703   1.398   1.621   1.890
  381SOL    HW2 1704   1.529   1.630   1.815
  382SOL     OW 1705   0.373   1.301   3.353
  382SOL    HW1 1706   0.358   1.382   3.304
  382SOL    HW2 1707   0.295   1.248   3.336
  383SOL     OW 1708   1.611   1.283   3.143
  383SOL    HW1 1709   1.671   1.276   3.217
  383SOL    HW2 1710   1.551   1.354   3.167
  384SOL     OW 1711   1.048   1.105   2.567
  384SOL    HW1 1712   0.978   1.054   2.607
  384SOL    HW2 1713   1.109   1.040   2.533
  385SOL     OW 1714   1.015   0.246   2.829
  385SOL    HW1 1715   1.004   0.197   2.747
  385SOL    HW2 1716   1.007   0.181   2.898
  386SOL     OW 1717   0.602   1.489   2.345
  386SOL    HW1 1718   0.642   1.438   2.275
  386SOL    HW2 1719   0.536   1.542   2.301
  387SOL     OW 1720   1.718   0.390   3.238
  387SOL    HW1 1721   1.789   0.455   3.239
  387SOL    HW2 1722   1.751   0.319   3.183
  388SOL     OW 1723   0.252   1.343   2.152
  388SOL    HW1 1724   0.159   1.354   2.131
  388SOL    HW2 1725   0.262   1.381   2.239
  389SOL     OW 1726   0.104   1.002   3.581
  389SOL    HW1 1727   0.043   0.988   3.653
  389SOL    HW2 1728   0.190   0.980   3.618
  390SOL     OW 1729   0.692   0.239   3.356
  390SOL    HW1 1730   0.763   0.188   3.317
  390SOL    HW2 1731   0.716   0.244   3.449
  391SOL     OW 1732   0.087   0.328   1.890
  391SOL    HW1 1733   3.992   0.322   1.887
  391SOL    HW2 1734   0.108   0.410   1.845
  392SOL     OW 1735   1.431   0.858   3.263
  392SOL    HW1 1736   1.383   0.918   3.206
  392SOL    HW2 1737   1.521   0.861   3.231
  393SOL     OW 1738   0.040   0.160   2.144
  393SOL    HW1 1739   0.039   0.247   2.103
  393SOL    HW2 1740   0.122   0.158   2.194
  394SOL     OW 1741   1.180   1.342   1.979
  394SOL    HW1 1742   1.089   1.312   1.982
  394SOL    HW2 1743   1.208   1.341   2.070
  395SOL     OW 1744   0.618   0.831   3.296
  395SOL    HW1 1745   0.674   0.907   3.281
  395SOL    HW2 1746   0.679   0.757   3.304
  396SOL     OW 1747   1.489   1.776   2.837
  396SOL    HW1 1748   1.514   1.837   2.768
  396SOL    HW2 1749   1.569   1.761   2.887
  397SOL     OW 1750   0.716   0.565   3.570
  397SOL    HW1 1751   0.755   0.628   3.631
  397SOL    HW2 1752   0.752   0.480   3.597
  398SOL     OW 1753   1.468   1.203   3.495
  398SOL    HW1 1754   1.457   1.216   3.589
  398SOL    HW2 1755   1.562   1.215   3.481
  399SOL     OW 1756   0.382   1.741   3.422
  399SOL    HW1 1757   0.294   1.778   3.409
  399SOL    HW2 1758   0.366   1.660   3.470
  400SOL     OW 1759   1.671   0.882   3.118
  400SOL    HW1 1760   1.663   0.797   3.075
  400SOL    HW2 1761   1.663   0.946   3.047
  401SOL     OW 1762   1.225   0.331   2.310
  401SOL    HW1 1763   1.291   0.263   2.301
  401SOL    HW2 1764   1.249   0.377   2.390
  402SOL     OW 1765   0.592   0.741   2.529
  402SOL    HW1 1766   0.630   0.827   2.511
  402SOL    HW2 1767   0.521   0.733   2.465
  403SOL     OW 1768   1.757   0.377   3.506
  403SOL    HW1 1769   1.740   0.382   3.412
  403SOL    HW2 1770   1.697   0.310   3.537
  404SOL     OW 1771   1.742   0.934   3.375
  404SOL    HW1 1772   1.746   1.029   3.388
  404SOL    HW2 1773   1.728   0.922   3.281
  405SOL     OW 1774   0.862   1.368   1.892
  405SOL    HW1 1775   0.823   1.395   1.975
  405SOL    HW2 1776   0.882   1.451   1.848
  406SOL     OW 1777   0.659   1.793   2.809
  406SOL    HW1 1778   0.638   1.883   2.786
  406SOL    HW2 1779   0.754   1.788   2.802
  407SOL     OW 1780   0.866   0.964   2.718
  407SOL    HW1 1781   0.917   0.894   2.759
  407SOL    HW2 1782   0.833   1.016   2.791
  408SOL     OW 1783   1.080   0.988   1.950
  408SOL    HW1 1784   1.058   1.038   1.872
  408SOL    HW2 1785   1.155   0.935   1.925
  409SOL     OW 1786   1.851   1.534   2.687
  409SOL    HW1 1787   1.764   1.535   2.648
  409SOL    HW2 1788   1.841   1.481   2.766
  410SOL     OW 1789   0.222   1.304   3.716
  410SOL    HW1 1790   0.153   1.243   3.692
  410SOL    HW2 1791   0.210   1.318   3.810
  411SOL     OW 1792   0.111   1.272   2.576
  411SOL    HW1 1793   0.113   1.218   2.655
  411SOL    HW2 1794   0.116   1.208   2.504
  412SOL     OW 1795   0.679   1.401   3.488
  412SOL    HW1 1796   0.599   1.357   3.518
  412SOL    HW2 1797   0.674   1.489   3.525
  413SOL     OW 1798   1.813   0.184   3.101
  413SOL    HW1 1799   1.816   0.090   3.115
  413SOL    HW2 1800   1.827   0.196   3.007
  414SOL     OW 1801   0.440   0.435   2.391
  414SOL    HW1 1802   0.452   0.361   2.332
  414SOL    HW2 1803   0.386   0.401   2.462
  415SOL     OW 1804   1.704   1.487   2.958
  415SOL    HW1 1805   1.620   1.463   2.917
  415SOL    HW2 1806   1.717   1.420   3.025
  416SOL     OW 1807   0.329   0.553   3.153
  416SOL    HW1 1808   0.384   0.496   3.206
  416SOL    HW2 1809   0.346   0.525   3.063
  417SOL     OW 1810   0.825   1.578   2.541
  417SOL    HW1 1811   0.820   1.625   2.458
  417SOL    HW2 1812   0.746   1.523   2.543
  418SOL     OW 1813   1.460   0.249   2.974
  418SOL    HW1 1814   1.477   0.163   3.011
  418SOL    HW2 1815   1.401   0.291   3.037
  419SOL     OW 1816   1.007   0.030   3.010
  419SOL    HW1 1817   0.933   3.976   2.982
  419SOL    HW2 1818   1.080   3.970   3.017
  420SOL     OW 1819   0.771   1.332   2.173
  420SOL    HW1 1820   0.738   1.242   2.179
  420SOL    HW2 1821   0.854   1.330   2.221
  421SOL     OW 1822   0.619   1.559   3.145
  421SOL    HW1 1823   0.623   1.640   3.197
  421SOL    HW2 1824   0.707   1.551   3.108
  422SOL     OW 1825   1.317   0.074   2.025
  422SOL    HW1 1826   1.340   0.009   1.958
  422SOL    HW2 1827   1.233   0.043   2.060
  423SOL     OW 1828   1.287   0.458   2.550
  423SOL    HW1 1829   1.238   0.540   2.549
  423SOL    HW2 1830   1.292   0.435   2.643
  424SOL     OW 1831   1.589   0.211   2.730
  424SOL    HW1 1832   1.536   0.231   2.807
  424SOL    HW2 1833   1.588   0.292   2.678
  425SOL     OW 1834   0.044   1.053   2.104
  425SOL    HW1 1835   0.137   1.037   2.096
  425SOL    HW2 1836   0.009   0.975   2.146
  426SOL     OW 1837   0.881   1.650   2.206
  426SOL    HW1 1838   0.810   1.632   2.145
  426SOL    HW2 1839   0.852   1.726   2.256
  427SOL     OW 1840   0.232   0.623   3.844
  427SOL    HW1 1841   0.139   0.630   3.866
  427SOL    HW2 1842   0.233   0.595   3.753
  428SOL     OW 1843   0.226   0.285   4.708
  428SOL    HW1 1844   0.250   0.251   4.794
  428SOL    HW2 1845   0.133   0.263   4.699
  429SOL     OW 1846   0.017   0.388   4.357
  429SOL    HW1 1847   3.931   0.397   4.398
  429SOL    HW2 1848   0.024   0.296   4.335
  430SOL     OW 1849   0.574   1.279   4.903
  430SOL    HW1 1850   0.487   1.284   4.863
  430SOL    HW2 1851   0.590   1.367   4.937
  431SOL     OW 1852   1.559   1.513   4.431
  431SOL    HW1 1853   1.515   1.495   4.514
  431SOL    HW2 1854   1.488   1.518   4.367
  432SOL     OW 1855   1.131   0.699   4.428
  432SOL    HW1 1856   1.180   0.780   4.414
  432SOL    HW2 1857   1.083   0.714   4.510
  433SOL     OW 1858   1.757   0.617   3.954
  433SOL    HW1 1859   1.742   0.607   3.860
  433SOL    HW2 1860   1.749   0.528   3.989
  434SOL     OW 1861   0.760   1.144   4.760
  434SOL    HW1 1862   0.691   1.176   4.819
  434SOL    HW2 1863   0.793   1.222   4.716
  435SOL     OW 1864   0.862   0.781   5.546
  435SOL    HW1 1865   0.853   0.853   5.608
  435SOL    HW2 1866   0.886   0.823   5.463
  436SOL     OW 1867   0.686   1.008   4.373
  436SOL    HW1 1868   0.750   0.992   4.443
  436SOL    HW2 1869   0.616   1.057   4.416
  437SOL     OW 1870   0.707   1.151   5.533
  437SOL    HW1 1871   0.755   1.230   5.558
  437SOL    HW2 1872   0.624   1.183   5.500
  438SOL     OW 1873   0.351   1.405   4.803
  438SOL    HW1 1874   0.269   1.388   4.756
  438SOL    HW2 1875   0.399   1.464   4.746
  439SOL     OW 1876   1.462   1.499   5.074
  439SOL    HW1 1877   1.507   1.583   5.084
  439SOL    HW2 1878   1.408   1.491   5.153
  440SOL     OW 1879   0.451   0.406   5.224
  440SOL    HW1 1880   0.530   0.353   5.219
  440SOL    HW2 1881   0.379   0.342   5.225
  441SOL     OW 1882   1.613   0.451   4.460
  441SOL    HW1 1883   1.539   0.482   4.407
  441SOL    HW2 1884   1.638   0.526   4.513
  442SOL     OW 1885   0.224   1.716   4.186
  442SOL    HW1 1886   0.243   1.791   4.242
  442SOL    HW2 1887   0.301   1.709   4.129
  443SOL     OW 1888   1.136   1.341   5.415
  443SOL    HW1 1889   1.176   1.338   5.502
  443SOL    HW2 1890   1.083   1.261   5.410
  444SOL     OW 1891   0.243   1.445   4.262
  444SOL    HW1 1892   0.214   1.536   4.252
  444SOL    HW2 1893   0.175   1.404   4.315
  445SOL     OW 1894   0.246   1.072   4.609
  445SOL    HW1 1895   0.263   0.988   4.653
  445SOL    HW2 1896   0.194   1.122   4.672
  446SOL     OW 1897   0.615   1.790   5.156
  446SOL    HW1 1898   0.532   1.773   5.200
  446SOL    HW2 1899   0.637   1.880   5.180
  447SOL     OW 1900   0.585   0.981   3.858
  447SOL    HW1 1901   0.629   1.031   3.789
  447SOL    HW2 1902   0.629   1.009   3.938
  448SOL     OW 1903   1.577   0.133   5.182
  448SOL    HW1 1904   1.599   0.208   5.127
  448SOL    HW2 1905   1.559   0.172   5.268
  449SOL     OW 1906   0.137   0.647   4.293
  449SOL    HW1 1907   0.092   0.563   4.300
  449SOL    HW2 1908   0.102   0.698   4.366
  450SOL     OW 1909   0.043   1.591   3.864
  450SOL    HW1 1910   0.030   1.499   3.884
  450SOL    HW2 1911   3.966   1.635   3.902
  451SOL     OW 1912   1.688   0.917   4.361
  451SOL    HW1 1913   1.774   0.880   4.345
  451SOL    HW2 1914   1.669   0.969   4.282
  452SOL     OW 1915   1.645   1.109   4.154
  452SOL    HW1 1916   1.731   1.116   4.111
  452SOL    HW2 1917   1.650   1.169   4.228
  453SOL     OW 1918   0.131   0.751   5.316
  453SOL    HW1 1919   0.226   0.746   5.324
  453SOL    HW2 1920   0.111   0.845   5.324
  454SOL     OW 1921   0.611   1.382   4.459
  454SOL    HW1 1922   0.566   1.299   4.468
  454SOL    HW2 1923   0.596   1.409   4.369
  455SOL     OW 1924   1.290   1.239   5.148
  455SOL    HW1 1925   1.323   1.171   5.089
  455SOL    HW2 1926   1.346   1.231   5.226
  456SOL     OW 1927   0.815   0.001   4.237
  456SOL    HW1 1928   0.860   0.083   4.218
  456SOL    HW2 1929   0.722   0.024   4.240
  457SOL     OW 1930   0.187   0.957   4.998
  457SOL    HW1 1931   0.275   0.922   4.983
  457SOL    HW2 1932   0.131   0.907   4.938
  458SOL     OW 1933   1.532   0.992   3.920
  458SOL    HW1 1934   1.462   0.934   3.951
  458SOL    HW2 1935   1.572   1.025   4.001
  459SOL     OW 1936   1.184   1.804   5.344
  459SOL    HW1 1937   1.201   1.861   5.269
  459SOL    HW2 1938   1.200   1.715   5.311
  460SOL     OW 1939   0.338   0.254   5.542
  460SOL    HW1 1940   0.385   0.337   5.534
  460SOL    HW2 1941   0.248   0.279   5.566
  461SOL     OW 1942   1.465   1.420   4.677
  461SOL    HW1 1943   1.397   1.434   4.743
  461SOL    HW2 1944   1.454   1.329   4.650
  462SOL     OW 1945   1.669   1.725   4.286
  462SOL    HW1 1946   1.628   1.692   4.205
  462SOL    HW2 1947   1.646   1.660   4.352
  463SOL     OW 1948   0.595   0.721   3.986
  463SOL    HW1 1949   0.604   0.803   3.937
  463SOL    HW2 1950   0.533   0.741   4.056
  464SOL     OW 1951   1.277   0.361   4.664
  464SOL    HW1 1952   1.190   0.321   4.668
  464SOL    HW2 1953   1.334   0.300   4.711
  465SOL     OW 1954   1.577   1.667   4.027
  465SOL    HW1 1955   1.661   1.711   4.012
  465SOL    HW2 1956   1.547   1.644   3.939
  466SOL     OW 1957   0.796   0.615   5.179
  466SOL    HW1 1958   0.766   0.593   5.267
  466SOL    HW2 1959   0.753   0.552   5.122
  467SOL     OW 1960   1.393   0.476   5.401
  467SOL    HW1 1961   1.395   0.520   5.486
  467SOL    HW2 1962   1.455   0.404   5.410
  468SOL     OW 1963   0.958   0.889   5.305
  468SOL    HW1 1964   1.012   0.817   5.271
  468SOL    HW2 1965   0.910   0.921   5.229
  469SOL     OW 1966   0.991   0.404   4.966
  469SOL    HW1 1967   0.910   0.432   5.009
  469SOL    HW2 1968   0.962   0.370   4.881
  470SOL     OW 1969   1.050   0.699   4.151
  470SOL    HW1 1970   1.064   0.691   4.245
  470SOL    HW2 1971   0.968   0.651   4.135
  471SOL     OW 1972   0.081   0.822   4.514
  471SOL    HW1 1973   0.163   0.794   4.556
  471SOL    HW2 1974   0.087   0.917   4.512
  472SOL     OW 1975   0.129   1.851   5.295
  472SOL    HW1 1976   0.136   1.819   5.385
  472SOL    HW2 1977   0.037   1.840   5.273
  473SOL     OW 1978   0.889   0.349   3.922
  473SOL    HW1 1979   0.931   0.407   3.859
  473SOL    HW2 1980   0.895   0.262   3.882
  474SOL     OW 1981   1.712   0.576   5.552
  474SOL    HW1 1982   1.674   0.652   5.508
  474SOL    HW2 1983   1.735   0.516   5.481
  475SOL     OW 1984   1.375   1.142   4.266
  475SOL    HW1 1985   1.454   1.129   4.214
  475SOL    HW2 1986   1.323   1.204   4.215
  476SOL     OW 1987   0.557   0.195   4.607
  476SOL    HW1 1988   0.560   0.214   4.701
  476SOL    HW2 1989   0.548   0.281   4.565
  477SOL     OW 1990   1.008   1.446   4.198
  477SOL    HW1 1991   0.967   1.517   4.149
  477SOL    HW2 1992   0.995   1.468   4.290
  478SOL     OW 1993   0.364   1.810   4.588
  478SOL    HW1 1994   0.428   1.739   4.591
  478SOL    HW2 1995   0.415   1.889   4.602
  479SOL     OW 1996   1.798   1.058   4.592
  479SOL    HW1 1997   1.741   1.045   4.516
  479SOL    HW2 1998   1.738   1.064   4.666
  480SOL     OW 1999   1.227   1.540   5.237
  480SOL    HW1 2000   1.214   1.467   5.297
  480SOL    HW2 2001   1.168   1.523   5.164
  481SOL     OW 2002   0.311   0.956   3.966
  481SOL    HW1 2003   0.397   0.978   3.929
  481SOL    HW2 2004   0.295   0.866   3.937
  482SOL     OW 2005   1.475   0.739   4.454
  482SOL    HW1 2006   1.466   0.695   4.538
  482SOL    HW2 2007   1.552   0.795   4.465
  483SOL     OW 2008   0.464   1.259   5.461
  483SOL    HW1 2009   0.437   1.268   5.369
  483SOL    HW2 2010   0.382   1.265   5.511
  484SOL     OW 2011   1.121   1.777   3.956
  484SOL    HW1 2012   1.049   1.734   4.003
  484SOL    HW2 2013   1.141   1.717   3.884
  485SOL     OW 2014   0.198   0.296   5.221
  485SOL    HW1 2015   0.105   0.319   5.217
  485SOL    HW2 2016   0.204   0.236   5.296
  486SOL     OW 2017   1.628   1.378   3.811
  486SOL    HW1 2018   1.589   1.463   3.794
  486SOL    HW2 2019   1.559   1.315   3.792
  487SOL     OW 2020   0.466   1.739   4.044
  487SOL    HW1 2021   0.507   1.797   4.108
  487SOL    HW2 2022   0.539   1.711   3.988
  488SOL     OW 2023   1.435   0.155   4.130
  488SOL    HW1 2024   1.397   0.091   4.070
  488SOL    HW2 2025   1.516   0.114   4.160
  489SOL     OW 2026   0.251   1.792   4.957
  489SOL    HW1 2027   0.300   1.730   5.011
  489SOL    HW2 2028   0.242   1.749   4.872
  490SOL     OW 2029   0.938   1.698   4.625
  490SOL    HW1 2030   1.015   1.646   4.644
  490SOL    HW2 2031   0.893   1.649   4.556
  491SOL     OW 2032   0.392   0.695   4.198
  491SOL    HW1 2033   0.421   0.604   4.210
  491SOL    HW2 2034   0.300   0.695   4.224
  492SOL     OW 2035   1.533   0.233   5.450
  492SOL    HW1 2036   1.535   0.256   5.543
  492SOL    HW2 2037   1.495   0.145   5.447
  493SOL     OW 2038   0.639   0.139   3.824
  493SOL    HW1 2039   0.679   0.063   3.866
  493SOL    HW2 2040   0.578   0.102   3.760
  494SOL     OW 2041   0.780   0.281   5.486
  494SOL    HW1 2042   0.841   0.209   5.495
  494SOL    HW2 2043   0.716   0.269   5.556
  495SOL     OW 2044   0.876   1.520   4.918
  495SOL    HW1 2045   0.862   1.485   4.830
  495SOL    HW2 2046   0.946   1.466   4.955
  496SOL     OW 2047   1.343   0.587   5.155
  496SOL    HW1 2048   1.372   0.557   5.241
  496SOL    HW2 2049   1.376   0.676   5.147
  497SOL     OW 2050   0.812   1.398   4.659
  497SOL    HW1 2051   0.897   1.388   4.616
  497SOL    HW2 2052   0.748   1.395   4.588
  498SOL     OW 2053   0.928   0.510   4.627
  498SOL    HW1 2054   0.905   0.502   4.535
  498SOL    HW2 2055   0.958   0.423   4.652
  499SOL     OW 2056   0.546   0.057   4.217
  499SOL    HW1 2057   0.471   0.064   4.276
  499SOL    HW2 2058   0.548   0.141   4.171
  500SOL     OW 2059   1.428   1.197   3.765
  500SOL    HW1 2060   1.459   1.122   3.815
  500SOL    HW2 2061   1.342   1.217   3.802
  501SOL     OW 2062   0.329   0.046   3.916
  501SOL    HW1 2063   0.365   0.089   3.839
  501SOL    HW2 2064   0.406   0.019   3.967
  502SOL     OW 2065   0.936   0.245   4.190
  502SOL    HW1 2066   0.908   0.288   4.109
  502SOL    HW2 2067   1.032   0.246   4.186
  503SOL     OW 2068   1.079   0.680   5.184
  503SOL    HW1 2069   1.008   0.617   5.191
  503SOL    HW2 2070   1.158   0.626   5.177
  504SOL     OW 2071   1.224   1.570   4.518
  504SOL    HW1 2072   1.243   1.637   4.453
  504SOL    HW2 2073   1.293   1.580   4.584
  505SOL     OW 2074   0.466   1.149   4.464
  505SOL    HW1 2075   0.392   1.126   4.521
  505SOL    HW2 2076   0.433   1.132   4.376
  506SOL     OW 2077   1.270   1.795   4.329
  506SOL    HW1 2078   1.313   1.857   4.270
  506SOL    HW2 2079   1.206   1.847   4.377
  507SOL     OW 2080   1.026   0.548   3.744
  507SOL    HW1 2081   0.983   0.631   3.725
  507SOL    HW2 2082   1.088   0.569   3.814
  508SOL     OW 2083   0.078   0.569   5.116
  508SOL    HW1 2084   0.167   0.553   5.085
  508SOL    HW2 2085   0.088   0.640   5.180
  509SOL     OW 2086   0.571   0.232   4.884
  509SOL    HW1 2087   0.596   0.140   4.896
  509SOL    HW2 2088   0.481   0.236   4.914
  510SOL     OW 2089   0.873   0.462   4.363
  510SOL    HW1 2090   0.821   0.513   4.302
  510SOL    HW2 2091   0.889   0.379   4.318
  511SOL     OW 2092   0.993   0.043   4.502
  511SOL    HW1 2093   0.962   0.064   4.414
  511SOL    HW2 2094   1.003   3.948   4.502
  512SOL     OW 2095   1.436   1.164   4.582
  512SOL    HW1 2096   1.368   1.096   4.579
  512SOL    HW2 2097   1.459   1.177   4.491
  513SOL     OW 2098   1.468   0.602   4.705
  513SOL    HW1 2099   1.419   0.519   4.711
  513SOL    HW2 2100   1.529   0.599   4.778
  514SOL     OW 2101   1.848   0.821   4.106
  514SOL    HW1 2102   1.903   0.767   4.164
  514SOL    HW2 2103   1.815   0.760   4.040
  515SOL     OW 2104   0.490   1.414   3.887
  515SOL    HW1 2105   0.415   1.382   3.937
  515SOL    HW2 2106   0.467   1.396   3.796
  516SOL     OW 2107   1.668   1.266   4.373
  516SOL    HW1 2108   1.763   1.270   4.385
  516SOL    HW2 2109   1.637   1.354   4.394
  517SOL     OW 2110   1.394   0.572   3.794
  517SOL    HW1 2111   1.333   0.554   3.866
  517SOL    HW2 2112   1.480   0.550   3.830
  518SOL     OW 2113   0.557   0.269   4.046
  518SOL    HW1 2114   0.594   0.227   3.969
  518SOL    HW2 2115   0.529   0.355   4.016
  519SOL     OW 2116   1.753   1.236   5.301
  519SOL    HW1 2117   1.841   1.197   5.297
  519SOL    HW2 2118   1.767   1.326   5.331
  520SOL     OW 2119   1.061   1.353   5.059
  520SOL    HW1 2120   0.986   1.322   5.110
  520SOL    HW2 2121   1.137   1.312   5.100
  521SOL     OW 2122   1.604   1.624   5.372
  521SOL    HW1 2123   1.604   1.660   5.283
  521SOL    HW2 2124   1.689   1.579   5.379
  522SOL     OW 2125   1.125   1.201   4.831
  522SOL    HW1 2126   1.068   1.240   4.897
  522SOL    HW2 2127   1.091   1.232   4.747
  523SOL     OW 2128   1.631   1.100   4.802
  523SOL    HW1 2129   1.627   1.162   4.875
  523SOL    HW2 2130   1.550   1.115   4.753
  524SOL     OW 2131   0.914   0.108   5.127
  524SOL    HW1 2132   0.934   0.085   5.036
  524SOL    HW2 2133   0.994   0.151   5.158
  525SOL     OW 2134   0.984   1.114   5.446
  525SOL    HW1 2135   0.891   1.130   5.465
  525SOL    HW2 2136   0.985   1.037   5.390
  526SOL     OW 2137   0.707   1.060   4.095
  526SOL    HW1 2138   0.694   1.046   4.189
  526SOL    HW2 2139   0.784   1.007   4.074
  527SOL     OW 2140   0.419   0.814   4.976
  527SOL    HW1 2141   0.488   0.821   5.041
  527SOL    HW2 2142   0.384   0.726   4.987
  528SOL     OW 2143   1.267   0.376   4.999
  528SOL    HW1 2144   1.301   0.453   5.043
  528SOL    HW2 2145   1.181   0.403   4.966
  529SOL     OW 2146   0.063   1.579   5.068
  529SOL    HW1 2147   0.063   1.651   5.004
  529SOL    HW2 2148   0.156   1.567   5.089
  530SOL     OW 2149   0.377   1.102   4.212
  530SOL    HW1 2150   0.367   1.179   4.155
  530SOL    HW2 2151   0.374   1.028   4.152
  531SOL     OW 2152   0.558   0.538   4.585
  531SOL    HW1 2153   0.574   0.596   4.510
  531SOL    HW2 2154   0.620   0.567   4.651
  532SOL     OW 2155   1.248   1.348   4.113
  532SOL    HW1 2156   1.303   1.419   4.145
  532SOL    HW2 2157   1.160   1.368   4.147
  533SOL     OW 2158   1.277   1.456   4.870
  533SOL    HW1 2159   1.332   1.458   4.948
  533SOL    HW2 2160   1.222   1.378   4.882
  534SOL     OW 2161   1.580   0.631   4.206
  534SOL    HW1 2162   1.541   0.693   4.267
  534SOL    HW2 2163   1.627   0.685   4.143
  535SOL     OW 2164   0.346   1.524   5.045
  535SOL    HW1 2165   0.336   1.474   4.964
  535SOL    HW2 2166   0.440   1.540   5.052
  536SOL     OW 2167   0.411   0.741   5.325
  536SOL    HW1 2168   0.471   0.788   5.267
  536SOL    HW2 2169   0.453   0.656   5.339
  537SOL     OW 2170   1.597   0.777   5.404
  537SOL    HW1 2171   1.511   0.817   5.396
  537SOL    HW2 2172   1.650   0.818   5.336
  538SOL     OW 2173   1.022   0.118   5.501
  538SOL    HW1 2174   1.051   0.198   5.457
  538SOL    HW2 2175   1.015   0.054   5.430
  539SOL     OW 2176   0.479   0.036   5.491
  539SOL    HW1 2177   0.492   0.035   5.396
  539SOL    HW2 2178   0.421   0.111   5.507
  540SOL     OW 2179   0.583   0.873   4.755
  540SOL    HW1 2180   0.613   0.964   4.753
  540SOL    HW2 2181   0.526   0.867   4.832
  541SOL     OW 2182   1.360   0.859   4.757
  541SOL    HW1 2183   1.279   0.852   4.707
  541SOL    HW2 2184   1.398   0.771   4.754
  542SOL     OW 2185   1.207   0.533   3.990
  542SOL    HW1 2186   1.215   0.454   4.043
  542SOL    HW2 2187   1.164   0.596   4.048
  543SOL     OW 2188   0.313   0.215   4.965
  543SOL    HW1 2189   0.274   0.248   5.046
  543SOL    HW2 2190   0.292   0.122   4.965
  544SOL     OW 2191   0.055   1.304   5.004
  544SOL    HW1 2192   0.089   1.265   5.084
  544SOL    HW2 2193   0.050   1.398   5.022
  545SOL     OW 2194   0.728   0.635   4.783
  545SOL    HW1 2195   0.799   0.616   4.721
  545SOL    HW2 2196   0.699   0.723   4.759
  546SOL     OW 2197   1.733   0.959   5.574
  546SOL    HW1 2198   1.684   0.904   5.513
  546SOL    HW2 2199   1.674   0.970   5.648
  547SOL     OW 2200   0.324   0.056   4.369
  547SOL    HW1 2201   0.295   0.148   4.372
  547SOL    HW2 2202   0.284   0.017   4.447
  548SOL     OW 2203   1.597   0.384   4.107
  548SOL    HW1 2204   1.582   0.317   4.174
  548SOL    HW2 2205   1.578   0.467   4.152
  549SOL     OW 2206   1.027   0.760   4.686
  549SOL    HW1 2207   1.026   0.777   4.780
  549SOL    HW2 2208   1.000   0.669   4.678
  550SOL     OW 2209   0.982   1.566   5.439
  550SOL    HW1 2210   0.967   1.610   5.355
  550SOL    HW2 2211   1.025   1.484   5.415
  551SOL     OW 2212   1.855   1.509   5.330
  551SOL    HW1 2213   1.871   1.535   5.240
  551SOL    HW2 2214   1.939   1.523   5.374
  552SOL     OW 2215   0.351   0.919   5.526
  552SOL    HW1 2216   0.430   0.939   5.576
  552SOL    HW2 2217   0.378   0.854   5.461
  553SOL     OW 2218   1.513   0.275   3.860
  553SOL    HW1 2219   1.437   0.220   3.874
  553SOL    HW2 2220   1.528   0.318   3.944
  554SOL     OW 2221   1.294   0.827   3.757
  554SOL    HW1 2222   1.336   0.741   3.759
  554SOL    HW2 2223   1.325   0.866   3.675
  555SOL     OW 2224   1.064   1.335   4.576
  555SOL    HW1 2225   1.067   1.262   4.515
  555SOL    HW2 2226   1.127   1.398   4.542
  556SOL     OW 2227   0.314   0.808   4.676
  556SOL    HW1 2228   0.408   0.825   4.669
  556SOL    HW2 2229   0.307   0.718   4.708
  557SOL     OW 2230   0.337   0.525   4.736
  557SOL    HW1 2231   0.297   0.440   4.718
  557SOL    HW2 2232   0.413   0.530   4.677
  558SOL     OW 2233   1.134   0.384   5.413
  558SOL    HW1 2234   1.088   0.439   5.476
  558SOL    HW2 2235   1.222   0.421   5.408
  559SOL     OW 2236   1.151   0.223   5.205
  559SOL    HW1 2237   1.144   0.278   5.283
  559SOL    HW2 2238   1.173   0.284   5.134
  560SOL     OW 2239   3.999   1.321   3.906
  560SOL    HW1 2240   3.905   1.337   3.911
  560SOL    HW2 2241   0.009   1.228   3.927
  561SOL     OW 2242   0.076   1.801   4.614
  561SOL    HW1 2243   0.075   1.706   4.625
  561SOL    HW2 2244   0.169   1.824   4.617
  562SOL     OW 2245   0.504   1.570   4.633
  562SOL    HW1 2246   0.574   1.632   4.658
  562SOL    HW2 2247   0.548   1.505   4.578
  563SOL     OW 2248   0.987   0.794   4.952
  563SOL    HW1 2249   1.039   0.769   5.029
  563SOL    HW2 2250   0.900   0.758   4.969
  564SOL     OW 2251   0.037   0.563   4.837
  564SOL    HW1 2252   0.106   0.517   4.789
  564SOL    HW2 2253   0.062   0.552   4.929
  565SOL     OW 2254   0.207   0.516   5.445
  565SOL    HW1 2255   0.259   0.482   5.372
  565SOL    HW2 2256   0.156   0.587   5.407
  566SOL     OW 2257   1.376   0.941   5.383
  566SOL    HW1 2258   1.397   1.035   5.383
  566SOL    HW2 2259   1.374   0.917   5.291
  567SOL     OW 2260   0.817   0.571   4.078
  567SOL    HW1 2261   0.820   0.494   4.022
  567SOL    HW2 2262   0.740   0.620   4.047
  568SOL     OW 2263   1.642   0.601   4.913
  568SOL    HW1 2264   1.632   0.541   4.986
  568SOL    HW2 2265   1.730   0.582   4.878
  569SOL     OW 2266   0.294   1.547   5.457
  569SOL    HW1 2267   0.243   1.617   5.498
  569SOL    HW2 2268   0.259   1.466   5.494
  570SOL     OW 2269   0.696   0.458   4.987
  570SOL    HW1 2270   0.650   0.379   4.959
  570SOL    HW2 2271   0.692   0.516   4.910
  571SOL     OW 2272   0.929   1.679   5.190
  571SOL    HW1 2273   0.904   1.648   5.103
  571SOL    HW2 2274   0.930   1.774   5.183
  572SOL     OW 2275   0.461   0.492   3.917
  572SOL    HW1 2276   0.524   0.562   3.934
  572SOL    HW2 2277   0.379   0.538   3.900
  573SOL     OW 2278   0.157   1.137   5.195
  573SOL    HW1 2279   0.164   1.084   5.275
  573SOL    HW2 2280   0.172   1.074   5.124
  574SOL     OW 2281   1.329   1.049   4.949
  574SOL    HW1 2282   1.353   0.986   4.881
  574SOL    HW2 2283   1.256   1.098   4.911
  575SOL     OW 2284   1.309   0.856   4.031
  575SOL    HW1 2285   1.232   0.826   4.080
  575SOL    HW2 2286   1.285   0.843   3.939
  576SOL     OW 2287   1.754   1.744   4.868
  576SOL    HW1 2288   1.824   1.770   4.808
  576SOL    HW2 2289   1.737   1.652   4.848
  577SOL     OW 2290   1.243   1.733   4.840
  577SOL    HW1 2291   1.324   1.751   4.794
  577SOL    HW2 2292   1.245   1.639   4.858
  578SOL     OW 2293   0.076   1.219   4.750
  578SOL    HW1 2294   0.082   1.243   4.843
  578SOL    HW2 2295   3.982   1.223   4.730
  579SOL     OW 2296   0.679   1.664   5.449
  579SOL    HW1 2297   0.625   1.743   5.445
  579SOL    HW2 2298   0.742   1.673   5.377
  580SOL     OW 2299   1.708   0.130   4.209
  580SOL    HW1 2300   1.790   0.132   4.159
  580SOL    HW2 2301   1.698   0.039   4.236
  581SOL     OW 2302   1.389   1.567   4.207
  581SOL    HW1 2303   1.447   1.598   4.138
  581SOL    HW2 2304   1.342   1.646   4.235
  582SOL     OW 2305   0.170   1.769   5.552
  582SOL    HW1 2306   0.110   1.722   5.609
  582SOL    HW2 2307   0.213   1.833   5.609
  583SOL     OW 2308   1.277   0.925   4.395
  583SOL    HW1 2309   1.350   0.863   4.400
  583SOL    HW2 2310   1.311   0.998   4.343
  584SOL     OW 2311   0.819   1.272   5.156
  584SOL    HW1 2312   0.792   1.311   5.239
  584SOL    HW2 2313   0.747   1.292   5.096
  585SOL     OW 2314   0.671   1.617   3.879
  585SOL    HW1 2315   0.680   1.627   3.785
  585SOL    HW2 2316   0.619   1.537   3.890
  586SOL     OW 2317   1.631   1.728   5.115
  586SOL    HW1 2318   1.678   1.735   5.032
  586SOL    HW2 2319   1.621   1.818   5.145
  587SOL     OW 2320   1.838   0.175   4.692
  587SOL    HW1 2321   1.868   0.099   4.642
  587SOL    HW2 2322   1.751   0.193   4.658
  588SOL     OW 2323   0.271   0.324   4.440
  588SOL    HW1 2324   0.186   0.360   4.415
  588SOL    HW2 2325   0.263   0.306   4.533
  589SOL     OW 2326   1.206   1.608   3.755
  589SOL    HW1 2327   1.197   1.516   3.782
  589SOL    HW2 2328   1.141   1.618   3.685
  590SOL     OW 2329   0.824   1.005   5.096
  590SOL    HW1 2330   0.867   1.002   5.010
  590SOL    HW2 2331   0.825   1.098   5.120
  591SOL     OW 2332   0.915   0.910   4.013
  591SOL    HW1 2333   0.977   0.942   3.948
  591SOL    HW2 2334   0.961   0.839   4.058
  592SOL     OW 2335   1.493   1.623   3.765
  592SOL    HW1 2336   1.398   1.621   3.752
  592SOL    HW2 2337   1.529   1.630   3.677
  593SOL     OW 2338   0.372   1.301   5.215
  593SOL    HW1 2339   0.358   1.382   5.166
  593SOL    HW2 2340   0.295   1.248   5.198
  594SOL     OW 2341   1.611   1.283   5.005
  594SOL    HW1 2342   1.671   1.276   5.080
  594SOL    HW2 2343   1.551   1.353   5.030
  595SOL     OW 2344   1.048   1.105   4.429
  595SOL    HW1 2345   0.978   1.054   4.469
  595SOL    HW2 2346   1.109   1.040   4.395
  596SOL     OW 2347   1.015   0.246   4.691
  596SOL    HW1 2348   1.004   0.197   4.609
  596SOL    HW2 2349   1.007   0.181   4.760
  597SOL     OW 2350   0.602   1.489   4.207
  597SOL    HW1 2351   0.643   1.438   4.137
  597SOL    HW2 2352   0.536   1.542   4.163
  598SOL     OW 2353   1.718   0.390   5.100
  598SOL    HW1 2354   1.789   0.455   5.101
  598SOL    HW2 2355   1.751   0.319   5.045
  599SOL     OW 2356   0.252   1.343   4.014
  599SOL    HW1 2357   0.159   1.354   3.993
  599SOL    HW2 2358   0.262   1.381   4.101
  600SOL     OW 2359   0.104   1.002   5.443
  600SOL    HW1 2360   0.043   0.988   5.515
  600SOL    HW2 2361   0.190   0.980   5.480
  601SOL     OW 2362   0.692   0.239   5.218
  601SOL    HW1 2363   0.763   0.188   5.179
  601SOL    HW2 2364   0.716   0.244   5.311
  602SOL     OW 2365   0.087   0.328   3.752
  602SOL    HW1 2366   3.992   0.322   3.749
  602SOL    HW2 2367   0.108   0.410   3.707
  603SOL     OW 2368   1.431   0.858   5.125
  603SOL    HW1 2369   1.383   0.918   5.068
  603SOL    HW2 2370   1.521   0.861   5.093
  604SOL     OW 2371   0.040   0.160   4.006
  604SOL    HW1 2372   0.039   0.247   3.965
  604SOL    HW2 2373   0.122   0.158   4.056
  605SOL     OW 2374   1.180   1.342   3.841
  605SOL    HW1 2375   1.089   1.312   3.844
  605SOL    HW2 2376   1.209   1.341   3.932
  606SOL     OW 2377   0.618   0.831   5.158
  606SOL    HW1 2378   0.674   0.907   5.143
  606SOL    HW2 2379   0.679   0.757   5.166
  607SOL     OW 2380   1.489   1.776   4.700
  607SOL    HW1 2381   1.514   1.837   4.630
  607SOL    HW2 2382   1.569   1.762   4.749
  608SOL     OW 2383   0.716   0.565   5.432
  608SOL    HW1 2384   0.755   0.628   5.492
  608SOL    HW2 2385   0.752   0.480   5.459
  609SOL     OW 2386   1.468   1.203   5.357
  609SOL    HW1 2387   1.457   1.216   5.451
  609SOL    HW2 2388   1.562   1.215   5.343
  610SOL     OW 2389   0.382   1.741   5.284
  610SOL    HW1 2390   0.295   1.778   5.271
  610SOL    HW2 2391   0.366   1.660   5.332
  611SOL     OW 2392   1.671   0.882   4.980
  611SOL    HW1 2393   1.663   0.797   4.937
  611SOL    HW2 2394   1.663   0.946   4.909
  612SOL     OW 2395   1.225   0.331   4.172
  612SOL    HW1 2396   1.291   0.263   4.163
  612SOL    HW2 2397   1.248   0.377   4.252
  613SOL     OW 2398   0.592   0.741   4.391
  613SOL    HW1 2399   0.630   0.827   4.373
  613SOL    HW2 2400   0.521   0.733   4.327
  614SOL     OW 2401   1.757   0.377   5.368
  614SOL    HW1 2402   1.740   0.382   5.274
  614SOL    HW2 2403   1.697   0.310   5.399
  615SOL     OW 2404   1.742   0.934   5.237
  615SOL    HW1 2405   1.746   1.029   5.250
  615SOL    HW2 2406   1.728   0.923   5.143
  616SOL     OW 2407   0.862   1.368   3.754
  616SOL    HW1 2408   0.823   1.395   3.837
  616SOL    HW2 2409   0.882   1.451   3.709
  617SOL     OW 2410   0.659   1.793   4.671
  617SOL    HW1 2411   0.638   1.883   4.648
  617SOL    HW2 2412   0.754   1.788   4.664
  618SOL     OW 2413   0.866   0.964   4.580
  618SOL    HW1 2414   0.917   0.894   4.621
  618SOL    HW2 2415   0.833   1.016   4.653
  619SOL     OW 2416   1.080   0.988   3.812
  619SOL    HW1 2417   1.058   1.038   3.734
  619SOL    HW2 2418   1.155   0.935   3.787
  620SOL     OW 2419   1.851   1.538   4.551
  620SOL    HW1 2420   1.765   1.537   4.510
  620SOL    HW2 2421   1.842   1.482   4.628
  621SOL     OW 2422   0.222   1.304   5.578
  621SOL    HW1 2423   0.153   1.242   5.554
  621SOL    HW2 2424   0.210   1.318   5.672
  622SOL     OW 2425   0.111   1.271   4.438
  622SOL    HW1 2426   0.113   1.218   4.517
  622SOL    HW2 2427   0.116   1.208   4.366
  623SOL     OW 2428   0.678   1.401   5.349
  623SOL    HW1 2429   0.599   1.357   5.380
  623SOL    HW2 2430   0.674   1.488   5.387
  624SOL     OW 2431   1.813   0.184   4.963
  624SOL    HW1 2432   1.816   0.090   4.977
  624SOL    HW2 2433   1.827   0.196   4.869
  625SOL     OW 2434   0.440   0.435   4.253
  625SOL    HW1 2435   0.452   0.361   4.194
  625SOL    HW2 2436   0.386   0.401   4.324
  626SOL     OW 2437   1.703   1.486   4.820
  626SOL    HW1 2438   1.620   1.463   4.779
  626SOL    HW2 2439   1.717   1.419   4.887
  627SOL     OW 2440   0.329   0.553   5.015
  627SOL    HW1 2441   0.384   0.496   5.068
  627SOL    HW2 2442   0.346   0.525   4.925
  628SOL     OW 2443   0.825   1.578   4.404
  628SOL    HW1 2444   0.820   1.625   4.320
  628SOL    HW2 2445   0.746   1.523   4.405
  629SOL     OW 2446   1.460   0.249   4.836
  629SOL    HW1 2447   1.477   0.163   4.873
  629SOL    HW2 2448   1.401   0.291   4.899
  630SOL     OW 2449   1.007   0.030   4.872
  630SOL    HW1 2450   0.933   3.976   4.844
  630SOL    HW2 2451   1.080   3.970   4.879
  631SOL     OW 2452   0.771   1.332   4.035
  631SOL    HW1 2453   0.738   1.242   4.041
  631SOL    HW2 2454   0.854   1.330   4.083
  632SOL     OW 2455   0.619   1.559   5.007
  632SOL    HW1 2456   0.623   1.640   5.059
  632SOL    HW2 2457   0.707   1.551   4.970
  633SOL     OW 2458   1.317   0.074   3.887
  633SOL    HW1 2459   1.340   0.009   3.821
  633SOL    HW2 2460   1.233   0.043   3.922
  634SOL     OW 2461   1.287   0.458   4.412
  634SOL    HW1 2462   1.238   0.540   4.411
  634SOL    HW2 2463   1.292   0.435   4.505
  635SOL     OW 2464   1.589   0.211   4.592
  635SOL    HW1 2465   1.536   0.231   4.669
  635SOL    HW2 2466   1.588   0.292   4.540
  636SOL     OW 2467   0.044   1.053   3.966
  636SOL    HW1 2468   0.137   1.037   3.958
  636SOL    HW2 2469   0.009   0.975   4.008
  637SOL     OW 2470   0.881   1.650   4.068
  637SOL    HW1 2471   0.810   1.632   4.007
  637SOL    HW2 2472   0.852   1.726   4.118
  638SOL     OW 2473   0.232   0.623   5.706
  638SOL    HW1 2474   0.139   0.630   5.728
  638SOL    HW2 2475   0.233   0.595   5.615
  639SOL     OW 2476   0.226   0.285   6.570
  639SOL    HW1 2477   0.250   0.251   6.656
  639SOL    HW2 2478   0.133   0.263   6.561
  640SOL     OW 2479   0.017   0.388   6.219
  640SOL    HW1 2480   3.931   0.397   6.260
  640SOL    HW2 2481   0.024   0.296   6.197
  641SOL     OW 2482   0.574   1.279   6.765
  641SOL    HW1 2483   0.487   1.284   6.725
  641SOL    HW2 2484   0.590   1.367   6.799
  642SOL     OW 2485   1.131   0.699   6.290
  642SOL    HW1 2486   1.180   0.780   6.275
  642SOL    HW2 2487   1.084   0.714   6.372
  643SOL     OW 2488   1.757   0.616   5.816
  643SOL    HW1 2489   1.742   0.607   5.722
  643SOL    HW2 2490   1.750   0.527   5.850
  644SOL     OW 2491   0.759   1.143   6.622
  644SOL    HW1 2492   0.691   1.176   6.680
  644SOL    HW2 2493   0.793   1.221   6.578
  645SOL     OW 2494   0.862   0.781   7.407
  645SOL    HW1 2495   0.854   0.853   7.470
  645SOL    HW2 2496   0.886   0.823   7.325
  646SOL     OW 2497   0.686   1.008   6.235
  646SOL    HW1 2498   0.750   0.992   6.304
  646SOL    HW2 2499   0.616   1.057   6.278
  647SOL     OW 2500   0.707   1.151   7.396
  647SOL    HW1 2501   0.755   1.230   7.420
  647SOL    HW2 2502   0.623   1.184   7.362
  648SOL     OW 2503   0.351   1.405   6.665
  648SOL    HW1 2504   0.269   1.388   6.618
  648SOL    HW2 2505   0.400   1.464   6.608
  649SOL     OW 2506   1.434   1.489   6.911
  649SOL    HW1 2507   1.460   1.581   6.919
  649SOL    HW2 2508   1.381   1.473   6.989
  650SOL     OW 2509   0.451   0.406   7.087
  650SOL    HW1 2510   0.530   0.353   7.081
  650SOL    HW2 2511   0.379   0.342   7.087
  651SOL     OW 2512   1.613   0.451   6.322
  651SOL    HW1 2513   1.539   0.482   6.269
  651SOL    HW2 2514   1.638   0.526   6.375
  652SOL     OW 2515   0.224   1.716   6.048
  652SOL    HW1 2516   0.243   1.791   6.104
  652SOL    HW2 2517   0.301   1.709   5.991
  653SOL     OW 2518   1.135   1.342   7.277
  653SOL    HW1 2519   1.178   1.339   7.362
  653SOL    HW2 2520   1.083   1.262   7.273
  654SOL     OW 2521   0.243   1.445   6.124
  654SOL    HW1 2522   0.214   1.536   6.114
  654SOL    HW2 2523   0.175   1.404   6.177
  655SOL     OW 2524   0.245   1.072   6.471
  655SOL    HW1 2525   0.263   0.988   6.514
  655SOL    HW2 2526   0.194   1.122   6.534
  656SOL     OW 2527   0.615   1.791   7.016
  656SOL    HW1 2528   0.532   1.772   7.061
  656SOL    HW2 2529   0.636   1.881   7.042
  657SOL     OW 2530   0.585   0.981   5.720
  657SOL    HW1 2531   0.629   1.031   5.651
  657SOL    HW2 2532   0.629   1.009   5.800
  658SOL     OW 2533   1.577   0.133   7.044
  658SOL    HW1 2534   1.599   0.208   6.988
  658SOL    HW2 2535   1.559   0.172   7.130
  659SOL     OW 2536   0.137   0.647   6.155
  659SOL    HW1 2537   0.092   0.563   6.162
  659SOL    HW2 2538   0.102   0.698   6.228
  660SOL     OW 2539   0.043   1.592   5.726
  660SOL    HW1 2540   0.030   1.499   5.746
  660SOL    HW2 2541   3.966   1.635   5.764
  661SOL     OW 2542   1.687   0.917   6.221
  661SOL    HW1 2543   1.778   0.888   6.217
  661SOL    HW2 2544   1.674   0.965   6.139
  662SOL     OW 2545   1.654   1.114   6.017
  662SOL    HW1 2546   1.736   1.110   5.967
  662SOL    HW2 2547   1.674   1.168   6.093
  663SOL     OW 2548   0.131   0.751   7.178
  663SOL    HW1 2549   0.226   0.746   7.186
  663SOL    HW2 2550   0.112   0.845   7.186
  664SOL     OW 2551   0.611   1.382   6.321
  664SOL    HW1 2552   0.566   1.299   6.330
  664SOL    HW2 2553   0.596   1.408   6.231
  665SOL     OW 2554   1.290   1.239   7.011
  665SOL    HW1 2555   1.324   1.173   6.950
  665SOL    HW2 2556   1.345   1.231   7.089
  666SOL     OW 2557   0.815   0.001   6.099
  666SOL    HW1 2558   0.860   0.083   6.080
  666SOL    HW2 2559   0.722   0.024   6.102
  667SOL     OW 2560   0.187   0.957   6.860
  667SOL    HW1 2561   0.275   0.922   6.845
  667SOL    HW2 2562   0.131   0.907   6.799
  668SOL     OW 2563   1.532   0.992   5.782
  668SOL    HW1 2564   1.462   0.934   5.813
  668SOL    HW2 2565   1.572   1.025   5.862
  669SOL     OW 2566   1.169   1.810   7.188
  669SOL    HW1 2567   1.240   1.848   7.137
  669SOL    HW2 2568   1.184   1.716   7.184
  670SOL     OW 2569   0.338   0.254   7.404
  670SOL    HW1 2570   0.385   0.337   7.396
  670SOL    HW2 2571   0.248   0.279   7.428
  671SOL     OW 2572   1.417   1.416   6.518
  671SOL    HW1 2573   1.362   1.423   6.596
  671SOL    HW2 2574   1.435   1.322   6.510
  672SOL     OW 2575   0.595   0.721   5.848
  672SOL    HW1 2576   0.604   0.803   5.799
  672SOL    HW2 2577   0.533   0.741   5.918
  673SOL     OW 2578   1.277   0.361   6.526
  673SOL    HW1 2579   1.190   0.321   6.530
  673SOL    HW2 2580   1.334   0.300   6.573
  674SOL     OW 2581   1.591   1.628   5.873
  674SOL    HW1 2582   1.646   1.707   5.872
  674SOL    HW2 2583   1.555   1.623   5.785
  675SOL     OW 2584   0.796   0.615   7.041
  675SOL    HW1 2585   0.765   0.593   7.129
  675SOL    HW2 2586   0.753   0.552   6.984
  676SOL     OW 2587   1.393   0.476   7.263
  676SOL    HW1 2588   1.395   0.520   7.348
  676SOL    HW2 2589   1.455   0.404   7.272
  677SOL     OW 2590   0.957   0.889   7.167
  677SOL    HW1 2591   1.012   0.818   7.133
  677SOL    HW2 2592   0.910   0.922   7.091
  678SOL     OW 2593   0.990   0.403   6.828
  678SOL    HW1 2594   0.910   0.432   6.871
  678SOL    HW2 2595   0.962   0.370   6.743
  679SOL     OW 2596   1.050   0.699   6.013
  679SOL    HW1 2597   1.064   0.692   6.107
  679SOL    HW2 2598   0.968   0.652   5.997
  680SOL     OW 2599   0.081   0.822   6.376
  680SOL    HW1 2600   0.163   0.794   6.418
  680SOL    HW2 2601   0.087   0.917   6.374
  681SOL     OW 2602   0.129   1.851   7.157
  681SOL    HW1 2603   0.136   1.819   7.247
  681SOL    HW2 2604   0.037   1.840   7.135
  682SOL     OW 2605   0.889   0.349   5.784
  682SOL    HW1 2606   0.931   0.407   5.721
  682SOL    HW2 2607   0.895   0.262   5.744
  683SOL     OW 2608   1.712   0.576   7.414
  683SOL    HW1 2609   1.674   0.652   7.370
  683SOL    HW2 2610   1.734   0.516   7.343
  684SOL     OW 2611   1.381   1.146   6.131
  684SOL    HW1 2612   1.453   1.126   6.071
  684SOL    HW2 2613   1.324   1.205   6.082
  685SOL     OW 2614   0.557   0.195   6.469
  685SOL    HW1 2615   0.560   0.214   6.563
  685SOL    HW2 2616   0.548   0.281   6.427
  686SOL     OW 2617   1.004   1.442   6.059
  686SOL    HW1 2618   0.968   1.516   6.010
  686SOL    HW2 2619   1.000   1.470   6.151
  687SOL     OW 2620   0.364   1.810   6.450
  687SOL    HW1 2621   0.428   1.739   6.453
  687SOL    HW2 2622   0.415   1.889   6.464
  688SOL     OW 2623   1.797   1.051   6.457
  688SOL    HW1 2624   1.739   1.038   6.381
  688SOL    HW2 2625   1.738   1.061   6.531
  689SOL     OW 2626   1.228   1.539   7.096
  689SOL    HW1 2627   1.216   1.470   7.161
  689SOL    HW2 2628   1.162   1.520   7.029
  690SOL     OW 2629   0.311   0.956   5.827
  690SOL    HW1 2630   0.397   0.978   5.791
  690SOL    HW2 2631   0.296   0.866   5.799
  691SOL     OW 2632   1.475   0.740   6.316
  691SOL    HW1 2633   1.466   0.695   6.400
  691SOL    HW2 2634   1.552   0.795   6.327
  692SOL     OW 2635   0.464   1.259   7.323
  692SOL    HW1 2636   0.437   1.268   7.231
  692SOL    HW2 2637   0.382   1.265   7.372
  693SOL     OW 2638   1.120   1.783   5.816
  693SOL    HW1 2639   1.056   1.736   5.869
  693SOL    HW2 2640   1.143   1.722   5.746
  694SOL     OW 2641   0.198   0.296   7.083
  694SOL    HW1 2642   0.105   0.319   7.079
  694SOL    HW2 2643   0.204   0.236   7.158
  695SOL     OW 2644   1.631   1.377   5.668
  695SOL    HW1 2645   1.590   1.462   5.656
  695SOL    HW2 2646   1.561   1.314   5.653
  696SOL     OW 2647   0.466   1.740   5.905
  696SOL    HW1 2648   0.507   1.797   5.970
  696SOL    HW2 2649   0.539   1.710   5.851
  697SOL     OW 2650   1.434   0.155   5.993
  697SOL    HW1 2651   1.397   0.091   5.931
  697SOL    HW2 2652   1.516   0.115   6.022
  698SOL     OW 2653   0.251   1.792   6.819
  698SOL    HW1 2654   0.300   1.730   6.873
  698SOL    HW2 2655   0.243   1.749   6.734
  699SOL     OW 2656   0.943   1.695   6.488
  699SOL    HW1 2657   1.022   1.642   6.498
  699SOL    HW2 2658   0.892   1.650   6.421
  700SOL     OW 2659   0.392   0.695   6.060
  700SOL    HW1 2660   0.421   0.604   6.072
  700SOL    HW2 2661   0.300   0.695   6.086
  701SOL     OW 2662   1.533   0.234   7.312
  701SOL    HW1 2663   1.535   0.256   7.405
  701SOL    HW2 2664   1.495   0.146   7.309
  702SOL     OW 2665   0.639   0.139   5.686
  702SOL    HW1 2666   0.679   0.063   5.728
  702SOL    HW2 2667   0.578   0.102   5.622
  703SOL     OW 2668   0.780   0.281   7.347
  703SOL    HW1 2669   0.841   0.208   7.357
  703SOL    HW2 2670   0.716   0.269   7.418
  704SOL     OW 2671   0.877   1.522   6.780
  704SOL    HW1 2672   0.863   1.487   6.692
  704SOL    HW2 2673   0.947   1.468   6.816
  705SOL     OW 2674   1.343   0.587   7.016
  705SOL    HW1 2675   1.372   0.558   7.103
  705SOL    HW2 2676   1.376   0.676   7.008
  706SOL     OW 2677   0.811   1.399   6.522
  706SOL    HW1 2678   0.896   1.387   6.480
  706SOL    HW2 2679   0.748   1.395   6.450
  707SOL     OW 2680   0.928   0.510   6.489
  707SOL    HW1 2681   0.905   0.502   6.397
  707SOL    HW2 2682   0.958   0.423   6.514
  708SOL     OW 2683   0.546   0.057   6.079
  708SOL    HW1 2684   0.471   0.064   6.138
  708SOL    HW2 2685   0.548   0.141   6.033
  709SOL     OW 2686   1.428   1.198   5.627
  709SOL    HW1 2687   1.459   1.122   5.677
  709SOL    HW2 2688   1.342   1.218   5.665
  710SOL     OW 2689   0.329   0.046   5.778
  710SOL    HW1 2690   0.365   0.089   5.701
  710SOL    HW2 2691   0.406   0.020   5.829
  711SOL     OW 2692   0.936   0.245   6.052
  711SOL    HW1 2693   0.908   0.288   5.971
  711SOL    HW2 2694   1.032   0.246   6.048
  712SOL     OW 2695   1.079   0.680   7.046
  712SOL    HW1 2696   1.008   0.617   7.053
  712SOL    HW2 2697   1.158   0.626   7.039
  713SOL     OW 2698   1.207   1.578   6.397
  713SOL    HW1 2699   1.237   1.620   6.317
  713SOL    HW2 2700   1.288   1.546   6.439
  714SOL     OW 2701   0.465   1.149   6.326
  714SOL    HW1 2702   0.392   1.126   6.383
  714SOL    HW2 2703   0.433   1.132   6.238
  715SOL     OW 2704   1.192   1.783   6.167
  715SOL    HW1 2705   1.276   1.826   6.152
  715SOL    HW2 2706   1.150   1.836   6.235
  716SOL     OW 2707   1.026   0.548   5.606
  716SOL    HW1 2708   0.983   0.631   5.587
  716SOL    HW2 2709   1.088   0.569   5.676
  717SOL     OW 2710   0.078   0.569   6.979
  717SOL    HW1 2711   0.167   0.553   6.947
  717SOL    HW2 2712   0.088   0.640   7.042
  718SOL     OW 2713   0.571   0.232   6.746
  718SOL    HW1 2714   0.596   0.140   6.758
  718SOL    HW2 2715   0.481   0.236   6.776
  719SOL     OW 2716   0.872   0.462   6.225
  719SOL    HW1 2717   0.821   0.513   6.164
  719SOL    HW2 2718   0.889   0.379   6.180
  720SOL     OW 2719   0.993   0.043   6.364
  720SOL    HW1 2720   0.962   0.064   6.276
  720SOL    HW2 2721   1.003   3.948   6.364
  721SOL     OW 2722   1.437   1.152   6.443
  721SOL    HW1 2723   1.370   1.084   6.446
  721SOL    HW2 2724   1.441   1.177   6.350
  722SOL     OW 2725   1.467   0.602   6.566
  722SOL    HW1 2726   1.419   0.519   6.573
  722SOL    HW2 2727   1.529   0.599   6.639
  723SOL     OW 2728   1.846   0.821   5.967
  723SOL    HW1 2729   1.901   0.770   6.026
  723SOL    HW2 2730   1.815   0.758   5.902
  724SOL     OW 2731   0.490   1.414   5.750
  724SOL    HW1 2732   0.415   1.382   5.799
  724SOL    HW2 2733   0.467   1.396   5.658
  725SOL     OW 2734   1.394   0.572   5.656
  725SOL    HW1 2735   1.333   0.554   5.728
  725SOL    HW2 2736   1.480   0.551   5.692
  726SOL     OW 2737   0.557   0.269   5.908
  726SOL    HW1 2738   0.594   0.227   5.831
  726SOL    HW2 2739   0.529   0.355   5.878
  727SOL     OW 2740   1.755   1.230   7.171
  727SOL    HW1 2741   1.841   1.191   7.164
  727SOL    HW2 2742   1.770   1.315   7.212
  728SOL     OW 2743   1.060   1.352   6.922
  728SOL    HW1 2744   0.985   1.321   6.973
  728SOL    HW2 2745   1.136   1.310   6.963
  729SOL     OW 2746   1.119   1.195   6.694
  729SOL    HW1 2747   1.063   1.237   6.759
  729SOL    HW2 2748   1.090   1.231   6.610
  730SOL     OW 2749   1.626   1.092   6.667
  730SOL    HW1 2750   1.626   1.159   6.735
  730SOL    HW2 2751   1.552   1.115   6.611
  731SOL     OW 2752   0.914   0.108   6.989
  731SOL    HW1 2753   0.934   0.086   6.898
  731SOL    HW2 2754   0.994   0.151   7.020
  732SOL     OW 2755   0.984   1.115   7.308
  732SOL    HW1 2756   0.891   1.130   7.327
  732SOL    HW2 2757   0.985   1.037   7.252
  733SOL     OW 2758   0.707   1.060   5.957
  733SOL    HW1 2759   0.694   1.046   6.051
  733SOL    HW2 2760   0.784   1.007   5.936
  734SOL     OW 2761   0.419   0.814   6.838
  734SOL    HW1 2762   0.488   0.821   6.903
  734SOL    HW2 2763   0.384   0.726   6.849
  735SOL     OW 2764   1.267   0.376   6.861
  735SOL    HW1 2765   1.302   0.453   6.905
  735SOL    HW2 2766   1.181   0.403   6.828
  736SOL     OW 2767   0.063   1.579   6.930
  736SOL    HW1 2768   0.063   1.651   6.867
  736SOL    HW2 2769   0.156   1.567   6.951
  737SOL     OW 2770   0.376   1.102   6.074
  737SOL    HW1 2771   0.368   1.179   6.017
  737SOL    HW2 2772   0.374   1.028   6.014
  738SOL     OW 2773   0.557   0.539   6.447
  738SOL    HW1 2774   0.574   0.596   6.372
  738SOL    HW2 2775   0.620   0.567   6.513
  739SOL     OW 2776   1.241   1.336   5.976
  739SOL    HW1 2777   1.292   1.415   5.991
  739SOL    HW2 2778   1.154   1.357   6.009
  740SOL     OW 2779   1.252   1.451   6.722
  740SOL    HW1 2780   1.315   1.464   6.792
  740SOL    HW2 2781   1.205   1.371   6.747
  741SOL     OW 2782   1.579   0.631   6.067
  741SOL    HW1 2783   1.542   0.693   6.130
  741SOL    HW2 2784   1.629   0.685   6.006
  742SOL     OW 2785   0.346   1.524   6.907
  742SOL    HW1 2786   0.336   1.474   6.826
  742SOL    HW2 2787   0.440   1.540   6.914
  743SOL     OW 2788   0.411   0.741   7.187
  743SOL    HW1 2789   0.471   0.788   7.129
  743SOL    HW2 2790   0.453   0.656   7.201
  744SOL     OW 2791   1.598   0.777   7.266
  744SOL    HW1 2792   1.512   0.818   7.258
  744SOL    HW2 2793   1.650   0.818   7.197
  745SOL     OW 2794   1.022   0.118   7.363
  745SOL    HW1 2795   1.051   0.198   7.319
  745SOL    HW2 2796   1.014   0.054   7.292
  746SOL     OW 2797   0.479   0.036   7.353
  746SOL    HW1 2798   0.492   0.035   7.258
  746SOL    HW2 2799   0.421   0.110   7.369
  747SOL     OW 2800   0.583   0.873   6.617
  747SOL    HW1 2801   0.614   0.963   6.615
  747SOL    HW2 2802   0.527   0.868   6.694
  748SOL     OW 2803   1.360   0.859   6.618
  748SOL    HW1 2804   1.277   0.851   6.570
  748SOL    HW2 2805   1.398   0.771   6.616
  749SOL     OW 2806   1.207   0.533   5.852
  749SOL    HW1 2807   1.215   0.454   5.905
  749SOL    HW2 2808   1.164   0.596   5.910
  750SOL     OW 2809   0.313   0.215   6.827
  750SOL    HW1 2810   0.274   0.248   6.908
  750SOL    HW2 2811   0.292   0.122   6.827
  751SOL     OW 2812   0.054   1.304   6.866
  751SOL    HW1 2813   0.089   1.265   6.946
  751SOL    HW2 2814   0.050   1.398   6.884
  752SOL     OW 2815   0.728   0.635   6.645
  752SOL    HW1 2816   0.799   0.616   6.583
  752SOL    HW2 2817   0.699   0.723   6.622
  753SOL     OW 2818   1.733   0.960   7.435
  753SOL    HW1 2819   1.684   0.904   7.375
  753SOL    HW2 2820   1.675   0.973   7.510
  754SOL     OW 2821   0.324   0.056   6.231
  754SOL    HW1 2822   0.295   0.148   6.234
  754SOL    HW2 2823   0.283   0.017   6.309
  755SOL     OW 2824   1.597   0.384   5.969
  755SOL    HW1 2825   1.582   0.317   6.036
  755SOL    HW2 2826   1.577   0.467   6.013
  756SOL     OW 2827   1.028   0.760   6.548
  756SOL    HW1 2828   1.026   0.778   6.642
  756SOL    HW2 2829   1.000   0.669   6.540
  757SOL     OW 2830   0.978   1.564   7.298
  757SOL    HW1 2831   0.964   1.607   7.213
  757SOL    HW2 2832   1.024   1.483   7.275
  758SOL     OW 2833   0.351   0.919   7.388
  758SOL    HW1 2834   0.430   0.939   7.437
  758SOL    HW2 2835   0.378   0.854   7.323
  759SOL     OW 2836   1.514   0.275   5.722
  759SOL    HW1 2837   1.437   0.220   5.736
  759SOL    HW2 2838   1.528   0.319   5.806
  760SOL     OW 2839   1.294   0.827   5.619
  760SOL    HW1 2840   1.336   0.741   5.621
  760SOL    HW2 2841   1.325   0.866   5.537
  761SOL     OW 2842   1.060   1.331   6.440
  761SOL    HW1 2843   1.066   1.260   6.377
  761SOL    HW2 2844   1.124   1.396   6.410
  762SOL     OW 2845   0.314   0.808   6.538
  762SOL    HW1 2846   0.408   0.825   6.531
  762SOL    HW2 2847   0.307   0.718   6.570
  763SOL     OW 2848   0.337   0.525   6.598
  763SOL    HW1 2849   0.297   0.440   6.580
  763SOL    HW2 2850   0.413   0.530   6.539
  764SOL     OW 2851   1.134   0.383   7.275
  764SOL    HW1 2852   1.088   0.439   7.338
  764SOL    HW2 2853   1.222   0.421   7.270
  765SOL     OW 2854   1.151   0.223   7.067
  765SOL    HW1 2855   1.144   0.278   7.145
  765SOL    HW2 2856   1.173   0.284   6.996
  766SOL     OW 2857   3.999   1.321   5.768
  766SOL    HW1 2858   3.905   1.337   5.773
  766SOL    HW2 2859   0.009   1.228   5.789
  767SOL     OW 2860   0.076   1.801   6.476
  767SOL    HW1 2861   0.075   1.706   6.487
  767SOL    HW2 2862   0.169   1.825   6.479
  768SOL     OW 2863   0.504   1.570   6.495
  768SOL    HW1 2864   0.574   1.631   6.520
  768SOL    HW2 2865   0.548   1.505   6.440
  769SOL     OW 2866   0.987   0.793   6.814
  769SOL    HW1 2867   1.039   0.769   6.890
  769SOL    HW2 2868   0.900   0.758   6.832
  770SOL     OW 2869   0.037   0.563   6.699
  770SOL    HW1 2870   0.106   0.517   6.650
  770SOL    HW2 2871   0.062   0.552   6.791
  771SOL     OW 2872   0.207   0.516   7.307
  771SOL    HW1 2873   0.259   0.482   7.234
  771SOL    HW2 2874   0.156   0.587   7.269
  772SOL     OW 2875   1.376   0.941   7.246
  772SOL    HW1 2876   1.394   1.035   7.249
  772SOL    HW2 2877   1.375   0.919   7.152
  773SOL     OW 2878   0.817   0.571   5.940
  773SOL    HW1 2879   0.820   0.494   5.884
  773SOL    HW2 2880   0.740   0.620   5.909
  774SOL     OW 2881   1.642   0.600   6.774
  774SOL    HW1 2882   1.632   0.540   6.848
  774SOL    HW2 2883   1.729   0.581   6.740
  775SOL     OW 2884   0.294   1.547   7.318
  775SOL    HW1 2885   0.243   1.617   7.360
  775SOL    HW2 2886   0.259   1.466   7.356
  776SOL     OW 2887   0.695   0.459   6.849
  776SOL    HW1 2888   0.650   0.379   6.820
  776SOL    HW2 2889   0.692   0.516   6.772
  777SOL     OW 2890   0.928   1.675   7.051
  777SOL    HW1 2891   0.899   1.649   6.963
  777SOL    HW2 2892   0.931   1.771   7.048
  778SOL     OW 2893   0.461   0.492   5.779
  778SOL    HW1 2894   0.524   0.562   5.796
  778SOL    HW2 2895   0.379   0.538   5.762
  779SOL     OW 2896   0.156   1.137   7.057
  779SOL    HW1 2897   0.164   1.084   7.137
  779SOL    HW2 2898   0.172   1.074   6.986
  780SOL     OW 2899   1.326   1.047   6.813
  780SOL    HW1 2900   1.354   0.987   6.744
  780SOL    HW2 2901   1.253   1.096   6.773
  781SOL     OW 2902   1.309   0.857   5.894
  781SOL    HW1 2903   1.232   0.826   5.942
  781SOL    HW2 2904   1.286   0.844   5.802
  782SOL     OW 2905   0.076   1.219   6.612
  782SOL    HW1 2906   0.082   1.243   6.705
  782SOL    HW2 2907   3.983   1.223   6.592
  783SOL     OW 2908   0.678   1.663   7.311
  783SOL    HW1 2909   0.626   1.743   7.307
  783SOL    HW2 2910   0.743   1.673   7.241
  784SOL     OW 2911   1.708   0.130   6.071
  784SOL    HW1 2912   1.790   0.132   6.021
  784SOL    HW2 2913   1.698   0.039   6.098
  785SOL     OW 2914   1.358   1.567   6.022
  785SOL    HW1 2915   1.446   1.587   5.989
  785SOL    HW2 2916   1.335   1.644   6.074
  786SOL     OW 2917   0.170   1.769   7.414
  786SOL    HW1 2918   0.110   1.722   7.472
  786SOL    HW2 2919   0.214   1.833   7.471
  787SOL     OW 2920   1.277   0.925   6.255
  787SOL    HW1 2921   1.350   0.863   6.263
  787SOL    HW2 2922   1.313   0.998   6.205
  788SOL     OW 2923   0.818   1.271   7.018
  788SOL    HW1 2924   0.792   1.311   7.101
  788SOL    HW2 2925   0.746   1.292   6.958
  789SOL     OW 2926   0.670   1.618   5.741
  789SOL    HW1 2927   0.681   1.627   5.647
  789SOL    HW2 2928   0.619   1.538   5.752
  790SOL     OW 2929   1.838   0.175   6.554
  790SOL    HW1 2930   1.868   0.099   6.503
  790SOL    HW2 2931   1.751   0.193   6.520
  791SOL     OW 2932   0.271   0.324   6.302
  791SOL    HW1 2933   0.186   0.360   6.277
  791SOL    HW2 2934   0.263   0.306   6.395
  792SOL     OW 2935   1.206   1.609   5.617
  792SOL    HW1 2936   1.198   1.518   5.646
  792SOL    HW2 2937   1.140   1.617   5.548
  793SOL     OW 2938   0.824   1.005   6.957
  793SOL    HW1 2939   0.868   1.002   6.872
  793SOL    HW2 2940   0.825   1.098   6.982
  794SOL     OW 2941   0.915   0.910   5.875
  794SOL    HW1 2942   0.977   0.942   5.810
  794SOL    HW2 2943   0.961   0.839   5.920
  795SOL     OW 2944   1.492   1.625   5.621
  795SOL    HW1 2945   1.397   1.622   5.610
  795SOL    HW2 2946   1.526   1.630   5.531
  796SOL     OW 2947   0.372   1.301   7.078
  796SOL    HW1 2948   0.358   1.382   7.028
  796SOL    HW2 2949   0.295   1.248   7.059
  797SOL     OW 2950   1.594   1.260   6.896
  797SOL    HW1 2951   1.666   1.275   6.957
  797SOL    HW2 2952   1.535   1.334   6.910
  798SOL     OW 2953   1.049   1.104   6.290
  798SOL    HW1 2954   0.978   1.054   6.331
  798SOL    HW2 2955   1.109   1.038   6.256
  799SOL     OW 2956   1.015   0.246   6.553
  799SOL    HW1 2957   1.004   0.197   6.471
  799SOL    HW2 2958   1.007   0.181   6.622
  800SOL     OW 2959   0.602   1.489   6.069
  800SOL    HW1 2960   0.643   1.437   5.999
  800SOL    HW2 2961   0.536   1.541   6.024
  801SOL     OW 2962   1.719   0.390   6.963
  801SOL    HW1 2963   1.789   0.455   6.963
  801SOL    HW2 2964   1.752   0.319   6.907
  802SOL     OW 2965   0.252   1.343   5.876
  802SOL    HW1 2966   0.159   1.354   5.855
  802SOL    HW2 2967   0.262   1.381   5.963
  803SOL     OW 2968   0.104   1.002   7.306
  803SOL    HW1 2969   0.043   0.988   7.378
  803SOL    HW2 2970   0.190   0.980   7.342
  804SOL     OW 2971   0.692   0.238   7.080
  804SOL    HW1 2972   0.763   0.188   7.041
  804SOL    HW2 2973   0.716   0.244   7.173
  805SOL     OW 2974   0.087   0.328   5.614
  805SOL    HW1 2975   3.992   0.322   5.611
  805SOL    HW2 2976   0.108   0.410   5.569
  806SOL     OW 2977   1.432   0.858   6.987
  806SOL    HW1 2978   1.383   0.918   6.931
  806SOL    HW2 2979   1.522   0.861   6.954
  807SOL     OW 2980   0.040   0.160   5.868
  807SOL    HW1 2981   0.039   0.247   5.827
  807SOL    HW2 2982   0.122   0.158   5.918
  808SOL     OW 2983   1.180   1.342   5.703
  808SOL    HW1 2984   1.089   1.312   5.706
  808SOL    HW2 2985   1.208   1.340   5.794
  809SOL     OW 2986   0.618   0.831   7.020
  809SOL    HW1 2987   0.674   0.907   7.005
  809SOL    HW2 2988   0.679   0.757   7.028
  810SOL     OW 2989   0.716   0.565   7.294
  810SOL    HW1 2990   0.755   0.629   7.354
  810SOL    HW2 2991   0.753   0.481   7.321
  811SOL     OW 2992   1.468   1.207   7.217
  811SOL    HW1 2993   1.455   1.215   7.311
  811SOL    HW2 2994   1.563   1.209   7.205
  812SOL     OW 2995   0.382   1.741   7.146
  812SOL    HW1 2996   0.295   1.778   7.133
  812SOL    HW2 2997   0.366   1.659   7.194
  813SOL     OW 2998   1.672   0.881   6.842
  813SOL    HW1 2999   1.663   0.797   6.797
  813SOL    HW2 3000   1.661   0.947   6.774
  814SOL     OW 3001   1.225   0.331   6.034
  814SOL    HW1 3002   1.291   0.263   6.025
  814SOL    HW2 3003   1.248   0.377   6.114
  815SOL     OW 3004   0.592   0.741   6.253
  815SOL    HW1 3005   0.630   0.827   6.236
  815SOL    HW2 3006   0.521   0.733   6.189
  816SOL     OW 3007   1.758   0.376   7.230
  816SOL    HW1 3008   1.740   0.382   7.136
  816SOL    HW2 3009   1.697   0.310   7.261
  817SOL     OW 3010   1.743   0.934   7.098
  817SOL    HW1 3011   1.740   1.029   7.110
  817SOL    HW2 3012   1.728   0.921   7.004
  818SOL     OW 3013   0.861   1.368   5.615
  818SOL    HW1 3014   0.824   1.394   5.700
  818SOL    HW2 3015   0.882   1.451   5.572
  819SOL     OW 3016   0.659   1.794   6.533
  819SOL    HW1 3017   0.637   1.884   6.510
  819SOL    HW2 3018   0.754   1.790   6.525
  820SOL     OW 3019   0.866   0.965   6.442
  820SOL    HW1 3020   0.917   0.895   6.483
  820SOL    HW2 3021   0.833   1.017   6.515
  821SOL     OW 3022   1.079   0.987   5.674
  821SOL    HW1 3023   1.058   1.038   5.596
  821SOL    HW2 3024   1.155   0.935   5.649
  822SOL     OW 3025   0.222   1.304   7.440
  822SOL    HW1 3026   0.153   1.242   7.417
  822SOL    HW2 3027   0.211   1.317   7.535
  823SOL     OW 3028   0.111   1.271   6.300
  823SOL    HW1 3029   0.113   1.218   6.379
  823SOL    HW2 3030   0.116   1.208   6.228
  824SOL     OW 3031   0.678   1.401   7.210
  824SOL    HW1 3032   0.598   1.357   7.242
  824SOL    HW2 3033   0.674   1.488   7.249
  825SOL     OW 3034   1.814   0.184   6.826
  825SOL    HW1 3035   1.817   0.089   6.838
  825SOL    HW2 3036   1.828   0.196   6.732
  826SOL     OW 3037   0.440   0.435   6.115
  826SOL    HW1 3038   0.452   0.361   6.056
  826SOL    HW2 3039   0.386   0.401   6.186
  827SOL     OW 3040   1.676   1.389   6.669
  827SOL    HW1 3041   1.605   1.451   6.652
  827SOL    HW2 3042   1.673   1.375   6.763
  828SOL     OW 3043   0.329   0.553   6.877
  828SOL    HW1 3044   0.384   0.496   6.930
  828SOL    HW2 3045   0.346   0.525   6.787
  829SOL     OW 3046   0.822   1.582   6.268
  829SOL    HW1 3047   0.822   1.622   6.182
  829SOL    HW2 3048   0.745   1.524   6.268
  830SOL     OW 3049   1.460   0.249   6.698
  830SOL    HW1 3050   1.477   0.163   6.735
  830SOL    HW2 3051   1.401   0.291   6.761
  831SOL     OW 3052   1.007   0.030   6.734
  831SOL    HW1 3053   0.933   3.976   6.706
  831SOL    HW2 3054   1.081   3.970   6.740
  832SOL     OW 3055   0.771   1.332   5.896
  832SOL    HW1 3056   0.739   1.242   5.904
  832SOL    HW2 3057   0.853   1.332   5.946
  833SOL     OW 3058   0.620   1.559   6.869
  833SOL    HW1 3059   0.623   1.640   6.920
  833SOL    HW2 3060   0.707   1.551   6.832
  834SOL     OW 3061   1.317   0.074   5.750
  834SOL    HW1 3062   1.340   0.010   5.682
  834SOL    HW2 3063   1.233   0.043   5.784
  835SOL     OW 3064   1.287   0.458   6.274
  835SOL    HW1 3065   1.238   0.540   6.273
  835SOL    HW2 3066   1.292   0.435   6.367
  836SOL     OW 3067   1.589   0.211   6.453
  836SOL    HW1 3068   1.536   0.232   6.531
  836SOL    HW2 3069   1.588   0.292   6.402
  837SOL     OW 3070   0.044   1.053   5.827
  837SOL    HW1 3071   0.137   1.037   5.819
  837SOL    HW2 3072   0.009   0.975   5.870
  838SOL     OW 3073   0.880   1.649   5.931
  838SOL    HW1 3074   0.809   1.632   5.869
  838SOL    HW2 3075   0.852   1.726   5.981
  839SOL     OW 3076   0.232   0.623   7.568
  839SOL    HW1 3077   0.139   0.630   7.590
  839SOL    HW2 3078   0.233   0.595   7.477
  840SOL     OW 3079   0.226   0.285   8.432
  840SOL    HW1 3080   0.250   0.251   8.518
  840SOL    HW2 3081   0.133   0.263   8.423
  841SOL     OW 3082   0.017   0.389   8.082
  841SOL    HW1 3083   3.931   0.397   8.122
  841SOL    HW2 3084   0.024   0.296   8.059
  842SOL     OW 3085   0.574   1.279   8.627
  842SOL    HW1 3086   0.487   1.284   8.587
  842SOL    HW2 3087   0.590   1.367   8.661
  843SOL     OW 3088   1.563   1.511   8.157
  843SOL    HW1 3089   1.522   1.497   8.243
  843SOL    HW2 3090   1.491   1.540   8.101
  844SOL     OW 3091   1.131   0.699   8.152
  844SOL    HW1 3092   1.180   0.780   8.137
  844SOL    HW2 3093   1.083   0.714   8.234
  845SOL     OW 3094   1.757   0.616   7.678
  845SOL    HW1 3095   1.742   0.607   7.584
  845SOL    HW2 3096   1.749   0.527   7.712
  846SOL     OW 3097   0.760   1.144   8.485
  846SOL    HW1 3098   0.692   1.176   8.543
  846SOL    HW2 3099   0.793   1.222   8.440
  847SOL     OW 3100   0.863   0.781   9.270
  847SOL    HW1 3101   0.852   0.853   9.332
  847SOL    HW2 3102   0.886   0.823   9.187
  848SOL     OW 3103   0.686   1.008   8.097
  848SOL    HW1 3104   0.750   0.992   8.167
  848SOL    HW2 3105   0.616   1.057   8.139
  849SOL     OW 3106   0.707   1.151   9.258
  849SOL    HW1 3107   0.755   1.230   9.282
  849SOL    HW2 3108   0.624   1.183   9.224
  850SOL     OW 3109   0.351   1.405   8.527
  850SOL    HW1 3110   0.269   1.388   8.480
  850SOL    HW2 3111   0.400   1.464   8.470
  851SOL     OW 3112   1.462   1.498   8.798
  851SOL    HW1 3113   1.506   1.582   8.808
  851SOL    HW2 3114   1.407   1.491   8.877
  852SOL     OW 3115   0.451   0.406   8.949
  852SOL    HW1 3116   0.530   0.353   8.943
  852SOL    HW2 3117   0.379   0.342   8.949
  853SOL     OW 3118   1.613   0.451   8.184
  853SOL    HW1 3119   1.539   0.482   8.131
  853SOL    HW2 3120   1.638   0.526   8.237
  854SOL     OW 3121   0.224   1.716   7.910
  854SOL    HW1 3122   0.243   1.791   7.966
  854SOL    HW2 3123   0.301   1.709   7.853
  855SOL     OW 3124   1.136   1.341   9.139
  855SOL    HW1 3125   1.176   1.337   9.226
  855SOL    HW2 3126   1.083   1.261   9.134
  856SOL     OW 3127   0.242   1.445   7.986
  856SOL    HW1 3128   0.214   1.536   7.976
  856SOL    HW2 3129   0.173   1.405   8.039
  857SOL     OW 3130   0.245   1.072   8.333
  857SOL    HW1 3131   0.262   0.988   8.376
  857SOL    HW2 3132   0.194   1.122   8.396
  858SOL     OW 3133   0.616   1.790   8.880
  858SOL    HW1 3134   0.532   1.773   8.924
  858SOL    HW2 3135   0.637   1.880   8.904
  859SOL     OW 3136   0.585   0.981   7.582
  859SOL    HW1 3137   0.629   1.031   7.512
  859SOL    HW2 3138   0.629   1.009   7.662
  860SOL     OW 3139   1.577   0.133   8.906
  860SOL    HW1 3140   1.599   0.208   8.850
  860SOL    HW2 3141   1.559   0.172   8.992
  861SOL     OW 3142   0.137   0.647   8.017
  861SOL    HW1 3143   0.093   0.563   8.024
  861SOL    HW2 3144   0.102   0.698   8.090
  862SOL     OW 3145   0.043   1.592   7.588
  862SOL    HW1 3146   0.030   1.499   7.607
  862SOL    HW2 3147   3.966   1.635   7.626
  863SOL     OW 3148   1.689   0.915   8.086
  863SOL    HW1 3149   1.775   0.878   8.069
  863SOL    HW2 3150   1.669   0.967   8.009
  864SOL     OW 3151   1.646   1.101   7.882
  864SOL    HW1 3152   1.730   1.108   7.837
  864SOL    HW2 3153   1.652   1.163   7.955
  865SOL     OW 3154   0.131   0.751   9.040
  865SOL    HW1 3155   0.226   0.746   9.048
  865SOL    HW2 3156   0.112   0.845   9.047
  866SOL     OW 3157   0.611   1.382   8.184
  866SOL    HW1 3158   0.565   1.298   8.192
  866SOL    HW2 3159   0.596   1.409   8.093
  867SOL     OW 3160   1.290   1.239   8.872
  867SOL    HW1 3161   1.323   1.171   8.813
  867SOL    HW2 3162   1.346   1.231   8.950
  868SOL     OW 3163   0.815   0.001   7.961
  868SOL    HW1 3164   0.860   0.083   7.942
  868SOL    HW2 3165   0.722   0.024   7.964
  869SOL     OW 3166   0.187   0.957   8.722
  869SOL    HW1 3167   0.275   0.922   8.707
  869SOL    HW2 3168   0.131   0.908   8.661
  870SOL     OW 3169   1.533   0.992   7.646
  870SOL    HW1 3170   1.462   0.935   7.675
  870SOL    HW2 3171   1.574   1.023   7.726
  871SOL     OW 3172   1.185   1.804   9.068
  871SOL    HW1 3173   1.201   1.861   8.993
  871SOL    HW2 3174   1.200   1.715   9.035
  872SOL     OW 3175   0.338   0.254   9.266
  872SOL    HW1 3176   0.385   0.337   9.258
  872SOL    HW2 3177   0.248   0.279   9.290
  873SOL     OW 3178   1.466   1.420   8.402
  873SOL    HW1 3179   1.397   1.434   8.467
  873SOL    HW2 3180   1.454   1.329   8.373
  874SOL     OW 3181   0.596   0.721   7.710
  874SOL    HW1 3182   0.605   0.802   7.661
  874SOL    HW2 3183   0.533   0.741   7.779
  875SOL     OW 3184   1.277   0.361   8.388
  875SOL    HW1 3185   1.190   0.321   8.392
  875SOL    HW2 3186   1.334   0.300   8.435
  876SOL     OW 3187   0.796   0.615   8.903
  876SOL    HW1 3188   0.765   0.593   8.991
  876SOL    HW2 3189   0.753   0.552   8.846
  877SOL     OW 3190   1.393   0.476   9.125
  877SOL    HW1 3191   1.395   0.520   9.210
  877SOL    HW2 3192   1.455   0.404   9.134
  878SOL     OW 3193   0.958   0.889   9.029
  878SOL    HW1 3194   1.012   0.817   8.995
  878SOL    HW2 3195   0.910   0.921   8.953
  879SOL     OW 3196   0.990   0.404   8.690
  879SOL    HW1 3197   0.910   0.432   8.732
  879SOL    HW2 3198   0.962   0.370   8.605
  880SOL     OW 3199   1.050   0.698   7.875
  880SOL    HW1 3200   1.064   0.691   7.969
  880SOL    HW2 3201   0.968   0.651   7.859
  881SOL     OW 3202   0.081   0.822   8.238
  881SOL    HW1 3203   0.163   0.794   8.280
  881SOL    HW2 3204   0.087   0.917   8.236
  882SOL     OW 3205   0.129   1.851   9.019
  882SOL    HW1 3206   0.136   1.819   9.109
  882SOL    HW2 3207   0.037   1.840   8.997
  883SOL     OW 3208   0.889   0.349   7.646
  883SOL    HW1 3209   0.931   0.408   7.583
  883SOL    HW2 3210   0.895   0.262   7.605
  884SOL     OW 3211   1.712   0.576   9.276
  884SOL    HW1 3212   1.674   0.652   9.232
  884SOL    HW2 3213   1.735   0.516   9.205
  885SOL     OW 3214   1.375   1.142   7.991
  885SOL    HW1 3215   1.453   1.126   7.938
  885SOL    HW2 3216   1.323   1.202   7.938
  886SOL     OW 3217   0.557   0.195   8.331
  886SOL    HW1 3218   0.560   0.214   8.425
  886SOL    HW2 3219   0.548   0.280   8.289
  887SOL     OW 3220   1.013   1.447   7.924
  887SOL    HW1 3221   0.968   1.514   7.873
  887SOL    HW2 3222   0.994   1.468   8.015
  888SOL     OW 3223   0.364   1.810   8.312
  888SOL    HW1 3224   0.428   1.739   8.315
  888SOL    HW2 3225   0.415   1.889   8.326
  889SOL     OW 3226   1.798   1.059   8.315
  889SOL    HW1 3227   1.742   1.044   8.240
  889SOL    HW2 3228   1.738   1.064   8.390
  890SOL     OW 3229   1.228   1.540   8.961
  890SOL    HW1 3230   1.214   1.466   9.020
  890SOL    HW2 3231   1.168   1.523   8.888
  891SOL     OW 3232   0.311   0.956   7.689
  891SOL    HW1 3233   0.397   0.978   7.653
  891SOL    HW2 3234   0.296   0.866   7.661
  892SOL     OW 3235   1.475   0.739   8.178
  892SOL    HW1 3236   1.466   0.695   8.262
  892SOL    HW2 3237   1.552   0.795   8.188
  893SOL     OW 3238   0.464   1.259   9.185
  893SOL    HW1 3239   0.437   1.268   9.093
  893SOL    HW2 3240   0.382   1.265   9.235
  894SOL     OW 3241   0.198   0.296   8.945
  894SOL    HW1 3242   0.105   0.319   8.941
  894SOL    HW2 3243   0.204   0.236   9.020
  895SOL     OW 3244   0.466   1.739   7.768
  895SOL    HW1 3245   0.507   1.797   7.832
  895SOL    HW2 3246   0.539   1.710   7.712
  896SOL     OW 3247   1.434   0.155   7.855
  896SOL    HW1 3248   1.397   0.092   7.793
  896SOL    HW2 3249   1.516   0.114   7.883
  897SOL     OW 3250   0.250   1.792   8.681
  897SOL    HW1 3251   0.300   1.730   8.735
  897SOL    HW2 3252   0.243   1.749   8.596
  898SOL     OW 3253   0.937   1.698   8.348
  898SOL    HW1 3254   1.014   1.645   8.369
  898SOL    HW2 3255   0.892   1.650   8.278
  899SOL     OW 3256   0.392   0.695   7.922
  899SOL    HW1 3257   0.421   0.604   7.934
  899SOL    HW2 3258   0.300   0.695   7.948
  900SOL     OW 3259   1.533   0.234   9.174
  900SOL    HW1 3260   1.535   0.256   9.267
  900SOL    HW2 3261   1.495   0.145   9.171
  901SOL     OW 3262   0.640   0.139   7.548
  901SOL    HW1 3263   0.679   0.062   7.590
  901SOL    HW2 3264   0.578   0.102   7.484
  902SOL     OW 3265   0.780   0.282   9.210
  902SOL    HW1 3266   0.841   0.208   9.219
  902SOL    HW2 3267   0.716   0.269   9.280
  903SOL     OW 3268   0.876   1.520   8.642
  903SOL    HW1 3269   0.862   1.485   8.554
  903SOL    HW2 3270   0.946   1.466   8.679
  904SOL     OW 3271   1.343   0.587   8.878
  904SOL    HW1 3272   1.372   0.557   8.965
  904SOL    HW2 3273   1.376   0.676   8.871
  905SOL     OW 3274   0.813   1.398   8.383
  905SOL    HW1 3275   0.897   1.388   8.339
  905SOL    HW2 3276   0.748   1.395   8.312
  906SOL     OW 3277   0.928   0.510   8.351
  906SOL    HW1 3278   0.905   0.502   8.259
  906SOL    HW2 3279   0.958   0.423   8.376
  907SOL     OW 3280   0.546   0.057   7.941
  907SOL    HW1 3281   0.471   0.064   8.000
  907SOL    HW2 3282   0.548   0.141   7.895
  908SOL     OW 3283   1.426   1.191   7.481
  908SOL    HW1 3284   1.461   1.123   7.539
  908SOL    HW2 3285   1.348   1.223   7.525
  909SOL     OW 3286   0.329   0.046   7.641
  909SOL    HW1 3287   0.365   0.089   7.563
  909SOL    HW2 3288   0.406   0.019   7.691
  910SOL     OW 3289   0.936   0.245   7.914
  910SOL    HW1 3290   0.908   0.288   7.833
  910SOL    HW2 3291   1.032   0.246   7.910
  911SOL     OW 3292   1.079   0.680   8.908
  911SOL    HW1 3293   1.007   0.617   8.915
  911SOL    HW2 3294   1.158   0.625   8.901
  912SOL     OW 3295   1.230   1.567   8.237
  912SOL    HW1 3296   1.242   1.640   8.177
  912SOL    HW2 3297   1.293   1.583   8.307
  913SOL     OW 3298   0.465   1.148   8.188
  913SOL    HW1 3299   0.392   1.126   8.245
  913SOL    HW2 3300   0.433   1.132   8.100
  914SOL     OW 3301   1.271   1.790   8.070
  914SOL    HW1 3302   1.312   1.833   7.995
  914SOL    HW2 3303   1.208   1.854   8.103
  915SOL     OW 3304   1.026   0.548   7.469
  915SOL    HW1 3305   0.983   0.631   7.449
  915SOL    HW2 3306   1.088   0.569   7.538
  916SOL     OW 3307   0.078   0.569   8.841
  916SOL    HW1 3308   0.167   0.553   8.809
  916SOL    HW2 3309   0.088   0.640   8.904
  917SOL     OW 3310   0.571   0.232   8.608
  917SOL    HW1 3311   0.596   0.140   8.620
  917SOL    HW2 3312   0.481   0.236   8.638
  918SOL     OW 3313   0.872   0.462   8.087
  918SOL    HW1 3314   0.821   0.513   8.025
  918SOL    HW2 3315   0.889   0.379   8.042
  919SOL     OW 3316   0.993   0.043   8.226
  919SOL    HW1 3317   0.962   0.064   8.138
  919SOL    HW2 3318   1.003   3.948   8.226
  920SOL     OW 3319   1.436   1.164   8.306
  920SOL    HW1 3320   1.368   1.096   8.303
  920SOL    HW2 3321   1.460   1.178   8.215
  921SOL     OW 3322   1.468   0.602   8.429
  921SOL    HW1 3323   1.419   0.520   8.435
  921SOL    HW2 3324   1.529   0.599   8.502
  922SOL     OW 3325   1.850   0.818   7.831
  922SOL    HW1 3326   1.903   0.763   7.888
  922SOL    HW2 3327   1.816   0.758   7.764
  923SOL     OW 3328   0.490   1.414   7.611
  923SOL    HW1 3329   0.415   1.381   7.661
  923SOL    HW2 3330   0.467   1.396   7.520
  924SOL     OW 3331   1.666   1.265   8.096
  924SOL    HW1 3332   1.761   1.269   8.105
  924SOL    HW2 3333   1.637   1.354   8.118
  925SOL     OW 3334   1.394   0.571   7.518
  925SOL    HW1 3335   1.333   0.554   7.590
  925SOL    HW2 3336   1.480   0.551   7.554
  926SOL     OW 3337   0.557   0.269   7.770
  926SOL    HW1 3338   0.594   0.227   7.693
  926SOL    HW2 3339   0.529   0.355   7.740
  927SOL     OW 3340   1.753   1.236   9.025
  927SOL    HW1 3341   1.841   1.197   9.022
  927SOL    HW2 3342   1.768   1.326   9.054
  928SOL     OW 3343   1.060   1.354   8.783
  928SOL    HW1 3344   0.986   1.322   8.834
  928SOL    HW2 3345   1.136   1.312   8.824
  929SOL     OW 3346   1.605   1.625   9.099
  929SOL    HW1 3347   1.603   1.660   9.010
  929SOL    HW2 3348   1.689   1.580   9.105
  930SOL     OW 3349   1.126   1.201   8.555
  930SOL    HW1 3350   1.067   1.240   8.621
  930SOL    HW2 3351   1.091   1.232   8.471
  931SOL     OW 3352   1.631   1.100   8.526
  931SOL    HW1 3353   1.626   1.162   8.599
  931SOL    HW2 3354   1.550   1.115   8.477
  932SOL     OW 3355   0.914   0.108   8.851
  932SOL    HW1 3356   0.934   0.085   8.760
  932SOL    HW2 3357   0.994   0.151   8.882
  933SOL     OW 3358   0.984   1.114   9.170
  933SOL    HW1 3359   0.891   1.129   9.189
  933SOL    HW2 3360   0.985   1.037   9.114
  934SOL     OW 3361   0.707   1.059   7.820
  934SOL    HW1 3362   0.694   1.046   7.914
  934SOL    HW2 3363   0.784   1.006   7.798
  935SOL     OW 3364   0.419   0.815   8.700
  935SOL    HW1 3365   0.488   0.821   8.765
  935SOL    HW2 3366   0.384   0.726   8.711
  936SOL     OW 3367   1.267   0.376   8.723
  936SOL    HW1 3368   1.301   0.453   8.767
  936SOL    HW2 3369   1.181   0.403   8.690
  937SOL     OW 3370   0.063   1.579   8.792
  937SOL    HW1 3371   0.063   1.651   8.728
  937SOL    HW2 3372   0.156   1.567   8.813
  938SOL     OW 3373   0.375   1.102   7.936
  938SOL    HW1 3374   0.369   1.179   7.879
  938SOL    HW2 3375   0.374   1.028   7.876
  939SOL     OW 3376   0.557   0.539   8.309
  939SOL    HW1 3377   0.574   0.596   8.234
  939SOL    HW2 3378   0.620   0.568   8.375
  940SOL     OW 3379   1.248   1.346   7.839
  940SOL    HW1 3380   1.298   1.426   7.854
  940SOL    HW2 3381   1.160   1.366   7.871
  941SOL     OW 3382   1.277   1.456   8.594
  941SOL    HW1 3383   1.332   1.458   8.672
  941SOL    HW2 3384   1.222   1.378   8.605
  942SOL     OW 3385   1.581   0.631   7.930
  942SOL    HW1 3386   1.540   0.693   7.991
  942SOL    HW2 3387   1.627   0.685   7.866
  943SOL     OW 3388   0.346   1.524   8.769
  943SOL    HW1 3389   0.336   1.474   8.687
  943SOL    HW2 3390   0.440   1.540   8.776
  944SOL     OW 3391   0.411   0.741   9.049
  944SOL    HW1 3392   0.471   0.788   8.991
  944SOL    HW2 3393   0.453   0.656   9.063
  945SOL     OW 3394   1.598   0.777   9.128
  945SOL    HW1 3395   1.511   0.817   9.120
  945SOL    HW2 3396   1.650   0.818   9.060
  946SOL     OW 3397   1.022   0.118   9.225
  946SOL    HW1 3398   1.051   0.198   9.181
  946SOL    HW2 3399   1.014   0.054   9.154
  947SOL     OW 3400   0.479   0.036   9.215
  947SOL    HW1 3401   0.492   0.035   9.120
  947SOL    HW2 3402   0.421   0.111   9.231
  948SOL     OW 3403   0.584   0.872   8.479
  948SOL    HW1 3404   0.613   0.964   8.476
  948SOL    HW2 3405   0.526   0.868   8.556
  949SOL     OW 3406   1.360   0.859   8.482
  949SOL    HW1 3407   1.279   0.853   8.431
  949SOL    HW2 3408   1.398   0.771   8.478
  950SOL     OW 3409   1.207   0.533   7.714
  950SOL    HW1 3410   1.215   0.454   7.767
  950SOL    HW2 3411   1.164   0.596   7.771
  951SOL     OW 3412   0.313   0.215   8.689
  951SOL    HW1 3413   0.274   0.248   8.770
  951SOL    HW2 3414   0.292   0.122   8.688
  952SOL     OW 3415   0.054   1.304   8.728
  952SOL    HW1 3416   0.089   1.265   8.808
  952SOL    HW2 3417   0.050   1.398   8.746
  953SOL     OW 3418   0.728   0.635   8.507
  953SOL    HW1 3419   0.799   0.616   8.445
  953SOL    HW2 3420   0.699   0.723   8.484
  954SOL     OW 3421   1.733   0.959   9.299
  954SOL    HW1 3422   1.685   0.904   9.237
  954SOL    HW2 3423   1.674   0.970   9.373
  955SOL     OW 3424   0.324   0.056   8.094
  955SOL    HW1 3425   0.295   0.148   8.096
  955SOL    HW2 3426   0.283   0.017   8.171
  956SOL     OW 3427   1.597   0.384   7.831
  956SOL    HW1 3428   1.582   0.317   7.898
  956SOL    HW2 3429   1.578   0.467   7.876
  957SOL     OW 3430   1.027   0.760   8.410
  957SOL    HW1 3431   1.026   0.777   8.504
  957SOL    HW2 3432   1.000   0.669   8.402
  958SOL     OW 3433   0.983   1.566   9.162
  958SOL    HW1 3434   0.967   1.610   9.079
  958SOL    HW2 3435   1.025   1.484   9.138
  959SOL     OW 3436   1.855   1.509   9.055
  959SOL    HW1 3437   1.871   1.535   8.964
  959SOL    HW2 3438   1.939   1.523   9.099
  960SOL     OW 3439   0.351   0.919   9.250
  960SOL    HW1 3440   0.430   0.938   9.299
  960SOL    HW2 3441   0.378   0.854   9.185
  961SOL     OW 3442   1.514   0.275   7.584
  961SOL    HW1 3443   1.437   0.220   7.598
  961SOL    HW2 3444   1.528   0.318   7.668
  962SOL     OW 3445   1.295   0.827   7.482
  962SOL    HW1 3446   1.336   0.741   7.483
  962SOL    HW2 3447   1.325   0.867   7.400
  963SOL     OW 3448   1.065   1.336   8.300
  963SOL    HW1 3449   1.067   1.262   8.239
  963SOL    HW2 3450   1.128   1.398   8.265
  964SOL     OW 3451   0.314   0.808   8.400
  964SOL    HW1 3452   0.408   0.825   8.393
  964SOL    HW2 3453   0.307   0.718   8.432
  965SOL     OW 3454   0.337   0.525   8.460
  965SOL    HW1 3455   0.297   0.440   8.442
  965SOL    HW2 3456   0.413   0.530   8.401
  966SOL     OW 3457   1.134   0.384   9.137
  966SOL    HW1 3458   1.088   0.439   9.200
  966SOL    HW2 3459   1.222   0.421   9.132
  967SOL     OW 3460   1.151   0.223   8.929
  967SOL    HW1 3461   1.144   0.278   9.007
  967SOL    HW2 3462   1.172   0.284   8.858
  968SOL     OW 3463   3.999   1.321   7.631
  968SOL    HW1 3464   3.905   1.337   7.635
  968SOL    HW2 3465   0.009   1.228   7.651
  969SOL     OW 3466   0.076   1.801   8.339
  969SOL    HW1 3467   0.075   1.706   8.349
  969SOL    HW2 3468   0.169   1.825   8.341
  970SOL     OW 3469   0.504   1.570   8.357
  970SOL    HW1 3470   0.574   1.631   8.382
  970SOL    HW2 3471   0.548   1.506   8.301
  971SOL     OW 3472   0.987   0.794   8.676
  971SOL    HW1 3473   1.039   0.769   8.753
  971SOL    HW2 3474   0.900   0.757   8.693
  972SOL     OW 3475   0.037   0.563   8.561
  972SOL    HW1 3476   0.105   0.517   8.512
  972SOL    HW2 3477   0.062   0.552   8.653
  973SOL     OW 3478   0.207   0.516   9.169
  973SOL    HW1 3479   0.259   0.482   9.096
  973SOL    HW2 3480   0.156   0.587   9.131
  974SOL     OW 3481   1.376   0.941   9.107
  974SOL    HW1 3482   1.397   1.035   9.107
  974SOL    HW2 3483   1.374   0.917   9.015
  975SOL     OW 3484   0.817   0.571   7.803
  975SOL    HW1 3485   0.820   0.494   7.746
  975SOL    HW2 3486   0.741   0.620   7.771
  976SOL     OW 3487   1.643   0.601   8.637
  976SOL    HW1 3488   1.632   0.540   8.710
  976SOL    HW2 3489   1.729   0.582   8.602
  977SOL     OW 3490   0.294   1.547   9.181
  977SOL    HW1 3491   0.244   1.617   9.222
  977SOL    HW2 3492   0.258   1.466   9.218
  978SOL     OW 3493   0.696   0.459   8.711
  978SOL    HW1 3494   0.650   0.379   8.683
  978SOL    HW2 3495   0.692   0.516   8.634
  979SOL     OW 3496   0.930   1.679   8.914
  979SOL    HW1 3497   0.904   1.648   8.828
  979SOL    HW2 3498   0.929   1.774   8.907
  980SOL     OW 3499   0.461   0.492   7.641
  980SOL    HW1 3500   0.524   0.562   7.658
  980SOL    HW2 3501   0.379   0.539   7.624
  981SOL     OW 3502   0.157   1.137   8.919
  981SOL    HW1 3503   0.164   1.084   8.999
  981SOL    HW2 3504   0.172   1.074   8.848
  982SOL     OW 3505   1.329   1.049   8.673
  982SOL    HW1 3506   1.353   0.986   8.605
  982SOL    HW2 3507   1.256   1.099   8.635
  983SOL     OW 3508   1.309   0.855   7.756
  983SOL    HW1 3509   1.231   0.827   7.803
  983SOL    HW2 3510   1.287   0.844   7.663
  984SOL     OW 3511   1.744   1.742   8.585
  984SOL    HW1 3512   1.818   1.764   8.528
  984SOL    HW2 3513   1.730   1.648   8.570
  985SOL     OW 3514   1.243   1.733   8.564
  985SOL    HW1 3515   1.325   1.751   8.518
  985SOL    HW2 3516   1.245   1.639   8.582
  986SOL     OW 3517   0.076   1.218   8.475
  986SOL    HW1 3518   0.081   1.243   8.567
  986SOL    HW2 3519   3.982   1.223   8.454
  987SOL     OW 3520   0.679   1.664   9.173
  987SOL    HW1 3521   0.625   1.743   9.169
  987SOL    HW2 3522   0.741   1.674   9.101
  988SOL     OW 3523   1.708   0.130   7.933
  988SOL    HW1 3524   1.790   0.132   7.883
  988SOL    HW2 3525   1.698   0.039   7.960
  989SOL     OW 3526   0.170   1.769   9.276
  989SOL    HW1 3527   0.110   1.722   9.334
  989SOL    HW2 3528   0.213   1.833   9.333
  990SOL     OW 3529   1.277   0.925   8.119
  990SOL    HW1 3530   1.350   0.863   8.124
  990SOL    HW2 3531   1.311   0.998   8.068
  991SOL     OW 3532   0.818   1.272   8.880
  991SOL    HW1 3533   0.792   1.311   8.963
  991SOL    HW2 3534   0.747   1.292   8.820
  992SOL     OW 3535   0.670   1.619   7.602
  992SOL    HW1 3536   0.680   1.628   7.508
  992SOL    HW2 3537   0.619   1.538   7.613
  993SOL     OW 3538   1.633   1.727   8.840
  993SOL    HW1 3539   1.676   1.735   8.755
  993SOL    HW2 3540   1.620   1.818   8.868
  994SOL     OW 3541   1.838   0.175   8.416
  994SOL    HW1 3542   1.868   0.099   8.365
  994SOL    HW2 3543   1.751   0.193   8.382
  995SOL     OW 3544   0.271   0.324   8.164
  995SOL    HW1 3545   0.186   0.360   8.139
  995SOL    HW2 3546   0.263   0.306   8.257
  996SOL     OW 3547   1.189   1.609   7.478
  996SOL    HW1 3548   1.194   1.518   7.507
  996SOL    HW2 3549   1.117   1.611   7.415
  997SOL     OW 3550   0.824   1.005   8.820
  997SOL    HW1 3551   0.866   1.002   8.734
  997SOL    HW2 3552   0.825   1.098   8.844
  998SOL     OW 3553   0.915   0.910   7.738
  998SOL    HW1 3554   0.976   0.941   7.671
  998SOL    HW2 3555   0.962   0.839   7.782
  999SOL     OW 3556   0.372   1.302   8.940
  999SOL    HW1 3557   0.358   1.382   8.890
  999SOL    HW2 3558   0.295   1.248   8.922
 1000SOL     OW 3559   1.611   1.282   8.730
 1000SOL    HW1 3560   1.671   1.275   8.805
 1000SOL    HW2 3561   1.551   1.353   8.754
 1001SOL     OW 3562   1.048   1.106   8.154
 1001SOL    HW1 3563   0.978   1.054   8.193
 1001SOL    HW2 3564   1.109   1.041   8.119
 1002SOL     OW 3565   1.015   0.246   8.415
 1002SOL    HW1 3566   1.004   0.197   8.333
 1002SOL    HW2 3567   1.007   0.180   8.484
 1003SOL     OW 3568   0.599   1.485   7.932
 1003SOL    HW1 3569   0.644   1.438   7.862
 1003SOL    HW2 3570   0.537   1.543   7.886
 1004SOL     OW 3571   1.718   0.390   8.824
 1004SOL    HW1 3572   1.789   0.455   8.825
 1004SOL    HW2 3573   1.751   0.319   8.769
 1005SOL     OW 3574   0.252   1.342   7.738
 1005SOL    HW1 3575   0.159   1.354   7.717
 1005SOL    HW2 3576   0.262   1.381   7.825
 1006SOL     OW 3577   0.104   1.002   9.167
 1006SOL    HW1 3578   0.043   0.988   9.239
 1006SOL    HW2 3579   0.190   0.980   9.204
 1007SOL     OW 3580   0.692   0.239   8.942
 1007SOL    HW1 3581   0.763   0.188   8.903
 1007SOL    HW2 3582   0.716   0.244   9.035
 1008SOL     OW 3583   0.087   0.328   7.476
 1008SOL    HW1 3584   3.992   0.322   7.473
 1008SOL    HW2 3585   0.108   0.410   7.431
 1009SOL     OW 3586   1.431   0.858   8.849
 1009SOL    HW1 3587   1.383   0.918   8.792
 1009SOL    HW2 3588   1.521   0.861   8.817
 1010SOL     OW 3589   0.040   0.160   7.730
 1010SOL    HW1 3590   0.039   0.246   7.689
 1010SOL    HW2 3591   0.122   0.158   7.779
 1011SOL     OW 3592   1.181   1.337   7.564
 1011SOL    HW1 3593   1.089   1.312   7.567
 1011SOL    HW2 3594   1.209   1.338   7.655
 1012SOL     OW 3595   0.618   0.831   8.882
 1012SOL    HW1 3596   0.674   0.907   8.867
 1012SOL    HW2 3597   0.679   0.757   8.890
 1013SOL     OW 3598   1.488   1.776   8.425
 1013SOL    HW1 3599   1.513   1.839   8.357
 1013SOL    HW2 3600   1.569   1.761   8.474
 1014SOL     OW 3601   0.716   0.565   9.156
 1014SOL    HW1 3602   0.755   0.628   9.217
 1014SOL    HW2 3603   0.752   0.480   9.183
 1015SOL     OW 3604   1.468   1.203   9.081
 1015SOL    HW1 3605   1.457   1.216   9.175
 1015SOL    HW2 3606   1.562   1.215   9.067
 1016SOL     OW 3607   0.382   1.741   9.008
 1016SOL    HW1 3608   0.294   1.778   8.995
 1016SOL    HW2 3609   0.366   1.660   9.056
 1017SOL     OW 3610   1.671   0.882   8.704
 1017SOL    HW1 3611   1.663   0.797   8.661
 1017SOL    HW2 3612   1.663   0.946   8.633
 1018SOL     OW 3613   1.225   0.331   7.896
 1018SOL    HW1 3614   1.291   0.263   7.887
 1018SOL    HW2 3615   1.248   0.377   7.976
 1019SOL     OW 3616   0.592   0.741   8.115
 1019SOL    HW1 3617   0.630   0.827   8.097
 1019SOL    HW2 3618   0.521   0.732   8.051
 1020SOL     OW 3619   1.757   0.377   9.092
 1020SOL    HW1 3620   1.740   0.382   8.998
 1020SOL    HW2 3621   1.697   0.310   9.123
 1021SOL     OW 3622   1.742   0.934   8.961
 1021SOL    HW1 3623   1.746   1.029   8.973
 1021SOL    HW2 3624   1.728   0.922   8.867
 1022SOL     OW 3625   0.860   1.368   7.478
 1022SOL    HW1 3626   0.823   1.396   7.562
 1022SOL    HW2 3627   0.883   1.450   7.433
 1023SOL     OW 3628   0.659   1.793   8.396
 1023SOL    HW1 3629   0.637   1.883   8.371
 1023SOL    HW2 3630   0.754   1.788   8.387
 1024SOL     OW 3631   0.866   0.964   8.304
 1024SOL    HW1 3632   0.917   0.894   8.345
 1024SOL    HW2 3633   0.833   1.016   8.378
 1025SOL     OW 3634   1.078   0.985   7.536
 1025SOL    HW1 3635   1.059   1.039   7.459
 1025SOL    HW2 3636   1.155   0.935   7.511
 1026SOL     OW 3637   1.841   1.552   8.279
 1026SOL    HW1 3638   1.758   1.539   8.231
 1026SOL    HW2 3639   1.839   1.485   8.347
 1027SOL     OW 3640   0.222   1.304   9.302
 1027SOL    HW1 3641   0.153   1.242   9.278
 1027SOL    HW2 3642   0.210   1.318   9.396
 1028SOL     OW 3643   0.110   1.271   8.162
 1028SOL    HW1 3644   0.114   1.217   8.241
 1028SOL    HW2 3645   0.116   1.208   8.090
 1029SOL     OW 3646   0.679   1.400   9.074
 1029SOL    HW1 3647   0.599   1.357   9.104
 1029SOL    HW2 3648   0.674   1.489   9.111
 1030SOL     OW 3649   1.814   0.184   8.687
 1030SOL    HW1 3650   1.817   0.090   8.701
 1030SOL    HW2 3651   1.827   0.196   8.593
 1031SOL     OW 3652   0.440   0.435   7.977
 1031SOL    HW1 3653   0.452   0.361   7.918
 1031SOL    HW2 3654   0.385   0.401   8.048
 1032SOL     OW 3655   1.702   1.483   8.547
 1032SOL    HW1 3656   1.620   1.460   8.503
 1032SOL    HW2 3657   1.714   1.414   8.613
 1033SOL     OW 3658   0.329   0.553   8.739
 1033SOL    HW1 3659   0.384   0.496   8.792
 1033SOL    HW2 3660   0.346   0.526   8.649
 1034SOL     OW 3661   0.825   1.579   8.126
 1034SOL    HW1 3662   0.823   1.622   8.041
 1034SOL    HW2 3663   0.746   1.524   8.126
 1035SOL     OW 3664   1.460   0.249   8.560
 1035SOL    HW1 3665   1.476   0.163   8.597
 1035SOL    HW2 3666   1.401   0.291   8.623
 1036SOL     OW 3667   1.007   0.030   8.596
 1036SOL    HW1 3668   0.933   3.976   8.568
 1036SOL    HW2 3669   1.080   3.969   8.602
 1037SOL     OW 3670   0.769   1.331   7.759
 1037SOL    HW1 3671   0.737   1.241   7.766
 1037SOL    HW2 3672   0.853   1.331   7.805
 1038SOL     OW 3673   0.620   1.559   8.732
 1038SOL    HW1 3674   0.623   1.640   8.783
 1038SOL    HW2 3675   0.707   1.551   8.694
 1039SOL     OW 3676   1.318   0.073   7.612
 1039SOL    HW1 3677   1.340   0.010   7.544
 1039SOL    HW2 3678   1.233   0.043   7.646
 1040SOL     OW 3679   1.287   0.458   8.136
 1040SOL    HW1 3680   1.238   0.540   8.135
 1040SOL    HW2 3681   1.292   0.435   8.229
 1041SOL     OW 3682   1.589   0.211   8.316
 1041SOL    HW1 3683   1.536   0.231   8.393
 1041SOL    HW2 3684   1.588   0.292   8.264
 1042SOL     OW 3685   0.043   1.053   7.689
 1042SOL    HW1 3686   0.137   1.037   7.681
 1042SOL    HW2 3687   0.009   0.975   7.733
 1043SOL     OW 3688   0.864   1.637   7.807
 1043SOL    HW1 3689   0.804   1.631   7.733
 1043SOL    HW2 3690   0.848   1.724   7.844
 1044SOL     OW 3691   0.232   0.623   9.430
 1044SOL    HW1 3692   0.139   0.630   9.452
 1044SOL    HW2 3693   0.233   0.595   9.339
 1045SOL     OW 3694   0.226   0.285  10.294
 1045SOL    HW1 3695   0.250   0.251  10.380
 1045SOL    HW2 3696   0.133   0.263  10.285
 1046SOL     OW 3697   0.017   0.388   9.943
 1046SOL    HW1 3698   3.931   0.397   9.984
 1046SOL    HW2 3699   0.024   0.296   9.921
 1047SOL     OW 3700   0.574   1.279  10.489
 1047SOL    HW1 3701   0.487   1.284  10.449
 1047SOL    HW2 3702   0.590   1.367  10.523
 1048SOL     OW 3703   1.559   1.513  10.017
 1048SOL    HW1 3704   1.515   1.495  10.100
 1048SOL    HW2 3705   1.488   1.519   9.953
 1049SOL     OW 3706   1.131   0.699  10.014
 1049SOL    HW1 3707   1.180   0.780   9.999
 1049SOL    HW2 3708   1.083   0.714  10.096
 1050SOL     OW 3709   1.757   0.617   9.540
 1050SOL    HW1 3710   1.742   0.607   9.446
 1050SOL    HW2 3711   1.749   0.528   9.575
 1051SOL     OW 3712   0.760   1.144  10.346
 1051SOL    HW1 3713   0.691   1.176  10.405
 1051SOL    HW2 3714   0.793   1.222  10.302
 1052SOL     OW 3715   0.862   0.781  11.132
 1052SOL    HW1 3716   0.852   0.853  11.194
 1052SOL    HW2 3717   0.886   0.823  11.049
 1053SOL     OW 3718   0.687   1.008   9.959
 1053SOL    HW1 3719   0.750   0.992  10.029
 1053SOL    HW2 3720   0.616   1.057  10.002
 1054SOL     OW 3721   0.707   1.151  11.120
 1054SOL    HW1 3722   0.755   1.230  11.144
 1054SOL    HW2 3723   0.624   1.183  11.086
 1055SOL     OW 3724   0.351   1.405  10.389
 1055SOL    HW1 3725   0.269   1.388  10.342
 1055SOL    HW2 3726   0.399   1.464  10.332
 1056SOL     OW 3727   1.462   1.499  10.660
 1056SOL    HW1 3728   1.507   1.583  10.670
 1056SOL    HW2 3729   1.408   1.491  10.739
 1057SOL     OW 3730   0.451   0.406  10.811
 1057SOL    HW1 3731   0.530   0.353  10.805
 1057SOL    HW2 3732   0.379   0.342  10.811
 1058SOL     OW 3733   1.613   0.451  10.046
 1058SOL    HW1 3734   1.539   0.482   9.993
 1058SOL    HW2 3735   1.638   0.526  10.099
 1059SOL     OW 3736   0.224   1.716   9.772
 1059SOL    HW1 3737   0.243   1.791   9.828
 1059SOL    HW2 3738   0.301   1.709   9.715
 1060SOL     OW 3739   1.136   1.341  11.001
 1060SOL    HW1 3740   1.176   1.337  11.088
 1060SOL    HW2 3741   1.083   1.261  10.996
 1061SOL     OW 3742   0.243   1.446   9.848
 1061SOL    HW1 3743   0.214   1.536   9.838
 1061SOL    HW2 3744   0.175   1.404   9.901
 1062SOL     OW 3745   0.246   1.072  10.195
 1062SOL    HW1 3746   0.263   0.988  10.239
 1062SOL    HW2 3747   0.194   1.122  10.258
 1063SOL     OW 3748   0.615   1.790  10.742
 1063SOL    HW1 3749   0.532   1.773  10.786
 1063SOL    HW2 3750   0.637   1.880  10.766
 1064SOL     OW 3751   0.585   0.981   9.444
 1064SOL    HW1 3752   0.629   1.031   9.375
 1064SOL    HW2 3753   0.629   1.009   9.524
 1065SOL     OW 3754   1.577   0.133  10.768
 1065SOL    HW1 3755   1.599   0.208  10.713
 1065SOL    HW2 3756   1.559   0.172  10.854
 1066SOL     OW 3757   0.137   0.647   9.879
 1066SOL    HW1 3758   0.092   0.563   9.886
 1066SOL    HW2 3759   0.102   0.698   9.952
 1067SOL     OW 3760   0.043   1.591   9.450
 1067SOL    HW1 3761   0.030   1.499   9.470
 1067SOL    HW2 3762   3.966   1.635   9.488
 1068SOL     OW 3763   1.688   0.917   9.946
 1068SOL    HW1 3764   1.774   0.880   9.931
 1068SOL    HW2 3765   1.669   0.969   9.868
 1069SOL     OW 3766   1.645   1.108   9.740
 1069SOL    HW1 3767   1.731   1.116   9.697
 1069SOL    HW2 3768   1.650   1.169   9.814
 1070SOL     OW 3769   0.131   0.751  10.902
 1070SOL    HW1 3770   0.226   0.746  10.910
 1070SOL    HW2 3771   0.111   0.845  10.910
 1071SOL     OW 3772   0.611   1.382  10.045
 1071SOL    HW1 3773   0.566   1.299  10.054
 1071SOL    HW2 3774   0.596   1.409   9.955
 1072SOL     OW 3775   1.290   1.239  10.734
 1072SOL    HW1 3776   1.323   1.171  10.675
 1072SOL    HW2 3777   1.346   1.231  10.812
 1073SOL     OW 3778   0.815   0.001   9.823
 1073SOL    HW1 3779   0.860   0.083   9.804
 1073SOL    HW2 3780   0.722   0.024   9.826
 1074SOL     OW 3781   0.187   0.957  10.584
 1074SOL    HW1 3782   0.275   0.922  10.569
 1074SOL    HW2 3783   0.131   0.908  10.524
 1075SOL     OW 3784   1.532   0.992   9.506
 1075SOL    HW1 3785   1.462   0.934   9.537
 1075SOL    HW2 3786   1.572   1.025   9.587
 1076SOL     OW 3787   1.185   1.804  10.930
 1076SOL    HW1 3788   1.201   1.861  10.855
 1076SOL    HW2 3789   1.200   1.715  10.897
 1077SOL     OW 3790   0.338   0.254  11.128
 1077SOL    HW1 3791   0.385   0.337  11.120
 1077SOL    HW2 3792   0.248   0.279  11.152
 1078SOL     OW 3793   1.465   1.420  10.263
 1078SOL    HW1 3794   1.397   1.434  10.329
 1078SOL    HW2 3795   1.453   1.329  10.235
 1079SOL     OW 3796   1.668   1.726   9.871
 1079SOL    HW1 3797   1.628   1.691   9.791
 1079SOL    HW2 3798   1.647   1.661   9.938
 1080SOL     OW 3799   0.595   0.721   9.572
 1080SOL    HW1 3800   0.604   0.803   9.523
 1080SOL    HW2 3801   0.533   0.741   9.642
 1081SOL     OW 3802   1.277   0.361  10.250
 1081SOL    HW1 3803   1.190   0.321  10.254
 1081SOL    HW2 3804   1.334   0.300  10.297
 1082SOL     OW 3805   1.577   1.667   9.613
 1082SOL    HW1 3806   1.661   1.710   9.598
 1082SOL    HW2 3807   1.546   1.644   9.525
 1083SOL     OW 3808   0.796   0.615  10.765
 1083SOL    HW1 3809   0.766   0.593  10.853
 1083SOL    HW2 3810   0.753   0.552  10.708
 1084SOL     OW 3811   1.393   0.476  10.987
 1084SOL    HW1 3812   1.395   0.520  11.072
 1084SOL    HW2 3813   1.455   0.404  10.996
 1085SOL     OW 3814   0.958   0.889  10.891
 1085SOL    HW1 3815   1.012   0.817  10.857
 1085SOL    HW2 3816   0.910   0.921  10.815
 1086SOL     OW 3817   0.991   0.404  10.552
 1086SOL    HW1 3818   0.910   0.432  10.595
 1086SOL    HW2 3819   0.962   0.370  10.467
 1087SOL     OW 3820   1.050   0.699   9.737
 1087SOL    HW1 3821   1.064   0.691   9.831
 1087SOL    HW2 3822   0.968   0.651   9.721
 1088SOL     OW 3823   0.081   0.822  10.100
 1088SOL    HW1 3824   0.163   0.794  10.142
 1088SOL    HW2 3825   0.087   0.917  10.098
 1089SOL     OW 3826   0.129   1.851  10.881
 1089SOL    HW1 3827   0.136   1.819  10.971
 1089SOL    HW2 3828   0.037   1.840  10.859
 1090SOL     OW 3829   0.889   0.349   9.508
 1090SOL    HW1 3830   0.931   0.407   9.445
 1090SOL    HW2 3831   0.895   0.262   9.468
 1091SOL     OW 3832   1.712   0.576  11.138
 1091SOL    HW1 3833   1.674   0.652  11.094
 1091SOL    HW2 3834   1.735   0.516  11.067
 1092SOL     OW 3835   1.375   1.142   9.852
 1092SOL    HW1 3836   1.454   1.129   9.800
 1092SOL    HW2 3837   1.323   1.204   9.801
 1093SOL     OW 3838   0.558   0.195  10.193
 1093SOL    HW1 3839   0.560   0.214  10.287
 1093SOL    HW2 3840   0.548   0.281  10.151
 1094SOL     OW 3841   1.008   1.446   9.784
 1094SOL    HW1 3842   0.967   1.517   9.735
 1094SOL    HW2 3843   0.995   1.468   9.876
 1095SOL     OW 3844   0.364   1.810  10.174
 1095SOL    HW1 3845   0.428   1.739  10.177
 1095SOL    HW2 3846   0.415   1.889  10.188
 1096SOL     OW 3847   1.798   1.058  10.178
 1096SOL    HW1 3848   1.741   1.045  10.102
 1096SOL    HW2 3849   1.738   1.064  10.252
 1097SOL     OW 3850   1.227   1.540  10.823
 1097SOL    HW1 3851   1.214   1.466  10.882
 1097SOL    HW2 3852   1.168   1.523  10.750
 1098SOL     OW 3853   0.311   0.956   9.552
 1098SOL    HW1 3854   0.397   0.978   9.515
 1098SOL    HW2 3855   0.295   0.866   9.523
 1099SOL     OW 3856   1.475   0.739  10.040
 1099SOL    HW1 3857   1.466   0.695  10.124
 1099SOL    HW2 3858   1.552   0.795  10.051
 1100SOL     OW 3859   0.464   1.259  11.047
 1100SOL    HW1 3860   0.437   1.268  10.955
 1100SOL    HW2 3861   0.382   1.265  11.097
 1101SOL     OW 3862   1.121   1.777   9.542
 1101SOL    HW1 3863   1.049   1.734   9.589
 1101SOL    HW2 3864   1.142   1.717   9.470
 1102SOL     OW 3865   0.198   0.296  10.807
 1102SOL    HW1 3866   0.105   0.319  10.803
 1102SOL    HW2 3867   0.204   0.236  10.882
 1103SOL     OW 3868   1.628   1.378   9.397
 1103SOL    HW1 3869   1.589   1.463   9.380
 1103SOL    HW2 3870   1.559   1.315   9.378
 1104SOL     OW 3871   0.466   1.739   9.630
 1104SOL    HW1 3872   0.507   1.797   9.694
 1104SOL    HW2 3873   0.539   1.711   9.574
 1105SOL     OW 3874   1.434   0.155   9.716
 1105SOL    HW1 3875   1.397   0.091   9.655
 1105SOL    HW2 3876   1.516   0.114   9.746
 1106SOL     OW 3877   0.251   1.792  10.543
 1106SOL    HW1 3878   0.300   1.730  10.597
 1106SOL    HW2 3879   0.243   1.749  10.458
 1107SOL     OW 3880   0.938   1.698  10.211
 1107SOL    HW1 3881   1.015   1.646  10.230
 1107SOL    HW2 3882   0.893   1.649  10.142
 1108SOL     OW 3883   0.392   0.695   9.784
 1108SOL    HW1 3884   0.421   0.604   9.796
 1108SOL    HW2 3885   0.300   0.695   9.810
 1109SOL     OW 3886   1.533   0.233  11.036
 1109SOL    HW1 3887   1.535   0.256  11.129
 1109SOL    HW2 3888   1.495   0.145  11.033
 1110SOL     OW 3889   0.640   0.139   9.410
 1110SOL    HW1 3890   0.679   0.062   9.452
 1110SOL    HW2 3891   0.578   0.102   9.346
 1111SOL     OW 3892   0.780   0.282  11.072
 1111SOL    HW1 3893   0.841   0.209  11.081
 1111SOL    HW2 3894   0.716   0.269  11.142
 1112SOL     OW 3895   0.876   1.520  10.504
 1112SOL    HW1 3896   0.862   1.485  10.416
 1112SOL    HW2 3897   0.946   1.466  10.541
 1113SOL     OW 3898   1.343   0.587  10.741
 1113SOL    HW1 3899   1.372   0.557  10.827
 1113SOL    HW2 3900   1.376   0.676  10.733
 1114SOL     OW 3901   0.812   1.398  10.245
 1114SOL    HW1 3902   0.897   1.388  10.202
 1114SOL    HW2 3903   0.748   1.395  10.174
 1115SOL     OW 3904   0.928   0.510  10.213
 1115SOL    HW1 3905   0.905   0.502  10.121
 1115SOL    HW2 3906   0.958   0.423  10.238
 1116SOL     OW 3907   0.546   0.057   9.803
 1116SOL    HW1 3908   0.471   0.064   9.862
 1116SOL    HW2 3909   0.548   0.141   9.757
 1117SOL     OW 3910   1.428   1.197   9.351
 1117SOL    HW1 3911   1.459   1.122   9.401
 1117SOL    HW2 3912   1.342   1.217   9.388
 1118SOL     OW 3913   0.329   0.046   9.502
 1118SOL    HW1 3914   0.365   0.089   9.425
 1118SOL    HW2 3915   0.406   0.019   9.553
 1119SOL     OW 3916   0.936   0.245   9.776
 1119SOL    HW1 3917   0.908   0.288   9.695
 1119SOL    HW2 3918   1.032   0.246   9.772
 1120SOL     OW 3919   1.079   0.680  10.770
 1120SOL    HW1 3920   1.008   0.617  10.777
 1120SOL    HW2 3921   1.158   0.626  10.763
 1121SOL     OW 3922   1.224   1.570  10.104
 1121SOL    HW1 3923   1.243   1.637  10.039
 1121SOL    HW2 3924   1.293   1.580  10.170
 1122SOL     OW 3925   0.466   1.149  10.050
 1122SOL    HW1 3926   0.392   1.126  10.107
 1122SOL    HW2 3927   0.433   1.132   9.962
 1123SOL     OW 3928   1.270   1.795   9.914
 1123SOL    HW1 3929   1.313   1.858   9.856
 1123SOL    HW2 3930   1.206   1.847   9.963
 1124SOL     OW 3931   1.026   0.548   9.330
 1124SOL    HW1 3932   0.983   0.631   9.311
 1124SOL    HW2 3933   1.088   0.569   9.400
 1125SOL     OW 3934   0.078   0.569  10.702
 1125SOL    HW1 3935   0.167   0.553  10.671
 1125SOL    HW2 3936   0.088   0.640  10.766
 1126SOL     OW 3937   0.571   0.232  10.470
 1126SOL    HW1 3938   0.596   0.140  10.482
 1126SOL    HW2 3939   0.481   0.236  10.500
 1127SOL     OW 3940   0.873   0.462   9.949
 1127SOL    HW1 3941   0.821   0.513   9.888
 1127SOL    HW2 3942   0.889   0.379   9.904
 1128SOL     OW 3943   0.993   0.043  10.088
 1128SOL    HW1 3944   0.962   0.064  10.000
 1128SOL    HW2 3945   1.003   3.948  10.088
 1129SOL     OW 3946   1.436   1.163  10.168
 1129SOL    HW1 3947   1.368   1.095  10.165
 1129SOL    HW2 3948   1.460   1.177  10.077
 1130SOL     OW 3949   1.467   0.602  10.291
 1130SOL    HW1 3950   1.419   0.519  10.297
 1130SOL    HW2 3951   1.529   0.599  10.364
 1131SOL     OW 3952   1.848   0.821   9.692
 1131SOL    HW1 3953   1.903   0.767   9.750
 1131SOL    HW2 3954   1.815   0.760   9.626
 1132SOL     OW 3955   0.490   1.414   9.473
 1132SOL    HW1 3956   0.415   1.382   9.523
 1132SOL    HW2 3957   0.467   1.396   9.382
 1133SOL     OW 3958   1.667   1.266   9.959
 1133SOL    HW1 3959   1.762   1.270   9.971
 1133SOL    HW2 3960   1.637   1.354   9.980
 1134SOL     OW 3961   1.394   0.572   9.380
 1134SOL    HW1 3962   1.333   0.554   9.452
 1134SOL    HW2 3963   1.480   0.550   9.416
 1135SOL     OW 3964   0.557   0.269   9.632
 1135SOL    HW1 3965   0.594   0.227   9.555
 1135SOL    HW2 3966   0.529   0.355   9.602
 1136SOL     OW 3967   1.753   1.236  10.887
 1136SOL    HW1 3968   1.841   1.198  10.883
 1136SOL    HW2 3969   1.768   1.326  10.916
 1137SOL     OW 3970   1.061   1.353  10.645
 1137SOL    HW1 3971   0.986   1.322  10.696
 1137SOL    HW2 3972   1.137   1.312  10.686
 1138SOL     OW 3973   1.605   1.624  10.961
 1138SOL    HW1 3974   1.603   1.660  10.872
 1138SOL    HW2 3975   1.689   1.580  10.967
 1139SOL     OW 3976   1.125   1.201  10.417
 1139SOL    HW1 3977   1.067   1.240  10.483
 1139SOL    HW2 3978   1.091   1.232  10.333
 1140SOL     OW 3979   1.631   1.100  10.388
 1140SOL    HW1 3980   1.626   1.162  10.461
 1140SOL    HW2 3981   1.550   1.115  10.339
 1141SOL     OW 3982   0.914   0.108  10.713
 1141SOL    HW1 3983   0.934   0.085  10.622
 1141SOL    HW2 3984   0.994   0.151  10.744
 1142SOL     OW 3985   0.984   1.114  11.032
 1142SOL    HW1 3986   0.891   1.129  11.051
 1142SOL    HW2 3987   0.985   1.037  10.976
 1143SOL     OW 3988   0.707   1.060   9.681
 1143SOL    HW1 3989   0.694   1.046   9.775
 1143SOL    HW2 3990   0.784   1.007   9.660
 1144SOL     OW 3991   0.419   0.814  10.562
 1144SOL    HW1 3992   0.488   0.821  10.627
 1144SOL    HW2 3993   0.384   0.726  10.573
 1145SOL     OW 3994   1.267   0.376  10.585
 1145SOL    HW1 3995   1.301   0.453  10.629
 1145SOL    HW2 3996   1.181   0.403  10.552
 1146SOL     OW 3997   0.063   1.579  10.654
 1146SOL    HW1 3998   0.063   1.651  10.590
 1146SOL    HW2 3999   0.156   1.567  10.675
 1147SOL     OW 4000   0.377   1.102   9.798
 1147SOL    HW1 4001   0.367   1.179   9.741
 1147SOL    HW2 4002   0.374   1.028   9.738
 1148SOL     OW 4003   0.558   0.539  10.171
 1148SOL    HW1 4004   0.574   0.596  10.096
 1148SOL    HW2 4005   0.620   0.567  10.237
 1149SOL     OW 4006   1.248   1.348   9.699
 1149SOL    HW1 4007   1.303   1.419   9.731
 1149SOL    HW2 4008   1.160   1.368   9.733
 1150SOL     OW 4009   1.277   1.456  10.456
 1150SOL    HW1 4010   1.332   1.458  10.534
 1150SOL    HW2 4011   1.222   1.378  10.468
 1151SOL     OW 4012   1.580   0.631   9.792
 1151SOL    HW1 4013   1.541   0.693   9.853
 1151SOL    HW2 4014   1.627   0.685   9.729
 1152SOL     OW 4015   0.346   1.524  10.631
 1152SOL    HW1 4016   0.336   1.474  10.550
 1152SOL    HW2 4017   0.440   1.540  10.638
 1153SOL     OW 4018   0.411   0.741  10.911
 1153SOL    HW1 4019   0.471   0.788  10.853
 1153SOL    HW2 4020   0.453   0.656  10.925
 1154SOL     OW 4021   1.597   0.777  10.990
 1154SOL    HW1 4022   1.511   0.817  10.982
 1154SOL    HW2 4023   1.650   0.818  10.922
 1155SOL     OW 4024   1.022   0.118  11.087
 1155SOL    HW1 4025   1.051   0.198  11.043
 1155SOL    HW2 4026   1.015   0.054  11.016
 1156SOL     OW 4027   0.479   0.036  11.077
 1156SOL    HW1 4028   0.492   0.035  10.982
 1156SOL    HW2 4029   0.421   0.111  11.093
 1157SOL     OW 4030   0.583   0.872  10.341
 1157SOL    HW1 4031   0.613   0.964  10.339
 1157SOL    HW2 4032   0.526   0.867  10.418
 1158SOL     OW 4033   1.360   0.859  10.343
 1158SOL    HW1 4034   1.279   0.852  10.293
 1158SOL    HW2 4035   1.398   0.771  10.340
 1159SOL     OW 4036   1.207   0.533   9.576
 1159SOL    HW1 4037   1.215   0.454   9.629
 1159SOL    HW2 4038   1.164   0.596   9.634
 1160SOL     OW 4039   0.313   0.215  10.551
 1160SOL    HW1 4040   0.274   0.248  10.632
 1160SOL    HW2 4041   0.292   0.122  10.551
 1161SOL     OW 4042   0.055   1.304  10.590
 1161SOL    HW1 4043   0.089   1.265  10.670
 1161SOL    HW2 4044   0.050   1.398  10.608
 1162SOL     OW 4045   0.728   0.635  10.369
 1162SOL    HW1 4046   0.799   0.616  10.307
 1162SOL    HW2 4047   0.699   0.723  10.345
 1163SOL     OW 4048   1.733   0.958  11.161
 1163SOL    HW1 4049   1.685   0.904  11.099
 1163SOL    HW2 4050   1.674   0.970  11.235
 1164SOL     OW 4051   0.324   0.056   9.955
 1164SOL    HW1 4052   0.295   0.148   9.958
 1164SOL    HW2 4053   0.283   0.017  10.033
 1165SOL     OW 4054   1.597   0.384   9.693
 1165SOL    HW1 4055   1.582   0.317   9.760
 1165SOL    HW2 4056   1.578   0.467   9.738
 1166SOL     OW 4057   1.027   0.760  10.272
 1166SOL    HW1 4058   1.026   0.777  10.366
 1166SOL    HW2 4059   1.000   0.669  10.264
 1167SOL     OW 4060   0.983   1.566  11.025
 1167SOL    HW1 4061   0.967   1.610  10.941
 1167SOL    HW2 4062   1.025   1.484  11.000
 1168SOL     OW 4063   1.855   1.509  10.916
 1168SOL    HW1 4064   1.871   1.535  10.826
 1168SOL    HW2 4065   1.939   1.523  10.960
 1169SOL     OW 4066   0.351   0.919  11.112
 1169SOL    HW1 4067   0.430   0.938  11.161
 1169SOL    HW2 4068   0.378   0.854  11.047
 1170SOL     OW 4069   1.514   0.275   9.446
 1170SOL    HW1 4070   1.437   0.220   9.460
 1170SOL    HW2 4071   1.528   0.318   9.530
 1171SOL     OW 4072   1.294   0.827   9.343
 1171SOL    HW1 4073   1.336   0.741   9.345
 1171SOL    HW2 4074   1.325   0.866   9.261
 1172SOL     OW 4075   1.064   1.335  10.162
 1172SOL    HW1 4076   1.067   1.262  10.101
 1172SOL    HW2 4077   1.127   1.398  10.128
 1173SOL     OW 4078   0.314   0.808  10.262
 1173SOL    HW1 4079   0.408   0.825  10.255
 1173SOL    HW2 4080   0.307   0.718  10.294
 1174SOL     OW 4081   0.337   0.525  10.322
 1174SOL    HW1 4082   0.297   0.440  10.304
 1174SOL    HW2 4083   0.413   0.530  10.263
 1175SOL     OW 4084   1.134   0.384  10.999
 1175SOL    HW1 4085   1.088   0.439  11.062
 1175SOL    HW2 4086   1.222   0.421  10.994
 1176SOL     OW 4087   1.151   0.223  10.791
 1176SOL    HW1 4088   1.144   0.278  10.869
 1176SOL    HW2 4089   1.173   0.284  10.720
 1177SOL     OW 4090   3.999   1.321   9.492
 1177SOL    HW1 4091   3.905   1.337   9.497
 1177SOL    HW2 4092   0.009   1.228   9.513
 1178SOL     OW 4093   0.076   1.801  10.200
 1178SOL    HW1 4094   0.075   1.706  10.211
 1178SOL    HW2 4095   0.169   1.825  10.203
 1179SOL     OW 4096   0.504   1.570  10.219
 1179SOL    HW1 4097   0.574   1.632  10.244
 1179SOL    HW2 4098   0.548   1.505  10.164
 1180SOL     OW 4099   0.987   0.794  10.538
 1180SOL    HW1 4100   1.039   0.769  10.615
 1180SOL    HW2 4101   0.900   0.757  10.555
 1181SOL     OW 4102   0.037   0.563  10.423
 1181SOL    HW1 4103   0.106   0.517  10.375
 1181SOL    HW2 4104   0.062   0.552  10.515
 1182SOL     OW 4105   0.207   0.516  11.031
 1182SOL    HW1 4106   0.259   0.482  10.958
 1182SOL    HW2 4107   0.156   0.587  10.993
 1183SOL     OW 4108   1.376   0.941  10.969
 1183SOL    HW1 4109   1.397   1.035  10.969
 1183SOL    HW2 4110   1.374   0.917  10.877
 1184SOL     OW 4111   0.817   0.571   9.664
 1184SOL    HW1 4112   0.820   0.494   9.608
 1184SOL    HW2 4113   0.740   0.620   9.633
 1185SOL     OW 4114   1.642   0.601  10.499
 1185SOL    HW1 4115   1.632   0.541  10.572
 1185SOL    HW2 4116   1.730   0.582  10.464
 1186SOL     OW 4117   0.295   1.547  11.043
 1186SOL    HW1 4118   0.244   1.617  11.084
 1186SOL    HW2 4119   0.258   1.466  11.080
 1187SOL     OW 4120   0.696   0.458  10.573
 1187SOL    HW1 4121   0.650   0.379  10.545
 1187SOL    HW2 4122   0.692   0.516  10.496
 1188SOL     OW 4123   0.930   1.679  10.777
 1188SOL    HW1 4124   0.904   1.648  10.690
 1188SOL    HW2 4125   0.929   1.774  10.769
 1189SOL     OW 4126   0.461   0.492   9.503
 1189SOL    HW1 4127   0.524   0.562   9.520
 1189SOL    HW2 4128   0.379   0.538   9.486
 1190SOL     OW 4129   0.157   1.137  10.781
 1190SOL    HW1 4130   0.164   1.084  10.861
 1190SOL    HW2 4131   0.172   1.074  10.710
 1191SOL     OW 4132   1.329   1.049  10.535
 1191SOL    HW1 4133   1.353   0.986  10.467
 1191SOL    HW2 4134   1.256   1.098  10.497
 1192SOL     OW 4135   1.309   0.856   9.617
 1192SOL    HW1 4136   1.232   0.826   9.666
 1192SOL    HW2 4137   1.286   0.843   9.525
 1193SOL     OW 4138   1.745   1.742  10.449
 1193SOL    HW1 4139   1.819   1.765  10.393
 1193SOL    HW2 4140   1.731   1.649  10.433
 1194SOL     OW 4141   1.243   1.733  10.426
 1194SOL    HW1 4142   1.325   1.751  10.380
 1194SOL    HW2 4143   1.246   1.639  10.444
 1195SOL     OW 4144   0.076   1.219  10.336
 1195SOL    HW1 4145   0.082   1.243  10.429
 1195SOL    HW2 4146   3.982   1.223  10.316
 1196SOL     OW 4147   0.679   1.664  11.035
 1196SOL    HW1 4148   0.625   1.743  11.031
 1196SOL    HW2 4149   0.741   1.674  10.963
 1197SOL     OW 4150   1.708   0.130   9.795
 1197SOL    HW1 4151   1.790   0.132   9.745
 1197SOL    HW2 4152   1.698   0.039   9.822
 1198SOL     OW 4153   1.389   1.567   9.793
 1198SOL    HW1 4154   1.447   1.598   9.724
 1198SOL    HW2 4155   1.342   1.646   9.821
 1199SOL     OW 4156   0.170   1.769  11.138
 1199SOL    HW1 4157   0.110   1.722  11.196
 1199SOL    HW2 4158   0.213   1.833  11.195
 1200SOL     OW 4159   1.277   0.925   9.981
 1200SOL    HW1 4160   1.350   0.863   9.986
 1200SOL    HW2 4161   1.311   0.998   9.929
 1201SOL     OW 4162   0.818   1.272  10.742
 1201SOL    HW1 4163   0.792   1.311  10.825
 1201SOL    HW2 4164   0.747   1.292  10.682
 1202SOL     OW 4165   0.671   1.617   9.465
 1202SOL    HW1 4166   0.680   1.627   9.371
 1202SOL    HW2 4167   0.619   1.538   9.476
 1203SOL     OW 4168   1.632   1.727  10.702
 1203SOL    HW1 4169   1.676   1.735  10.617
 1203SOL    HW2 4170   1.620   1.818  10.731
 1204SOL     OW 4171   1.838   0.175  10.278
 1204SOL    HW1 4172   1.868   0.099  10.228
 1204SOL    HW2 4173   1.751   0.193  10.244
 1205SOL     OW 4174   0.271   0.324  10.026
 1205SOL    HW1 4175   0.186   0.360  10.001
 1205SOL    HW2 4176   0.263   0.306  10.119
 1206SOL     OW 4177   1.206   1.608   9.341
 1206SOL    HW1 4178   1.197   1.516   9.368
 1206SOL    HW2 4179   1.141   1.618   9.271
 1207SOL     OW 4180   0.824   1.005  10.682
 1207SOL    HW1 4181   0.867   1.002  10.596
 1207SOL    HW2 4182   0.825   1.098  10.706
 1208SOL     OW 4183   0.915   0.910   9.599
 1208SOL    HW1 4184   0.977   0.942   9.534
 1208SOL    HW2 4185   0.961   0.839   9.644
 1209SOL     OW 4186   1.493   1.623   9.351
 1209SOL    HW1 4187   1.398   1.621   9.338
 1209SOL    HW2 4188   1.529   1.630   9.263
 1210SOL     OW 4189   0.373   1.301  10.801
 1210SOL    HW1 4190   0.358   1.382  10.752
 1210SOL    HW2 4191   0.295   1.248  10.784
 1211SOL     OW 4192   1.611   1.282  10.592
 1211SOL    HW1 4193   1.671   1.276  10.665
 1211SOL    HW2 4194   1.551   1.353  10.616
 1212SOL     OW 4195   1.048   1.105  10.015
 1212SOL    HW1 4196   0.978   1.054  10.055
 1212SOL    HW2 4197   1.109   1.040   9.981
 1213SOL     OW 4198   1.015   0.246  10.277
 1213SOL    HW1 4199   1.004   0.197  10.195
 1213SOL    HW2 4200   1.007   0.181  10.346
 1214SOL     OW 4201   0.602   1.489   9.793
 1214SOL    HW1 4202   0.643   1.438   9.723
 1214SOL    HW2 4203   0.536   1.542   9.748
 1215SOL     OW 4204   1.718   0.390  10.686
 1215SOL    HW1 4205   1.789   0.455  10.687
 1215SOL    HW2 4206   1.751   0.319  10.631
 1216SOL     OW 4207   0.252   1.343   9.600
 1216SOL    HW1 4208   0.159   1.354   9.579
 1216SOL    HW2 4209   0.262   1.381   9.687
 1217SOL     OW 4210   0.104   1.002  11.029
 1217SOL    HW1 4211   0.043   0.988  11.101
 1217SOL    HW2 4212   0.190   0.980  11.066
 1218SOL     OW 4213   0.692   0.239  10.804
 1218SOL    HW1 4214   0.763   0.188  10.765
 1218SOL    HW2 4215   0.716   0.244  10.897
 1219SOL     OW 4216   0.087   0.328   9.338
 1219SOL    HW1 4217   3.992   0.322   9.335
 1219SOL    HW2 4218   0.108   0.410   9.293
 1220SOL     OW 4219   1.431   0.858  10.711
 1220SOL    HW1 4220   1.383   0.918  10.654
 1220SOL    HW2 4221   1.521   0.861  10.679
 1221SOL     OW 4222   0.040   0.160   9.592
 1221SOL    HW1 4223   0.039   0.247   9.551
 1221SOL    HW2 4224   0.122   0.158   9.642
 1222SOL     OW 4225   1.180   1.342   9.427
 1222SOL    HW1 4226   1.089   1.312   9.430
 1222SOL    HW2 4227   1.208   1.341   9.518
 1223SOL     OW 4228   0.618   0.831  10.744
 1223SOL    HW1 4229   0.674   0.907  10.729
 1223SOL    HW2 4230   0.679   0.757  10.752
 1224SOL     OW 4231   1.489   1.776  10.286
 1224SOL    HW1 4232   1.515   1.837  10.217
 1224SOL    HW2 4233   1.569   1.762  10.336
 1225SOL     OW 4234   0.716   0.565  11.018
 1225SOL    HW1 4235   0.755   0.628  11.079
 1225SOL    HW2 4236   0.752   0.480  11.045
 1226SOL     OW 4237   1.468   1.203  10.943
 1226SOL    HW1 4238   1.457   1.216  11.037
 1226SOL    HW2 4239   1.562   1.215  10.928
 1227SOL     OW 4240   0.382   1.741  10.870
 1227SOL    HW1 4241   0.294   1.778  10.857
 1227SOL    HW2 4242   0.366   1.660  10.918
 1228SOL     OW 4243   1.671   0.882  10.566
 1228SOL    HW1 4244   1.663   0.797  10.523
 1228SOL    HW2 4245   1.663   0.946  10.495
 1229SOL     OW 4246   1.225   0.331   9.758
 1229SOL    HW1 4247   1.291   0.263   9.749
 1229SOL    HW2 4248   1.248   0.377   9.838
 1230SOL     OW 4249   0.592   0.741   9.977
 1230SOL    HW1 4250   0.630   0.827   9.959
 1230SOL    HW2 4251   0.521   0.732   9.913
 1231SOL     OW 4252   1.757   0.377  10.954
 1231SOL    HW1 4253   1.740   0.382  10.860
 1231SOL    HW2 4254   1.697   0.310  10.985
 1232SOL     OW 4255   1.742   0.934  10.823
 1232SOL    HW1 4256   1.746   1.029  10.836
 1232SOL    HW2 4257   1.728   0.923  10.729
 1233SOL     OW 4258   0.862   1.368   9.340
 1233SOL    HW1 4259   0.823   1.395   9.423
 1233SOL    HW2 4260   0.882   1.451   9.295
 1234SOL     OW 4261   0.659   1.793  10.257
 1234SOL    HW1 4262   0.638   1.883  10.234
 1234SOL    HW2 4263   0.754   1.788  10.250
 1235SOL     OW 4264   0.866   0.964  10.166
 1235SOL    HW1 4265   0.917   0.894  10.207
 1235SOL    HW2 4266   0.833   1.016  10.239
 1236SOL     OW 4267   1.080   0.988   9.398
 1236SOL    HW1 4268   1.058   1.038   9.320
 1236SOL    HW2 4269   1.155   0.935   9.373
 1237SOL     OW 4270   1.850   1.543  10.141
 1237SOL    HW1 4271   1.766   1.539  10.097
 1237SOL    HW2 4272   1.841   1.484  10.216
 1238SOL     OW 4273   0.222   1.304  11.164
 1238SOL    HW1 4274   0.153   1.242  11.140
 1238SOL    HW2 4275   0.210   1.318  11.258
 1239SOL     OW 4276   0.111   1.271  10.024
 1239SOL    HW1 4277   0.113   1.218  10.103
 1239SOL    HW2 4278   0.116   1.208   9.952
 1240SOL     OW 4279   0.679   1.401  10.936
 1240SOL    HW1 4280   0.599   1.357  10.966
 1240SOL    HW2 4281   0.674   1.489  10.973
 1241SOL     OW 4282   1.813   0.184  10.549
 1241SOL    HW1 4283   1.816   0.090  10.563
 1241SOL    HW2 4284   1.827   0.196  10.455
 1242SOL     OW 4285   0.440   0.435   9.839
 1242SOL    HW1 4286   0.452   0.361   9.780
 1242SOL    HW2 4287   0.386   0.401   9.910
 1243SOL     OW 4288   1.703   1.483  10.406
 1243SOL    HW1 4289   1.620   1.460  10.365
 1243SOL    HW2 4290   1.716   1.416  10.474
 1244SOL     OW 4291   0.329   0.553  10.601
 1244SOL    HW1 4292   0.384   0.496  10.654
 1244SOL    HW2 4293   0.346   0.525  10.511
 1245SOL     OW 4294   0.825   1.578   9.990
 1245SOL    HW1 4295   0.820   1.625   9.906
 1245SOL    HW2 4296   0.746   1.523   9.991
 1246SOL     OW 4297   1.460   0.249  10.422
 1246SOL    HW1 4298   1.477   0.163  10.459
 1246SOL    HW2 4299   1.401   0.291  10.485
 1247SOL     OW 4300   1.007   0.030  10.458
 1247SOL    HW1 4301   0.933   3.976  10.430
 1247SOL    HW2 4302   1.080   3.970  10.465
 1248SOL     OW 4303   0.771   1.332   9.621
 1248SOL    HW1 4304   0.737   1.242   9.627
 1248SOL    HW2 4305   0.854   1.330   9.669
 1249SOL     OW 4306   0.619   1.559  10.593
 1249SOL    HW1 4307   0.623   1.640  10.645
 1249SOL    HW2 4308   0.707   1.551  10.556
 1250SOL     OW 4309   1.317   0.074   9.474
 1250SOL    HW1 4310   1.340   0.010   9.406
 1250SOL    HW2 4311   1.233   0.043   9.508
 1251SOL     OW 4312   1.287   0.458   9.998
 1251SOL    HW1 4313   1.238   0.540   9.997
 1251SOL    HW2 4314   1.292   0.435  10.091
 1252SOL     OW 4315   1.589   0.211  10.178
 1252SOL    HW1 4316   1.536   0.231  10.255
 1252SOL    HW2 4317   1.588   0.292  10.126
 1253SOL     OW 4318   0.044   1.053   9.552
 1253SOL    HW1 4319   0.137   1.037   9.543
 1253SOL    HW2 4320   0.009   0.975   9.594
 1254SOL     OW 4321   0.881   1.650   9.654
 1254SOL    HW1 4322   0.810   1.632   9.593
 1254SOL    HW2 4323   0.852   1.726   9.704
 1255SOL     OW 4324   0.232   0.623  11.292
 1255SOL    HW1 4325   0.139   0.630  11.314
 1255SOL    HW2 4326   0.233   0.595  11.201
 1256SOL     OW 4327   0.226   0.285  12.156
 1256SOL    HW1 4328   0.250   0.251  12.242
 1256SOL    HW2 4329   0.133   0.263  12.147
 1257SOL     OW 4330   0.017   0.388  11.805
 1257SOL    HW1 4331   3.931   0.397  11.846
 1257SOL    HW2 4332   0.024   0.296  11.783
 1258SOL     OW 4333   0.574   1.279  12.351
 1258SOL    HW1 4334   0.487   1.284  12.311
 1258SOL    HW2 4335   0.590   1.367  12.385
 1259SOL     OW 4336   1.559   1.513  11.879
 1259SOL    HW1 4337   1.515   1.496  11.962
 1259SOL    HW2 4338   1.488   1.519  11.815
 1260SOL     OW 4339   1.131   0.699  11.876
 1260SOL    HW1 4340   1.180   0.780  11.861
 1260SOL    HW2 4341   1.083   0.714  11.958
 1261SOL     OW 4342   1.757   0.617  11.402
 1261SOL    HW1 4343   1.742   0.607  11.308
 1261SOL    HW2 4344   1.750   0.528  11.437
 1262SOL     OW 4345   0.760   1.144  12.209
 1262SOL    HW1 4346   0.691   1.176  12.267
 1262SOL    HW2 4347   0.793   1.222  12.164
 1263SOL     OW 4348   0.862   0.781  12.994
 1263SOL    HW1 4349   0.852   0.854  13.055
 1263SOL    HW2 4350   0.886   0.823  12.911
 1264SOL     OW 4351   0.687   1.008  11.821
 1264SOL    HW1 4352   0.750   0.992  11.891
 1264SOL    HW2 4353   0.616   1.057  11.864
 1265SOL     OW 4354   0.707   1.151  12.982
 1265SOL    HW1 4355   0.755   1.230  13.006
 1265SOL    HW2 4356   0.624   1.183  12.948
 1266SOL     OW 4357   0.351   1.405  12.251
 1266SOL    HW1 4358   0.269   1.388  12.204
 1266SOL    HW2 4359   0.399   1.464  12.194
 1267SOL     OW 4360   1.462   1.499  12.522
 1267SOL    HW1 4361   1.507   1.583  12.532
 1267SOL    HW2 4362   1.408   1.491  12.601
 1268SOL     OW 4363   0.451   0.406  12.673
 1268SOL    HW1 4364   0.530   0.353  12.668
 1268SOL    HW2 4365   0.379   0.342  12.674
 1269SOL     OW 4366   1.613   0.451  11.908
 1269SOL    HW1 4367   1.539   0.482  11.855
 1269SOL    HW2 4368   1.638   0.526  11.961
 1270SOL     OW 4369   0.224   1.716  11.634
 1270SOL    HW1 4370   0.243   1.791  11.690
 1270SOL    HW2 4371   0.301   1.709  11.577
 1271SOL     OW 4372   1.136   1.341  12.863
 1271SOL    HW1 4373   1.176   1.337  12.950
 1271SOL    HW2 4374   1.083   1.261  12.858
 1272SOL     OW 4375   0.243   1.446  11.710
 1272SOL    HW1 4376   0.214   1.536  11.700
 1272SOL    HW2 4377   0.175   1.404  11.763
 1273SOL     OW 4378   0.246   1.072  12.057
 1273SOL    HW1 4379   0.263   0.988  12.101
 1273SOL    HW2 4380   0.194   1.122  12.120
 1274SOL     OW 4381   0.615   1.790  12.604
 1274SOL    HW1 4382   0.532   1.773  12.648
 1274SOL    HW2 4383   0.637   1.880  12.628
 1275SOL     OW 4384   0.585   0.981  11.306
 1275SOL    HW1 4385   0.629   1.031  11.237
 1275SOL    HW2 4386   0.629   1.009  11.386
 1276SOL     OW 4387   1.577   0.133  12.630
 1276SOL    HW1 4388   1.599   0.208  12.575
 1276SOL    HW2 4389   1.559   0.172  12.716
 1277SOL     OW 4390   0.137   0.647  11.741
 1277SOL    HW1 4391   0.092   0.563  11.748
 1277SOL    HW2 4392   0.102   0.698  11.814
 1278SOL     OW 4393   0.043   1.591  11.312
 1278SOL    HW1 4394   0.030   1.499  11.332
 1278SOL    HW2 4395   3.966   1.635  11.350
 1279SOL     OW 4396   1.688   0.917  11.808
 1279SOL    HW1 4397   1.774   0.880  11.793
 1279SOL    HW2 4398   1.669   0.969  11.730
 1280SOL     OW 4399   1.645   1.108  11.602
 1280SOL    HW1 4400   1.731   1.116  11.559
 1280SOL    HW2 4401   1.650   1.169  11.676
 1281SOL     OW 4402   0.131   0.751  12.764
 1281SOL    HW1 4403   0.226   0.746  12.772
 1281SOL    HW2 4404   0.112   0.845  12.772
 1282SOL     OW 4405   0.611   1.382  11.907
 1282SOL    HW1 4406   0.566   1.299  11.916
 1282SOL    HW2 4407   0.596   1.409  11.817
 1283SOL     OW 4408   1.290   1.239  12.596
 1283SOL    HW1 4409   1.323   1.171  12.537
 1283SOL    HW2 4410   1.346   1.231  12.674
 1284SOL     OW 4411   0.815   0.001  11.685
 1284SOL    HW1 4412   0.860   0.083  11.666
 1284SOL    HW2 4413   0.722   0.024  11.688
 1285SOL     OW 4414   0.187   0.957  12.446
 1285SOL    HW1 4415   0.275   0.922  12.431
 1285SOL    HW2 4416   0.131   0.908  12.385
 1286SOL     OW 4417   1.532   0.992  11.368
 1286SOL    HW1 4418   1.462   0.934  11.399
 1286SOL    HW2 4419   1.572   1.025  11.449
 1287SOL     OW 4420   1.185   1.804  12.792
 1287SOL    HW1 4421   1.201   1.861  12.717
 1287SOL    HW2 4422   1.200   1.715  12.758
 1288SOL     OW 4423   0.337   0.254  12.990
 1288SOL    HW1 4424   0.384   0.337  12.981
 1288SOL    HW2 4425   0.248   0.280  13.014
 1289SOL     OW 4426   1.464   1.420  12.125
 1289SOL    HW1 4427   1.396   1.434  12.191
 1289SOL    HW2 4428   1.453   1.329  12.097
 1290SOL     OW 4429   1.668   1.726  11.732
 1290SOL    HW1 4430   1.628   1.691  11.653
 1290SOL    HW2 4431   1.647   1.661  11.800
 1291SOL     OW 4432   0.595   0.721  11.434
 1291SOL    HW1 4433   0.604   0.803  11.385
 1291SOL    HW2 4434   0.533   0.741  11.504
 1292SOL     OW 4435   1.277   0.361  12.112
 1292SOL    HW1 4436   1.190   0.321  12.116
 1292SOL    HW2 4437   1.334   0.300  12.159
 1293SOL     OW 4438   1.577   1.667  11.475
 1293SOL    HW1 4439   1.662   1.709  11.460
 1293SOL    HW2 4440   1.546   1.644  11.387
 1294SOL     OW 4441   0.795   0.615  12.627
 1294SOL    HW1 4442   0.765   0.592  12.715
 1294SOL    HW2 4443   0.753   0.552  12.570
 1295SOL     OW 4444   1.393   0.476  12.849
 1295SOL    HW1 4445   1.395   0.520  12.934
 1295SOL    HW2 4446   1.455   0.404  12.858
 1296SOL     OW 4447   0.958   0.889  12.753
 1296SOL    HW1 4448   1.012   0.817  12.719
 1296SOL    HW2 4449   0.910   0.921  12.677
 1297SOL     OW 4450   0.991   0.404  12.414
 1297SOL    HW1 4451   0.910   0.432  12.456
 1297SOL    HW2 4452   0.962   0.370  12.329
 1298SOL     OW 4453   1.050   0.699  11.599
 1298SOL    HW1 4454   1.064   0.691  11.693
 1298SOL    HW2 4455   0.968   0.651  11.583
 1299SOL     OW 4456   0.081   0.822  11.962
 1299SOL    HW1 4457   0.163   0.794  12.004
 1299SOL    HW2 4458   0.087   0.917  11.960
 1300SOL     OW 4459   0.129   1.851  12.744
 1300SOL    HW1 4460   0.136   1.819  12.833
 1300SOL    HW2 4461   0.037   1.840  12.721
 1301SOL     OW 4462   0.889   0.349  11.370
 1301SOL    HW1 4463   0.931   0.407  11.307
 1301SOL    HW2 4464   0.895   0.262  11.330
 1302SOL     OW 4465   1.712   0.577  13.000
 1302SOL    HW1 4466   1.674   0.652  12.956
 1302SOL    HW2 4467   1.735   0.516  12.929
 1303SOL     OW 4468   1.375   1.142  11.714
 1303SOL    HW1 4469   1.454   1.129  11.662
 1303SOL    HW2 4470   1.323   1.204  11.663
 1304SOL     OW 4471   0.557   0.195  12.055
 1304SOL    HW1 4472   0.560   0.214  12.149
 1304SOL    HW2 4473   0.548   0.281  12.013
 1305SOL     OW 4474   1.008   1.446  11.646
 1305SOL    HW1 4475   0.967   1.517  11.597
 1305SOL    HW2 4476   0.995   1.468  11.738
 1306SOL     OW 4477   0.364   1.810  12.036
 1306SOL    HW1 4478   0.428   1.739  12.039
 1306SOL    HW2 4479   0.415   1.889  12.050
 1307SOL     OW 4480   1.798   1.057  12.040
 1307SOL    HW1 4481   1.741   1.045  11.964
 1307SOL    HW2 4482   1.738   1.064  12.114
 1308SOL     OW 4483   1.227   1.540  12.685
 1308SOL    HW1 4484   1.214   1.466  12.744
 1308SOL    HW2 4485   1.168   1.523  12.612
 1309SOL     OW 4486   0.311   0.956  11.414
 1309SOL    HW1 4487   0.397   0.978  11.377
 1309SOL    HW2 4488   0.295   0.866  11.385
 1310SOL     OW 4489   1.475   0.739  11.902
 1310SOL    HW1 4490   1.466   0.695  11.986
 1310SOL    HW2 4491   1.552   0.795  11.913
 1311SOL     OW 4492   0.464   1.259  12.909
 1311SOL    HW1 4493   0.437   1.268  12.817
 1311SOL    HW2 4494   0.382   1.265  12.959
 1312SOL     OW 4495   1.121   1.777  11.404
 1312SOL    HW1 4496   1.049   1.734  11.451
 1312SOL    HW2 4497   1.142   1.717  11.332
 1313SOL     OW 4498   0.198   0.297  12.669
 1313SOL    HW1 4499   0.105   0.319  12.665
 1313SOL    HW2 4500   0.204   0.236  12.743
 1314SOL     OW 4501   1.628   1.378  11.259
 1314SOL    HW1 4502   1.589   1.463  11.242
 1314SOL    HW2 4503   1.559   1.315  11.240
 1315SOL     OW 4504   0.466   1.739  11.492
 1315SOL    HW1 4505   0.507   1.797  11.556
 1315SOL    HW2 4506   0.539   1.711  11.436
 1316SOL     OW 4507   1.434   0.155  11.579
 1316SOL    HW1 4508   1.397   0.091  11.517
 1316SOL    HW2 4509   1.516   0.114  11.608
 1317SOL     OW 4510   0.251   1.792  12.405
 1317SOL    HW1 4511   0.300   1.730  12.459
 1317SOL    HW2 4512   0.243   1.749  12.320
 1318SOL     OW 4513   0.938   1.698  12.073
 1318SOL    HW1 4514   1.016   1.646  12.092
 1318SOL    HW2 4515   0.893   1.649  12.004
 1319SOL     OW 4516   0.392   0.695  11.646
 1319SOL    HW1 4517   0.421   0.604  11.658
 1319SOL    HW2 4518   0.300   0.695  11.672
 1320SOL     OW 4519   1.533   0.233  12.898
 1320SOL    HW1 4520   1.535   0.256  12.991
 1320SOL    HW2 4521   1.496   0.145  12.895
 1321SOL     OW 4522   0.639   0.139  11.272
 1321SOL    HW1 4523   0.679   0.063  11.314
 1321SOL    HW2 4524   0.578   0.102  11.208
 1322SOL     OW 4525   0.779   0.282  12.933
 1322SOL    HW1 4526   0.841   0.209  12.943
 1322SOL    HW2 4527   0.716   0.269  13.004
 1323SOL     OW 4528   0.876   1.520  12.366
 1323SOL    HW1 4529   0.862   1.485  12.278
 1323SOL    HW2 4530   0.946   1.466  12.403
 1324SOL     OW 4531   1.343   0.587  12.603
 1324SOL    HW1 4532   1.372   0.557  12.689
 1324SOL    HW2 4533   1.376   0.676  12.595
 1325SOL     OW 4534   0.812   1.398  12.107
 1325SOL    HW1 4535   0.897   1.388  12.064
 1325SOL    HW2 4536   0.748   1.395  12.036
 1326SOL     OW 4537   0.928   0.510  12.075
 1326SOL    HW1 4538   0.905   0.502  11.983
 1326SOL    HW2 4539   0.958   0.423  12.100
 1327SOL     OW 4540   0.546   0.057  11.665
 1327SOL    HW1 4541   0.471   0.064  11.724
 1327SOL    HW2 4542   0.548   0.141  11.619
 1328SOL     OW 4543   1.428   1.197  11.213
 1328SOL    HW1 4544   1.459   1.122  11.263
 1328SOL    HW2 4545   1.342   1.217  11.250
 1329SOL     OW 4546   0.329   0.046  11.364
 1329SOL    HW1 4547   0.365   0.089  11.287
 1329SOL    HW2 4548   0.406   0.019  11.415
 1330SOL     OW 4549   0.936   0.245  11.638
 1330SOL    HW1 4550   0.908   0.288  11.557
 1330SOL    HW2 4551   1.032   0.246  11.634
 1331SOL     OW 4552   1.079   0.680  12.632
 1331SOL    HW1 4553   1.008   0.617  12.639
 1331SOL    HW2 4554   1.158   0.626  12.625
 1332SOL     OW 4555   1.224   1.570  11.966
 1332SOL    HW1 4556   1.243   1.637  11.901
 1332SOL    HW2 4557   1.293   1.580  12.032
 1333SOL     OW 4558   0.466   1.149  11.912
 1333SOL    HW1 4559   0.392   1.126  11.969
 1333SOL    HW2 4560   0.433   1.132  11.824
 1334SOL     OW 4561   1.270   1.795  11.776
 1334SOL    HW1 4562   1.313   1.858  11.718
 1334SOL    HW2 4563   1.206   1.847  11.825
 1335SOL     OW 4564   1.026   0.548  11.192
 1335SOL    HW1 4565   0.983   0.631  11.173
 1335SOL    HW2 4566   1.088   0.569  11.262
 1336SOL     OW 4567   0.078   0.569  12.565
 1336SOL    HW1 4568   0.167   0.553  12.533
 1336SOL    HW2 4569   0.088   0.640  12.628
 1337SOL     OW 4570   0.571   0.232  12.332
 1337SOL    HW1 4571   0.596   0.140  12.344
 1337SOL    HW2 4572   0.481   0.236  12.362
 1338SOL     OW 4573   0.872   0.462  11.811
 1338SOL    HW1 4574   0.821   0.513  11.750
 1338SOL    HW2 4575   0.889   0.379  11.766
 1339SOL     OW 4576   0.993   0.043  11.950
 1339SOL    HW1 4577   0.962   0.064  11.862
 1339SOL    HW2 4578   1.003   3.948  11.950
 1340SOL     OW 4579   1.436   1.163  12.030
 1340SOL    HW1 4580   1.368   1.095  12.027
 1340SOL    HW2 4581   1.460   1.178  11.939
 1341SOL     OW 4582   1.467   0.602  12.153
 1341SOL    HW1 4583   1.419   0.519  12.159
 1341SOL    HW2 4584   1.529   0.599  12.226
 1342SOL     OW 4585   1.848   0.821  11.554
 1342SOL    HW1 4586   1.903   0.767  11.612
 1342SOL    HW2 4587   1.815   0.760  11.488
 1343SOL     OW 4588   0.490   1.414  11.335
 1343SOL    HW1 4589   0.415   1.382  11.385
 1343SOL    HW2 4590   0.467   1.396  11.244
 1344SOL     OW 4591   1.667   1.265  11.821
 1344SOL    HW1 4592   1.762   1.269  11.833
 1344SOL    HW2 4593   1.637   1.354  11.842
 1345SOL     OW 4594   1.394   0.572  11.242
 1345SOL    HW1 4595   1.333   0.554  11.314
 1345SOL    HW2 4596   1.480   0.550  11.278
 1346SOL     OW 4597   0.557   0.269  11.494
 1346SOL    HW1 4598   0.594   0.227  11.417
 1346SOL    HW2 4599   0.529   0.355  11.464
 1347SOL     OW 4600   1.753   1.236  12.749
 1347SOL    HW1 4601   1.841   1.198  12.745
 1347SOL    HW2 4602   1.768   1.326  12.778
 1348SOL     OW 4603   1.061   1.353  12.507
 1348SOL    HW1 4604   0.986   1.322  12.558
 1348SOL    HW2 4605   1.137   1.312  12.548
 1349SOL     OW 4606   1.605   1.624  12.823
 1349SOL    HW1 4607   1.602   1.660  12.734
 1349SOL    HW2 4608   1.689   1.580  12.829
 1350SOL     OW 4609   1.125   1.201  12.279
 1350SOL    HW1 4610   1.067   1.240  12.345
 1350SOL    HW2 4611   1.091   1.232  12.195
 1351SOL     OW 4612   1.631   1.100  12.250
 1351SOL    HW1 4613   1.626   1.162  12.323
 1351SOL    HW2 4614   1.550   1.115  12.201
 1352SOL     OW 4615   0.914   0.108  12.575
 1352SOL    HW1 4616   0.934   0.085  12.484
 1352SOL    HW2 4617   0.994   0.151  12.606
 1353SOL     OW 4618   0.984   1.114  12.894
 1353SOL    HW1 4619   0.891   1.130  12.913
 1353SOL    HW2 4620   0.985   1.037  12.838
 1354SOL     OW 4621   0.707   1.060  11.543
 1354SOL    HW1 4622   0.694   1.046  11.637
 1354SOL    HW2 4623   0.784   1.007  11.522
 1355SOL     OW 4624   0.419   0.814  12.424
 1355SOL    HW1 4625   0.488   0.821  12.489
 1355SOL    HW2 4626   0.384   0.726  12.435
 1356SOL     OW 4627   1.267   0.376  12.447
 1356SOL    HW1 4628   1.301   0.453  12.491
 1356SOL    HW2 4629   1.181   0.403  12.414
 1357SOL     OW 4630   0.063   1.579  12.516
 1357SOL    HW1 4631   0.063   1.651  12.452
 1357SOL    HW2 4632   0.156   1.567  12.537
 1358SOL     OW 4633   0.377   1.102  11.660
 1358SOL    HW1 4634   0.367   1.179  11.603
 1358SOL    HW2 4635   0.374   1.028  11.600
 1359SOL     OW 4636   0.557   0.539  12.033
 1359SOL    HW1 4637   0.574   0.596  11.958
 1359SOL    HW2 4638   0.620   0.567  12.099
 1360SOL     OW 4639   1.248   1.348  11.561
 1360SOL    HW1 4640   1.303   1.419  11.593
 1360SOL    HW2 4641   1.160   1.368  11.595
 1361SOL     OW 4642   1.277   1.456  12.318
 1361SOL    HW1 4643   1.332   1.458  12.396
 1361SOL    HW2 4644   1.222   1.378  12.330
 1362SOL     OW 4645   1.580   0.631  11.654
 1362SOL    HW1 4646   1.541   0.693  11.715
 1362SOL    HW2 4647   1.627   0.685  11.591
 1363SOL     OW 4648   0.346   1.524  12.493
 1363SOL    HW1 4649   0.336   1.474  12.412
 1363SOL    HW2 4650   0.440   1.540  12.500
 1364SOL     OW 4651   0.411   0.741  12.773
 1364SOL    HW1 4652   0.471   0.788  12.715
 1364SOL    HW2 4653   0.452   0.656  12.787
 1365SOL     OW 4654   1.597   0.777  12.852
 1365SOL    HW1 4655   1.511   0.817  12.844
 1365SOL    HW2 4656   1.650   0.818  12.784
 1366SOL     OW 4657   1.021   0.119  12.949
 1366SOL    HW1 4658   1.051   0.198  12.905
 1366SOL    HW2 4659   1.016   0.054  12.879
 1367SOL     OW 4660   0.478   0.036  12.940
 1367SOL    HW1 4661   0.492   0.035  12.845
 1367SOL    HW2 4662   0.420   0.111  12.955
 1368SOL     OW 4663   0.583   0.872  12.203
 1368SOL    HW1 4664   0.613   0.964  12.201
 1368SOL    HW2 4665   0.526   0.868  12.280
 1369SOL     OW 4666   1.360   0.859  12.205
 1369SOL    HW1 4667   1.279   0.852  12.155
 1369SOL    HW2 4668   1.398   0.771  12.202
 1370SOL     OW 4669   1.207   0.533  11.438
 1370SOL    HW1 4670   1.215   0.454  11.491
 1370SOL    HW2 4671   1.164   0.596  11.496
 1371SOL     OW 4672   0.313   0.215  12.413
 1371SOL    HW1 4673   0.274   0.248  12.494
 1371SOL    HW2 4674   0.292   0.122  12.412
 1372SOL     OW 4675   0.055   1.304  12.452
 1372SOL    HW1 4676   0.089   1.266  12.532
 1372SOL    HW2 4677   0.050   1.398  12.470
 1373SOL     OW 4678   0.728   0.635  12.231
 1373SOL    HW1 4679   0.799   0.616  12.169
 1373SOL    HW2 4680   0.699   0.723  12.208
 1374SOL     OW 4681   1.733   0.958  13.023
 1374SOL    HW1 4682   1.685   0.904  12.961
 1374SOL    HW2 4683   1.673   0.970  13.097
 1375SOL     OW 4684   0.324   0.056  11.817
 1375SOL    HW1 4685   0.295   0.148  11.820
 1375SOL    HW2 4686   0.283   0.017  11.895
 1376SOL     OW 4687   1.597   0.384  11.555
 1376SOL    HW1 4688   1.582   0.317  11.622
 1376SOL    HW2 4689   1.578   0.467  11.600
 1377SOL     OW 4690   1.027   0.760  12.134
 1377SOL    HW1 4691   1.026   0.777  12.228
 1377SOL    HW2 4692   1.000   0.669  12.126
 1378SOL     OW 4693   0.982   1.566  12.887
 1378SOL    HW1 4694   0.967   1.610  12.803
 1378SOL    HW2 4695   1.025   1.484  12.862
 1379SOL     OW 4696   1.855   1.509  12.778
 1379SOL    HW1 4697   1.871   1.535  12.688
 1379SOL    HW2 4698   1.939   1.523  12.822
 1380SOL     OW 4699   0.351   0.918  12.975
 1380SOL    HW1 4700   0.430   0.939  13.023
 1380SOL    HW2 4701   0.378   0.854  12.910
 1381SOL     OW 4702   1.514   0.275  11.308
 1381SOL    HW1 4703   1.437   0.220  11.322
 1381SOL    HW2 4704   1.528   0.318  11.392
 1382SOL     OW 4705   1.294   0.827  11.205
 1382SOL    HW1 4706   1.336   0.741  11.207
 1382SOL    HW2 4707   1.325   0.866  11.123
 1383SOL     OW 4708   1.064   1.335  12.024
 1383SOL    HW1 4709   1.067   1.262  11.963
 1383SOL    HW2 4710   1.127   1.398  11.990
 1384SOL     OW 4711   0.314   0.808  12.124
 1384SOL    HW1 4712   0.408   0.825  12.117
 1384SOL    HW2 4713   0.307   0.718  12.156
 1385SOL     OW 4714   0.337   0.525  12.184
 1385SOL    HW1 4715   0.297   0.440  12.166
 1385SOL    HW2 4716   0.413   0.530  12.125
 1386SOL     OW 4717   1.134   0.384  12.861
 1386SOL    HW1 4718   1.088   0.439  12.924
 1386SOL    HW2 4719   1.222   0.421  12.856
 1387SOL     OW 4720   1.151   0.223  12.653
 1387SOL    HW1 4721   1.144   0.278  12.731
 1387SOL    HW2 4722   1.173   0.284  12.582
 1388SOL     OW 4723   3.999   1.321  11.354
 1388SOL    HW1 4724   3.905   1.337  11.359
 1388SOL    HW2 4725   0.009   1.228  11.375
 1389SOL     OW 4726   0.076   1.801  12.062
 1389SOL    HW1 4727   0.075   1.706  12.073
 1389SOL    HW2 4728   0.169   1.825  12.065
 1390SOL     OW 4729   0.504   1.570  12.081
 1390SOL    HW1 4730   0.574   1.632  12.106
 1390SOL    HW2 4731   0.548   1.505  12.026
 1391SOL     OW 4732   0.987   0.794  12.400
 1391SOL    HW1 4733   1.039   0.769  12.477
 1391SOL    HW2 4734   0.900   0.757  12.417
 1392SOL     OW 4735   0.037   0.563  12.285
 1392SOL    HW1 4736   0.105   0.517  12.236
 1392SOL    HW2 4737   0.062   0.552  12.377
 1393SOL     OW 4738   0.208   0.516  12.893
 1393SOL    HW1 4739   0.259   0.481  12.820
 1393SOL    HW2 4740   0.156   0.587  12.855
 1394SOL     OW 4741   1.376   0.941  12.831
 1394SOL    HW1 4742   1.397   1.035  12.831
 1394SOL    HW2 4743   1.374   0.917  12.739
 1395SOL     OW 4744   0.817   0.571  11.526
 1395SOL    HW1 4745   0.820   0.494  11.470
 1395SOL    HW2 4746   0.740   0.620  11.495
 1396SOL     OW 4747   1.642   0.601  12.361
 1396SOL    HW1 4748   1.632   0.540  12.434
 1396SOL    HW2 4749   1.730   0.582  12.326
 1397SOL     OW 4750   0.294   1.547  12.906
 1397SOL    HW1 4751   0.243   1.617  12.947
 1397SOL    HW2 4752   0.258   1.466  12.942
 1398SOL     OW 4753   0.696   0.459  12.435
 1398SOL    HW1 4754   0.650   0.379  12.407
 1398SOL    HW2 4755   0.692   0.516  12.358
 1399SOL     OW 4756   0.930   1.679  12.639
 1399SOL    HW1 4757   0.904   1.648  12.552
 1399SOL    HW2 4758   0.929   1.774  12.632
 1400SOL     OW 4759   0.461   0.492  11.365
 1400SOL    HW1 4760   0.524   0.562  11.382
 1400SOL    HW2 4761   0.379   0.538  11.348
 1401SOL     OW 4762   0.157   1.137  12.643
 1401SOL    HW1 4763   0.164   1.084  12.723
 1401SOL    HW2 4764   0.172   1.074  12.572
 1402SOL     OW 4765   1.329   1.049  12.397
 1402SOL    HW1 4766   1.353   0.986  12.329
 1402SOL    HW2 4767   1.256   1.098  12.359
 1403SOL     OW 4768   1.309   0.856  11.479
 1403SOL    HW1 4769   1.232   0.826  11.528
 1403SOL    HW2 4770   1.286   0.843  11.387
 1404SOL     OW 4771   1.745   1.741  12.311
 1404SOL    HW1 4772   1.818   1.764  12.254
 1404SOL    HW2 4773   1.730   1.648  12.295
 1405SOL     OW 4774   1.243   1.733  12.288
 1405SOL    HW1 4775   1.325   1.751  12.242
 1405SOL    HW2 4776   1.246   1.639  12.306
 1406SOL     OW 4777   0.076   1.218  12.198
 1406SOL    HW1 4778   0.082   1.243  12.291
 1406SOL    HW2 4779   3.982   1.223  12.178
 1407SOL     OW 4780   0.679   1.664  12.897
 1407SOL    HW1 4781   0.625   1.743  12.893
 1407SOL    HW2 4782   0.741   1.674  12.825
 1408SOL     OW 4783   1.708   0.130  11.657
 1408SOL    HW1 4784   1.790   0.132  11.607
 1408SOL    HW2 4785   1.698   0.039  11.684
 1409SOL     OW 4786   1.389   1.567  11.655
 1409SOL    HW1 4787   1.447   1.598  11.586
 1409SOL    HW2 4788   1.342   1.646  11.683
 1410SOL     OW 4789   0.169   1.769  13.001
 1410SOL    HW1 4790   0.110   1.722  13.058
 1410SOL    HW2 4791   0.213   1.832  13.058
 1411SOL     OW 4792   1.277   0.925  11.843
 1411SOL    HW1 4793   1.350   0.863  11.848
 1411SOL    HW2 4794   1.311   0.998  11.791
 1412SOL     OW 4795   0.818   1.272  12.604
 1412SOL    HW1 4796   0.792   1.311  12.687
 1412SOL    HW2 4797   0.747   1.292  12.544
 1413SOL     OW 4798   0.671   1.617  11.327
 1413SOL    HW1 4799   0.680   1.627  11.233
 1413SOL    HW2 4800   0.619   1.537  11.338
 1414SOL     OW 4801   1.632   1.727  12.564
 1414SOL    HW1 4802   1.676   1.735  12.479
 1414SOL    HW2 4803   1.620   1.818  12.593
 1415SOL     OW 4804   1.838   0.175  12.140
 1415SOL    HW1 4805   1.868   0.099  12.090
 1415SOL    HW2 4806   1.751   0.193  12.106
 1416SOL     OW 4807   0.271   0.324  11.888
 1416SOL    HW1 4808   0.186   0.360  11.863
 1416SOL    HW2 4809   0.263   0.306  11.981
 1417SOL     OW 4810   1.205   1.608  11.203
 1417SOL    HW1 4811   1.197   1.516  11.230
 1417SOL    HW2 4812   1.141   1.618  11.133
 1418SOL     OW 4813   0.824   1.005  12.544
 1418SOL    HW1 4814   0.867   1.002  12.458
 1418SOL    HW2 4815   0.825   1.098  12.568
 1419SOL     OW 4816   0.915   0.910  11.461
 1419SOL    HW1 4817   0.977   0.942  11.396
 1419SOL    HW2 4818   0.961   0.839  11.506
 1420SOL     OW 4819   1.493   1.623  11.213
 1420SOL    HW1 4820   1.398   1.621  11.200
 1420SOL    HW2 4821   1.529   1.630  11.125
 1421SOL     OW 4822   0.372   1.302  12.664
 1421SOL    HW1 4823   0.358   1.382  12.614
 1421SOL    HW2 4824   0.295   1.248  12.645
 1422SOL     OW 4825   1.611   1.282  12.454
 1422SOL    HW1 4826   1.671   1.276  12.527
 1422SOL    HW2 4827   1.551   1.353  12.478
 1423SOL     OW 4828   1.048   1.105  11.877
 1423SOL    HW1 4829   0.978   1.054  11.917
 1423SOL    HW2 4830   1.109   1.040  11.843
 1424SOL     OW 4831   1.015   0.246  12.139
 1424SOL    HW1 4832   1.004   0.197  12.057
 1424SOL    HW2 4833   1.007   0.180  12.208
 1425SOL     OW 4834   0.602   1.489  11.655
 1425SOL    HW1 4835   0.643   1.438  11.585
 1425SOL    HW2 4836   0.536   1.542  11.611
 1426SOL     OW 4837   1.718   0.390  12.548
 1426SOL    HW1 4838   1.789   0.455  12.549
 1426SOL    HW2 4839   1.751   0.319  12.493
 1427SOL     OW 4840   0.252   1.343  11.462
 1427SOL    HW1 4841   0.159   1.354  11.441
 1427SOL    HW2 4842   0.262   1.381  11.549
 1428SOL     OW 4843   0.105   1.002  12.891
 1428SOL    HW1 4844   0.043   0.989  12.963
 1428SOL    HW2 4845   0.190   0.980  12.929
 1429SOL     OW 4846   0.692   0.239  12.666
 1429SOL    HW1 4847   0.763   0.188  12.626
 1429SOL    HW2 4848   0.716   0.244  12.759
 1430SOL     OW 4849   0.087   0.328  11.200
 1430SOL    HW1 4850   3.992   0.322  11.197
 1430SOL    HW2 4851   0.108   0.410  11.155
 1431SOL     OW 4852   1.431   0.858  12.573
 1431SOL    HW1 4853   1.383   0.918  12.516
 1431SOL    HW2 4854   1.521   0.861  12.541
 1432SOL     OW 4855   0.040   0.160  11.454
 1432SOL    HW1 4856   0.039   0.247  11.413
 1432SOL    HW2 4857   0.122   0.158  11.504
 1433SOL     OW 4858   1.180   1.342  11.289
 1433SOL    HW1 4859   1.089   1.312  11.292
 1433SOL    HW2 4860   1.209   1.341  11.380
 1434SOL     OW 4861   0.618   0.831  12.606
 1434SOL    HW1 4862   0.674   0.907  12.591
 1434SOL    HW2 4863   0.679   0.757  12.614
 1435SOL     OW 4864   1.489   1.776  12.148
 1435SOL    HW1 4865   1.515   1.837  12.079
 1435SOL    HW2 4866   1.569   1.761  12.198
 1436SOL     OW 4867   0.716   0.565  12.880
 1436SOL    HW1 4868   0.755   0.628  12.940
 1436SOL    HW2 4869   0.752   0.481  12.907
 1437SOL     OW 4870   1.468   1.203  12.805
 1437SOL    HW1 4871   1.457   1.216  12.899
 1437SOL    HW2 4872   1.562   1.215  12.790
 1438SOL     OW 4873   0.382   1.741  12.732
 1438SOL    HW1 4874   0.294   1.778  12.719
 1438SOL    HW2 4875   0.366   1.660  12.780
 1439SOL     OW 4876   1.671   0.882  12.428
 1439SOL    HW1 4877   1.664   0.797  12.385
 1439SOL    HW2 4878   1.663   0.946  12.357
 1440SOL     OW 4879   1.225   0.331  11.620
 1440SOL    HW1 4880   1.291   0.263  11.611
 1440SOL    HW2 4881   1.248   0.377  11.700
 1441SOL     OW 4882   0.592   0.741  11.839
 1441SOL    HW1 4883   0.630   0.827  11.821
 1441SOL    HW2 4884   0.521   0.733  11.775
 1442SOL     OW 4885   1.757   0.377  12.816
 1442SOL    HW1 4886   1.740   0.382  12.722
 1442SOL    HW2 4887   1.697   0.310  12.847
 1443SOL     OW 4888   1.742   0.934  12.685
 1443SOL    HW1 4889   1.746   1.029  12.698
 1443SOL    HW2 4890   1.728   0.923  12.591
 1444SOL     OW 4891   0.862   1.368  11.202
 1444SOL    HW1 4892   0.823   1.395  11.285
 1444SOL    HW2 4893   0.882   1.451  11.157
 1445SOL     OW 4894   0.659   1.793  12.119
 1445SOL    HW1 4895   0.638   1.883  12.096
 1445SOL    HW2 4896   0.754   1.788  12.112
 1446SOL     OW 4897   0.866   0.964  12.028
 1446SOL    HW1 4898   0.917   0.894  12.069
 1446SOL    HW2 4899   0.833   1.016  12.101
 1447SOL     OW 4900   1.080   0.988  11.260
 1447SOL    HW1 4901   1.058   1.038  11.182
 1447SOL    HW2 4902   1.155   0.935  11.235
 1448SOL     OW 4903   1.850   1.543  12.003
 1448SOL    HW1 4904   1.766   1.539  11.959
 1448SOL    HW2 4905   1.841   1.484  12.078
 1449SOL     OW 4906   0.222   1.304  13.027
 1449SOL    HW1 4907   0.152   1.243  13.002
 1449SOL    HW2 4908   0.210   1.318  13.120
 1450SOL     OW 4909   0.111   1.271  11.886
 1450SOL    HW1 4910   0.113   1.218  11.965
 1450SOL    HW2 4911   0.116   1.208  11.814
 1451SOL     OW 4912   0.679   1.400  12.798
 1451SOL    HW1 4913   0.599   1.357  12.828
 1451SOL    HW2 4914   0.674   1.489  12.835
 1452SOL     OW 4915   1.813   0.184  12.411
 1452SOL    HW1 4916   1.816   0.090  12.425
 1452SOL    HW2 4917   1.827   0.196  12.317
 1453SOL     OW 4918   0.440   0.435  11.701
 1453SOL    HW1 4919   0.452   0.361  11.642
 1453SOL    HW2 4920   0.386   0.401  11.772
 1454SOL     OW 4921   1.703   1.482  12.268
 1454SOL    HW1 4922   1.620   1.460  12.227
 1454SOL    HW2 4923   1.716   1.416  12.335
 1455SOL     OW 4924   0.329   0.553  12.463
 1455SOL    HW1 4925   0.385   0.496  12.516
 1455SOL    HW2 4926   0.346   0.526  12.373
 1456SOL     OW 4927   0.825   1.578  11.852
 1456SOL    HW1 4928   0.820   1.625  11.768
 1456SOL    HW2 4929   0.746   1.523  11.853
 1457SOL     OW 4930   1.460   0.249  12.284
 1457SOL    HW1 4931   1.477   0.163  12.321
 1457SOL    HW2 4932   1.401   0.291  12.347
 1458SOL     OW 4933   1.007   0.030  12.320
 1458SOL    HW1 4934   0.933   3.976  12.292
 1458SOL    HW2 4935   1.081   3.970  12.326
 1459SOL     OW 4936   0.771   1.332  11.483
 1459SOL    HW1 4937   0.738   1.242  11.489
 1459SOL    HW2 4938   0.854   1.330  11.531
 1460SOL     OW 4939   0.619   1.559  12.455
 1460SOL    HW1 4940   0.623   1.640  12.507
 1460SOL    HW2 4941   0.707   1.551  12.418
 1461SOL     OW 4942   1.317   0.074  11.336
 1461SOL    HW1 4943   1.340   0.010  11.268
 1461SOL    HW2 4944   1.233   0.043  11.370
 1462SOL     OW 4945   1.287   0.458  11.860
 1462SOL    HW1 4946   1.238   0.540  11.859
 1462SOL    HW2 4947   1.292   0.435  11.953
 1463SOL     OW 4948   1.589   0.211  12.040
 1463SOL    HW1 4949   1.536   0.231  12.117
 1463SOL    HW2 4950   1.588   0.292  11.988
 1464SOL     OW 4951   0.044   1.053  11.414
 1464SOL    HW1 4952   0.137   1.037  11.406
 1464SOL    HW2 4953   0.009   0.975  11.456
 1465SOL     OW 4954   0.881   1.650  11.516
 1465SOL    HW1 4955   0.810   1.632  11.455
 1465SOL    HW2 4956   0.852   1.726  11.566
 1466SOL     OW 4957   0.231   0.623  13.155
 1466SOL    HW1 4958   0.138   0.629  13.175
 1466SOL    HW2 4959   0.234   0.595  13.063
 1467SOL     OW 4960   0.277   0.250   0.148
 1467SOL    HW1 4961   0.311   0.308   0.216
 1467SOL    HW2 4962   0.198   0.294   0.116
 1468SOL     OW 4963   0.014   0.386  13.666
 1468SOL    HW1 4964   3.919   0.400  13.661
 1468SOL    HW2 4965   0.027   0.299  13.629
 1469SOL     OW 4966   1.536   1.504  13.723
 1469SOL    HW1 4967   1.477   1.453  13.779
 1469SOL    HW2 4968   1.486   1.518  13.642
 1470SOL     OW 4969   1.128   0.703  13.738
 1470SOL    HW1 4970   1.183   0.775  13.708
 1470SOL    HW2 4971   1.080   0.739  13.813
 1471SOL     OW 4972   1.758   0.616  13.264
 1471SOL    HW1 4973   1.742   0.608  13.170
 1471SOL    HW2 4974   1.751   0.527  13.297
 1472SOL     OW 4975   0.686   1.012  13.675
 1472SOL    HW1 4976   0.742   0.989  13.750
 1472SOL    HW2 4977   0.613   1.060  13.714
 1473SOL     OW 4978   1.619   0.456  13.767
 1473SOL    HW1 4979   1.539   0.479  13.719
 1473SOL    HW2 4980   1.648   0.538  13.806
 1474SOL     OW 4981   0.222   1.714  13.490
 1474SOL    HW1 4982   0.239   1.788  13.549
 1474SOL    HW2 4983   0.301   1.707  13.437
 1475SOL     OW 4984   0.242   1.444  13.571
 1475SOL    HW1 4985   0.214   1.535  13.563
 1475SOL    HW2 4986   0.177   1.403  13.628
 1476SOL     OW 4987   0.247   1.080   0.020
 1476SOL    HW1 4988   0.269   1.031   0.099
 1476SOL    HW2 4989   0.205   1.160   0.052
 1477SOL     OW 4990   0.585   0.981  13.167
 1477SOL    HW1 4991   0.629   1.031  13.098
 1477SOL    HW2 4992   0.629   1.009  13.248
 1478SOL     OW 4993   0.144   0.644  13.611
 1478SOL    HW1 4994   0.082   0.571  13.602
 1478SOL    HW2 4995   0.099   0.705  13.669
 1479SOL     OW 4996   0.042   1.592  13.174
 1479SOL    HW1 4997   0.030   1.499  13.194
 1479SOL    HW2 4998   3.967   1.635  13.215
 1480SOL     OW 4999   1.687   0.915  13.666
 1480SOL    HW1 5000   1.776   0.883  13.649
 1480SOL    HW2 5001   1.666   0.970  13.591
 1481SOL     OW 5002   1.645   1.107  13.462
 1481SOL    HW1 5003   1.730   1.114  13.418
 1481SOL    HW2 5004   1.650   1.167  13.536
 1482SOL     OW 5005   0.607   1.386  13.765
 1482SOL    HW1 5006   0.562   1.302  13.777
 1482SOL    HW2 5007   0.585   1.412  13.675
 1483SOL     OW 5008   0.815   0.000  13.549
 1483SOL    HW1 5009   0.860   0.082  13.527
 1483SOL    HW2 5010   0.722   0.023  13.549
 1484SOL     OW 5011   1.532   0.991  13.231
 1484SOL    HW1 5012   1.462   0.933  13.261
 1484SOL    HW2 5013   1.571   1.026  13.311
 1485SOL     OW 5014   1.667   1.728  13.596
 1485SOL    HW1 5015   1.627   1.695  13.516
 1485SOL    HW2 5016   1.659   1.656  13.658
 1486SOL     OW 5017   0.595   0.721  13.295
 1486SOL    HW1 5018   0.604   0.803  13.246
 1486SOL    HW2 5019   0.532   0.742  13.365
 1487SOL     OW 5020   1.258   0.333   0.058
 1487SOL    HW1 5021   1.166   0.316   0.078
 1487SOL    HW2 5022   1.306   0.298   0.132
 1488SOL     OW 5023   1.578   1.669  13.337
 1488SOL    HW1 5024   1.663   1.709  13.320
 1488SOL    HW2 5025   1.546   1.644  13.250
 1489SOL     OW 5026   1.048   0.698  13.461
 1489SOL    HW1 5027   1.061   0.687  13.555
 1489SOL    HW2 5028   0.967   0.650  13.442
 1490SOL     OW 5029   0.081   0.829  13.810
 1490SOL    HW1 5030   0.167   0.811  13.847
 1490SOL    HW2 5031   0.074   0.925  13.810
 1491SOL     OW 5032   0.888   0.349  13.231
 1491SOL    HW1 5033   0.931   0.408  13.168
 1491SOL    HW2 5034   0.897   0.262  13.192
 1492SOL     OW 5035   1.365   1.136  13.560
 1492SOL    HW1 5036   1.453   1.133  13.524
 1492SOL    HW2 5037   1.321   1.207  13.512
 1493SOL     OW 5038   1.008   1.445  13.506
 1493SOL    HW1 5039   0.968   1.517  13.458
 1493SOL    HW2 5040   0.983   1.460  13.597
 1494SOL     OW 5041   0.391   1.791  13.860
 1494SOL    HW1 5042   0.440   1.712  13.878
 1494SOL    HW2 5043   0.448   1.863  13.888
 1495SOL     OW 5044   1.792   1.055  13.899
 1495SOL    HW1 5045   1.731   1.049  13.825
 1495SOL    HW2 5046   1.736   1.055   0.077
 1496SOL     OW 5047   0.311   0.955  13.277
 1496SOL    HW1 5048   0.396   0.979  13.240
 1496SOL    HW2 5049   0.296   0.866  13.246
 1497SOL     OW 5050   1.483   0.733  13.751
 1497SOL    HW1 5051   1.469   0.686  13.832
 1497SOL    HW2 5052   1.555   0.794  13.770
 1498SOL     OW 5053   1.121   1.777  13.266
 1498SOL    HW1 5054   1.049   1.734  13.313
 1498SOL    HW2 5055   1.142   1.717  13.194
 1499SOL     OW 5056   1.628   1.378  13.121
 1499SOL    HW1 5057   1.589   1.463  13.104
 1499SOL    HW2 5058   1.559   1.315  13.102
 1500SOL     OW 5059   0.467   1.740  13.353
 1500SOL    HW1 5060   0.507   1.797  13.419
 1500SOL    HW2 5061   0.540   1.711  13.298
 1501SOL     OW 5062   1.428   0.146  13.449
 1501SOL    HW1 5063   1.396   0.097  13.374
 1501SOL    HW2 5064   1.521   0.125  13.455
 1502SOL     OW 5065   0.928   1.693   0.016
 1502SOL    HW1 5066   0.974   1.627   0.068
 1502SOL    HW2 5067   0.883   1.643  13.848
 1503SOL     OW 5068   0.393   0.696  13.507
 1503SOL    HW1 5069   0.423   0.606  13.518
 1503SOL    HW2 5070   0.302   0.695  13.535
 1504SOL     OW 5071   0.639   0.139  13.134
 1504SOL    HW1 5072   0.680   0.063  13.175
 1504SOL    HW2 5073   0.578   0.102  13.070
 1505SOL     OW 5074   0.549   0.058  13.529
 1505SOL    HW1 5075   0.469   0.062  13.582
 1505SOL    HW2 5076   0.549   0.140  13.480
 1506SOL     OW 5077   1.428   1.197  13.075
 1506SOL    HW1 5078   1.459   1.122  13.125
 1506SOL    HW2 5079   1.342   1.217  13.113
 1507SOL     OW 5080   0.329   0.055  13.229
 1507SOL    HW1 5081   0.364   0.091  13.147
 1507SOL    HW2 5082   0.405   0.015  13.271
 1508SOL     OW 5083   0.936   0.242  13.498
 1508SOL    HW1 5084   0.907   0.289  13.420
 1508SOL    HW2 5085   1.031   0.247  13.495
 1509SOL     OW 5086   0.467   1.143  13.775
 1509SOL    HW1 5087   0.392   1.125  13.831
 1509SOL    HW2 5088   0.435   1.130  13.686
 1510SOL     OW 5089   1.272   1.797  13.634
 1510SOL    HW1 5090   1.312   1.864  13.577
 1510SOL    HW2 5091   1.205   1.844  13.683
 1511SOL     OW 5092   1.026   0.548  13.055
 1511SOL    HW1 5093   0.983   0.631  13.035
 1511SOL    HW2 5094   1.089   0.569  13.124
 1512SOL     OW 5095   0.890   0.473  13.664
 1512SOL    HW1 5096   0.819   0.514  13.615
 1512SOL    HW2 5097   0.894   0.383  13.631
 1513SOL     OW 5098   0.999   0.040  13.799
 1513SOL    HW1 5099   0.969   0.061  13.711
 1513SOL    HW2 5100   1.018   3.946  13.796
 1514SOL     OW 5101   1.850   0.821  13.415
 1514SOL    HW1 5102   1.905   0.767  13.471
 1514SOL    HW2 5103   1.816   0.760  13.349
 1515SOL     OW 5104   0.490   1.413  13.198
 1515SOL    HW1 5105   0.415   1.382  13.248
 1515SOL    HW2 5106   0.467   1.397  13.106
 1516SOL     OW 5107   1.676   1.268  13.670
 1516SOL    HW1 5108   1.769   1.271  13.693
 1516SOL    HW2 5109   1.640   1.350  13.703
 1517SOL     OW 5110   1.394   0.572  13.104
 1517SOL    HW1 5111   1.333   0.554  13.176
 1517SOL    HW2 5112   1.480   0.550  13.139
 1518SOL     OW 5113   0.555   0.269  13.357
 1518SOL    HW1 5114   0.592   0.225  13.280
 1518SOL    HW2 5115   0.529   0.355  13.325
 1519SOL     OW 5116   0.707   1.060  13.403
 1519SOL    HW1 5117   0.693   1.048  13.497
 1519SOL    HW2 5118   0.784   1.007  13.383
 1520SOL     OW 5119   0.381   1.102  13.522
 1520SOL    HW1 5120   0.367   1.180  13.468
 1520SOL    HW2 5121   0.374   1.029  13.461
 1521SOL     OW 5122   0.571   0.540  13.865
 1521SOL    HW1 5123   0.586   0.611  13.802
 1521SOL    HW2 5124   0.621   0.567   0.042
 1522SOL     OW 5125   1.247   1.349  13.420
 1522SOL    HW1 5126   1.302   1.421  13.450
 1522SOL    HW2 5127   1.160   1.368  13.455
 1523SOL     OW 5128   1.586   0.630  13.514
 1523SOL    HW1 5129   1.546   0.689  13.577
 1523SOL    HW2 5130   1.627   0.687  13.449
 1524SOL     OW 5131   1.207   0.532  13.300
 1524SOL    HW1 5132   1.214   0.452  13.353
 1524SOL    HW2 5133   1.163   0.595  13.358
 1525SOL     OW 5134   0.325   0.052  13.675
 1525SOL    HW1 5135   0.302   0.144  13.683
 1525SOL    HW2 5136   0.274   0.008  13.743
 1526SOL     OW 5137   1.583   0.385  13.412
 1526SOL    HW1 5138   1.589   0.319  13.481
 1526SOL    HW2 5139   1.575   0.468  13.459
 1527SOL     OW 5140   1.514   0.276  13.168
 1527SOL    HW1 5141   1.438   0.220  13.183
 1527SOL    HW2 5142   1.528   0.320  13.252
 1528SOL     OW 5143   1.294   0.827  13.066
 1528SOL    HW1 5144   1.336   0.742  13.069
 1528SOL    HW2 5145   1.325   0.866  12.985
 1529SOL     OW 5146   3.999   1.322  13.216
 1529SOL    HW1 5147   3.905   1.338  13.220
 1529SOL    HW2 5148   0.009   1.229  13.236
 1530SOL     OW 5149   0.817   0.573  13.384
 1530SOL    HW1 5150   0.819   0.494  13.330
 1530SOL    HW2 5151   0.739   0.620  13.354
 1531SOL     OW 5152   0.460   0.492  13.228
 1531SOL    HW1 5153   0.524   0.562  13.244
 1531SOL    HW2 5154   0.378   0.539  13.210
 1532SOL     OW 5155   1.310   0.852  13.341
 1532SOL    HW1 5156   1.230   0.828  13.388
 1532SOL    HW2 5157   1.287   0.842  13.248
 1533SOL     OW 5158   1.697   0.128  13.477
 1533SOL    HW1 5159   1.791   0.130  13.457
 1533SOL    HW2 5160   1.690   0.065  13.548
 1534SOL     OW 5161   1.384   1.570  13.509
 1534SOL    HW1 5162   1.442   1.604  13.441
 1534SOL    HW2 5163   1.339   1.648  13.543
 1535SOL     OW 5164   1.285   0.916  13.688
 1535SOL    HW1 5165   1.362   0.861  13.673
 1535SOL    HW2 5166   1.308   1.000  13.649
 1536SOL     OW 5167   0.671   1.616  13.189
 1536SOL    HW1 5168   0.680   1.627  13.095
 1536SOL    HW2 5169   0.618   1.537  13.200
 1537SOL     OW 5170   1.834   0.162   0.062
 1537SOL    HW1 5171   1.871   0.074   0.051
 1537SOL    HW2 5172   1.739   0.149   0.054
 1538SOL     OW 5173   0.278   0.309  13.743
 1538SOL    HW1 5174   0.198   0.354  13.717
 1538SOL    HW2 5175   0.283   0.320  13.838
 1539SOL     OW 5176   1.206   1.608  13.065
 1539SOL    HW1 5177   1.197   1.516  13.092
 1539SOL    HW2 5178   1.141   1.618  12.995
 1540SOL     OW 5179   0.917   0.912  13.326
 1540SOL    HW1 5180   0.977   0.942  13.258
 1540SOL    HW2 5181   0.961   0.837  13.367
 1541SOL     OW 5182   1.493   1.623  13.075
 1541SOL    HW1 5183   1.398   1.621  13.062
 1541SOL    HW2 5184   1.529   1.630  12.987
 1542SOL     OW 5185   1.049   1.091  13.752
 1542SOL    HW1 5186   0.962   1.051  13.751
 1542SOL    HW2 5187   1.098   1.044  13.685
 1543SOL     OW 5188   0.601   1.491  13.512
 1543SOL    HW1 5189   0.641   1.439  13.442
 1543SOL    HW2 5190   0.534   1.543  13.468
 1544SOL     OW 5191   0.252   1.342  13.324
 1544SOL    HW1 5192   0.159   1.354  13.302
 1544SOL    HW2 5193   0.261   1.381  13.411
 1545SOL     OW 5194   0.087   0.328  13.062
 1545SOL    HW1 5195   3.992   0.322  13.059
 1545SOL    HW2 5196   0.108   0.410  13.016
 1546SOL     OW 5197   0.042   0.161  13.309
 1546SOL    HW1 5198   0.045   0.247  13.268
 1546SOL    HW2 5199   0.125   0.154  13.357
 1547SOL     OW 5200   1.180   1.341  13.150
 1547SOL    HW1 5201   1.089   1.312  13.154
 1547SOL    HW2 5202   1.209   1.341  13.241
 1548SOL     OW 5203   1.224   0.328  13.485
 1548SOL    HW1 5204   1.292   0.261  13.474
 1548SOL    HW2 5205   1.252   0.378  13.561
 1549SOL     OW 5206   0.594   0.750  13.693
 1549SOL    HW1 5207   0.629   0.837  13.673
 1549SOL    HW2 5208   0.522   0.738  13.631
 1550SOL     OW 5209   0.862   1.368  13.064
 1550SOL    HW1 5210   0.823   1.395  13.147
 1550SOL    HW2 5211   0.882   1.451  13.019
 1551SOL     OW 5212   0.653   1.840   0.063
 1551SOL    HW1 5213   0.658   1.936   0.054
 1551SOL    HW2 5214   0.743   1.812   0.077
 1552SOL     OW 5215   0.836   0.960  13.892
 1552SOL    HW1 5216   0.881   0.888   0.035
 1552SOL    HW2 5217   0.836   1.030   0.057
 1553SOL     OW 5218   1.079   0.987  13.122
 1553SOL    HW1 5219   1.058   1.038  13.044
 1553SOL    HW2 5220   1.155   0.935  13.097
 1554SOL     OW 5221   0.112   1.268  13.748
 1554SOL    HW1 5222   0.062   1.216  13.810
 1554SOL    HW2 5223   0.129   1.209  13.675
 1555SOL     OW 5224   0.441   0.437  13.558
 1555SOL    HW1 5225   0.456   0.363  13.499
 1555SOL    HW2 5226   0.397   0.399  13.634
 1556SOL     OW 5227   1.695   1.492   0.318
 1556SOL    HW1 5228   1.658   1.453   0.239
 1556SOL    HW2 5229   1.758   1.428   0.349
 1557SOL     OW 5230   0.821   1.557  13.714
 1557SOL    HW1 5231   0.808   1.609  13.635
 1557SOL    HW2 5232   0.740   1.506  13.723
 1558SOL     OW 5233   0.771   1.332  13.343
 1558SOL    HW1 5234   0.737   1.243  13.351
 1558SOL    HW2 5235   0.854   1.331  13.392
 1559SOL     OW 5236   1.317   0.076  13.202
 1559SOL    HW1 5237   1.346   0.014  13.135
 1559SOL    HW2 5238   1.233   0.042  13.233
 1560SOL     OW 5239   1.293   0.459  13.718
 1560SOL    HW1 5240   1.240   0.539  13.721
 1560SOL    HW2 5241   1.294   0.427  13.808
 1561SOL     OW 5242   0.043   1.053  13.274
 1561SOL    HW1 5243   0.137   1.037  13.267
 1561SOL    HW2 5244   0.008   0.975  13.317
 1562SOL     OW 5245   0.881   1.650  13.378
 1562SOL    HW1 5246   0.809   1.632  13.317
 1562SOL    HW2 5247   0.852   1.725  13.429
 1563SOL     OW 5248   0.234   2.503   0.121
 1563SOL    HW1 5249   0.140   2.501   0.137
 1563SOL    HW2 5250   0.245   2.459   0.036
 1564SOL     OW 5251   0.228   2.132   0.987
 1564SOL    HW1 5252   0.250   2.103   1.076
 1564SOL    HW2 5253   0.133   2.121   0.981
 1565SOL     OW 5254   0.013   2.230   0.636
 1565SOL    HW1 5255   3.929   2.250   0.678
 1565SOL    HW2 5256   3.989   2.184   0.556
 1566SOL     OW 5257   0.574   3.141   1.179
 1566SOL    HW1 5258   0.487   3.147   1.138
 1566SOL    HW2 5259   0.590   3.228   1.213
 1567SOL     OW 5260   1.557   3.372   0.706
 1567SOL    HW1 5261   1.512   3.354   0.788
 1567SOL    HW2 5262   1.487   3.377   0.640
 1568SOL     OW 5263   1.129   2.561   0.704
 1568SOL    HW1 5264   1.180   2.641   0.689
 1568SOL    HW2 5265   1.083   2.576   0.786
 1569SOL     OW 5266   1.755   2.470   0.227
 1569SOL    HW1 5267   1.773   2.432   0.141
 1569SOL    HW2 5268   1.729   2.396   0.282
 1570SOL     OW 5269   0.759   3.005   1.036
 1570SOL    HW1 5270   0.691   3.038   1.094
 1570SOL    HW2 5271   0.793   3.084   0.992
 1571SOL     OW 5272   0.860   2.643   1.821
 1571SOL    HW1 5273   0.853   2.715   1.884
 1571SOL    HW2 5274   0.886   2.686   1.739
 1572SOL     OW 5275   0.686   2.868   0.649
 1572SOL    HW1 5276   0.750   2.854   0.718
 1572SOL    HW2 5277   0.616   2.919   0.691
 1573SOL     OW 5278   0.707   3.013   1.810
 1573SOL    HW1 5279   0.755   3.093   1.834
 1573SOL    HW2 5280   0.624   3.046   1.776
 1574SOL     OW 5281   0.351   3.266   1.078
 1574SOL    HW1 5282   0.268   3.254   1.032
 1574SOL    HW2 5283   0.400   3.327   1.023
 1575SOL     OW 5284   1.462   3.360   1.350
 1575SOL    HW1 5285   1.507   3.444   1.361
 1575SOL    HW2 5286   1.406   3.352   1.428
 1576SOL     OW 5287   0.449   2.263   1.494
 1576SOL    HW1 5288   0.523   2.202   1.495
 1576SOL    HW2 5289   0.372   2.207   1.503
 1577SOL     OW 5290   1.611   2.309   0.736
 1577SOL    HW1 5291   1.533   2.337   0.689
 1577SOL    HW2 5292   1.635   2.385   0.789
 1578SOL     OW 5293   0.230   3.571   0.474
 1578SOL    HW1 5294   0.235   3.654   0.521
 1578SOL    HW2 5295   0.299   3.577   0.407
 1579SOL     OW 5296   1.136   3.203   1.691
 1579SOL    HW1 5297   1.176   3.199   1.778
 1579SOL    HW2 5298   1.083   3.123   1.685
 1580SOL     OW 5299   0.240   3.305   0.542
 1580SOL    HW1 5300   0.221   3.398   0.529
 1580SOL    HW2 5301   0.167   3.272   0.594
 1581SOL     OW 5302   0.244   2.934   0.883
 1581SOL    HW1 5303   0.263   2.851   0.928
 1581SOL    HW2 5304   0.194   2.985   0.947
 1582SOL     OW 5305   0.616   3.649   1.432
 1582SOL    HW1 5306   0.532   3.634   1.476
 1582SOL    HW2 5307   0.640   3.738   1.456
 1583SOL     OW 5308   0.571   2.842   0.154
 1583SOL    HW1 5309   0.591   2.896   0.077
 1583SOL    HW2 5310   0.627   2.878   0.223
 1584SOL     OW 5311   1.598   1.986   1.468
 1584SOL    HW1 5312   1.579   2.067   1.420
 1584SOL    HW2 5313   1.589   2.011   1.560
 1585SOL     OW 5314   0.139   2.509   0.573
 1585SOL    HW1 5315   0.084   2.430   0.574
 1585SOL    HW2 5316   0.104   2.564   0.643
 1586SOL     OW 5317   1.839   3.619   0.340
 1586SOL    HW1 5318   1.896   3.585   0.409
 1586SOL    HW2 5319   1.870   3.708   0.325
 1587SOL     OW 5320   0.029   3.468   0.141
 1587SOL    HW1 5321   0.027   3.372   0.146
 1587SOL    HW2 5322   3.945   3.496   0.176
 1588SOL     OW 5323   1.689   2.780   0.638
 1588SOL    HW1 5324   1.774   2.742   0.620
 1588SOL    HW2 5325   1.668   2.831   0.559
 1589SOL     OW 5326   1.646   2.969   0.431
 1589SOL    HW1 5327   1.733   2.976   0.390
 1589SOL    HW2 5328   1.649   3.030   0.504
 1590SOL     OW 5329   0.131   2.611   1.592
 1590SOL    HW1 5330   0.226   2.606   1.601
 1590SOL    HW2 5331   0.111   2.705   1.600
 1591SOL     OW 5332   0.612   3.244   0.734
 1591SOL    HW1 5333   0.566   3.161   0.744
 1591SOL    HW2 5334   0.596   3.271   0.644
 1592SOL     OW 5335   1.290   3.100   1.424
 1592SOL    HW1 5336   1.323   3.033   1.365
 1592SOL    HW2 5337   1.346   3.093   1.502
 1593SOL     OW 5338   0.815   1.861   0.506
 1593SOL    HW1 5339   0.854   1.946   0.489
 1593SOL    HW2 5340   0.721   1.879   0.517
 1594SOL     OW 5341   0.187   2.819   1.275
 1594SOL    HW1 5342   0.275   2.784   1.259
 1594SOL    HW2 5343   0.131   2.771   1.214
 1595SOL     OW 5344   1.533   2.855   0.200
 1595SOL    HW1 5345   1.464   2.795   0.228
 1595SOL    HW2 5346   1.569   2.889   0.281
 1596SOL     OW 5347   1.206   3.663   1.624
 1596SOL    HW1 5348   1.196   3.722   1.549
 1596SOL    HW2 5349   1.209   3.575   1.585
 1597SOL     OW 5350   0.335   2.110   1.811
 1597SOL    HW1 5351   0.379   2.194   1.818
 1597SOL    HW2 5352   0.245   2.127   1.836
 1598SOL     OW 5353   1.465   3.282   0.953
 1598SOL    HW1 5354   1.397   3.295   1.019
 1598SOL    HW2 5355   1.454   3.191   0.926
 1599SOL     OW 5356   1.661   3.595   0.584
 1599SOL    HW1 5357   1.641   3.572   0.494
 1599SOL    HW2 5358   1.635   3.518   0.635
 1600SOL     OW 5359   0.597   2.583   0.259
 1600SOL    HW1 5360   0.603   2.665   0.210
 1600SOL    HW2 5361   0.538   2.603   0.331
 1601SOL     OW 5362   1.279   2.212   0.933
 1601SOL    HW1 5363   1.191   2.177   0.941
 1601SOL    HW2 5364   1.332   2.158   0.992
 1602SOL     OW 5365   1.560   3.593   0.311
 1602SOL    HW1 5366   1.655   3.592   0.313
 1602SOL    HW2 5367   1.537   3.548   0.229
 1603SOL     OW 5368   0.793   2.479   1.454
 1603SOL    HW1 5369   0.765   2.456   1.542
 1603SOL    HW2 5370   0.750   2.413   1.398
 1604SOL     OW 5371   1.393   2.335   1.677
 1604SOL    HW1 5372   1.394   2.381   1.762
 1604SOL    HW2 5373   1.460   2.267   1.687
 1605SOL     OW 5374   0.958   2.750   1.581
 1605SOL    HW1 5375   1.012   2.679   1.547
 1605SOL    HW2 5376   0.910   2.783   1.504
 1606SOL     OW 5377   0.993   2.275   1.240
 1606SOL    HW1 5378   0.909   2.299   1.281
 1606SOL    HW2 5379   0.968   2.227   1.161
 1607SOL     OW 5380   1.048   2.563   0.429
 1607SOL    HW1 5381   1.063   2.554   0.523
 1607SOL    HW2 5382   0.967   2.515   0.413
 1608SOL     OW 5383   0.082   2.683   0.790
 1608SOL    HW1 5384   0.165   2.658   0.832
 1608SOL    HW2 5385   0.085   2.779   0.789
 1609SOL     OW 5386   0.128   3.708   1.572
 1609SOL    HW1 5387   0.134   3.679   1.663
 1609SOL    HW2 5388   0.035   3.699   1.550
 1610SOL     OW 5389   0.871   2.218   0.211
 1610SOL    HW1 5390   0.913   2.275   0.147
 1610SOL    HW2 5391   0.880   2.130   0.173
 1611SOL     OW 5392   1.688   2.448   1.831
 1611SOL    HW1 5393   1.660   2.519   1.773
 1611SOL    HW2 5394   1.730   2.385   1.772
 1612SOL     OW 5395   1.375   3.004   0.543
 1612SOL    HW1 5396   1.453   2.990   0.489
 1612SOL    HW2 5397   1.322   3.067   0.493
 1613SOL     OW 5398   0.546   2.045   0.892
 1613SOL    HW1 5399   0.551   2.072   0.983
 1613SOL    HW2 5400   0.550   2.127   0.842
 1614SOL     OW 5401   1.009   3.307   0.476
 1614SOL    HW1 5402   0.969   3.379   0.426
 1614SOL    HW2 5403   0.994   3.330   0.567
 1615SOL     OW 5404   0.358   3.666   0.857
 1615SOL    HW1 5405   0.431   3.606   0.863
 1615SOL    HW2 5406   0.398   3.753   0.865
 1616SOL     OW 5407   1.798   2.920   0.867
 1616SOL    HW1 5408   1.741   2.906   0.792
 1616SOL    HW2 5409   1.738   2.926   0.942
 1617SOL     OW 5410   1.228   3.400   1.511
 1617SOL    HW1 5411   1.214   3.327   1.572
 1617SOL    HW2 5412   1.165   3.385   1.440
 1618SOL     OW 5413   0.316   2.801   0.236
 1618SOL    HW1 5414   0.406   2.817   0.209
 1618SOL    HW2 5415   0.305   2.706   0.227
 1619SOL     OW 5416   1.476   2.600   0.727
 1619SOL    HW1 5417   1.465   2.555   0.811
 1619SOL    HW2 5418   1.552   2.656   0.740
 1620SOL     OW 5419   0.464   3.120   1.736
 1620SOL    HW1 5420   0.437   3.130   1.645
 1620SOL    HW2 5421   0.383   3.127   1.786
 1621SOL     OW 5422   1.123   3.640   0.235
 1621SOL    HW1 5423   1.059   3.594   0.289
 1621SOL    HW2 5424   1.148   3.576   0.168
 1622SOL     OW 5425   0.203   2.146   1.506
 1622SOL    HW1 5426   0.113   2.176   1.493
 1622SOL    HW2 5427   0.195   2.067   1.558
 1623SOL     OW 5428   1.633   3.232   0.078
 1623SOL    HW1 5429   1.593   3.317   0.055
 1623SOL    HW2 5430   1.564   3.168   0.061
 1624SOL     OW 5431   0.472   3.602   0.318
 1624SOL    HW1 5432   0.505   3.662   0.384
 1624SOL    HW2 5433   0.549   3.577   0.267
 1625SOL     OW 5434   1.402   1.972   0.429
 1625SOL    HW1 5435   1.384   1.947   0.338
 1625SOL    HW2 5436   1.494   1.951   0.442
 1626SOL     OW 5437   0.250   3.656   1.232
 1626SOL    HW1 5438   0.299   3.592   1.284
 1626SOL    HW2 5439   0.244   3.615   1.145
 1627SOL     OW 5440   0.937   3.560   0.902
 1627SOL    HW1 5441   1.015   3.507   0.921
 1627SOL    HW2 5442   0.892   3.512   0.833
 1628SOL     OW 5443   0.392   2.558   0.473
 1628SOL    HW1 5444   0.420   2.467   0.481
 1628SOL    HW2 5445   0.301   2.558   0.502
 1629SOL     OW 5446   1.539   2.086   1.725
 1629SOL    HW1 5447   1.548   2.109   1.817
 1629SOL    HW2 5448   1.469   2.021   1.722
 1630SOL     OW 5449   0.768   2.137   1.752
 1630SOL    HW1 5450   0.841   2.076   1.759
 1630SOL    HW2 5451   0.718   2.126   1.833
 1631SOL     OW 5452   0.876   3.381   1.194
 1631SOL    HW1 5453   0.862   3.347   1.106
 1631SOL    HW2 5454   0.946   3.327   1.230
 1632SOL     OW 5455   1.342   2.450   1.432
 1632SOL    HW1 5456   1.372   2.419   1.517
 1632SOL    HW2 5457   1.377   2.539   1.426
 1633SOL     OW 5458   0.813   3.259   0.935
 1633SOL    HW1 5459   0.897   3.250   0.891
 1633SOL    HW2 5460   0.748   3.257   0.865
 1634SOL     OW 5461   0.926   2.371   0.903
 1634SOL    HW1 5462   0.904   2.363   0.811
 1634SOL    HW2 5463   0.960   2.285   0.928
 1635SOL     OW 5464   0.553   1.923   0.506
 1635SOL    HW1 5465   0.471   1.922   0.556
 1635SOL    HW2 5466   0.546   2.001   0.451
 1636SOL     OW 5467   1.429   3.063   0.046
 1636SOL    HW1 5468   1.452   2.983   0.092
 1636SOL    HW2 5469   1.337   3.076   0.065
 1637SOL     OW 5470   0.270   1.873   0.218
 1637SOL    HW1 5471   0.304   1.954   0.180
 1637SOL    HW2 5472   0.349   1.823   0.241
 1638SOL     OW 5473   0.937   2.106   0.463
 1638SOL    HW1 5474   0.906   2.147   0.382
 1638SOL    HW2 5475   1.031   2.121   0.464
 1639SOL     OW 5476   1.080   2.541   1.460
 1639SOL    HW1 5477   1.010   2.476   1.466
 1639SOL    HW2 5478   1.160   2.489   1.453
 1640SOL     OW 5479   1.225   3.431   0.793
 1640SOL    HW1 5480   1.242   3.500   0.729
 1640SOL    HW2 5481   1.292   3.443   0.860
 1641SOL     OW 5482   0.465   3.010   0.739
 1641SOL    HW1 5483   0.392   2.988   0.797
 1641SOL    HW2 5484   0.431   2.995   0.651
 1642SOL     OW 5485   1.271   3.659   0.604
 1642SOL    HW1 5486   1.314   3.722   0.547
 1642SOL    HW2 5487   1.203   3.710   0.648
 1643SOL     OW 5488   1.000   2.409   0.061
 1643SOL    HW1 5489   1.000   2.414  13.865
 1643SOL    HW2 5490   1.092   2.413   0.086
 1644SOL     OW 5491   0.078   2.432   1.389
 1644SOL    HW1 5492   0.168   2.418   1.359
 1644SOL    HW2 5493   0.086   2.500   1.456
 1645SOL     OW 5494   0.567   2.088   1.162
 1645SOL    HW1 5495   0.605   2.009   1.201
 1645SOL    HW2 5496   0.476   2.087   1.192
 1646SOL     OW 5497   0.868   2.321   0.639
 1646SOL    HW1 5498   0.824   2.376   0.575
 1646SOL    HW2 5499   0.888   2.240   0.592
 1647SOL     OW 5500   1.015   1.914   0.753
 1647SOL    HW1 5501   0.955   1.907   0.678
 1647SOL    HW2 5502   0.994   1.838   0.808
 1648SOL     OW 5503   1.436   3.026   0.858
 1648SOL    HW1 5504   1.368   2.958   0.856
 1648SOL    HW2 5505   1.457   3.040   0.765
 1649SOL     OW 5506   1.467   2.464   0.980
 1649SOL    HW1 5507   1.419   2.381   0.985
 1649SOL    HW2 5508   1.528   2.460   1.054
 1650SOL     OW 5509   1.849   2.678   0.380
 1650SOL    HW1 5510   1.902   2.624   0.439
 1650SOL    HW2 5511   1.816   2.617   0.314
 1651SOL     OW 5512   0.496   3.240   0.168
 1651SOL    HW1 5513   0.417   3.227   0.220
 1651SOL    HW2 5514   0.464   3.272   0.084
 1652SOL     OW 5515   1.669   3.127   0.648
 1652SOL    HW1 5516   1.763   3.133   0.661
 1652SOL    HW2 5517   1.636   3.215   0.667
 1653SOL     OW 5518   1.418   2.447   0.086
 1653SOL    HW1 5519   1.347   2.435   0.150
 1653SOL    HW2 5520   1.465   2.364   0.087
 1654SOL     OW 5521   0.526   2.120   0.323
 1654SOL    HW1 5522   0.575   2.081   0.250
 1654SOL    HW2 5523   0.505   2.209   0.294
 1655SOL     OW 5524   1.754   3.098   1.576
 1655SOL    HW1 5525   1.841   3.059   1.574
 1655SOL    HW2 5526   1.768   3.188   1.605
 1656SOL     OW 5527   1.061   3.214   1.334
 1656SOL    HW1 5528   0.986   3.184   1.386
 1656SOL    HW2 5529   1.137   3.174   1.376
 1657SOL     OW 5530   1.606   3.487   1.652
 1657SOL    HW1 5531   1.603   3.521   1.562
 1657SOL    HW2 5532   1.690   3.441   1.657
 1658SOL     OW 5533   1.125   3.063   1.107
 1658SOL    HW1 5534   1.068   3.102   1.173
 1658SOL    HW2 5535   1.091   3.095   1.023
 1659SOL     OW 5536   1.631   2.962   1.078
 1659SOL    HW1 5537   1.627   3.024   1.151
 1659SOL    HW2 5538   1.550   2.977   1.029
 1660SOL     OW 5539   0.918   1.960   1.399
 1660SOL    HW1 5540   0.941   1.941   1.308
 1660SOL    HW2 5541   0.997   2.000   1.436
 1661SOL     OW 5542   0.984   2.976   1.722
 1661SOL    HW1 5543   0.891   2.991   1.741
 1661SOL    HW2 5544   0.985   2.899   1.666
 1662SOL     OW 5545   0.712   2.920   0.375
 1662SOL    HW1 5546   0.698   2.907   0.468
 1662SOL    HW2 5547   0.788   2.865   0.354
 1663SOL     OW 5548   0.419   2.676   1.251
 1663SOL    HW1 5549   0.488   2.684   1.317
 1663SOL    HW2 5550   0.384   2.587   1.265
 1664SOL     OW 5551   1.267   2.240   1.273
 1664SOL    HW1 5552   1.299   2.317   1.319
 1664SOL    HW2 5553   1.178   2.263   1.247
 1665SOL     OW 5554   0.063   3.440   1.344
 1665SOL    HW1 5555   0.062   3.512   1.280
 1665SOL    HW2 5556   0.156   3.429   1.366
 1666SOL     OW 5557   0.368   2.966   0.486
 1666SOL    HW1 5558   0.365   3.043   0.430
 1666SOL    HW2 5559   0.381   2.893   0.425
 1667SOL     OW 5560   0.555   2.400   0.862
 1667SOL    HW1 5561   0.571   2.457   0.787
 1667SOL    HW2 5562   0.618   2.429   0.928
 1668SOL     OW 5563   1.248   3.208   0.396
 1668SOL    HW1 5564   1.304   3.281   0.422
 1668SOL    HW2 5565   1.161   3.231   0.427
 1669SOL     OW 5566   1.277   3.318   1.146
 1669SOL    HW1 5567   1.332   3.321   1.224
 1669SOL    HW2 5568   1.221   3.241   1.158
 1670SOL     OW 5569   1.583   2.489   0.476
 1670SOL    HW1 5570   1.538   2.542   0.541
 1670SOL    HW2 5571   1.621   2.552   0.415
 1671SOL     OW 5572   0.346   3.385   1.320
 1671SOL    HW1 5573   0.337   3.336   1.239
 1671SOL    HW2 5574   0.440   3.402   1.327
 1672SOL     OW 5575   0.411   2.604   1.601
 1672SOL    HW1 5576   0.472   2.651   1.544
 1672SOL    HW2 5577   0.454   2.520   1.617
 1673SOL     OW 5578   1.596   2.643   1.674
 1673SOL    HW1 5579   1.510   2.685   1.668
 1673SOL    HW2 5580   1.649   2.687   1.608
 1674SOL     OW 5581   0.996   1.980   1.757
 1674SOL    HW1 5582   1.048   2.054   1.724
 1674SOL    HW2 5583   1.046   1.902   1.730
 1675SOL     OW 5584   0.499   1.903   1.743
 1675SOL    HW1 5585   0.457   1.848   1.677
 1675SOL    HW2 5586   0.440   1.977   1.754
 1676SOL     OW 5587   0.583   2.735   1.031
 1676SOL    HW1 5588   0.614   2.825   1.028
 1676SOL    HW2 5589   0.527   2.731   1.108
 1677SOL     OW 5590   1.361   2.721   1.033
 1677SOL    HW1 5591   1.279   2.714   0.983
 1677SOL    HW2 5592   1.398   2.633   1.030
 1678SOL     OW 5593   1.217   2.403   0.276
 1678SOL    HW1 5594   1.220   2.321   0.325
 1678SOL    HW2 5595   1.164   2.462   0.329
 1679SOL     OW 5596   0.312   2.063   1.247
 1679SOL    HW1 5597   0.267   2.100   1.323
 1679SOL    HW2 5598   0.286   1.971   1.246
 1680SOL     OW 5599   0.055   3.165   1.280
 1680SOL    HW1 5600   0.089   3.128   1.361
 1680SOL    HW2 5601   0.050   3.260   1.297
 1681SOL     OW 5602   0.726   2.494   1.060
 1681SOL    HW1 5603   0.799   2.476   1.000
 1681SOL    HW2 5604   0.699   2.583   1.037
 1682SOL     OW 5605   1.732   2.823   1.849
 1682SOL    HW1 5606   1.686   2.763   1.790
 1682SOL    HW2 5607   1.673   2.833   1.924
 1683SOL     OW 5608   0.312   1.928   0.623
 1683SOL    HW1 5609   0.291   2.018   0.648
 1683SOL    HW2 5610   0.311   1.880   0.705
 1684SOL     OW 5611   1.617   2.236   0.379
 1684SOL    HW1 5612   1.622   2.180   0.457
 1684SOL    HW2 5613   1.590   2.321   0.413
 1685SOL     OW 5614   1.027   2.622   0.962
 1685SOL    HW1 5615   1.027   2.639   1.056
 1685SOL    HW2 5616   1.000   2.530   0.955
 1686SOL     OW 5617   0.984   3.429   1.715
 1686SOL    HW1 5618   0.967   3.473   1.632
 1686SOL    HW2 5619   1.026   3.346   1.691
 1687SOL     OW 5620   1.856   3.371   1.606
 1687SOL    HW1 5621   1.873   3.397   1.515
 1687SOL    HW2 5622   1.937   3.392   1.652
 1688SOL     OW 5623   0.351   2.781   1.803
 1688SOL    HW1 5624   0.430   2.801   1.851
 1688SOL    HW2 5625   0.378   2.716   1.737
 1689SOL     OW 5626   1.530   2.149   0.137
 1689SOL    HW1 5627   1.502   2.059   0.150
 1689SOL    HW2 5628   1.569   2.175   0.220
 1690SOL     OW 5629   1.295   2.691   0.055
 1690SOL    HW1 5630   1.341   2.608   0.060
 1690SOL    HW2 5631   1.314   2.724  13.867
 1691SOL     OW 5632   1.065   3.197   0.852
 1691SOL    HW1 5633   1.068   3.124   0.790
 1691SOL    HW2 5634   1.128   3.260   0.818
 1692SOL     OW 5635   0.314   2.670   0.951
 1692SOL    HW1 5636   0.408   2.688   0.945
 1692SOL    HW2 5637   0.309   2.581   0.985
 1693SOL     OW 5638   0.333   2.380   1.012
 1693SOL    HW1 5639   0.298   2.293   0.994
 1693SOL    HW2 5640   0.409   2.388   0.954
 1694SOL     OW 5641   1.135   2.240   1.680
 1694SOL    HW1 5642   1.089   2.295   1.743
 1694SOL    HW2 5643   1.223   2.276   1.676
 1695SOL     OW 5644   1.160   2.066   1.470
 1695SOL    HW1 5645   1.151   2.129   1.542
 1695SOL    HW2 5646   1.198   2.118   1.398
 1696SOL     OW 5647   0.007   3.187   0.185
 1696SOL    HW1 5648   3.912   3.203   0.185
 1696SOL    HW2 5649   0.017   3.098   0.219
 1697SOL     OW 5650   0.075   3.663   0.895
 1697SOL    HW1 5651   0.082   3.568   0.900
 1697SOL    HW2 5652   0.166   3.694   0.890
 1698SOL     OW 5653   0.507   3.429   0.912
 1698SOL    HW1 5654   0.574   3.494   0.934
 1698SOL    HW2 5655   0.551   3.367   0.854
 1699SOL     OW 5656   0.988   2.656   1.228
 1699SOL    HW1 5657   1.041   2.631   1.304
 1699SOL    HW2 5658   0.901   2.620   1.247
 1700SOL     OW 5659   0.038   2.414   1.111
 1700SOL    HW1 5660   0.119   2.387   1.069
 1700SOL    HW2 5661   0.057   2.413   1.204
 1701SOL     OW 5662   0.205   2.376   1.726
 1701SOL    HW1 5663   0.250   2.336   1.652
 1701SOL    HW2 5664   0.153   2.446   1.686
 1702SOL     OW 5665   1.374   2.804   1.659
 1702SOL    HW1 5666   1.396   2.897   1.659
 1702SOL    HW2 5667   1.372   2.780   1.566
 1703SOL     OW 5668   0.814   2.436   0.364
 1703SOL    HW1 5669   0.827   2.362   0.304
 1703SOL    HW2 5670   0.741   2.485   0.326
 1704SOL     OW 5671   1.643   2.464   1.188
 1704SOL    HW1 5672   1.631   2.408   1.265
 1704SOL    HW2 5673   1.729   2.440   1.154
 1705SOL     OW 5674   0.294   3.410   1.734
 1705SOL    HW1 5675   0.243   3.480   1.776
 1705SOL    HW2 5676   0.258   3.329   1.770
 1706SOL     OW 5677   0.694   2.316   1.263
 1706SOL    HW1 5678   0.646   2.240   1.230
 1706SOL    HW2 5679   0.694   2.378   1.190
 1707SOL     OW 5680   0.932   3.536   1.466
 1707SOL    HW1 5681   0.904   3.505   1.380
 1707SOL    HW2 5682   0.928   3.632   1.459
 1708SOL     OW 5683   0.446   2.358   0.235
 1708SOL    HW1 5684   0.513   2.427   0.238
 1708SOL    HW2 5685   0.370   2.400   0.196
 1709SOL     OW 5686   0.157   2.999   1.472
 1709SOL    HW1 5687   0.163   2.946   1.551
 1709SOL    HW2 5688   0.172   2.937   1.401
 1710SOL     OW 5689   1.329   2.911   1.225
 1710SOL    HW1 5690   1.353   2.848   1.156
 1710SOL    HW2 5691   1.256   2.960   1.187
 1711SOL     OW 5692   1.307   2.721   0.323
 1711SOL    HW1 5693   1.231   2.685   0.368
 1711SOL    HW2 5694   1.289   2.706   0.230
 1712SOL     OW 5695   1.766   3.609   1.147
 1712SOL    HW1 5696   1.828   3.635   1.079
 1712SOL    HW2 5697   1.745   3.518   1.126
 1713SOL     OW 5698   1.243   3.596   1.116
 1713SOL    HW1 5699   1.325   3.613   1.070
 1713SOL    HW2 5700   1.245   3.502   1.135
 1714SOL     OW 5701   0.075   3.078   1.027
 1714SOL    HW1 5702   0.082   3.105   1.119
 1714SOL    HW2 5703   3.982   3.084   1.007
 1715SOL     OW 5704   0.679   3.524   1.724
 1715SOL    HW1 5705   0.625   3.603   1.727
 1715SOL    HW2 5706   0.738   3.538   1.650
 1716SOL     OW 5707   0.915   1.964   0.135
 1716SOL    HW1 5708   0.954   1.956   0.048
 1716SOL    HW2 5709   0.965   1.903   0.189
 1717SOL     OW 5710   1.389   3.434   0.481
 1717SOL    HW1 5711   1.451   3.468   0.416
 1717SOL    HW2 5712   1.343   3.511   0.513
 1718SOL     OW 5713   0.165   3.631   1.830
 1718SOL    HW1 5714   0.107   3.581   1.887
 1718SOL    HW2 5715   0.212   3.689   1.890
 1719SOL     OW 5716   1.277   2.786   0.671
 1719SOL    HW1 5717   1.350   2.725   0.675
 1719SOL    HW2 5718   1.310   2.859   0.619
 1720SOL     OW 5719   0.818   3.134   1.432
 1720SOL    HW1 5720   0.792   3.173   1.515
 1720SOL    HW2 5721   0.747   3.155   1.372
 1721SOL     OW 5722   0.680   3.443   0.180
 1721SOL    HW1 5723   0.662   3.484   0.095
 1721SOL    HW2 5724   0.628   3.362   0.179
 1722SOL     OW 5725   1.632   3.587   1.391
 1722SOL    HW1 5726   1.680   3.595   1.309
 1722SOL    HW2 5727   1.618   3.678   1.420
 1723SOL     OW 5728   0.268   2.178   0.719
 1723SOL    HW1 5729   0.184   2.215   0.693
 1723SOL    HW2 5730   0.261   2.167   0.814
 1724SOL     OW 5731   1.215   3.465   0.031
 1724SOL    HW1 5732   1.206   3.375   0.062
 1724SOL    HW2 5733   1.175   3.465  13.844
 1725SOL     OW 5734   0.824   2.868   1.372
 1725SOL    HW1 5735   0.867   2.865   1.286
 1725SOL    HW2 5736   0.825   2.960   1.396
 1726SOL     OW 5737   0.919   2.772   0.287
 1726SOL    HW1 5738   0.990   2.809   0.234
 1726SOL    HW2 5739   0.960   2.700   0.334
 1727SOL     OW 5740   1.490   3.492   0.066
 1727SOL    HW1 5741   1.395   3.486   0.049
 1727SOL    HW2 5742   1.528   3.501  13.879
 1728SOL     OW 5743   0.373   3.163   1.491
 1728SOL    HW1 5744   0.359   3.244   1.442
 1728SOL    HW2 5745   0.295   3.110   1.474
 1729SOL     OW 5746   1.612   3.145   1.281
 1729SOL    HW1 5747   1.671   3.138   1.356
 1729SOL    HW2 5748   1.551   3.215   1.306
 1730SOL     OW 5749   1.048   2.967   0.705
 1730SOL    HW1 5750   0.978   2.915   0.745
 1730SOL    HW2 5751   1.110   2.902   0.671
 1731SOL     OW 5752   1.020   2.102   0.966
 1731SOL    HW1 5753   1.015   2.054   0.883
 1731SOL    HW2 5754   1.015   2.034   1.033
 1732SOL     OW 5755   0.602   3.352   0.483
 1732SOL    HW1 5756   0.644   3.300   0.413
 1732SOL    HW2 5757   0.536   3.404   0.438
 1733SOL     OW 5758   1.720   2.252   1.377
 1733SOL    HW1 5759   1.794   2.313   1.382
 1733SOL    HW2 5760   1.749   2.185   1.315
 1734SOL     OW 5761   0.258   3.183   0.303
 1734SOL    HW1 5762   0.182   3.215   0.255
 1734SOL    HW2 5763   0.258   3.233   0.385
 1735SOL     OW 5764   0.104   2.863   1.719
 1735SOL    HW1 5765   0.042   2.850   1.791
 1735SOL    HW2 5766   0.190   2.842   1.757
 1736SOL     OW 5767   0.673   2.058   1.498
 1736SOL    HW1 5768   0.756   2.040   1.456
 1736SOL    HW2 5769   0.696   2.087   1.587
 1737SOL     OW 5770   0.052   2.218   0.041
 1737SOL    HW1 5771   3.958   2.208   0.054
 1737SOL    HW2 5772   0.061   2.256  13.854
 1738SOL     OW 5773   1.432   2.721   1.401
 1738SOL    HW1 5774   1.384   2.781   1.344
 1738SOL    HW2 5775   1.522   2.724   1.369
 1739SOL     OW 5776   0.059   2.032   0.316
 1739SOL    HW1 5777   0.075   2.105   0.256
 1739SOL    HW2 5778   0.128   1.969   0.295
 1740SOL     OW 5779   1.184   3.213   0.123
 1740SOL    HW1 5780   1.092   3.190   0.113
 1740SOL    HW2 5781   1.203   3.199   0.215
 1741SOL     OW 5782   0.618   2.693   1.433
 1741SOL    HW1 5783   0.673   2.770   1.419
 1741SOL    HW2 5784   0.679   2.620   1.442
 1742SOL     OW 5785   1.486   3.638   0.976
 1742SOL    HW1 5786   1.513   3.690   0.901
 1742SOL    HW2 5787   1.567   3.620   1.023
 1743SOL     OW 5788   0.716   2.427   1.707
 1743SOL    HW1 5789   0.754   2.491   1.767
 1743SOL    HW2 5790   0.752   2.343   1.735
 1744SOL     OW 5791   1.469   3.065   1.633
 1744SOL    HW1 5792   1.457   3.078   1.727
 1744SOL    HW2 5793   1.563   3.077   1.619
 1745SOL     OW 5794   0.380   3.603   1.559
 1745SOL    HW1 5795   0.293   3.640   1.546
 1745SOL    HW2 5796   0.366   3.522   1.607
 1746SOL     OW 5797   1.672   2.744   1.255
 1746SOL    HW1 5798   1.662   2.659   1.212
 1746SOL    HW2 5799   1.663   2.808   1.184
 1747SOL     OW 5800   1.218   2.182   0.456
 1747SOL    HW1 5801   1.283   2.112   0.448
 1747SOL    HW2 5802   1.245   2.231   0.533
 1748SOL     OW 5803   0.591   2.602   0.668
 1748SOL    HW1 5804   0.630   2.688   0.651
 1748SOL    HW2 5805   0.521   2.595   0.603
 1749SOL     OW 5806   1.760   2.234   1.653
 1749SOL    HW1 5807   1.750   2.239   1.558
 1749SOL    HW2 5808   1.690   2.175   1.681
 1750SOL     OW 5809   1.744   2.797   1.511
 1750SOL    HW1 5810   1.746   2.892   1.524
 1750SOL    HW2 5811   1.729   2.786   1.417
 1751SOL     OW 5812   0.902   3.256   0.054
 1751SOL    HW1 5813   0.829   3.243   0.114
 1751SOL    HW2 5814   0.862   3.282  13.872
 1752SOL     OW 5815   0.658   3.655   0.944
 1752SOL    HW1 5816   0.634   3.745   0.922
 1752SOL    HW2 5817   0.753   3.653   0.939
 1753SOL     OW 5818   0.866   2.826   0.856
 1753SOL    HW1 5819   0.917   2.756   0.897
 1753SOL    HW2 5820   0.833   2.879   0.929
 1754SOL     OW 5821   1.097   2.864   0.104
 1754SOL    HW1 5822   1.086   2.913   0.023
 1754SOL    HW2 5823   1.173   2.808   0.089
 1755SOL     OW 5824   1.857   3.416   0.844
 1755SOL    HW1 5825   1.779   3.408   0.790
 1755SOL    HW2 5826   1.845   3.351   0.913
 1756SOL     OW 5827   0.222   3.166   1.854
 1756SOL    HW1 5828   0.152   3.105   1.830
 1756SOL    HW2 5829   0.211   3.180   1.948
 1757SOL     OW 5830   0.104   3.133   0.718
 1757SOL    HW1 5831   0.113   3.079   0.796
 1757SOL    HW2 5832   0.117   3.072   0.645
 1758SOL     OW 5833   0.679   3.262   1.626
 1758SOL    HW1 5834   0.599   3.220   1.656
 1758SOL    HW2 5835   0.675   3.351   1.663
 1759SOL     OW 5836   0.435   2.295   0.532
 1759SOL    HW1 5837   0.461   2.223   0.474
 1759SOL    HW2 5838   0.384   2.254   0.601
 1760SOL     OW 5839   1.702   3.352   1.099
 1760SOL    HW1 5840   1.620   3.326   1.057
 1760SOL    HW2 5841   1.717   3.285   1.165
 1761SOL     OW 5842   0.329   2.414   1.290
 1761SOL    HW1 5843   0.385   2.359   1.345
 1761SOL    HW2 5844   0.348   2.386   1.201
 1762SOL     OW 5845   0.825   3.440   0.679
 1762SOL    HW1 5846   0.821   3.484   0.595
 1762SOL    HW2 5847   0.747   3.385   0.681
 1763SOL     OW 5848   1.437   2.088   1.119
 1763SOL    HW1 5849   1.457   2.005   1.162
 1763SOL    HW2 5850   1.381   2.135   1.182
 1764SOL     OW 5851   1.008   1.882   1.145
 1764SOL    HW1 5852   0.954   1.813   1.107
 1764SOL    HW2 5853   1.096   1.845   1.147
 1765SOL     OW 5854   0.771   3.185   0.317
 1765SOL    HW1 5855   0.739   3.096   0.331
 1765SOL    HW2 5856   0.857   3.187   0.359
 1766SOL     OW 5857   0.620   3.420   1.283
 1766SOL    HW1 5858   0.622   3.501   1.335
 1766SOL    HW2 5859   0.707   3.413   1.245
 1767SOL     OW 5860   1.347   1.923   0.164
 1767SOL    HW1 5861   1.377   1.872   0.089
 1767SOL    HW2 5862   1.264   1.882   0.190
 1768SOL     OW 5863   1.298   2.321   0.682
 1768SOL    HW1 5864   1.244   2.400   0.691
 1768SOL    HW2 5865   1.295   2.281   0.769
 1769SOL     OW 5866   1.578   2.062   0.869
 1769SOL    HW1 5867   1.531   2.083   0.950
 1769SOL    HW2 5868   1.590   2.147   0.826
 1770SOL     OW 5869   0.038   2.902   0.252
 1770SOL    HW1 5870   0.133   2.895   0.251
 1770SOL    HW2 5871   0.009   2.830   0.309
 1771SOL     OW 5872   0.888   3.514   0.347
 1771SOL    HW1 5873   0.818   3.484   0.290
 1771SOL    HW2 5874   0.852   3.591   0.392
 1772SOL     OW 5875   0.231   2.482   1.984
 1772SOL    HW1 5876   0.138   2.493   2.004
 1772SOL    HW2 5877   0.233   2.455   1.892
 1773SOL     OW 5878   0.228   2.132   2.849
 1773SOL    HW1 5879   0.250   2.103   2.938
 1773SOL    HW2 5880   0.133   2.121   2.842
 1774SOL     OW 5881   0.013   2.228   2.497
 1774SOL    HW1 5882   3.928   2.246   2.537
 1774SOL    HW2 5883   3.993   2.186   2.414
 1775SOL     OW 5884   0.574   3.141   3.041
 1775SOL    HW1 5885   0.487   3.147   3.000
 1775SOL    HW2 5886   0.590   3.228   3.075
 1776SOL     OW 5887   1.557   3.373   2.568
 1776SOL    HW1 5888   1.514   3.355   2.651
 1776SOL    HW2 5889   1.486   3.378   2.504
 1777SOL     OW 5890   1.129   2.561   2.566
 1777SOL    HW1 5891   1.180   2.641   2.551
 1777SOL    HW2 5892   1.083   2.577   2.648
 1778SOL     OW 5893   1.753   2.475   2.095
 1778SOL    HW1 5894   1.743   2.466   2.000
 1778SOL    HW2 5895   1.743   2.386   2.129
 1779SOL     OW 5896   0.760   3.005   2.898
 1779SOL    HW1 5897   0.691   3.038   2.957
 1779SOL    HW2 5898   0.793   3.084   2.854
 1780SOL     OW 5899   0.860   2.643   3.683
 1780SOL    HW1 5900   0.853   2.715   3.746
 1780SOL    HW2 5901   0.886   2.686   3.601
 1781SOL     OW 5902   0.686   2.869   2.511
 1781SOL    HW1 5903   0.750   2.854   2.581
 1781SOL    HW2 5904   0.616   2.919   2.553
 1782SOL     OW 5905   0.707   3.013   3.672
 1782SOL    HW1 5906   0.755   3.093   3.696
 1782SOL    HW2 5907   0.624   3.046   3.638
 1783SOL     OW 5908   0.351   3.266   2.940
 1783SOL    HW1 5909   0.268   3.253   2.894
 1783SOL    HW2 5910   0.400   3.327   2.885
 1784SOL     OW 5911   1.461   3.360   3.212
 1784SOL    HW1 5912   1.507   3.444   3.223
 1784SOL    HW2 5913   1.406   3.352   3.290
 1785SOL     OW 5914   0.449   2.263   3.356
 1785SOL    HW1 5915   0.523   2.202   3.357
 1785SOL    HW2 5916   0.372   2.207   3.365
 1786SOL     OW 5917   1.610   2.309   2.598
 1786SOL    HW1 5918   1.533   2.338   2.550
 1786SOL    HW2 5919   1.635   2.385   2.651
 1787SOL     OW 5920   0.227   3.572   2.330
 1787SOL    HW1 5921   0.237   3.650   2.385
 1787SOL    HW2 5922   0.302   3.575   2.271
 1788SOL     OW 5923   1.136   3.203   3.553
 1788SOL    HW1 5924   1.176   3.199   3.640
 1788SOL    HW2 5925   1.083   3.123   3.547
 1789SOL     OW 5926   0.243   3.304   2.400
 1789SOL    HW1 5927   0.218   3.396   2.390
 1789SOL    HW2 5928   0.174   3.266   2.454
 1790SOL     OW 5929   0.245   2.934   2.746
 1790SOL    HW1 5930   0.262   2.851   2.791
 1790SOL    HW2 5931   0.194   2.985   2.809
 1791SOL     OW 5932   0.615   3.649   3.293
 1791SOL    HW1 5933   0.532   3.634   3.338
 1791SOL    HW2 5934   0.640   3.738   3.318
 1792SOL     OW 5935   0.586   2.843   1.996
 1792SOL    HW1 5936   0.629   2.893   1.926
 1792SOL    HW2 5937   0.629   2.871   2.076
 1793SOL     OW 5938   1.597   1.986   3.330
 1793SOL    HW1 5939   1.579   2.067   3.282
 1793SOL    HW2 5940   1.589   2.011   3.422
 1794SOL     OW 5941   0.140   2.507   2.435
 1794SOL    HW1 5942   0.084   2.429   2.437
 1794SOL    HW2 5943   0.104   2.563   2.505
 1795SOL     OW 5944   1.840   3.618   2.201
 1795SOL    HW1 5945   1.902   3.592   2.269
 1795SOL    HW2 5946   1.866   3.707   2.178
 1796SOL     OW 5947   0.041   3.455   2.002
 1796SOL    HW1 5948   0.029   3.363   2.022
 1796SOL    HW2 5949   3.966   3.498   2.043
 1797SOL     OW 5950   1.690   2.781   2.500
 1797SOL    HW1 5951   1.774   2.740   2.480
 1797SOL    HW2 5952   1.669   2.831   2.420
 1798SOL     OW 5953   1.645   2.970   2.292
 1798SOL    HW1 5954   1.730   2.978   2.249
 1798SOL    HW2 5955   1.650   3.030   2.366
 1799SOL     OW 5956   0.131   2.612   3.454
 1799SOL    HW1 5957   0.226   2.606   3.463
 1799SOL    HW2 5958   0.111   2.705   3.462
 1800SOL     OW 5959   0.612   3.244   2.596
 1800SOL    HW1 5960   0.566   3.161   2.606
 1800SOL    HW2 5961   0.595   3.271   2.506
 1801SOL     OW 5962   1.290   3.100   3.286
 1801SOL    HW1 5963   1.323   3.033   3.227
 1801SOL    HW2 5964   1.346   3.093   3.364
 1802SOL     OW 5965   0.813   1.860   2.368
 1802SOL    HW1 5966   0.854   1.945   2.352
 1802SOL    HW2 5967   0.720   1.879   2.377
 1803SOL     OW 5968   0.187   2.819   3.137
 1803SOL    HW1 5969   0.275   2.784   3.121
 1803SOL    HW2 5970   0.131   2.771   3.076
 1804SOL     OW 5971   1.532   2.854   2.058
 1804SOL    HW1 5972   1.463   2.795   2.088
 1804SOL    HW2 5973   1.571   2.887   2.139
 1805SOL     OW 5974   1.206   3.663   3.486
 1805SOL    HW1 5975   1.196   3.722   3.411
 1805SOL    HW2 5976   1.209   3.575   3.447
 1806SOL     OW 5977   0.335   2.109   3.673
 1806SOL    HW1 5978   0.379   2.194   3.680
 1806SOL    HW2 5979   0.245   2.127   3.698
 1807SOL     OW 5980   1.465   3.282   2.815
 1807SOL    HW1 5981   1.397   3.296   2.881
 1807SOL    HW2 5982   1.454   3.191   2.788
 1808SOL     OW 5983   1.659   3.595   2.441
 1808SOL    HW1 5984   1.640   3.566   2.352
 1808SOL    HW2 5985   1.634   3.521   2.496
 1809SOL     OW 5986   0.596   2.583   2.125
 1809SOL    HW1 5987   0.605   2.665   2.075
 1809SOL    HW2 5988   0.533   2.604   2.193
 1810SOL     OW 5989   1.279   2.212   2.795
 1810SOL    HW1 5990   1.191   2.177   2.803
 1810SOL    HW2 5991   1.332   2.158   2.854
 1811SOL     OW 5992   1.579   3.534   2.170
 1811SOL    HW1 5993   1.670   3.564   2.166
 1811SOL    HW2 5994   1.557   3.513   2.079
 1812SOL     OW 5995   0.793   2.479   3.316
 1812SOL    HW1 5996   0.765   2.456   3.404
 1812SOL    HW2 5997   0.750   2.413   3.260
 1813SOL     OW 5998   1.393   2.335   3.539
 1813SOL    HW1 5999   1.394   2.381   3.624
 1813SOL    HW2 6000   1.460   2.267   3.548
 1814SOL     OW 6001   0.958   2.750   3.443
 1814SOL    HW1 6002   1.012   2.679   3.409
 1814SOL    HW2 6003   0.910   2.783   3.366
 1815SOL     OW 6004   0.992   2.275   3.102
 1815SOL    HW1 6005   0.909   2.298   3.142
 1815SOL    HW2 6006   0.968   2.227   3.022
 1816SOL     OW 6007   1.050   2.561   2.289
 1816SOL    HW1 6008   1.064   2.554   2.383
 1816SOL    HW2 6009   0.968   2.513   2.274
 1817SOL     OW 6010   0.082   2.683   2.652
 1817SOL    HW1 6011   0.164   2.658   2.693
 1817SOL    HW2 6012   0.085   2.779   2.649
 1818SOL     OW 6013   0.128   3.708   3.434
 1818SOL    HW1 6014   0.134   3.679   3.525
 1818SOL    HW2 6015   0.035   3.699   3.412
 1819SOL     OW 6016   0.887   2.209   2.054
 1819SOL    HW1 6017   0.932   2.270   1.995
 1819SOL    HW2 6018   0.908   2.122   2.020
 1820SOL     OW 6019   1.686   2.448   3.693
 1820SOL    HW1 6020   1.658   2.520   3.635
 1820SOL    HW2 6021   1.729   2.386   3.635
 1821SOL     OW 6022   1.375   3.005   2.404
 1821SOL    HW1 6023   1.453   2.990   2.351
 1821SOL    HW2 6024   1.323   3.066   2.353
 1822SOL     OW 6025   0.546   2.044   2.754
 1822SOL    HW1 6026   0.551   2.073   2.845
 1822SOL    HW2 6027   0.549   2.125   2.703
 1823SOL     OW 6028   1.009   3.309   2.336
 1823SOL    HW1 6029   0.966   3.379   2.287
 1823SOL    HW2 6030   0.994   3.330   2.428
 1824SOL     OW 6031   0.358   3.667   2.718
 1824SOL    HW1 6032   0.432   3.606   2.725
 1824SOL    HW2 6033   0.398   3.753   2.726
 1825SOL     OW 6034   1.798   2.921   2.729
 1825SOL    HW1 6035   1.742   2.905   2.653
 1825SOL    HW2 6036   1.738   2.927   2.803
 1826SOL     OW 6037   1.228   3.400   3.373
 1826SOL    HW1 6038   1.214   3.327   3.434
 1826SOL    HW2 6039   1.165   3.385   3.302
 1827SOL     OW 6040   0.311   2.817   2.104
 1827SOL    HW1 6041   0.397   2.840   2.067
 1827SOL    HW2 6042   0.296   2.728   2.074
 1828SOL     OW 6043   1.475   2.601   2.590
 1828SOL    HW1 6044   1.465   2.555   2.674
 1828SOL    HW2 6045   1.552   2.656   2.603
 1829SOL     OW 6046   0.464   3.121   3.598
 1829SOL    HW1 6047   0.437   3.130   3.507
 1829SOL    HW2 6048   0.382   3.127   3.648
 1830SOL     OW 6049   1.113   3.642   2.087
 1830SOL    HW1 6050   1.052   3.593   2.143
 1830SOL    HW2 6051   1.141   3.578   2.021
 1831SOL     OW 6052   0.203   2.146   3.368
 1831SOL    HW1 6053   0.113   2.176   3.355
 1831SOL    HW2 6054   0.195   2.067   3.420
 1832SOL     OW 6055   1.629   3.241   1.950
 1832SOL    HW1 6056   1.588   3.326   1.933
 1832SOL    HW2 6057   1.560   3.178   1.930
 1833SOL     OW 6058   0.469   3.598   2.183
 1833SOL    HW1 6059   0.505   3.662   2.245
 1833SOL    HW2 6060   0.543   3.575   2.127
 1834SOL     OW 6061   1.398   1.970   2.290
 1834SOL    HW1 6062   1.381   1.945   2.199
 1834SOL    HW2 6063   1.493   1.966   2.299
 1835SOL     OW 6064   0.250   3.656   3.094
 1835SOL    HW1 6065   0.299   3.593   3.147
 1835SOL    HW2 6066   0.244   3.614   3.007
 1836SOL     OW 6067   0.938   3.560   2.764
 1836SOL    HW1 6068   1.015   3.507   2.783
 1836SOL    HW2 6069   0.892   3.512   2.696
 1837SOL     OW 6070   0.393   2.556   2.336
 1837SOL    HW1 6071   0.422   2.466   2.348
 1837SOL    HW2 6072   0.301   2.556   2.363
 1838SOL     OW 6073   1.539   2.086   3.587
 1838SOL    HW1 6074   1.548   2.109   3.679
 1838SOL    HW2 6075   1.469   2.021   3.585
 1839SOL     OW 6076   0.626   1.984   1.966
 1839SOL    HW1 6077   0.703   1.928   1.979
 1839SOL    HW2 6078   0.585   1.950   1.886
 1840SOL     OW 6079   0.768   2.137   3.614
 1840SOL    HW1 6080   0.841   2.076   3.621
 1840SOL    HW2 6081   0.718   2.126   3.695
 1841SOL     OW 6082   0.876   3.382   3.056
 1841SOL    HW1 6083   0.862   3.347   2.968
 1841SOL    HW2 6084   0.946   3.327   3.092
 1842SOL     OW 6085   1.342   2.450   3.294
 1842SOL    HW1 6086   1.372   2.419   3.379
 1842SOL    HW2 6087   1.377   2.539   3.288
 1843SOL     OW 6088   0.813   3.260   2.797
 1843SOL    HW1 6089   0.897   3.250   2.753
 1843SOL    HW2 6090   0.748   3.257   2.727
 1844SOL     OW 6091   0.927   2.371   2.766
 1844SOL    HW1 6092   0.904   2.363   2.673
 1844SOL    HW2 6093   0.960   2.285   2.790
 1845SOL     OW 6094   0.551   1.923   2.363
 1845SOL    HW1 6095   0.469   1.929   2.413
 1845SOL    HW2 6096   0.555   2.006   2.315
 1846SOL     OW 6097   1.428   3.060   1.903
 1846SOL    HW1 6098   1.460   2.984   1.952
 1846SOL    HW2 6099   1.342   3.079   1.940
 1847SOL     OW 6100   0.303   1.911   2.033
 1847SOL    HW1 6101   0.370   1.955   1.979
 1847SOL    HW2 6102   0.352   1.846   2.083
 1848SOL     OW 6103   0.936   2.105   2.327
 1848SOL    HW1 6104   0.904   2.148   2.248
 1848SOL    HW2 6105   1.031   2.120   2.325
 1849SOL     OW 6106   1.080   2.541   3.322
 1849SOL    HW1 6107   1.010   2.476   3.328
 1849SOL    HW2 6108   1.160   2.489   3.315
 1850SOL     OW 6109   1.225   3.431   2.655
 1850SOL    HW1 6110   1.243   3.500   2.591
 1850SOL    HW2 6111   1.292   3.442   2.722
 1851SOL     OW 6112   0.466   3.010   2.602
 1851SOL    HW1 6113   0.392   2.989   2.659
 1851SOL    HW2 6114   0.433   2.994   2.514
 1852SOL     OW 6115   1.271   3.659   2.466
 1852SOL    HW1 6116   1.314   3.723   2.409
 1852SOL    HW2 6117   1.203   3.709   2.511
 1853SOL     OW 6118   1.025   2.407   1.882
 1853SOL    HW1 6119   0.984   2.491   1.861
 1853SOL    HW2 6120   1.091   2.428   1.949
 1854SOL     OW 6121   0.078   2.432   3.252
 1854SOL    HW1 6122   0.168   2.418   3.221
 1854SOL    HW2 6123   0.086   2.500   3.318
 1855SOL     OW 6124   0.567   2.088   3.024
 1855SOL    HW1 6125   0.605   2.009   3.062
 1855SOL    HW2 6126   0.476   2.088   3.054
 1856SOL     OW 6127   0.870   2.321   2.502
 1856SOL    HW1 6128   0.821   2.375   2.439
 1856SOL    HW2 6129   0.888   2.240   2.456
 1857SOL     OW 6130   1.015   1.914   2.616
 1857SOL    HW1 6131   0.956   1.907   2.540
 1857SOL    HW2 6132   0.993   1.838   2.670
 1858SOL     OW 6133   1.436   3.026   2.720
 1858SOL    HW1 6134   1.369   2.958   2.718
 1858SOL    HW2 6135   1.459   3.039   2.628
 1859SOL     OW 6136   1.467   2.464   2.843
 1859SOL    HW1 6137   1.419   2.381   2.846
 1859SOL    HW2 6138   1.528   2.460   2.916
 1860SOL     OW 6139   1.848   2.681   2.244
 1860SOL    HW1 6140   1.904   2.628   2.300
 1860SOL    HW2 6141   1.815   2.621   2.177
 1861SOL     OW 6142   0.491   3.274   2.025
 1861SOL    HW1 6143   0.415   3.244   2.075
 1861SOL    HW2 6144   0.466   3.260   1.934
 1862SOL     OW 6145   1.668   3.127   2.511
 1862SOL    HW1 6146   1.763   3.133   2.523
 1862SOL    HW2 6147   1.636   3.215   2.532
 1863SOL     OW 6148   1.392   2.435   1.931
 1863SOL    HW1 6149   1.337   2.413   2.007
 1863SOL    HW2 6150   1.481   2.410   1.958
 1864SOL     OW 6151   0.572   2.130   2.188
 1864SOL    HW1 6152   0.593   2.079   2.110
 1864SOL    HW2 6153   0.538   2.213   2.154
 1865SOL     OW 6154   1.753   3.098   3.438
 1865SOL    HW1 6155   1.841   3.059   3.437
 1865SOL    HW2 6156   1.768   3.188   3.467
 1866SOL     OW 6157   1.061   3.215   3.196
 1866SOL    HW1 6158   0.986   3.184   3.248
 1866SOL    HW2 6159   1.137   3.174   3.238
 1867SOL     OW 6160   1.606   3.487   3.514
 1867SOL    HW1 6161   1.603   3.521   3.424
 1867SOL    HW2 6162   1.690   3.441   3.519
 1868SOL     OW 6163   1.125   3.063   2.969
 1868SOL    HW1 6164   1.068   3.102   3.035
 1868SOL    HW2 6165   1.091   3.094   2.885
 1869SOL     OW 6166   1.631   2.962   2.940
 1869SOL    HW1 6167   1.627   3.024   3.013
 1869SOL    HW2 6168   1.550   2.977   2.891
 1870SOL     OW 6169   0.918   1.960   3.261
 1870SOL    HW1 6170   0.941   1.941   3.170
 1870SOL    HW2 6171   0.997   2.000   3.298
 1871SOL     OW 6172   0.984   2.976   3.584
 1871SOL    HW1 6173   0.891   2.991   3.603
 1871SOL    HW2 6174   0.985   2.899   3.528
 1872SOL     OW 6175   0.707   2.921   2.233
 1872SOL    HW1 6176   0.694   2.908   2.327
 1872SOL    HW2 6177   0.784   2.868   2.212
 1873SOL     OW 6178   0.418   2.676   3.114
 1873SOL    HW1 6179   0.488   2.684   3.179
 1873SOL    HW2 6180   0.384   2.587   3.127
 1874SOL     OW 6181   1.267   2.240   3.135
 1874SOL    HW1 6182   1.299   2.317   3.181
 1874SOL    HW2 6183   1.178   2.262   3.109
 1875SOL     OW 6184   0.063   3.440   3.205
 1875SOL    HW1 6185   0.063   3.513   3.143
 1875SOL    HW2 6186   0.156   3.429   3.228
 1876SOL     OW 6187   0.376   2.964   2.350
 1876SOL    HW1 6188   0.368   3.041   2.294
 1876SOL    HW2 6189   0.374   2.890   2.289
 1877SOL     OW 6190   0.555   2.401   2.724
 1877SOL    HW1 6191   0.571   2.457   2.649
 1877SOL    HW2 6192   0.618   2.429   2.790
 1878SOL     OW 6193   1.248   3.210   2.251
 1878SOL    HW1 6194   1.303   3.281   2.282
 1878SOL    HW2 6195   1.161   3.230   2.285
 1879SOL     OW 6196   1.277   3.318   3.008
 1879SOL    HW1 6197   1.332   3.321   3.086
 1879SOL    HW2 6198   1.222   3.241   3.020
 1880SOL     OW 6199   1.580   2.485   2.337
 1880SOL    HW1 6200   1.540   2.545   2.399
 1880SOL    HW2 6201   1.627   2.542   2.276
 1881SOL     OW 6202   0.346   3.385   3.182
 1881SOL    HW1 6203   0.337   3.336   3.101
 1881SOL    HW2 6204   0.440   3.402   3.189
 1882SOL     OW 6205   0.411   2.604   3.463
 1882SOL    HW1 6206   0.472   2.651   3.406
 1882SOL    HW2 6207   0.454   2.520   3.479
 1883SOL     OW 6208   1.596   2.644   3.536
 1883SOL    HW1 6209   1.510   2.685   3.530
 1883SOL    HW2 6210   1.649   2.688   3.469
 1884SOL     OW 6211   0.997   1.980   3.619
 1884SOL    HW1 6212   1.048   2.054   3.586
 1884SOL    HW2 6213   1.046   1.902   3.592
 1885SOL     OW 6214   0.499   1.903   3.605
 1885SOL    HW1 6215   0.457   1.848   3.539
 1885SOL    HW2 6216   0.440   1.977   3.616
 1886SOL     OW 6217   0.583   2.734   2.893
 1886SOL    HW1 6218   0.614   2.825   2.890
 1886SOL    HW2 6219   0.527   2.731   2.970
 1887SOL     OW 6220   1.361   2.721   2.895
 1887SOL    HW1 6221   1.279   2.714   2.845
 1887SOL    HW2 6222   1.398   2.633   2.893
 1888SOL     OW 6223   1.207   2.391   2.132
 1888SOL    HW1 6224   1.214   2.313   2.186
 1888SOL    HW2 6225   1.165   2.456   2.188
 1889SOL     OW 6226   0.312   2.063   3.109
 1889SOL    HW1 6227   0.267   2.100   3.185
 1889SOL    HW2 6228   0.286   1.971   3.108
 1890SOL     OW 6229   0.055   3.166   3.142
 1890SOL    HW1 6230   0.089   3.128   3.223
 1890SOL    HW2 6231   0.050   3.260   3.159
 1891SOL     OW 6232   0.727   2.495   2.922
 1891SOL    HW1 6233   0.799   2.476   2.863
 1891SOL    HW2 6234   0.699   2.583   2.899
 1892SOL     OW 6235   1.732   2.823   3.711
 1892SOL    HW1 6236   1.686   2.763   3.652
 1892SOL    HW2 6237   1.673   2.832   3.786
 1893SOL     OW 6238   0.309   1.927   2.484
 1893SOL    HW1 6239   0.292   2.018   2.506
 1893SOL    HW2 6240   0.312   1.881   2.568
 1894SOL     OW 6241   1.608   2.233   2.237
 1894SOL    HW1 6242   1.625   2.182   2.316
 1894SOL    HW2 6243   1.587   2.321   2.269
 1895SOL     OW 6244   1.027   2.622   2.824
 1895SOL    HW1 6245   1.027   2.639   2.918
 1895SOL    HW2 6246   1.000   2.530   2.817
 1896SOL     OW 6247   0.984   3.429   3.577
 1896SOL    HW1 6248   0.967   3.472   3.494
 1896SOL    HW2 6249   1.026   3.346   3.553
 1897SOL     OW 6250   1.856   3.371   3.468
 1897SOL    HW1 6251   1.873   3.397   3.377
 1897SOL    HW2 6252   1.937   3.392   3.514
 1898SOL     OW 6253   0.351   2.781   3.665
 1898SOL    HW1 6254   0.430   2.801   3.713
 1898SOL    HW2 6255   0.378   2.716   3.599
 1899SOL     OW 6256   1.531   2.133   1.989
 1899SOL    HW1 6257   1.465   2.070   2.018
 1899SOL    HW2 6258   1.563   2.173   2.070
 1900SOL     OW 6259   1.294   2.690   1.895
 1900SOL    HW1 6260   1.336   2.604   1.898
 1900SOL    HW2 6261   1.325   2.728   1.813
 1901SOL     OW 6262   1.064   3.197   2.714
 1901SOL    HW1 6263   1.068   3.124   2.653
 1901SOL    HW2 6264   1.128   3.260   2.680
 1902SOL     OW 6265   0.314   2.670   2.813
 1902SOL    HW1 6266   0.408   2.688   2.807
 1902SOL    HW2 6267   0.309   2.580   2.847
 1903SOL     OW 6268   0.333   2.380   2.874
 1903SOL    HW1 6269   0.298   2.293   2.856
 1903SOL    HW2 6270   0.408   2.388   2.816
 1904SOL     OW 6271   1.135   2.240   3.542
 1904SOL    HW1 6272   1.089   2.295   3.605
 1904SOL    HW2 6273   1.223   2.276   3.538
 1905SOL     OW 6274   1.160   2.066   3.332
 1905SOL    HW1 6275   1.151   2.129   3.404
 1905SOL    HW2 6276   1.197   2.118   3.260
 1906SOL     OW 6277   3.999   3.184   2.044
 1906SOL    HW1 6278   3.905   3.199   2.048
 1906SOL    HW2 6279   0.009   3.091   2.065
 1907SOL     OW 6280   0.075   3.663   2.756
 1907SOL    HW1 6281   0.082   3.568   2.763
 1907SOL    HW2 6282   0.166   3.693   2.752
 1908SOL     OW 6283   0.506   3.429   2.773
 1908SOL    HW1 6284   0.574   3.494   2.796
 1908SOL    HW2 6285   0.551   3.367   2.716
 1909SOL     OW 6286   0.987   2.656   3.090
 1909SOL    HW1 6287   1.041   2.631   3.166
 1909SOL    HW2 6288   0.901   2.620   3.108
 1910SOL     OW 6289   0.038   2.414   2.973
 1910SOL    HW1 6290   0.119   2.387   2.931
 1910SOL    HW2 6291   0.058   2.413   3.066
 1911SOL     OW 6292   0.205   2.376   3.588
 1911SOL    HW1 6293   0.251   2.336   3.514
 1911SOL    HW2 6294   0.153   2.446   3.548
 1912SOL     OW 6295   1.374   2.805   3.521
 1912SOL    HW1 6296   1.396   2.898   3.521
 1912SOL    HW2 6297   1.372   2.780   3.428
 1913SOL     OW 6298   0.816   2.431   2.216
 1913SOL    HW1 6299   0.818   2.354   2.159
 1913SOL    HW2 6300   0.741   2.482   2.186
 1914SOL     OW 6301   1.643   2.464   3.051
 1914SOL    HW1 6302   1.631   2.408   3.127
 1914SOL    HW2 6303   1.729   2.440   3.016
 1915SOL     OW 6304   0.294   3.410   3.596
 1915SOL    HW1 6305   0.242   3.480   3.638
 1915SOL    HW2 6306   0.258   3.329   3.632
 1916SOL     OW 6307   0.694   2.316   3.125
 1916SOL    HW1 6308   0.646   2.240   3.092
 1916SOL    HW2 6309   0.694   2.378   3.052
 1917SOL     OW 6310   0.932   3.536   3.328
 1917SOL    HW1 6311   0.904   3.505   3.242
 1917SOL    HW2 6312   0.927   3.632   3.321
 1918SOL     OW 6313   0.463   2.354   2.053
 1918SOL    HW1 6314   0.526   2.423   2.071
 1918SOL    HW2 6315   0.381   2.400   2.037
 1919SOL     OW 6316   0.157   2.999   3.334
 1919SOL    HW1 6317   0.163   2.946   3.413
 1919SOL    HW2 6318   0.172   2.936   3.263
 1920SOL     OW 6319   1.329   2.911   3.087
 1920SOL    HW1 6320   1.353   2.848   3.019
 1920SOL    HW2 6321   1.256   2.961   3.049
 1921SOL     OW 6322   1.308   2.718   2.170
 1921SOL    HW1 6323   1.231   2.688   2.217
 1921SOL    HW2 6324   1.286   2.705   2.077
 1922SOL     OW 6325   1.765   3.609   3.009
 1922SOL    HW1 6326   1.828   3.635   2.941
 1922SOL    HW2 6327   1.745   3.518   2.988
 1923SOL     OW 6328   1.243   3.596   2.978
 1923SOL    HW1 6329   1.325   3.613   2.932
 1923SOL    HW2 6330   1.245   3.502   2.997
 1924SOL     OW 6331   0.075   3.079   2.888
 1924SOL    HW1 6332   0.082   3.105   2.980
 1924SOL    HW2 6333   3.982   3.085   2.869
 1925SOL     OW 6334   0.679   3.524   3.586
 1925SOL    HW1 6335   0.625   3.603   3.589
 1925SOL    HW2 6336   0.738   3.538   3.512
 1926SOL     OW 6337   1.389   3.431   2.345
 1926SOL    HW1 6338   1.450   3.462   2.278
 1926SOL    HW2 6339   1.343   3.509   2.374
 1927SOL     OW 6340   0.165   3.631   3.692
 1927SOL    HW1 6341   0.107   3.581   3.749
 1927SOL    HW2 6342   0.212   3.689   3.752
 1928SOL     OW 6343   1.277   2.787   2.533
 1928SOL    HW1 6344   1.350   2.725   2.538
 1928SOL    HW2 6345   1.311   2.860   2.481
 1929SOL     OW 6346   0.818   3.134   3.294
 1929SOL    HW1 6347   0.792   3.173   3.377
 1929SOL    HW2 6348   0.747   3.155   3.234
 1930SOL     OW 6349   0.675   3.475   2.018
 1930SOL    HW1 6350   0.681   3.490   1.924
 1930SOL    HW2 6351   0.619   3.397   2.027
 1931SOL     OW 6352   1.631   3.587   3.253
 1931SOL    HW1 6353   1.680   3.595   3.171
 1931SOL    HW2 6354   1.618   3.678   3.282
 1932SOL     OW 6355   0.269   2.178   2.580
 1932SOL    HW1 6356   0.185   2.215   2.554
 1932SOL    HW2 6357   0.261   2.167   2.675
 1933SOL     OW 6358   1.205   3.470   1.896
 1933SOL    HW1 6359   1.197   3.378   1.920
 1933SOL    HW2 6360   1.144   3.481   1.823
 1934SOL     OW 6361   0.824   2.868   3.234
 1934SOL    HW1 6362   0.867   2.864   3.149
 1934SOL    HW2 6363   0.825   2.960   3.258
 1935SOL     OW 6364   0.915   2.772   2.151
 1935SOL    HW1 6365   0.977   2.804   2.085
 1935SOL    HW2 6366   0.962   2.701   2.196
 1936SOL     OW 6367   1.493   3.488   1.903
 1936SOL    HW1 6368   1.399   3.481   1.890
 1936SOL    HW2 6369   1.530   3.493   1.815
 1937SOL     OW 6370   0.373   3.163   3.353
 1937SOL    HW1 6371   0.358   3.244   3.304
 1937SOL    HW2 6372   0.295   3.110   3.336
 1938SOL     OW 6373   1.612   3.145   3.143
 1938SOL    HW1 6374   1.671   3.137   3.218
 1938SOL    HW2 6375   1.551   3.215   3.168
 1939SOL     OW 6376   1.048   2.967   2.567
 1939SOL    HW1 6377   0.978   2.916   2.607
 1939SOL    HW2 6378   1.109   2.902   2.533
 1940SOL     OW 6379   1.020   2.102   2.828
 1940SOL    HW1 6380   1.015   2.054   2.745
 1940SOL    HW2 6381   1.015   2.034   2.895
 1941SOL     OW 6382   0.602   3.352   2.344
 1941SOL    HW1 6383   0.642   3.301   2.274
 1941SOL    HW2 6384   0.536   3.406   2.299
 1942SOL     OW 6385   1.720   2.252   3.239
 1942SOL    HW1 6386   1.794   2.314   3.244
 1942SOL    HW2 6387   1.750   2.185   3.178
 1943SOL     OW 6388   0.252   3.204   2.151
 1943SOL    HW1 6389   0.159   3.216   2.130
 1943SOL    HW2 6390   0.262   3.243   2.238
 1944SOL     OW 6391   0.104   2.863   3.581
 1944SOL    HW1 6392   0.043   2.850   3.653
 1944SOL    HW2 6393   0.190   2.842   3.619
 1945SOL     OW 6394   0.673   2.058   3.360
 1945SOL    HW1 6395   0.756   2.040   3.318
 1945SOL    HW2 6396   0.696   2.087   3.449
 1946SOL     OW 6397   0.080   2.184   1.898
 1946SOL    HW1 6398   3.984   2.182   1.901
 1946SOL    HW2 6399   0.101   2.264   1.850
 1947SOL     OW 6400   1.432   2.721   3.264
 1947SOL    HW1 6401   1.384   2.781   3.206
 1947SOL    HW2 6402   1.522   2.724   3.231
 1948SOL     OW 6403   0.029   2.076   2.225
 1948SOL    HW1 6404   0.048   2.146   2.162
 1948SOL    HW2 6405   0.114   2.043   2.252
 1949SOL     OW 6406   1.180   3.204   1.979
 1949SOL    HW1 6407   1.088   3.174   1.982
 1949SOL    HW2 6408   1.208   3.202   2.070
 1950SOL     OW 6409   0.618   2.693   3.296
 1950SOL    HW1 6410   0.673   2.770   3.281
 1950SOL    HW2 6411   0.679   2.620   3.304
 1951SOL     OW 6412   1.486   3.638   2.838
 1951SOL    HW1 6413   1.513   3.691   2.764
 1951SOL    HW2 6414   1.567   3.620   2.886
 1952SOL     OW 6415   0.716   2.427   3.569
 1952SOL    HW1 6416   0.754   2.491   3.629
 1952SOL    HW2 6417   0.752   2.343   3.597
 1953SOL     OW 6418   1.469   3.065   3.495
 1953SOL    HW1 6419   1.457   3.078   3.589
 1953SOL    HW2 6420   1.563   3.077   3.481
 1954SOL     OW 6421   0.380   3.603   3.421
 1954SOL    HW1 6422   0.293   3.640   3.408
 1954SOL    HW2 6423   0.366   3.522   3.469
 1955SOL     OW 6424   1.672   2.744   3.117
 1955SOL    HW1 6425   1.662   2.659   3.074
 1955SOL    HW2 6426   1.663   2.808   3.046
 1956SOL     OW 6427   1.218   2.182   2.319
 1956SOL    HW1 6428   1.281   2.111   2.311
 1956SOL    HW2 6429   1.246   2.230   2.397
 1957SOL     OW 6430   0.591   2.603   2.529
 1957SOL    HW1 6431   0.630   2.688   2.513
 1957SOL    HW2 6432   0.521   2.595   2.465
 1958SOL     OW 6433   1.760   2.233   3.515
 1958SOL    HW1 6434   1.749   2.240   3.420
 1958SOL    HW2 6435   1.689   2.175   3.543
 1959SOL     OW 6436   1.744   2.797   3.373
 1959SOL    HW1 6437   1.746   2.892   3.386
 1959SOL    HW2 6438   1.729   2.786   3.279
 1960SOL     OW 6439   0.864   3.231   1.893
 1960SOL    HW1 6440   0.822   3.257   1.975
 1960SOL    HW2 6441   0.881   3.313   1.847
 1961SOL     OW 6442   0.658   3.655   2.806
 1961SOL    HW1 6443   0.634   3.745   2.785
 1961SOL    HW2 6444   0.753   3.653   2.801
 1962SOL     OW 6445   0.866   2.826   2.718
 1962SOL    HW1 6446   0.917   2.756   2.759
 1962SOL    HW2 6447   0.833   2.878   2.791
 1963SOL     OW 6448   1.079   2.849   1.950
 1963SOL    HW1 6449   1.059   2.900   1.872
 1963SOL    HW2 6450   1.155   2.797   1.925
 1964SOL     OW 6451   1.856   3.417   2.706
 1964SOL    HW1 6452   1.778   3.406   2.652
 1964SOL    HW2 6453   1.848   3.351   2.774
 1965SOL     OW 6454   0.222   3.166   3.716
 1965SOL    HW1 6455   0.152   3.105   3.692
 1965SOL    HW2 6456   0.211   3.180   3.810
 1966SOL     OW 6457   0.109   3.133   2.576
 1966SOL    HW1 6458   0.113   3.080   2.655
 1966SOL    HW2 6459   0.116   3.070   2.504
 1967SOL     OW 6460   0.679   3.262   3.488
 1967SOL    HW1 6461   0.599   3.220   3.518
 1967SOL    HW2 6462   0.675   3.351   3.525
 1968SOL     OW 6463   0.440   2.296   2.393
 1968SOL    HW1 6464   0.445   2.226   2.328
 1968SOL    HW2 6465   0.386   2.260   2.463
 1969SOL     OW 6466   1.702   3.352   2.961
 1969SOL    HW1 6467   1.620   3.326   2.919
 1969SOL    HW2 6468   1.717   3.285   3.027
 1970SOL     OW 6469   0.329   2.414   3.152
 1970SOL    HW1 6470   0.385   2.359   3.207
 1970SOL    HW2 6471   0.348   2.386   3.063
 1971SOL     OW 6472   0.824   3.441   2.541
 1971SOL    HW1 6473   0.820   3.483   2.456
 1971SOL    HW2 6474   0.747   3.385   2.545
 1972SOL     OW 6475   1.437   2.088   2.981
 1972SOL    HW1 6476   1.456   2.005   3.024
 1972SOL    HW2 6477   1.381   2.135   3.044
 1973SOL     OW 6478   1.008   1.882   3.007
 1973SOL    HW1 6479   0.954   1.813   2.969
 1973SOL    HW2 6480   1.096   1.845   3.009
 1974SOL     OW 6481   0.771   3.194   2.174
 1974SOL    HW1 6482   0.737   3.104   2.180
 1974SOL    HW2 6483   0.854   3.191   2.221
 1975SOL     OW 6484   0.620   3.420   3.145
 1975SOL    HW1 6485   0.622   3.501   3.197
 1975SOL    HW2 6486   0.707   3.413   3.107
 1976SOL     OW 6487   1.351   1.914   2.027
 1976SOL    HW1 6488   1.376   1.858   1.953
 1976SOL    HW2 6489   1.264   1.881   2.053
 1977SOL     OW 6490   1.298   2.321   2.545
 1977SOL    HW1 6491   1.244   2.400   2.553
 1977SOL    HW2 6492   1.295   2.281   2.632
 1978SOL     OW 6493   1.578   2.062   2.731
 1978SOL    HW1 6494   1.531   2.083   2.812
 1978SOL    HW2 6495   1.590   2.147   2.688
 1979SOL     OW 6496   0.043   2.916   2.103
 1979SOL    HW1 6497   0.137   2.900   2.095
 1979SOL    HW2 6498   0.009   2.837   2.146
 1980SOL     OW 6499   0.881   3.514   2.208
 1980SOL    HW1 6500   0.811   3.494   2.145
 1980SOL    HW2 6501   0.850   3.591   2.255
 1981SOL     OW 6502   0.231   2.482   3.846
 1981SOL    HW1 6503   0.138   2.493   3.866
 1981SOL    HW2 6504   0.233   2.455   3.754
 1982SOL     OW 6505   0.228   2.132   4.711
 1982SOL    HW1 6506   0.250   2.103   4.800
 1982SOL    HW2 6507   0.133   2.121   4.704
 1983SOL     OW 6508   0.013   2.228   4.359
 1983SOL    HW1 6509   3.928   2.246   4.399
 1983SOL    HW2 6510   3.993   2.186   4.276
 1984SOL     OW 6511   0.574   3.141   4.903
 1984SOL    HW1 6512   0.487   3.146   4.862
 1984SOL    HW2 6513   0.590   3.228   4.937
 1985SOL     OW 6514   1.557   3.373   4.430
 1985SOL    HW1 6515   1.514   3.355   4.513
 1985SOL    HW2 6516   1.486   3.378   4.366
 1986SOL     OW 6517   1.129   2.561   4.428
 1986SOL    HW1 6518   1.180   2.641   4.413
 1986SOL    HW2 6519   1.083   2.577   4.510
 1987SOL     OW 6520   1.754   2.475   3.957
 1987SOL    HW1 6521   1.743   2.466   3.862
 1987SOL    HW2 6522   1.743   2.386   3.991
 1988SOL     OW 6523   0.760   3.005   4.760
 1988SOL    HW1 6524   0.691   3.038   4.819
 1988SOL    HW2 6525   0.793   3.084   4.716
 1989SOL     OW 6526   0.861   2.643   5.545
 1989SOL    HW1 6527   0.852   2.715   5.607
 1989SOL    HW2 6528   0.886   2.685   5.462
 1990SOL     OW 6529   0.686   2.869   4.373
 1990SOL    HW1 6530   0.750   2.854   4.443
 1990SOL    HW2 6531   0.616   2.919   4.415
 1991SOL     OW 6532   0.707   3.013   5.534
 1991SOL    HW1 6533   0.755   3.093   5.558
 1991SOL    HW2 6534   0.624   3.045   5.500
 1992SOL     OW 6535   0.351   3.266   4.802
 1992SOL    HW1 6536   0.268   3.253   4.756
 1992SOL    HW2 6537   0.400   3.327   4.747
 1993SOL     OW 6538   1.461   3.360   5.074
 1993SOL    HW1 6539   1.507   3.444   5.085
 1993SOL    HW2 6540   1.406   3.352   5.152
 1994SOL     OW 6541   0.449   2.263   5.218
 1994SOL    HW1 6542   0.523   2.202   5.218
 1994SOL    HW2 6543   0.372   2.207   5.227
 1995SOL     OW 6544   1.610   2.310   4.461
 1995SOL    HW1 6545   1.533   2.338   4.412
 1995SOL    HW2 6546   1.634   2.386   4.513
 1996SOL     OW 6547   0.227   3.572   4.192
 1996SOL    HW1 6548   0.237   3.650   4.247
 1996SOL    HW2 6549   0.302   3.575   4.133
 1997SOL     OW 6550   1.136   3.203   5.415
 1997SOL    HW1 6551   1.176   3.199   5.502
 1997SOL    HW2 6552   1.083   3.123   5.410
 1998SOL     OW 6553   0.243   3.304   4.262
 1998SOL    HW1 6554   0.217   3.396   4.252
 1998SOL    HW2 6555   0.174   3.266   4.316
 1999SOL     OW 6556   0.245   2.934   4.608
 1999SOL    HW1 6557   0.262   2.851   4.653
 1999SOL    HW2 6558   0.194   2.985   4.671
 2000SOL     OW 6559   0.615   3.649   5.155
 2000SOL    HW1 6560   0.532   3.634   5.200
 2000SOL    HW2 6561   0.640   3.738   5.180
 2001SOL     OW 6562   0.586   2.843   3.858
 2001SOL    HW1 6563   0.629   2.893   3.788
 2001SOL    HW2 6564   0.629   2.871   3.938
 2002SOL     OW 6565   1.597   1.986   5.192
 2002SOL    HW1 6566   1.578   2.067   5.144
 2002SOL    HW2 6567   1.588   2.011   5.284
 2003SOL     OW 6568   0.140   2.507   4.298
 2003SOL    HW1 6569   0.084   2.429   4.299
 2003SOL    HW2 6570   0.104   2.563   4.367
 2004SOL     OW 6571   1.840   3.618   4.063
 2004SOL    HW1 6572   1.902   3.592   4.131
 2004SOL    HW2 6573   1.866   3.707   4.040
 2005SOL     OW 6574   0.041   3.455   3.864
 2005SOL    HW1 6575   0.029   3.363   3.884
 2005SOL    HW2 6576   3.966   3.498   3.905
 2006SOL     OW 6577   1.690   2.781   4.362
 2006SOL    HW1 6578   1.774   2.740   4.342
 2006SOL    HW2 6579   1.669   2.831   4.282
 2007SOL     OW 6580   1.645   2.970   4.154
 2007SOL    HW1 6581   1.730   2.978   4.111
 2007SOL    HW2 6582   1.650   3.030   4.228
 2008SOL     OW 6583   0.130   2.611   5.316
 2008SOL    HW1 6584   0.226   2.606   5.325
 2008SOL    HW2 6585   0.111   2.705   5.324
 2009SOL     OW 6586   0.612   3.244   4.458
 2009SOL    HW1 6587   0.566   3.161   4.468
 2009SOL    HW2 6588   0.595   3.271   4.368
 2010SOL     OW 6589   1.290   3.100   5.148
 2010SOL    HW1 6590   1.323   3.033   5.089
 2010SOL    HW2 6591   1.346   3.093   5.226
 2011SOL     OW 6592   0.813   1.860   4.230
 2011SOL    HW1 6593   0.854   1.945   4.214
 2011SOL    HW2 6594   0.720   1.879   4.239
 2012SOL     OW 6595   0.187   2.819   4.999
 2012SOL    HW1 6596   0.275   2.784   4.983
 2012SOL    HW2 6597   0.131   2.771   4.938
 2013SOL     OW 6598   1.532   2.854   3.920
 2013SOL    HW1 6599   1.463   2.795   3.949
 2013SOL    HW2 6600   1.571   2.887   4.001
 2014SOL     OW 6601   1.206   3.663   5.348
 2014SOL    HW1 6602   1.196   3.722   5.273
 2014SOL    HW2 6603   1.209   3.575   5.309
 2015SOL     OW 6604   0.335   2.110   5.536
 2015SOL    HW1 6605   0.379   2.195   5.541
 2015SOL    HW2 6606   0.245   2.127   5.560
 2016SOL     OW 6607   1.465   3.282   4.677
 2016SOL    HW1 6608   1.397   3.296   4.743
 2016SOL    HW2 6609   1.454   3.191   4.650
 2017SOL     OW 6610   1.659   3.595   4.303
 2017SOL    HW1 6611   1.640   3.566   4.214
 2017SOL    HW2 6612   1.634   3.521   4.358
 2018SOL     OW 6613   0.596   2.583   3.987
 2018SOL    HW1 6614   0.605   2.664   3.937
 2018SOL    HW2 6615   0.533   2.604   4.055
 2019SOL     OW 6616   1.279   2.212   4.657
 2019SOL    HW1 6617   1.191   2.177   4.665
 2019SOL    HW2 6618   1.332   2.158   4.716
 2020SOL     OW 6619   1.579   3.534   4.032
 2020SOL    HW1 6620   1.670   3.564   4.028
 2020SOL    HW2 6621   1.557   3.513   3.941
 2021SOL     OW 6622   0.793   2.479   5.177
 2021SOL    HW1 6623   0.765   2.456   5.266
 2021SOL    HW2 6624   0.750   2.413   5.122
 2022SOL     OW 6625   1.393   2.335   5.401
 2022SOL    HW1 6626   1.394   2.381   5.485
 2022SOL    HW2 6627   1.460   2.266   5.410
 2023SOL     OW 6628   0.957   2.750   5.305
 2023SOL    HW1 6629   1.012   2.679   5.271
 2023SOL    HW2 6630   0.910   2.783   5.228
 2024SOL     OW 6631   0.992   2.275   4.964
 2024SOL    HW1 6632   0.909   2.298   5.004
 2024SOL    HW2 6633   0.968   2.227   4.884
 2025SOL     OW 6634   1.049   2.561   4.151
 2025SOL    HW1 6635   1.064   2.554   4.245
 2025SOL    HW2 6636   0.968   2.513   4.135
 2026SOL     OW 6637   0.082   2.683   4.514
 2026SOL    HW1 6638   0.164   2.658   4.555
 2026SOL    HW2 6639   0.085   2.779   4.511
 2027SOL     OW 6640   0.128   3.708   5.296
 2027SOL    HW1 6641   0.134   3.679   5.387
 2027SOL    HW2 6642   0.035   3.699   5.274
 2028SOL     OW 6643   0.887   2.209   3.916
 2028SOL    HW1 6644   0.932   2.270   3.857
 2028SOL    HW2 6645   0.908   2.122   3.882
 2029SOL     OW 6646   1.681   2.445   5.555
 2029SOL    HW1 6647   1.657   2.518   5.498
 2029SOL    HW2 6648   1.729   2.385   5.498
 2030SOL     OW 6649   1.375   3.005   4.266
 2030SOL    HW1 6650   1.453   2.990   4.213
 2030SOL    HW2 6651   1.323   3.066   4.215
 2031SOL     OW 6652   0.546   2.044   4.616
 2031SOL    HW1 6653   0.551   2.073   4.707
 2031SOL    HW2 6654   0.549   2.125   4.565
 2032SOL     OW 6655   1.009   3.309   4.198
 2032SOL    HW1 6656   0.966   3.379   4.149
 2032SOL    HW2 6657   0.994   3.330   4.290
 2033SOL     OW 6658   0.358   3.667   4.580
 2033SOL    HW1 6659   0.432   3.606   4.587
 2033SOL    HW2 6660   0.398   3.753   4.588
 2034SOL     OW 6661   1.798   2.921   4.591
 2034SOL    HW1 6662   1.742   2.905   4.515
 2034SOL    HW2 6663   1.738   2.927   4.665
 2035SOL     OW 6664   1.228   3.400   5.235
 2035SOL    HW1 6665   1.214   3.327   5.296
 2035SOL    HW2 6666   1.165   3.385   5.164
 2036SOL     OW 6667   0.311   2.817   3.966
 2036SOL    HW1 6668   0.397   2.840   3.929
 2036SOL    HW2 6669   0.296   2.728   3.936
 2037SOL     OW 6670   1.475   2.601   4.452
 2037SOL    HW1 6671   1.465   2.555   4.536
 2037SOL    HW2 6672   1.553   2.656   4.465
 2038SOL     OW 6673   0.464   3.120   5.460
 2038SOL    HW1 6674   0.437   3.130   5.369
 2038SOL    HW2 6675   0.383   3.127   5.510
 2039SOL     OW 6676   1.113   3.642   3.949
 2039SOL    HW1 6677   1.052   3.593   4.005
 2039SOL    HW2 6678   1.141   3.578   3.883
 2040SOL     OW 6679   0.203   2.147   5.230
 2040SOL    HW1 6680   0.113   2.176   5.217
 2040SOL    HW2 6681   0.195   2.066   5.282
 2041SOL     OW 6682   1.629   3.241   3.812
 2041SOL    HW1 6683   1.588   3.326   3.795
 2041SOL    HW2 6684   1.560   3.178   3.792
 2042SOL     OW 6685   0.469   3.598   4.045
 2042SOL    HW1 6686   0.505   3.662   4.107
 2042SOL    HW2 6687   0.543   3.575   3.989
 2043SOL     OW 6688   1.398   1.970   4.152
 2043SOL    HW1 6689   1.381   1.945   4.061
 2043SOL    HW2 6690   1.493   1.965   4.161
 2044SOL     OW 6691   0.250   3.656   4.956
 2044SOL    HW1 6692   0.299   3.593   5.009
 2044SOL    HW2 6693   0.244   3.614   4.869
 2045SOL     OW 6694   0.938   3.560   4.626
 2045SOL    HW1 6695   1.015   3.507   4.645
 2045SOL    HW2 6696   0.892   3.512   4.558
 2046SOL     OW 6697   0.393   2.556   4.198
 2046SOL    HW1 6698   0.422   2.466   4.210
 2046SOL    HW2 6699   0.301   2.556   4.225
 2047SOL     OW 6700   1.538   2.086   5.450
 2047SOL    HW1 6701   1.546   2.109   5.542
 2047SOL    HW2 6702   1.469   2.020   5.447
 2048SOL     OW 6703   0.626   1.984   3.828
 2048SOL    HW1 6704   0.703   1.928   3.841
 2048SOL    HW2 6705   0.585   1.950   3.748
 2049SOL     OW 6706   0.769   2.140   5.477
 2049SOL    HW1 6707   0.841   2.077   5.483
 2049SOL    HW2 6708   0.715   2.121   5.555
 2050SOL     OW 6709   0.876   3.382   4.918
 2050SOL    HW1 6710   0.862   3.347   4.830
 2050SOL    HW2 6711   0.946   3.327   4.954
 2051SOL     OW 6712   1.342   2.451   5.156
 2051SOL    HW1 6713   1.372   2.418   5.241
 2051SOL    HW2 6714   1.377   2.539   5.150
 2052SOL     OW 6715   0.813   3.260   4.659
 2052SOL    HW1 6716   0.897   3.250   4.615
 2052SOL    HW2 6717   0.748   3.257   4.589
 2053SOL     OW 6718   0.927   2.371   4.628
 2053SOL    HW1 6719   0.904   2.363   4.535
 2053SOL    HW2 6720   0.960   2.285   4.652
 2054SOL     OW 6721   0.551   1.923   4.225
 2054SOL    HW1 6722   0.469   1.929   4.275
 2054SOL    HW2 6723   0.555   2.006   4.177
 2055SOL     OW 6724   1.428   3.060   3.765
 2055SOL    HW1 6725   1.460   2.984   3.814
 2055SOL    HW2 6726   1.342   3.079   3.802
 2056SOL     OW 6727   0.303   1.911   3.895
 2056SOL    HW1 6728   0.370   1.955   3.841
 2056SOL    HW2 6729   0.352   1.846   3.945
 2057SOL     OW 6730   0.936   2.105   4.189
 2057SOL    HW1 6731   0.904   2.148   4.110
 2057SOL    HW2 6732   1.031   2.120   4.187
 2058SOL     OW 6733   1.080   2.541   5.184
 2058SOL    HW1 6734   1.010   2.476   5.189
 2058SOL    HW2 6735   1.160   2.489   5.176
 2059SOL     OW 6736   1.225   3.431   4.517
 2059SOL    HW1 6737   1.243   3.500   4.453
 2059SOL    HW2 6738   1.292   3.442   4.584
 2060SOL     OW 6739   0.466   3.010   4.464
 2060SOL    HW1 6740   0.392   2.989   4.521
 2060SOL    HW2 6741   0.433   2.994   4.376
 2061SOL     OW 6742   1.271   3.659   4.328
 2061SOL    HW1 6743   1.314   3.723   4.271
 2061SOL    HW2 6744   1.203   3.709   4.373
 2062SOL     OW 6745   1.025   2.407   3.744
 2062SOL    HW1 6746   0.984   2.491   3.723
 2062SOL    HW2 6747   1.091   2.428   3.811
 2063SOL     OW 6748   0.079   2.431   5.114
 2063SOL    HW1 6749   0.168   2.418   5.083
 2063SOL    HW2 6750   0.086   2.500   5.180
 2064SOL     OW 6751   0.567   2.088   4.886
 2064SOL    HW1 6752   0.605   2.009   4.924
 2064SOL    HW2 6753   0.476   2.087   4.916
 2065SOL     OW 6754   0.870   2.321   4.364
 2065SOL    HW1 6755   0.821   2.375   4.301
 2065SOL    HW2 6756   0.888   2.240   4.318
 2066SOL     OW 6757   1.015   1.914   4.478
 2066SOL    HW1 6758   0.956   1.907   4.402
 2066SOL    HW2 6759   0.993   1.838   4.532
 2067SOL     OW 6760   1.436   3.026   4.582
 2067SOL    HW1 6761   1.368   2.958   4.580
 2067SOL    HW2 6762   1.459   3.039   4.490
 2068SOL     OW 6763   1.467   2.464   4.705
 2068SOL    HW1 6764   1.420   2.381   4.708
 2068SOL    HW2 6765   1.528   2.460   4.778
 2069SOL     OW 6766   1.847   2.681   4.106
 2069SOL    HW1 6767   1.904   2.628   4.162
 2069SOL    HW2 6768   1.816   2.621   4.039
 2070SOL     OW 6769   0.491   3.274   3.887
 2070SOL    HW1 6770   0.415   3.244   3.937
 2070SOL    HW2 6771   0.466   3.260   3.796
 2071SOL     OW 6772   1.668   3.127   4.373
 2071SOL    HW1 6773   1.763   3.133   4.385
 2071SOL    HW2 6774   1.636   3.215   4.394
 2072SOL     OW 6775   1.392   2.435   3.793
 2072SOL    HW1 6776   1.338   2.413   3.869
 2072SOL    HW2 6777   1.481   2.411   3.819
 2073SOL     OW 6778   0.572   2.130   4.050
 2073SOL    HW1 6779   0.593   2.079   3.972
 2073SOL    HW2 6780   0.538   2.213   4.016
 2074SOL     OW 6781   1.754   3.098   5.300
 2074SOL    HW1 6782   1.841   3.059   5.298
 2074SOL    HW2 6783   1.768   3.188   5.329
 2075SOL     OW 6784   1.060   3.215   5.058
 2075SOL    HW1 6785   0.986   3.184   5.110
 2075SOL    HW2 6786   1.137   3.174   5.100
 2076SOL     OW 6787   1.606   3.487   5.376
 2076SOL    HW1 6788   1.603   3.521   5.286
 2076SOL    HW2 6789   1.690   3.441   5.381
 2077SOL     OW 6790   1.125   3.063   4.831
 2077SOL    HW1 6791   1.068   3.102   4.897
 2077SOL    HW2 6792   1.091   3.094   4.747
 2078SOL     OW 6793   1.631   2.962   4.802
 2078SOL    HW1 6794   1.627   3.024   4.875
 2078SOL    HW2 6795   1.550   2.977   4.753
 2079SOL     OW 6796   0.918   1.960   5.123
 2079SOL    HW1 6797   0.940   1.941   5.032
 2079SOL    HW2 6798   0.997   2.000   5.159
 2080SOL     OW 6799   0.984   2.976   5.446
 2080SOL    HW1 6800   0.891   2.991   5.465
 2080SOL    HW2 6801   0.985   2.899   5.390
 2081SOL     OW 6802   0.707   2.921   4.095
 2081SOL    HW1 6803   0.694   2.908   4.189
 2081SOL    HW2 6804   0.784   2.868   4.074
 2082SOL     OW 6805   0.418   2.676   4.976
 2082SOL    HW1 6806   0.488   2.684   5.041
 2082SOL    HW2 6807   0.384   2.588   4.989
 2083SOL     OW 6808   1.267   2.240   4.997
 2083SOL    HW1 6809   1.299   2.317   5.043
 2083SOL    HW2 6810   1.178   2.262   4.971
 2084SOL     OW 6811   0.063   3.440   5.067
 2084SOL    HW1 6812   0.063   3.513   5.005
 2084SOL    HW2 6813   0.156   3.429   5.090
 2085SOL     OW 6814   0.376   2.964   4.212
 2085SOL    HW1 6815   0.368   3.041   4.156
 2085SOL    HW2 6816   0.374   2.890   4.151
 2086SOL     OW 6817   0.555   2.401   4.586
 2086SOL    HW1 6818   0.571   2.457   4.511
 2086SOL    HW2 6819   0.619   2.429   4.652
 2087SOL     OW 6820   1.248   3.210   4.113
 2087SOL    HW1 6821   1.303   3.281   4.144
 2087SOL    HW2 6822   1.161   3.230   4.147
 2088SOL     OW 6823   1.277   3.318   4.870
 2088SOL    HW1 6824   1.332   3.321   4.948
 2088SOL    HW2 6825   1.222   3.241   4.882
 2089SOL     OW 6826   1.580   2.485   4.199
 2089SOL    HW1 6827   1.540   2.546   4.261
 2089SOL    HW2 6828   1.628   2.542   4.138
 2090SOL     OW 6829   0.346   3.385   5.044
 2090SOL    HW1 6830   0.337   3.336   4.963
 2090SOL    HW2 6831   0.440   3.402   5.051
 2091SOL     OW 6832   0.411   2.604   5.325
 2091SOL    HW1 6833   0.472   2.651   5.267
 2091SOL    HW2 6834   0.453   2.519   5.341
 2092SOL     OW 6835   1.596   2.645   5.399
 2092SOL    HW1 6836   1.510   2.686   5.392
 2092SOL    HW2 6837   1.649   2.688   5.331
 2093SOL     OW 6838   0.996   1.980   5.480
 2093SOL    HW1 6839   1.048   2.053   5.447
 2093SOL    HW2 6840   1.045   1.902   5.455
 2094SOL     OW 6841   0.499   1.903   5.468
 2094SOL    HW1 6842   0.457   1.848   5.401
 2094SOL    HW2 6843   0.440   1.977   5.479
 2095SOL     OW 6844   0.583   2.734   4.755
 2095SOL    HW1 6845   0.614   2.825   4.752
 2095SOL    HW2 6846   0.527   2.731   4.832
 2096SOL     OW 6847   1.361   2.721   4.758
 2096SOL    HW1 6848   1.280   2.714   4.707
 2096SOL    HW2 6849   1.398   2.633   4.754
 2097SOL     OW 6850   1.207   2.391   3.994
 2097SOL    HW1 6851   1.214   2.312   4.048
 2097SOL    HW2 6852   1.165   2.456   4.050
 2098SOL     OW 6853   0.313   2.063   4.971
 2098SOL    HW1 6854   0.267   2.100   5.047
 2098SOL    HW2 6855   0.286   1.970   4.970
 2099SOL     OW 6856   0.055   3.166   5.004
 2099SOL    HW1 6857   0.089   3.128   5.085
 2099SOL    HW2 6858   0.050   3.260   5.021
 2100SOL     OW 6859   0.727   2.495   4.784
 2100SOL    HW1 6860   0.799   2.476   4.725
 2100SOL    HW2 6861   0.699   2.583   4.761
 2101SOL     OW 6862   1.732   2.823   5.574
 2101SOL    HW1 6863   1.687   2.764   5.514
 2101SOL    HW2 6864   1.672   2.832   5.648
 2102SOL     OW 6865   0.310   1.927   4.346
 2102SOL    HW1 6866   0.292   2.018   4.368
 2102SOL    HW2 6867   0.312   1.881   4.430
 2103SOL     OW 6868   1.608   2.233   4.099
 2103SOL    HW1 6869   1.624   2.182   4.178
 2103SOL    HW2 6870   1.587   2.321   4.131
 2104SOL     OW 6871   1.027   2.622   4.686
 2104SOL    HW1 6872   1.027   2.639   4.780
 2104SOL    HW2 6873   1.000   2.530   4.679
 2105SOL     OW 6874   0.984   3.429   5.439
 2105SOL    HW1 6875   0.967   3.473   5.356
 2105SOL    HW2 6876   1.026   3.346   5.415
 2106SOL     OW 6877   1.856   3.371   5.330
 2106SOL    HW1 6878   1.873   3.397   5.239
 2106SOL    HW2 6879   1.937   3.393   5.376
 2107SOL     OW 6880   0.350   2.780   5.527
 2107SOL    HW1 6881   0.431   2.801   5.575
 2107SOL    HW2 6882   0.378   2.716   5.461
 2108SOL     OW 6883   1.531   2.133   3.851
 2108SOL    HW1 6884   1.465   2.070   3.880
 2108SOL    HW2 6885   1.563   2.173   3.931
 2109SOL     OW 6886   1.294   2.690   3.757
 2109SOL    HW1 6887   1.336   2.604   3.760
 2109SOL    HW2 6888   1.325   2.728   3.675
 2110SOL     OW 6889   1.064   3.197   4.576
 2110SOL    HW1 6890   1.068   3.124   4.515
 2110SOL    HW2 6891   1.128   3.260   4.542
 2111SOL     OW 6892   0.314   2.670   4.675
 2111SOL    HW1 6893   0.408   2.688   4.669
 2111SOL    HW2 6894   0.309   2.580   4.709
 2112SOL     OW 6895   0.333   2.380   4.736
 2112SOL    HW1 6896   0.298   2.293   4.718
 2112SOL    HW2 6897   0.409   2.388   4.678
 2113SOL     OW 6898   1.134   2.240   5.404
 2113SOL    HW1 6899   1.089   2.295   5.467
 2113SOL    HW2 6900   1.223   2.276   5.400
 2114SOL     OW 6901   1.160   2.067   5.193
 2114SOL    HW1 6902   1.151   2.129   5.266
 2114SOL    HW2 6903   1.198   2.118   5.122
 2115SOL     OW 6904   3.999   3.184   3.906
 2115SOL    HW1 6905   3.905   3.199   3.910
 2115SOL    HW2 6906   0.009   3.091   3.927
 2116SOL     OW 6907   0.075   3.663   4.618
 2116SOL    HW1 6908   0.082   3.568   4.625
 2116SOL    HW2 6909   0.166   3.693   4.614
 2117SOL     OW 6910   0.506   3.429   4.635
 2117SOL    HW1 6911   0.574   3.494   4.658
 2117SOL    HW2 6912   0.551   3.367   4.578
 2118SOL     OW 6913   0.988   2.656   4.952
 2118SOL    HW1 6914   1.041   2.631   5.028
 2118SOL    HW2 6915   0.901   2.619   4.970
 2119SOL     OW 6916   0.038   2.414   4.835
 2119SOL    HW1 6917   0.119   2.387   4.793
 2119SOL    HW2 6918   0.057   2.413   4.928
 2120SOL     OW 6919   0.205   2.376   5.450
 2120SOL    HW1 6920   0.250   2.335   5.376
 2120SOL    HW2 6921   0.153   2.446   5.410
 2121SOL     OW 6922   1.373   2.805   5.383
 2121SOL    HW1 6923   1.396   2.898   5.383
 2121SOL    HW2 6924   1.372   2.780   5.290
 2122SOL     OW 6925   0.816   2.431   4.078
 2122SOL    HW1 6926   0.818   2.354   4.021
 2122SOL    HW2 6927   0.741   2.482   4.048
 2123SOL     OW 6928   1.643   2.464   4.913
 2123SOL    HW1 6929   1.631   2.407   4.989
 2123SOL    HW2 6930   1.729   2.440   4.878
 2124SOL     OW 6931   0.294   3.410   5.459
 2124SOL    HW1 6932   0.243   3.480   5.500
 2124SOL    HW2 6933   0.258   3.329   5.494
 2125SOL     OW 6934   0.694   2.316   4.987
 2125SOL    HW1 6935   0.646   2.240   4.954
 2125SOL    HW2 6936   0.694   2.378   4.914
 2126SOL     OW 6937   0.932   3.536   5.190
 2126SOL    HW1 6938   0.904   3.505   5.104
 2126SOL    HW2 6939   0.928   3.632   5.183
 2127SOL     OW 6940   0.463   2.354   3.915
 2127SOL    HW1 6941   0.526   2.423   3.933
 2127SOL    HW2 6942   0.381   2.400   3.899
 2128SOL     OW 6943   0.157   2.999   5.196
 2128SOL    HW1 6944   0.163   2.946   5.275
 2128SOL    HW2 6945   0.172   2.936   5.125
 2129SOL     OW 6946   1.329   2.911   4.949
 2129SOL    HW1 6947   1.353   2.848   4.881
 2129SOL    HW2 6948   1.256   2.961   4.911
 2130SOL     OW 6949   1.308   2.718   4.032
 2130SOL    HW1 6950   1.231   2.688   4.079
 2130SOL    HW2 6951   1.286   2.705   3.940
 2131SOL     OW 6952   1.765   3.609   4.871
 2131SOL    HW1 6953   1.828   3.635   4.803
 2131SOL    HW2 6954   1.745   3.518   4.850
 2132SOL     OW 6955   1.243   3.596   4.840
 2132SOL    HW1 6956   1.325   3.613   4.794
 2132SOL    HW2 6957   1.245   3.502   4.859
 2133SOL     OW 6958   0.075   3.079   4.750
 2133SOL    HW1 6959   0.082   3.105   4.842
 2133SOL    HW2 6960   3.982   3.085   4.731
 2134SOL     OW 6961   0.679   3.524   5.448
 2134SOL    HW1 6962   0.625   3.603   5.451
 2134SOL    HW2 6963   0.738   3.539   5.374
 2135SOL     OW 6964   1.389   3.431   4.207
 2135SOL    HW1 6965   1.450   3.462   4.140
 2135SOL    HW2 6966   1.343   3.509   4.236
 2136SOL     OW 6967   0.165   3.631   5.554
 2136SOL    HW1 6968   0.107   3.581   5.611
 2136SOL    HW2 6969   0.212   3.689   5.614
 2137SOL     OW 6970   1.277   2.787   4.395
 2137SOL    HW1 6971   1.350   2.725   4.400
 2137SOL    HW2 6972   1.311   2.860   4.343
 2138SOL     OW 6973   0.818   3.134   5.156
 2138SOL    HW1 6974   0.792   3.173   5.239
 2138SOL    HW2 6975   0.747   3.155   5.096
 2139SOL     OW 6976   0.675   3.475   3.880
 2139SOL    HW1 6977   0.681   3.490   3.786
 2139SOL    HW2 6978   0.619   3.397   3.889
 2140SOL     OW 6979   1.631   3.587   5.115
 2140SOL    HW1 6980   1.680   3.595   5.033
 2140SOL    HW2 6981   1.618   3.678   5.144
 2141SOL     OW 6982   0.269   2.178   4.442
 2141SOL    HW1 6983   0.185   2.215   4.416
 2141SOL    HW2 6984   0.261   2.167   4.537
 2142SOL     OW 6985   1.205   3.470   3.758
 2142SOL    HW1 6986   1.197   3.378   3.783
 2142SOL    HW2 6987   1.144   3.481   3.685
 2143SOL     OW 6988   0.824   2.868   5.096
 2143SOL    HW1 6989   0.867   2.864   5.011
 2143SOL    HW2 6990   0.825   2.960   5.120
 2144SOL     OW 6991   0.915   2.772   4.013
 2144SOL    HW1 6992   0.977   2.804   3.947
 2144SOL    HW2 6993   0.962   2.701   4.058
 2145SOL     OW 6994   1.493   3.488   3.765
 2145SOL    HW1 6995   1.399   3.481   3.752
 2145SOL    HW2 6996   1.530   3.493   3.677
 2146SOL     OW 6997   0.373   3.163   5.215
 2146SOL    HW1 6998   0.358   3.244   5.166
 2146SOL    HW2 6999   0.295   3.110   5.198
 2147SOL     OW 7000   1.611   3.145   5.005
 2147SOL    HW1 7001   1.671   3.138   5.080
 2147SOL    HW2 7002   1.551   3.215   5.030
 2148SOL     OW 7003   1.048   2.967   4.429
 2148SOL    HW1 7004   0.978   2.916   4.469
 2148SOL    HW2 7005   1.109   2.902   4.395
 2149SOL     OW 7006   1.020   2.102   4.690
 2149SOL    HW1 7007   1.015   2.054   4.607
 2149SOL    HW2 7008   1.015   2.034   4.757
 2150SOL     OW 7009   0.602   3.352   4.206
 2150SOL    HW1 7010   0.642   3.301   4.136
 2150SOL    HW2 7011   0.536   3.406   4.161
 2151SOL     OW 7012   1.721   2.252   5.101
 2151SOL    HW1 7013   1.794   2.313   5.106
 2151SOL    HW2 7014   1.751   2.183   5.041
 2152SOL     OW 7015   0.252   3.204   4.013
 2152SOL    HW1 7016   0.159   3.216   3.992
 2152SOL    HW2 7017   0.262   3.243   4.100
 2153SOL     OW 7018   0.104   2.863   5.443
 2153SOL    HW1 7019   0.042   2.850   5.515
 2153SOL    HW2 7020   0.190   2.842   5.481
 2154SOL     OW 7021   0.673   2.058   5.223
 2154SOL    HW1 7022   0.756   2.040   5.180
 2154SOL    HW2 7023   0.697   2.088   5.311
 2155SOL     OW 7024   0.080   2.184   3.760
 2155SOL    HW1 7025   3.984   2.182   3.763
 2155SOL    HW2 7026   0.101   2.264   3.712
 2156SOL     OW 7027   1.432   2.721   5.126
 2156SOL    HW1 7028   1.384   2.780   5.068
 2156SOL    HW2 7029   1.522   2.724   5.093
 2157SOL     OW 7030   0.029   2.076   4.087
 2157SOL    HW1 7031   0.048   2.146   4.024
 2157SOL    HW2 7032   0.114   2.043   4.114
 2158SOL     OW 7033   1.180   3.204   3.841
 2158SOL    HW1 7034   1.089   3.174   3.844
 2158SOL    HW2 7035   1.208   3.202   3.932
 2159SOL     OW 7036   0.618   2.693   5.158
 2159SOL    HW1 7037   0.673   2.770   5.143
 2159SOL    HW2 7038   0.679   2.620   5.166
 2160SOL     OW 7039   1.486   3.638   4.700
 2160SOL    HW1 7040   1.513   3.691   4.626
 2160SOL    HW2 7041   1.567   3.620   4.748
 2161SOL     OW 7042   0.716   2.427   5.430
 2161SOL    HW1 7043   0.754   2.491   5.491
 2161SOL    HW2 7044   0.752   2.343   5.459
 2162SOL     OW 7045   1.469   3.065   5.357
 2162SOL    HW1 7046   1.457   3.078   5.451
 2162SOL    HW2 7047   1.563   3.077   5.343
 2163SOL     OW 7048   0.380   3.603   5.283
 2163SOL    HW1 7049   0.293   3.640   5.270
 2163SOL    HW2 7050   0.366   3.522   5.331
 2164SOL     OW 7051   1.672   2.744   4.979
 2164SOL    HW1 7052   1.662   2.659   4.937
 2164SOL    HW2 7053   1.663   2.808   4.908
 2165SOL     OW 7054   1.218   2.182   4.181
 2165SOL    HW1 7055   1.281   2.111   4.173
 2165SOL    HW2 7056   1.246   2.230   4.259
 2166SOL     OW 7057   0.591   2.603   4.392
 2166SOL    HW1 7058   0.630   2.688   4.375
 2166SOL    HW2 7059   0.521   2.595   4.327
 2167SOL     OW 7060   1.760   2.231   5.375
 2167SOL    HW1 7061   1.748   2.239   5.281
 2167SOL    HW2 7062   1.689   2.174   5.404
 2168SOL     OW 7063   1.745   2.798   5.235
 2168SOL    HW1 7064   1.746   2.893   5.248
 2168SOL    HW2 7065   1.729   2.786   5.141
 2169SOL     OW 7066   0.864   3.231   3.755
 2169SOL    HW1 7067   0.822   3.257   3.837
 2169SOL    HW2 7068   0.881   3.313   3.709
 2170SOL     OW 7069   0.658   3.655   4.668
 2170SOL    HW1 7070   0.634   3.745   4.647
 2170SOL    HW2 7071   0.753   3.653   4.663
 2171SOL     OW 7072   0.866   2.826   4.580
 2171SOL    HW1 7073   0.917   2.756   4.621
 2171SOL    HW2 7074   0.833   2.878   4.653
 2172SOL     OW 7075   1.079   2.849   3.812
 2172SOL    HW1 7076   1.059   2.900   3.734
 2172SOL    HW2 7077   1.155   2.797   3.787
 2173SOL     OW 7078   1.856   3.417   4.568
 2173SOL    HW1 7079   1.778   3.406   4.514
 2173SOL    HW2 7080   1.848   3.351   4.636
 2174SOL     OW 7081   0.222   3.166   5.578
 2174SOL    HW1 7082   0.152   3.106   5.554
 2174SOL    HW2 7083   0.210   3.180   5.672
 2175SOL     OW 7084   0.109   3.133   4.438
 2175SOL    HW1 7085   0.113   3.080   4.517
 2175SOL    HW2 7086   0.116   3.070   4.366
 2176SOL     OW 7087   0.680   3.262   5.351
 2176SOL    HW1 7088   0.599   3.220   5.380
 2176SOL    HW2 7089   0.675   3.351   5.387
 2177SOL     OW 7090   0.440   2.296   4.255
 2177SOL    HW1 7091   0.445   2.226   4.190
 2177SOL    HW2 7092   0.386   2.260   4.325
 2178SOL     OW 7093   1.702   3.352   4.823
 2178SOL    HW1 7094   1.620   3.326   4.781
 2178SOL    HW2 7095   1.717   3.285   4.889
 2179SOL     OW 7096   0.330   2.414   5.014
 2179SOL    HW1 7097   0.385   2.359   5.069
 2179SOL    HW2 7098   0.347   2.386   4.925
 2180SOL     OW 7099   0.824   3.441   4.403
 2180SOL    HW1 7100   0.820   3.483   4.318
 2180SOL    HW2 7101   0.747   3.385   4.407
 2181SOL     OW 7102   1.437   2.088   4.843
 2181SOL    HW1 7103   1.456   2.004   4.885
 2181SOL    HW2 7104   1.381   2.134   4.906
 2182SOL     OW 7105   1.008   1.882   4.869
 2182SOL    HW1 7106   0.954   1.813   4.831
 2182SOL    HW2 7107   1.096   1.845   4.871
 2183SOL     OW 7108   0.771   3.194   4.036
 2183SOL    HW1 7109   0.737   3.104   4.042
 2183SOL    HW2 7110   0.854   3.191   4.083
 2184SOL     OW 7111   0.620   3.420   5.007
 2184SOL    HW1 7112   0.622   3.501   5.059
 2184SOL    HW2 7113   0.707   3.413   4.969
 2185SOL     OW 7114   1.351   1.914   3.889
 2185SOL    HW1 7115   1.376   1.858   3.815
 2185SOL    HW2 7116   1.264   1.881   3.915
 2186SOL     OW 7117   1.298   2.321   4.407
 2186SOL    HW1 7118   1.244   2.400   4.415
 2186SOL    HW2 7119   1.295   2.281   4.494
 2187SOL     OW 7120   1.577   2.062   4.593
 2187SOL    HW1 7121   1.531   2.083   4.674
 2187SOL    HW2 7122   1.590   2.147   4.550
 2188SOL     OW 7123   0.043   2.916   3.965
 2188SOL    HW1 7124   0.137   2.900   3.957
 2188SOL    HW2 7125   0.009   2.837   4.008
 2189SOL     OW 7126   0.881   3.514   4.070
 2189SOL    HW1 7127   0.811   3.494   4.007
 2189SOL    HW2 7128   0.850   3.591   4.117
 2190SOL     OW 7129   0.231   2.482   5.708
 2190SOL    HW1 7130   0.138   2.493   5.728
 2190SOL    HW2 7131   0.233   2.455   5.616
 2191SOL     OW 7132   0.228   2.132   6.573
 2191SOL    HW1 7133   0.250   2.103   6.662
 2191SOL    HW2 7134   0.133   2.121   6.566
 2192SOL     OW 7135   0.013   2.228   6.221
 2192SOL    HW1 7136   3.928   2.247   6.261
 2192SOL    HW2 7137   3.992   2.186   6.138
 2193SOL     OW 7138   0.574   3.141   6.765
 2193SOL    HW1 7139   0.487   3.146   6.724
 2193SOL    HW2 7140   0.590   3.229   6.799
 2194SOL     OW 7141   1.557   3.371   6.290
 2194SOL    HW1 7142   1.514   3.355   6.374
 2194SOL    HW2 7143   1.486   3.378   6.227
 2195SOL     OW 7144   1.112   2.581   6.279
 2195SOL    HW1 7145   1.175   2.653   6.280
 2195SOL    HW2 7146   1.079   2.578   6.369
 2196SOL     OW 7147   1.748   2.474   5.820
 2196SOL    HW1 7148   1.737   2.466   5.725
 2196SOL    HW2 7149   1.767   2.385   5.849
 2197SOL     OW 7150   0.760   3.006   6.623
 2197SOL    HW1 7151   0.691   3.038   6.681
 2197SOL    HW2 7152   0.793   3.084   6.578
 2198SOL     OW 7153   0.861   2.643   7.407
 2198SOL    HW1 7154   0.852   2.715   7.470
 2198SOL    HW2 7155   0.885   2.685   7.325
 2199SOL     OW 7156   0.687   2.869   6.235
 2199SOL    HW1 7157   0.750   2.854   6.305
 2199SOL    HW2 7158   0.616   2.919   6.277
 2200SOL     OW 7159   0.707   3.013   7.396
 2200SOL    HW1 7160   0.755   3.093   7.420
 2200SOL    HW2 7161   0.624   3.045   7.362
 2201SOL     OW 7162   0.351   3.266   6.664
 2201SOL    HW1 7163   0.268   3.253   6.619
 2201SOL    HW2 7164   0.400   3.327   6.608
 2202SOL     OW 7165   1.462   3.360   6.936
 2202SOL    HW1 7166   1.507   3.444   6.947
 2202SOL    HW2 7167   1.406   3.353   7.014
 2203SOL     OW 7168   0.449   2.263   7.080
 2203SOL    HW1 7169   0.523   2.202   7.081
 2203SOL    HW2 7170   0.372   2.207   7.089
 2204SOL     OW 7171   0.227   3.572   6.054
 2204SOL    HW1 7172   0.237   3.650   6.109
 2204SOL    HW2 7173   0.302   3.575   5.995
 2205SOL     OW 7174   1.136   3.203   7.277
 2205SOL    HW1 7175   1.175   3.199   7.364
 2205SOL    HW2 7176   1.083   3.123   7.271
 2206SOL     OW 7177   0.243   3.305   6.124
 2206SOL    HW1 7178   0.217   3.396   6.114
 2206SOL    HW2 7179   0.174   3.266   6.178
 2207SOL     OW 7180   0.246   2.934   6.470
 2207SOL    HW1 7181   0.262   2.851   6.515
 2207SOL    HW2 7182   0.194   2.985   6.533
 2208SOL     OW 7183   0.616   3.649   7.018
 2208SOL    HW1 7184   0.532   3.634   7.062
 2208SOL    HW2 7185   0.640   3.738   7.042
 2209SOL     OW 7186   0.586   2.843   5.720
 2209SOL    HW1 7187   0.629   2.893   5.651
 2209SOL    HW2 7188   0.629   2.871   5.800
 2210SOL     OW 7189   0.140   2.507   6.160
 2210SOL    HW1 7190   0.084   2.429   6.161
 2210SOL    HW2 7191   0.104   2.563   6.229
 2211SOL     OW 7192   1.840   3.617   5.925
 2211SOL    HW1 7193   1.903   3.592   5.993
 2211SOL    HW2 7194   1.866   3.707   5.902
 2212SOL     OW 7195   0.041   3.455   5.726
 2212SOL    HW1 7196   0.029   3.363   5.746
 2212SOL    HW2 7197   3.966   3.498   5.767
 2213SOL     OW 7198   1.640   2.972   6.016
 2213SOL    HW1 7199   1.728   2.975   5.978
 2213SOL    HW2 7200   1.648   3.021   6.097
 2214SOL     OW 7201   0.131   2.611   7.178
 2214SOL    HW1 7202   0.226   2.606   7.187
 2214SOL    HW2 7203   0.111   2.705   7.186
 2215SOL     OW 7204   0.613   3.244   6.320
 2215SOL    HW1 7205   0.566   3.161   6.330
 2215SOL    HW2 7206   0.595   3.271   6.230
 2216SOL     OW 7207   1.290   3.100   7.010
 2216SOL    HW1 7208   1.324   3.033   6.951
 2216SOL    HW2 7209   1.346   3.094   7.087
 2217SOL     OW 7210   0.811   1.861   6.092
 2217SOL    HW1 7211   0.849   1.947   6.078
 2217SOL    HW2 7212   0.717   1.876   6.101
 2218SOL     OW 7213   0.187   2.819   6.861
 2218SOL    HW1 7214   0.275   2.784   6.845
 2218SOL    HW2 7215   0.131   2.771   6.800
 2219SOL     OW 7216   1.532   2.855   5.783
 2219SOL    HW1 7217   1.466   2.792   5.810
 2219SOL    HW2 7218   1.569   2.889   5.865
 2220SOL     OW 7219   1.206   3.663   7.210
 2220SOL    HW1 7220   1.196   3.722   7.136
 2220SOL    HW2 7221   1.209   3.575   7.171
 2221SOL     OW 7222   0.335   2.109   7.397
 2221SOL    HW1 7223   0.379   2.194   7.403
 2221SOL    HW2 7224   0.245   2.128   7.422
 2222SOL     OW 7225   1.465   3.281   6.539
 2222SOL    HW1 7226   1.397   3.296   6.605
 2222SOL    HW2 7227   1.454   3.190   6.512
 2223SOL     OW 7228   1.659   3.595   6.165
 2223SOL    HW1 7229   1.640   3.566   6.076
 2223SOL    HW2 7230   1.635   3.520   6.220
 2224SOL     OW 7231   0.596   2.583   5.849
 2224SOL    HW1 7232   0.605   2.665   5.799
 2224SOL    HW2 7233   0.533   2.603   5.918
 2225SOL     OW 7234   1.230   2.246   6.553
 2225SOL    HW1 7235   1.159   2.182   6.560
 2225SOL    HW2 7236   1.298   2.212   6.612
 2226SOL     OW 7237   1.579   3.533   5.894
 2226SOL    HW1 7238   1.670   3.564   5.890
 2226SOL    HW2 7239   1.557   3.513   5.803
 2227SOL     OW 7240   0.791   2.480   7.040
 2227SOL    HW1 7241   0.765   2.457   7.129
 2227SOL    HW2 7242   0.750   2.414   6.984
 2228SOL     OW 7243   0.958   2.750   7.167
 2228SOL    HW1 7244   1.011   2.678   7.132
 2228SOL    HW2 7245   0.910   2.783   7.091
 2229SOL     OW 7246   0.987   2.270   6.830
 2229SOL    HW1 7247   0.901   2.297   6.864
 2229SOL    HW2 7248   0.967   2.232   6.744
 2230SOL     OW 7249   1.051   2.558   6.011
 2230SOL    HW1 7250   1.064   2.559   6.106
 2230SOL    HW2 7251   0.967   2.513   5.999
 2231SOL     OW 7252   0.082   2.683   6.376
 2231SOL    HW1 7253   0.165   2.658   6.418
 2231SOL    HW2 7254   0.085   2.779   6.373
 2232SOL     OW 7255   0.128   3.708   7.158
 2232SOL    HW1 7256   0.134   3.679   7.249
 2232SOL    HW2 7257   0.035   3.699   7.136
 2233SOL     OW 7258   0.894   2.206   5.782
 2233SOL    HW1 7259   0.932   2.269   5.720
 2233SOL    HW2 7260   0.901   2.122   5.738
 2234SOL     OW 7261   1.374   3.004   6.127
 2234SOL    HW1 7262   1.453   2.989   6.075
 2234SOL    HW2 7263   1.323   3.066   6.076
 2235SOL     OW 7264   0.546   2.044   6.478
 2235SOL    HW1 7265   0.552   2.073   6.569
 2235SOL    HW2 7266   0.549   2.125   6.427
 2236SOL     OW 7267   1.009   3.309   6.060
 2236SOL    HW1 7268   0.966   3.379   6.011
 2236SOL    HW2 7269   0.994   3.331   6.152
 2237SOL     OW 7270   0.358   3.667   6.442
 2237SOL    HW1 7271   0.432   3.606   6.449
 2237SOL    HW2 7272   0.398   3.753   6.450
 2238SOL     OW 7273   1.798   2.945   6.468
 2238SOL    HW1 7274   1.743   2.945   6.390
 2238SOL    HW2 7275   1.737   2.938   6.541
 2239SOL     OW 7276   1.228   3.400   7.097
 2239SOL    HW1 7277   1.213   3.327   7.158
 2239SOL    HW2 7278   1.165   3.386   7.027
 2240SOL     OW 7279   0.311   2.817   5.828
 2240SOL    HW1 7280   0.396   2.841   5.791
 2240SOL    HW2 7281   0.295   2.728   5.798
 2241SOL     OW 7282   0.464   3.121   7.322
 2241SOL    HW1 7283   0.437   3.130   7.231
 2241SOL    HW2 7284   0.383   3.127   7.372
 2242SOL     OW 7285   1.113   3.642   5.811
 2242SOL    HW1 7286   1.052   3.593   5.867
 2242SOL    HW2 7287   1.141   3.578   5.745
 2243SOL     OW 7288   0.203   2.147   7.092
 2243SOL    HW1 7289   0.113   2.176   7.079
 2243SOL    HW2 7290   0.195   2.067   7.144
 2244SOL     OW 7291   1.629   3.241   5.674
 2244SOL    HW1 7292   1.589   3.326   5.657
 2244SOL    HW2 7293   1.560   3.178   5.654
 2245SOL     OW 7294   0.469   3.598   5.907
 2245SOL    HW1 7295   0.505   3.662   5.969
 2245SOL    HW2 7296   0.543   3.575   5.851
 2246SOL     OW 7297   0.250   3.656   6.818
 2246SOL    HW1 7298   0.299   3.592   6.871
 2246SOL    HW2 7299   0.244   3.615   6.731
 2247SOL     OW 7300   0.937   3.560   6.488
 2247SOL    HW1 7301   1.015   3.507   6.507
 2247SOL    HW2 7302   0.892   3.512   6.419
 2248SOL     OW 7303   0.393   2.556   6.060
 2248SOL    HW1 7304   0.422   2.466   6.072
 2248SOL    HW2 7305   0.301   2.556   6.087
 2249SOL     OW 7306   0.630   1.985   5.687
 2249SOL    HW1 7307   0.702   1.924   5.703
 2249SOL    HW2 7308   0.586   1.951   5.610
 2250SOL     OW 7309   0.766   2.137   7.337
 2250SOL    HW1 7310   0.842   2.079   7.344
 2250SOL    HW2 7311   0.718   2.124   7.419
 2251SOL     OW 7312   0.876   3.382   6.780
 2251SOL    HW1 7313   0.862   3.347   6.692
 2251SOL    HW2 7314   0.946   3.327   6.816
 2252SOL     OW 7315   1.343   2.452   7.031
 2252SOL    HW1 7316   1.402   2.416   7.097
 2252SOL    HW2 7317   1.373   2.541   7.017
 2253SOL     OW 7318   0.813   3.260   6.521
 2253SOL    HW1 7319   0.897   3.250   6.477
 2253SOL    HW2 7320   0.748   3.257   6.451
 2254SOL     OW 7321   0.924   2.374   6.490
 2254SOL    HW1 7322   0.903   2.364   6.397
 2254SOL    HW2 7323   0.966   2.291   6.514
 2255SOL     OW 7324   0.550   1.924   6.087
 2255SOL    HW1 7325   0.468   1.929   6.137
 2255SOL    HW2 7326   0.555   2.006   6.039
 2256SOL     OW 7327   1.429   3.060   5.627
 2256SOL    HW1 7328   1.460   2.985   5.677
 2256SOL    HW2 7329   1.343   3.079   5.664
 2257SOL     OW 7330   0.302   1.912   5.757
 2257SOL    HW1 7331   0.368   1.955   5.703
 2257SOL    HW2 7332   0.351   1.846   5.807
 2258SOL     OW 7333   0.927   2.106   6.051
 2258SOL    HW1 7334   0.895   2.148   5.971
 2258SOL    HW2 7335   1.021   2.092   6.036
 2259SOL     OW 7336   1.079   2.540   7.045
 2259SOL    HW1 7337   1.009   2.475   7.051
 2259SOL    HW2 7338   1.160   2.489   7.041
 2260SOL     OW 7339   1.225   3.430   6.379
 2260SOL    HW1 7340   1.242   3.500   6.315
 2260SOL    HW2 7341   1.292   3.443   6.446
 2261SOL     OW 7342   0.466   3.010   6.326
 2261SOL    HW1 7343   0.392   2.989   6.383
 2261SOL    HW2 7344   0.434   2.994   6.238
 2262SOL     OW 7345   1.270   3.659   6.190
 2262SOL    HW1 7346   1.314   3.723   6.133
 2262SOL    HW2 7347   1.203   3.710   6.235
 2263SOL     OW 7348   1.024   2.407   5.606
 2263SOL    HW1 7349   0.982   2.490   5.584
 2263SOL    HW2 7350   1.091   2.431   5.670
 2264SOL     OW 7351   0.079   2.432   6.976
 2264SOL    HW1 7352   0.168   2.418   6.945
 2264SOL    HW2 7353   0.086   2.500   7.042
 2265SOL     OW 7354   0.567   2.088   6.748
 2265SOL    HW1 7355   0.604   2.008   6.786
 2265SOL    HW2 7356   0.476   2.088   6.778
 2266SOL     OW 7357   0.869   2.321   6.226
 2266SOL    HW1 7358   0.820   2.377   6.166
 2266SOL    HW2 7359   0.884   2.240   6.178
 2267SOL     OW 7360   1.012   1.912   6.341
 2267SOL    HW1 7361   0.953   1.905   6.266
 2267SOL    HW2 7362   0.992   1.836   6.395
 2268SOL     OW 7363   1.437   3.024   6.445
 2268SOL    HW1 7364   1.369   2.957   6.441
 2268SOL    HW2 7365   1.458   3.041   6.353
 2269SOL     OW 7366   0.491   3.274   5.749
 2269SOL    HW1 7367   0.415   3.244   5.799
 2269SOL    HW2 7368   0.466   3.260   5.658
 2270SOL     OW 7369   1.669   3.121   6.244
 2270SOL    HW1 7370   1.764   3.131   6.247
 2270SOL    HW2 7371   1.635   3.210   6.257
 2271SOL     OW 7372   1.391   2.436   5.653
 2271SOL    HW1 7373   1.340   2.414   5.731
 2271SOL    HW2 7374   1.482   2.416   5.677
 2272SOL     OW 7375   0.575   2.130   5.911
 2272SOL    HW1 7376   0.594   2.079   5.833
 2272SOL    HW2 7377   0.538   2.212   5.878
 2273SOL     OW 7378   1.754   3.100   7.164
 2273SOL    HW1 7379   1.840   3.059   7.168
 2273SOL    HW2 7380   1.770   3.191   7.191
 2274SOL     OW 7381   1.061   3.214   6.920
 2274SOL    HW1 7382   0.986   3.184   6.971
 2274SOL    HW2 7383   1.136   3.174   6.962
 2275SOL     OW 7384   1.606   3.487   7.238
 2275SOL    HW1 7385   1.602   3.521   7.148
 2275SOL    HW2 7386   1.690   3.442   7.242
 2276SOL     OW 7387   1.126   3.062   6.693
 2276SOL    HW1 7388   1.068   3.101   6.759
 2276SOL    HW2 7389   1.091   3.094   6.609
 2277SOL     OW 7390   1.623   2.958   6.671
 2277SOL    HW1 7391   1.622   3.024   6.740
 2277SOL    HW2 7392   1.546   2.977   6.618
 2278SOL     OW 7393   0.917   1.962   6.988
 2278SOL    HW1 7394   0.942   1.946   6.897
 2278SOL    HW2 7395   0.988   2.017   7.023
 2279SOL     OW 7396   0.984   2.976   7.307
 2279SOL    HW1 7397   0.891   2.991   7.327
 2279SOL    HW2 7398   0.984   2.899   7.251
 2280SOL     OW 7399   0.707   2.921   5.957
 2280SOL    HW1 7400   0.694   2.908   6.051
 2280SOL    HW2 7401   0.784   2.868   5.937
 2281SOL     OW 7402   0.419   2.676   6.837
 2281SOL    HW1 7403   0.488   2.684   6.903
 2281SOL    HW2 7404   0.384   2.588   6.851
 2282SOL     OW 7405   1.269   2.255   6.840
 2282SOL    HW1 7406   1.295   2.323   6.903
 2282SOL    HW2 7407   1.175   2.268   6.828
 2283SOL     OW 7408   0.063   3.440   6.930
 2283SOL    HW1 7409   0.062   3.512   6.866
 2283SOL    HW2 7410   0.156   3.429   6.952
 2284SOL     OW 7411   0.378   2.964   6.073
 2284SOL    HW1 7412   0.367   3.041   6.018
 2284SOL    HW2 7413   0.373   2.890   6.013
 2285SOL     OW 7414   0.555   2.401   6.448
 2285SOL    HW1 7415   0.572   2.457   6.373
 2285SOL    HW2 7416   0.619   2.429   6.514
 2286SOL     OW 7417   1.248   3.209   5.976
 2286SOL    HW1 7418   1.303   3.281   6.006
 2286SOL    HW2 7419   1.161   3.231   6.009
 2287SOL     OW 7420   1.277   3.318   6.732
 2287SOL    HW1 7421   1.332   3.321   6.810
 2287SOL    HW2 7422   1.221   3.241   6.745
 2288SOL     OW 7423   0.346   3.386   6.906
 2288SOL    HW1 7424   0.336   3.336   6.825
 2288SOL    HW2 7425   0.440   3.402   6.913
 2289SOL     OW 7426   0.411   2.604   7.187
 2289SOL    HW1 7427   0.472   2.651   7.130
 2289SOL    HW2 7428   0.453   2.520   7.203
 2290SOL     OW 7429   1.583   2.652   7.255
 2290SOL    HW1 7430   1.500   2.698   7.244
 2290SOL    HW2 7431   1.641   2.692   7.190
 2291SOL     OW 7432   0.997   1.984   7.345
 2291SOL    HW1 7433   1.049   2.058   7.313
 2291SOL    HW2 7434   1.044   1.907   7.314
 2292SOL     OW 7435   0.499   1.903   7.329
 2292SOL    HW1 7436   0.457   1.848   7.263
 2292SOL    HW2 7437   0.440   1.977   7.340
 2293SOL     OW 7438   0.583   2.735   6.617
 2293SOL    HW1 7439   0.613   2.825   6.614
 2293SOL    HW2 7440   0.527   2.730   6.694
 2294SOL     OW 7441   1.362   2.719   6.617
 2294SOL    HW1 7442   1.281   2.720   6.566
 2294SOL    HW2 7443   1.378   2.627   6.637
 2295SOL     OW 7444   1.213   2.392   5.860
 2295SOL    HW1 7445   1.222   2.315   5.917
 2295SOL    HW2 7446   1.166   2.456   5.913
 2296SOL     OW 7447   0.312   2.063   6.833
 2296SOL    HW1 7448   0.267   2.100   6.909
 2296SOL    HW2 7449   0.286   1.971   6.832
 2297SOL     OW 7450   0.056   3.166   6.865
 2297SOL    HW1 7451   0.089   3.128   6.947
 2297SOL    HW2 7452   0.050   3.260   6.883
 2298SOL     OW 7453   0.727   2.495   6.647
 2298SOL    HW1 7454   0.798   2.475   6.587
 2298SOL    HW2 7455   0.699   2.583   6.623
 2299SOL     OW 7456   1.730   2.817   7.436
 2299SOL    HW1 7457   1.683   2.766   7.371
 2299SOL    HW2 7458   1.665   2.838   7.503
 2300SOL     OW 7459   0.310   1.927   6.208
 2300SOL    HW1 7460   0.292   2.018   6.230
 2300SOL    HW2 7461   0.311   1.881   6.292
 2301SOL     OW 7462   1.029   2.622   6.550
 2301SOL    HW1 7463   1.027   2.638   6.644
 2301SOL    HW2 7464   1.003   2.530   6.541
 2302SOL     OW 7465   0.984   3.429   7.301
 2302SOL    HW1 7466   0.967   3.473   7.218
 2302SOL    HW2 7467   1.026   3.346   7.277
 2303SOL     OW 7468   1.856   3.372   7.192
 2303SOL    HW1 7469   1.873   3.397   7.101
 2303SOL    HW2 7470   1.937   3.392   7.238
 2304SOL     OW 7471   0.351   2.781   7.389
 2304SOL    HW1 7472   0.431   2.801   7.437
 2304SOL    HW2 7473   0.378   2.716   7.323
 2305SOL     OW 7474   1.527   2.133   5.715
 2305SOL    HW1 7475   1.466   2.064   5.742
 2305SOL    HW2 7476   1.566   2.163   5.798
 2306SOL     OW 7477   1.295   2.691   5.620
 2306SOL    HW1 7478   1.336   2.604   5.622
 2306SOL    HW2 7479   1.325   2.729   5.537
 2307SOL     OW 7480   1.065   3.197   6.438
 2307SOL    HW1 7481   1.068   3.124   6.377
 2307SOL    HW2 7482   1.128   3.260   6.404
 2308SOL     OW 7483   0.314   2.670   6.537
 2308SOL    HW1 7484   0.408   2.688   6.531
 2308SOL    HW2 7485   0.309   2.580   6.571
 2309SOL     OW 7486   0.333   2.380   6.598
 2309SOL    HW1 7487   0.298   2.293   6.580
 2309SOL    HW2 7488   0.409   2.388   6.540
 2310SOL     OW 7489   1.126   2.229   7.272
 2310SOL    HW1 7490   1.092   2.295   7.333
 2310SOL    HW2 7491   1.216   2.256   7.256
 2311SOL     OW 7492   3.999   3.184   5.768
 2311SOL    HW1 7493   3.905   3.199   5.772
 2311SOL    HW2 7494   0.009   3.091   5.789
 2312SOL     OW 7495   0.075   3.663   6.480
 2312SOL    HW1 7496   0.082   3.568   6.487
 2312SOL    HW2 7497   0.166   3.693   6.476
 2313SOL     OW 7498   0.506   3.429   6.497
 2313SOL    HW1 7499   0.574   3.494   6.520
 2313SOL    HW2 7500   0.551   3.367   6.440
 2314SOL     OW 7501   0.988   2.657   6.815
 2314SOL    HW1 7502   1.040   2.630   6.891
 2314SOL    HW2 7503   0.901   2.620   6.831
 2315SOL     OW 7504   0.038   2.414   6.697
 2315SOL    HW1 7505   0.119   2.387   6.655
 2315SOL    HW2 7506   0.057   2.413   6.790
 2316SOL     OW 7507   0.205   2.376   7.312
 2316SOL    HW1 7508   0.250   2.335   7.238
 2316SOL    HW2 7509   0.153   2.446   7.272
 2317SOL     OW 7510   1.364   2.810   7.243
 2317SOL    HW1 7511   1.391   2.902   7.243
 2317SOL    HW2 7512   1.362   2.785   7.151
 2318SOL     OW 7513   0.817   2.432   5.940
 2318SOL    HW1 7514   0.818   2.355   5.883
 2318SOL    HW2 7515   0.741   2.482   5.910
 2319SOL     OW 7516   0.294   3.410   7.321
 2319SOL    HW1 7517   0.242   3.480   7.362
 2319SOL    HW2 7518   0.258   3.329   7.356
 2320SOL     OW 7519   0.695   2.315   6.849
 2320SOL    HW1 7520   0.646   2.240   6.816
 2320SOL    HW2 7521   0.694   2.378   6.776
 2321SOL     OW 7522   0.933   3.536   7.052
 2321SOL    HW1 7523   0.904   3.505   6.966
 2321SOL    HW2 7524   0.928   3.632   7.045
 2322SOL     OW 7525   0.464   2.354   5.777
 2322SOL    HW1 7526   0.526   2.424   5.796
 2322SOL    HW2 7527   0.381   2.399   5.761
 2323SOL     OW 7528   0.157   2.999   7.058
 2323SOL    HW1 7529   0.163   2.946   7.137
 2323SOL    HW2 7530   0.173   2.937   6.987
 2324SOL     OW 7531   1.329   2.910   6.810
 2324SOL    HW1 7532   1.355   2.851   6.740
 2324SOL    HW2 7533   1.256   2.960   6.774
 2325SOL     OW 7534   1.306   2.715   5.896
 2325SOL    HW1 7535   1.225   2.686   5.939
 2325SOL    HW2 7536   1.287   2.705   5.802
 2326SOL     OW 7537   1.765   3.610   6.733
 2326SOL    HW1 7538   1.829   3.635   6.666
 2326SOL    HW2 7539   1.745   3.518   6.713
 2327SOL     OW 7540   1.243   3.596   6.702
 2327SOL    HW1 7541   1.325   3.613   6.656
 2327SOL    HW2 7542   1.245   3.502   6.721
 2328SOL     OW 7543   0.075   3.079   6.612
 2328SOL    HW1 7544   0.082   3.105   6.704
 2328SOL    HW2 7545   3.982   3.085   6.593
 2329SOL     OW 7546   0.679   3.524   7.310
 2329SOL    HW1 7547   0.625   3.603   7.314
 2329SOL    HW2 7548   0.738   3.539   7.236
 2330SOL     OW 7549   1.718   2.051   6.077
 2330SOL    HW1 7550   1.804   2.017   6.051
 2330SOL    HW2 7551   1.681   1.982   6.131
 2331SOL     OW 7552   1.389   3.431   6.069
 2331SOL    HW1 7553   1.450   3.462   6.002
 2331SOL    HW2 7554   1.343   3.509   6.097
 2332SOL     OW 7555   0.165   3.631   7.416
 2332SOL    HW1 7556   0.107   3.581   7.473
 2332SOL    HW2 7557   0.212   3.689   7.476
 2333SOL     OW 7558   1.294   2.785   6.264
 2333SOL    HW1 7559   1.359   2.720   6.236
 2333SOL    HW2 7560   1.314   2.863   6.212
 2334SOL     OW 7561   0.818   3.134   7.018
 2334SOL    HW1 7562   0.792   3.173   7.101
 2334SOL    HW2 7563   0.747   3.155   6.958
 2335SOL     OW 7564   0.675   3.475   5.742
 2335SOL    HW1 7565   0.680   3.490   5.648
 2335SOL    HW2 7566   0.619   3.397   5.751
 2336SOL     OW 7567   1.631   3.587   6.977
 2336SOL    HW1 7568   1.680   3.595   6.895
 2336SOL    HW2 7569   1.618   3.678   7.006
 2337SOL     OW 7570   0.269   2.178   6.304
 2337SOL    HW1 7571   0.185   2.215   6.278
 2337SOL    HW2 7572   0.261   2.167   6.399
 2338SOL     OW 7573   1.205   3.470   5.620
 2338SOL    HW1 7574   1.197   3.378   5.644
 2338SOL    HW2 7575   1.144   3.481   5.547
 2339SOL     OW 7576   0.824   2.868   6.958
 2339SOL    HW1 7577   0.867   2.864   6.873
 2339SOL    HW2 7578   0.825   2.960   6.982
 2340SOL     OW 7579   0.916   2.772   5.876
 2340SOL    HW1 7580   0.977   2.804   5.810
 2340SOL    HW2 7581   0.962   2.700   5.919
 2341SOL     OW 7582   1.493   3.488   5.627
 2341SOL    HW1 7583   1.399   3.481   5.614
 2341SOL    HW2 7584   1.530   3.493   5.539
 2342SOL     OW 7585   0.373   3.164   7.077
 2342SOL    HW1 7586   0.358   3.244   7.028
 2342SOL    HW2 7587   0.295   3.110   7.060
 2343SOL     OW 7588   1.610   3.144   6.868
 2343SOL    HW1 7589   1.672   3.138   6.940
 2343SOL    HW2 7590   1.551   3.216   6.892
 2344SOL     OW 7591   1.049   2.967   6.293
 2344SOL    HW1 7592   0.978   2.917   6.333
 2344SOL    HW2 7593   1.105   2.900   6.252
 2345SOL     OW 7594   1.005   2.095   6.554
 2345SOL    HW1 7595   1.002   2.048   6.471
 2345SOL    HW2 7596   0.997   2.026   6.621
 2346SOL     OW 7597   0.602   3.352   6.068
 2346SOL    HW1 7598   0.642   3.301   5.998
 2346SOL    HW2 7599   0.536   3.406   6.024
 2347SOL     OW 7600   0.252   3.204   5.875
 2347SOL    HW1 7601   0.159   3.216   5.854
 2347SOL    HW2 7602   0.262   3.243   5.963
 2348SOL     OW 7603   0.104   2.863   7.305
 2348SOL    HW1 7604   0.042   2.850   7.376
 2348SOL    HW2 7605   0.190   2.842   7.343
 2349SOL     OW 7606   0.671   2.059   7.085
 2349SOL    HW1 7607   0.755   2.039   7.043
 2349SOL    HW2 7608   0.694   2.087   7.173
 2350SOL     OW 7609   0.080   2.184   5.622
 2350SOL    HW1 7610   3.984   2.182   5.625
 2350SOL    HW2 7611   0.101   2.264   5.574
 2351SOL     OW 7612   1.430   2.720   6.985
 2351SOL    HW1 7613   1.385   2.782   6.929
 2351SOL    HW2 7614   1.522   2.728   6.961
 2352SOL     OW 7615   0.029   2.077   5.949
 2352SOL    HW1 7616   0.049   2.145   5.885
 2352SOL    HW2 7617   0.115   2.044   5.975
 2353SOL     OW 7618   1.180   3.203   5.703
 2353SOL    HW1 7619   1.088   3.175   5.706
 2353SOL    HW2 7620   1.208   3.202   5.794
 2354SOL     OW 7621   0.617   2.694   7.020
 2354SOL    HW1 7622   0.673   2.770   7.005
 2354SOL    HW2 7623   0.679   2.620   7.028
 2355SOL     OW 7624   1.486   3.637   6.562
 2355SOL    HW1 7625   1.513   3.692   6.488
 2355SOL    HW2 7626   1.567   3.620   6.610
 2356SOL     OW 7627   0.716   2.427   7.293
 2356SOL    HW1 7628   0.755   2.491   7.353
 2356SOL    HW2 7629   0.753   2.343   7.320
 2357SOL     OW 7630   1.470   3.065   7.217
 2357SOL    HW1 7631   1.457   3.080   7.310
 2357SOL    HW2 7632   1.564   3.077   7.203
 2358SOL     OW 7633   0.380   3.603   7.145
 2358SOL    HW1 7634   0.293   3.640   7.132
 2358SOL    HW2 7635   0.366   3.522   7.193
 2359SOL     OW 7636   1.675   2.744   6.836
 2359SOL    HW1 7637   1.665   2.666   6.781
 2359SOL    HW2 7638   1.664   2.818   6.775
 2360SOL     OW 7639   0.592   2.603   6.253
 2360SOL    HW1 7640   0.631   2.688   6.236
 2360SOL    HW2 7641   0.521   2.595   6.189
 2361SOL     OW 7642   1.735   2.798   7.095
 2361SOL    HW1 7643   1.756   2.891   7.110
 2361SOL    HW2 7644   1.730   2.789   7.000
 2362SOL     OW 7645   0.864   3.231   5.617
 2362SOL    HW1 7646   0.821   3.258   5.699
 2362SOL    HW2 7647   0.881   3.313   5.571
 2363SOL     OW 7648   0.658   3.655   6.530
 2363SOL    HW1 7649   0.634   3.745   6.509
 2363SOL    HW2 7650   0.753   3.653   6.525
 2364SOL     OW 7651   0.866   2.827   6.442
 2364SOL    HW1 7652   0.917   2.756   6.482
 2364SOL    HW2 7653   0.834   2.878   6.516
 2365SOL     OW 7654   1.079   2.849   5.674
 2365SOL    HW1 7655   1.058   2.900   5.596
 2365SOL    HW2 7656   1.156   2.797   5.649
 2366SOL     OW 7657   1.856   3.417   6.430
 2366SOL    HW1 7658   1.778   3.405   6.377
 2366SOL    HW2 7659   1.850   3.350   6.498
 2367SOL     OW 7660   0.222   3.166   7.440
 2367SOL    HW1 7661   0.152   3.105   7.416
 2367SOL    HW2 7662   0.210   3.180   7.534
 2368SOL     OW 7663   0.109   3.133   6.300
 2368SOL    HW1 7664   0.112   3.080   6.379
 2368SOL    HW2 7665   0.116   3.070   6.228
 2369SOL     OW 7666   0.680   3.262   7.213
 2369SOL    HW1 7667   0.599   3.220   7.242
 2369SOL    HW2 7668   0.675   3.351   7.249
 2370SOL     OW 7669   0.441   2.296   6.117
 2370SOL    HW1 7670   0.443   2.226   6.052
 2370SOL    HW2 7671   0.386   2.261   6.188
 2371SOL     OW 7672   1.701   3.353   6.686
 2371SOL    HW1 7673   1.620   3.326   6.644
 2371SOL    HW2 7674   1.718   3.285   6.751
 2372SOL     OW 7675   0.330   2.414   6.876
 2372SOL    HW1 7676   0.385   2.359   6.931
 2372SOL    HW2 7677   0.347   2.386   6.787
 2373SOL     OW 7678   0.825   3.440   6.265
 2373SOL    HW1 7679   0.820   3.484   6.180
 2373SOL    HW2 7680   0.747   3.385   6.268
 2374SOL     OW 7681   1.000   1.882   6.732
 2374SOL    HW1 7682   0.949   1.810   6.695
 2374SOL    HW2 7683   1.089   1.847   6.739
 2375SOL     OW 7684   0.771   3.194   5.898
 2375SOL    HW1 7685   0.737   3.104   5.904
 2375SOL    HW2 7686   0.854   3.191   5.945
 2376SOL     OW 7687   0.620   3.420   6.869
 2376SOL    HW1 7688   0.622   3.501   6.921
 2376SOL    HW2 7689   0.707   3.413   6.831
 2377SOL     OW 7690   1.354   1.919   5.750
 2377SOL    HW1 7691   1.377   1.857   5.681
 2377SOL    HW2 7692   1.271   1.888   5.785
 2378SOL     OW 7693   0.043   2.916   5.827
 2378SOL    HW1 7694   0.137   2.899   5.820
 2378SOL    HW2 7695   0.009   2.837   5.869
 2379SOL     OW 7696   0.881   3.513   5.932
 2379SOL    HW1 7697   0.811   3.494   5.869
 2379SOL    HW2 7698   0.850   3.591   5.979
 2380SOL     OW 7699   0.231   2.483   7.570
 2380SOL    HW1 7700   0.138   2.493   7.589
 2380SOL    HW2 7701   0.233   2.455   7.478
 2381SOL     OW 7702   0.228   2.132   8.435
 2381SOL    HW1 7703   0.249   2.103   8.524
 2381SOL    HW2 7704   0.133   2.121   8.428
 2382SOL     OW 7705   0.013   2.228   8.083
 2382SOL    HW1 7706   3.927   2.246   8.122
 2382SOL    HW2 7707   3.993   2.186   8.000
 2383SOL     OW 7708   0.574   3.141   8.627
 2383SOL    HW1 7709   0.487   3.146   8.586
 2383SOL    HW2 7710   0.590   3.229   8.661
 2384SOL     OW 7711   1.557   3.373   8.154
 2384SOL    HW1 7712   1.513   3.354   8.237
 2384SOL    HW2 7713   1.486   3.378   8.090
 2385SOL     OW 7714   1.129   2.560   8.152
 2385SOL    HW1 7715   1.180   2.639   8.137
 2385SOL    HW2 7716   1.083   2.577   8.234
 2386SOL     OW 7717   0.760   3.006   8.485
 2386SOL    HW1 7718   0.691   3.038   8.543
 2386SOL    HW2 7719   0.793   3.084   8.440
 2387SOL     OW 7720   0.861   2.643   9.269
 2387SOL    HW1 7721   0.852   2.715   9.331
 2387SOL    HW2 7722   0.886   2.685   9.187
 2388SOL     OW 7723   0.686   2.869   8.097
 2388SOL    HW1 7724   0.750   2.854   8.167
 2388SOL    HW2 7725   0.616   2.919   8.139
 2389SOL     OW 7726   0.707   3.013   9.258
 2389SOL    HW1 7727   0.755   3.093   9.282
 2389SOL    HW2 7728   0.624   3.045   9.224
 2390SOL     OW 7729   0.351   3.266   8.526
 2390SOL    HW1 7730   0.268   3.253   8.480
 2390SOL    HW2 7731   0.400   3.327   8.471
 2391SOL     OW 7732   1.461   3.360   8.798
 2391SOL    HW1 7733   1.506   3.444   8.809
 2391SOL    HW2 7734   1.406   3.352   8.876
 2392SOL     OW 7735   0.449   2.263   8.942
 2392SOL    HW1 7736   0.523   2.202   8.943
 2392SOL    HW2 7737   0.372   2.207   8.951
 2393SOL     OW 7738   1.607   2.315   8.189
 2393SOL    HW1 7739   1.526   2.337   8.143
 2393SOL    HW2 7740   1.626   2.391   8.243
 2394SOL     OW 7741   0.227   3.572   7.916
 2394SOL    HW1 7742   0.237   3.650   7.971
 2394SOL    HW2 7743   0.302   3.575   7.857
 2395SOL     OW 7744   1.136   3.203   9.139
 2395SOL    HW1 7745   1.175   3.199   9.226
 2395SOL    HW2 7746   1.083   3.123   9.133
 2396SOL     OW 7747   0.243   3.305   7.986
 2396SOL    HW1 7748   0.218   3.396   7.976
 2396SOL    HW2 7749   0.173   3.267   8.040
 2397SOL     OW 7750   0.245   2.934   8.332
 2397SOL    HW1 7751   0.262   2.851   8.377
 2397SOL    HW2 7752   0.194   2.984   8.395
 2398SOL     OW 7753   0.615   3.649   8.880
 2398SOL    HW1 7754   0.532   3.634   8.924
 2398SOL    HW2 7755   0.640   3.738   8.904
 2399SOL     OW 7756   0.586   2.843   7.582
 2399SOL    HW1 7757   0.629   2.893   7.513
 2399SOL    HW2 7758   0.629   2.871   7.662
 2400SOL     OW 7759   1.589   1.986   8.914
 2400SOL    HW1 7760   1.575   2.068   8.866
 2400SOL    HW2 7761   1.584   2.011   9.006
 2401SOL     OW 7762   0.140   2.507   8.022
 2401SOL    HW1 7763   0.084   2.429   8.023
 2401SOL    HW2 7764   0.104   2.563   8.091
 2402SOL     OW 7765   1.840   3.618   7.787
 2402SOL    HW1 7766   1.902   3.592   7.855
 2402SOL    HW2 7767   1.866   3.707   7.764
 2403SOL     OW 7768   0.041   3.456   7.589
 2403SOL    HW1 7769   0.030   3.363   7.608
 2403SOL    HW2 7770   3.965   3.498   7.628
 2404SOL     OW 7771   1.688   2.779   8.088
 2404SOL    HW1 7772   1.778   2.747   8.078
 2404SOL    HW2 7773   1.671   2.831   8.010
 2405SOL     OW 7774   1.646   2.968   7.880
 2405SOL    HW1 7775   1.731   2.980   7.837
 2405SOL    HW2 7776   1.648   3.029   7.954
 2406SOL     OW 7777   0.130   2.612   9.040
 2406SOL    HW1 7778   0.226   2.606   9.049
 2406SOL    HW2 7779   0.111   2.705   9.048
 2407SOL     OW 7780   0.612   3.244   8.182
 2407SOL    HW1 7781   0.566   3.161   8.192
 2407SOL    HW2 7782   0.595   3.271   8.092
 2408SOL     OW 7783   1.290   3.100   8.872
 2408SOL    HW1 7784   1.323   3.033   8.813
 2408SOL    HW2 7785   1.346   3.093   8.950
 2409SOL     OW 7786   0.814   1.863   7.956
 2409SOL    HW1 7787   0.853   1.949   7.939
 2409SOL    HW2 7788   0.720   1.880   7.964
 2410SOL     OW 7789   0.187   2.819   8.723
 2410SOL    HW1 7790   0.275   2.784   8.707
 2410SOL    HW2 7791   0.131   2.771   8.661
 2411SOL     OW 7792   1.523   2.876   7.646
 2411SOL    HW1 7793   1.453   2.816   7.673
 2411SOL    HW2 7794   1.565   2.903   7.727
 2412SOL     OW 7795   1.206   3.663   9.072
 2412SOL    HW1 7796   1.196   3.722   8.997
 2412SOL    HW2 7797   1.209   3.575   9.033
 2413SOL     OW 7798   0.335   2.109   9.259
 2413SOL    HW1 7799   0.379   2.194   9.265
 2413SOL    HW2 7800   0.245   2.127   9.285
 2414SOL     OW 7801   1.465   3.282   8.401
 2414SOL    HW1 7802   1.397   3.296   8.467
 2414SOL    HW2 7803   1.454   3.191   8.373
 2415SOL     OW 7804   1.659   3.594   8.027
 2415SOL    HW1 7805   1.639   3.566   7.938
 2415SOL    HW2 7806   1.634   3.520   8.082
 2416SOL     OW 7807   0.596   2.583   7.711
 2416SOL    HW1 7808   0.605   2.664   7.661
 2416SOL    HW2 7809   0.533   2.604   7.779
 2417SOL     OW 7810   1.280   2.212   8.381
 2417SOL    HW1 7811   1.191   2.177   8.389
 2417SOL    HW2 7812   1.332   2.158   8.440
 2418SOL     OW 7813   1.580   3.533   7.756
 2418SOL    HW1 7814   1.670   3.564   7.751
 2418SOL    HW2 7815   1.557   3.513   7.665
 2419SOL     OW 7816   0.793   2.479   8.902
 2419SOL    HW1 7817   0.765   2.456   8.990
 2419SOL    HW2 7818   0.750   2.413   8.846
 2420SOL     OW 7819   1.394   2.335   9.125
 2420SOL    HW1 7820   1.394   2.380   9.210
 2420SOL    HW2 7821   1.459   2.266   9.134
 2421SOL     OW 7822   0.958   2.750   9.029
 2421SOL    HW1 7823   1.012   2.679   8.995
 2421SOL    HW2 7824   0.910   2.783   8.952
 2422SOL     OW 7825   0.992   2.275   8.688
 2422SOL    HW1 7826   0.909   2.298   8.728
 2422SOL    HW2 7827   0.968   2.227   8.608
 2423SOL     OW 7828   1.049   2.563   7.878
 2423SOL    HW1 7829   1.063   2.555   7.972
 2423SOL    HW2 7830   0.968   2.515   7.861
 2424SOL     OW 7831   0.082   2.684   8.238
 2424SOL    HW1 7832   0.164   2.658   8.279
 2424SOL    HW2 7833   0.086   2.779   8.235
 2425SOL     OW 7834   0.128   3.708   9.020
 2425SOL    HW1 7835   0.134   3.679   9.111
 2425SOL    HW2 7836   0.035   3.699   8.998
 2426SOL     OW 7837   0.888   2.209   7.640
 2426SOL    HW1 7838   0.934   2.269   7.582
 2426SOL    HW2 7839   0.904   2.122   7.603
 2427SOL     OW 7840   1.709   2.441   9.279
 2427SOL    HW1 7841   1.673   2.513   9.227
 2427SOL    HW2 7842   1.737   2.376   9.215
 2428SOL     OW 7843   1.375   3.006   7.992
 2428SOL    HW1 7844   1.451   2.988   7.937
 2428SOL    HW2 7845   1.322   3.067   7.940
 2429SOL     OW 7846   0.546   2.044   8.340
 2429SOL    HW1 7847   0.551   2.073   8.431
 2429SOL    HW2 7848   0.549   2.125   8.289
 2430SOL     OW 7849   1.009   3.309   7.922
 2430SOL    HW1 7850   0.966   3.379   7.873
 2430SOL    HW2 7851   0.994   3.330   8.014
 2431SOL     OW 7852   0.358   3.667   8.304
 2431SOL    HW1 7853   0.432   3.606   8.311
 2431SOL    HW2 7854   0.398   3.753   8.312
 2432SOL     OW 7855   1.797   2.922   8.315
 2432SOL    HW1 7856   1.739   2.906   8.241
 2432SOL    HW2 7857   1.738   2.927   8.391
 2433SOL     OW 7858   1.228   3.400   8.959
 2433SOL    HW1 7859   1.214   3.327   9.020
 2433SOL    HW2 7860   1.165   3.385   8.888
 2434SOL     OW 7861   0.311   2.817   7.690
 2434SOL    HW1 7862   0.396   2.840   7.653
 2434SOL    HW2 7863   0.295   2.728   7.660
 2435SOL     OW 7864   1.466   2.601   8.183
 2435SOL    HW1 7865   1.467   2.556   8.268
 2435SOL    HW2 7866   1.549   2.648   8.180
 2436SOL     OW 7867   0.464   3.120   9.184
 2436SOL    HW1 7868   0.437   3.130   9.093
 2436SOL    HW2 7869   0.382   3.127   9.234
 2437SOL     OW 7870   1.113   3.642   7.673
 2437SOL    HW1 7871   1.052   3.593   7.729
 2437SOL    HW2 7872   1.141   3.578   7.607
 2438SOL     OW 7873   0.203   2.146   8.954
 2438SOL    HW1 7874   0.113   2.176   8.941
 2438SOL    HW2 7875   0.195   2.067   9.006
 2439SOL     OW 7876   1.628   3.241   7.537
 2439SOL    HW1 7877   1.590   3.327   7.519
 2439SOL    HW2 7878   1.559   3.179   7.515
 2440SOL     OW 7879   0.469   3.598   7.769
 2440SOL    HW1 7880   0.505   3.662   7.831
 2440SOL    HW2 7881   0.543   3.575   7.713
 2441SOL     OW 7882   0.250   3.656   8.680
 2441SOL    HW1 7883   0.299   3.593   8.733
 2441SOL    HW2 7884   0.244   3.615   8.593
 2442SOL     OW 7885   0.938   3.560   8.350
 2442SOL    HW1 7886   1.015   3.506   8.369
 2442SOL    HW2 7887   0.892   3.512   8.281
 2443SOL     OW 7888   0.393   2.556   7.922
 2443SOL    HW1 7889   0.422   2.466   7.934
 2443SOL    HW2 7890   0.301   2.556   7.949
 2444SOL     OW 7891   1.539   2.086   9.172
 2444SOL    HW1 7892   1.550   2.109   9.265
 2444SOL    HW2 7893   1.470   2.021   9.172
 2445SOL     OW 7894   0.628   1.984   7.551
 2445SOL    HW1 7895   0.702   1.926   7.565
 2445SOL    HW2 7896   0.585   1.951   7.472
 2446SOL     OW 7897   0.768   2.138   9.200
 2446SOL    HW1 7898   0.841   2.076   9.207
 2446SOL    HW2 7899   0.718   2.126   9.281
 2447SOL     OW 7900   0.876   3.382   8.642
 2447SOL    HW1 7901   0.862   3.347   8.554
 2447SOL    HW2 7902   0.946   3.327   8.678
 2448SOL     OW 7903   1.342   2.450   8.880
 2448SOL    HW1 7904   1.372   2.419   8.965
 2448SOL    HW2 7905   1.377   2.539   8.874
 2449SOL     OW 7906   0.813   3.260   8.383
 2449SOL    HW1 7907   0.897   3.249   8.339
 2449SOL    HW2 7908   0.748   3.257   8.313
 2450SOL     OW 7909   0.926   2.371   8.352
 2450SOL    HW1 7910   0.904   2.363   8.259
 2450SOL    HW2 7911   0.960   2.285   8.376
 2451SOL     OW 7912   0.551   1.924   7.949
 2451SOL    HW1 7913   0.469   1.929   7.998
 2451SOL    HW2 7914   0.555   2.006   7.901
 2452SOL     OW 7915   1.424   3.066   7.484
 2452SOL    HW1 7916   1.457   2.994   7.537
 2452SOL    HW2 7917   1.339   3.087   7.522
 2453SOL     OW 7918   0.303   1.911   7.619
 2453SOL    HW1 7919   0.369   1.954   7.565
 2453SOL    HW2 7920   0.352   1.846   7.669
 2454SOL     OW 7921   0.933   2.106   7.912
 2454SOL    HW1 7922   0.902   2.149   7.832
 2454SOL    HW2 7923   1.027   2.126   7.915
 2455SOL     OW 7924   1.080   2.541   8.908
 2455SOL    HW1 7925   1.009   2.476   8.913
 2455SOL    HW2 7926   1.160   2.489   8.900
 2456SOL     OW 7927   1.225   3.431   8.241
 2456SOL    HW1 7928   1.242   3.500   8.177
 2456SOL    HW2 7929   1.292   3.443   8.308
 2457SOL     OW 7930   0.466   3.010   8.188
 2457SOL    HW1 7931   0.392   2.989   8.245
 2457SOL    HW2 7932   0.433   2.994   8.100
 2458SOL     OW 7933   1.271   3.659   8.052
 2458SOL    HW1 7934   1.314   3.723   7.995
 2458SOL    HW2 7935   1.203   3.709   8.097
 2459SOL     OW 7936   1.032   2.409   7.467
 2459SOL    HW1 7937   0.988   2.493   7.452
 2459SOL    HW2 7938   1.089   2.425   7.542
 2460SOL     OW 7939   0.079   2.431   8.838
 2460SOL    HW1 7940   0.168   2.418   8.807
 2460SOL    HW2 7941   0.086   2.500   8.904
 2461SOL     OW 7942   0.567   2.088   8.610
 2461SOL    HW1 7943   0.605   2.009   8.648
 2461SOL    HW2 7944   0.476   2.088   8.640
 2462SOL     OW 7945   0.869   2.321   8.088
 2462SOL    HW1 7946   0.822   2.375   8.025
 2462SOL    HW2 7947   0.887   2.240   8.042
 2463SOL     OW 7948   1.014   1.915   8.200
 2463SOL    HW1 7949   0.955   1.907   8.125
 2463SOL    HW2 7950   0.994   1.839   8.255
 2464SOL     OW 7951   1.435   3.026   8.305
 2464SOL    HW1 7952   1.369   2.957   8.305
 2464SOL    HW2 7953   1.457   3.039   8.213
 2465SOL     OW 7954   1.469   2.464   8.429
 2465SOL    HW1 7955   1.420   2.381   8.433
 2465SOL    HW2 7956   1.529   2.460   8.504
 2466SOL     OW 7957   0.491   3.274   7.611
 2466SOL    HW1 7958   0.415   3.244   7.661
 2466SOL    HW2 7959   0.466   3.260   7.520
 2467SOL     OW 7960   1.669   3.127   8.096
 2467SOL    HW1 7961   1.763   3.133   8.109
 2467SOL    HW2 7962   1.636   3.215   8.118
 2468SOL     OW 7963   0.572   2.130   7.774
 2468SOL    HW1 7964   0.593   2.079   7.696
 2468SOL    HW2 7965   0.538   2.213   7.739
 2469SOL     OW 7966   1.754   3.098   9.024
 2469SOL    HW1 7967   1.841   3.059   9.022
 2469SOL    HW2 7968   1.768   3.188   9.054
 2470SOL     OW 7969   1.060   3.215   8.782
 2470SOL    HW1 7970   0.986   3.184   8.834
 2470SOL    HW2 7971   1.137   3.174   8.824
 2471SOL     OW 7972   1.606   3.487   9.100
 2471SOL    HW1 7973   1.603   3.521   9.010
 2471SOL    HW2 7974   1.690   3.441   9.105
 2472SOL     OW 7975   1.126   3.063   8.555
 2472SOL    HW1 7976   1.068   3.102   8.621
 2472SOL    HW2 7977   1.091   3.094   8.471
 2473SOL     OW 7978   1.631   2.962   8.527
 2473SOL    HW1 7979   1.627   3.024   8.599
 2473SOL    HW2 7980   1.550   2.977   8.478
 2474SOL     OW 7981   0.918   1.960   8.847
 2474SOL    HW1 7982   0.940   1.941   8.756
 2474SOL    HW2 7983   0.997   2.000   8.883
 2475SOL     OW 7984   0.984   2.976   9.170
 2475SOL    HW1 7985   0.891   2.991   9.189
 2475SOL    HW2 7986   0.985   2.899   9.114
 2476SOL     OW 7987   0.707   2.921   7.819
 2476SOL    HW1 7988   0.694   2.908   7.913
 2476SOL    HW2 7989   0.784   2.868   7.798
 2477SOL     OW 7990   0.418   2.676   8.700
 2477SOL    HW1 7991   0.488   2.684   8.765
 2477SOL    HW2 7992   0.384   2.588   8.713
 2478SOL     OW 7993   1.267   2.240   8.721
 2478SOL    HW1 7994   1.299   2.317   8.767
 2478SOL    HW2 7995   1.178   2.262   8.695
 2479SOL     OW 7996   0.063   3.440   8.791
 2479SOL    HW1 7997   0.063   3.512   8.728
 2479SOL    HW2 7998   0.156   3.429   8.814
 2480SOL     OW 7999   0.377   2.964   7.936
 2480SOL    HW1 8000   0.368   3.041   7.880
 2480SOL    HW2 8001   0.374   2.890   7.875
 2481SOL     OW 8002   0.555   2.401   8.311
 2481SOL    HW1 8003   0.571   2.457   8.235
 2481SOL    HW2 8004   0.619   2.429   8.376
 2482SOL     OW 8005   1.248   3.210   7.837
 2482SOL    HW1 8006   1.303   3.282   7.868
 2482SOL    HW2 8007   1.161   3.230   7.871
 2483SOL     OW 8008   1.277   3.318   8.594
 2483SOL    HW1 8009   1.332   3.320   8.672
 2483SOL    HW2 8010   1.222   3.241   8.605
 2484SOL     OW 8011   0.346   3.385   8.768
 2484SOL    HW1 8012   0.337   3.336   8.687
 2484SOL    HW2 8013   0.440   3.402   8.775
 2485SOL     OW 8014   0.411   2.604   9.049
 2485SOL    HW1 8015   0.471   2.651   8.991
 2485SOL    HW2 8016   0.453   2.519   9.065
 2486SOL     OW 8017   1.598   2.639   9.127
 2486SOL    HW1 8018   1.511   2.680   9.120
 2486SOL    HW2 8019   1.650   2.682   9.059
 2487SOL     OW 8020   0.997   1.980   9.205
 2487SOL    HW1 8021   1.048   2.054   9.172
 2487SOL    HW2 8022   1.046   1.902   9.178
 2488SOL     OW 8023   0.499   1.903   9.191
 2488SOL    HW1 8024   0.457   1.848   9.125
 2488SOL    HW2 8025   0.440   1.977   9.202
 2489SOL     OW 8026   0.583   2.734   8.479
 2489SOL    HW1 8027   0.614   2.825   8.476
 2489SOL    HW2 8028   0.527   2.731   8.556
 2490SOL     OW 8029   1.360   2.720   8.483
 2490SOL    HW1 8030   1.281   2.715   8.429
 2490SOL    HW2 8031   1.398   2.633   8.479
 2491SOL     OW 8032   1.191   2.400   7.705
 2491SOL    HW1 8033   1.218   2.321   7.752
 2491SOL    HW2 8034   1.157   2.459   7.772
 2492SOL     OW 8035   0.312   2.062   8.695
 2492SOL    HW1 8036   0.267   2.100   8.771
 2492SOL    HW2 8037   0.286   1.970   8.694
 2493SOL     OW 8038   0.054   3.166   8.728
 2493SOL    HW1 8039   0.089   3.128   8.809
 2493SOL    HW2 8040   0.050   3.260   8.745
 2494SOL     OW 8041   0.727   2.495   8.509
 2494SOL    HW1 8042   0.799   2.476   8.448
 2494SOL    HW2 8043   0.699   2.583   8.485
 2495SOL     OW 8044   1.733   2.822   9.298
 2495SOL    HW1 8045   1.686   2.764   9.238
 2495SOL    HW2 8046   1.673   2.833   9.372
 2496SOL     OW 8047   0.309   1.927   8.070
 2496SOL    HW1 8048   0.292   2.018   8.092
 2496SOL    HW2 8049   0.312   1.881   8.154
 2497SOL     OW 8050   1.026   2.622   8.410
 2497SOL    HW1 8051   1.027   2.640   8.504
 2497SOL    HW2 8052   1.000   2.530   8.403
 2498SOL     OW 8053   0.984   3.429   9.163
 2498SOL    HW1 8054   0.967   3.473   9.080
 2498SOL    HW2 8055   1.026   3.346   9.139
 2499SOL     OW 8056   1.856   3.371   9.054
 2499SOL    HW1 8057   1.873   3.397   8.963
 2499SOL    HW2 8058   1.937   3.392   9.100
 2500SOL     OW 8059   0.351   2.781   9.251
 2500SOL    HW1 8060   0.430   2.801   9.299
 2500SOL    HW2 8061   0.378   2.716   9.185
 2501SOL     OW 8062   1.298   2.690   7.482
 2501SOL    HW1 8063   1.336   2.603   7.477
 2501SOL    HW2 8064   1.323   2.732   7.399
 2502SOL     OW 8065   1.064   3.197   8.300
 2502SOL    HW1 8066   1.067   3.124   8.239
 2502SOL    HW2 8067   1.128   3.260   8.266
 2503SOL     OW 8068   0.314   2.670   8.399
 2503SOL    HW1 8069   0.408   2.688   8.392
 2503SOL    HW2 8070   0.309   2.580   8.433
 2504SOL     OW 8071   0.333   2.380   8.460
 2504SOL    HW1 8072   0.298   2.293   8.442
 2504SOL    HW2 8073   0.408   2.388   8.402
 2505SOL     OW 8074   1.135   2.240   9.128
 2505SOL    HW1 8075   1.089   2.295   9.191
 2505SOL    HW2 8076   1.223   2.276   9.124
 2506SOL     OW 8077   1.160   2.066   8.918
 2506SOL    HW1 8078   1.151   2.129   8.990
 2506SOL    HW2 8079   1.197   2.118   8.846
 2507SOL     OW 8080   3.999   3.184   7.630
 2507SOL    HW1 8081   3.905   3.199   7.634
 2507SOL    HW2 8082   0.009   3.091   7.651
 2508SOL     OW 8083   0.075   3.663   8.342
 2508SOL    HW1 8084   0.082   3.568   8.349
 2508SOL    HW2 8085   0.166   3.693   8.338
 2509SOL     OW 8086   0.506   3.429   8.359
 2509SOL    HW1 8087   0.574   3.494   8.382
 2509SOL    HW2 8088   0.551   3.367   8.302
 2510SOL     OW 8089   0.988   2.657   8.677
 2510SOL    HW1 8090   1.040   2.631   8.752
 2510SOL    HW2 8091   0.901   2.619   8.694
 2511SOL     OW 8092   0.037   2.414   8.559
 2511SOL    HW1 8093   0.119   2.387   8.516
 2511SOL    HW2 8094   0.058   2.413   8.652
 2512SOL     OW 8095   0.205   2.376   9.174
 2512SOL    HW1 8096   0.251   2.336   9.100
 2512SOL    HW2 8097   0.153   2.446   9.134
 2513SOL     OW 8098   1.375   2.804   9.107
 2513SOL    HW1 8099   1.397   2.897   9.107
 2513SOL    HW2 8100   1.374   2.779   9.015
 2514SOL     OW 8101   0.817   2.431   7.803
 2514SOL    HW1 8102   0.819   2.355   7.745
 2514SOL    HW2 8103   0.741   2.482   7.772
 2515SOL     OW 8104   1.644   2.464   8.637
 2515SOL    HW1 8105   1.631   2.407   8.713
 2515SOL    HW2 8106   1.730   2.440   8.603
 2516SOL     OW 8107   0.294   3.410   9.183
 2516SOL    HW1 8108   0.242   3.480   9.224
 2516SOL    HW2 8109   0.258   3.329   9.218
 2517SOL     OW 8110   0.694   2.316   8.711
 2517SOL    HW1 8111   0.646   2.240   8.678
 2517SOL    HW2 8112   0.694   2.378   8.638
 2518SOL     OW 8113   0.932   3.536   8.914
 2518SOL    HW1 8114   0.904   3.505   8.828
 2518SOL    HW2 8115   0.927   3.632   8.907
 2519SOL     OW 8116   0.463   2.354   7.639
 2519SOL    HW1 8117   0.526   2.423   7.658
 2519SOL    HW2 8118   0.381   2.400   7.623
 2520SOL     OW 8119   0.157   2.999   8.920
 2520SOL    HW1 8120   0.163   2.946   8.999
 2520SOL    HW2 8121   0.172   2.936   8.849
 2521SOL     OW 8122   1.329   2.911   8.673
 2521SOL    HW1 8123   1.353   2.848   8.605
 2521SOL    HW2 8124   1.257   2.961   8.635
 2522SOL     OW 8125   1.292   2.735   7.759
 2522SOL    HW1 8126   1.222   2.691   7.808
 2522SOL    HW2 8127   1.274   2.711   7.667
 2523SOL     OW 8128   1.765   3.609   8.595
 2523SOL    HW1 8129   1.828   3.635   8.527
 2523SOL    HW2 8130   1.745   3.518   8.574
 2524SOL     OW 8131   1.243   3.596   8.564
 2524SOL    HW1 8132   1.325   3.613   8.518
 2524SOL    HW2 8133   1.245   3.502   8.583
 2525SOL     OW 8134   0.075   3.079   8.475
 2525SOL    HW1 8135   0.082   3.105   8.567
 2525SOL    HW2 8136   3.982   3.085   8.455
 2526SOL     OW 8137   0.679   3.524   9.172
 2526SOL    HW1 8138   0.625   3.603   9.175
 2526SOL    HW2 8139   0.738   3.538   9.098
 2527SOL     OW 8140   1.680   1.940   7.951
 2527SOL    HW1 8141   1.768   1.951   7.916
 2527SOL    HW2 8142   1.691   1.888   8.030
 2528SOL     OW 8143   1.390   3.431   7.931
 2528SOL    HW1 8144   1.450   3.462   7.864
 2528SOL    HW2 8145   1.343   3.509   7.960
 2529SOL     OW 8146   0.165   3.631   9.278
 2529SOL    HW1 8147   0.107   3.581   9.335
 2529SOL    HW2 8148   0.212   3.689   9.338
 2530SOL     OW 8149   1.275   2.787   8.119
 2530SOL    HW1 8150   1.347   2.725   8.126
 2530SOL    HW2 8151   1.311   2.859   8.067
 2531SOL     OW 8152   0.818   3.134   8.880
 2531SOL    HW1 8153   0.792   3.173   8.963
 2531SOL    HW2 8154   0.747   3.155   8.820
 2532SOL     OW 8155   0.675   3.475   7.604
 2532SOL    HW1 8156   0.680   3.490   7.510
 2532SOL    HW2 8157   0.619   3.397   7.613
 2533SOL     OW 8158   1.632   3.587   8.839
 2533SOL    HW1 8159   1.680   3.595   8.757
 2533SOL    HW2 8160   1.618   3.678   8.868
 2534SOL     OW 8161   0.269   2.178   8.166
 2534SOL    HW1 8162   0.185   2.215   8.140
 2534SOL    HW2 8163   0.261   2.167   8.261
 2535SOL     OW 8164   1.205   3.470   7.482
 2535SOL    HW1 8165   1.197   3.378   7.506
 2535SOL    HW2 8166   1.144   3.481   7.409
 2536SOL     OW 8167   0.824   2.868   8.820
 2536SOL    HW1 8168   0.867   2.864   8.735
 2536SOL    HW2 8169   0.825   2.960   8.844
 2537SOL     OW 8170   0.915   2.772   7.737
 2537SOL    HW1 8171   0.977   2.804   7.672
 2537SOL    HW2 8172   0.962   2.702   7.783
 2538SOL     OW 8173   1.494   3.488   7.489
 2538SOL    HW1 8174   1.399   3.481   7.476
 2538SOL    HW2 8175   1.530   3.493   7.401
 2539SOL     OW 8176   0.373   3.163   8.940
 2539SOL    HW1 8177   0.359   3.244   8.890
 2539SOL    HW2 8178   0.295   3.110   8.922
 2540SOL     OW 8179   1.612   3.145   8.729
 2540SOL    HW1 8180   1.671   3.138   8.804
 2540SOL    HW2 8181   1.551   3.215   8.754
 2541SOL     OW 8182   1.048   2.967   8.153
 2541SOL    HW1 8183   0.978   2.915   8.193
 2541SOL    HW2 8184   1.110   2.902   8.119
 2542SOL     OW 8185   1.020   2.102   8.414
 2542SOL    HW1 8186   1.014   2.054   8.331
 2542SOL    HW2 8187   1.015   2.034   8.481
 2543SOL     OW 8188   0.602   3.352   7.930
 2543SOL    HW1 8189   0.642   3.301   7.861
 2543SOL    HW2 8190   0.536   3.406   7.885
 2544SOL     OW 8191   1.721   2.250   8.823
 2544SOL    HW1 8192   1.793   2.313   8.830
 2544SOL    HW2 8193   1.755   2.181   8.766
 2545SOL     OW 8194   0.252   3.204   7.738
 2545SOL    HW1 8195   0.159   3.216   7.716
 2545SOL    HW2 8196   0.262   3.243   7.825
 2546SOL     OW 8197   0.104   2.863   9.167
 2546SOL    HW1 8198   0.043   2.850   9.239
 2546SOL    HW2 8199   0.190   2.842   9.205
 2547SOL     OW 8200   0.672   2.058   8.946
 2547SOL    HW1 8201   0.756   2.040   8.904
 2547SOL    HW2 8202   0.696   2.087   9.035
 2548SOL     OW 8203   0.080   2.184   7.484
 2548SOL    HW1 8204   3.984   2.182   7.487
 2548SOL    HW2 8205   0.101   2.264   7.436
 2549SOL     OW 8206   1.432   2.720   8.850
 2549SOL    HW1 8207   1.384   2.780   8.792
 2549SOL    HW2 8208   1.522   2.724   8.817
 2550SOL     OW 8209   0.028   2.077   7.812
 2550SOL    HW1 8210   0.048   2.145   7.748
 2550SOL    HW2 8211   0.114   2.043   7.838
 2551SOL     OW 8212   1.179   3.203   7.565
 2551SOL    HW1 8213   1.088   3.174   7.567
 2551SOL    HW2 8214   1.208   3.202   7.656
 2552SOL     OW 8215   0.618   2.693   8.882
 2552SOL    HW1 8216   0.673   2.770   8.867
 2552SOL    HW2 8217   0.679   2.620   8.890
 2553SOL     OW 8218   1.486   3.638   8.424
 2553SOL    HW1 8219   1.513   3.692   8.350
 2553SOL    HW2 8220   1.567   3.620   8.472
 2554SOL     OW 8221   0.716   2.427   9.155
 2554SOL    HW1 8222   0.754   2.491   9.215
 2554SOL    HW2 8223   0.752   2.343   9.183
 2555SOL     OW 8224   1.469   3.065   9.081
 2555SOL    HW1 8225   1.457   3.078   9.175
 2555SOL    HW2 8226   1.563   3.077   9.067
 2556SOL     OW 8227   0.380   3.603   9.007
 2556SOL    HW1 8228   0.293   3.640   8.994
 2556SOL    HW2 8229   0.366   3.522   9.055
 2557SOL     OW 8230   1.672   2.744   8.703
 2557SOL    HW1 8231   1.662   2.659   8.661
 2557SOL    HW2 8232   1.662   2.808   8.632
 2558SOL     OW 8233   1.199   2.182   7.912
 2558SOL    HW1 8234   1.278   2.141   7.878
 2558SOL    HW2 8235   1.228   2.231   7.988
 2559SOL     OW 8236   0.591   2.603   8.116
 2559SOL    HW1 8237   0.630   2.688   8.099
 2559SOL    HW2 8238   0.521   2.595   8.051
 2560SOL     OW 8239   1.760   2.238   9.097
 2560SOL    HW1 8240   1.743   2.240   9.003
 2560SOL    HW2 8241   1.699   2.174   9.131
 2561SOL     OW 8242   1.742   2.796   8.961
 2561SOL    HW1 8243   1.745   2.891   8.973
 2561SOL    HW2 8244   1.728   2.785   8.867
 2562SOL     OW 8245   0.864   3.231   7.479
 2562SOL    HW1 8246   0.822   3.257   7.561
 2562SOL    HW2 8247   0.881   3.313   7.433
 2563SOL     OW 8248   0.658   3.655   8.392
 2563SOL    HW1 8249   0.634   3.745   8.371
 2563SOL    HW2 8250   0.753   3.653   8.387
 2564SOL     OW 8251   0.866   2.826   8.304
 2564SOL    HW1 8252   0.917   2.756   8.344
 2564SOL    HW2 8253   0.833   2.878   8.378
 2565SOL     OW 8254   1.079   2.849   7.535
 2565SOL    HW1 8255   1.058   2.900   7.457
 2565SOL    HW2 8256   1.156   2.798   7.511
 2566SOL     OW 8257   1.856   3.416   8.292
 2566SOL    HW1 8258   1.778   3.406   8.238
 2566SOL    HW2 8259   1.847   3.351   8.361
 2567SOL     OW 8260   0.222   3.166   9.302
 2567SOL    HW1 8261   0.152   3.105   9.278
 2567SOL    HW2 8262   0.210   3.180   9.396
 2568SOL     OW 8263   0.109   3.133   8.162
 2568SOL    HW1 8264   0.113   3.079   8.241
 2568SOL    HW2 8265   0.116   3.070   8.090
 2569SOL     OW 8266   0.680   3.262   9.075
 2569SOL    HW1 8267   0.599   3.220   9.104
 2569SOL    HW2 8268   0.675   3.351   9.111
 2570SOL     OW 8269   0.440   2.296   7.979
 2570SOL    HW1 8270   0.445   2.226   7.914
 2570SOL    HW2 8271   0.386   2.260   8.049
 2571SOL     OW 8272   1.702   3.352   8.546
 2571SOL    HW1 8273   1.620   3.326   8.505
 2571SOL    HW2 8274   1.717   3.285   8.613
 2572SOL     OW 8275   0.329   2.414   8.738
 2572SOL    HW1 8276   0.385   2.359   8.793
 2572SOL    HW2 8277   0.347   2.386   8.649
 2573SOL     OW 8278   0.824   3.441   8.127
 2573SOL    HW1 8279   0.820   3.483   8.042
 2573SOL    HW2 8280   0.747   3.385   8.130
 2574SOL     OW 8281   1.437   2.088   8.568
 2574SOL    HW1 8282   1.455   2.004   8.610
 2574SOL    HW2 8283   1.381   2.135   8.630
 2575SOL     OW 8284   1.008   1.882   8.593
 2575SOL    HW1 8285   0.954   1.814   8.554
 2575SOL    HW2 8286   1.096   1.845   8.595
 2576SOL     OW 8287   0.771   3.194   7.760
 2576SOL    HW1 8288   0.737   3.104   7.766
 2576SOL    HW2 8289   0.854   3.191   7.807
 2577SOL     OW 8290   0.620   3.420   8.731
 2577SOL    HW1 8291   0.622   3.501   8.783
 2577SOL    HW2 8292   0.707   3.413   8.693
 2578SOL     OW 8293   1.296   2.320   8.129
 2578SOL    HW1 8294   1.246   2.401   8.138
 2578SOL    HW2 8295   1.294   2.281   8.217
 2579SOL     OW 8296   1.578   2.060   8.317
 2579SOL    HW1 8297   1.530   2.083   8.397
 2579SOL    HW2 8298   1.592   2.144   8.273
 2580SOL     OW 8299   0.043   2.916   7.689
 2580SOL    HW1 8300   0.137   2.900   7.681
 2580SOL    HW2 8301   0.009   2.837   7.731
 2581SOL     OW 8302   0.881   3.514   7.794
 2581SOL    HW1 8303   0.811   3.494   7.731
 2581SOL    HW2 8304   0.850   3.591   7.841
 2582SOL     OW 8305   0.231   2.482   9.432
 2582SOL    HW1 8306   0.138   2.493   9.452
 2582SOL    HW2 8307   0.233   2.455   9.340
 2583SOL     OW 8308   0.228   2.132  10.297
 2583SOL    HW1 8309   0.250   2.103  10.386
 2583SOL    HW2 8310   0.133   2.121  10.290
 2584SOL     OW 8311   0.013   2.228   9.945
 2584SOL    HW1 8312   3.928   2.246   9.985
 2584SOL    HW2 8313   3.993   2.186   9.862
 2585SOL     OW 8314   0.574   3.141  10.489
 2585SOL    HW1 8315   0.487   3.147  10.448
 2585SOL    HW2 8316   0.590   3.228  10.523
 2586SOL     OW 8317   1.557   3.373  10.016
 2586SOL    HW1 8318   1.514   3.355  10.099
 2586SOL    HW2 8319   1.486   3.378   9.952
 2587SOL     OW 8320   1.130   2.561  10.014
 2587SOL    HW1 8321   1.180   2.641   9.999
 2587SOL    HW2 8322   1.083   2.576  10.096
 2588SOL     OW 8323   1.766   2.469   9.540
 2588SOL    HW1 8324   1.746   2.462   9.447
 2588SOL    HW2 8325   1.732   2.389   9.579
 2589SOL     OW 8326   0.760   3.005  10.346
 2589SOL    HW1 8327   0.691   3.038  10.405
 2589SOL    HW2 8328   0.793   3.084  10.302
 2590SOL     OW 8329   0.861   2.643  11.131
 2590SOL    HW1 8330   0.852   2.715  11.193
 2590SOL    HW2 8331   0.886   2.686  11.049
 2591SOL     OW 8332   0.686   2.869   9.959
 2591SOL    HW1 8333   0.750   2.854  10.029
 2591SOL    HW2 8334   0.616   2.919  10.001
 2592SOL     OW 8335   0.707   3.013  11.120
 2592SOL    HW1 8336   0.755   3.093  11.144
 2592SOL    HW2 8337   0.624   3.045  11.086
 2593SOL     OW 8338   0.351   3.266  10.388
 2593SOL    HW1 8339   0.268   3.253  10.342
 2593SOL    HW2 8340   0.400   3.327  10.333
 2594SOL     OW 8341   1.461   3.360  10.660
 2594SOL    HW1 8342   1.507   3.444  10.671
 2594SOL    HW2 8343   1.406   3.352  10.738
 2595SOL     OW 8344   0.449   2.263  10.804
 2595SOL    HW1 8345   0.523   2.202  10.805
 2595SOL    HW2 8346   0.372   2.207  10.813
 2596SOL     OW 8347   1.609   2.311  10.048
 2596SOL    HW1 8348   1.530   2.338  10.001
 2596SOL    HW2 8349   1.631   2.387  10.102
 2597SOL     OW 8350   0.227   3.572   9.778
 2597SOL    HW1 8351   0.237   3.650   9.833
 2597SOL    HW2 8352   0.302   3.575   9.719
 2598SOL     OW 8353   1.136   3.203  11.001
 2598SOL    HW1 8354   1.176   3.199  11.088
 2598SOL    HW2 8355   1.083   3.123  10.995
 2599SOL     OW 8356   0.243   3.304   9.848
 2599SOL    HW1 8357   0.218   3.396   9.838
 2599SOL    HW2 8358   0.174   3.267   9.902
 2600SOL     OW 8359   0.245   2.934  10.194
 2600SOL    HW1 8360   0.262   2.851  10.239
 2600SOL    HW2 8361   0.194   2.985  10.257
 2601SOL     OW 8362   0.615   3.649  10.741
 2601SOL    HW1 8363   0.532   3.634  10.786
 2601SOL    HW2 8364   0.640   3.738  10.766
 2602SOL     OW 8365   0.586   2.843   9.444
 2602SOL    HW1 8366   0.629   2.893   9.375
 2602SOL    HW2 8367   0.629   2.871   9.524
 2603SOL     OW 8368   1.591   1.986  10.777
 2603SOL    HW1 8369   1.578   2.068  10.729
 2603SOL    HW2 8370   1.585   2.011  10.869
 2604SOL     OW 8371   0.140   2.507   9.884
 2604SOL    HW1 8372   0.084   2.429   9.885
 2604SOL    HW2 8373   0.104   2.563   9.953
 2605SOL     OW 8374   1.840   3.618   9.649
 2605SOL    HW1 8375   1.902   3.592   9.717
 2605SOL    HW2 8376   1.866   3.707   9.626
 2606SOL     OW 8377   0.041   3.456   9.450
 2606SOL    HW1 8378   0.029   3.363   9.470
 2606SOL    HW2 8379   3.966   3.498   9.491
 2607SOL     OW 8380   1.689   2.781   9.947
 2607SOL    HW1 8381   1.774   2.741   9.929
 2607SOL    HW2 8382   1.669   2.831   9.868
 2608SOL     OW 8383   1.645   2.970   9.740
 2608SOL    HW1 8384   1.730   2.978   9.696
 2608SOL    HW2 8385   1.650   3.030   9.814
 2609SOL     OW 8386   0.130   2.612  10.902
 2609SOL    HW1 8387   0.226   2.606  10.911
 2609SOL    HW2 8388   0.111   2.705  10.910
 2610SOL     OW 8389   0.612   3.244  10.044
 2610SOL    HW1 8390   0.566   3.161  10.054
 2610SOL    HW2 8391   0.595   3.271   9.954
 2611SOL     OW 8392   1.290   3.100  10.734
 2611SOL    HW1 8393   1.323   3.033  10.675
 2611SOL    HW2 8394   1.346   3.093  10.812
 2612SOL     OW 8395   0.813   1.860   9.816
 2612SOL    HW1 8396   0.854   1.945   9.800
 2612SOL    HW2 8397   0.720   1.879   9.825
 2613SOL     OW 8398   0.187   2.819  10.585
 2613SOL    HW1 8399   0.275   2.784  10.569
 2613SOL    HW2 8400   0.131   2.771  10.524
 2614SOL     OW 8401   1.532   2.854   9.506
 2614SOL    HW1 8402   1.462   2.795   9.536
 2614SOL    HW2 8403   1.571   2.887   9.587
 2615SOL     OW 8404   1.206   3.663  10.934
 2615SOL    HW1 8405   1.196   3.722  10.859
 2615SOL    HW2 8406   1.209   3.575  10.895
 2616SOL     OW 8407   0.335   2.109  11.121
 2616SOL    HW1 8408   0.379   2.194  11.127
 2616SOL    HW2 8409   0.245   2.127  11.146
 2617SOL     OW 8410   1.465   3.282  10.263
 2617SOL    HW1 8411   1.397   3.296  10.329
 2617SOL    HW2 8412   1.454   3.191  10.236
 2618SOL     OW 8413   1.659   3.595   9.889
 2618SOL    HW1 8414   1.640   3.566   9.800
 2618SOL    HW2 8415   1.634   3.521   9.944
 2619SOL     OW 8416   0.596   2.583   9.573
 2619SOL    HW1 8417   0.605   2.665   9.523
 2619SOL    HW2 8418   0.533   2.604   9.641
 2620SOL     OW 8419   1.279   2.212  10.243
 2620SOL    HW1 8420   1.191   2.177  10.251
 2620SOL    HW2 8421   1.332   2.158  10.302
 2621SOL     OW 8422   1.579   3.534   9.618
 2621SOL    HW1 8423   1.670   3.564   9.614
 2621SOL    HW2 8424   1.557   3.513   9.527
 2622SOL     OW 8425   0.793   2.479  10.764
 2622SOL    HW1 8426   0.765   2.456  10.852
 2622SOL    HW2 8427   0.750   2.413  10.708
 2623SOL     OW 8428   1.394   2.335  10.987
 2623SOL    HW1 8429   1.395   2.380  11.072
 2623SOL    HW2 8430   1.459   2.266  10.996
 2624SOL     OW 8431   0.958   2.750  10.891
 2624SOL    HW1 8432   1.012   2.679  10.857
 2624SOL    HW2 8433   0.910   2.783  10.814
 2625SOL     OW 8434   0.992   2.275  10.550
 2625SOL    HW1 8435   0.909   2.298  10.590
 2625SOL    HW2 8436   0.968   2.227  10.471
 2626SOL     OW 8437   1.050   2.561   9.737
 2626SOL    HW1 8438   1.064   2.554   9.831
 2626SOL    HW2 8439   0.968   2.513   9.721
 2627SOL     OW 8440   0.082   2.683  10.100
 2627SOL    HW1 8441   0.164   2.658  10.141
 2627SOL    HW2 8442   0.085   2.779  10.097
 2628SOL     OW 8443   0.128   3.708  10.882
 2628SOL    HW1 8444   0.134   3.679  10.973
 2628SOL    HW2 8445   0.035   3.699  10.860
 2629SOL     OW 8446   0.887   2.209   9.502
 2629SOL    HW1 8447   0.932   2.270   9.443
 2629SOL    HW2 8448   0.907   2.122   9.468
 2630SOL     OW 8449   1.709   2.441  11.141
 2630SOL    HW1 8450   1.673   2.513  11.089
 2630SOL    HW2 8451   1.737   2.376  11.077
 2631SOL     OW 8452   1.375   3.004   9.852
 2631SOL    HW1 8453   1.453   2.990   9.799
 2631SOL    HW2 8454   1.323   3.066   9.801
 2632SOL     OW 8455   0.546   2.044  10.202
 2632SOL    HW1 8456   0.551   2.073  10.293
 2632SOL    HW2 8457   0.549   2.125  10.151
 2633SOL     OW 8458   1.009   3.309   9.784
 2633SOL    HW1 8459   0.966   3.379   9.735
 2633SOL    HW2 8460   0.994   3.330   9.876
 2634SOL     OW 8461   0.358   3.667  10.166
 2634SOL    HW1 8462   0.432   3.606  10.173
 2634SOL    HW2 8463   0.398   3.753  10.174
 2635SOL     OW 8464   1.798   2.921  10.177
 2635SOL    HW1 8465   1.741   2.905  10.101
 2635SOL    HW2 8466   1.738   2.927  10.251
 2636SOL     OW 8467   1.228   3.400  10.821
 2636SOL    HW1 8468   1.214   3.327  10.882
 2636SOL    HW2 8469   1.165   3.385  10.750
 2637SOL     OW 8470   0.311   2.817   9.552
 2637SOL    HW1 8471   0.396   2.840   9.515
 2637SOL    HW2 8472   0.295   2.728   9.522
 2638SOL     OW 8473   1.476   2.600  10.037
 2638SOL    HW1 8474   1.465   2.555  10.121
 2638SOL    HW2 8475   1.552   2.656  10.050
 2639SOL     OW 8476   0.464   3.121  11.046
 2639SOL    HW1 8477   0.437   3.130  10.955
 2639SOL    HW2 8478   0.382   3.127  11.096
 2640SOL     OW 8479   1.113   3.642   9.535
 2640SOL    HW1 8480   1.052   3.593   9.591
 2640SOL    HW2 8481   1.141   3.578   9.469
 2641SOL     OW 8482   0.203   2.146  10.816
 2641SOL    HW1 8483   0.113   2.176  10.803
 2641SOL    HW2 8484   0.195   2.067  10.868
 2642SOL     OW 8485   1.629   3.241   9.398
 2642SOL    HW1 8486   1.589   3.326   9.381
 2642SOL    HW2 8487   1.560   3.178   9.378
 2643SOL     OW 8488   0.469   3.598   9.631
 2643SOL    HW1 8489   0.505   3.662   9.693
 2643SOL    HW2 8490   0.543   3.575   9.575
 2644SOL     OW 8491   1.398   1.971   9.738
 2644SOL    HW1 8492   1.382   1.946   9.647
 2644SOL    HW2 8493   1.493   1.961   9.748
 2645SOL     OW 8494   0.250   3.656  10.542
 2645SOL    HW1 8495   0.299   3.593  10.595
 2645SOL    HW2 8496   0.244   3.615  10.455
 2646SOL     OW 8497   0.938   3.560  10.212
 2646SOL    HW1 8498   1.015   3.507  10.231
 2646SOL    HW2 8499   0.892   3.512  10.144
 2647SOL     OW 8500   0.393   2.556   9.784
 2647SOL    HW1 8501   0.422   2.466   9.796
 2647SOL    HW2 8502   0.301   2.556   9.811
 2648SOL     OW 8503   1.539   2.087  11.034
 2648SOL    HW1 8504   1.550   2.109  11.127
 2648SOL    HW2 8505   1.470   2.021  11.034
 2649SOL     OW 8506   0.627   1.984   9.414
 2649SOL    HW1 8507   0.703   1.927   9.427
 2649SOL    HW2 8508   0.585   1.950   9.334
 2650SOL     OW 8509   0.768   2.138  11.062
 2650SOL    HW1 8510   0.841   2.076  11.069
 2650SOL    HW2 8511   0.718   2.126  11.143
 2651SOL     OW 8512   0.876   3.382  10.504
 2651SOL    HW1 8513   0.862   3.347  10.416
 2651SOL    HW2 8514   0.946   3.327  10.540
 2652SOL     OW 8515   1.342   2.450  10.742
 2652SOL    HW1 8516   1.372   2.418  10.827
 2652SOL    HW2 8517   1.377   2.539  10.736
 2653SOL     OW 8518   0.813   3.260  10.245
 2653SOL    HW1 8519   0.897   3.250  10.201
 2653SOL    HW2 8520   0.748   3.257  10.175
 2654SOL     OW 8521   0.927   2.371  10.214
 2654SOL    HW1 8522   0.904   2.363  10.121
 2654SOL    HW2 8523   0.960   2.285  10.238
 2655SOL     OW 8524   0.551   1.924   9.811
 2655SOL    HW1 8525   0.469   1.929   9.861
 2655SOL    HW2 8526   0.555   2.006   9.763
 2656SOL     OW 8527   1.428   3.060   9.351
 2656SOL    HW1 8528   1.460   2.984   9.401
 2656SOL    HW2 8529   1.342   3.079   9.388
 2657SOL     OW 8530   0.303   1.911   9.481
 2657SOL    HW1 8531   0.369   1.955   9.427
 2657SOL    HW2 8532   0.352   1.846   9.531
 2658SOL     OW 8533   0.936   2.105   9.775
 2658SOL    HW1 8534   0.904   2.148   9.695
 2658SOL    HW2 8535   1.031   2.120   9.773
 2659SOL     OW 8536   1.080   2.541  10.770
 2659SOL    HW1 8537   1.010   2.476  10.776
 2659SOL    HW2 8538   1.160   2.489  10.763
 2660SOL     OW 8539   1.225   3.431  10.103
 2660SOL    HW1 8540   1.243   3.500  10.039
 2660SOL    HW2 8541   1.292   3.442  10.170
 2661SOL     OW 8542   0.466   3.010  10.050
 2661SOL    HW1 8543   0.392   2.989  10.107
 2661SOL    HW2 8544   0.433   2.994   9.962
 2662SOL     OW 8545   1.271   3.659   9.914
 2662SOL    HW1 8546   1.314   3.723   9.857
 2662SOL    HW2 8547   1.203   3.709   9.959
 2663SOL     OW 8548   1.026   2.407   9.330
 2663SOL    HW1 8549   0.984   2.491   9.309
 2663SOL    HW2 8550   1.090   2.428   9.397
 2664SOL     OW 8551   0.079   2.432  10.700
 2664SOL    HW1 8552   0.168   2.418  10.669
 2664SOL    HW2 8553   0.086   2.500  10.766
 2665SOL     OW 8554   0.567   2.088  10.472
 2665SOL    HW1 8555   0.605   2.009  10.510
 2665SOL    HW2 8556   0.476   2.088  10.502
 2666SOL     OW 8557   0.870   2.322   9.950
 2666SOL    HW1 8558   0.821   2.375   9.887
 2666SOL    HW2 8559   0.888   2.240   9.904
 2667SOL     OW 8560   1.015   1.914  10.064
 2667SOL    HW1 8561   0.956   1.907   9.988
 2667SOL    HW2 8562   0.994   1.838  10.118
 2668SOL     OW 8563   1.436   3.026  10.168
 2668SOL    HW1 8564   1.368   2.958  10.166
 2668SOL    HW2 8565   1.459   3.039  10.076
 2669SOL     OW 8566   1.467   2.464  10.291
 2669SOL    HW1 8567   1.419   2.381  10.295
 2669SOL    HW2 8568   1.528   2.460  10.364
 2670SOL     OW 8569   1.847   2.680   9.692
 2670SOL    HW1 8570   1.904   2.628   9.749
 2670SOL    HW2 8571   1.818   2.619   9.625
 2671SOL     OW 8572   0.491   3.274   9.473
 2671SOL    HW1 8573   0.415   3.244   9.523
 2671SOL    HW2 8574   0.466   3.260   9.382
 2672SOL     OW 8575   1.668   3.127   9.959
 2672SOL    HW1 8576   1.763   3.133   9.971
 2672SOL    HW2 8577   1.636   3.215   9.980
 2673SOL     OW 8578   1.393   2.434   9.380
 2673SOL    HW1 8579   1.335   2.415   9.454
 2673SOL    HW2 8580   1.479   2.402   9.408
 2674SOL     OW 8581   0.572   2.130   9.636
 2674SOL    HW1 8582   0.593   2.079   9.558
 2674SOL    HW2 8583   0.538   2.213   9.602
 2675SOL     OW 8584   1.754   3.098  10.886
 2675SOL    HW1 8585   1.841   3.059  10.884
 2675SOL    HW2 8586   1.768   3.188  10.915
 2676SOL     OW 8587   1.061   3.215  10.644
 2676SOL    HW1 8588   0.986   3.184  10.696
 2676SOL    HW2 8589   1.137   3.174  10.686
 2677SOL     OW 8590   1.606   3.487  10.962
 2677SOL    HW1 8591   1.603   3.521  10.872
 2677SOL    HW2 8592   1.690   3.441  10.967
 2678SOL     OW 8593   1.125   3.063  10.417
 2678SOL    HW1 8594   1.068   3.102  10.483
 2678SOL    HW2 8595   1.091   3.094  10.333
 2679SOL     OW 8596   1.631   2.962  10.388
 2679SOL    HW1 8597   1.627   3.024  10.461
 2679SOL    HW2 8598   1.550   2.977  10.339
 2680SOL     OW 8599   0.918   1.960  10.709
 2680SOL    HW1 8600   0.940   1.941  10.618
 2680SOL    HW2 8601   0.997   2.000  10.745
 2681SOL     OW 8602   0.984   2.976  11.032
 2681SOL    HW1 8603   0.891   2.991  11.051
 2681SOL    HW2 8604   0.985   2.899  10.976
 2682SOL     OW 8605   0.707   2.921   9.681
 2682SOL    HW1 8606   0.694   2.908   9.775
 2682SOL    HW2 8607   0.784   2.868   9.660
 2683SOL     OW 8608   0.418   2.676  10.562
 2683SOL    HW1 8609   0.488   2.684  10.627
 2683SOL    HW2 8610   0.384   2.588  10.575
 2684SOL     OW 8611   1.267   2.240  10.583
 2684SOL    HW1 8612   1.299   2.317  10.629
 2684SOL    HW2 8613   1.178   2.262  10.557
 2685SOL     OW 8614   0.063   3.440  10.653
 2685SOL    HW1 8615   0.063   3.513  10.591
 2685SOL    HW2 8616   0.156   3.429  10.676
 2686SOL     OW 8617   0.376   2.964   9.798
 2686SOL    HW1 8618   0.368   3.041   9.742
 2686SOL    HW2 8619   0.374   2.890   9.737
 2687SOL     OW 8620   0.555   2.401  10.172
 2687SOL    HW1 8621   0.571   2.457  10.097
 2687SOL    HW2 8622   0.618   2.429  10.238
 2688SOL     OW 8623   1.248   3.210   9.699
 2688SOL    HW1 8624   1.303   3.281   9.730
 2688SOL    HW2 8625   1.161   3.230   9.733
 2689SOL     OW 8626   1.277   3.318  10.456
 2689SOL    HW1 8627   1.332   3.321  10.534
 2689SOL    HW2 8628   1.222   3.241  10.468
 2690SOL     OW 8629   1.580   2.488   9.782
 2690SOL    HW1 8630   1.539   2.542   9.849
 2690SOL    HW2 8631   1.629   2.550   9.728
 2691SOL     OW 8632   0.346   3.385  10.630
 2691SOL    HW1 8633   0.337   3.336  10.549
 2691SOL    HW2 8634   0.440   3.402  10.637
 2692SOL     OW 8635   0.411   2.604  10.911
 2692SOL    HW1 8636   0.472   2.651  10.854
 2692SOL    HW2 8637   0.453   2.519  10.927
 2693SOL     OW 8638   1.598   2.639  10.989
 2693SOL    HW1 8639   1.511   2.680  10.982
 2693SOL    HW2 8640   1.650   2.682  10.921
 2694SOL     OW 8641   0.997   1.980  11.067
 2694SOL    HW1 8642   1.048   2.054  11.034
 2694SOL    HW2 8643   1.046   1.902  11.040
 2695SOL     OW 8644   0.499   1.903  11.053
 2695SOL    HW1 8645   0.457   1.848  10.987
 2695SOL    HW2 8646   0.440   1.977  11.064
 2696SOL     OW 8647   0.583   2.734  10.341
 2696SOL    HW1 8648   0.614   2.825  10.338
 2696SOL    HW2 8649   0.527   2.731  10.418
 2697SOL     OW 8650   1.361   2.721  10.343
 2697SOL    HW1 8651   1.279   2.714  10.293
 2697SOL    HW2 8652   1.398   2.633  10.341
 2698SOL     OW 8653   1.208   2.391   9.579
 2698SOL    HW1 8654   1.214   2.313   9.634
 2698SOL    HW2 8655   1.165   2.456   9.636
 2699SOL     OW 8656   0.312   2.063  10.557
 2699SOL    HW1 8657   0.267   2.100  10.633
 2699SOL    HW2 8658   0.286   1.971  10.556
 2700SOL     OW 8659   0.055   3.166  10.590
 2700SOL    HW1 8660   0.089   3.128  10.671
 2700SOL    HW2 8661   0.050   3.260  10.607
 2701SOL     OW 8662   0.727   2.495  10.370
 2701SOL    HW1 8663   0.799   2.476  10.310
 2701SOL    HW2 8664   0.699   2.583  10.347
 2702SOL     OW 8665   1.733   2.822  11.160
 2702SOL    HW1 8666   1.686   2.764  11.100
 2702SOL    HW2 8667   1.673   2.833  11.234
 2703SOL     OW 8668   0.310   1.927   9.932
 2703SOL    HW1 8669   0.292   2.018   9.954
 2703SOL    HW2 8670   0.312   1.881  10.016
 2704SOL     OW 8671   1.610   2.237   9.683
 2704SOL    HW1 8672   1.624   2.181   9.760
 2704SOL    HW2 8673   1.587   2.322   9.719
 2705SOL     OW 8674   1.027   2.622  10.272
 2705SOL    HW1 8675   1.027   2.639  10.366
 2705SOL    HW2 8676   1.000   2.530  10.265
 2706SOL     OW 8677   0.984   3.429  11.025
 2706SOL    HW1 8678   0.967   3.473  10.942
 2706SOL    HW2 8679   1.026   3.346  11.001
 2707SOL     OW 8680   1.856   3.371  10.916
 2707SOL    HW1 8681   1.873   3.397  10.825
 2707SOL    HW2 8682   1.937   3.392  10.962
 2708SOL     OW 8683   0.351   2.781  11.113
 2708SOL    HW1 8684   0.430   2.801  11.161
 2708SOL    HW2 8685   0.378   2.716  11.047
 2709SOL     OW 8686   1.529   2.135   9.438
 2709SOL    HW1 8687   1.464   2.070   9.465
 2709SOL    HW2 8688   1.561   2.173   9.520
 2710SOL     OW 8689   1.294   2.690   9.343
 2710SOL    HW1 8690   1.336   2.604   9.346
 2710SOL    HW2 8691   1.325   2.728   9.261
 2711SOL     OW 8692   1.064   3.197  10.162
 2711SOL    HW1 8693   1.068   3.124  10.101
 2711SOL    HW2 8694   1.128   3.260  10.128
 2712SOL     OW 8695   0.314   2.670  10.261
 2712SOL    HW1 8696   0.408   2.688  10.255
 2712SOL    HW2 8697   0.309   2.580  10.295
 2713SOL     OW 8698   0.333   2.380  10.322
 2713SOL    HW1 8699   0.298   2.293  10.304
 2713SOL    HW2 8700   0.409   2.388  10.264
 2714SOL     OW 8701   1.135   2.240  10.990
 2714SOL    HW1 8702   1.089   2.295  11.053
 2714SOL    HW2 8703   1.223   2.276  10.986
 2715SOL     OW 8704   1.160   2.066  10.780
 2715SOL    HW1 8705   1.151   2.129  10.852
 2715SOL    HW2 8706   1.198   2.118  10.708
 2716SOL     OW 8707   3.999   3.184   9.492
 2716SOL    HW1 8708   3.905   3.199   9.496
 2716SOL    HW2 8709   0.009   3.091   9.513
 2717SOL     OW 8710   0.075   3.663  10.204
 2717SOL    HW1 8711   0.082   3.568  10.211
 2717SOL    HW2 8712   0.166   3.693  10.200
 2718SOL     OW 8713   0.506   3.429  10.221
 2718SOL    HW1 8714   0.574   3.494  10.244
 2718SOL    HW2 8715   0.551   3.367  10.164
 2719SOL     OW 8716   0.988   2.656  10.538
 2719SOL    HW1 8717   1.041   2.631  10.614
 2719SOL    HW2 8718   0.901   2.620  10.556
 2720SOL     OW 8719   0.038   2.414  10.421
 2720SOL    HW1 8720   0.119   2.387  10.379
 2720SOL    HW2 8721   0.058   2.413  10.514
 2721SOL     OW 8722   0.205   2.376  11.036
 2721SOL    HW1 8723   0.250   2.335  10.962
 2721SOL    HW2 8724   0.153   2.446  10.996
 2722SOL     OW 8725   1.375   2.804  10.969
 2722SOL    HW1 8726   1.397   2.897  10.969
 2722SOL    HW2 8727   1.374   2.779  10.877
 2723SOL     OW 8728   0.817   2.431   9.664
 2723SOL    HW1 8729   0.818   2.354   9.607
 2723SOL    HW2 8730   0.741   2.482   9.634
 2724SOL     OW 8731   1.644   2.464  10.499
 2724SOL    HW1 8732   1.631   2.407  10.574
 2724SOL    HW2 8733   1.730   2.440  10.464
 2725SOL     OW 8734   0.294   3.410  11.044
 2725SOL    HW1 8735   0.242   3.480  11.086
 2725SOL    HW2 8736   0.258   3.329  11.080
 2726SOL     OW 8737   0.694   2.316  10.573
 2726SOL    HW1 8738   0.646   2.240  10.540
 2726SOL    HW2 8739   0.694   2.378  10.500
 2727SOL     OW 8740   0.932   3.536  10.776
 2727SOL    HW1 8741   0.904   3.505  10.690
 2727SOL    HW2 8742   0.928   3.632  10.769
 2728SOL     OW 8743   0.463   2.354   9.501
 2728SOL    HW1 8744   0.526   2.424   9.519
 2728SOL    HW2 8745   0.381   2.400   9.485
 2729SOL     OW 8746   0.157   2.999  10.782
 2729SOL    HW1 8747   0.163   2.946  10.861
 2729SOL    HW2 8748   0.172   2.936  10.711
 2730SOL     OW 8749   1.329   2.911  10.535
 2730SOL    HW1 8750   1.353   2.848  10.467
 2730SOL    HW2 8751   1.256   2.960  10.497
 2731SOL     OW 8752   1.308   2.718   9.617
 2731SOL    HW1 8753   1.231   2.688   9.666
 2731SOL    HW2 8754   1.286   2.705   9.525
 2732SOL     OW 8755   1.765   3.609  10.457
 2732SOL    HW1 8756   1.828   3.635  10.389
 2732SOL    HW2 8757   1.745   3.518  10.436
 2733SOL     OW 8758   1.243   3.596  10.426
 2733SOL    HW1 8759   1.325   3.613  10.380
 2733SOL    HW2 8760   1.245   3.502  10.445
 2734SOL     OW 8761   0.075   3.079  10.336
 2734SOL    HW1 8762   0.082   3.105  10.428
 2734SOL    HW2 8763   3.982   3.085  10.317
 2735SOL     OW 8764   0.679   3.524  11.034
 2735SOL    HW1 8765   0.625   3.603  11.037
 2735SOL    HW2 8766   0.738   3.538  10.960
 2736SOL     OW 8767   1.389   3.431   9.793
 2736SOL    HW1 8768   1.450   3.462   9.726
 2736SOL    HW2 8769   1.343   3.509   9.822
 2737SOL     OW 8770   0.165   3.631  11.140
 2737SOL    HW1 8771   0.107   3.581  11.197
 2737SOL    HW2 8772   0.212   3.689  11.200
 2738SOL     OW 8773   1.277   2.786   9.981
 2738SOL    HW1 8774   1.351   2.725   9.985
 2738SOL    HW2 8775   1.311   2.860   9.929
 2739SOL     OW 8776   0.818   3.134  10.742
 2739SOL    HW1 8777   0.792   3.173  10.825
 2739SOL    HW2 8778   0.747   3.155  10.682
 2740SOL     OW 8779   0.675   3.475   9.466
 2740SOL    HW1 8780   0.681   3.490   9.372
 2740SOL    HW2 8781   0.619   3.397   9.475
 2741SOL     OW 8782   1.631   3.587  10.701
 2741SOL    HW1 8783   1.680   3.595  10.619
 2741SOL    HW2 8784   1.618   3.678  10.730
 2742SOL     OW 8785   0.269   2.178  10.028
 2742SOL    HW1 8786   0.185   2.215  10.002
 2742SOL    HW2 8787   0.261   2.167  10.123
 2743SOL     OW 8788   1.205   3.470   9.344
 2743SOL    HW1 8789   1.197   3.378   9.368
 2743SOL    HW2 8790   1.144   3.481   9.271
 2744SOL     OW 8791   0.824   2.868  10.682
 2744SOL    HW1 8792   0.867   2.864  10.597
 2744SOL    HW2 8793   0.825   2.960  10.706
 2745SOL     OW 8794   0.915   2.772   9.599
 2745SOL    HW1 8795   0.977   2.804   9.533
 2745SOL    HW2 8796   0.962   2.701   9.644
 2746SOL     OW 8797   1.493   3.488   9.351
 2746SOL    HW1 8798   1.399   3.481   9.338
 2746SOL    HW2 8799   1.530   3.493   9.263
 2747SOL     OW 8800   0.373   3.163  10.801
 2747SOL    HW1 8801   0.358   3.244  10.752
 2747SOL    HW2 8802   0.295   3.110  10.784
 2748SOL     OW 8803   1.612   3.145  10.591
 2748SOL    HW1 8804   1.671   3.138  10.666
 2748SOL    HW2 8805   1.551   3.215  10.616
 2749SOL     OW 8806   1.048   2.967  10.015
 2749SOL    HW1 8807   0.978   2.916  10.055
 2749SOL    HW2 8808   1.109   2.902   9.981
 2750SOL     OW 8809   1.020   2.102  10.276
 2750SOL    HW1 8810   1.015   2.054  10.193
 2750SOL    HW2 8811   1.015   2.034  10.343
 2751SOL     OW 8812   0.602   3.352   9.792
 2751SOL    HW1 8813   0.642   3.301   9.722
 2751SOL    HW2 8814   0.536   3.406   9.747
 2752SOL     OW 8815   1.722   2.249  10.684
 2752SOL    HW1 8816   1.794   2.312  10.692
 2752SOL    HW2 8817   1.757   2.180  10.627
 2753SOL     OW 8818   0.252   3.204   9.599
 2753SOL    HW1 8819   0.159   3.216   9.578
 2753SOL    HW2 8820   0.262   3.243   9.687
 2754SOL     OW 8821   0.104   2.863  11.029
 2754SOL    HW1 8822   0.043   2.850  11.101
 2754SOL    HW2 8823   0.190   2.842  11.067
 2755SOL     OW 8824   0.673   2.058  10.808
 2755SOL    HW1 8825   0.756   2.040  10.766
 2755SOL    HW2 8826   0.696   2.087  10.897
 2756SOL     OW 8827   0.080   2.184   9.346
 2756SOL    HW1 8828   3.984   2.182   9.349
 2756SOL    HW2 8829   0.101   2.264   9.298
 2757SOL     OW 8830   1.432   2.720  10.712
 2757SOL    HW1 8831   1.384   2.780  10.654
 2757SOL    HW2 8832   1.522   2.724  10.680
 2758SOL     OW 8833   0.029   2.077   9.673
 2758SOL    HW1 8834   0.048   2.146   9.610
 2758SOL    HW2 8835   0.115   2.043   9.700
 2759SOL     OW 8836   1.180   3.203   9.427
 2759SOL    HW1 8837   1.088   3.174   9.429
 2759SOL    HW2 8838   1.208   3.202   9.518
 2760SOL     OW 8839   0.618   2.693  10.744
 2760SOL    HW1 8840   0.673   2.770  10.729
 2760SOL    HW2 8841   0.679   2.620  10.752
 2761SOL     OW 8842   1.486   3.638  10.286
 2761SOL    HW1 8843   1.513   3.691  10.212
 2761SOL    HW2 8844   1.567   3.620  10.334
 2762SOL     OW 8845   0.716   2.427  11.017
 2762SOL    HW1 8846   0.754   2.491  11.077
 2762SOL    HW2 8847   0.752   2.343  11.045
 2763SOL     OW 8848   1.469   3.065  10.943
 2763SOL    HW1 8849   1.457   3.078  11.037
 2763SOL    HW2 8850   1.563   3.077  10.929
 2764SOL     OW 8851   0.380   3.603  10.869
 2764SOL    HW1 8852   0.293   3.640  10.856
 2764SOL    HW2 8853   0.366   3.522  10.917
 2765SOL     OW 8854   1.672   2.744  10.565
 2765SOL    HW1 8855   1.662   2.659  10.523
 2765SOL    HW2 8856   1.663   2.808  10.494
 2766SOL     OW 8857   1.218   2.183   9.767
 2766SOL    HW1 8858   1.281   2.111   9.759
 2766SOL    HW2 8859   1.246   2.230   9.845
 2767SOL     OW 8860   0.591   2.603   9.977
 2767SOL    HW1 8861   0.630   2.689   9.961
 2767SOL    HW2 8862   0.521   2.595   9.913
 2768SOL     OW 8863   1.761   2.238  10.958
 2768SOL    HW1 8864   1.744   2.239  10.864
 2768SOL    HW2 8865   1.701   2.172  10.993
 2769SOL     OW 8866   1.742   2.797  10.823
 2769SOL    HW1 8867   1.745   2.891  10.835
 2769SOL    HW2 8868   1.728   2.785  10.729
 2770SOL     OW 8869   0.864   3.231   9.341
 2770SOL    HW1 8870   0.822   3.258   9.423
 2770SOL    HW2 8871   0.881   3.313   9.295
 2771SOL     OW 8872   0.658   3.655  10.254
 2771SOL    HW1 8873   0.634   3.745  10.233
 2771SOL    HW2 8874   0.753   3.653  10.249
 2772SOL     OW 8875   0.866   2.826  10.166
 2772SOL    HW1 8876   0.917   2.756  10.207
 2772SOL    HW2 8877   0.833   2.878  10.239
 2773SOL     OW 8878   1.079   2.849   9.398
 2773SOL    HW1 8879   1.058   2.900   9.320
 2773SOL    HW2 8880   1.155   2.797   9.373
 2774SOL     OW 8881   1.856   3.417  10.154
 2774SOL    HW1 8882   1.778   3.406  10.100
 2774SOL    HW2 8883   1.848   3.351  10.223
 2775SOL     OW 8884   0.222   3.166  11.164
 2775SOL    HW1 8885   0.152   3.105  11.140
 2775SOL    HW2 8886   0.211   3.180  11.258
 2776SOL     OW 8887   0.109   3.133  10.024
 2776SOL    HW1 8888   0.113   3.080  10.103
 2776SOL    HW2 8889   0.116   3.070   9.952
 2777SOL     OW 8890   0.679   3.262  10.936
 2777SOL    HW1 8891   0.599   3.220  10.966
 2777SOL    HW2 8892   0.675   3.351  10.973
 2778SOL     OW 8893   0.440   2.296   9.841
 2778SOL    HW1 8894   0.445   2.226   9.776
 2778SOL    HW2 8895   0.386   2.260   9.911
 2779SOL     OW 8896   1.702   3.352  10.409
 2779SOL    HW1 8897   1.620   3.326  10.367
 2779SOL    HW2 8898   1.717   3.285  10.475
 2780SOL     OW 8899   0.329   2.414  10.600
 2780SOL    HW1 8900   0.385   2.359  10.655
 2780SOL    HW2 8901   0.347   2.386  10.511
 2781SOL     OW 8902   0.825   3.440   9.989
 2781SOL    HW1 8903   0.820   3.483   9.904
 2781SOL    HW2 8904   0.747   3.385   9.993
 2782SOL     OW 8905   1.436   2.088  10.429
 2782SOL    HW1 8906   1.456   2.005  10.472
 2782SOL    HW2 8907   1.381   2.135  10.492
 2783SOL     OW 8908   1.008   1.882  10.455
 2783SOL    HW1 8909   0.954   1.813  10.417
 2783SOL    HW2 8910   1.096   1.845  10.457
 2784SOL     OW 8911   0.771   3.194   9.622
 2784SOL    HW1 8912   0.737   3.104   9.628
 2784SOL    HW2 8913   0.854   3.191   9.669
 2785SOL     OW 8914   0.620   3.420  10.593
 2785SOL    HW1 8915   0.622   3.501  10.645
 2785SOL    HW2 8916   0.707   3.413  10.555
 2786SOL     OW 8917   1.351   1.914   9.474
 2786SOL    HW1 8918   1.377   1.858   9.401
 2786SOL    HW2 8919   1.265   1.882   9.500
 2787SOL     OW 8920   1.298   2.322   9.993
 2787SOL    HW1 8921   1.244   2.400  10.001
 2787SOL    HW2 8922   1.295   2.281  10.079
 2788SOL     OW 8923   1.577   2.062  10.180
 2788SOL    HW1 8924   1.530   2.084  10.261
 2788SOL    HW2 8925   1.590   2.147  10.137
 2789SOL     OW 8926   0.043   2.916   9.551
 2789SOL    HW1 8927   0.137   2.900   9.543
 2789SOL    HW2 8928   0.009   2.837   9.594
 2790SOL     OW 8929   0.881   3.514   9.656
 2790SOL    HW1 8930   0.811   3.494   9.593
 2790SOL    HW2 8931   0.850   3.591   9.703
 2791SOL     OW 8932   0.231   2.482  11.294
 2791SOL    HW1 8933   0.138   2.493  11.314
 2791SOL    HW2 8934   0.233   2.455  11.202
 2792SOL     OW 8935   0.228   2.132  12.159
 2792SOL    HW1 8936   0.250   2.103  12.248
 2792SOL    HW2 8937   0.133   2.121  12.152
 2793SOL     OW 8938   0.013   2.228  11.807
 2793SOL    HW1 8939   3.928   2.246  11.847
 2793SOL    HW2 8940   3.993   2.186  11.724
 2794SOL     OW 8941   0.574   3.141  12.351
 2794SOL    HW1 8942   0.487   3.147  12.310
 2794SOL    HW2 8943   0.590   3.228  12.385
 2795SOL     OW 8944   1.557   3.373  11.878
 2795SOL    HW1 8945   1.514   3.355  11.961
 2795SOL    HW2 8946   1.486   3.378  11.814
 2796SOL     OW 8947   1.129   2.561  11.876
 2796SOL    HW1 8948   1.180   2.641  11.861
 2796SOL    HW2 8949   1.083   2.576  11.958
 2797SOL     OW 8950   1.766   2.470  11.402
 2797SOL    HW1 8951   1.745   2.462  11.309
 2797SOL    HW2 8952   1.733   2.389  11.441
 2798SOL     OW 8953   0.760   3.005  12.208
 2798SOL    HW1 8954   0.691   3.038  12.267
 2798SOL    HW2 8955   0.793   3.084  12.164
 2799SOL     OW 8956   0.860   2.643  12.993
 2799SOL    HW1 8957   0.853   2.715  13.055
 2799SOL    HW2 8958   0.886   2.685  12.910
 2800SOL     OW 8959   0.686   2.869  11.821
 2800SOL    HW1 8960   0.750   2.854  11.891
 2800SOL    HW2 8961   0.616   2.919  11.863
 2801SOL     OW 8962   0.707   3.013  12.982
 2801SOL    HW1 8963   0.755   3.092  13.006
 2801SOL    HW2 8964   0.624   3.046  12.948
 2802SOL     OW 8965   0.351   3.266  12.250
 2802SOL    HW1 8966   0.268   3.253  12.204
 2802SOL    HW2 8967   0.400   3.327  12.195
 2803SOL     OW 8968   1.461   3.360  12.522
 2803SOL    HW1 8969   1.507   3.444  12.533
 2803SOL    HW2 8970   1.407   3.352  12.600
 2804SOL     OW 8971   0.449   2.263  12.666
 2804SOL    HW1 8972   0.523   2.202  12.667
 2804SOL    HW2 8973   0.372   2.207  12.675
 2805SOL     OW 8974   1.608   2.311  11.911
 2805SOL    HW1 8975   1.530   2.338  11.863
 2805SOL    HW2 8976   1.630   2.388  11.964
 2806SOL     OW 8977   0.227   3.572  11.640
 2806SOL    HW1 8978   0.237   3.650  11.695
 2806SOL    HW2 8979   0.302   3.575  11.581
 2807SOL     OW 8980   1.136   3.203  12.863
 2807SOL    HW1 8981   1.176   3.199  12.950
 2807SOL    HW2 8982   1.083   3.123  12.858
 2808SOL     OW 8983   0.243   3.304  11.710
 2808SOL    HW1 8984   0.217   3.396  11.700
 2808SOL    HW2 8985   0.174   3.266  11.764
 2809SOL     OW 8986   0.245   2.934  12.056
 2809SOL    HW1 8987   0.262   2.851  12.101
 2809SOL    HW2 8988   0.194   2.985  12.119
 2810SOL     OW 8989   0.615   3.649  12.603
 2810SOL    HW1 8990   0.532   3.634  12.648
 2810SOL    HW2 8991   0.640   3.738  12.628
 2811SOL     OW 8992   0.586   2.843  11.306
 2811SOL    HW1 8993   0.629   2.893  11.237
 2811SOL    HW2 8994   0.629   2.871  11.386
 2812SOL     OW 8995   1.591   1.986  12.639
 2812SOL    HW1 8996   1.578   2.068  12.591
 2812SOL    HW2 8997   1.585   2.011  12.731
 2813SOL     OW 8998   0.140   2.507  11.746
 2813SOL    HW1 8999   0.084   2.429  11.747
 2813SOL    HW2 9000   0.104   2.563  11.815
 2814SOL     OW 9001   1.840   3.618  11.511
 2814SOL    HW1 9002   1.902   3.592  11.579
 2814SOL    HW2 9003   1.866   3.707  11.488
 2815SOL     OW 9004   0.041   3.456  11.312
 2815SOL    HW1 9005   0.029   3.363  11.332
 2815SOL    HW2 9006   3.966   3.498  11.353
 2816SOL     OW 9007   1.689   2.781  11.809
 2816SOL    HW1 9008   1.774   2.741  11.791
 2816SOL    HW2 9009   1.669   2.831  11.730
 2817SOL     OW 9010   1.645   2.970  11.602
 2817SOL    HW1 9011   1.730   2.978  11.558
 2817SOL    HW2 9012   1.650   3.030  11.676
 2818SOL     OW 9013   0.131   2.611  12.764
 2818SOL    HW1 9014   0.226   2.606  12.773
 2818SOL    HW2 9015   0.111   2.705  12.772
 2819SOL     OW 9016   0.612   3.244  11.906
 2819SOL    HW1 9017   0.566   3.161  11.916
 2819SOL    HW2 9018   0.595   3.271  11.816
 2820SOL     OW 9019   1.290   3.100  12.596
 2820SOL    HW1 9020   1.323   3.033  12.537
 2820SOL    HW2 9021   1.346   3.093  12.674
 2821SOL     OW 9022   0.813   1.860  11.678
 2821SOL    HW1 9023   0.854   1.945  11.662
 2821SOL    HW2 9024   0.720   1.879  11.687
 2822SOL     OW 9025   0.187   2.819  12.447
 2822SOL    HW1 9026   0.275   2.784  12.431
 2822SOL    HW2 9027   0.131   2.771  12.386
 2823SOL     OW 9028   1.532   2.854  11.368
 2823SOL    HW1 9029   1.462   2.795  11.398
 2823SOL    HW2 9030   1.571   2.887  11.449
 2824SOL     OW 9031   1.205   3.663  12.796
 2824SOL    HW1 9032   1.196   3.722  12.721
 2824SOL    HW2 9033   1.209   3.575  12.757
 2825SOL     OW 9034   0.335   2.110  12.983
 2825SOL    HW1 9035   0.380   2.194  12.989
 2825SOL    HW2 9036   0.245   2.128  13.008
 2826SOL     OW 9037   1.465   3.282  12.125
 2826SOL    HW1 9038   1.397   3.296  12.191
 2826SOL    HW2 9039   1.454   3.191  12.098
 2827SOL     OW 9040   1.659   3.595  11.751
 2827SOL    HW1 9041   1.640   3.566  11.662
 2827SOL    HW2 9042   1.634   3.521  11.806
 2828SOL     OW 9043   0.596   2.583  11.435
 2828SOL    HW1 9044   0.605   2.665  11.385
 2828SOL    HW2 9045   0.533   2.604  11.503
 2829SOL     OW 9046   1.279   2.212  12.105
 2829SOL    HW1 9047   1.191   2.177  12.113
 2829SOL    HW2 9048   1.332   2.158  12.164
 2830SOL     OW 9049   1.579   3.534  11.480
 2830SOL    HW1 9050   1.670   3.564  11.476
 2830SOL    HW2 9051   1.557   3.513  11.389
 2831SOL     OW 9052   0.793   2.479  12.626
 2831SOL    HW1 9053   0.765   2.456  12.714
 2831SOL    HW2 9054   0.750   2.413  12.570
 2832SOL     OW 9055   1.394   2.335  12.849
 2832SOL    HW1 9056   1.395   2.380  12.934
 2832SOL    HW2 9057   1.460   2.266  12.858
 2833SOL     OW 9058   0.958   2.750  12.753
 2833SOL    HW1 9059   1.012   2.679  12.719
 2833SOL    HW2 9060   0.910   2.783  12.676
 2834SOL     OW 9061   0.992   2.275  12.412
 2834SOL    HW1 9062   0.909   2.298  12.452
 2834SOL    HW2 9063   0.968   2.227  12.332
 2835SOL     OW 9064   1.050   2.561  11.599
 2835SOL    HW1 9065   1.064   2.554  11.693
 2835SOL    HW2 9066   0.968   2.513  11.583
 2836SOL     OW 9067   0.082   2.683  11.962
 2836SOL    HW1 9068   0.164   2.658  12.003
 2836SOL    HW2 9069   0.085   2.779  11.959
 2837SOL     OW 9070   0.128   3.709  12.745
 2837SOL    HW1 9071   0.134   3.679  12.835
 2837SOL    HW2 9072   0.035   3.699  12.722
 2838SOL     OW 9073   0.887   2.209  11.364
 2838SOL    HW1 9074   0.932   2.270  11.305
 2838SOL    HW2 9075   0.908   2.122  11.330
 2839SOL     OW 9076   1.708   2.441  13.003
 2839SOL    HW1 9077   1.672   2.512  12.951
 2839SOL    HW2 9078   1.737   2.376  12.938
 2840SOL     OW 9079   1.375   3.004  11.714
 2840SOL    HW1 9080   1.453   2.990  11.661
 2840SOL    HW2 9081   1.323   3.066  11.663
 2841SOL     OW 9082   0.546   2.044  12.064
 2841SOL    HW1 9083   0.551   2.073  12.155
 2841SOL    HW2 9084   0.549   2.125  12.013
 2842SOL     OW 9085   1.009   3.309  11.646
 2842SOL    HW1 9086   0.966   3.379  11.597
 2842SOL    HW2 9087   0.994   3.330  11.738
 2843SOL     OW 9088   0.358   3.667  12.028
 2843SOL    HW1 9089   0.432   3.606  12.035
 2843SOL    HW2 9090   0.398   3.753  12.036
 2844SOL     OW 9091   1.798   2.921  12.039
 2844SOL    HW1 9092   1.741   2.905  11.963
 2844SOL    HW2 9093   1.738   2.927  12.113
 2845SOL     OW 9094   1.228   3.400  12.683
 2845SOL    HW1 9095   1.214   3.328  12.744
 2845SOL    HW2 9096   1.165   3.385  12.612
 2846SOL     OW 9097   0.311   2.817  11.414
 2846SOL    HW1 9098   0.396   2.840  11.377
 2846SOL    HW2 9099   0.295   2.728  11.384
 2847SOL     OW 9100   1.476   2.600  11.899
 2847SOL    HW1 9101   1.464   2.555  11.983
 2847SOL    HW2 9102   1.552   2.656  11.912
 2848SOL     OW 9103   0.464   3.120  12.908
 2848SOL    HW1 9104   0.437   3.130  12.817
 2848SOL    HW2 9105   0.383   3.127  12.958
 2849SOL     OW 9106   1.113   3.642  11.397
 2849SOL    HW1 9107   1.052   3.593  11.453
 2849SOL    HW2 9108   1.141   3.578  11.331
 2850SOL     OW 9109   0.203   2.146  12.678
 2850SOL    HW1 9110   0.113   2.176  12.665
 2850SOL    HW2 9111   0.195   2.066  12.730
 2851SOL     OW 9112   1.629   3.241  11.260
 2851SOL    HW1 9113   1.589   3.326  11.243
 2851SOL    HW2 9114   1.560   3.178  11.240
 2852SOL     OW 9115   0.469   3.598  11.493
 2852SOL    HW1 9116   0.505   3.662  11.555
 2852SOL    HW2 9117   0.543   3.575  11.437
 2853SOL     OW 9118   1.398   1.971  11.600
 2853SOL    HW1 9119   1.382   1.946  11.509
 2853SOL    HW2 9120   1.493   1.961  11.610
 2854SOL     OW 9121   0.250   3.656  12.404
 2854SOL    HW1 9122   0.299   3.593  12.457
 2854SOL    HW2 9123   0.244   3.615  12.317
 2855SOL     OW 9124   0.938   3.560  12.074
 2855SOL    HW1 9125   1.015   3.507  12.093
 2855SOL    HW2 9126   0.892   3.512  12.006
 2856SOL     OW 9127   0.393   2.556  11.646
 2856SOL    HW1 9128   0.422   2.466  11.658
 2856SOL    HW2 9129   0.301   2.556  11.673
 2857SOL     OW 9130   1.539   2.087  12.897
 2857SOL    HW1 9131   1.550   2.109  12.989
 2857SOL    HW2 9132   1.470   2.021  12.896
 2858SOL     OW 9133   0.627   1.984  11.276
 2858SOL    HW1 9134   0.703   1.927  11.289
 2858SOL    HW2 9135   0.585   1.950  11.196
 2859SOL     OW 9136   0.768   2.137  12.923
 2859SOL    HW1 9137   0.841   2.076  12.931
 2859SOL    HW2 9138   0.719   2.127  13.005
 2860SOL     OW 9139   0.876   3.382  12.366
 2860SOL    HW1 9140   0.862   3.347  12.278
 2860SOL    HW2 9141   0.946   3.327  12.402
 2861SOL     OW 9142   1.342   2.450  12.604
 2861SOL    HW1 9143   1.372   2.418  12.689
 2861SOL    HW2 9144   1.377   2.539  12.598
 2862SOL     OW 9145   0.813   3.260  12.107
 2862SOL    HW1 9146   0.897   3.250  12.063
 2862SOL    HW2 9147   0.748   3.257  12.037
 2863SOL     OW 9148   0.927   2.371  12.076
 2863SOL    HW1 9149   0.904   2.363  11.983
 2863SOL    HW2 9150   0.960   2.285  12.100
 2864SOL     OW 9151   0.551   1.924  11.673
 2864SOL    HW1 9152   0.469   1.929  11.723
 2864SOL    HW2 9153   0.555   2.006  11.625
 2865SOL     OW 9154   1.428   3.060  11.213
 2865SOL    HW1 9155   1.460   2.984  11.263
 2865SOL    HW2 9156   1.342   3.079  11.250
 2866SOL     OW 9157   0.303   1.911  11.343
 2866SOL    HW1 9158   0.370   1.955  11.289
 2866SOL    HW2 9159   0.352   1.846  11.393
 2867SOL     OW 9160   0.936   2.105  11.637
 2867SOL    HW1 9161   0.904   2.148  11.557
 2867SOL    HW2 9162   1.031   2.120  11.635
 2868SOL     OW 9163   1.080   2.541  12.632
 2868SOL    HW1 9164   1.010   2.476  12.638
 2868SOL    HW2 9165   1.160   2.489  12.625
 2869SOL     OW 9166   1.225   3.431  11.965
 2869SOL    HW1 9167   1.243   3.500  11.901
 2869SOL    HW2 9168   1.292   3.442  12.032
 2870SOL     OW 9169   0.466   3.010  11.912
 2870SOL    HW1 9170   0.392   2.989  11.969
 2870SOL    HW2 9171   0.433   2.994  11.824
 2871SOL     OW 9172   1.271   3.659  11.776
 2871SOL    HW1 9173   1.314   3.723  11.719
 2871SOL    HW2 9174   1.203   3.709  11.821
 2872SOL     OW 9175   1.026   2.407  11.192
 2872SOL    HW1 9176   0.984   2.491  11.171
 2872SOL    HW2 9177   1.090   2.428  11.259
 2873SOL     OW 9178   0.079   2.432  12.562
 2873SOL    HW1 9179   0.168   2.418  12.531
 2873SOL    HW2 9180   0.086   2.500  12.628
 2874SOL     OW 9181   0.567   2.088  12.334
 2874SOL    HW1 9182   0.605   2.009  12.372
 2874SOL    HW2 9183   0.476   2.087  12.364
 2875SOL     OW 9184   0.870   2.322  11.812
 2875SOL    HW1 9185   0.821   2.375  11.749
 2875SOL    HW2 9186   0.888   2.240  11.766
 2876SOL     OW 9187   1.015   1.914  11.926
 2876SOL    HW1 9188   0.956   1.907  11.850
 2876SOL    HW2 9189   0.994   1.838  11.980
 2877SOL     OW 9190   1.436   3.026  12.030
 2877SOL    HW1 9191   1.368   2.958  12.028
 2877SOL    HW2 9192   1.458   3.039  11.938
 2878SOL     OW 9193   1.467   2.464  12.153
 2878SOL    HW1 9194   1.420   2.381  12.157
 2878SOL    HW2 9195   1.528   2.460  12.227
 2879SOL     OW 9196   1.847   2.680  11.554
 2879SOL    HW1 9197   1.904   2.628  11.611
 2879SOL    HW2 9198   1.818   2.619  11.487
 2880SOL     OW 9199   0.491   3.274  11.335
 2880SOL    HW1 9200   0.415   3.244  11.385
 2880SOL    HW2 9201   0.466   3.260  11.244
 2881SOL     OW 9202   1.668   3.127  11.821
 2881SOL    HW1 9203   1.763   3.133  11.833
 2881SOL    HW2 9204   1.636   3.215  11.842
 2882SOL     OW 9205   1.393   2.434  11.242
 2882SOL    HW1 9206   1.335   2.415  11.316
 2882SOL    HW2 9207   1.479   2.402  11.270
 2883SOL     OW 9208   0.572   2.130  11.498
 2883SOL    HW1 9209   0.593   2.079  11.420
 2883SOL    HW2 9210   0.538   2.213  11.464
 2884SOL     OW 9211   1.754   3.098  12.748
 2884SOL    HW1 9212   1.841   3.059  12.746
 2884SOL    HW2 9213   1.768   3.188  12.778
 2885SOL     OW 9214   1.061   3.215  12.506
 2885SOL    HW1 9215   0.986   3.184  12.558
 2885SOL    HW2 9216   1.137   3.174  12.548
 2886SOL     OW 9217   1.606   3.487  12.824
 2886SOL    HW1 9218   1.603   3.521  12.734
 2886SOL    HW2 9219   1.690   3.441  12.829
 2887SOL     OW 9220   1.125   3.063  12.279
 2887SOL    HW1 9221   1.068   3.102  12.345
 2887SOL    HW2 9222   1.091   3.094  12.195
 2888SOL     OW 9223   1.631   2.962  12.250
 2888SOL    HW1 9224   1.627   3.024  12.323
 2888SOL    HW2 9225   1.550   2.977  12.201
 2889SOL     OW 9226   0.918   1.960  12.571
 2889SOL    HW1 9227   0.941   1.941  12.480
 2889SOL    HW2 9228   0.997   2.000  12.607
 2890SOL     OW 9229   0.984   2.976  12.894
 2890SOL    HW1 9230   0.891   2.991  12.913
 2890SOL    HW2 9231   0.985   2.899  12.838
 2891SOL     OW 9232   0.707   2.921  11.543
 2891SOL    HW1 9233   0.694   2.908  11.637
 2891SOL    HW2 9234   0.784   2.868  11.522
 2892SOL     OW 9235   0.418   2.676  12.424
 2892SOL    HW1 9236   0.488   2.684  12.489
 2892SOL    HW2 9237   0.384   2.587  12.437
 2893SOL     OW 9238   1.267   2.240  12.445
 2893SOL    HW1 9239   1.299   2.317  12.491
 2893SOL    HW2 9240   1.178   2.263  12.419
 2894SOL     OW 9241   0.063   3.440  12.515
 2894SOL    HW1 9242   0.063   3.512  12.452
 2894SOL    HW2 9243   0.156   3.429  12.538
 2895SOL     OW 9244   0.377   2.964  11.660
 2895SOL    HW1 9245   0.368   3.041  11.604
 2895SOL    HW2 9246   0.374   2.890  11.599
 2896SOL     OW 9247   0.555   2.401  12.034
 2896SOL    HW1 9248   0.571   2.457  11.959
 2896SOL    HW2 9249   0.618   2.429  12.100
 2897SOL     OW 9250   1.248   3.210  11.561
 2897SOL    HW1 9251   1.303   3.281  11.592
 2897SOL    HW2 9252   1.161   3.230  11.595
 2898SOL     OW 9253   1.277   3.318  12.318
 2898SOL    HW1 9254   1.332   3.321  12.396
 2898SOL    HW2 9255   1.222   3.241  12.330
 2899SOL     OW 9256   1.580   2.488  11.644
 2899SOL    HW1 9257   1.539   2.543  11.711
 2899SOL    HW2 9258   1.629   2.550  11.590
 2900SOL     OW 9259   0.346   3.386  12.492
 2900SOL    HW1 9260   0.337   3.336  12.411
 2900SOL    HW2 9261   0.440   3.402  12.499
 2901SOL     OW 9262   0.411   2.604  12.773
 2901SOL    HW1 9263   0.472   2.651  12.716
 2901SOL    HW2 9264   0.454   2.520  12.789
 2902SOL     OW 9265   1.598   2.639  12.851
 2902SOL    HW1 9266   1.511   2.680  12.844
 2902SOL    HW2 9267   1.650   2.682  12.783
 2903SOL     OW 9268   0.997   1.980  12.929
 2903SOL    HW1 9269   1.048   2.054  12.896
 2903SOL    HW2 9270   1.046   1.902  12.902
 2904SOL     OW 9271   0.499   1.903  12.915
 2904SOL    HW1 9272   0.457   1.848  12.849
 2904SOL    HW2 9273   0.440   1.977  12.926
 2905SOL     OW 9274   0.583   2.734  12.203
 2905SOL    HW1 9275   0.614   2.825  12.200
 2905SOL    HW2 9276   0.527   2.731  12.280
 2906SOL     OW 9277   1.361   2.721  12.205
 2906SOL    HW1 9278   1.279   2.714  12.155
 2906SOL    HW2 9279   1.398   2.633  12.203
 2907SOL     OW 9280   1.207   2.391  11.441
 2907SOL    HW1 9281   1.214   2.313  11.496
 2907SOL    HW2 9282   1.165   2.456  11.498
 2908SOL     OW 9283   0.312   2.063  12.419
 2908SOL    HW1 9284   0.267   2.100  12.495
 2908SOL    HW2 9285   0.286   1.971  12.418
 2909SOL     OW 9286   0.055   3.166  12.451
 2909SOL    HW1 9287   0.089   3.128  12.533
 2909SOL    HW2 9288   0.050   3.260  12.469
 2910SOL     OW 9289   0.727   2.495  12.232
 2910SOL    HW1 9290   0.799   2.476  12.173
 2910SOL    HW2 9291   0.699   2.583  12.209
 2911SOL     OW 9292   1.733   2.822  13.022
 2911SOL    HW1 9293   1.686   2.764  12.962
 2911SOL    HW2 9294   1.673   2.833  13.097
 2912SOL     OW 9295   0.310   1.927  11.794
 2912SOL    HW1 9296   0.292   2.018  11.816
 2912SOL    HW2 9297   0.312   1.881  11.878
 2913SOL     OW 9298   1.610   2.237  11.545
 2913SOL    HW1 9299   1.624   2.181  11.622
 2913SOL    HW2 9300   1.587   2.322  11.581
 2914SOL     OW 9301   1.027   2.622  12.134
 2914SOL    HW1 9302   1.027   2.639  12.228
 2914SOL    HW2 9303   1.000   2.530  12.127
 2915SOL     OW 9304   0.984   3.429  12.887
 2915SOL    HW1 9305   0.967   3.472  12.804
 2915SOL    HW2 9306   1.026   3.346  12.863
 2916SOL     OW 9307   1.856   3.371  12.778
 2916SOL    HW1 9308   1.873   3.397  12.687
 2916SOL    HW2 9309   1.937   3.392  12.824
 2917SOL     OW 9310   0.350   2.780  12.975
 2917SOL    HW1 9311   0.431   2.801  13.023
 2917SOL    HW2 9312   0.378   2.716  12.910
 2918SOL     OW 9313   1.529   2.135  11.300
 2918SOL    HW1 9314   1.464   2.070  11.327
 2918SOL    HW2 9315   1.561   2.173  11.382
 2919SOL     OW 9316   1.294   2.690  11.205
 2919SOL    HW1 9317   1.336   2.604  11.208
 2919SOL    HW2 9318   1.325   2.728  11.123
 2920SOL     OW 9319   1.064   3.197  12.024
 2920SOL    HW1 9320   1.068   3.124  11.963
 2920SOL    HW2 9321   1.128   3.260  11.990
 2921SOL     OW 9322   0.314   2.670  12.123
 2921SOL    HW1 9323   0.408   2.688  12.117
 2921SOL    HW2 9324   0.309   2.580  12.157
 2922SOL     OW 9325   0.333   2.380  12.184
 2922SOL    HW1 9326   0.298   2.293  12.166
 2922SOL    HW2 9327   0.409   2.388  12.126
 2923SOL     OW 9328   1.135   2.240  12.852
 2923SOL    HW1 9329   1.089   2.295  12.915
 2923SOL    HW2 9330   1.223   2.276  12.848
 2924SOL     OW 9331   1.160   2.066  12.642
 2924SOL    HW1 9332   1.151   2.129  12.714
 2924SOL    HW2 9333   1.198   2.118  12.570
 2925SOL     OW 9334   3.999   3.184  11.354
 2925SOL    HW1 9335   3.905   3.199  11.358
 2925SOL    HW2 9336   0.009   3.091  11.375
 2926SOL     OW 9337   0.075   3.663  12.066
 2926SOL    HW1 9338   0.082   3.568  12.073
 2926SOL    HW2 9339   0.166   3.693  12.062
 2927SOL     OW 9340   0.506   3.429  12.083
 2927SOL    HW1 9341   0.574   3.494  12.106
 2927SOL    HW2 9342   0.551   3.367  12.026
 2928SOL     OW 9343   0.988   2.656  12.400
 2928SOL    HW1 9344   1.041   2.631  12.476
 2928SOL    HW2 9345   0.901   2.620  12.418
 2929SOL     OW 9346   0.038   2.414  12.283
 2929SOL    HW1 9347   0.119   2.387  12.241
 2929SOL    HW2 9348   0.058   2.413  12.376
 2930SOL     OW 9349   0.205   2.376  12.898
 2930SOL    HW1 9350   0.251   2.335  12.824
 2930SOL    HW2 9351   0.153   2.446  12.858
 2931SOL     OW 9352   1.375   2.804  12.831
 2931SOL    HW1 9353   1.397   2.897  12.831
 2931SOL    HW2 9354   1.374   2.779  12.739
 2932SOL     OW 9355   0.817   2.431  11.526
 2932SOL    HW1 9356   0.818   2.354  11.469
 2932SOL    HW2 9357   0.741   2.482  11.496
 2933SOL     OW 9358   1.644   2.464  12.360
 2933SOL    HW1 9359   1.631   2.407  12.436
 2933SOL    HW2 9360   1.730   2.440  12.326
 2934SOL     OW 9361   0.294   3.411  12.907
 2934SOL    HW1 9362   0.242   3.480  12.948
 2934SOL    HW2 9363   0.258   3.330  12.942
 2935SOL     OW 9364   0.694   2.316  12.435
 2935SOL    HW1 9365   0.646   2.240  12.402
 2935SOL    HW2 9366   0.694   2.378  12.362
 2936SOL     OW 9367   0.932   3.536  12.638
 2936SOL    HW1 9368   0.904   3.505  12.552
 2936SOL    HW2 9369   0.927   3.632  12.631
 2937SOL     OW 9370   0.463   2.354  11.363
 2937SOL    HW1 9371   0.526   2.424  11.381
 2937SOL    HW2 9372   0.381   2.400  11.347
 2938SOL     OW 9373   0.157   2.999  12.644
 2938SOL    HW1 9374   0.163   2.946  12.723
 2938SOL    HW2 9375   0.172   2.936  12.572
 2939SOL     OW 9376   1.329   2.911  12.397
 2939SOL    HW1 9377   1.353   2.848  12.329
 2939SOL    HW2 9378   1.256   2.960  12.359
 2940SOL     OW 9379   1.308   2.718  11.479
 2940SOL    HW1 9380   1.231   2.688  11.528
 2940SOL    HW2 9381   1.286   2.705  11.387
 2941SOL     OW 9382   1.765   3.609  12.319
 2941SOL    HW1 9383   1.828   3.635  12.251
 2941SOL    HW2 9384   1.745   3.518  12.298
 2942SOL     OW 9385   1.243   3.596  12.288
 2942SOL    HW1 9386   1.325   3.613  12.242
 2942SOL    HW2 9387   1.245   3.502  12.307
 2943SOL     OW 9388   0.075   3.079  12.198
 2943SOL    HW1 9389   0.082   3.105  12.290
 2943SOL    HW2 9390   3.982   3.085  12.179
 2944SOL     OW 9391   0.679   3.524  12.896
 2944SOL    HW1 9392   0.625   3.603  12.899
 2944SOL    HW2 9393   0.738   3.538  12.822
 2945SOL     OW 9394   1.389   3.431  11.654
 2945SOL    HW1 9395   1.450   3.462  11.588
 2945SOL    HW2 9396   1.343   3.509  11.684
 2946SOL     OW 9397   0.165   3.632  13.003
 2946SOL    HW1 9398   0.106   3.581  13.059
 2946SOL    HW2 9399   0.212   3.689  13.063
 2947SOL     OW 9400   1.277   2.786  11.843
 2947SOL    HW1 9401   1.351   2.725  11.847
 2947SOL    HW2 9402   1.311   2.860  11.791
 2948SOL     OW 9403   0.818   3.134  12.604
 2948SOL    HW1 9404   0.792   3.173  12.687
 2948SOL    HW2 9405   0.747   3.155  12.544
 2949SOL     OW 9406   0.675   3.475  11.328
 2949SOL    HW1 9407   0.681   3.490  11.234
 2949SOL    HW2 9408   0.619   3.397  11.337
 2950SOL     OW 9409   1.631   3.587  12.563
 2950SOL    HW1 9410   1.680   3.595  12.481
 2950SOL    HW2 9411   1.618   3.678  12.592
 2951SOL     OW 9412   0.269   2.178  11.890
 2951SOL    HW1 9413   0.185   2.215  11.864
 2951SOL    HW2 9414   0.261   2.167  11.985
 2952SOL     OW 9415   1.205   3.470  11.206
 2952SOL    HW1 9416   1.197   3.378  11.230
 2952SOL    HW2 9417   1.144   3.481  11.133
 2953SOL     OW 9418   0.824   2.868  12.544
 2953SOL    HW1 9419   0.868   2.864  12.459
 2953SOL    HW2 9420   0.825   2.960  12.568
 2954SOL     OW 9421   0.915   2.772  11.461
 2954SOL    HW1 9422   0.977   2.804  11.395
 2954SOL    HW2 9423   0.962   2.701  11.506
 2955SOL     OW 9424   1.493   3.488  11.213
 2955SOL    HW1 9425   1.399   3.481  11.200
 2955SOL    HW2 9426   1.530   3.493  11.125
 2956SOL     OW 9427   0.372   3.163  12.663
 2956SOL    HW1 9428   0.358   3.244  12.614
 2956SOL    HW2 9429   0.295   3.110  12.646
 2957SOL     OW 9430   1.612   3.145  12.453
 2957SOL    HW1 9431   1.671   3.137  12.528
 2957SOL    HW2 9432   1.551   3.215  12.478
 2958SOL     OW 9433   1.048   2.967  11.877
 2958SOL    HW1 9434   0.978   2.916  11.917
 2958SOL    HW2 9435   1.109   2.902  11.843
 2959SOL     OW 9436   1.020   2.102  12.138
 2959SOL    HW1 9437   1.015   2.054  12.055
 2959SOL    HW2 9438   1.015   2.034  12.205
 2960SOL     OW 9439   0.602   3.352  11.654
 2960SOL    HW1 9440   0.642   3.301  11.584
 2960SOL    HW2 9441   0.536   3.406  11.609
 2961SOL     OW 9442   1.723   2.248  12.546
 2961SOL    HW1 9443   1.794   2.312  12.553
 2961SOL    HW2 9444   1.758   2.180  12.488
 2962SOL     OW 9445   0.252   3.204  11.461
 2962SOL    HW1 9446   0.159   3.216  11.440
 2962SOL    HW2 9447   0.262   3.243  11.549
 2963SOL     OW 9448   0.104   2.863  12.891
 2963SOL    HW1 9449   0.042   2.851  12.962
 2963SOL    HW2 9450   0.190   2.842  12.929
 2964SOL     OW 9451   0.672   2.058  12.670
 2964SOL    HW1 9452   0.756   2.040  12.628
 2964SOL    HW2 9453   0.696   2.087  12.759
 2965SOL     OW 9454   0.080   2.184  11.208
 2965SOL    HW1 9455   3.984   2.182  11.211
 2965SOL    HW2 9456   0.101   2.264  11.160
 2966SOL     OW 9457   1.432   2.720  12.573
 2966SOL    HW1 9458   1.384   2.780  12.516
 2966SOL    HW2 9459   1.522   2.724  12.542
 2967SOL     OW 9460   0.029   2.077  11.535
 2967SOL    HW1 9461   0.048   2.146  11.472
 2967SOL    HW2 9462   0.115   2.043  11.562
 2968SOL     OW 9463   1.180   3.203  11.289
 2968SOL    HW1 9464   1.088   3.174  11.292
 2968SOL    HW2 9465   1.208   3.202  11.380
 2969SOL     OW 9466   0.618   2.693  12.606
 2969SOL    HW1 9467   0.673   2.770  12.591
 2969SOL    HW2 9468   0.679   2.620  12.614
 2970SOL     OW 9469   1.486   3.638  12.148
 2970SOL    HW1 9470   1.513   3.692  12.074
 2970SOL    HW2 9471   1.567   3.620  12.196
 2971SOL     OW 9472   0.716   2.427  12.879
 2971SOL    HW1 9473   0.754   2.491  12.939
 2971SOL    HW2 9474   0.752   2.343  12.907
 2972SOL     OW 9475   1.469   3.065  12.805
 2972SOL    HW1 9476   1.457   3.078  12.899
 2972SOL    HW2 9477   1.562   3.077  12.791
 2973SOL     OW 9478   0.380   3.603  12.731
 2973SOL    HW1 9479   0.293   3.640  12.718
 2973SOL    HW2 9480   0.366   3.522  12.779
 2974SOL     OW 9481   1.672   2.744  12.427
 2974SOL    HW1 9482   1.662   2.659  12.385
 2974SOL    HW2 9483   1.663   2.807  12.356
 2975SOL     OW 9484   1.218   2.183  11.629
 2975SOL    HW1 9485   1.281   2.111  11.621
 2975SOL    HW2 9486   1.246   2.230  11.707
 2976SOL     OW 9487   0.591   2.603  11.839
 2976SOL    HW1 9488   0.630   2.689  11.823
 2976SOL    HW2 9489   0.521   2.595  11.775
 2977SOL     OW 9490   1.762   2.237  12.820
 2977SOL    HW1 9491   1.744   2.238  12.726
 2977SOL    HW2 9492   1.701   2.171  12.855
 2978SOL     OW 9493   1.742   2.796  12.685
 2978SOL    HW1 9494   1.745   2.891  12.697
 2978SOL    HW2 9495   1.728   2.785  12.591
 2979SOL     OW 9496   0.864   3.231  11.203
 2979SOL    HW1 9497   0.822   3.257  11.285
 2979SOL    HW2 9498   0.881   3.313  11.157
 2980SOL     OW 9499   0.658   3.655  12.116
 2980SOL    HW1 9500   0.634   3.745  12.094
 2980SOL    HW2 9501   0.753   3.653  12.111
 2981SOL     OW 9502   0.866   2.826  12.028
 2981SOL    HW1 9503   0.917   2.756  12.069
 2981SOL    HW2 9504   0.833   2.878  12.101
 2982SOL     OW 9505   1.079   2.849  11.260
 2982SOL    HW1 9506   1.058   2.900  11.182
 2982SOL    HW2 9507   1.155   2.797  11.235
 2983SOL     OW 9508   1.856   3.417  12.016
 2983SOL    HW1 9509   1.778   3.406  11.962
 2983SOL    HW2 9510   1.848   3.351  12.085
 2984SOL     OW 9511   0.222   3.166  13.026
 2984SOL    HW1 9512   0.152   3.106  13.002
 2984SOL    HW2 9513   0.211   3.180  13.120
 2985SOL     OW 9514   0.109   3.133  11.886
 2985SOL    HW1 9515   0.113   3.080  11.965
 2985SOL    HW2 9516   0.116   3.070  11.814
 2986SOL     OW 9517   0.679   3.262  12.798
 2986SOL    HW1 9518   0.599   3.220  12.828
 2986SOL    HW2 9519   0.675   3.350  12.835
 2987SOL     OW 9520   0.440   2.296  11.703
 2987SOL    HW1 9521   0.445   2.226  11.638
 2987SOL    HW2 9522   0.386   2.260  11.773
 2988SOL     OW 9523   1.702   3.352  12.271
 2988SOL    HW1 9524   1.620   3.326  12.229
 2988SOL    HW2 9525   1.717   3.285  12.337
 2989SOL     OW 9526   0.329   2.414  12.462
 2989SOL    HW1 9527   0.385   2.359  12.517
 2989SOL    HW2 9528   0.347   2.386  12.373
 2990SOL     OW 9529   0.824   3.440  11.851
 2990SOL    HW1 9530   0.820   3.483  11.766
 2990SOL    HW2 9531   0.747   3.385  11.855
 2991SOL     OW 9532   1.436   2.088  12.291
 2991SOL    HW1 9533   1.456   2.005  12.334
 2991SOL    HW2 9534   1.381   2.135  12.354
 2992SOL     OW 9535   1.008   1.882  12.317
 2992SOL    HW1 9536   0.954   1.813  12.279
 2992SOL    HW2 9537   1.096   1.845  12.319
 2993SOL     OW 9538   0.771   3.194  11.484
 2993SOL    HW1 9539   0.737   3.104  11.490
 2993SOL    HW2 9540   0.854   3.191  11.531
 2994SOL     OW 9541   0.620   3.420  12.455
 2994SOL    HW1 9542   0.622   3.501  12.507
 2994SOL    HW2 9543   0.707   3.413  12.417
 2995SOL     OW 9544   1.351   1.914  11.336
 2995SOL    HW1 9545   1.377   1.858  11.263
 2995SOL    HW2 9546   1.265   1.882  11.362
 2996SOL     OW 9547   1.298   2.322  11.855
 2996SOL    HW1 9548   1.243   2.400  11.863
 2996SOL    HW2 9549   1.295   2.281  11.941
 2997SOL     OW 9550   1.577   2.062  12.043
 2997SOL    HW1 9551   1.529   2.084  12.123
 2997SOL    HW2 9552   1.591   2.147  11.999
 2998SOL     OW 9553   0.043   2.916  11.413
 2998SOL    HW1 9554   0.137   2.900  11.405
 2998SOL    HW2 9555   0.009   2.837  11.455
 2999SOL     OW 9556   0.881   3.514  11.518
 2999SOL    HW1 9557   0.811   3.494  11.455
 2999SOL    HW2 9558   0.850   3.591  11.565
 3000SOL     OW 9559   0.230   2.483  13.156
 3000SOL    HW1 9560   0.137   2.493  13.175
 3000SOL    HW2 9561   0.233   2.455  13.065
 3001SOL     OW 9562   0.284   2.126   0.132
 3001SOL    HW1 9563   0.306   2.172   0.213
 3001SOL    HW2 9564   0.197   2.160   0.108
 3002SOL     OW 9565   0.007   2.229  13.659
 3002SOL    HW1 9566   3.914   2.248  13.666
 3002SOL    HW2 9567   0.016   2.183  13.575
 3003SOL     OW 9568   1.535   3.364  13.722
 3003SOL    HW1 9569   1.476   3.314  13.779
 3003SOL    HW2 9570   1.485   3.378  13.642
 3004SOL     OW 9571   1.125   2.565  13.737
 3004SOL    HW1 9572   1.182   2.637  13.709
 3004SOL    HW2 9573   1.082   2.598  13.816
 3005SOL     OW 9574   1.770   2.468  13.263
 3005SOL    HW1 9575   1.747   2.461  13.170
 3005SOL    HW2 9576   1.731   2.390  13.303
 3006SOL     OW 9577   0.686   2.873  13.675
 3006SOL    HW1 9578   0.742   2.851  13.750
 3006SOL    HW2 9579   0.613   2.922  13.714
 3007SOL     OW 9580   1.624   2.317  13.744
 3007SOL    HW1 9581   1.532   2.330  13.719
 3007SOL    HW2 9582   1.635   2.372  13.821
 3008SOL     OW 9583   0.223   3.574  13.496
 3008SOL    HW1 9584   0.243   3.633  13.569
 3008SOL    HW2 9585   0.302   3.576  13.442
 3009SOL     OW 9586   0.241   3.304  13.571
 3009SOL    HW1 9587   0.216   3.396  13.563
 3009SOL    HW2 9588   0.176   3.265  13.629
 3010SOL     OW 9589   0.246   2.941   0.020
 3010SOL    HW1 9590   0.269   2.893   0.099
 3010SOL    HW2 9591   0.206   3.022   0.051
 3011SOL     OW 9592   0.585   2.843  13.167
 3011SOL    HW1 9593   0.629   2.893  13.098
 3011SOL    HW2 9594   0.629   2.871  13.248
 3012SOL     OW 9595   0.143   2.501  13.617
 3012SOL    HW1 9596   0.073   2.439  13.597
 3012SOL    HW2 9597   0.101   2.568  13.672
 3013SOL     OW 9598   1.840   3.618  13.373
 3013SOL    HW1 9599   1.903   3.592  13.441
 3013SOL    HW2 9600   1.865   3.707  13.350
 3014SOL     OW 9601   0.040   3.456  13.174
 3014SOL    HW1 9602   0.029   3.363  13.194
 3014SOL    HW2 9603   3.967   3.499  13.219
 3015SOL     OW 9604   1.688   2.778  13.667
 3015SOL    HW1 9605   1.776   2.744  13.649
 3015SOL    HW2 9606   1.666   2.832  13.591
 3016SOL     OW 9607   1.645   2.969  13.461
 3016SOL    HW1 9608   1.730   2.977  13.418
 3016SOL    HW2 9609   1.650   3.029  13.535
 3017SOL     OW 9610   0.610   3.247  13.763
 3017SOL    HW1 9611   0.563   3.164  13.777
 3017SOL    HW2 9612   0.585   3.274  13.675
 3018SOL     OW 9613   0.812   1.858  13.541
 3018SOL    HW1 9614   0.854   1.943  13.523
 3018SOL    HW2 9615   0.719   1.878  13.550
 3019SOL     OW 9616   1.532   2.853  13.231
 3019SOL    HW1 9617   1.462   2.795  13.261
 3019SOL    HW2 9618   1.570   2.888  13.311
 3020SOL     OW 9619   1.657   3.595  13.612
 3020SOL    HW1 9620   1.637   3.567  13.522
 3020SOL    HW2 9621   1.648   3.515  13.664
 3021SOL     OW 9622   0.595   2.583  13.296
 3021SOL    HW1 9623   0.605   2.665  13.247
 3021SOL    HW2 9624   0.532   2.604  13.365
 3022SOL     OW 9625   1.259   2.194   0.050
 3022SOL    HW1 9626   1.182   2.145   0.079
 3022SOL    HW2 9627   1.332   2.158   0.100
 3023SOL     OW 9628   1.579   3.534  13.341
 3023SOL    HW1 9629   1.670   3.564  13.337
 3023SOL    HW2 9630   1.557   3.513  13.251
 3024SOL     OW 9631   1.048   2.560  13.460
 3024SOL    HW1 9632   1.061   2.550  13.555
 3024SOL    HW2 9633   0.967   2.512  13.443
 3025SOL     OW 9634   0.082   2.692  13.810
 3025SOL    HW1 9635   0.169   2.676  13.846
 3025SOL    HW2 9636   0.073   2.787  13.810
 3026SOL     OW 9637   0.885   2.209  13.225
 3026SOL    HW1 9638   0.932   2.269  13.167
 3026SOL    HW2 9639   0.909   2.122  13.193
 3027SOL     OW 9640   1.365   2.998  13.561
 3027SOL    HW1 9641   1.453   2.994  13.524
 3027SOL    HW2 9642   1.321   3.069  13.512
 3028SOL     OW 9643   1.008   3.308  13.506
 3028SOL    HW1 9644   0.967   3.380  13.459
 3028SOL    HW2 9645   0.983   3.321  13.597
 3029SOL     OW 9646   0.401   3.665  13.828
 3029SOL    HW1 9647   0.441   3.586  13.864
 3029SOL    HW2 9648   0.436   3.736  13.881
 3030SOL     OW 9649   1.793   2.919  13.899
 3030SOL    HW1 9650   1.733   2.910  13.825
 3030SOL    HW2 9651   1.736   2.917   0.076
 3031SOL     OW 9652   0.311   2.817  13.277
 3031SOL    HW1 9653   0.396   2.841  13.240
 3031SOL    HW2 9654   0.296   2.728  13.245
 3032SOL     OW 9655   1.483   2.595  13.747
 3032SOL    HW1 9656   1.470   2.545  13.828
 3032SOL    HW2 9657   1.557   2.653  13.766
 3033SOL     OW 9658   1.112   3.642  13.258
 3033SOL    HW1 9659   1.052   3.593  13.315
 3033SOL    HW2 9660   1.141   3.578  13.193
 3034SOL     OW 9661   1.629   3.241  13.121
 3034SOL    HW1 9662   1.588   3.326  13.105
 3034SOL    HW2 9663   1.560   3.178  13.102
 3035SOL     OW 9664   0.468   3.598  13.354
 3035SOL    HW1 9665   0.505   3.661  13.417
 3035SOL    HW2 9666   0.543   3.574  13.299
 3036SOL     OW 9667   1.401   1.974  13.460
 3036SOL    HW1 9668   1.381   1.947  13.370
 3036SOL    HW2 9669   1.495   1.959  13.470
 3037SOL     OW 9670   0.933   3.553   0.016
 3037SOL    HW1 9671   0.973   3.485   0.070
 3037SOL    HW2 9672   0.884   3.505  13.849
 3038SOL     OW 9673   0.393   2.558  13.507
 3038SOL    HW1 9674   0.423   2.468  13.518
 3038SOL    HW2 9675   0.302   2.556  13.537
 3039SOL     OW 9676   0.626   1.983  13.138
 3039SOL    HW1 9677   0.703   1.928  13.151
 3039SOL    HW2 9678   0.585   1.950  13.058
 3040SOL     OW 9679   0.550   1.924  13.536
 3040SOL    HW1 9680   0.466   1.928  13.581
 3040SOL    HW2 9681   0.556   2.007  13.488
 3041SOL     OW 9682   1.428   3.059  13.075
 3041SOL    HW1 9683   1.460   2.984  13.125
 3041SOL    HW2 9684   1.343   3.079  13.113
 3042SOL     OW 9685   0.303   1.911  13.204
 3042SOL    HW1 9686   0.370   1.954  13.151
 3042SOL    HW2 9687   0.351   1.846  13.255
 3043SOL     OW 9688   0.937   2.100  13.498
 3043SOL    HW1 9689   0.903   2.148  13.422
 3043SOL    HW2 9690   1.031   2.120  13.498
 3044SOL     OW 9691   0.467   3.004  13.775
 3044SOL    HW1 9692   0.391   2.987  13.831
 3044SOL    HW2 9693   0.435   2.992  13.686
 3045SOL     OW 9694   1.272   3.661  13.631
 3045SOL    HW1 9695   1.314   3.727  13.575
 3045SOL    HW2 9696   1.207   3.710  13.680
 3046SOL     OW 9697   1.026   2.407  13.053
 3046SOL    HW1 9698   0.984   2.491  13.033
 3046SOL    HW2 9699   1.090   2.428  13.121
 3047SOL     OW 9700   0.888   2.332  13.666
 3047SOL    HW1 9701   0.820   2.376  13.615
 3047SOL    HW2 9702   0.892   2.243  13.631
 3048SOL     OW 9703   1.024   1.902  13.782
 3048SOL    HW1 9704   0.963   1.913  13.709
 3048SOL    HW2 9705   0.994   1.824  13.827
 3049SOL     OW 9706   1.848   2.681  13.413
 3049SOL    HW1 9707   1.903   2.629  13.472
 3049SOL    HW2 9708   1.819   2.619  13.346
 3050SOL     OW 9709   0.491   3.274  13.197
 3050SOL    HW1 9710   0.415   3.244  13.248
 3050SOL    HW2 9711   0.466   3.260  13.106
 3051SOL     OW 9712   1.677   3.129  13.670
 3051SOL    HW1 9713   1.770   3.135  13.693
 3051SOL    HW2 9714   1.639   3.211  13.703
 3052SOL     OW 9715   1.393   2.434  13.104
 3052SOL    HW1 9716   1.335   2.415  13.178
 3052SOL    HW2 9717   1.479   2.403  13.132
 3053SOL     OW 9718   0.572   2.130  13.360
 3053SOL    HW1 9719   0.593   2.079  13.282
 3053SOL    HW2 9720   0.539   2.213  13.325
 3054SOL     OW 9721   0.707   2.922  13.403
 3054SOL    HW1 9722   0.694   2.909  13.497
 3054SOL    HW2 9723   0.784   2.869  13.383
 3055SOL     OW 9724   0.380   2.964  13.522
 3055SOL    HW1 9725   0.367   3.042  13.468
 3055SOL    HW2 9726   0.375   2.891  13.460
 3056SOL     OW 9727   0.572   2.403  13.869
 3056SOL    HW1 9728   0.584   2.471  13.802
 3056SOL    HW2 9729   0.625   2.434   0.043
 3057SOL     OW 9730   1.248   3.211  13.420
 3057SOL    HW1 9731   1.302   3.284  13.450
 3057SOL    HW2 9732   1.161   3.231  13.455
 3058SOL     OW 9733   1.579   2.491  13.496
 3058SOL    HW1 9734   1.543   2.537  13.572
 3058SOL    HW2 9735   1.629   2.557  13.449
 3059SOL     OW 9736   1.207   2.391  13.303
 3059SOL    HW1 9737   1.214   2.313  13.358
 3059SOL    HW2 9738   1.165   2.456  13.359
 3060SOL     OW 9739   0.302   1.925  13.644
 3060SOL    HW1 9740   0.291   2.015  13.675
 3060SOL    HW2 9741   0.308   1.873  13.724
 3061SOL     OW 9742   1.612   2.236  13.409
 3061SOL    HW1 9743   1.614   2.181  13.487
 3061SOL    HW2 9744   1.589   2.323  13.441
 3062SOL     OW 9745   1.530   2.135  13.162
 3062SOL    HW1 9746   1.465   2.071  13.189
 3062SOL    HW2 9747   1.562   2.173  13.244
 3063SOL     OW 9748   1.294   2.689  13.066
 3063SOL    HW1 9749   1.336   2.604  13.070
 3063SOL    HW2 9750   1.325   2.728  12.985
 3064SOL     OW 9751   3.999   3.184  13.215
 3064SOL    HW1 9752   3.905   3.200  13.220
 3064SOL    HW2 9753   0.009   3.091  13.236
 3065SOL     OW 9754   0.817   2.433  13.384
 3065SOL    HW1 9755   0.817   2.354  13.328
 3065SOL    HW2 9756   0.740   2.482  13.355
 3066SOL     OW 9757   0.463   2.354  13.224
 3066SOL    HW1 9758   0.526   2.423  13.243
 3066SOL    HW2 9759   0.380   2.400  13.209
 3067SOL     OW 9760   1.309   2.715  13.340
 3067SOL    HW1 9761   1.231   2.689  13.388
 3067SOL    HW2 9762   1.286   2.703  13.248
 3068SOL     OW 9763   1.384   3.433  13.508
 3068SOL    HW1 9764   1.446   3.467  13.444
 3068SOL    HW2 9765   1.341   3.511  13.544
 3069SOL     OW 9766   1.285   2.778  13.688
 3069SOL    HW1 9767   1.362   2.722  13.673
 3069SOL    HW2 9768   1.309   2.862  13.649
 3070SOL     OW 9769   0.674   3.475  13.190
 3070SOL    HW1 9770   0.681   3.490  13.096
 3070SOL    HW2 9771   0.619   3.397  13.199
 3071SOL     OW 9772   0.277   2.173  13.744
 3071SOL    HW1 9773   0.195   2.216  13.721
 3071SOL    HW2 9774   0.282   2.179  13.839
 3072SOL     OW 9775   1.205   3.470  13.068
 3072SOL    HW1 9776   1.197   3.378  13.093
 3072SOL    HW2 9777   1.144   3.481  12.995
 3073SOL     OW 9778   0.917   2.773  13.325
 3073SOL    HW1 9779   0.977   2.804  13.258
 3073SOL    HW2 9780   0.962   2.700  13.367
 3074SOL     OW 9781   1.493   3.488  13.075
 3074SOL    HW1 9782   1.399   3.481  13.062
 3074SOL    HW2 9783   1.530   3.493  12.987
 3075SOL     OW 9784   1.048   2.953  13.752
 3075SOL    HW1 9785   0.962   2.912  13.751
 3075SOL    HW2 9786   1.099   2.905  13.686
 3076SOL     OW 9787   0.601   3.354  13.511
 3076SOL    HW1 9788   0.641   3.302  13.441
 3076SOL    HW2 9789   0.534   3.406  13.467
 3077SOL     OW 9790   0.252   3.204  13.323
 3077SOL    HW1 9791   0.159   3.216  13.302
 3077SOL    HW2 9792   0.262   3.243  13.410
 3078SOL     OW 9793   0.080   2.184  13.071
 3078SOL    HW1 9794   3.984   2.182  13.073
 3078SOL    HW2 9795   0.101   2.264  13.022
 3079SOL     OW 9796   0.027   2.084  13.399
 3079SOL    HW1 9797   0.050   2.145  13.328
 3079SOL    HW2 9798   0.111   2.043  13.422
 3080SOL     OW 9799   1.180   3.204  13.150
 3080SOL    HW1 9800   1.088   3.174  13.153
 3080SOL    HW2 9801   1.209   3.203  13.241
 3081SOL     OW 9802   1.218   2.182  13.491
 3081SOL    HW1 9803   1.282   2.112  13.482
 3081SOL    HW2 9804   1.247   2.230  13.569
 3082SOL     OW 9805   0.593   2.611  13.694
 3082SOL    HW1 9806   0.629   2.698  13.675
 3082SOL    HW2 9807   0.521   2.601  13.631
 3083SOL     OW 9808   0.863   3.230  13.064
 3083SOL    HW1 9809   0.822   3.257  13.147
 3083SOL    HW2 9810   0.881   3.313  13.019
 3084SOL     OW 9811   0.654   3.702   0.064
 3084SOL    HW1 9812   0.647   3.795   0.082
 3084SOL    HW2 9813   0.746   3.681   0.079
 3085SOL     OW 9814   0.836   2.822  13.892
 3085SOL    HW1 9815   0.883   2.750   0.033
 3085SOL    HW2 9816   0.837   2.892   0.058
 3086SOL     OW 9817   1.078   2.848  13.122
 3086SOL    HW1 9818   1.058   2.900  13.044
 3086SOL    HW2 9819   1.155   2.797  13.097
 3087SOL     OW 9820   0.112   3.130  13.749
 3087SOL    HW1 9821   0.061   3.076  13.810
 3087SOL    HW2 9822   0.129   3.072  13.675
 3088SOL     OW 9823   0.441   2.299  13.558
 3088SOL    HW1 9824   0.447   2.226  13.496
 3088SOL    HW2 9825   0.398   2.261  13.635
 3089SOL     OW 9826   1.681   3.334   0.328
 3089SOL    HW1 9827   1.652   3.308   0.240
 3089SOL    HW2 9828   1.759   3.281   0.344
 3090SOL     OW 9829   0.820   3.419  13.714
 3090SOL    HW1 9830   0.807   3.467  13.633
 3090SOL    HW2 9831   0.741   3.367  13.725
 3091SOL     OW 9832   0.771   3.194  13.344
 3091SOL    HW1 9833   0.737   3.104  13.351
 3091SOL    HW2 9834   0.854   3.191  13.392
 3092SOL     OW 9835   1.351   1.914  13.199
 3092SOL    HW1 9836   1.377   1.858  13.125
 3092SOL    HW2 9837   1.264   1.881  13.224
 3093SOL     OW 9838   1.303   2.321  13.715
 3093SOL    HW1 9839   1.246   2.397  13.722
 3093SOL    HW2 9840   1.294   2.275  13.799
 3094SOL     OW 9841   0.043   2.916  13.274
 3094SOL    HW1 9842   0.137   2.900  13.267
 3094SOL    HW2 9843   0.008   2.837  13.317
 3095SOL     OW 9844   0.881   3.514  13.380
 3095SOL    HW1 9845   0.811   3.495  13.318
 3095SOL    HW2 9846   0.850   3.590  13.428
 3096SOL     OW 9847   0.234   3.960   0.975
 3096SOL    HW1 9848   0.250   3.965   1.069
 3096SOL    HW2 9849   0.139   3.975   0.966
 3097SOL     OW 9850   0.020   0.091   0.642
 3097SOL    HW1 9851   3.932   0.090   0.679
 3097SOL    HW2 9852   0.011   0.049   0.557
 3098SOL     OW 9853   1.802   0.351   0.263
 3098SOL    HW1 9854   1.778   0.336   0.171
 3098SOL    HW2 9855   1.721   0.333   0.312
 3099SOL     OW 9856   0.440   0.103   1.511
 3099SOL    HW1 9857   0.512   0.061   1.463
 3099SOL    HW2 9858   0.363   0.052   1.488
 3100SOL     OW 9859   1.597   3.844   1.467
 3100SOL    HW1 9860   1.595   3.927   1.419
 3100SOL    HW2 9861   1.585   3.869   1.559
 3101SOL     OW 9862   0.805   3.727   0.502
 3101SOL    HW1 9863   0.834   3.818   0.493
 3101SOL    HW2 9864   0.711   3.733   0.515
 3102SOL     OW 9865   1.270   0.064   0.940
 3102SOL    HW1 9866   1.199   0.007   0.908
 3102SOL    HW2 9867   1.326   0.005   0.991
 3103SOL     OW 9868   0.552   3.906   0.888
 3103SOL    HW1 9869   0.548   3.926   0.982
 3103SOL    HW2 9870   0.548   3.992   0.845
 3104SOL     OW 9871   0.196   3.989   1.497
 3104SOL    HW1 9872   0.110   0.030   1.492
 3104SOL    HW2 9873   0.187   3.921   1.564
 3105SOL     OW 9874   1.406   3.840   0.423
 3105SOL    HW1 9875   1.397   3.796   0.339
 3105SOL    HW2 9876   1.498   3.826   0.448
 3106SOL     OW 9877   1.535   3.944   1.724
 3106SOL    HW1 9878   1.560   3.950   1.816
 3106SOL    HW2 9879   1.472   3.872   1.721
 3107SOL     OW 9880   0.773   3.964   1.745
 3107SOL    HW1 9881   0.834   3.932   1.812
 3107SOL    HW2 9882   0.691   3.979   1.792
 3108SOL     OW 9883   0.531   3.786   0.508
 3108SOL    HW1 9884   0.475   3.789   0.585
 3108SOL    HW2 9885   0.547   3.878   0.486
 3109SOL     OW 9886   0.269   3.741   0.191
 3109SOL    HW1 9887   0.304   3.829   0.176
 3109SOL    HW2 9888   0.343   3.693   0.228
 3110SOL     OW 9889   0.564   3.944   1.163
 3110SOL    HW1 9890   0.600   3.866   1.206
 3110SOL    HW2 9891   0.473   3.946   1.191
 3111SOL     OW 9892   1.017   3.770   0.748
 3111SOL    HW1 9893   0.954   3.759   0.676
 3111SOL    HW2 9894   0.994   3.701   0.810
 3112SOL     OW 9895   0.921   3.805   1.403
 3112SOL    HW1 9896   0.948   3.788   1.313
 3112SOL    HW2 9897   0.993   3.858   1.440
 3113SOL     OW 9898   1.264   0.081   1.264
 3113SOL    HW1 9899   1.286   0.148   1.328
 3113SOL    HW2 9900   1.194   0.120   1.211
 3114SOL     OW 9901   0.504   3.752   1.752
 3114SOL    HW1 9902   0.456   3.705   1.684
 3114SOL    HW2 9903   0.462   3.838   1.756
 3115SOL     OW 9904   0.305   3.927   1.254
 3115SOL    HW1 9905   0.264   3.945   1.338
 3115SOL    HW2 9906   0.287   3.834   1.238
 3116SOL     OW 9907   1.591   3.947   0.146
 3116SOL    HW1 9908   1.511   3.896   0.158
 3116SOL    HW2 9909   1.573   0.031   0.189
 3117SOL     OW 9910   1.164   3.927   1.474
 3117SOL    HW1 9911   1.169   3.997   1.538
 3117SOL    HW2 9912   1.201   3.964   1.394
 3118SOL     OW 9913   0.913   3.823   0.150
 3118SOL    HW1 9914   0.947   3.812   0.061
 3118SOL    HW2 9915   0.968   3.766   0.204
 3119SOL     OW 9916   1.715   3.860   0.517
 3119SOL    HW1 9917   1.793   3.849   0.461
 3119SOL    HW2 9918   1.702   3.774   0.557
 3120SOL     OW 9919   1.835   3.887   0.969
 3120SOL    HW1 9920   1.871   3.805   0.936
 3120SOL    HW2 9921   1.752   3.898   0.923
 3121SOL     OW 9922   0.671   3.912   1.495
 3121SOL    HW1 9923   0.752   3.909   1.446
 3121SOL    HW2 9924   0.698   3.934   1.585
 3122SOL     OW 9925   0.053   0.039   0.044
 3122SOL    HW1 9926   3.966   0.029   0.005
 3122SOL    HW2 9927   0.094   0.110  13.894
 3123SOL     OW 9928   0.124   3.926   0.369
 3123SOL    HW1 9929   0.074   3.976   0.305
 3123SOL    HW2 9930   0.166   3.857   0.318
 3124SOL     OW 9931   1.186   0.013   0.467
 3124SOL    HW1 9932   1.258   3.949   0.462
 3124SOL    HW2 9933   1.212   0.072   0.539
 3125SOL     OW 9934   1.785   0.049   1.643
 3125SOL    HW1 9935   1.761   0.078   1.554
 3125SOL    HW2 9936   1.704   0.013   1.678
 3126SOL     OW 9937   1.818   3.914   1.238
 3126SOL    HW1 9938   1.823   3.822   1.266
 3126SOL    HW2 9939   1.823   3.910   1.143
 3127SOL     OW 9940   1.437   3.936   1.118
 3127SOL    HW1 9941   1.471   3.860   1.165
 3127SOL    HW2 9942   1.376   3.977   1.180
 3128SOL     OW 9943   1.011   3.740   1.152
 3128SOL    HW1 9944   0.954   3.681   1.103
 3128SOL    HW2 9945   1.098   3.699   1.146
 3129SOL     OW 9946   1.348   3.784   0.153
 3129SOL    HW1 9947   1.383   3.718   0.093
 3129SOL    HW2 9948   1.267   3.745   0.186
 3130SOL     OW 9949   1.286   0.163   0.684
 3130SOL    HW1 9950   1.270   0.257   0.691
 3130SOL    HW2 9951   1.294   0.133   0.774
 3131SOL     OW 9952   1.582   3.931   0.876
 3131SOL    HW1 9953   1.525   3.935   0.952
 3131SOL    HW2 9954   1.583   0.021   0.842
 3132SOL     OW 9955   0.233   3.960   2.836
 3132SOL    HW1 9956   0.251   3.965   2.930
 3132SOL    HW2 9957   0.139   3.974   2.828
 3133SOL     OW 9958   0.017   0.098   2.497
 3133SOL    HW1 9959   3.933   0.094   2.544
 3133SOL    HW2 9960   0.004   0.043   2.420
 3134SOL     OW 9961   1.778   0.320   2.062
 3134SOL    HW1 9962   1.707   0.307   2.000
 3134SOL    HW2 9963   1.735   0.323   2.148
 3135SOL     OW 9964   0.440   0.103   3.373
 3135SOL    HW1 9965   0.512   0.061   3.326
 3135SOL    HW2 9966   0.363   0.052   3.350
 3136SOL     OW 9967   1.596   3.844   3.329
 3136SOL    HW1 9968   1.595   3.927   3.281
 3136SOL    HW2 9969   1.585   3.869   3.421
 3137SOL     OW 9970   0.806   3.728   2.362
 3137SOL    HW1 9971   0.834   3.819   2.356
 3137SOL    HW2 9972   0.711   3.733   2.376
 3138SOL     OW 9973   1.270   0.064   2.803
 3138SOL    HW1 9974   1.200   0.007   2.771
 3138SOL    HW2 9975   1.326   0.005   2.854
 3139SOL     OW 9976   0.552   3.906   2.750
 3139SOL    HW1 9977   0.549   3.926   2.844
 3139SOL    HW2 9978   0.548   3.992   2.708
 3140SOL     OW 9979   0.196   3.989   3.359
 3140SOL    HW1 9980   0.110   0.030   3.354
 3140SOL    HW2 9981   0.187   3.921   3.426
 3141SOL     OW 9982   1.404   3.835   2.287
 3141SOL    HW1 9983   1.395   3.800   2.198
 3141SOL    HW2 9984   1.498   3.828   2.306
 3142SOL     OW 9985   1.535   3.944   3.586
 3142SOL    HW1 9986   1.560   3.950   3.678
 3142SOL    HW2 9987   1.472   3.872   3.583
 3143SOL     OW 9988   0.622   3.851   1.980
 3143SOL    HW1 9989   0.712   3.820   1.991
 3143SOL    HW2 9990   0.589   3.804   1.904
 3144SOL     OW 9991   0.773   3.963   3.606
 3144SOL    HW1 9992   0.834   3.932   3.674
 3144SOL    HW2 9993   0.691   3.979   3.654
 3145SOL     OW 9994   0.531   3.787   2.370
 3145SOL    HW1 9995   0.477   3.792   2.449
 3145SOL    HW2 9996   0.546   3.878   2.346
 3146SOL     OW 9997   0.289   3.756   2.041
 3146SOL    HW1 9998   0.338   3.834   2.015
 3146SOL    HW2 9999   0.355   3.699   2.081
 3147SOL     OW10000   0.564   3.943   3.025
 3147SOL    HW110001   0.601   3.866   3.068
 3147SOL    HW210002   0.473   3.946   3.053
 3148SOL     OW10003   1.017   3.770   2.610
 3148SOL    HW110004   0.954   3.759   2.538
 3148SOL    HW210005   0.994   3.702   2.673
 3149SOL     OW10006   0.921   3.805   3.265
 3149SOL    HW110007   0.948   3.788   3.175
 3149SOL    HW210008   0.993   3.858   3.302
 3150SOL     OW10009   1.264   0.081   3.125
 3150SOL    HW110010   1.286   0.148   3.190
 3150SOL    HW210011   1.194   0.120   3.073
 3151SOL     OW10012   0.504   3.752   3.614
 3151SOL    HW110013   0.456   3.705   3.546
 3151SOL    HW210014   0.462   3.838   3.618
 3152SOL     OW10015   0.305   3.927   3.115
 3152SOL    HW110016   0.264   3.946   3.200
 3152SOL    HW210017   0.287   3.834   3.100
 3153SOL     OW10018   1.574   3.960   1.984
 3153SOL    HW110019   1.513   3.903   2.031
 3153SOL    HW210020   1.595   0.029   2.047
 3154SOL     OW10021   1.164   3.927   3.335
 3154SOL    HW110022   1.169   3.997   3.400
 3154SOL    HW210023   1.201   3.964   3.256
 3155SOL     OW10024   0.901   3.813   1.974
 3155SOL    HW110025   0.964   3.785   1.907
 3155SOL    HW210026   0.940   3.785   2.057
 3156SOL     OW10027   1.716   3.859   2.373
 3156SOL    HW110028   1.792   3.845   2.315
 3156SOL    HW210029   1.703   3.775   2.416
 3157SOL     OW10030   1.835   3.887   2.832
 3157SOL    HW110031   1.871   3.805   2.799
 3157SOL    HW210032   1.752   3.898   2.785
 3158SOL     OW10033   0.671   3.912   3.357
 3158SOL    HW110034   0.752   3.909   3.308
 3158SOL    HW210035   0.698   3.934   3.447
 3159SOL     OW10036   0.070   0.038   1.841
 3159SOL    HW110037   3.978   0.035   1.868
 3159SOL    HW210038   0.101   0.123   1.874
 3160SOL     OW10039   0.102   3.909   2.225
 3160SOL    HW110040   0.078   3.989   2.178
 3160SOL    HW210041   0.180   3.878   2.179
 3161SOL     OW10042   1.187   0.013   2.332
 3161SOL    HW110043   1.260   3.952   2.323
 3161SOL    HW210044   1.214   0.072   2.402
 3162SOL     OW10045   1.785   0.049   3.504
 3162SOL    HW110046   1.761   0.078   3.416
 3162SOL    HW210047   1.704   0.013   3.540
 3163SOL     OW10048   1.818   3.914   3.100
 3163SOL    HW110049   1.823   3.822   3.128
 3163SOL    HW210050   1.823   3.910   3.005
 3164SOL     OW10051   1.437   3.936   2.980
 3164SOL    HW110052   1.471   3.860   3.027
 3164SOL    HW210053   1.377   3.977   3.042
 3165SOL     OW10054   1.011   3.740   3.014
 3165SOL    HW110055   0.954   3.681   2.965
 3165SOL    HW210056   1.098   3.699   3.008
 3166SOL     OW10057   1.351   3.773   2.020
 3166SOL    HW110058   1.381   3.709   1.956
 3166SOL    HW210059   1.265   3.741   2.048
 3167SOL     OW10060   1.285   0.162   2.547
 3167SOL    HW110061   1.271   0.257   2.554
 3167SOL    HW210062   1.294   0.133   2.638
 3168SOL     OW10063   1.582   3.931   2.737
 3168SOL    HW110064   1.525   3.935   2.814
 3168SOL    HW210065   1.584   0.021   2.704
 3169SOL     OW10066   0.233   3.960   4.698
 3169SOL    HW110067   0.251   3.965   4.792
 3169SOL    HW210068   0.139   3.974   4.690
 3170SOL     OW10069   0.017   0.098   4.359
 3170SOL    HW110070   3.933   0.094   4.406
 3170SOL    HW210071   0.004   0.043   4.282
 3171SOL     OW10072   1.778   0.320   3.924
 3171SOL    HW110073   1.707   0.307   3.862
 3171SOL    HW210074   1.735   0.323   4.010
 3172SOL     OW10075   0.440   0.103   5.235
 3172SOL    HW110076   0.512   0.061   5.188
 3172SOL    HW210077   0.363   0.052   5.212
 3173SOL     OW10078   1.596   3.844   5.191
 3173SOL    HW110079   1.595   3.927   5.143
 3173SOL    HW210080   1.585   3.869   5.283
 3174SOL     OW10081   0.806   3.728   4.224
 3174SOL    HW110082   0.834   3.819   4.218
 3174SOL    HW210083   0.711   3.733   4.238
 3175SOL     OW10084   1.270   0.064   4.665
 3175SOL    HW110085   1.200   0.007   4.633
 3175SOL    HW210086   1.326   0.005   4.716
 3176SOL     OW10087   0.552   3.906   4.612
 3176SOL    HW110088   0.549   3.926   4.706
 3176SOL    HW210089   0.548   3.992   4.570
 3177SOL     OW10090   0.196   3.989   5.221
 3177SOL    HW110091   0.110   0.030   5.216
 3177SOL    HW210092   0.187   3.921   5.288
 3178SOL     OW10093   1.404   3.835   4.149
 3178SOL    HW110094   1.395   3.800   4.060
 3178SOL    HW210095   1.498   3.828   4.168
 3179SOL     OW10096   1.535   3.944   5.448
 3179SOL    HW110097   1.560   3.950   5.540
 3179SOL    HW210098   1.472   3.872   5.445
 3180SOL     OW10099   0.622   3.851   3.842
 3180SOL    HW110100   0.712   3.820   3.853
 3180SOL    HW210101   0.589   3.804   3.765
 3181SOL     OW10102   0.773   3.963   5.468
 3181SOL    HW110103   0.834   3.932   5.536
 3181SOL    HW210104   0.691   3.979   5.516
 3182SOL     OW10105   0.531   3.787   4.232
 3182SOL    HW110106   0.477   3.792   4.311
 3182SOL    HW210107   0.546   3.878   4.208
 3183SOL     OW10108   0.289   3.756   3.903
 3183SOL    HW110109   0.338   3.834   3.877
 3183SOL    HW210110   0.355   3.699   3.943
 3184SOL     OW10111   0.564   3.943   4.887
 3184SOL    HW110112   0.600   3.866   4.930
 3184SOL    HW210113   0.473   3.946   4.915
 3185SOL     OW10114   1.017   3.770   4.472
 3185SOL    HW110115   0.954   3.759   4.400
 3185SOL    HW210116   0.994   3.702   4.535
 3186SOL     OW10117   0.921   3.805   5.127
 3186SOL    HW110118   0.948   3.788   5.037
 3186SOL    HW210119   0.993   3.858   5.164
 3187SOL     OW10120   1.264   0.081   4.987
 3187SOL    HW110121   1.286   0.148   5.052
 3187SOL    HW210122   1.194   0.120   4.935
 3188SOL     OW10123   0.504   3.752   5.476
 3188SOL    HW110124   0.456   3.705   5.408
 3188SOL    HW210125   0.462   3.838   5.480
 3189SOL     OW10126   0.306   3.927   4.977
 3189SOL    HW110127   0.264   3.946   5.062
 3189SOL    HW210128   0.287   3.834   4.962
 3190SOL     OW10129   1.574   3.960   3.846
 3190SOL    HW110130   1.513   3.903   3.893
 3190SOL    HW210131   1.595   0.029   3.909
 3191SOL     OW10132   1.164   3.927   5.198
 3191SOL    HW110133   1.169   3.998   5.262
 3191SOL    HW210134   1.201   3.964   5.118
 3192SOL     OW10135   0.901   3.813   3.836
 3192SOL    HW110136   0.964   3.785   3.769
 3192SOL    HW210137   0.940   3.785   3.919
 3193SOL     OW10138   1.716   3.859   4.235
 3193SOL    HW110139   1.792   3.845   4.177
 3193SOL    HW210140   1.703   3.775   4.278
 3194SOL     OW10141   1.835   3.887   4.694
 3194SOL    HW110142   1.871   3.805   4.661
 3194SOL    HW210143   1.752   3.898   4.647
 3195SOL     OW10144   0.671   3.912   5.219
 3195SOL    HW110145   0.752   3.909   5.170
 3195SOL    HW210146   0.698   3.934   5.309
 3196SOL     OW10147   0.070   0.039   3.703
 3196SOL    HW110148   3.978   0.035   3.729
 3196SOL    HW210149   0.101   0.123   3.736
 3197SOL     OW10150   0.102   3.909   4.087
 3197SOL    HW110151   0.078   3.989   4.040
 3197SOL    HW210152   0.180   3.878   4.041
 3198SOL     OW10153   1.187   0.013   4.194
 3198SOL    HW110154   1.260   3.952   4.185
 3198SOL    HW210155   1.214   0.072   4.264
 3199SOL     OW10156   1.785   0.049   5.366
 3199SOL    HW110157   1.761   0.079   5.278
 3199SOL    HW210158   1.703   0.013   5.402
 3200SOL     OW10159   1.818   3.914   4.962
 3200SOL    HW110160   1.824   3.822   4.990
 3200SOL    HW210161   1.823   3.910   4.867
 3201SOL     OW10162   1.437   3.936   4.842
 3201SOL    HW110163   1.471   3.860   4.889
 3201SOL    HW210164   1.377   3.977   4.904
 3202SOL     OW10165   1.011   3.740   4.876
 3202SOL    HW110166   0.954   3.681   4.827
 3202SOL    HW210167   1.098   3.699   4.870
 3203SOL     OW10168   1.351   3.773   3.882
 3203SOL    HW110169   1.381   3.709   3.818
 3203SOL    HW210170   1.265   3.741   3.910
 3204SOL     OW10171   1.285   0.162   4.409
 3204SOL    HW110172   1.271   0.257   4.416
 3204SOL    HW210173   1.294   0.133   4.500
 3205SOL     OW10174   1.582   3.931   4.599
 3205SOL    HW110175   1.525   3.935   4.676
 3205SOL    HW210176   1.584   0.021   4.566
 3206SOL     OW10177   0.233   3.960   6.560
 3206SOL    HW110178   0.251   3.965   6.654
 3206SOL    HW210179   0.139   3.974   6.552
 3207SOL     OW10180   0.017   0.098   6.221
 3207SOL    HW110181   3.933   0.094   6.268
 3207SOL    HW210182   0.004   0.043   6.144
 3208SOL     OW10183   1.778   0.320   5.786
 3208SOL    HW110184   1.707   0.307   5.724
 3208SOL    HW210185   1.735   0.323   5.872
 3209SOL     OW10186   0.440   0.103   7.098
 3209SOL    HW110187   0.512   0.062   7.049
 3209SOL    HW210188   0.363   0.052   7.073
 3210SOL     OW10189   1.596   3.844   7.053
 3210SOL    HW110190   1.595   3.927   7.005
 3210SOL    HW210191   1.585   3.869   7.145
 3211SOL     OW10192   0.806   3.728   6.086
 3211SOL    HW110193   0.834   3.819   6.080
 3211SOL    HW210194   0.711   3.733   6.100
 3212SOL     OW10195   1.270   0.064   6.527
 3212SOL    HW110196   1.200   0.007   6.494
 3212SOL    HW210197   1.326   0.005   6.578
 3213SOL     OW10198   0.552   3.906   6.474
 3213SOL    HW110199   0.549   3.926   6.568
 3213SOL    HW210200   0.548   3.992   6.432
 3214SOL     OW10201   0.196   3.989   7.083
 3214SOL    HW110202   0.110   0.030   7.078
 3214SOL    HW210203   0.187   3.920   7.150
 3215SOL     OW10204   1.404   3.834   6.011
 3215SOL    HW110205   1.395   3.800   5.922
 3215SOL    HW210206   1.498   3.829   6.030
 3216SOL     OW10207   1.535   3.944   7.310
 3216SOL    HW110208   1.560   3.949   7.402
 3216SOL    HW210209   1.472   3.872   7.307
 3217SOL     OW10210   0.622   3.851   5.705
 3217SOL    HW110211   0.712   3.820   5.714
 3217SOL    HW210212   0.589   3.805   5.627
 3218SOL     OW10213   0.773   3.963   7.330
 3218SOL    HW110214   0.834   3.932   7.398
 3218SOL    HW210215   0.691   3.979   7.378
 3219SOL     OW10216   0.531   3.787   6.094
 3219SOL    HW110217   0.476   3.792   6.172
 3219SOL    HW210218   0.546   3.878   6.070
 3220SOL     OW10219   0.289   3.756   5.765
 3220SOL    HW110220   0.338   3.834   5.739
 3220SOL    HW210221   0.355   3.699   5.805
 3221SOL     OW10222   0.564   3.943   6.749
 3221SOL    HW110223   0.600   3.866   6.792
 3221SOL    HW210224   0.473   3.946   6.777
 3222SOL     OW10225   1.017   3.770   6.334
 3222SOL    HW110226   0.954   3.759   6.262
 3222SOL    HW210227   0.994   3.702   6.397
 3223SOL     OW10228   0.921   3.805   6.989
 3223SOL    HW110229   0.948   3.788   6.899
 3223SOL    HW210230   0.992   3.858   7.026
 3224SOL     OW10231   1.264   0.081   6.849
 3224SOL    HW110232   1.286   0.148   6.914
 3224SOL    HW210233   1.195   0.120   6.797
 3225SOL     OW10234   0.504   3.752   7.338
 3225SOL    HW110235   0.456   3.705   7.270
 3225SOL    HW210236   0.462   3.838   7.341
 3226SOL     OW10237   0.306   3.927   6.839
 3226SOL    HW110238   0.264   3.946   6.924
 3226SOL    HW210239   0.287   3.834   6.824
 3227SOL     OW10240   1.574   3.960   5.708
 3227SOL    HW110241   1.513   3.903   5.755
 3227SOL    HW210242   1.595   0.029   5.770
 3228SOL     OW10243   1.164   3.927   7.060
 3228SOL    HW110244   1.168   3.998   7.124
 3228SOL    HW210245   1.201   3.964   6.980
 3229SOL     OW10246   0.901   3.813   5.698
 3229SOL    HW110247   0.964   3.786   5.631
 3229SOL    HW210248   0.940   3.785   5.781
 3230SOL     OW10249   1.716   3.859   6.096
 3230SOL    HW110250   1.792   3.845   6.039
 3230SOL    HW210251   1.703   3.775   6.140
 3231SOL     OW10252   1.835   3.887   6.556
 3231SOL    HW110253   1.871   3.805   6.523
 3231SOL    HW210254   1.752   3.898   6.509
 3232SOL     OW10255   0.671   3.912   7.081
 3232SOL    HW110256   0.752   3.909   7.031
 3232SOL    HW210257   0.698   3.934   7.171
 3233SOL     OW10258   0.070   0.039   5.565
 3233SOL    HW110259   3.978   0.035   5.592
 3233SOL    HW210260   0.101   0.123   5.598
 3234SOL     OW10261   0.102   3.909   5.949
 3234SOL    HW110262   0.078   3.989   5.902
 3234SOL    HW210263   0.180   3.878   5.903
 3235SOL     OW10264   1.186   0.012   6.056
 3235SOL    HW110265   1.260   3.952   6.047
 3235SOL    HW210266   1.213   0.072   6.126
 3236SOL     OW10267   1.785   0.049   7.228
 3236SOL    HW110268   1.761   0.079   7.140
 3236SOL    HW210269   1.704   0.013   7.264
 3237SOL     OW10270   1.818   3.914   6.824
 3237SOL    HW110271   1.824   3.822   6.852
 3237SOL    HW210272   1.823   3.910   6.729
 3238SOL     OW10273   1.436   3.935   6.704
 3238SOL    HW110274   1.472   3.860   6.752
 3238SOL    HW210275   1.376   3.977   6.766
 3239SOL     OW10276   1.011   3.740   6.738
 3239SOL    HW110277   0.954   3.681   6.689
 3239SOL    HW210278   1.098   3.699   6.732
 3240SOL     OW10279   1.351   3.773   5.744
 3240SOL    HW110280   1.380   3.709   5.679
 3240SOL    HW210281   1.265   3.741   5.772
 3241SOL     OW10282   1.284   0.162   6.272
 3241SOL    HW110283   1.271   0.257   6.277
 3241SOL    HW210284   1.294   0.134   6.362
 3242SOL     OW10285   1.582   3.931   6.461
 3242SOL    HW110286   1.525   3.935   6.538
 3242SOL    HW210287   1.584   0.021   6.428
 3243SOL     OW10288   0.233   3.960   8.422
 3243SOL    HW110289   0.251   3.965   8.516
 3243SOL    HW210290   0.139   3.974   8.414
 3244SOL     OW10291   0.017   0.098   8.084
 3244SOL    HW110292   3.933   0.094   8.129
 3244SOL    HW210293   0.004   0.043   8.006
 3245SOL     OW10294   1.778   0.320   7.649
 3245SOL    HW110295   1.707   0.307   7.586
 3245SOL    HW210296   1.734   0.323   7.734
 3246SOL     OW10297   0.440   0.103   8.960
 3246SOL    HW110298   0.512   0.061   8.911
 3246SOL    HW210299   0.363   0.052   8.936
 3247SOL     OW10300   1.597   3.844   8.915
 3247SOL    HW110301   1.595   3.927   8.867
 3247SOL    HW210302   1.585   3.869   9.007
 3248SOL     OW10303   0.806   3.728   7.948
 3248SOL    HW110304   0.834   3.819   7.942
 3248SOL    HW210305   0.711   3.733   7.962
 3249SOL     OW10306   1.270   0.064   8.389
 3249SOL    HW110307   1.200   0.008   8.356
 3249SOL    HW210308   1.326   0.005   8.440
 3250SOL     OW10309   0.552   3.906   8.336
 3250SOL    HW110310   0.549   3.926   8.430
 3250SOL    HW210311   0.548   3.992   8.294
 3251SOL     OW10312   0.196   3.989   8.945
 3251SOL    HW110313   0.110   0.030   8.940
 3251SOL    HW210314   0.187   3.920   9.012
 3252SOL     OW10315   1.404   3.834   7.873
 3252SOL    HW110316   1.395   3.800   7.784
 3252SOL    HW210317   1.498   3.829   7.892
 3253SOL     OW10318   1.535   3.944   9.172
 3253SOL    HW110319   1.560   3.950   9.264
 3253SOL    HW210320   1.472   3.872   9.169
 3254SOL     OW10321   0.622   3.851   7.567
 3254SOL    HW110322   0.712   3.820   7.576
 3254SOL    HW210323   0.589   3.805   7.490
 3255SOL     OW10324   0.773   3.964   9.193
 3255SOL    HW110325   0.834   3.932   9.260
 3255SOL    HW210326   0.691   3.979   9.240
 3256SOL     OW10327   0.531   3.787   7.956
 3256SOL    HW110328   0.476   3.792   8.034
 3256SOL    HW210329   0.546   3.878   7.932
 3257SOL     OW10330   0.289   3.756   7.627
 3257SOL    HW110331   0.338   3.834   7.600
 3257SOL    HW210332   0.355   3.699   7.667
 3258SOL     OW10333   0.564   3.943   8.611
 3258SOL    HW110334   0.600   3.866   8.654
 3258SOL    HW210335   0.473   3.946   8.639
 3259SOL     OW10336   1.017   3.770   8.196
 3259SOL    HW110337   0.955   3.759   8.124
 3259SOL    HW210338   0.994   3.701   8.259
 3260SOL     OW10339   0.921   3.805   8.851
 3260SOL    HW110340   0.948   3.788   8.761
 3260SOL    HW210341   0.993   3.858   8.888
 3261SOL     OW10342   1.264   0.081   8.711
 3261SOL    HW110343   1.286   0.148   8.776
 3261SOL    HW210344   1.194   0.120   8.659
 3262SOL     OW10345   0.504   3.752   9.200
 3262SOL    HW110346   0.456   3.705   9.132
 3262SOL    HW210347   0.462   3.838   9.203
 3263SOL     OW10348   0.305   3.927   8.701
 3263SOL    HW110349   0.264   3.946   8.786
 3263SOL    HW210350   0.287   3.834   8.686
 3264SOL     OW10351   1.575   3.959   7.570
 3264SOL    HW110352   1.512   3.903   7.617
 3264SOL    HW210353   1.594   0.030   7.632
 3265SOL     OW10354   1.164   3.927   8.922
 3265SOL    HW110355   1.169   3.998   8.986
 3265SOL    HW210356   1.201   3.964   8.842
 3266SOL     OW10357   0.901   3.813   7.560
 3266SOL    HW110358   0.963   3.786   7.493
 3266SOL    HW210359   0.940   3.785   7.643
 3267SOL     OW10360   1.716   3.859   7.959
 3267SOL    HW110361   1.792   3.845   7.901
 3267SOL    HW210362   1.703   3.775   8.002
 3268SOL     OW10363   1.835   3.887   8.418
 3268SOL    HW110364   1.871   3.805   8.385
 3268SOL    HW210365   1.752   3.898   8.371
 3269SOL     OW10366   0.671   3.912   8.943
 3269SOL    HW110367   0.752   3.909   8.894
 3269SOL    HW210368   0.698   3.934   9.033
 3270SOL     OW10369   0.070   0.038   7.428
 3270SOL    HW110370   3.978   0.035   7.454
 3270SOL    HW210371   0.101   0.123   7.460
 3271SOL     OW10372   0.103   3.909   7.811
 3271SOL    HW110373   0.078   3.989   7.764
 3271SOL    HW210374   0.180   3.878   7.765
 3272SOL     OW10375   1.186   0.012   7.918
 3272SOL    HW110376   1.260   3.952   7.909
 3272SOL    HW210377   1.214   0.072   7.988
 3273SOL     OW10378   1.785   0.049   9.090
 3273SOL    HW110379   1.761   0.079   9.002
 3273SOL    HW210380   1.704   0.013   9.126
 3274SOL     OW10381   1.818   3.914   8.686
 3274SOL    HW110382   1.823   3.822   8.714
 3274SOL    HW210383   1.823   3.910   8.591
 3275SOL     OW10384   1.437   3.936   8.566
 3275SOL    HW110385   1.471   3.860   8.613
 3275SOL    HW210386   1.376   3.977   8.628
 3276SOL     OW10387   1.011   3.740   8.600
 3276SOL    HW110388   0.954   3.681   8.551
 3276SOL    HW210389   1.098   3.699   8.594
 3277SOL     OW10390   1.351   3.773   7.606
 3277SOL    HW110391   1.380   3.709   7.541
 3277SOL    HW210392   1.265   3.741   7.634
 3278SOL     OW10393   1.285   0.162   8.134
 3278SOL    HW110394   1.271   0.257   8.139
 3278SOL    HW210395   1.294   0.134   8.225
 3279SOL     OW10396   1.582   3.931   8.323
 3279SOL    HW110397   1.525   3.935   8.400
 3279SOL    HW210398   1.584   0.021   8.290
 3280SOL     OW10399   0.233   3.960  10.284
 3280SOL    HW110400   0.251   3.965  10.378
 3280SOL    HW210401   0.139   3.974  10.276
 3281SOL     OW10402   0.017   0.098   9.945
 3281SOL    HW110403   3.933   0.094   9.992
 3281SOL    HW210404   0.004   0.043   9.868
 3282SOL     OW10405   1.778   0.320   9.510
 3282SOL    HW110406   1.707   0.307   9.448
 3282SOL    HW210407   1.735   0.323   9.596
 3283SOL     OW10408   0.440   0.103  10.821
 3283SOL    HW110409   0.512   0.061  10.774
 3283SOL    HW210410   0.363   0.052  10.798
 3284SOL     OW10411   1.596   3.844  10.777
 3284SOL    HW110412   1.595   3.927  10.729
 3284SOL    HW210413   1.585   3.869  10.869
 3285SOL     OW10414   0.806   3.728   9.810
 3285SOL    HW110415   0.834   3.819   9.804
 3285SOL    HW210416   0.711   3.733   9.824
 3286SOL     OW10417   1.270   0.064  10.251
 3286SOL    HW110418   1.200   0.007  10.219
 3286SOL    HW210419   1.326   0.005  10.302
 3287SOL     OW10420   0.552   3.906  10.198
 3287SOL    HW110421   0.549   3.926  10.292
 3287SOL    HW210422   0.548   3.992  10.156
 3288SOL     OW10423   0.196   3.989  10.807
 3288SOL    HW110424   0.110   0.030  10.802
 3288SOL    HW210425   0.187   3.921  10.874
 3289SOL     OW10426   1.404   3.835   9.735
 3289SOL    HW110427   1.395   3.800   9.646
 3289SOL    HW210428   1.498   3.828   9.754
 3290SOL     OW10429   1.535   3.944  11.034
 3290SOL    HW110430   1.560   3.950  11.126
 3290SOL    HW210431   1.472   3.872  11.031
 3291SOL     OW10432   0.622   3.851   9.429
 3291SOL    HW110433   0.712   3.820   9.438
 3291SOL    HW210434   0.589   3.804   9.352
 3292SOL     OW10435   0.773   3.963  11.054
 3292SOL    HW110436   0.834   3.932  11.122
 3292SOL    HW210437   0.691   3.979  11.102
 3293SOL     OW10438   0.531   3.787   9.818
 3293SOL    HW110439   0.477   3.792   9.897
 3293SOL    HW210440   0.546   3.878   9.794
 3294SOL     OW10441   0.289   3.756   9.489
 3294SOL    HW110442   0.338   3.834   9.463
 3294SOL    HW210443   0.355   3.699   9.529
 3295SOL     OW10444   0.564   3.943  10.473
 3295SOL    HW110445   0.600   3.866  10.516
 3295SOL    HW210446   0.473   3.946  10.501
 3296SOL     OW10447   1.017   3.770  10.058
 3296SOL    HW110448   0.954   3.759   9.986
 3296SOL    HW210449   0.994   3.702  10.121
 3297SOL     OW10450   0.921   3.805  10.713
 3297SOL    HW110451   0.948   3.788  10.623
 3297SOL    HW210452   0.993   3.858  10.750
 3298SOL     OW10453   1.264   0.081  10.573
 3298SOL    HW110454   1.286   0.148  10.638
 3298SOL    HW210455   1.194   0.120  10.521
 3299SOL     OW10456   0.504   3.752  11.062
 3299SOL    HW110457   0.456   3.705  10.994
 3299SOL    HW210458   0.462   3.838  11.066
 3300SOL     OW10459   0.306   3.927  10.563
 3300SOL    HW110460   0.264   3.946  10.648
 3300SOL    HW210461   0.287   3.834  10.548
 3301SOL     OW10462   1.574   3.959   9.432
 3301SOL    HW110463   1.513   3.903   9.479
 3301SOL    HW210464   1.594   0.029   9.495
 3302SOL     OW10465   1.164   3.927  10.784
 3302SOL    HW110466   1.169   3.998  10.848
 3302SOL    HW210467   1.201   3.964  10.704
 3303SOL     OW10468   0.901   3.813   9.422
 3303SOL    HW110469   0.963   3.785   9.355
 3303SOL    HW210470   0.940   3.785   9.505
 3304SOL     OW10471   1.716   3.859   9.821
 3304SOL    HW110472   1.792   3.845   9.763
 3304SOL    HW210473   1.703   3.775   9.864
 3305SOL     OW10474   1.835   3.887  10.280
 3305SOL    HW110475   1.871   3.805  10.247
 3305SOL    HW210476   1.752   3.898  10.233
 3306SOL     OW10477   0.671   3.912  10.805
 3306SOL    HW110478   0.752   3.909  10.756
 3306SOL    HW210479   0.698   3.934  10.895
 3307SOL     OW10480   0.070   0.038   9.289
 3307SOL    HW110481   3.978   0.035   9.316
 3307SOL    HW210482   0.101   0.123   9.322
 3308SOL     OW10483   0.102   3.909   9.673
 3308SOL    HW110484   0.078   3.989   9.626
 3308SOL    HW210485   0.180   3.878   9.627
 3309SOL     OW10486   1.187   0.013   9.780
 3309SOL    HW110487   1.260   3.952   9.771
 3309SOL    HW210488   1.214   0.072   9.850
 3310SOL     OW10489   1.785   0.049  10.953
 3310SOL    HW110490   1.761   0.079  10.864
 3310SOL    HW210491   1.704   0.013  10.988
 3311SOL     OW10492   1.818   3.914  10.548
 3311SOL    HW110493   1.823   3.822  10.576
 3311SOL    HW210494   1.823   3.910  10.453
 3312SOL     OW10495   1.437   3.936  10.428
 3312SOL    HW110496   1.471   3.860  10.475
 3312SOL    HW210497   1.377   3.977  10.490
 3313SOL     OW10498   1.011   3.740  10.462
 3313SOL    HW110499   0.954   3.681  10.413
 3313SOL    HW210500   1.098   3.699  10.456
 3314SOL     OW10501   1.351   3.773   9.468
 3314SOL    HW110502   1.380   3.709   9.403
 3314SOL    HW210503   1.265   3.741   9.496
 3315SOL     OW10504   1.285   0.162   9.995
 3315SOL    HW110505   1.271   0.257  10.002
 3315SOL    HW210506   1.294   0.133  10.086
 3316SOL     OW10507   1.582   3.931  10.185
 3316SOL    HW110508   1.525   3.935  10.262
 3316SOL    HW210509   1.584   0.021  10.152
 3317SOL     OW10510   0.233   3.960  12.146
 3317SOL    HW110511   0.251   3.965  12.240
 3317SOL    HW210512   0.139   3.974  12.138
 3318SOL     OW10513   0.017   0.098  11.807
 3318SOL    HW110514   3.933   0.094  11.854
 3318SOL    HW210515   0.004   0.043  11.730
 3319SOL     OW10516   1.778   0.320  11.372
 3319SOL    HW110517   1.707   0.307  11.310
 3319SOL    HW210518   1.735   0.323  11.458
 3320SOL     OW10519   0.440   0.103  12.684
 3320SOL    HW110520   0.512   0.062  12.636
 3320SOL    HW210521   0.363   0.052  12.660
 3321SOL     OW10522   1.596   3.844  12.639
 3321SOL    HW110523   1.595   3.927  12.591
 3321SOL    HW210524   1.585   3.869  12.731
 3322SOL     OW10525   0.806   3.728  11.672
 3322SOL    HW110526   0.834   3.819  11.666
 3322SOL    HW210527   0.711   3.733  11.686
 3323SOL     OW10528   1.270   0.064  12.113
 3323SOL    HW110529   1.200   0.007  12.080
 3323SOL    HW210530   1.326   0.005  12.164
 3324SOL     OW10531   0.552   3.906  12.060
 3324SOL    HW110532   0.549   3.926  12.154
 3324SOL    HW210533   0.548   3.992  12.018
 3325SOL     OW10534   0.196   3.989  12.669
 3325SOL    HW110535   0.110   0.029  12.664
 3325SOL    HW210536   0.187   3.920  12.735
 3326SOL     OW10537   1.404   3.835  11.597
 3326SOL    HW110538   1.395   3.800  11.508
 3326SOL    HW210539   1.498   3.828  11.616
 3327SOL     OW10540   1.535   3.944  12.896
 3327SOL    HW110541   1.559   3.951  12.988
 3327SOL    HW210542   1.472   3.872  12.893
 3328SOL     OW10543   0.622   3.851  11.291
 3328SOL    HW110544   0.712   3.820  11.301
 3328SOL    HW210545   0.589   3.805  11.214
 3329SOL     OW10546   0.773   3.963  12.916
 3329SOL    HW110547   0.834   3.933  12.983
 3329SOL    HW210548   0.691   3.978  12.965
 3330SOL     OW10549   0.531   3.787  11.680
 3330SOL    HW110550   0.476   3.792  11.759
 3330SOL    HW210551   0.546   3.878  11.656
 3331SOL     OW10552   0.289   3.756  11.351
 3331SOL    HW110553   0.338   3.834  11.325
 3331SOL    HW210554   0.355   3.699  11.391
 3332SOL     OW10555   0.564   3.943  12.335
 3332SOL    HW110556   0.601   3.866  12.378
 3332SOL    HW210557   0.473   3.946  12.363
 3333SOL     OW10558   1.017   3.770  11.920
 3333SOL    HW110559   0.954   3.759  11.848
 3333SOL    HW210560   0.994   3.702  11.983
 3334SOL     OW10561   0.921   3.806  12.575
 3334SOL    HW110562   0.948   3.788  12.485
 3334SOL    HW210563   0.993   3.857  12.612
 3335SOL     OW10564   1.264   0.081  12.435
 3335SOL    HW110565   1.286   0.148  12.500
 3335SOL    HW210566   1.195   0.120  12.383
 3336SOL     OW10567   0.503   3.752  12.924
 3336SOL    HW110568   0.456   3.704  12.856
 3336SOL    HW210569   0.462   3.838  12.926
 3337SOL     OW10570   0.305   3.927  12.425
 3337SOL    HW110571   0.264   3.946  12.510
 3337SOL    HW210572   0.287   3.834  12.410
 3338SOL     OW10573   1.574   3.960  11.294
 3338SOL    HW110574   1.513   3.903  11.341
 3338SOL    HW210575   1.595   0.029  11.357
 3339SOL     OW10576   1.164   3.927  12.645
 3339SOL    HW110577   1.169   3.997  12.710
 3339SOL    HW210578   1.201   3.964  12.566
 3340SOL     OW10579   0.901   3.813  11.284
 3340SOL    HW110580   0.964   3.785  11.217
 3340SOL    HW210581   0.940   3.785  11.367
 3341SOL     OW10582   1.716   3.859  11.683
 3341SOL    HW110583   1.792   3.845  11.625
 3341SOL    HW210584   1.703   3.775  11.726
 3342SOL     OW10585   1.835   3.887  12.142
 3342SOL    HW110586   1.871   3.805  12.109
 3342SOL    HW210587   1.752   3.898  12.095
 3343SOL     OW10588   0.671   3.912  12.667
 3343SOL    HW110589   0.752   3.909  12.617
 3343SOL    HW210590   0.698   3.934  12.756
 3344SOL     OW10591   0.070   0.038  11.151
 3344SOL    HW110592   3.978   0.035  11.178
 3344SOL    HW210593   0.101   0.123  11.184
 3345SOL     OW10594   0.102   3.909  11.535
 3345SOL    HW110595   0.078   3.989  11.488
 3345SOL    HW210596   0.180   3.878  11.489
 3346SOL     OW10597   1.187   0.013  11.642
 3346SOL    HW110598   1.260   3.952  11.633
 3346SOL    HW210599   1.214   0.072  11.712
 3347SOL     OW10600   1.785   0.049  12.814
 3347SOL    HW110601   1.761   0.078  12.726
 3347SOL    HW210602   1.704   0.012  12.850
 3348SOL     OW10603   1.818   3.914  12.410
 3348SOL    HW110604   1.823   3.822  12.438
 3348SOL    HW210605   1.823   3.910  12.315
 3349SOL     OW10606   1.437   3.936  12.290
 3349SOL    HW110607   1.472   3.860  12.337
 3349SOL    HW210608   1.377   3.977  12.352
 3350SOL     OW10609   1.011   3.740  12.324
 3350SOL    HW110610   0.954   3.681  12.275
 3350SOL    HW210611   1.098   3.699  12.318
 3351SOL     OW10612   1.351   3.773  11.330
 3351SOL    HW110613   1.381   3.709  11.266
 3351SOL    HW210614   1.265   3.741  11.358
 3352SOL     OW10615   1.285   0.162  11.857
 3352SOL    HW110616   1.271   0.257  11.863
 3352SOL    HW210617   1.294   0.133  11.948
 3353SOL     OW10618   1.582   3.931  12.047
 3353SOL    HW110619   1.525   3.935  12.124
 3353SOL    HW210620   1.584   0.021  12.014
 3354SOL     OW10621   0.011   0.097  13.661
 3354SOL    HW110622   3.916   0.098  13.675
 3354SOL    HW210623   0.024   0.044  13.583
 3355SOL     OW10624   1.778   0.321  13.235
 3355SOL    HW110625   1.706   0.309  13.174
 3355SOL    HW210626   1.740   0.308  13.322
 3356SOL     OW10627   1.613   0.172  13.767
 3356SOL    HW110628   1.527   0.166  13.726
 3356SOL    HW210629   1.611   0.256  13.814
 3357SOL     OW10630   0.808   3.728  13.536
 3357SOL    HW110631   0.834   3.820  13.529
 3357SOL    HW210632   0.713   3.731  13.549
 3358SOL     OW10633   1.403   3.834  13.458
 3358SOL    HW110634   1.396   3.800  13.369
 3358SOL    HW210635   1.497   3.832  13.478
 3359SOL     OW10636   0.622   3.852  13.152
 3359SOL    HW110637   0.711   3.820  13.163
 3359SOL    HW210638   0.589   3.804  13.075
 3360SOL     OW10639   0.533   3.785  13.540
 3360SOL    HW110640   0.475   3.781  13.616
 3360SOL    HW210641   0.544   3.879  13.523
 3361SOL     OW10642   0.289   3.759  13.214
 3361SOL    HW110643   0.344   3.831  13.182
 3361SOL    HW210644   0.351   3.698  13.254
 3362SOL     OW10645   1.011   3.768  13.780
 3362SOL    HW110646   0.955   3.762  13.703
 3362SOL    HW210647   0.992   3.688  13.830
 3363SOL     OW10648   1.572   3.962  13.156
 3363SOL    HW110649   1.515   3.902  13.204
 3363SOL    HW210650   1.603   0.024  13.222
 3364SOL     OW10651   0.901   3.813  13.147
 3364SOL    HW110652   0.963   3.786  13.079
 3364SOL    HW210653   0.940   3.784  13.229
 3365SOL     OW10654   1.725   3.858  13.557
 3365SOL    HW110655   1.793   3.846  13.491
 3365SOL    HW210656   1.708   3.769  13.590
 3366SOL     OW10657   1.846   3.887   0.061
 3366SOL    HW110658   1.867   3.794   0.056
 3366SOL    HW210659   1.752   3.889   0.082
 3367SOL     OW10660   0.071   0.038  13.016
 3367SOL    HW110661   3.978   0.034  13.040
 3367SOL    HW210662   0.101   0.123  13.047
 3368SOL     OW10663   0.110   3.915  13.399
 3368SOL    HW110664   0.080   3.987  13.343
 3368SOL    HW210665   0.181   3.874  13.349
 3369SOL     OW10666   1.183   0.008  13.510
 3369SOL    HW110667   1.259   3.952  13.492
 3369SOL    HW210668   1.215   0.071  13.574
 3370SOL     OW10669   1.351   3.773  13.192
 3370SOL    HW110670   1.381   3.709  13.128
 3370SOL    HW210671   1.265   3.741  13.220
 3371SOL     OW10672   1.302   0.161  13.731
 3371SOL    HW110673   1.263   0.247  13.716
 3371SOL    HW210674   1.299   0.149  13.826
 3372SOL     OW10675   2.095   0.644   0.116
 3372SOL    HW110676   2.010   0.615   0.150
 3372SOL    HW210677   2.109   0.590   0.039
 3373SOL     OW10678   2.079   0.296   0.991
 3373SOL    HW110679   2.117   0.256   1.070
 3373SOL    HW210680   1.997   0.248   0.977
 3374SOL     OW10681   1.872   0.394   0.637
 3374SOL    HW110682   1.785   0.407   0.673
 3374SOL    HW210683   1.863   0.319   0.578
 3375SOL     OW10684   2.429   1.282   1.172
 3375SOL    HW110685   2.341   1.285   1.134
 3375SOL    HW210686   2.443   1.371   1.205
 3376SOL     OW10687   3.419   1.511   0.705
 3376SOL    HW110688   3.374   1.493   0.788
 3376SOL    HW210689   3.350   1.516   0.640
 3377SOL     OW10690   2.993   0.699   0.704
 3377SOL    HW110691   3.042   0.779   0.689
 3377SOL    HW210692   2.945   0.714   0.786
 3378SOL     OW10693   3.607   0.628   0.228
 3378SOL    HW110694   3.621   0.610   0.135
 3378SOL    HW210695   3.615   0.542   0.270
 3379SOL     OW10696   2.621   1.144   1.037
 3379SOL    HW110697   2.551   1.177   1.093
 3379SOL    HW210698   2.655   1.222   0.993
 3380SOL     OW10699   2.725   0.780   1.822
 3380SOL    HW110700   2.712   0.852   1.884
 3380SOL    HW210701   2.748   0.823   1.740
 3381SOL     OW10702   2.548   1.007   0.649
 3381SOL    HW110703   2.612   0.992   0.718
 3381SOL    HW210704   2.478   1.057   0.690
 3382SOL     OW10705   2.570   1.152   1.809
 3382SOL    HW110706   2.617   1.231   1.834
 3382SOL    HW210707   2.486   1.184   1.776
 3383SOL     OW10708   2.192   1.428   1.069
 3383SOL    HW110709   2.120   1.394   1.018
 3383SOL    HW210710   2.245   1.477   1.006
 3384SOL     OW10711   3.323   1.499   1.350
 3384SOL    HW110712   3.368   1.583   1.361
 3384SOL    HW210713   3.270   1.490   1.429
 3385SOL     OW10714   2.303   0.398   1.496
 3385SOL    HW110715   2.389   0.356   1.494
 3385SOL    HW210716   2.241   0.325   1.503
 3386SOL     OW10717   3.473   0.450   0.737
 3386SOL    HW110718   3.402   0.484   0.683
 3386SOL    HW210719   3.503   0.525   0.788
 3387SOL     OW10720   2.102   1.703   0.481
 3387SOL    HW110721   2.138   1.775   0.533
 3387SOL    HW210722   2.162   1.694   0.407
 3388SOL     OW10723   2.997   1.341   1.691
 3388SOL    HW110724   3.038   1.337   1.778
 3388SOL    HW210725   2.945   1.261   1.686
 3389SOL     OW10726   2.084   1.436   0.534
 3389SOL    HW110727   2.078   1.531   0.537
 3389SOL    HW210728   2.023   1.406   0.602
 3390SOL     OW10729   2.116   1.090   0.889
 3390SOL    HW110730   2.114   1.004   0.932
 3390SOL    HW210731   2.059   1.145   0.943
 3391SOL     OW10732   2.476   1.791   1.432
 3391SOL    HW110733   2.393   1.774   1.476
 3391SOL    HW210734   2.500   1.880   1.457
 3392SOL     OW10735   2.437   0.979   0.153
 3392SOL    HW110736   2.457   1.034   0.077
 3392SOL    HW210737   2.490   1.015   0.223
 3393SOL     OW10738   3.441   0.134   1.459
 3393SOL    HW110739   3.459   0.208   1.402
 3393SOL    HW210740   3.420   0.172   1.544
 3394SOL     OW10741   1.976   0.652   0.558
 3394SOL    HW110742   1.949   0.563   0.581
 3394SOL    HW210743   1.969   0.701   0.640
 3395SOL     OW10744   3.705   1.764   0.336
 3395SOL    HW110745   3.761   1.729   0.405
 3395SOL    HW210746   3.731   1.855   0.328
 3396SOL     OW10747   1.892   1.597   0.107
 3396SOL    HW110748   1.892   1.504   0.129
 3396SOL    HW210749   1.867   1.641   0.188
 3397SOL     OW10750   3.549   0.917   0.639
 3397SOL    HW110751   3.635   0.878   0.625
 3397SOL    HW210752   3.533   0.968   0.559
 3398SOL     OW10753   3.505   1.107   0.432
 3398SOL    HW110754   3.591   1.114   0.390
 3398SOL    HW210755   3.508   1.169   0.505
 3399SOL     OW10756   1.983   0.746   1.583
 3399SOL    HW110757   2.075   0.768   1.598
 3399SOL    HW210758   1.937   0.830   1.592
 3400SOL     OW10759   2.475   1.382   0.734
 3400SOL    HW110760   2.428   1.298   0.743
 3400SOL    HW210761   2.458   1.409   0.644
 3401SOL     OW10762   3.152   1.239   1.425
 3401SOL    HW110763   3.185   1.172   1.364
 3401SOL    HW210764   3.208   1.231   1.502
 3402SOL     OW10765   2.679   0.001   0.515
 3402SOL    HW110766   2.723   0.084   0.492
 3402SOL    HW210767   2.586   0.023   0.517
 3403SOL     OW10768   2.054   0.968   1.268
 3403SOL    HW110769   2.138   0.925   1.253
 3403SOL    HW210770   1.989   0.911   1.227
 3404SOL     OW10771   3.394   0.992   0.201
 3404SOL    HW110772   3.325   0.933   0.230
 3404SOL    HW210773   3.431   1.028   0.281
 3405SOL     OW10774   3.046   1.804   1.620
 3405SOL    HW110775   3.063   1.861   1.545
 3405SOL    HW210776   3.062   1.715   1.587
 3406SOL     OW10777   2.209   0.255   1.812
 3406SOL    HW110778   2.255   0.339   1.817
 3406SOL    HW210779   2.117   0.276   1.830
 3407SOL     OW10780   3.327   1.420   0.953
 3407SOL    HW110781   3.259   1.433   1.019
 3407SOL    HW210782   3.316   1.329   0.926
 3408SOL     OW10783   3.524   1.734   0.582
 3408SOL    HW110784   3.500   1.711   0.492
 3408SOL    HW210785   3.499   1.658   0.634
 3409SOL     OW10786   2.458   0.722   0.259
 3409SOL    HW110787   2.464   0.803   0.209
 3409SOL    HW210788   2.399   0.742   0.332
 3410SOL     OW10789   3.139   0.361   0.939
 3410SOL    HW110790   3.052   0.321   0.944
 3410SOL    HW210791   3.196   0.300   0.987
 3411SOL     OW10792   3.424   1.728   0.310
 3411SOL    HW110793   3.519   1.727   0.311
 3411SOL    HW210794   3.400   1.684   0.229
 3412SOL     OW10795   2.659   0.615   1.454
 3412SOL    HW110796   2.629   0.593   1.543
 3412SOL    HW210797   2.615   0.552   1.398
 3413SOL     OW10798   3.255   0.476   1.677
 3413SOL    HW110799   3.256   0.520   1.762
 3413SOL    HW210800   3.317   0.404   1.686
 3414SOL     OW10801   2.820   0.889   1.581
 3414SOL    HW110802   2.874   0.818   1.547
 3414SOL    HW210803   2.772   0.922   1.505
 3415SOL     OW10804   2.853   0.403   1.242
 3415SOL    HW110805   2.772   0.432   1.285
 3415SOL    HW210806   2.824   0.370   1.157
 3416SOL     OW10807   2.911   0.701   0.428
 3416SOL    HW110808   2.925   0.692   0.522
 3416SOL    HW210809   2.830   0.653   0.412
 3417SOL     OW10810   1.951   0.822   0.775
 3417SOL    HW110811   2.032   0.812   0.825
 3417SOL    HW210812   1.909   0.899   0.811
 3418SOL     OW10813   2.735   0.359   0.214
 3418SOL    HW110814   2.777   0.415   0.148
 3418SOL    HW210815   2.741   0.271   0.178
 3419SOL     OW10816   3.575   0.576   1.828
 3419SOL    HW110817   3.538   0.653   1.786
 3419SOL    HW210818   3.595   0.516   1.756
 3420SOL     OW10819   3.236   1.142   0.543
 3420SOL    HW110820   3.315   1.128   0.490
 3420SOL    HW210821   3.184   1.205   0.493
 3421SOL     OW10822   2.416   0.197   0.883
 3421SOL    HW110823   2.420   0.213   0.977
 3421SOL    HW210824   2.415   0.284   0.844
 3422SOL     OW10825   2.871   1.445   0.476
 3422SOL    HW110826   2.832   1.516   0.426
 3422SOL    HW210827   2.855   1.468   0.567
 3423SOL     OW10828   2.215   1.790   0.865
 3423SOL    HW110829   2.256   1.704   0.877
 3423SOL    HW210830   2.284   1.852   0.884
 3424SOL     OW10831   3.664   1.062   0.866
 3424SOL    HW110832   3.607   1.043   0.792
 3424SOL    HW210833   3.605   1.066   0.941
 3425SOL     OW10834   3.089   1.540   1.513
 3425SOL    HW110835   3.076   1.467   1.573
 3425SOL    HW210836   3.030   1.522   1.440
 3426SOL     OW10837   2.179   0.942   0.227
 3426SOL    HW110838   2.271   0.955   0.202
 3426SOL    HW210839   2.165   0.848   0.221
 3427SOL     OW10840   3.336   0.739   0.731
 3427SOL    HW110841   3.327   0.694   0.815
 3427SOL    HW210842   3.413   0.795   0.741
 3428SOL     OW10843   2.327   1.263   1.738
 3428SOL    HW110844   2.298   1.268   1.646
 3428SOL    HW210845   2.245   1.261   1.788
 3429SOL     OW10846   2.981   1.780   0.234
 3429SOL    HW110847   2.920   1.732   0.289
 3429SOL    HW210848   3.010   1.717   0.168
 3430SOL     OW10849   2.040   0.279   1.496
 3430SOL    HW110850   1.975   0.349   1.495
 3430SOL    HW210851   2.048   0.256   1.589
 3431SOL     OW10852   3.495   1.369   0.080
 3431SOL    HW110853   3.459   1.455   0.056
 3431SOL    HW210854   3.424   1.307   0.061
 3432SOL     OW10855   2.334   1.728   0.328
 3432SOL    HW110856   2.371   1.794   0.386
 3432SOL    HW210857   2.400   1.718   0.258
 3433SOL     OW10858   3.295   0.145   0.397
 3433SOL    HW110859   3.259   0.064   0.361
 3433SOL    HW210860   3.377   0.119   0.439
 3434SOL     OW10861   2.152   1.763   1.228
 3434SOL    HW110862   2.192   1.683   1.262
 3434SOL    HW210863   2.120   1.739   1.141
 3435SOL     OW10864   2.799   1.698   0.901
 3435SOL    HW110865   2.877   1.645   0.920
 3435SOL    HW210866   2.755   1.649   0.831
 3436SOL     OW10867   2.252   0.696   0.475
 3436SOL    HW110868   2.277   0.604   0.484
 3436SOL    HW210869   2.159   0.698   0.499
 3437SOL     OW10870   3.396   0.234   1.726
 3437SOL    HW110871   3.395   0.256   1.819
 3437SOL    HW210872   3.357   0.146   1.723
 3438SOL     OW10873   2.481   0.099   0.117
 3438SOL    HW110874   2.576   0.101   0.125
 3438SOL    HW210875   2.464   0.128   0.028
 3439SOL     OW10876   2.641   0.281   1.762
 3439SOL    HW110877   2.701   0.207   1.772
 3439SOL    HW210878   2.577   0.269   1.832
 3440SOL     OW10879   2.739   1.521   1.193
 3440SOL    HW110880   2.724   1.485   1.106
 3440SOL    HW210881   2.808   1.466   1.230
 3441SOL     OW10882   3.205   0.587   1.430
 3441SOL    HW110883   3.234   0.558   1.517
 3441SOL    HW210884   3.238   0.676   1.423
 3442SOL     OW10885   2.675   1.398   0.936
 3442SOL    HW110886   2.759   1.388   0.891
 3442SOL    HW210887   2.610   1.395   0.865
 3443SOL     OW10888   2.790   0.510   0.903
 3443SOL    HW110889   2.766   0.502   0.810
 3443SOL    HW210890   2.820   0.423   0.927
 3444SOL     OW10891   2.410   0.055   0.500
 3444SOL    HW110892   2.334   0.061   0.557
 3444SOL    HW210893   2.406   0.133   0.445
 3445SOL     OW10894   3.291   1.200   0.045
 3445SOL    HW110895   3.313   1.121   0.093
 3445SOL    HW210896   3.199   1.216   0.065
 3446SOL     OW10897   2.190   0.010   0.174
 3446SOL    HW110898   2.188   0.097   0.135
 3446SOL    HW210899   2.262   0.015   0.237
 3447SOL     OW10900   2.798   0.247   0.466
 3447SOL    HW110901   2.768   0.286   0.384
 3447SOL    HW210902   2.894   0.246   0.459
 3448SOL     OW10903   2.942   0.680   1.460
 3448SOL    HW110904   2.869   0.617   1.467
 3448SOL    HW210905   3.020   0.625   1.453
 3449SOL     OW10906   3.086   1.570   0.794
 3449SOL    HW110907   3.105   1.637   0.728
 3449SOL    HW210908   3.155   1.581   0.860
 3450SOL     OW10909   2.329   1.148   0.736
 3450SOL    HW110910   2.259   1.129   0.799
 3450SOL    HW210911   2.290   1.132   0.651
 3451SOL     OW10912   3.133   1.795   0.604
 3451SOL    HW110913   3.179   1.857   0.547
 3451SOL    HW210914   3.069   1.849   0.651
 3452SOL     OW10915   2.867   0.535   0.058
 3452SOL    HW110916   2.865   0.555  13.864
 3452SOL    HW210917   2.954   0.562   0.086
 3453SOL     OW10918   1.939   0.553   1.394
 3453SOL    HW110919   2.030   0.552   1.364
 3453SOL    HW210920   1.934   0.626   1.455
 3454SOL     OW10921   2.428   0.232   1.161
 3454SOL    HW110922   2.454   0.141   1.174
 3454SOL    HW210923   2.337   0.236   1.192
 3455SOL     OW10924   2.733   0.461   0.639
 3455SOL    HW110925   2.685   0.514   0.575
 3455SOL    HW210926   2.751   0.379   0.593
 3456SOL     OW10927   2.855   0.043   0.777
 3456SOL    HW110928   2.822   0.063   0.690
 3456SOL    HW210929   2.865   3.948   0.778
 3457SOL     OW10930   3.298   1.164   0.858
 3457SOL    HW110931   3.230   1.096   0.856
 3457SOL    HW210932   3.321   1.178   0.766
 3458SOL     OW10933   3.329   0.602   0.981
 3458SOL    HW110934   3.282   0.519   0.987
 3458SOL    HW210935   3.391   0.600   1.054
 3459SOL     OW10936   3.723   0.823   0.375
 3459SOL    HW110937   3.764   0.765   0.439
 3459SOL    HW210938   3.678   0.763   0.315
 3460SOL     OW10939   2.350   1.404   0.159
 3460SOL    HW110940   2.274   1.375   0.210
 3460SOL    HW210941   2.328   1.383   0.068
 3461SOL     OW10942   3.527   1.265   0.649
 3461SOL    HW110943   3.622   1.271   0.658
 3461SOL    HW210944   3.496   1.354   0.667
 3462SOL     OW10945   3.277   0.589   0.086
 3462SOL    HW110946   3.207   0.574   0.150
 3462SOL    HW210947   3.335   0.513   0.095
 3463SOL     OW10948   2.382   0.255   0.322
 3463SOL    HW110949   2.423   0.207   0.250
 3463SOL    HW210950   2.367   0.343   0.287
 3464SOL     OW10951   3.615   1.234   1.575
 3464SOL    HW110952   3.702   1.198   1.558
 3464SOL    HW210953   3.631   1.322   1.608
 3465SOL     OW10954   2.923   1.354   1.335
 3465SOL    HW110955   2.848   1.322   1.386
 3465SOL    HW210956   2.999   1.312   1.376
 3466SOL     OW10957   3.466   1.626   1.651
 3466SOL    HW110958   3.463   1.660   1.562
 3466SOL    HW210959   3.549   1.579   1.656
 3467SOL     OW10960   2.987   1.201   1.107
 3467SOL    HW110961   2.929   1.240   1.173
 3467SOL    HW210962   2.953   1.232   1.023
 3468SOL     OW10963   3.495   1.100   1.077
 3468SOL    HW110964   3.489   1.161   1.151
 3468SOL    HW210965   3.415   1.114   1.027
 3469SOL     OW10966   2.776   0.109   1.403
 3469SOL    HW110967   2.796   0.085   1.312
 3469SOL    HW210968   2.856   0.152   1.434
 3470SOL     OW10969   2.846   1.114   1.722
 3470SOL    HW110970   2.753   1.130   1.742
 3470SOL    HW210971   2.846   1.037   1.666
 3471SOL     OW10972   2.574   1.058   0.375
 3471SOL    HW110973   2.560   1.045   0.468
 3471SOL    HW210974   2.649   1.003   0.354
 3472SOL     OW10975   2.279   0.814   1.251
 3472SOL    HW110976   2.348   0.823   1.317
 3472SOL    HW210977   2.244   0.726   1.265
 3473SOL     OW10978   3.129   0.376   1.274
 3473SOL    HW110979   3.164   0.453   1.319
 3473SOL    HW210980   3.043   0.403   1.242
 3474SOL     OW10981   1.931   1.577   1.351
 3474SOL    HW110982   1.894   1.642   1.291
 3474SOL    HW210983   2.025   1.583   1.338
 3475SOL     OW10984   2.214   1.109   0.491
 3475SOL    HW110985   2.217   1.182   0.429
 3475SOL    HW210986   2.220   1.031   0.436
 3476SOL     OW10987   2.420   0.537   0.860
 3476SOL    HW110988   2.436   0.596   0.786
 3476SOL    HW210989   2.481   0.566   0.927
 3477SOL     OW10990   3.110   1.346   0.395
 3477SOL    HW110991   3.166   1.419   0.421
 3477SOL    HW210992   3.023   1.369   0.427
 3478SOL     OW10993   3.139   1.456   1.146
 3478SOL    HW110994   3.194   1.458   1.224
 3478SOL    HW210995   3.084   1.378   1.158
 3479SOL     OW10996   3.445   0.631   0.486
 3479SOL    HW110997   3.403   0.694   0.544
 3479SOL    HW210998   3.483   0.685   0.416
 3480SOL     OW10999   2.215   1.515   1.320
 3480SOL    HW111000   2.200   1.474   1.235
 3480SOL    HW211001   2.309   1.528   1.324
 3481SOL     OW11002   2.274   0.745   1.601
 3481SOL    HW111003   2.335   0.790   1.543
 3481SOL    HW211004   2.315   0.660   1.617
 3482SOL     OW11005   3.459   0.775   1.678
 3482SOL    HW111006   3.374   0.817   1.671
 3482SOL    HW211007   3.512   0.818   1.611
 3483SOL     OW11008   2.887   0.117   1.777
 3483SOL    HW111009   2.912   0.198   1.733
 3483SOL    HW211010   2.875   0.054   1.707
 3484SOL     OW11011   2.346   0.035   1.765
 3484SOL    HW111012   2.354   0.034   1.669
 3484SOL    HW211013   2.289   0.110   1.783
 3485SOL     OW11014   2.444   0.872   1.031
 3485SOL    HW111015   2.473   0.963   1.029
 3485SOL    HW211016   2.387   0.867   1.108
 3486SOL     OW11017   3.222   0.859   1.033
 3486SOL    HW111018   3.141   0.852   0.983
 3486SOL    HW211019   3.260   0.771   1.030
 3487SOL     OW11020   3.079   0.542   0.272
 3487SOL    HW111021   3.083   0.462   0.324
 3487SOL    HW211022   3.026   0.602   0.326
 3488SOL     OW11023   2.166   0.213   1.241
 3488SOL    HW111024   2.130   0.242   1.325
 3488SOL    HW211025   2.150   0.119   1.239
 3489SOL     OW11026   1.907   1.312   1.279
 3489SOL    HW111027   1.941   1.258   1.350
 3489SOL    HW211028   1.916   1.402   1.310
 3490SOL     OW11029   2.589   0.634   1.058
 3490SOL    HW111030   2.661   0.616   0.997
 3490SOL    HW211031   2.560   0.722   1.036
 3491SOL     OW11032   3.596   0.955   1.856
 3491SOL    HW111033   3.548   0.907   1.789
 3491SOL    HW211034   3.532   0.969   1.926
 3492SOL     OW11035   2.182   0.059   0.641
 3492SOL    HW111036   2.159   0.151   0.655
 3492SOL    HW211037   2.141   0.013   0.714
 3493SOL     OW11038   3.439   0.384   0.390
 3493SOL    HW111039   3.437   0.320   0.461
 3493SOL    HW211040   3.431   0.469   0.433
 3494SOL     OW11041   2.889   0.760   0.962
 3494SOL    HW111042   2.888   0.777   1.056
 3494SOL    HW211043   2.862   0.668   0.954
 3495SOL     OW11044   2.844   1.566   1.714
 3495SOL    HW111045   2.829   1.610   1.631
 3495SOL    HW211046   2.887   1.484   1.691
 3496SOL     OW11047   3.710   1.508   1.602
 3496SOL    HW111048   3.730   1.533   1.512
 3496SOL    HW211049   3.791   1.524   1.650
 3497SOL     OW11050   2.215   0.915   1.808
 3497SOL    HW111051   2.297   0.934   1.853
 3497SOL    HW211052   2.239   0.854   1.738
 3498SOL     OW11053   3.400   0.268   0.144
 3498SOL    HW111054   3.330   0.204   0.150
 3498SOL    HW211055   3.403   0.310   0.230
 3499SOL     OW11056   3.156   0.831   0.055
 3499SOL    HW111057   3.201   0.747   0.059
 3499SOL    HW211058   3.175   0.864  13.866
 3500SOL     OW11059   2.927   1.335   0.852
 3500SOL    HW111060   2.930   1.262   0.790
 3500SOL    HW211061   2.990   1.398   0.818
 3501SOL     OW11062   2.172   0.810   0.948
 3501SOL    HW111063   2.265   0.831   0.943
 3501SOL    HW211064   2.170   0.720   0.982
 3502SOL     OW11065   2.199   0.530   1.011
 3502SOL    HW111066   2.158   0.445   0.996
 3502SOL    HW211067   2.274   0.532   0.953
 3503SOL     OW11068   2.996   0.384   1.688
 3503SOL    HW111069   2.949   0.439   1.751
 3503SOL    HW211070   3.084   0.422   1.684
 3504SOL     OW11071   3.014   0.223   1.481
 3504SOL    HW111072   3.006   0.278   1.559
 3504SOL    HW211073   3.034   0.285   1.410
 3505SOL     OW11074   1.878   1.313   0.181
 3505SOL    HW111075   1.796   1.322   0.133
 3505SOL    HW211076   1.874   1.225   0.219
 3506SOL     OW11077   1.961   1.731   0.961
 3506SOL    HW111078   1.928   1.669   0.896
 3506SOL    HW211079   2.038   1.770   0.921
 3507SOL     OW11080   2.366   1.567   0.909
 3507SOL    HW111081   2.434   1.630   0.931
 3507SOL    HW211082   2.409   1.504   0.852
 3508SOL     OW11083   2.850   0.793   1.228
 3508SOL    HW111084   2.901   0.769   1.304
 3508SOL    HW211085   2.762   0.759   1.246
 3509SOL     OW11086   1.896   0.545   1.117
 3509SOL    HW111087   1.973   0.518   1.066
 3509SOL    HW211088   1.927   0.549   1.207
 3510SOL     OW11089   2.063   0.526   1.717
 3510SOL    HW111090   2.126   0.499   1.650
 3510SOL    HW211091   2.013   0.597   1.676
 3511SOL     OW11092   3.239   0.941   1.660
 3511SOL    HW111093   3.259   1.035   1.660
 3511SOL    HW211094   3.236   0.917   1.567
 3512SOL     OW11095   2.677   0.577   0.362
 3512SOL    HW111096   2.689   0.501   0.306
 3512SOL    HW211097   2.601   0.623   0.325
 3513SOL     OW11098   3.504   0.602   1.189
 3513SOL    HW111099   3.493   0.540   1.262
 3513SOL    HW211100   3.590   0.579   1.153
 3514SOL     OW11101   2.118   1.540   1.712
 3514SOL    HW111102   2.098   1.611   1.774
 3514SOL    HW211103   2.114   1.460   1.766
 3515SOL     OW11104   2.557   0.458   1.263
 3515SOL    HW111105   2.511   0.379   1.234
 3515SOL    HW211106   2.554   0.516   1.187
 3516SOL     OW11107   2.791   1.679   1.466
 3516SOL    HW111108   2.766   1.648   1.379
 3516SOL    HW211109   2.792   1.774   1.459
 3517SOL     OW11110   2.309   0.496   0.232
 3517SOL    HW111111   2.375   0.565   0.238
 3517SOL    HW211112   2.234   0.537   0.190
 3518SOL     OW11113   2.010   1.140   1.471
 3518SOL    HW111114   2.015   1.086   1.550
 3518SOL    HW211115   2.027   1.078   1.399
 3519SOL     OW11116   3.190   1.049   1.225
 3519SOL    HW111117   3.215   0.986   1.157
 3519SOL    HW211118   3.118   1.099   1.187
 3520SOL     OW11119   3.170   0.857   0.323
 3520SOL    HW111120   3.093   0.824   0.369
 3520SOL    HW211121   3.151   0.845   0.230
 3521SOL     OW11122   3.634   1.747   1.151
 3521SOL    HW111123   3.690   1.773   1.078
 3521SOL    HW211124   3.608   1.657   1.130
 3522SOL     OW11125   3.104   1.733   1.117
 3522SOL    HW111126   3.185   1.752   1.070
 3522SOL    HW211127   3.107   1.639   1.134
 3523SOL     OW11128   1.947   1.263   1.016
 3523SOL    HW111129   1.932   1.276   1.109
 3523SOL    HW211130   1.871   1.213   0.986
 3524SOL     OW11131   2.540   1.662   1.723
 3524SOL    HW111132   2.494   1.746   1.724
 3524SOL    HW211133   2.604   1.672   1.653
 3525SOL     OW11134   2.764   0.105   0.139
 3525SOL    HW111135   2.801   0.090   0.052
 3525SOL    HW211136   2.780   0.023   0.187
 3526SOL     OW11137   3.560   0.130   0.483
 3526SOL    HW111138   3.642   0.134   0.435
 3526SOL    HW211139   3.553   0.038   0.511
 3527SOL     OW11140   3.251   1.571   0.481
 3527SOL    HW111141   3.313   1.604   0.416
 3527SOL    HW211142   3.205   1.649   0.512
 3528SOL     OW11143   2.031   1.746   1.857
 3528SOL    HW111144   1.966   1.693   1.901
 3528SOL    HW211145   2.013   1.835   1.885
 3529SOL     OW11146   3.138   0.925   0.671
 3529SOL    HW111147   3.212   0.864   0.677
 3529SOL    HW211148   3.172   0.998   0.619
 3530SOL     OW11149   2.680   1.272   1.431
 3530SOL    HW111150   2.654   1.310   1.515
 3530SOL    HW211151   2.609   1.293   1.371
 3531SOL     OW11152   2.549   1.580   0.175
 3531SOL    HW111153   2.528   1.626   0.095
 3531SOL    HW211154   2.489   1.505   0.177
 3532SOL     OW11155   3.492   1.726   1.392
 3532SOL    HW111156   3.542   1.733   1.311
 3532SOL    HW211157   3.479   1.817   1.420
 3533SOL     OW11158   3.701   0.178   0.970
 3533SOL    HW111159   3.728   0.096   0.928
 3533SOL    HW211160   3.614   0.195   0.934
 3534SOL     OW11161   2.127   0.319   0.717
 3534SOL    HW111162   2.041   0.355   0.695
 3534SOL    HW211163   2.124   0.306   0.812
 3535SOL     OW11164   3.073   1.604   0.033
 3535SOL    HW111165   3.066   1.513   0.062
 3535SOL    HW211166   3.039   1.603  13.844
 3536SOL     OW11167   2.687   1.006   1.371
 3536SOL    HW111168   2.729   1.003   1.285
 3536SOL    HW211169   2.687   1.098   1.396
 3537SOL     OW11170   2.781   0.910   0.286
 3537SOL    HW111171   2.852   0.947   0.234
 3537SOL    HW211172   2.822   0.838   0.335
 3538SOL     OW11173   3.351   1.628   0.067
 3538SOL    HW111174   3.257   1.626   0.048
 3538SOL    HW211175   3.392   1.640  13.881
 3539SOL     OW11176   2.232   1.298   1.492
 3539SOL    HW111177   2.219   1.377   1.440
 3539SOL    HW211178   2.154   1.245   1.475
 3540SOL     OW11179   3.468   1.281   1.280
 3540SOL    HW111180   3.534   1.277   1.349
 3540SOL    HW211181   3.410   1.353   1.306
 3541SOL     OW11182   2.910   1.105   0.704
 3541SOL    HW111183   2.840   1.053   0.745
 3541SOL    HW211184   2.972   1.040   0.672
 3542SOL     OW11185   2.877   0.246   0.967
 3542SOL    HW111186   2.866   0.197   0.885
 3542SOL    HW211187   2.869   0.180   1.036
 3543SOL     OW11188   2.463   1.490   0.483
 3543SOL    HW111189   2.505   1.439   0.413
 3543SOL    HW211190   2.401   1.546   0.437
 3544SOL     OW11191   3.581   0.390   1.376
 3544SOL    HW111192   3.651   0.455   1.373
 3544SOL    HW211193   3.612   0.319   1.320
 3545SOL     OW11194   2.127   1.332   0.293
 3545SOL    HW111195   2.041   1.341   0.253
 3545SOL    HW211196   2.119   1.374   0.379
 3546SOL     OW11197   1.974   1.019   1.719
 3546SOL    HW111198   1.898   0.996   1.773
 3546SOL    HW211199   2.049   0.983   1.767
 3547SOL     OW11200   2.552   0.237   1.495
 3547SOL    HW111201   2.623   0.187   1.455
 3547SOL    HW211202   2.576   0.244   1.588
 3548SOL     OW11203   1.901   0.434   0.012
 3548SOL    HW111204   1.876   0.342   0.015
 3548SOL    HW211205   1.924   0.450  13.821
 3549SOL     OW11206   3.292   0.858   1.401
 3549SOL    HW111207   3.244   0.918   1.345
 3549SOL    HW211208   3.382   0.860   1.367
 3550SOL     OW11209   1.945   0.154   0.363
 3550SOL    HW111210   1.911   0.228   0.313
 3550SOL    HW211211   2.020   0.123   0.311
 3551SOL     OW11212   3.047   1.350   0.122
 3551SOL    HW111213   2.954   1.328   0.112
 3551SOL    HW211214   3.065   1.337   0.215
 3552SOL     OW11215   2.480   0.831   1.432
 3552SOL    HW111216   2.536   0.907   1.418
 3552SOL    HW211217   2.542   0.758   1.441
 3553SOL     OW11218   3.347   1.776   0.975
 3553SOL    HW111219   3.373   1.831   0.902
 3553SOL    HW211220   3.428   1.757   1.022
 3554SOL     OW11221   2.579   0.564   1.707
 3554SOL    HW111222   2.615   0.628   1.768
 3554SOL    HW211223   2.615   0.480   1.735
 3555SOL     OW11224   3.330   1.203   1.633
 3555SOL    HW111225   3.319   1.216   1.727
 3555SOL    HW211226   3.424   1.216   1.618
 3556SOL     OW11227   2.242   1.745   1.570
 3556SOL    HW111228   2.159   1.769   1.529
 3556SOL    HW211229   2.226   1.658   1.608
 3557SOL     OW11230   3.530   0.882   1.258
 3557SOL    HW111231   3.527   0.797   1.215
 3557SOL    HW211232   3.526   0.945   1.187
 3558SOL     OW11233   3.090   0.331   0.444
 3558SOL    HW111234   3.156   0.262   0.437
 3558SOL    HW211235   3.111   0.376   0.525
 3559SOL     OW11236   2.454   0.740   0.667
 3559SOL    HW111237   2.492   0.826   0.651
 3559SOL    HW211238   2.383   0.733   0.603
 3560SOL     OW11239   3.620   0.377   1.642
 3560SOL    HW111240   3.601   0.383   1.549
 3560SOL    HW211241   3.560   0.310   1.675
 3561SOL     OW11242   3.610   0.933   1.515
 3561SOL    HW111243   3.610   1.027   1.528
 3561SOL    HW211244   3.591   0.921   1.421
 3562SOL     OW11245   2.765   1.391   0.053
 3562SOL    HW111246   2.691   1.385   0.114
 3562SOL    HW211247   2.726   1.421  13.871
 3563SOL     OW11248   2.520   1.796   0.948
 3563SOL    HW111249   2.501   1.885   0.919
 3563SOL    HW211250   2.615   1.788   0.938
 3564SOL     OW11251   2.728   0.965   0.856
 3564SOL    HW111252   2.778   0.895   0.897
 3564SOL    HW211253   2.695   1.017   0.929
 3565SOL     OW11254   2.958   1.002   0.105
 3565SOL    HW111255   2.947   1.052   0.024
 3565SOL    HW211256   3.035   0.947   0.089
 3566SOL     OW11257   3.721   1.556   0.842
 3566SOL    HW111258   3.642   1.545   0.790
 3566SOL    HW211259   3.714   1.491   0.911
 3567SOL     OW11260   2.086   1.304   1.857
 3567SOL    HW111261   2.018   1.241   1.830
 3567SOL    HW211262   2.073   1.315   1.951
 3568SOL     OW11263   1.942   1.228   0.661
 3568SOL    HW111264   1.949   1.183   0.745
 3568SOL    HW211265   2.018   1.199   0.611
 3569SOL     OW11266   2.540   1.400   1.624
 3569SOL    HW111267   2.462   1.356   1.656
 3569SOL    HW211268   2.536   1.488   1.663
 3570SOL     OW11269   3.678   0.183   1.243
 3570SOL    HW111270   3.680   0.088   1.251
 3570SOL    HW211271   3.693   0.199   1.149
 3571SOL     OW11272   2.292   0.434   0.529
 3571SOL    HW111273   2.323   0.364   0.472
 3571SOL    HW211274   2.246   0.390   0.600
 3572SOL     OW11275   3.562   1.492   1.101
 3572SOL    HW111276   3.482   1.465   1.057
 3572SOL    HW211277   3.579   1.423   1.165
 3573SOL     OW11278   2.188   0.553   1.291
 3573SOL    HW111279   2.243   0.496   1.346
 3573SOL    HW211280   2.210   0.526   1.202
 3574SOL     OW11281   2.687   1.578   0.680
 3574SOL    HW111282   2.682   1.625   0.597
 3574SOL    HW211283   2.609   1.523   0.681
 3575SOL     OW11284   3.322   0.249   1.112
 3575SOL    HW111285   3.337   0.162   1.148
 3575SOL    HW211286   3.263   0.291   1.175
 3576SOL     OW11287   2.869   0.030   1.148
 3576SOL    HW111288   2.795   3.976   1.120
 3576SOL    HW211289   2.943   3.969   1.154
 3577SOL     OW11290   2.630   1.322   0.317
 3577SOL    HW111291   2.601   1.232   0.333
 3577SOL    HW211292   2.717   1.326   0.357
 3578SOL     OW11293   2.482   1.558   1.284
 3578SOL    HW111294   2.485   1.640   1.334
 3578SOL    HW211295   2.569   1.550   1.246
 3579SOL     OW11296   3.187   0.069   0.144
 3579SOL    HW111297   3.216   3.998   0.086
 3579SOL    HW211298   3.114   0.032   0.194
 3580SOL     OW11299   3.148   0.458   0.688
 3580SOL    HW111300   3.100   0.540   0.686
 3580SOL    HW211301   3.154   0.435   0.780
 3581SOL     OW11302   3.451   0.211   0.867
 3581SOL    HW111303   3.399   0.231   0.945
 3581SOL    HW211304   3.451   0.292   0.816
 3582SOL     OW11305   1.902   1.071   0.306
 3582SOL    HW111306   1.998   1.068   0.303
 3582SOL    HW211307   1.876   0.982   0.329
 3583SOL     OW11308   2.752   1.649   0.345
 3583SOL    HW111309   2.681   1.620   0.289
 3583SOL    HW211310   2.716   1.723   0.394
 3584SOL     OW11311   2.093   0.622   1.983
 3584SOL    HW111312   2.003   0.625   2.014
 3584SOL    HW211313   2.086   0.600   1.890
 3585SOL     OW11314   2.079   0.295   2.852
 3585SOL    HW111315   2.117   0.256   2.931
 3585SOL    HW211316   1.997   0.249   2.839
 3586SOL     OW11317   1.872   0.393   2.500
 3586SOL    HW111318   1.784   0.408   2.536
 3586SOL    HW211319   1.861   0.319   2.439
 3587SOL     OW11320   2.429   1.282   3.034
 3587SOL    HW111321   2.341   1.285   2.996
 3587SOL    HW211322   2.443   1.371   3.067
 3588SOL     OW11323   3.419   1.511   2.567
 3588SOL    HW111324   3.375   1.494   2.651
 3588SOL    HW211325   3.348   1.517   2.503
 3589SOL     OW11326   2.993   0.699   2.566
 3589SOL    HW111327   3.042   0.779   2.551
 3589SOL    HW211328   2.945   0.714   2.648
 3590SOL     OW11329   3.618   0.620   2.092
 3590SOL    HW111330   3.604   0.608   1.999
 3590SOL    HW211331   3.607   0.532   2.130
 3591SOL     OW11332   2.622   1.144   2.900
 3591SOL    HW111333   2.551   1.177   2.956
 3591SOL    HW211334   2.655   1.222   2.855
 3592SOL     OW11335   2.725   0.780   3.684
 3592SOL    HW111336   2.712   0.852   3.746
 3592SOL    HW211337   2.748   0.823   3.602
 3593SOL     OW11338   2.549   1.007   2.511
 3593SOL    HW111339   2.612   0.992   2.581
 3593SOL    HW211340   2.478   1.056   2.552
 3594SOL     OW11341   2.570   1.152   3.671
 3594SOL    HW111342   2.617   1.231   3.696
 3594SOL    HW211343   2.486   1.184   3.638
 3595SOL     OW11344   2.193   1.428   2.931
 3595SOL    HW111345   2.120   1.393   2.880
 3595SOL    HW211346   2.245   1.478   2.868
 3596SOL     OW11347   3.323   1.499   3.212
 3596SOL    HW111348   3.368   1.583   3.223
 3596SOL    HW211349   3.270   1.490   3.291
 3597SOL     OW11350   2.303   0.398   3.358
 3597SOL    HW111351   2.389   0.356   3.356
 3597SOL    HW211352   2.241   0.325   3.365
 3598SOL     OW11353   3.474   0.450   2.599
 3598SOL    HW111354   3.401   0.483   2.546
 3598SOL    HW211355   3.502   0.526   2.651
 3599SOL     OW11356   2.096   1.703   2.336
 3599SOL    HW111357   2.129   1.773   2.392
 3599SOL    HW211358   2.163   1.694   2.268
 3600SOL     OW11359   2.997   1.341   3.553
 3600SOL    HW111360   3.038   1.337   3.640
 3600SOL    HW211361   2.945   1.261   3.548
 3601SOL     OW11362   2.089   1.436   2.397
 3601SOL    HW111363   2.077   1.531   2.399
 3601SOL    HW211364   2.026   1.402   2.460
 3602SOL     OW11365   2.116   1.090   2.752
 3602SOL    HW111366   2.113   1.004   2.794
 3602SOL    HW211367   2.059   1.145   2.805
 3603SOL     OW11368   2.476   1.791   3.294
 3603SOL    HW111369   2.393   1.774   3.339
 3603SOL    HW211370   2.500   1.880   3.319
 3604SOL     OW11371   2.451   0.980   1.994
 3604SOL    HW111372   2.494   1.032   1.926
 3604SOL    HW211373   2.492   1.009   2.075
 3605SOL     OW11374   3.441   0.134   3.321
 3605SOL    HW111375   3.459   0.209   3.264
 3605SOL    HW211376   3.420   0.172   3.406
 3606SOL     OW11377   1.976   0.652   2.421
 3606SOL    HW111378   1.949   0.563   2.444
 3606SOL    HW211379   1.969   0.701   2.503
 3607SOL     OW11380   3.700   1.759   2.200
 3607SOL    HW111381   3.763   1.733   2.266
 3607SOL    HW211382   3.724   1.849   2.177
 3608SOL     OW11383   1.865   1.597   2.002
 3608SOL    HW111384   1.863   1.501   2.000
 3608SOL    HW211385   1.867   1.620   2.094
 3609SOL     OW11386   3.549   0.917   2.499
 3609SOL    HW111387   3.635   0.878   2.486
 3609SOL    HW211388   3.533   0.969   2.420
 3610SOL     OW11389   3.504   1.108   2.293
 3610SOL    HW111390   3.588   1.116   2.248
 3610SOL    HW211391   3.510   1.169   2.367
 3611SOL     OW11392   1.983   0.746   3.445
 3611SOL    HW111393   2.075   0.768   3.460
 3611SOL    HW211394   1.937   0.830   3.453
 3612SOL     OW11395   2.475   1.382   2.596
 3612SOL    HW111396   2.428   1.299   2.605
 3612SOL    HW211397   2.457   1.409   2.506
 3613SOL     OW11398   3.152   1.239   3.287
 3613SOL    HW111399   3.185   1.172   3.226
 3613SOL    HW211400   3.208   1.231   3.364
 3614SOL     OW11401   2.677   0.001   2.375
 3614SOL    HW111402   2.722   0.083   2.355
 3614SOL    HW211403   2.585   0.024   2.378
 3615SOL     OW11404   2.054   0.968   3.131
 3615SOL    HW111405   2.138   0.925   3.115
 3615SOL    HW211406   1.989   0.911   3.089
 3616SOL     OW11407   3.392   0.992   2.059
 3616SOL    HW111408   3.323   0.934   2.090
 3616SOL    HW211409   3.432   1.026   2.138
 3617SOL     OW11410   3.046   1.804   3.482
 3617SOL    HW111411   3.063   1.861   3.407
 3617SOL    HW211412   3.062   1.715   3.449
 3618SOL     OW11413   2.209   0.255   3.674
 3618SOL    HW111414   2.255   0.339   3.679
 3618SOL    HW211415   2.117   0.276   3.692
 3619SOL     OW11416   3.327   1.420   2.815
 3619SOL    HW111417   3.259   1.434   2.881
 3619SOL    HW211418   3.316   1.329   2.788
 3620SOL     OW11419   3.521   1.734   2.440
 3620SOL    HW111420   3.501   1.705   2.351
 3620SOL    HW211421   3.497   1.660   2.496
 3621SOL     OW11422   2.457   0.723   2.126
 3621SOL    HW111423   2.465   0.803   2.074
 3621SOL    HW211424   2.393   0.744   2.193
 3622SOL     OW11425   3.139   0.361   2.802
 3622SOL    HW111426   3.052   0.321   2.806
 3622SOL    HW211427   3.196   0.300   2.849
 3623SOL     OW11428   3.442   1.668   2.171
 3623SOL    HW111429   3.531   1.703   2.166
 3623SOL    HW211430   3.418   1.651   2.080
 3624SOL     OW11431   2.659   0.615   3.316
 3624SOL    HW111432   2.629   0.593   3.405
 3624SOL    HW211433   2.615   0.552   3.260
 3625SOL     OW11434   3.255   0.476   3.539
 3625SOL    HW111435   3.256   0.520   3.624
 3625SOL    HW211436   3.317   0.404   3.548
 3626SOL     OW11437   2.820   0.889   3.443
 3626SOL    HW111438   2.874   0.818   3.409
 3626SOL    HW211439   2.772   0.922   3.367
 3627SOL     OW11440   2.853   0.403   3.104
 3627SOL    HW111441   2.772   0.432   3.147
 3627SOL    HW211442   2.824   0.370   3.019
 3628SOL     OW11443   2.912   0.699   2.289
 3628SOL    HW111444   2.926   0.692   2.383
 3628SOL    HW211445   2.830   0.652   2.273
 3629SOL     OW11446   1.950   0.821   2.638
 3629SOL    HW111447   2.032   0.812   2.687
 3629SOL    HW211448   1.909   0.899   2.673
 3630SOL     OW11449   2.752   0.348   2.061
 3630SOL    HW111450   2.793   0.407   1.998
 3630SOL    HW211451   2.755   0.262   2.019
 3631SOL     OW11452   3.575   0.576   3.690
 3631SOL    HW111453   3.538   0.653   3.648
 3631SOL    HW211454   3.595   0.516   3.618
 3632SOL     OW11455   3.236   1.142   2.404
 3632SOL    HW111456   3.315   1.128   2.352
 3632SOL    HW211457   3.185   1.205   2.353
 3633SOL     OW11458   2.416   0.197   2.745
 3633SOL    HW111459   2.420   0.213   2.839
 3633SOL    HW211460   2.414   0.284   2.706
 3634SOL     OW11461   2.870   1.445   2.336
 3634SOL    HW111462   2.830   1.516   2.286
 3634SOL    HW211463   2.856   1.469   2.428
 3635SOL     OW11464   2.216   1.795   2.726
 3635SOL    HW111465   2.256   1.708   2.738
 3635SOL    HW211466   2.287   1.856   2.746
 3636SOL     OW11467   3.664   1.063   2.728
 3636SOL    HW111468   3.607   1.044   2.653
 3636SOL    HW211469   3.605   1.066   2.803
 3637SOL     OW11470   3.089   1.540   3.375
 3637SOL    HW111471   3.076   1.467   3.435
 3637SOL    HW211472   3.030   1.522   3.302
 3638SOL     OW11473   2.183   0.956   2.110
 3638SOL    HW111474   2.266   0.975   2.065
 3638SOL    HW211475   2.153   0.874   2.071
 3639SOL     OW11476   3.337   0.738   2.592
 3639SOL    HW111477   3.328   0.694   2.676
 3639SOL    HW211478   3.414   0.795   2.602
 3640SOL     OW11479   2.327   1.263   3.599
 3640SOL    HW111480   2.298   1.268   3.508
 3640SOL    HW211481   2.245   1.261   3.650
 3641SOL     OW11482   2.982   1.777   2.093
 3641SOL    HW111483   2.911   1.734   2.141
 3641SOL    HW211484   3.004   1.718   2.022
 3642SOL     OW11485   2.040   0.279   3.358
 3642SOL    HW111486   1.975   0.349   3.356
 3642SOL    HW211487   2.048   0.256   3.451
 3643SOL     OW11488   3.490   1.380   1.949
 3643SOL    HW111489   3.448   1.465   1.934
 3643SOL    HW211490   3.422   1.316   1.930
 3644SOL     OW11491   2.333   1.723   2.196
 3644SOL    HW111492   2.372   1.794   2.247
 3644SOL    HW211493   2.393   1.712   2.122
 3645SOL     OW11494   3.295   0.158   2.266
 3645SOL    HW111495   3.257   0.090   2.210
 3645SOL    HW211496   3.376   0.119   2.300
 3646SOL     OW11497   2.153   1.766   3.090
 3646SOL    HW111498   2.192   1.686   3.124
 3646SOL    HW211499   2.118   1.742   3.005
 3647SOL     OW11500   2.799   1.698   2.763
 3647SOL    HW111501   2.877   1.645   2.782
 3647SOL    HW211502   2.755   1.649   2.693
 3648SOL     OW11503   2.252   0.695   2.340
 3648SOL    HW111504   2.276   0.603   2.349
 3648SOL    HW211505   2.159   0.699   2.359
 3649SOL     OW11506   3.396   0.233   3.588
 3649SOL    HW111507   3.395   0.256   3.681
 3649SOL    HW211508   3.357   0.146   3.585
 3650SOL     OW11509   2.501   0.139   1.966
 3650SOL    HW111510   2.542   0.062   2.006
 3650SOL    HW211511   2.439   0.103   1.903
 3651SOL     OW11512   2.641   0.281   3.624
 3651SOL    HW111513   2.701   0.207   3.634
 3651SOL    HW211514   2.577   0.269   3.694
 3652SOL     OW11515   2.739   1.521   3.055
 3652SOL    HW111516   2.724   1.485   2.968
 3652SOL    HW211517   2.808   1.466   3.092
 3653SOL     OW11518   3.205   0.587   3.292
 3653SOL    HW111519   3.234   0.558   3.379
 3653SOL    HW211520   3.238   0.676   3.285
 3654SOL     OW11521   2.675   1.398   2.798
 3654SOL    HW111522   2.759   1.388   2.753
 3654SOL    HW211523   2.610   1.395   2.727
 3655SOL     OW11524   2.790   0.510   2.765
 3655SOL    HW111525   2.766   0.502   2.673
 3655SOL    HW211526   2.821   0.422   2.790
 3656SOL     OW11527   2.409   0.058   2.358
 3656SOL    HW111528   2.333   0.062   2.416
 3656SOL    HW211529   2.404   0.139   2.306
 3657SOL     OW11530   3.290   1.198   1.903
 3657SOL    HW111531   3.321   1.122   1.953
 3657SOL    HW211532   3.205   1.218   1.941
 3658SOL     OW11533   2.184   0.042   2.068
 3658SOL    HW111534   2.205   0.113   2.006
 3658SOL    HW211535   2.268   0.021   2.109
 3659SOL     OW11536   2.798   0.246   2.327
 3659SOL    HW111537   2.771   0.288   2.246
 3659SOL    HW211538   2.894   0.246   2.324
 3660SOL     OW11539   2.942   0.680   3.322
 3660SOL    HW111540   2.869   0.618   3.329
 3660SOL    HW211541   3.020   0.625   3.315
 3661SOL     OW11542   3.086   1.570   2.656
 3661SOL    HW111543   3.105   1.637   2.590
 3661SOL    HW211544   3.155   1.581   2.722
 3662SOL     OW11545   2.329   1.148   2.599
 3662SOL    HW111546   2.258   1.129   2.661
 3662SOL    HW211547   2.291   1.130   2.513
 3663SOL     OW11548   3.133   1.795   2.467
 3663SOL    HW111549   3.178   1.856   2.409
 3663SOL    HW211550   3.069   1.849   2.514
 3664SOL     OW11551   2.888   0.548   1.882
 3664SOL    HW111552   2.845   0.631   1.863
 3664SOL    HW211553   2.950   0.569   1.952
 3665SOL     OW11554   1.939   0.553   3.256
 3665SOL    HW111555   2.030   0.552   3.226
 3665SOL    HW211556   1.934   0.626   3.317
 3666SOL     OW11557   2.428   0.232   3.023
 3666SOL    HW111558   2.454   0.141   3.036
 3666SOL    HW211559   2.337   0.236   3.054
 3667SOL     OW11560   2.733   0.461   2.502
 3667SOL    HW111561   2.684   0.514   2.439
 3667SOL    HW211562   2.751   0.379   2.455
 3668SOL     OW11563   2.855   0.043   2.640
 3668SOL    HW111564   2.824   0.063   2.552
 3668SOL    HW211565   2.865   3.948   2.640
 3669SOL     OW11566   3.298   1.164   2.720
 3669SOL    HW111567   3.230   1.096   2.717
 3669SOL    HW211568   3.322   1.177   2.629
 3670SOL     OW11569   3.329   0.602   2.843
 3670SOL    HW111570   3.281   0.519   2.849
 3670SOL    HW211571   3.391   0.600   2.916
 3671SOL     OW11572   3.722   0.823   2.237
 3671SOL    HW111573   3.764   0.766   2.301
 3671SOL    HW211574   3.682   0.763   2.174
 3672SOL     OW11575   2.355   1.414   2.022
 3672SOL    HW111576   2.281   1.386   2.075
 3672SOL    HW211577   2.333   1.387   1.933
 3673SOL     OW11578   3.527   1.265   2.512
 3673SOL    HW111579   3.622   1.271   2.519
 3673SOL    HW211580   3.496   1.353   2.532
 3674SOL     OW11581   3.256   0.571   1.932
 3674SOL    HW111582   3.194   0.554   2.003
 3674SOL    HW211583   3.342   0.552   1.969
 3675SOL     OW11584   2.389   0.265   2.181
 3675SOL    HW111585   2.436   0.222   2.110
 3675SOL    HW211586   2.366   0.352   2.147
 3676SOL     OW11587   3.615   1.234   3.437
 3676SOL    HW111588   3.702   1.198   3.420
 3676SOL    HW211589   3.631   1.322   3.470
 3677SOL     OW11590   2.923   1.354   3.197
 3677SOL    HW111591   2.848   1.322   3.248
 3677SOL    HW211592   2.999   1.312   3.238
 3678SOL     OW11593   3.466   1.626   3.513
 3678SOL    HW111594   3.463   1.660   3.424
 3678SOL    HW211595   3.549   1.579   3.518
 3679SOL     OW11596   2.987   1.201   2.969
 3679SOL    HW111597   2.929   1.240   3.035
 3679SOL    HW211598   2.953   1.232   2.885
 3680SOL     OW11599   3.495   1.100   2.939
 3680SOL    HW111600   3.489   1.161   3.013
 3680SOL    HW211601   3.415   1.114   2.889
 3681SOL     OW11602   2.776   0.109   3.265
 3681SOL    HW111603   2.796   0.085   3.174
 3681SOL    HW211604   2.856   0.152   3.296
 3682SOL     OW11605   2.846   1.114   3.584
 3682SOL    HW111606   2.753   1.130   3.604
 3682SOL    HW211607   2.846   1.037   3.528
 3683SOL     OW11608   2.570   1.060   2.234
 3683SOL    HW111609   2.556   1.046   2.327
 3683SOL    HW211610   2.646   1.007   2.212
 3684SOL     OW11611   2.279   0.814   3.113
 3684SOL    HW111612   2.348   0.823   3.179
 3684SOL    HW211613   2.244   0.726   3.127
 3685SOL     OW11614   3.129   0.376   3.136
 3685SOL    HW111615   3.164   0.453   3.181
 3685SOL    HW211616   3.043   0.403   3.104
 3686SOL     OW11617   1.931   1.577   3.213
 3686SOL    HW111618   1.894   1.642   3.153
 3686SOL    HW211619   2.026   1.583   3.200
 3687SOL     OW11620   2.216   1.106   2.354
 3687SOL    HW111621   2.219   1.180   2.294
 3687SOL    HW211622   2.214   1.029   2.298
 3688SOL     OW11623   2.420   0.537   2.721
 3688SOL    HW111624   2.436   0.596   2.648
 3688SOL    HW211625   2.481   0.566   2.789
 3689SOL     OW11626   3.110   1.348   2.251
 3689SOL    HW111627   3.165   1.420   2.282
 3689SOL    HW211628   3.023   1.368   2.285
 3690SOL     OW11629   3.139   1.456   3.008
 3690SOL    HW111630   3.194   1.458   3.086
 3690SOL    HW211631   3.084   1.378   3.020
 3691SOL     OW11632   3.440   0.630   2.343
 3691SOL    HW111633   3.402   0.692   2.406
 3691SOL    HW211634   3.488   0.686   2.281
 3692SOL     OW11635   2.214   1.516   3.181
 3692SOL    HW111636   2.199   1.475   3.096
 3692SOL    HW211637   2.309   1.529   3.186
 3693SOL     OW11638   2.274   0.745   3.463
 3693SOL    HW111639   2.335   0.790   3.405
 3693SOL    HW211640   2.315   0.660   3.479
 3694SOL     OW11641   3.459   0.775   3.539
 3694SOL    HW111642   3.374   0.817   3.533
 3694SOL    HW211643   3.512   0.818   3.472
 3695SOL     OW11644   2.887   0.117   3.639
 3695SOL    HW111645   2.912   0.198   3.595
 3695SOL    HW211646   2.874   0.054   3.569
 3696SOL     OW11647   2.346   0.035   3.627
 3696SOL    HW111648   2.354   0.035   3.531
 3696SOL    HW211649   2.289   0.110   3.645
 3697SOL     OW11650   2.445   0.872   2.893
 3697SOL    HW111651   2.473   0.963   2.890
 3697SOL    HW211652   2.387   0.867   2.970
 3698SOL     OW11653   3.222   0.859   2.895
 3698SOL    HW111654   3.141   0.852   2.845
 3698SOL    HW211655   3.260   0.771   2.892
 3699SOL     OW11656   3.069   0.533   2.128
 3699SOL    HW111657   3.076   0.454   2.181
 3699SOL    HW211658   3.026   0.597   2.185
 3700SOL     OW11659   2.165   0.213   3.103
 3700SOL    HW111660   2.130   0.242   3.187
 3700SOL    HW211661   2.150   0.119   3.101
 3701SOL     OW11662   1.907   1.312   3.141
 3701SOL    HW111663   1.941   1.258   3.212
 3701SOL    HW211664   1.916   1.402   3.172
 3702SOL     OW11665   2.589   0.634   2.920
 3702SOL    HW111666   2.660   0.616   2.859
 3702SOL    HW211667   2.560   0.722   2.899
 3703SOL     OW11668   3.596   0.955   3.718
 3703SOL    HW111669   3.548   0.907   3.651
 3703SOL    HW211670   3.532   0.969   3.788
 3704SOL     OW11671   2.182   0.058   2.504
 3704SOL    HW111672   2.159   0.150   2.517
 3704SOL    HW211673   2.142   0.014   2.579
 3705SOL     OW11674   3.465   0.384   2.244
 3705SOL    HW111675   3.447   0.316   2.308
 3705SOL    HW211676   3.443   0.466   2.288
 3706SOL     OW11677   2.889   0.760   2.824
 3706SOL    HW111678   2.888   0.777   2.918
 3706SOL    HW211679   2.862   0.668   2.816
 3707SOL     OW11680   2.844   1.566   3.576
 3707SOL    HW111681   2.829   1.610   3.493
 3707SOL    HW211682   2.887   1.484   3.553
 3708SOL     OW11683   3.710   1.508   3.464
 3708SOL    HW111684   3.730   1.533   3.374
 3708SOL    HW211685   3.791   1.524   3.512
 3709SOL     OW11686   2.215   0.915   3.670
 3709SOL    HW111687   2.297   0.934   3.715
 3709SOL    HW211688   2.239   0.854   3.600
 3710SOL     OW11689   3.373   0.275   1.998
 3710SOL    HW111690   3.297   0.219   2.011
 3710SOL    HW211691   3.388   0.317   2.082
 3711SOL     OW11692   3.156   0.827   1.894
 3711SOL    HW111693   3.198   0.741   1.897
 3711SOL    HW211694   3.187   0.866   1.813
 3712SOL     OW11695   2.927   1.335   2.715
 3712SOL    HW111696   2.930   1.262   2.653
 3712SOL    HW211697   2.989   1.398   2.680
 3713SOL     OW11698   2.172   0.810   2.811
 3713SOL    HW111699   2.265   0.831   2.804
 3713SOL    HW211700   2.170   0.720   2.844
 3714SOL     OW11701   2.199   0.530   2.874
 3714SOL    HW111702   2.158   0.445   2.858
 3714SOL    HW211703   2.275   0.532   2.815
 3715SOL     OW11704   2.996   0.384   3.550
 3715SOL    HW111705   2.949   0.439   3.613
 3715SOL    HW211706   3.084   0.422   3.546
 3716SOL     OW11707   3.014   0.223   3.343
 3716SOL    HW111708   3.006   0.278   3.421
 3716SOL    HW211709   3.034   0.285   3.272
 3717SOL     OW11710   1.866   1.321   2.056
 3717SOL    HW111711   1.778   1.333   2.020
 3717SOL    HW211712   1.866   1.232   2.090
 3718SOL     OW11713   1.966   1.731   2.830
 3718SOL    HW111714   1.930   1.671   2.765
 3718SOL    HW211715   2.039   1.774   2.786
 3719SOL     OW11716   2.364   1.569   2.770
 3719SOL    HW111717   2.433   1.631   2.793
 3719SOL    HW211718   2.407   1.505   2.714
 3720SOL     OW11719   2.850   0.793   3.090
 3720SOL    HW111720   2.901   0.769   3.167
 3720SOL    HW211721   2.762   0.759   3.108
 3721SOL     OW11722   1.896   0.545   2.979
 3721SOL    HW111723   1.973   0.519   2.928
 3721SOL    HW211724   1.927   0.549   3.069
 3722SOL     OW11725   2.063   0.526   3.579
 3722SOL    HW111726   2.126   0.499   3.512
 3722SOL    HW211727   2.013   0.597   3.538
 3723SOL     OW11728   3.239   0.941   3.522
 3723SOL    HW111729   3.259   1.035   3.522
 3723SOL    HW211730   3.236   0.917   3.429
 3724SOL     OW11731   2.678   0.571   2.217
 3724SOL    HW111732   2.681   0.494   2.160
 3724SOL    HW211733   2.602   0.621   2.186
 3725SOL     OW11734   3.504   0.602   3.051
 3725SOL    HW111735   3.493   0.540   3.124
 3725SOL    HW211736   3.590   0.579   3.015
 3726SOL     OW11737   2.118   1.540   3.574
 3726SOL    HW111738   2.099   1.611   3.636
 3726SOL    HW211739   2.114   1.460   3.628
 3727SOL     OW11740   2.557   0.458   3.125
 3727SOL    HW111741   2.511   0.379   3.096
 3727SOL    HW211742   2.554   0.516   3.049
 3728SOL     OW11743   2.791   1.679   3.328
 3728SOL    HW111744   2.766   1.648   3.241
 3728SOL    HW211745   2.792   1.774   3.321
 3729SOL     OW11746   2.329   0.494   2.050
 3729SOL    HW111747   2.386   0.568   2.070
 3729SOL    HW211748   2.242   0.533   2.039
 3730SOL     OW11749   2.010   1.140   3.333
 3730SOL    HW111750   2.015   1.086   3.412
 3730SOL    HW211751   2.027   1.078   3.261
 3731SOL     OW11752   3.190   1.049   3.087
 3731SOL    HW111753   3.215   0.986   3.019
 3731SOL    HW211754   3.118   1.099   3.049
 3732SOL     OW11755   3.171   0.855   2.169
 3732SOL    HW111756   3.094   0.827   2.218
 3732SOL    HW211757   3.147   0.843   2.077
 3733SOL     OW11758   3.634   1.747   3.013
 3733SOL    HW111759   3.690   1.773   2.940
 3733SOL    HW211760   3.608   1.657   2.992
 3734SOL     OW11761   3.104   1.733   2.979
 3734SOL    HW111762   3.185   1.752   2.932
 3734SOL    HW211763   3.107   1.639   2.996
 3735SOL     OW11764   1.947   1.264   2.877
 3735SOL    HW111765   1.932   1.276   2.971
 3735SOL    HW211766   1.871   1.213   2.847
 3736SOL     OW11767   2.540   1.662   3.585
 3736SOL    HW111768   2.494   1.746   3.586
 3736SOL    HW211769   2.604   1.672   3.515
 3737SOL     OW11770   3.557   0.127   2.348
 3737SOL    HW111771   3.640   0.133   2.300
 3737SOL    HW211772   3.553   0.035   2.376
 3738SOL     OW11773   3.251   1.568   2.345
 3738SOL    HW111774   3.313   1.598   2.278
 3738SOL    HW211775   3.205   1.646   2.373
 3739SOL     OW11776   2.034   1.747   3.718
 3739SOL    HW111777   1.968   1.695   3.764
 3739SOL    HW211778   2.012   1.837   3.740
 3740SOL     OW11779   3.139   0.924   2.533
 3740SOL    HW111780   3.213   0.863   2.538
 3740SOL    HW211781   3.172   0.998   2.481
 3741SOL     OW11782   2.680   1.272   3.293
 3741SOL    HW111783   2.654   1.310   3.377
 3741SOL    HW211784   2.609   1.293   3.233
 3742SOL     OW11785   2.536   1.616   2.014
 3742SOL    HW111786   2.543   1.625   1.919
 3742SOL    HW211787   2.482   1.539   2.028
 3743SOL     OW11788   3.492   1.726   3.254
 3743SOL    HW111789   3.542   1.733   3.173
 3743SOL    HW211790   3.479   1.817   3.282
 3744SOL     OW11791   3.701   0.178   2.832
 3744SOL    HW111792   3.727   0.095   2.791
 3744SOL    HW211793   3.614   0.196   2.796
 3745SOL     OW11794   2.128   0.320   2.578
 3745SOL    HW111795   2.042   0.355   2.556
 3745SOL    HW211796   2.125   0.306   2.673
 3746SOL     OW11797   3.068   1.608   1.893
 3746SOL    HW111798   3.060   1.517   1.921
 3746SOL    HW211799   3.002   1.617   1.823
 3747SOL     OW11800   2.687   1.005   3.233
 3747SOL    HW111801   2.728   1.003   3.147
 3747SOL    HW211802   2.687   1.098   3.258
 3748SOL     OW11803   2.777   0.910   2.151
 3748SOL    HW111804   2.839   0.942   2.086
 3748SOL    HW211805   2.824   0.839   2.196
 3749SOL     OW11806   3.357   1.625   1.904
 3749SOL    HW111807   3.262   1.621   1.892
 3749SOL    HW211808   3.392   1.631   1.815
 3750SOL     OW11809   2.232   1.298   3.354
 3750SOL    HW111810   2.219   1.377   3.302
 3750SOL    HW211811   2.155   1.245   3.337
 3751SOL     OW11812   3.468   1.281   3.142
 3751SOL    HW111813   3.534   1.277   3.211
 3751SOL    HW211814   3.410   1.353   3.168
 3752SOL     OW11815   2.910   1.105   2.567
 3752SOL    HW111816   2.840   1.054   2.607
 3752SOL    HW211817   2.971   1.040   2.532
 3753SOL     OW11818   2.877   0.246   2.829
 3753SOL    HW111819   2.866   0.197   2.747
 3753SOL    HW211820   2.869   0.180   2.898
 3754SOL     OW11821   2.462   1.490   2.344
 3754SOL    HW111822   2.502   1.439   2.273
 3754SOL    HW211823   2.401   1.549   2.301
 3755SOL     OW11824   3.580   0.390   3.238
 3755SOL    HW111825   3.651   0.455   3.236
 3755SOL    HW211826   3.612   0.319   3.182
 3756SOL     OW11827   2.120   1.348   2.148
 3756SOL    HW111828   2.026   1.344   2.128
 3756SOL    HW211829   2.124   1.383   2.237
 3757SOL     OW11830   1.974   1.019   3.581
 3757SOL    HW111831   1.898   0.996   3.635
 3757SOL    HW211832   2.049   0.983   3.629
 3758SOL     OW11833   2.552   0.237   3.357
 3758SOL    HW111834   2.623   0.187   3.317
 3758SOL    HW211835   2.576   0.244   3.450
 3759SOL     OW11836   1.958   0.321   1.851
 3759SOL    HW111837   1.873   0.335   1.893
 3759SOL    HW211838   1.978   0.406   1.810
 3760SOL     OW11839   3.292   0.858   3.263
 3760SOL    HW111840   3.244   0.918   3.207
 3760SOL    HW211841   3.382   0.861   3.229
 3761SOL     OW11842   1.946   0.155   2.202
 3761SOL    HW111843   1.915   0.220   2.139
 3761SOL    HW211844   2.029   0.125   2.165
 3762SOL     OW11845   3.042   1.342   1.979
 3762SOL    HW111846   2.951   1.312   1.983
 3762SOL    HW211847   3.071   1.341   2.070
 3763SOL     OW11848   2.480   0.831   3.294
 3763SOL    HW111849   2.536   0.907   3.280
 3763SOL    HW211850   2.542   0.758   3.303
 3764SOL     OW11851   3.347   1.775   2.837
 3764SOL    HW111852   3.373   1.832   2.765
 3764SOL    HW211853   3.428   1.757   2.884
 3765SOL     OW11854   2.579   0.564   3.569
 3765SOL    HW111855   2.615   0.628   3.630
 3765SOL    HW211856   2.615   0.480   3.597
 3766SOL     OW11857   3.330   1.203   3.495
 3766SOL    HW111858   3.319   1.216   3.589
 3766SOL    HW211859   3.424   1.216   3.480
 3767SOL     OW11860   2.242   1.745   3.432
 3767SOL    HW111861   2.159   1.768   3.391
 3767SOL    HW211862   2.227   1.658   3.471
 3768SOL     OW11863   3.531   0.882   3.120
 3768SOL    HW111864   3.526   0.797   3.077
 3768SOL    HW211865   3.526   0.946   3.049
 3769SOL     OW11866   3.086   0.332   2.310
 3769SOL    HW111867   3.153   0.264   2.300
 3769SOL    HW211868   3.110   0.378   2.390
 3770SOL     OW11869   2.454   0.740   2.529
 3770SOL    HW111870   2.492   0.826   2.512
 3770SOL    HW211871   2.383   0.733   2.465
 3771SOL     OW11872   3.620   0.377   3.504
 3771SOL    HW111873   3.601   0.383   3.411
 3771SOL    HW211874   3.560   0.310   3.537
 3772SOL     OW11875   3.610   0.932   3.377
 3772SOL    HW111876   3.610   1.027   3.390
 3772SOL    HW211877   3.591   0.921   3.283
 3773SOL     OW11878   2.723   1.368   1.892
 3773SOL    HW111879   2.685   1.394   1.976
 3773SOL    HW211880   2.744   1.451   1.849
 3774SOL     OW11881   2.521   1.796   2.811
 3774SOL    HW111882   2.502   1.886   2.782
 3774SOL    HW211883   2.616   1.787   2.801
 3775SOL     OW11884   2.728   0.965   2.718
 3775SOL    HW111885   2.779   0.895   2.759
 3775SOL    HW211886   2.695   1.017   2.792
 3776SOL     OW11887   2.942   0.988   1.951
 3776SOL    HW111888   2.920   1.038   1.872
 3776SOL    HW211889   3.017   0.935   1.925
 3777SOL     OW11890   3.720   1.557   2.704
 3777SOL    HW111891   3.641   1.543   2.652
 3777SOL    HW211892   3.715   1.491   2.773
 3778SOL     OW11893   2.086   1.304   3.719
 3778SOL    HW111894   2.018   1.241   3.692
 3778SOL    HW211895   2.073   1.315   3.813
 3779SOL     OW11896   1.943   1.231   2.524
 3779SOL    HW111897   1.949   1.184   2.607
 3779SOL    HW211898   2.016   1.197   2.472
 3780SOL     OW11899   2.541   1.400   3.486
 3780SOL    HW111900   2.462   1.356   3.518
 3780SOL    HW211901   2.536   1.488   3.525
 3781SOL     OW11902   3.678   0.183   3.105
 3781SOL    HW111903   3.680   0.088   3.113
 3781SOL    HW211904   3.693   0.199   3.011
 3782SOL     OW11905   2.291   0.434   2.386
 3782SOL    HW111906   2.321   0.361   2.331
 3782SOL    HW211907   2.245   0.392   2.459
 3783SOL     OW11908   3.562   1.492   2.963
 3783SOL    HW111909   3.482   1.465   2.919
 3783SOL    HW211910   3.579   1.423   3.027
 3784SOL     OW11911   2.188   0.553   3.153
 3784SOL    HW111912   2.243   0.496   3.208
 3784SOL    HW211913   2.210   0.526   3.064
 3785SOL     OW11914   2.687   1.578   2.542
 3785SOL    HW111915   2.682   1.625   2.459
 3785SOL    HW211916   2.609   1.523   2.544
 3786SOL     OW11917   3.322   0.249   2.974
 3786SOL    HW111918   3.337   0.162   3.010
 3786SOL    HW211919   3.263   0.291   3.037
 3787SOL     OW11920   2.869   0.030   3.010
 3787SOL    HW111921   2.795   3.976   2.982
 3787SOL    HW211922   2.943   3.969   3.017
 3788SOL     OW11923   2.634   1.332   2.171
 3788SOL    HW111924   2.600   1.243   2.179
 3788SOL    HW211925   2.716   1.330   2.222
 3789SOL     OW11926   2.482   1.558   3.146
 3789SOL    HW111927   2.485   1.640   3.196
 3789SOL    HW211928   2.569   1.550   3.108
 3790SOL     OW11929   3.180   0.072   2.024
 3790SOL    HW111930   3.200   0.007   1.957
 3790SOL    HW211931   3.096   0.045   2.060
 3791SOL     OW11932   3.149   0.458   2.550
 3791SOL    HW111933   3.100   0.540   2.549
 3791SOL    HW211934   3.154   0.435   2.643
 3792SOL     OW11935   3.451   0.211   2.729
 3792SOL    HW111936   3.399   0.231   2.807
 3792SOL    HW211937   3.451   0.292   2.678
 3793SOL     OW11938   1.906   1.073   2.166
 3793SOL    HW111939   2.000   1.064   2.150
 3793SOL    HW211940   1.877   0.985   2.190
 3794SOL     OW11941   2.744   1.648   2.205
 3794SOL    HW111942   2.671   1.632   2.145
 3794SOL    HW211943   2.716   1.725   2.256
 3795SOL     OW11944   2.093   0.622   3.845
 3795SOL    HW111945   2.003   0.625   3.876
 3795SOL    HW211946   2.086   0.600   3.752
 3796SOL     OW11947   2.079   0.295   4.714
 3796SOL    HW111948   2.117   0.256   4.793
 3796SOL    HW211949   1.997   0.249   4.701
 3797SOL     OW11950   1.872   0.393   4.362
 3797SOL    HW111951   1.784   0.408   4.398
 3797SOL    HW211952   1.861   0.319   4.301
 3798SOL     OW11953   2.429   1.282   4.896
 3798SOL    HW111954   2.341   1.285   4.857
 3798SOL    HW211955   2.443   1.371   4.929
 3799SOL     OW11956   3.419   1.511   4.429
 3799SOL    HW111957   3.375   1.494   4.513
 3799SOL    HW211958   3.348   1.517   4.365
 3800SOL     OW11959   2.993   0.699   4.428
 3800SOL    HW111960   3.042   0.779   4.413
 3800SOL    HW211961   2.945   0.714   4.510
 3801SOL     OW11962   3.619   0.620   3.954
 3801SOL    HW111963   3.604   0.608   3.860
 3801SOL    HW211964   3.607   0.532   3.992
 3802SOL     OW11965   2.622   1.144   4.762
 3802SOL    HW111966   2.551   1.177   4.818
 3802SOL    HW211967   2.655   1.222   4.717
 3803SOL     OW11968   2.725   0.780   5.546
 3803SOL    HW111969   2.712   0.852   5.608
 3803SOL    HW211970   2.748   0.823   5.464
 3804SOL     OW11971   2.549   1.007   4.373
 3804SOL    HW111972   2.612   0.992   4.443
 3804SOL    HW211973   2.478   1.056   4.414
 3805SOL     OW11974   2.570   1.152   5.532
 3805SOL    HW111975   2.617   1.231   5.558
 3805SOL    HW211976   2.486   1.184   5.500
 3806SOL     OW11977   2.193   1.428   4.793
 3806SOL    HW111978   2.120   1.393   4.742
 3806SOL    HW211979   2.244   1.478   4.730
 3807SOL     OW11980   3.323   1.499   5.074
 3807SOL    HW111981   3.368   1.583   5.085
 3807SOL    HW211982   3.269   1.490   5.153
 3808SOL     OW11983   2.303   0.398   5.220
 3808SOL    HW111984   2.389   0.356   5.218
 3808SOL    HW211985   2.241   0.325   5.227
 3809SOL     OW11986   3.474   0.450   4.461
 3809SOL    HW111987   3.401   0.483   4.408
 3809SOL    HW211988   3.502   0.526   4.513
 3810SOL     OW11989   2.092   1.703   4.192
 3810SOL    HW111990   2.125   1.772   4.250
 3810SOL    HW211991   2.160   1.694   4.126
 3811SOL     OW11992   2.998   1.341   5.415
 3811SOL    HW111993   3.037   1.338   5.502
 3811SOL    HW211994   2.944   1.262   5.410
 3812SOL     OW11995   2.089   1.436   4.259
 3812SOL    HW111996   2.076   1.531   4.260
 3812SOL    HW211997   2.026   1.403   4.322
 3813SOL     OW11998   2.116   1.090   4.614
 3813SOL    HW111999   2.113   1.004   4.656
 3813SOL    HW212000   2.059   1.145   4.667
 3814SOL     OW12001   2.476   1.791   5.155
 3814SOL    HW112002   2.394   1.774   5.201
 3814SOL    HW212003   2.500   1.880   5.181
 3815SOL     OW12004   2.451   0.980   3.856
 3815SOL    HW112005   2.494   1.032   3.788
 3815SOL    HW212006   2.492   1.009   3.937
 3816SOL     OW12007   3.441   0.134   5.183
 3816SOL    HW112008   3.459   0.209   5.126
 3816SOL    HW212009   3.420   0.172   5.268
 3817SOL     OW12010   1.976   0.652   4.283
 3817SOL    HW112011   1.949   0.563   4.306
 3817SOL    HW212012   1.969   0.701   4.365
 3818SOL     OW12013   3.700   1.759   4.062
 3818SOL    HW112014   3.763   1.733   4.128
 3818SOL    HW212015   3.724   1.849   4.039
 3819SOL     OW12016   1.866   1.598   3.863
 3819SOL    HW112017   1.864   1.503   3.861
 3819SOL    HW212018   1.869   1.620   3.956
 3820SOL     OW12019   3.549   0.917   4.361
 3820SOL    HW112020   3.635   0.878   4.348
 3820SOL    HW212021   3.533   0.969   4.282
 3821SOL     OW12022   3.504   1.108   4.155
 3821SOL    HW112023   3.588   1.116   4.110
 3821SOL    HW212024   3.510   1.169   4.229
 3822SOL     OW12025   1.983   0.746   5.307
 3822SOL    HW112026   2.075   0.768   5.322
 3822SOL    HW212027   1.937   0.829   5.316
 3823SOL     OW12028   2.475   1.382   4.458
 3823SOL    HW112029   2.428   1.299   4.467
 3823SOL    HW212030   2.457   1.410   4.368
 3824SOL     OW12031   3.152   1.239   5.148
 3824SOL    HW112032   3.185   1.172   5.088
 3824SOL    HW212033   3.208   1.231   5.226
 3825SOL     OW12034   2.677   0.001   4.237
 3825SOL    HW112035   2.722   0.083   4.217
 3825SOL    HW212036   2.585   0.024   4.240
 3826SOL     OW12037   2.054   0.968   4.993
 3826SOL    HW112038   2.138   0.925   4.977
 3826SOL    HW212039   1.989   0.911   4.951
 3827SOL     OW12040   3.392   0.992   3.921
 3827SOL    HW112041   3.323   0.934   3.952
 3827SOL    HW212042   3.432   1.026   4.000
 3828SOL     OW12043   3.047   1.804   5.344
 3828SOL    HW112044   3.063   1.861   5.268
 3828SOL    HW212045   3.062   1.715   5.311
 3829SOL     OW12046   2.209   0.255   5.536
 3829SOL    HW112047   2.255   0.339   5.541
 3829SOL    HW212048   2.117   0.276   5.554
 3830SOL     OW12049   3.327   1.420   4.677
 3830SOL    HW112050   3.259   1.434   4.743
 3830SOL    HW212051   3.316   1.329   4.650
 3831SOL     OW12052   3.521   1.734   4.302
 3831SOL    HW112053   3.501   1.705   4.213
 3831SOL    HW212054   3.497   1.660   4.358
 3832SOL     OW12055   2.457   0.723   3.988
 3832SOL    HW112056   2.465   0.803   3.936
 3832SOL    HW212057   2.393   0.744   4.055
 3833SOL     OW12058   3.139   0.361   4.664
 3833SOL    HW112059   3.052   0.321   4.668
 3833SOL    HW212060   3.196   0.300   4.711
 3834SOL     OW12061   3.442   1.668   4.033
 3834SOL    HW112062   3.531   1.703   4.028
 3834SOL    HW212063   3.418   1.651   3.942
 3835SOL     OW12064   2.659   0.615   5.178
 3835SOL    HW112065   2.629   0.593   5.267
 3835SOL    HW212066   2.615   0.552   5.122
 3836SOL     OW12067   3.255   0.476   5.401
 3836SOL    HW112068   3.256   0.520   5.486
 3836SOL    HW212069   3.317   0.404   5.410
 3837SOL     OW12070   2.820   0.889   5.305
 3837SOL    HW112071   2.874   0.818   5.271
 3837SOL    HW212072   2.772   0.922   5.229
 3838SOL     OW12073   2.853   0.403   4.966
 3838SOL    HW112074   2.773   0.432   5.009
 3838SOL    HW212075   2.824   0.370   4.881
 3839SOL     OW12076   2.912   0.698   4.151
 3839SOL    HW112077   2.926   0.692   4.245
 3839SOL    HW212078   2.830   0.652   4.135
 3840SOL     OW12079   1.950   0.821   4.500
 3840SOL    HW112080   2.032   0.812   4.549
 3840SOL    HW212081   1.909   0.899   4.535
 3841SOL     OW12082   2.752   0.348   3.923
 3841SOL    HW112083   2.793   0.407   3.860
 3841SOL    HW212084   2.755   0.262   3.881
 3842SOL     OW12085   3.575   0.576   5.552
 3842SOL    HW112086   3.538   0.653   5.510
 3842SOL    HW212087   3.595   0.516   5.480
 3843SOL     OW12088   3.236   1.142   4.266
 3843SOL    HW112089   3.315   1.128   4.214
 3843SOL    HW212090   3.185   1.205   4.215
 3844SOL     OW12091   2.416   0.197   4.607
 3844SOL    HW112092   2.420   0.213   4.701
 3844SOL    HW212093   2.414   0.284   4.568
 3845SOL     OW12094   2.871   1.445   4.198
 3845SOL    HW112095   2.830   1.516   4.148
 3845SOL    HW212096   2.856   1.469   4.290
 3846SOL     OW12097   2.217   1.798   4.588
 3846SOL    HW112098   2.256   1.711   4.599
 3846SOL    HW212099   2.288   1.859   4.609
 3847SOL     OW12100   3.664   1.063   4.590
 3847SOL    HW112101   3.607   1.044   4.515
 3847SOL    HW212102   3.605   1.066   4.665
 3848SOL     OW12103   3.089   1.540   5.237
 3848SOL    HW112104   3.076   1.467   5.297
 3848SOL    HW212105   3.029   1.523   5.164
 3849SOL     OW12106   2.183   0.956   3.972
 3849SOL    HW112107   2.266   0.975   3.927
 3849SOL    HW212108   2.153   0.874   3.933
 3850SOL     OW12109   3.337   0.738   4.454
 3850SOL    HW112110   3.328   0.694   4.538
 3850SOL    HW212111   3.414   0.795   4.464
 3851SOL     OW12112   2.326   1.263   5.462
 3851SOL    HW112113   2.298   1.268   5.370
 3851SOL    HW212114   2.245   1.261   5.512
 3852SOL     OW12115   2.982   1.777   3.955
 3852SOL    HW112116   2.911   1.734   4.003
 3852SOL    HW212117   3.004   1.718   3.884
 3853SOL     OW12118   2.040   0.278   5.220
 3853SOL    HW112119   1.975   0.349   5.218
 3853SOL    HW212120   2.048   0.256   5.313
 3854SOL     OW12121   3.490   1.380   3.811
 3854SOL    HW112122   3.448   1.465   3.796
 3854SOL    HW212123   3.421   1.316   3.792
 3855SOL     OW12124   2.334   1.723   4.058
 3855SOL    HW112125   2.372   1.794   4.109
 3855SOL    HW212126   2.393   1.712   3.984
 3856SOL     OW12127   3.295   0.158   4.127
 3856SOL    HW112128   3.257   0.090   4.072
 3856SOL    HW212129   3.376   0.119   4.162
 3857SOL     OW12130   2.154   1.768   4.952
 3857SOL    HW112131   2.193   1.688   4.987
 3857SOL    HW212132   2.118   1.742   4.867
 3858SOL     OW12133   2.799   1.698   4.625
 3858SOL    HW112134   2.877   1.645   4.644
 3858SOL    HW212135   2.755   1.649   4.555
 3859SOL     OW12136   2.252   0.695   4.202
 3859SOL    HW112137   2.276   0.603   4.211
 3859SOL    HW212138   2.159   0.699   4.221
 3860SOL     OW12139   3.396   0.233   5.450
 3860SOL    HW112140   3.395   0.256   5.543
 3860SOL    HW212141   3.357   0.146   5.447
 3861SOL     OW12142   2.501   0.139   3.828
 3861SOL    HW112143   2.542   0.062   3.868
 3861SOL    HW212144   2.439   0.103   3.765
 3862SOL     OW12145   2.641   0.281   5.486
 3862SOL    HW112146   2.701   0.207   5.496
 3862SOL    HW212147   2.577   0.269   5.556
 3863SOL     OW12148   2.739   1.521   4.917
 3863SOL    HW112149   2.724   1.485   4.830
 3863SOL    HW212150   2.808   1.466   4.954
 3864SOL     OW12151   3.205   0.587   5.154
 3864SOL    HW112152   3.234   0.558   5.241
 3864SOL    HW212153   3.238   0.676   5.147
 3865SOL     OW12154   2.675   1.398   4.660
 3865SOL    HW112155   2.759   1.388   4.615
 3865SOL    HW212156   2.610   1.395   4.590
 3866SOL     OW12157   2.790   0.510   4.627
 3866SOL    HW112158   2.766   0.502   4.535
 3866SOL    HW212159   2.821   0.422   4.652
 3867SOL     OW12160   2.409   0.058   4.220
 3867SOL    HW112161   2.333   0.062   4.278
 3867SOL    HW212162   2.404   0.139   4.168
 3868SOL     OW12163   3.290   1.198   3.765
 3868SOL    HW112164   3.321   1.122   3.815
 3868SOL    HW212165   3.205   1.218   3.803
 3869SOL     OW12166   2.185   0.042   3.930
 3869SOL    HW112167   2.205   0.113   3.869
 3869SOL    HW212168   2.268   0.021   3.971
 3870SOL     OW12169   2.798   0.246   4.189
 3870SOL    HW112170   2.771   0.288   4.108
 3870SOL    HW212171   2.894   0.246   4.186
 3871SOL     OW12172   2.942   0.680   5.184
 3871SOL    HW112173   2.869   0.618   5.191
 3871SOL    HW212174   3.020   0.625   5.177
 3872SOL     OW12175   3.086   1.570   4.518
 3872SOL    HW112176   3.105   1.637   4.452
 3872SOL    HW212177   3.155   1.581   4.584
 3873SOL     OW12178   2.329   1.148   4.461
 3873SOL    HW112179   2.258   1.129   4.523
 3873SOL    HW212180   2.291   1.130   4.375
 3874SOL     OW12181   3.133   1.795   4.329
 3874SOL    HW112182   3.178   1.856   4.271
 3874SOL    HW212183   3.069   1.849   4.375
 3875SOL     OW12184   2.888   0.548   3.744
 3875SOL    HW112185   2.845   0.631   3.725
 3875SOL    HW212186   2.950   0.569   3.814
 3876SOL     OW12187   1.939   0.553   5.118
 3876SOL    HW112188   2.030   0.552   5.088
 3876SOL    HW212189   1.934   0.626   5.179
 3877SOL     OW12190   2.428   0.232   4.885
 3877SOL    HW112191   2.454   0.141   4.898
 3877SOL    HW212192   2.337   0.236   4.916
 3878SOL     OW12193   2.733   0.461   4.364
 3878SOL    HW112194   2.684   0.514   4.301
 3878SOL    HW212195   2.751   0.379   4.317
 3879SOL     OW12196   2.855   0.043   4.502
 3879SOL    HW112197   2.824   0.063   4.414
 3879SOL    HW212198   2.865   3.948   4.502
 3880SOL     OW12199   3.298   1.164   4.582
 3880SOL    HW112200   3.230   1.096   4.579
 3880SOL    HW212201   3.322   1.177   4.490
 3881SOL     OW12202   3.329   0.602   4.705
 3881SOL    HW112203   3.281   0.519   4.711
 3881SOL    HW212204   3.391   0.600   4.778
 3882SOL     OW12205   3.722   0.823   4.099
 3882SOL    HW112206   3.764   0.766   4.163
 3882SOL    HW212207   3.682   0.763   4.036
 3883SOL     OW12208   2.355   1.414   3.884
 3883SOL    HW112209   2.281   1.386   3.937
 3883SOL    HW212210   2.333   1.387   3.795
 3884SOL     OW12211   3.527   1.265   4.374
 3884SOL    HW112212   3.622   1.271   4.381
 3884SOL    HW212213   3.496   1.353   4.394
 3885SOL     OW12214   3.256   0.571   3.794
 3885SOL    HW112215   3.194   0.554   3.865
 3885SOL    HW212216   3.342   0.552   3.831
 3886SOL     OW12217   2.389   0.265   4.043
 3886SOL    HW112218   2.436   0.222   3.972
 3886SOL    HW212219   2.366   0.352   4.009
 3887SOL     OW12220   3.615   1.234   5.299
 3887SOL    HW112221   3.702   1.198   5.282
 3887SOL    HW212222   3.631   1.322   5.332
 3888SOL     OW12223   2.923   1.353   5.059
 3888SOL    HW112224   2.848   1.322   5.110
 3888SOL    HW212225   2.999   1.312   5.100
 3889SOL     OW12226   3.466   1.626   5.375
 3889SOL    HW112227   3.463   1.660   5.286
 3889SOL    HW212228   3.549   1.579   5.380
 3890SOL     OW12229   2.987   1.201   4.831
 3890SOL    HW112230   2.929   1.240   4.897
 3890SOL    HW212231   2.953   1.232   4.747
 3891SOL     OW12232   3.495   1.100   4.801
 3891SOL    HW112233   3.489   1.161   4.875
 3891SOL    HW212234   3.415   1.114   4.751
 3892SOL     OW12235   2.776   0.109   5.127
 3892SOL    HW112236   2.796   0.085   5.036
 3892SOL    HW212237   2.856   0.152   5.158
 3893SOL     OW12238   2.846   1.114   5.446
 3893SOL    HW112239   2.754   1.130   5.466
 3893SOL    HW212240   2.846   1.037   5.390
 3894SOL     OW12241   2.570   1.060   4.096
 3894SOL    HW112242   2.556   1.046   4.189
 3894SOL    HW212243   2.646   1.007   4.074
 3895SOL     OW12244   2.279   0.814   4.975
 3895SOL    HW112245   2.348   0.823   5.041
 3895SOL    HW212246   2.244   0.726   4.989
 3896SOL     OW12247   3.129   0.376   4.998
 3896SOL    HW112248   3.164   0.453   5.043
 3896SOL    HW212249   3.043   0.403   4.966
 3897SOL     OW12250   1.932   1.576   5.075
 3897SOL    HW112251   1.895   1.641   5.015
 3897SOL    HW212252   2.026   1.582   5.061
 3898SOL     OW12253   2.216   1.106   4.216
 3898SOL    HW112254   2.219   1.180   4.156
 3898SOL    HW212255   2.214   1.029   4.160
 3899SOL     OW12256   2.420   0.537   4.583
 3899SOL    HW112257   2.436   0.596   4.510
 3899SOL    HW212258   2.481   0.566   4.651
 3900SOL     OW12259   3.110   1.348   4.113
 3900SOL    HW112260   3.165   1.420   4.144
 3900SOL    HW212261   3.023   1.368   4.147
 3901SOL     OW12262   3.139   1.456   4.870
 3901SOL    HW112263   3.194   1.458   4.948
 3901SOL    HW212264   3.084   1.378   4.882
 3902SOL     OW12265   3.440   0.631   4.205
 3902SOL    HW112266   3.402   0.692   4.268
 3902SOL    HW212267   3.488   0.686   4.143
 3903SOL     OW12268   2.214   1.517   5.043
 3903SOL    HW112269   2.199   1.476   4.958
 3903SOL    HW212270   2.309   1.529   5.048
 3904SOL     OW12271   2.275   0.745   5.325
 3904SOL    HW112272   2.335   0.790   5.267
 3904SOL    HW212273   2.316   0.659   5.341
 3905SOL     OW12274   3.459   0.775   5.401
 3905SOL    HW112275   3.374   0.817   5.395
 3905SOL    HW212276   3.512   0.818   5.334
 3906SOL     OW12277   2.887   0.117   5.501
 3906SOL    HW112278   2.912   0.198   5.457
 3906SOL    HW212279   2.874   0.054   5.431
 3907SOL     OW12280   2.346   0.035   5.489
 3907SOL    HW112281   2.354   0.035   5.393
 3907SOL    HW212282   2.289   0.110   5.507
 3908SOL     OW12283   2.445   0.872   4.755
 3908SOL    HW112284   2.473   0.963   4.752
 3908SOL    HW212285   2.387   0.867   4.832
 3909SOL     OW12286   3.222   0.859   4.757
 3909SOL    HW112287   3.141   0.852   4.707
 3909SOL    HW212288   3.260   0.771   4.754
 3910SOL     OW12289   3.069   0.533   3.990
 3910SOL    HW112290   3.076   0.454   4.043
 3910SOL    HW212291   3.026   0.597   4.047
 3911SOL     OW12292   2.165   0.213   4.965
 3911SOL    HW112293   2.130   0.242   5.049
 3911SOL    HW212294   2.150   0.119   4.963
 3912SOL     OW12295   1.907   1.312   5.003
 3912SOL    HW112296   1.941   1.258   5.074
 3912SOL    HW212297   1.916   1.402   5.034
 3913SOL     OW12298   2.589   0.634   4.782
 3913SOL    HW112299   2.660   0.616   4.721
 3913SOL    HW212300   2.560   0.722   4.761
 3914SOL     OW12301   3.596   0.955   5.580
 3914SOL    HW112302   3.548   0.908   5.513
 3914SOL    HW212303   3.532   0.969   5.650
 3915SOL     OW12304   2.182   0.058   4.366
 3915SOL    HW112305   2.159   0.150   4.379
 3915SOL    HW212306   2.142   0.014   4.441
 3916SOL     OW12307   3.465   0.384   4.106
 3916SOL    HW112308   3.447   0.316   4.170
 3916SOL    HW212309   3.443   0.466   4.150
 3917SOL     OW12310   2.889   0.760   4.686
 3917SOL    HW112311   2.888   0.777   4.780
 3917SOL    HW212312   2.862   0.668   4.678
 3918SOL     OW12313   2.846   1.568   5.438
 3918SOL    HW112314   2.830   1.611   5.354
 3918SOL    HW212315   2.886   1.484   5.415
 3919SOL     OW12316   3.710   1.508   5.326
 3919SOL    HW112317   3.730   1.533   5.236
 3919SOL    HW212318   3.791   1.524   5.374
 3920SOL     OW12319   2.215   0.915   5.531
 3920SOL    HW112320   2.297   0.934   5.576
 3920SOL    HW212321   2.239   0.854   5.462
 3921SOL     OW12322   3.373   0.275   3.859
 3921SOL    HW112323   3.297   0.219   3.873
 3921SOL    HW212324   3.388   0.317   3.944
 3922SOL     OW12325   3.156   0.827   3.756
 3922SOL    HW112326   3.198   0.741   3.759
 3922SOL    HW212327   3.187   0.866   3.675
 3923SOL     OW12328   2.927   1.335   4.577
 3923SOL    HW112329   2.930   1.262   4.515
 3923SOL    HW212330   2.990   1.398   4.542
 3924SOL     OW12331   2.172   0.810   4.673
 3924SOL    HW112332   2.265   0.831   4.666
 3924SOL    HW212333   2.170   0.720   4.706
 3925SOL     OW12334   2.199   0.530   4.736
 3925SOL    HW112335   2.158   0.445   4.720
 3925SOL    HW212336   2.275   0.532   4.677
 3926SOL     OW12337   2.996   0.384   5.412
 3926SOL    HW112338   2.949   0.439   5.475
 3926SOL    HW212339   3.084   0.422   5.408
 3927SOL     OW12340   3.014   0.223   5.205
 3927SOL    HW112341   3.006   0.278   5.283
 3927SOL    HW212342   3.034   0.285   5.134
 3928SOL     OW12343   1.866   1.321   3.918
 3928SOL    HW112344   1.778   1.334   3.882
 3928SOL    HW212345   1.866   1.232   3.952
 3929SOL     OW12346   1.969   1.730   4.698
 3929SOL    HW112347   1.931   1.672   4.632
 3929SOL    HW212348   2.037   1.779   4.652
 3930SOL     OW12349   2.364   1.570   4.632
 3930SOL    HW112350   2.433   1.632   4.655
 3930SOL    HW212351   2.407   1.505   4.576
 3931SOL     OW12352   2.850   0.793   4.951
 3931SOL    HW112353   2.901   0.769   5.029
 3931SOL    HW212354   2.762   0.759   4.970
 3932SOL     OW12355   1.896   0.544   4.841
 3932SOL    HW112356   1.973   0.519   4.790
 3932SOL    HW212357   1.927   0.549   4.931
 3933SOL     OW12358   2.062   0.526   5.441
 3933SOL    HW112359   2.126   0.500   5.374
 3933SOL    HW212360   2.013   0.597   5.400
 3934SOL     OW12361   3.239   0.941   5.384
 3934SOL    HW112362   3.259   1.035   5.384
 3934SOL    HW212363   3.236   0.917   5.291
 3935SOL     OW12364   2.678   0.571   4.079
 3935SOL    HW112365   2.681   0.494   4.022
 3935SOL    HW212366   2.602   0.621   4.048
 3936SOL     OW12367   3.504   0.602   4.913
 3936SOL    HW112368   3.493   0.540   4.986
 3936SOL    HW212369   3.590   0.579   4.877
 3937SOL     OW12370   2.117   1.538   5.436
 3937SOL    HW112371   2.100   1.610   5.497
 3937SOL    HW212372   2.114   1.459   5.490
 3938SOL     OW12373   2.557   0.458   4.987
 3938SOL    HW112374   2.511   0.379   4.958
 3938SOL    HW212375   2.554   0.516   4.911
 3939SOL     OW12376   2.791   1.679   5.190
 3939SOL    HW112377   2.766   1.648   5.103
 3939SOL    HW212378   2.791   1.774   5.183
 3940SOL     OW12379   2.329   0.494   3.912
 3940SOL    HW112380   2.386   0.568   3.932
 3940SOL    HW212381   2.242   0.533   3.901
 3941SOL     OW12382   2.010   1.140   5.195
 3941SOL    HW112383   2.015   1.086   5.274
 3941SOL    HW212384   2.027   1.078   5.123
 3942SOL     OW12385   3.190   1.048   4.949
 3942SOL    HW112386   3.215   0.986   4.881
 3942SOL    HW212387   3.118   1.099   4.911
 3943SOL     OW12388   3.171   0.855   4.031
 3943SOL    HW112389   3.094   0.827   4.080
 3943SOL    HW212390   3.147   0.843   3.939
 3944SOL     OW12391   3.634   1.747   4.875
 3944SOL    HW112392   3.690   1.773   4.802
 3944SOL    HW212393   3.608   1.657   4.854
 3945SOL     OW12394   3.104   1.733   4.841
 3945SOL    HW112395   3.185   1.751   4.794
 3945SOL    HW212396   3.107   1.639   4.858
 3946SOL     OW12397   1.947   1.264   4.739
 3946SOL    HW112398   1.932   1.277   4.833
 3946SOL    HW212399   1.871   1.213   4.710
 3947SOL     OW12400   2.539   1.662   5.445
 3947SOL    HW112401   2.493   1.746   5.449
 3947SOL    HW212402   2.604   1.673   5.376
 3948SOL     OW12403   3.557   0.126   4.210
 3948SOL    HW112404   3.640   0.133   4.162
 3948SOL    HW212405   3.553   0.035   4.238
 3949SOL     OW12406   3.251   1.568   4.207
 3949SOL    HW112407   3.313   1.598   4.140
 3949SOL    HW212408   3.205   1.646   4.235
 3950SOL     OW12409   2.040   1.745   5.581
 3950SOL    HW112410   1.974   1.696   5.630
 3950SOL    HW212411   2.015   1.837   5.593
 3951SOL     OW12412   3.139   0.924   4.395
 3951SOL    HW112413   3.213   0.863   4.400
 3951SOL    HW212414   3.172   0.998   4.343
 3952SOL     OW12415   2.680   1.272   5.155
 3952SOL    HW112416   2.654   1.310   5.239
 3952SOL    HW212417   2.609   1.293   5.095
 3953SOL     OW12418   2.536   1.616   3.876
 3953SOL    HW112419   2.543   1.625   3.781
 3953SOL    HW212420   2.482   1.539   3.890
 3954SOL     OW12421   3.492   1.726   5.116
 3954SOL    HW112422   3.542   1.733   5.035
 3954SOL    HW212423   3.479   1.817   5.144
 3955SOL     OW12424   3.701   0.178   4.694
 3955SOL    HW112425   3.727   0.095   4.653
 3955SOL    HW212426   3.614   0.196   4.658
 3956SOL     OW12427   2.128   0.319   4.440
 3956SOL    HW112428   2.042   0.355   4.418
 3956SOL    HW212429   2.125   0.306   4.535
 3957SOL     OW12430   3.068   1.608   3.755
 3957SOL    HW112431   3.060   1.517   3.783
 3957SOL    HW212432   3.002   1.617   3.685
 3958SOL     OW12433   2.687   1.005   5.095
 3958SOL    HW112434   2.728   1.004   5.009
 3958SOL    HW212435   2.687   1.098   5.120
 3959SOL     OW12436   2.777   0.910   4.013
 3959SOL    HW112437   2.839   0.942   3.948
 3959SOL    HW212438   2.824   0.839   4.058
 3960SOL     OW12439   3.357   1.625   3.766
 3960SOL    HW112440   3.262   1.621   3.754
 3960SOL    HW212441   3.392   1.631   3.677
 3961SOL     OW12442   2.232   1.298   5.216
 3961SOL    HW112443   2.219   1.377   5.164
 3961SOL    HW212444   2.155   1.245   5.199
 3962SOL     OW12445   3.468   1.281   5.004
 3962SOL    HW112446   3.534   1.277   5.073
 3962SOL    HW212447   3.410   1.353   5.030
 3963SOL     OW12448   2.910   1.105   4.429
 3963SOL    HW112449   2.840   1.054   4.469
 3963SOL    HW212450   2.971   1.040   4.394
 3964SOL     OW12451   2.877   0.246   4.691
 3964SOL    HW112452   2.866   0.197   4.609
 3964SOL    HW212453   2.869   0.180   4.760
 3965SOL     OW12454   2.462   1.490   4.206
 3965SOL    HW112455   2.501   1.439   4.135
 3965SOL    HW212456   2.401   1.549   4.163
 3966SOL     OW12457   3.581   0.390   5.100
 3966SOL    HW112458   3.651   0.455   5.098
 3966SOL    HW212459   3.612   0.319   5.044
 3967SOL     OW12460   2.120   1.347   4.010
 3967SOL    HW112461   2.026   1.344   3.990
 3967SOL    HW212462   2.124   1.383   4.099
 3968SOL     OW12463   1.974   1.019   5.444
 3968SOL    HW112464   1.898   0.996   5.497
 3968SOL    HW212465   2.049   0.983   5.491
 3969SOL     OW12466   2.552   0.237   5.219
 3969SOL    HW112467   2.623   0.187   5.179
 3969SOL    HW212468   2.576   0.244   5.312
 3970SOL     OW12469   1.958   0.321   3.713
 3970SOL    HW112470   1.873   0.335   3.755
 3970SOL    HW212471   1.978   0.406   3.672
 3971SOL     OW12472   3.292   0.857   5.125
 3971SOL    HW112473   3.244   0.918   5.069
 3971SOL    HW212474   3.382   0.861   5.091
 3972SOL     OW12475   1.946   0.155   4.064
 3972SOL    HW112476   1.915   0.220   4.001
 3972SOL    HW212477   2.029   0.125   4.027
 3973SOL     OW12478   3.042   1.342   3.841
 3973SOL    HW112479   2.951   1.312   3.845
 3973SOL    HW212480   3.071   1.341   3.932
 3974SOL     OW12481   2.480   0.831   5.156
 3974SOL    HW112482   2.536   0.907   5.142
 3974SOL    HW212483   2.542   0.758   5.165
 3975SOL     OW12484   3.347   1.775   4.699
 3975SOL    HW112485   3.373   1.832   4.627
 3975SOL    HW212486   3.428   1.757   4.746
 3976SOL     OW12487   2.579   0.564   5.431
 3976SOL    HW112488   2.615   0.628   5.492
 3976SOL    HW212489   2.615   0.480   5.459
 3977SOL     OW12490   3.330   1.203   5.357
 3977SOL    HW112491   3.319   1.216   5.451
 3977SOL    HW212492   3.424   1.216   5.342
 3978SOL     OW12493   2.242   1.744   5.294
 3978SOL    HW112494   2.158   1.766   5.253
 3978SOL    HW212495   2.228   1.658   5.332
 3979SOL     OW12496   3.531   0.882   4.982
 3979SOL    HW112497   3.526   0.797   4.939
 3979SOL    HW212498   3.526   0.946   4.911
 3980SOL     OW12499   3.086   0.332   4.172
 3980SOL    HW112500   3.153   0.264   4.162
 3980SOL    HW212501   3.110   0.378   4.252
 3981SOL     OW12502   2.454   0.740   4.391
 3981SOL    HW112503   2.492   0.826   4.374
 3981SOL    HW212504   2.383   0.733   4.327
 3982SOL     OW12505   3.620   0.377   5.366
 3982SOL    HW112506   3.601   0.383   5.273
 3982SOL    HW212507   3.559   0.310   5.399
 3983SOL     OW12508   3.610   0.932   5.239
 3983SOL    HW112509   3.609   1.027   5.252
 3983SOL    HW212510   3.591   0.921   5.145
 3984SOL     OW12511   2.723   1.368   3.754
 3984SOL    HW112512   2.685   1.394   3.838
 3984SOL    HW212513   2.744   1.452   3.711
 3985SOL     OW12514   2.521   1.796   4.673
 3985SOL    HW112515   2.503   1.886   4.644
 3985SOL    HW212516   2.616   1.787   4.663
 3986SOL     OW12517   2.728   0.965   4.580
 3986SOL    HW112518   2.779   0.895   4.621
 3986SOL    HW212519   2.695   1.017   4.654
 3987SOL     OW12520   2.942   0.988   3.813
 3987SOL    HW112521   2.920   1.038   3.734
 3987SOL    HW212522   3.017   0.935   3.787
 3988SOL     OW12523   3.720   1.557   4.566
 3988SOL    HW112524   3.641   1.543   4.514
 3988SOL    HW212525   3.715   1.491   4.635
 3989SOL     OW12526   2.085   1.303   5.582
 3989SOL    HW112527   2.020   1.240   5.551
 3989SOL    HW212528   2.065   1.315   5.674
 3990SOL     OW12529   1.943   1.231   4.386
 3990SOL    HW112530   1.949   1.185   4.469
 3990SOL    HW212531   2.016   1.197   4.334
 3991SOL     OW12532   2.540   1.401   5.348
 3991SOL    HW112533   2.462   1.356   5.380
 3991SOL    HW212534   2.537   1.488   5.387
 3992SOL     OW12535   3.678   0.183   4.967
 3992SOL    HW112536   3.680   0.088   4.975
 3992SOL    HW212537   3.693   0.199   4.873
 3993SOL     OW12538   2.291   0.434   4.248
 3993SOL    HW112539   2.321   0.361   4.193
 3993SOL    HW212540   2.245   0.392   4.321
 3994SOL     OW12541   3.562   1.492   4.825
 3994SOL    HW112542   3.482   1.465   4.781
 3994SOL    HW212543   3.578   1.423   4.889
 3995SOL     OW12544   2.188   0.553   5.015
 3995SOL    HW112545   2.243   0.496   5.070
 3995SOL    HW212546   2.210   0.526   4.926
 3996SOL     OW12547   2.687   1.578   4.404
 3996SOL    HW112548   2.681   1.625   4.321
 3996SOL    HW212549   2.609   1.523   4.406
 3997SOL     OW12550   3.322   0.249   4.836
 3997SOL    HW112551   3.337   0.162   4.872
 3997SOL    HW212552   3.263   0.291   4.899
 3998SOL     OW12553   2.869   0.030   4.872
 3998SOL    HW112554   2.795   3.976   4.844
 3998SOL    HW212555   2.943   3.969   4.879
 3999SOL     OW12556   2.634   1.332   4.033
 3999SOL    HW112557   2.600   1.243   4.041
 3999SOL    HW212558   2.716   1.330   4.084
 4000SOL     OW12559   2.482   1.558   5.008
 4000SOL    HW112560   2.485   1.640   5.058
 4000SOL    HW212561   2.569   1.550   4.970
 4001SOL     OW12562   3.180   0.072   3.885
 4001SOL    HW112563   3.200   0.007   3.819
 4001SOL    HW212564   3.096   0.045   3.922
 4002SOL     OW12565   3.149   0.458   4.412
 4002SOL    HW112566   3.100   0.540   4.411
 4002SOL    HW212567   3.154   0.435   4.505
 4003SOL     OW12568   3.451   0.211   4.591
 4003SOL    HW112569   3.399   0.231   4.669
 4003SOL    HW212570   3.451   0.292   4.540
 4004SOL     OW12571   1.906   1.073   4.028
 4004SOL    HW112572   2.000   1.064   4.012
 4004SOL    HW212573   1.877   0.985   4.052
 4005SOL     OW12574   2.744   1.648   4.067
 4005SOL    HW112575   2.671   1.632   4.007
 4005SOL    HW212576   2.717   1.724   4.118
 4006SOL     OW12577   2.094   0.622   5.707
 4006SOL    HW112578   2.003   0.626   5.738
 4006SOL    HW212579   2.086   0.600   5.614
 4007SOL     OW12580   2.080   0.295   6.576
 4007SOL    HW112581   2.116   0.256   6.655
 4007SOL    HW212582   1.997   0.249   6.563
 4008SOL     OW12583   1.872   0.392   6.224
 4008SOL    HW112584   1.784   0.408   6.260
 4008SOL    HW212585   1.860   0.320   6.163
 4009SOL     OW12586   3.420   1.511   6.291
 4009SOL    HW112587   3.375   1.494   6.374
 4009SOL    HW212588   3.349   1.517   6.227
 4010SOL     OW12589   2.993   0.699   6.290
 4010SOL    HW112590   3.042   0.779   6.275
 4010SOL    HW212591   2.945   0.714   6.372
 4011SOL     OW12592   3.618   0.619   5.817
 4011SOL    HW112593   3.604   0.608   5.723
 4011SOL    HW212594   3.607   0.532   5.853
 4012SOL     OW12595   2.617   1.144   6.623
 4012SOL    HW112596   2.547   1.174   6.679
 4012SOL    HW212597   2.651   1.223   6.581
 4013SOL     OW12598   2.726   0.780   7.408
 4013SOL    HW112599   2.714   0.852   7.471
 4013SOL    HW212600   2.748   0.824   7.326
 4014SOL     OW12601   2.546   1.012   6.235
 4014SOL    HW112602   2.609   0.995   6.305
 4014SOL    HW212603   2.471   1.051   6.279
 4015SOL     OW12604   2.568   1.153   7.394
 4015SOL    HW112605   2.617   1.233   7.416
 4015SOL    HW212606   2.484   1.185   7.361
 4016SOL     OW12607   3.323   1.499   6.936
 4016SOL    HW112608   3.368   1.583   6.946
 4016SOL    HW212609   3.270   1.491   7.015
 4017SOL     OW12610   2.303   0.399   7.083
 4017SOL    HW112611   2.389   0.356   7.080
 4017SOL    HW212612   2.241   0.326   7.088
 4018SOL     OW12613   3.474   0.450   6.323
 4018SOL    HW112614   3.401   0.483   6.270
 4018SOL    HW212615   3.502   0.526   6.374
 4019SOL     OW12616   2.072   1.713   6.042
 4019SOL    HW112617   2.102   1.784   6.099
 4019SOL    HW212618   2.138   1.709   5.972
 4020SOL     OW12619   2.996   1.342   7.278
 4020SOL    HW112620   3.040   1.337   7.363
 4020SOL    HW212621   2.945   1.262   7.271
 4021SOL     OW12622   2.129   1.095   6.479
 4021SOL    HW112623   2.120   1.005   6.509
 4021SOL    HW212624   2.067   1.145   6.532
 4022SOL     OW12625   2.451   0.979   5.718
 4022SOL    HW112626   2.494   1.032   5.650
 4022SOL    HW212627   2.491   1.009   5.799
 4023SOL     OW12628   3.441   0.134   7.045
 4023SOL    HW112629   3.459   0.208   6.988
 4023SOL    HW212630   3.420   0.173   7.130
 4024SOL     OW12631   1.976   0.652   6.145
 4024SOL    HW112632   1.949   0.564   6.169
 4024SOL    HW212633   1.968   0.703   6.226
 4025SOL     OW12634   3.700   1.759   5.924
 4025SOL    HW112635   3.763   1.733   5.990
 4025SOL    HW212636   3.724   1.849   5.901
 4026SOL     OW12637   1.873   1.597   5.727
 4026SOL    HW112638   1.868   1.502   5.722
 4026SOL    HW212639   1.842   1.618   5.814
 4027SOL     OW12640   3.549   0.917   6.223
 4027SOL    HW112641   3.635   0.878   6.210
 4027SOL    HW212642   3.533   0.969   6.144
 4028SOL     OW12643   3.504   1.108   6.017
 4028SOL    HW112644   3.588   1.116   5.972
 4028SOL    HW212645   3.510   1.169   6.091
 4029SOL     OW12646   1.983   0.745   7.170
 4029SOL    HW112647   2.074   0.768   7.184
 4029SOL    HW212648   1.936   0.828   7.177
 4030SOL     OW12649   3.152   1.237   7.012
 4030SOL    HW112650   3.186   1.172   6.951
 4030SOL    HW212651   3.210   1.230   7.088
 4031SOL     OW12652   2.677   0.001   6.099
 4031SOL    HW112653   2.722   0.083   6.079
 4031SOL    HW212654   2.584   0.024   6.102
 4032SOL     OW12655   2.053   0.966   6.860
 4032SOL    HW112656   2.136   0.922   6.839
 4032SOL    HW212657   1.988   0.920   6.807
 4033SOL     OW12658   3.392   0.992   5.783
 4033SOL    HW112659   3.323   0.934   5.814
 4033SOL    HW212660   3.432   1.026   5.862
 4034SOL     OW12661   3.049   1.802   7.206
 4034SOL    HW112662   3.061   1.861   7.132
 4034SOL    HW212663   3.064   1.715   7.169
 4035SOL     OW12664   2.209   0.255   7.399
 4035SOL    HW112665   2.255   0.339   7.403
 4035SOL    HW212666   2.117   0.276   7.416
 4036SOL     OW12667   3.327   1.420   6.539
 4036SOL    HW112668   3.259   1.433   6.605
 4036SOL    HW212669   3.316   1.329   6.512
 4037SOL     OW12670   3.521   1.734   6.164
 4037SOL    HW112671   3.501   1.705   6.075
 4037SOL    HW212672   3.497   1.660   6.220
 4038SOL     OW12673   2.457   0.723   5.850
 4038SOL    HW112674   2.465   0.804   5.799
 4038SOL    HW212675   2.393   0.744   5.917
 4039SOL     OW12676   3.139   0.361   6.526
 4039SOL    HW112677   3.052   0.320   6.530
 4039SOL    HW212678   3.196   0.300   6.573
 4040SOL     OW12679   3.442   1.668   5.895
 4040SOL    HW112680   3.531   1.703   5.890
 4040SOL    HW212681   3.418   1.651   5.803
 4041SOL     OW12682   2.658   0.616   7.040
 4041SOL    HW112683   2.629   0.593   7.129
 4041SOL    HW212684   2.615   0.552   6.984
 4042SOL     OW12685   3.255   0.476   7.263
 4042SOL    HW112686   3.257   0.520   7.348
 4042SOL    HW212687   3.317   0.404   7.272
 4043SOL     OW12688   2.820   0.889   7.166
 4043SOL    HW112689   2.874   0.818   7.133
 4043SOL    HW212690   2.771   0.920   7.090
 4044SOL     OW12691   2.853   0.404   6.828
 4044SOL    HW112692   2.771   0.431   6.870
 4044SOL    HW212693   2.825   0.370   6.743
 4045SOL     OW12694   2.912   0.698   6.013
 4045SOL    HW112695   2.926   0.691   6.107
 4045SOL    HW212696   2.830   0.651   5.997
 4046SOL     OW12697   1.948   0.819   6.363
 4046SOL    HW112698   2.031   0.812   6.411
 4046SOL    HW212699   1.909   0.901   6.395
 4047SOL     OW12700   2.752   0.348   5.785
 4047SOL    HW112701   2.793   0.407   5.722
 4047SOL    HW212702   2.754   0.262   5.743
 4048SOL     OW12703   3.575   0.576   7.414
 4048SOL    HW112704   3.538   0.653   7.372
 4048SOL    HW212705   3.595   0.516   7.343
 4049SOL     OW12706   3.236   1.142   6.128
 4049SOL    HW112707   3.316   1.128   6.076
 4049SOL    HW212708   3.185   1.205   6.077
 4050SOL     OW12709   2.416   0.197   6.469
 4050SOL    HW112710   2.420   0.213   6.563
 4050SOL    HW212711   2.414   0.284   6.429
 4051SOL     OW12712   2.875   1.446   6.057
 4051SOL    HW112713   2.829   1.516   6.010
 4051SOL    HW212714   2.851   1.458   6.148
 4052SOL     OW12715   3.664   1.063   6.452
 4052SOL    HW112716   3.607   1.044   6.377
 4052SOL    HW212717   3.605   1.066   6.527
 4053SOL     OW12718   3.090   1.539   7.099
 4053SOL    HW112719   3.075   1.464   7.156
 4053SOL    HW212720   3.027   1.528   7.028
 4054SOL     OW12721   2.183   0.953   5.829
 4054SOL    HW112722   2.266   0.972   5.786
 4054SOL    HW212723   2.153   0.871   5.790
 4055SOL     OW12724   3.337   0.739   6.316
 4055SOL    HW112725   3.328   0.694   6.400
 4055SOL    HW212726   3.414   0.795   6.326
 4056SOL     OW12727   2.323   1.261   7.325
 4056SOL    HW112728   2.290   1.265   7.236
 4056SOL    HW212729   2.250   1.225   7.376
 4057SOL     OW12730   2.982   1.776   5.818
 4057SOL    HW112731   2.912   1.731   5.865
 4057SOL    HW212732   3.004   1.718   5.745
 4058SOL     OW12733   2.041   0.280   7.082
 4058SOL    HW112734   1.975   0.349   7.079
 4058SOL    HW212735   2.047   0.256   7.175
 4059SOL     OW12736   3.490   1.380   5.673
 4059SOL    HW112737   3.448   1.465   5.658
 4059SOL    HW212738   3.422   1.316   5.654
 4060SOL     OW12739   3.295   0.158   5.989
 4060SOL    HW112740   3.257   0.090   5.934
 4060SOL    HW212741   3.376   0.119   6.024
 4061SOL     OW12742   2.820   1.695   6.491
 4061SOL    HW112743   2.902   1.647   6.501
 4061SOL    HW212744   2.772   1.648   6.422
 4062SOL     OW12745   2.253   0.695   6.063
 4062SOL    HW112746   2.275   0.602   6.073
 4062SOL    HW212747   2.160   0.700   6.083
 4063SOL     OW12748   3.395   0.234   7.312
 4063SOL    HW112749   3.395   0.256   7.405
 4063SOL    HW212750   3.358   0.146   7.309
 4064SOL     OW12751   2.501   0.139   5.690
 4064SOL    HW112752   2.542   0.062   5.730
 4064SOL    HW212753   2.439   0.103   5.627
 4065SOL     OW12754   2.642   0.282   7.349
 4065SOL    HW112755   2.701   0.207   7.357
 4065SOL    HW212756   2.577   0.269   7.418
 4066SOL     OW12757   2.745   1.522   6.791
 4066SOL    HW112758   2.723   1.496   6.702
 4066SOL    HW212759   2.816   1.463   6.817
 4067SOL     OW12760   3.205   0.587   7.017
 4067SOL    HW112761   3.234   0.558   7.103
 4067SOL    HW212762   3.238   0.676   7.009
 4068SOL     OW12763   2.673   1.390   6.521
 4068SOL    HW112764   2.761   1.385   6.484
 4068SOL    HW212765   2.619   1.421   6.448
 4069SOL     OW12766   2.790   0.510   6.489
 4069SOL    HW112767   2.767   0.502   6.397
 4069SOL    HW212768   2.820   0.423   6.514
 4070SOL     OW12769   2.409   0.058   6.082
 4070SOL    HW112770   2.333   0.062   6.140
 4070SOL    HW212771   2.404   0.139   6.030
 4071SOL     OW12772   3.290   1.198   5.627
 4071SOL    HW112773   3.321   1.122   5.677
 4071SOL    HW212774   3.204   1.218   5.664
 4072SOL     OW12775   2.185   0.041   5.791
 4072SOL    HW112776   2.205   0.112   5.731
 4072SOL    HW212777   2.268   0.021   5.833
 4073SOL     OW12778   2.798   0.246   6.051
 4073SOL    HW112779   2.771   0.288   5.970
 4073SOL    HW212780   2.894   0.246   6.048
 4074SOL     OW12781   2.941   0.680   7.046
 4074SOL    HW112782   2.870   0.617   7.053
 4074SOL    HW212783   3.020   0.626   7.039
 4075SOL     OW12784   3.086   1.569   6.381
 4075SOL    HW112785   3.106   1.633   6.313
 4075SOL    HW212786   3.156   1.580   6.446
 4076SOL     OW12787   3.136   1.793   6.187
 4076SOL    HW112788   3.181   1.851   6.126
 4076SOL    HW212789   3.082   1.852   6.241
 4077SOL     OW12790   2.888   0.548   5.606
 4077SOL    HW112791   2.845   0.631   5.586
 4077SOL    HW212792   2.950   0.569   5.676
 4078SOL     OW12793   1.939   0.553   6.980
 4078SOL    HW112794   2.030   0.552   6.950
 4078SOL    HW212795   1.934   0.626   7.041
 4079SOL     OW12796   2.428   0.232   6.747
 4079SOL    HW112797   2.454   0.141   6.760
 4079SOL    HW212798   2.337   0.236   6.778
 4080SOL     OW12799   2.733   0.461   6.225
 4080SOL    HW112800   2.684   0.514   6.162
 4080SOL    HW212801   2.751   0.379   6.179
 4081SOL     OW12802   2.855   0.043   6.364
 4081SOL    HW112803   2.824   0.063   6.276
 4081SOL    HW212804   2.865   3.948   6.364
 4082SOL     OW12805   3.298   1.163   6.444
 4082SOL    HW112806   3.230   1.096   6.441
 4082SOL    HW212807   3.322   1.178   6.353
 4083SOL     OW12808   3.329   0.603   6.567
 4083SOL    HW112809   3.282   0.519   6.573
 4083SOL    HW212810   3.391   0.600   6.640
 4084SOL     OW12811   3.722   0.823   5.961
 4084SOL    HW112812   3.764   0.766   6.025
 4084SOL    HW212813   3.682   0.763   5.898
 4085SOL     OW12814   2.351   1.417   5.745
 4085SOL    HW112815   2.279   1.383   5.798
 4085SOL    HW212816   2.333   1.387   5.656
 4086SOL     OW12817   3.527   1.265   6.236
 4086SOL    HW112818   3.622   1.271   6.243
 4086SOL    HW212819   3.496   1.353   6.256
 4087SOL     OW12820   3.256   0.571   5.656
 4087SOL    HW112821   3.194   0.554   5.727
 4087SOL    HW212822   3.342   0.551   5.693
 4088SOL     OW12823   2.389   0.265   5.905
 4088SOL    HW112824   2.436   0.222   5.834
 4088SOL    HW212825   2.366   0.352   5.871
 4089SOL     OW12826   3.615   1.234   7.162
 4089SOL    HW112827   3.702   1.198   7.144
 4089SOL    HW212828   3.631   1.323   7.194
 4090SOL     OW12829   2.925   1.347   6.917
 4090SOL    HW112830   2.850   1.321   6.972
 4090SOL    HW212831   3.001   1.309   6.961
 4091SOL     OW12832   3.466   1.626   7.237
 4091SOL    HW112833   3.462   1.660   7.148
 4091SOL    HW212834   3.549   1.579   7.241
 4092SOL     OW12835   2.985   1.197   6.692
 4092SOL    HW112836   2.933   1.241   6.759
 4092SOL    HW212837   2.954   1.233   6.609
 4093SOL     OW12838   3.495   1.100   6.663
 4093SOL    HW112839   3.488   1.161   6.737
 4093SOL    HW212840   3.415   1.114   6.613
 4094SOL     OW12841   2.776   0.110   6.988
 4094SOL    HW112842   2.795   0.085   6.898
 4094SOL    HW212843   2.856   0.152   7.020
 4095SOL     OW12844   2.845   1.115   7.308
 4095SOL    HW112845   2.752   1.127   7.327
 4095SOL    HW212846   2.848   1.037   7.251
 4096SOL     OW12847   2.569   1.061   5.957
 4096SOL    HW112848   2.554   1.046   6.050
 4096SOL    HW212849   2.646   1.008   5.936
 4097SOL     OW12850   2.281   0.814   6.836
 4097SOL    HW112851   2.349   0.821   6.903
 4097SOL    HW212852   2.243   0.727   6.850
 4098SOL     OW12853   3.129   0.376   6.861
 4098SOL    HW112854   3.164   0.453   6.905
 4098SOL    HW212855   3.043   0.403   6.828
 4099SOL     OW12856   2.220   1.088   6.069
 4099SOL    HW112857   2.219   1.162   6.008
 4099SOL    HW212858   2.213   1.011   6.013
 4100SOL     OW12859   2.420   0.537   6.445
 4100SOL    HW112860   2.436   0.596   6.372
 4100SOL    HW212861   2.481   0.567   6.513
 4101SOL     OW12862   3.112   1.347   5.975
 4101SOL    HW112863   3.168   1.419   6.005
 4101SOL    HW212864   3.025   1.368   6.007
 4102SOL     OW12865   3.140   1.455   6.732
 4102SOL    HW112866   3.195   1.460   6.810
 4102SOL    HW212867   3.084   1.379   6.746
 4103SOL     OW12868   3.440   0.630   6.067
 4103SOL    HW112869   3.402   0.692   6.129
 4103SOL    HW212870   3.488   0.685   6.005
 4104SOL     OW12871   2.275   0.745   7.189
 4104SOL    HW112872   2.336   0.790   7.130
 4104SOL    HW212873   2.313   0.659   7.203
 4105SOL     OW12874   3.459   0.775   7.264
 4105SOL    HW112875   3.373   0.817   7.257
 4105SOL    HW212876   3.512   0.818   7.197
 4106SOL     OW12877   2.887   0.117   7.363
 4106SOL    HW112878   2.912   0.198   7.318
 4106SOL    HW212879   2.875   0.053   7.293
 4107SOL     OW12880   2.346   0.035   7.351
 4107SOL    HW112881   2.354   0.035   7.256
 4107SOL    HW212882   2.289   0.110   7.370
 4108SOL     OW12883   2.447   0.868   6.617
 4108SOL    HW112884   2.471   0.961   6.612
 4108SOL    HW212885   2.386   0.863   6.691
 4109SOL     OW12886   3.222   0.859   6.620
 4109SOL    HW112887   3.142   0.853   6.568
 4109SOL    HW212888   3.260   0.771   6.616
 4110SOL     OW12889   3.069   0.533   5.852
 4110SOL    HW112890   3.076   0.454   5.905
 4110SOL    HW212891   3.026   0.597   5.909
 4111SOL     OW12892   2.166   0.213   6.827
 4111SOL    HW112893   2.129   0.242   6.911
 4111SOL    HW212894   2.150   0.119   6.825
 4112SOL     OW12895   1.886   1.317   6.894
 4112SOL    HW112896   1.937   1.255   6.946
 4112SOL    HW212897   1.946   1.390   6.878
 4113SOL     OW12898   2.591   0.633   6.645
 4113SOL    HW112899   2.661   0.616   6.583
 4113SOL    HW212900   2.560   0.721   6.623
 4114SOL     OW12901   3.596   0.955   7.443
 4114SOL    HW112902   3.548   0.907   7.375
 4114SOL    HW212903   3.531   0.968   7.512
 4115SOL     OW12904   2.182   0.058   6.228
 4115SOL    HW112905   2.159   0.150   6.241
 4115SOL    HW212906   2.142   0.014   6.303
 4116SOL     OW12907   3.465   0.384   5.968
 4116SOL    HW112908   3.447   0.316   6.032
 4116SOL    HW212909   3.443   0.466   6.012
 4117SOL     OW12910   2.889   0.760   6.548
 4117SOL    HW112911   2.888   0.778   6.642
 4117SOL    HW212912   2.862   0.669   6.541
 4118SOL     OW12913   2.834   1.561   7.303
 4118SOL    HW112914   2.817   1.610   7.222
 4118SOL    HW212915   2.887   1.486   7.274
 4119SOL     OW12916   3.710   1.507   7.188
 4119SOL    HW112917   3.730   1.533   7.098
 4119SOL    HW212918   3.790   1.524   7.236
 4120SOL     OW12919   2.220   0.923   7.391
 4120SOL    HW112920   2.301   0.929   7.442
 4120SOL    HW212921   2.239   0.857   7.324
 4121SOL     OW12922   3.373   0.275   5.721
 4121SOL    HW112923   3.297   0.219   5.735
 4121SOL    HW212924   3.388   0.317   5.806
 4122SOL     OW12925   3.156   0.827   5.619
 4122SOL    HW112926   3.198   0.741   5.621
 4122SOL    HW212927   3.187   0.867   5.537
 4123SOL     OW12928   2.928   1.334   6.441
 4123SOL    HW112929   2.930   1.262   6.379
 4123SOL    HW212930   2.989   1.398   6.406
 4124SOL     OW12931   2.171   0.809   6.534
 4124SOL    HW112932   2.264   0.830   6.525
 4124SOL    HW212933   2.170   0.719   6.568
 4125SOL     OW12934   2.200   0.530   6.598
 4125SOL    HW112935   2.158   0.445   6.582
 4125SOL    HW212936   2.275   0.531   6.539
 4126SOL     OW12937   2.996   0.384   7.274
 4126SOL    HW112938   2.950   0.439   7.337
 4126SOL    HW212939   3.084   0.422   7.270
 4127SOL     OW12940   3.014   0.223   7.067
 4127SOL    HW112941   3.006   0.278   7.145
 4127SOL    HW212942   3.034   0.285   6.996
 4128SOL     OW12943   1.868   1.320   5.780
 4128SOL    HW112944   1.781   1.333   5.743
 4128SOL    HW212945   1.868   1.230   5.812
 4129SOL     OW12946   2.848   0.795   6.815
 4129SOL    HW112947   2.900   0.770   6.891
 4129SOL    HW212948   2.762   0.755   6.830
 4130SOL     OW12949   1.895   0.542   6.703
 4130SOL    HW112950   1.973   0.519   6.652
 4130SOL    HW212951   1.927   0.549   6.793
 4131SOL     OW12952   2.063   0.526   7.303
 4131SOL    HW112953   2.125   0.498   7.236
 4131SOL    HW212954   2.013   0.597   7.262
 4132SOL     OW12955   3.238   0.941   7.245
 4132SOL    HW112956   3.260   1.035   7.245
 4132SOL    HW212957   3.236   0.917   7.153
 4133SOL     OW12958   2.678   0.571   5.942
 4133SOL    HW112959   2.681   0.495   5.884
 4133SOL    HW212960   2.602   0.621   5.910
 4134SOL     OW12961   3.504   0.601   6.775
 4134SOL    HW112962   3.493   0.540   6.848
 4134SOL    HW212963   3.590   0.579   6.738
 4135SOL     OW12964   2.557   0.458   6.849
 4135SOL    HW112965   2.511   0.379   6.821
 4135SOL    HW212966   2.555   0.516   6.773
 4136SOL     OW12967   2.794   1.665   7.048
 4136SOL    HW112968   2.767   1.635   6.961
 4136SOL    HW212969   2.796   1.760   7.042
 4137SOL     OW12970   2.329   0.494   5.774
 4137SOL    HW112971   2.386   0.568   5.794
 4137SOL    HW212972   2.242   0.533   5.763
 4138SOL     OW12973   2.019   1.139   7.058
 4138SOL    HW112974   2.014   1.085   7.137
 4138SOL    HW212975   2.030   1.076   6.987
 4139SOL     OW12976   3.190   1.049   6.811
 4139SOL    HW112977   3.215   0.986   6.743
 4139SOL    HW212978   3.117   1.098   6.773
 4140SOL     OW12979   3.171   0.854   5.893
 4140SOL    HW112980   3.093   0.827   5.942
 4140SOL    HW212981   3.147   0.843   5.801
 4141SOL     OW12982   3.634   1.747   6.737
 4141SOL    HW112983   3.690   1.774   6.664
 4141SOL    HW212984   3.608   1.657   6.716
 4142SOL     OW12985   3.105   1.733   6.703
 4142SOL    HW112986   3.187   1.751   6.656
 4142SOL    HW212987   3.107   1.639   6.720
 4143SOL     OW12988   1.947   1.235   6.624
 4143SOL    HW112989   1.912   1.264   6.709
 4143SOL    HW212990   1.869   1.216   6.572
 4144SOL     OW12991   3.557   0.127   6.072
 4144SOL    HW112992   3.640   0.133   6.024
 4144SOL    HW212993   3.553   0.035   6.100
 4145SOL     OW12994   3.252   1.567   6.068
 4145SOL    HW112995   3.313   1.597   6.001
 4145SOL    HW212996   3.205   1.645   6.095
 4146SOL     OW12997   3.139   0.925   6.257
 4146SOL    HW112998   3.213   0.863   6.262
 4146SOL    HW212999   3.172   0.998   6.205
 4147SOL     OW13000   2.682   1.271   7.021
 4147SOL    HW113001   2.659   1.308   7.106
 4147SOL    HW213002   2.619   1.309   6.960
 4148SOL     OW13003   2.552   1.605   5.736
 4148SOL    HW113004   2.544   1.620   5.642
 4148SOL    HW213005   2.488   1.536   5.755
 4149SOL     OW13006   3.492   1.726   6.978
 4149SOL    HW113007   3.542   1.733   6.897
 4149SOL    HW213008   3.479   1.817   7.006
 4150SOL     OW13009   3.701   0.178   6.556
 4150SOL    HW113010   3.727   0.095   6.515
 4150SOL    HW213011   3.614   0.196   6.520
 4151SOL     OW13012   2.128   0.319   6.302
 4151SOL    HW113013   2.042   0.355   6.280
 4151SOL    HW213014   2.125   0.306   6.397
 4152SOL     OW13015   3.067   1.608   5.617
 4152SOL    HW113016   3.059   1.517   5.644
 4152SOL    HW213017   3.002   1.618   5.547
 4153SOL     OW13018   2.684   1.006   6.956
 4153SOL    HW113019   2.735   1.000   6.875
 4153SOL    HW213020   2.690   1.098   6.980
 4154SOL     OW13021   2.778   0.911   5.877
 4154SOL    HW113022   2.839   0.942   5.810
 4154SOL    HW213023   2.824   0.839   5.919
 4155SOL     OW13024   3.357   1.625   5.628
 4155SOL    HW113025   3.262   1.621   5.616
 4155SOL    HW213026   3.392   1.631   5.539
 4156SOL     OW13027   2.239   1.296   7.074
 4156SOL    HW113028   2.222   1.371   7.017
 4156SOL    HW213029   2.165   1.237   7.059
 4157SOL     OW13030   3.467   1.280   6.867
 4157SOL    HW113031   3.535   1.278   6.934
 4157SOL    HW213032   3.410   1.353   6.892
 4158SOL     OW13033   2.909   1.105   6.292
 4158SOL    HW113034   2.839   1.053   6.330
 4158SOL    HW213035   2.971   1.041   6.256
 4159SOL     OW13036   2.877   0.246   6.553
 4159SOL    HW113037   2.866   0.197   6.471
 4159SOL    HW213038   2.869   0.180   6.622
 4160SOL     OW13039   3.581   0.390   6.962
 4160SOL    HW113040   3.651   0.455   6.960
 4160SOL    HW213041   3.612   0.319   6.906
 4161SOL     OW13042   2.122   1.347   5.882
 4161SOL    HW113043   2.029   1.342   5.860
 4161SOL    HW213044   2.124   1.394   5.966
 4162SOL     OW13045   1.973   1.014   7.299
 4162SOL    HW113046   1.897   0.997   7.354
 4162SOL    HW213047   2.047   0.983   7.351
 4163SOL     OW13048   2.552   0.238   7.081
 4163SOL    HW113049   2.623   0.188   7.041
 4163SOL    HW213050   2.576   0.243   7.174
 4164SOL     OW13051   1.958   0.321   5.575
 4164SOL    HW113052   1.873   0.335   5.617
 4164SOL    HW213053   1.978   0.405   5.534
 4165SOL     OW13054   3.292   0.858   6.987
 4165SOL    HW113055   3.244   0.918   6.931
 4165SOL    HW213056   3.382   0.860   6.953
 4166SOL     OW13057   1.946   0.155   5.926
 4166SOL    HW113058   1.915   0.220   5.864
 4166SOL    HW213059   2.029   0.125   5.889
 4167SOL     OW13060   3.041   1.342   5.703
 4167SOL    HW113061   2.950   1.312   5.706
 4167SOL    HW213062   3.070   1.340   5.794
 4168SOL     OW13063   2.481   0.831   7.019
 4168SOL    HW113064   2.538   0.906   7.003
 4168SOL    HW213065   2.540   0.756   7.027
 4169SOL     OW13066   3.347   1.775   6.559
 4169SOL    HW113067   3.375   1.833   6.489
 4169SOL    HW213068   3.427   1.757   6.608
 4170SOL     OW13069   2.580   0.564   7.293
 4170SOL    HW113070   2.616   0.627   7.355
 4170SOL    HW213071   2.614   0.479   7.321
 4171SOL     OW13072   3.331   1.203   7.219
 4171SOL    HW113073   3.320   1.216   7.314
 4171SOL    HW213074   3.424   1.216   7.204
 4172SOL     OW13075   3.530   0.882   6.844
 4172SOL    HW113076   3.527   0.797   6.801
 4172SOL    HW213077   3.526   0.945   6.773
 4173SOL     OW13078   3.086   0.332   6.034
 4173SOL    HW113079   3.153   0.264   6.024
 4173SOL    HW213080   3.110   0.377   6.115
 4174SOL     OW13081   2.453   0.742   6.253
 4174SOL    HW113082   2.493   0.826   6.232
 4174SOL    HW213083   2.382   0.732   6.190
 4175SOL     OW13084   3.620   0.377   7.229
 4175SOL    HW113085   3.601   0.383   7.135
 4175SOL    HW213086   3.559   0.310   7.261
 4176SOL     OW13087   3.609   0.932   7.101
 4176SOL    HW113088   3.610   1.027   7.113
 4176SOL    HW213089   3.591   0.921   7.007
 4177SOL     OW13090   2.724   1.368   5.612
 4177SOL    HW113091   2.687   1.388   5.698
 4177SOL    HW213092   2.742   1.453   5.573
 4178SOL     OW13093   2.726   0.964   6.442
 4178SOL    HW113094   2.778   0.893   6.481
 4178SOL    HW213095   2.696   1.016   6.516
 4179SOL     OW13096   2.942   0.988   5.675
 4179SOL    HW113097   2.920   1.038   5.597
 4179SOL    HW213098   3.017   0.935   5.649
 4180SOL     OW13099   3.720   1.557   6.428
 4180SOL    HW113100   3.641   1.543   6.376
 4180SOL    HW213101   3.715   1.491   6.497
 4181SOL     OW13102   1.935   1.150   6.215
 4181SOL    HW113103   1.935   1.153   6.311
 4181SOL    HW213104   2.026   1.166   6.191
 4182SOL     OW13105   2.537   1.403   7.211
 4182SOL    HW113106   2.458   1.361   7.244
 4182SOL    HW213107   2.525   1.496   7.230
 4183SOL     OW13108   3.677   0.183   6.829
 4183SOL    HW113109   3.680   0.088   6.837
 4183SOL    HW213110   3.693   0.199   6.736
 4184SOL     OW13111   2.291   0.433   6.110
 4184SOL    HW113112   2.321   0.360   6.055
 4184SOL    HW213113   2.245   0.391   6.183
 4185SOL     OW13114   3.562   1.492   6.687
 4185SOL    HW113115   3.482   1.465   6.643
 4185SOL    HW213116   3.579   1.423   6.751
 4186SOL     OW13117   2.189   0.553   6.877
 4186SOL    HW113118   2.243   0.496   6.932
 4186SOL    HW213119   2.209   0.527   6.787
 4187SOL     OW13120   2.697   1.549   6.257
 4187SOL    HW113121   2.718   1.599   6.178
 4187SOL    HW213122   2.601   1.547   6.259
 4188SOL     OW13123   3.322   0.249   6.698
 4188SOL    HW113124   3.337   0.162   6.734
 4188SOL    HW213125   3.263   0.291   6.761
 4189SOL     OW13126   2.869   0.030   6.734
 4189SOL    HW113127   2.795   3.976   6.706
 4189SOL    HW213128   2.942   3.969   6.740
 4190SOL     OW13129   2.648   1.329   5.884
 4190SOL    HW113130   2.600   1.248   5.898
 4190SOL    HW213131   2.721   1.324   5.946
 4191SOL     OW13132   3.180   0.072   5.747
 4191SOL    HW113133   3.200   0.007   5.681
 4191SOL    HW213134   3.095   0.045   5.784
 4192SOL     OW13135   3.149   0.458   6.274
 4192SOL    HW113136   3.100   0.540   6.273
 4192SOL    HW213137   3.154   0.435   6.367
 4193SOL     OW13138   3.451   0.211   6.453
 4193SOL    HW113139   3.399   0.231   6.531
 4193SOL    HW213140   3.451   0.292   6.402
 4194SOL     OW13141   1.904   1.071   5.883
 4194SOL    HW113142   1.999   1.065   5.876
 4194SOL    HW213143   1.876   0.984   5.912
 4195SOL     OW13144   2.731   1.652   5.944
 4195SOL    HW113145   2.677   1.618   5.873
 4195SOL    HW213146   2.690   1.735   5.968
 4196SOL     OW13147   2.094   0.624   7.568
 4196SOL    HW113148   2.003   0.626   7.600
 4196SOL    HW213149   2.086   0.600   7.476
 4197SOL     OW13150   2.079   0.295   8.438
 4197SOL    HW113151   2.117   0.256   8.517
 4197SOL    HW213152   1.997   0.249   8.425
 4198SOL     OW13153   1.872   0.392   8.086
 4198SOL    HW113154   1.784   0.408   8.122
 4198SOL    HW213155   1.860   0.320   8.025
 4199SOL     OW13156   2.429   1.283   8.618
 4199SOL    HW113157   2.341   1.285   8.581
 4199SOL    HW213158   2.442   1.371   8.654
 4200SOL     OW13159   3.419   1.511   8.153
 4200SOL    HW113160   3.376   1.493   8.236
 4200SOL    HW213161   3.348   1.517   8.089
 4201SOL     OW13162   2.993   0.699   8.152
 4201SOL    HW113163   3.042   0.779   8.137
 4201SOL    HW213164   2.945   0.714   8.234
 4202SOL     OW13165   3.618   0.619   7.679
 4202SOL    HW113166   3.604   0.608   7.585
 4202SOL    HW213167   3.607   0.532   7.715
 4203SOL     OW13168   2.622   1.145   8.486
 4203SOL    HW113169   2.551   1.177   8.541
 4203SOL    HW213170   2.656   1.224   8.442
 4204SOL     OW13171   2.725   0.780   9.270
 4204SOL    HW113172   2.712   0.852   9.332
 4204SOL    HW213173   2.748   0.824   9.188
 4205SOL     OW13174   2.550   1.008   8.098
 4205SOL    HW113175   2.613   0.992   8.168
 4205SOL    HW213176   2.478   1.055   8.140
 4206SOL     OW13177   2.570   1.152   9.256
 4206SOL    HW113178   2.617   1.231   9.282
 4206SOL    HW213179   2.486   1.184   9.224
 4207SOL     OW13180   2.193   1.427   8.516
 4207SOL    HW113181   2.119   1.393   8.465
 4207SOL    HW213182   2.242   1.480   8.453
 4208SOL     OW13183   3.323   1.499   8.798
 4208SOL    HW113184   3.369   1.583   8.809
 4208SOL    HW213185   3.270   1.490   8.877
 4209SOL     OW13186   2.303   0.398   8.944
 4209SOL    HW113187   2.389   0.356   8.942
 4209SOL    HW213188   2.241   0.326   8.951
 4210SOL     OW13189   3.474   0.450   8.185
 4210SOL    HW113190   3.401   0.483   8.132
 4210SOL    HW213191   3.502   0.526   8.236
 4211SOL     OW13192   2.093   1.713   7.937
 4211SOL    HW113193   2.130   1.784   7.990
 4211SOL    HW213194   2.136   1.721   7.852
 4212SOL     OW13195   2.997   1.341   9.139
 4212SOL    HW113196   3.038   1.338   9.226
 4212SOL    HW213197   2.945   1.261   9.134
 4213SOL     OW13198   2.109   1.458   8.082
 4213SOL    HW113199   2.077   1.537   8.038
 4213SOL    HW213200   2.032   1.401   8.089
 4214SOL     OW13201   2.118   1.090   8.339
 4214SOL    HW113202   2.113   1.004   8.381
 4214SOL    HW213203   2.059   1.145   8.390
 4215SOL     OW13204   2.476   1.791   8.880
 4215SOL    HW113205   2.394   1.775   8.926
 4215SOL    HW213206   2.500   1.881   8.904
 4216SOL     OW13207   2.450   0.979   7.578
 4216SOL    HW113208   2.495   1.031   7.512
 4216SOL    HW213209   2.489   1.006   7.661
 4217SOL     OW13210   3.441   0.134   8.907
 4217SOL    HW113211   3.459   0.208   8.850
 4217SOL    HW213212   3.420   0.172   8.992
 4218SOL     OW13213   1.977   0.651   8.008
 4218SOL    HW113214   1.950   0.562   8.030
 4218SOL    HW213215   1.969   0.701   8.089
 4219SOL     OW13216   3.700   1.759   7.786
 4219SOL    HW113217   3.764   1.733   7.852
 4219SOL    HW213218   3.724   1.849   7.763
 4220SOL     OW13219   3.549   0.917   8.085
 4220SOL    HW113220   3.635   0.878   8.072
 4220SOL    HW213221   3.534   0.969   8.006
 4221SOL     OW13222   3.504   1.108   7.879
 4221SOL    HW113223   3.588   1.116   7.834
 4221SOL    HW213224   3.510   1.169   7.953
 4222SOL     OW13225   1.983   0.746   9.031
 4222SOL    HW113226   2.075   0.768   9.046
 4222SOL    HW213227   1.937   0.829   9.039
 4223SOL     OW13228   2.476   1.383   8.172
 4223SOL    HW113229   2.440   1.298   8.196
 4223SOL    HW213230   2.426   1.409   8.094
 4224SOL     OW13231   3.152   1.239   8.872
 4224SOL    HW113232   3.185   1.172   8.812
 4224SOL    HW213233   3.208   1.232   8.950
 4225SOL     OW13234   2.677   0.001   7.961
 4225SOL    HW113235   2.722   0.083   7.941
 4225SOL    HW213236   2.585   0.024   7.964
 4226SOL     OW13237   2.054   0.968   8.717
 4226SOL    HW113238   2.138   0.925   8.701
 4226SOL    HW213239   1.989   0.911   8.675
 4227SOL     OW13240   3.392   0.992   7.645
 4227SOL    HW113241   3.323   0.934   7.676
 4227SOL    HW213242   3.433   1.026   7.724
 4228SOL     OW13243   3.046   1.804   9.068
 4228SOL    HW113244   3.063   1.861   8.993
 4228SOL    HW213245   3.062   1.715   9.035
 4229SOL     OW13246   2.209   0.255   9.260
 4229SOL    HW113247   2.255   0.339   9.265
 4229SOL    HW213248   2.117   0.276   9.278
 4230SOL     OW13249   3.326   1.421   8.400
 4230SOL    HW113250   3.259   1.434   8.467
 4230SOL    HW213251   3.316   1.329   8.373
 4231SOL     OW13252   3.520   1.735   8.027
 4231SOL    HW113253   3.502   1.705   7.937
 4231SOL    HW213254   3.498   1.660   8.082
 4232SOL     OW13255   2.457   0.722   7.712
 4232SOL    HW113256   2.467   0.803   7.662
 4232SOL    HW213257   2.393   0.744   7.780
 4233SOL     OW13258   3.139   0.361   8.388
 4233SOL    HW113259   3.052   0.321   8.392
 4233SOL    HW213260   3.196   0.300   8.435
 4234SOL     OW13261   3.442   1.666   7.757
 4234SOL    HW113262   3.531   1.702   7.753
 4234SOL    HW213263   3.418   1.650   7.666
 4235SOL     OW13264   2.659   0.615   8.902
 4235SOL    HW113265   2.629   0.593   8.991
 4235SOL    HW213266   2.615   0.552   8.846
 4236SOL     OW13267   3.255   0.476   9.125
 4236SOL    HW113268   3.256   0.520   9.210
 4236SOL    HW213269   3.317   0.404   9.134
 4237SOL     OW13270   2.820   0.889   9.029
 4237SOL    HW113271   2.874   0.818   8.995
 4237SOL    HW213272   2.772   0.922   8.953
 4238SOL     OW13273   2.853   0.403   8.690
 4238SOL    HW113274   2.772   0.432   8.733
 4238SOL    HW213275   2.824   0.370   8.605
 4239SOL     OW13276   2.912   0.699   7.875
 4239SOL    HW113277   2.926   0.692   7.969
 4239SOL    HW213278   2.830   0.652   7.859
 4240SOL     OW13279   1.951   0.820   8.224
 4240SOL    HW113280   2.032   0.812   8.274
 4240SOL    HW213281   1.909   0.898   8.259
 4241SOL     OW13282   2.752   0.348   7.647
 4241SOL    HW113283   2.793   0.407   7.583
 4241SOL    HW213284   2.754   0.262   7.605
 4242SOL     OW13285   3.575   0.576   9.276
 4242SOL    HW113286   3.538   0.653   9.234
 4242SOL    HW213287   3.595   0.516   9.204
 4243SOL     OW13288   3.236   1.142   7.990
 4243SOL    HW113289   3.316   1.128   7.939
 4243SOL    HW213290   3.185   1.204   7.938
 4244SOL     OW13291   2.416   0.197   8.331
 4244SOL    HW113292   2.420   0.213   8.425
 4244SOL    HW213293   2.414   0.284   8.291
 4245SOL     OW13294   2.882   1.449   7.929
 4245SOL    HW113295   2.831   1.516   7.882
 4245SOL    HW213296   2.873   1.472   8.021
 4246SOL     OW13297   2.218   1.796   8.290
 4246SOL    HW113298   2.258   1.711   8.310
 4246SOL    HW213299   2.287   1.860   8.308
 4247SOL     OW13300   3.664   1.063   8.314
 4247SOL    HW113301   3.608   1.043   8.239
 4247SOL    HW213302   3.605   1.066   8.389
 4248SOL     OW13303   3.089   1.540   8.961
 4248SOL    HW113304   3.076   1.467   9.021
 4248SOL    HW213305   3.029   1.522   8.888
 4249SOL     OW13306   2.186   0.956   7.696
 4249SOL    HW113307   2.269   0.971   7.650
 4249SOL    HW213308   2.152   0.875   7.659
 4250SOL     OW13309   3.337   0.739   8.178
 4250SOL    HW113310   3.328   0.694   8.262
 4250SOL    HW213311   3.414   0.795   8.189
 4251SOL     OW13312   2.327   1.263   9.185
 4251SOL    HW113313   2.298   1.268   9.094
 4251SOL    HW213314   2.245   1.261   9.236
 4252SOL     OW13315   2.981   1.776   7.681
 4252SOL    HW113316   2.920   1.721   7.730
 4252SOL    HW213317   3.007   1.723   7.606
 4253SOL     OW13318   2.040   0.279   8.944
 4253SOL    HW113319   1.975   0.349   8.942
 4253SOL    HW213320   2.048   0.256   9.037
 4254SOL     OW13321   3.490   1.380   7.536
 4254SOL    HW113322   3.449   1.465   7.520
 4254SOL    HW213323   3.421   1.316   7.516
 4255SOL     OW13324   3.295   0.158   7.852
 4255SOL    HW113325   3.257   0.090   7.796
 4255SOL    HW213326   3.376   0.119   7.886
 4256SOL     OW13327   2.160   1.780   8.676
 4256SOL    HW113328   2.195   1.701   8.716
 4256SOL    HW213329   2.118   1.750   8.595
 4257SOL     OW13330   2.802   1.699   8.349
 4257SOL    HW113331   2.878   1.645   8.369
 4257SOL    HW213332   2.754   1.650   8.282
 4258SOL     OW13333   2.253   0.695   7.926
 4258SOL    HW113334   2.276   0.603   7.935
 4258SOL    HW213335   2.159   0.699   7.945
 4259SOL     OW13336   3.396   0.234   9.174
 4259SOL    HW113337   3.395   0.256   9.267
 4259SOL    HW213338   3.357   0.146   9.171
 4260SOL     OW13339   2.501   0.139   7.552
 4260SOL    HW113340   2.542   0.062   7.591
 4260SOL    HW213341   2.439   0.104   7.489
 4261SOL     OW13342   2.641   0.281   9.210
 4261SOL    HW113343   2.701   0.207   9.220
 4261SOL    HW213344   2.577   0.269   9.280
 4262SOL     OW13345   2.739   1.522   8.641
 4262SOL    HW113346   2.724   1.485   8.554
 4262SOL    HW213347   2.808   1.467   8.679
 4263SOL     OW13348   3.205   0.587   8.878
 4263SOL    HW113349   3.234   0.558   8.965
 4263SOL    HW213350   3.238   0.676   8.871
 4264SOL     OW13351   2.675   1.400   8.381
 4264SOL    HW113352   2.760   1.386   8.340
 4264SOL    HW213353   2.612   1.392   8.310
 4265SOL     OW13354   2.790   0.510   8.351
 4265SOL    HW113355   2.766   0.502   8.259
 4265SOL    HW213356   2.820   0.423   8.376
 4266SOL     OW13357   2.409   0.058   7.944
 4266SOL    HW113358   2.333   0.062   8.002
 4266SOL    HW213359   2.404   0.139   7.892
 4267SOL     OW13360   3.290   1.197   7.489
 4267SOL    HW113361   3.323   1.122   7.539
 4267SOL    HW213362   3.205   1.217   7.528
 4268SOL     OW13363   2.184   0.042   7.654
 4268SOL    HW113364   2.204   0.113   7.592
 4268SOL    HW213365   2.268   0.021   7.694
 4269SOL     OW13366   2.798   0.246   7.913
 4269SOL    HW113367   2.771   0.288   7.832
 4269SOL    HW213368   2.894   0.245   7.910
 4270SOL     OW13369   2.942   0.680   8.907
 4270SOL    HW113370   2.869   0.617   8.915
 4270SOL    HW213371   3.020   0.625   8.901
 4271SOL     OW13372   3.085   1.571   8.241
 4271SOL    HW113373   3.106   1.638   8.176
 4271SOL    HW213374   3.154   1.579   8.307
 4272SOL     OW13375   2.331   1.149   8.187
 4272SOL    HW113376   2.260   1.132   8.249
 4272SOL    HW213377   2.294   1.131   8.101
 4273SOL     OW13378   3.130   1.795   8.051
 4273SOL    HW113379   3.177   1.854   7.992
 4273SOL    HW213380   3.074   1.853   8.104
 4274SOL     OW13381   2.888   0.548   7.468
 4274SOL    HW113382   2.845   0.631   7.449
 4274SOL    HW213383   2.950   0.569   7.538
 4275SOL     OW13384   1.939   0.553   8.842
 4275SOL    HW113385   2.030   0.552   8.812
 4275SOL    HW213386   1.934   0.626   8.903
 4276SOL     OW13387   2.428   0.232   8.609
 4276SOL    HW113388   2.454   0.141   8.622
 4276SOL    HW213389   2.337   0.236   8.640
 4277SOL     OW13390   2.733   0.461   8.087
 4277SOL    HW113391   2.684   0.514   8.024
 4277SOL    HW213392   2.751   0.379   8.041
 4278SOL     OW13393   2.855   0.043   8.226
 4278SOL    HW113394   2.824   0.063   8.138
 4278SOL    HW213395   2.865   3.948   8.226
 4279SOL     OW13396   3.297   1.164   8.306
 4279SOL    HW113397   3.231   1.095   8.303
 4279SOL    HW213398   3.323   1.177   8.215
 4280SOL     OW13399   3.329   0.603   8.429
 4280SOL    HW113400   3.282   0.520   8.435
 4280SOL    HW213401   3.391   0.600   8.502
 4281SOL     OW13402   3.721   0.823   7.823
 4281SOL    HW113403   3.764   0.766   7.887
 4281SOL    HW213404   3.682   0.763   7.760
 4282SOL     OW13405   3.527   1.265   8.098
 4282SOL    HW113406   3.622   1.271   8.105
 4282SOL    HW213407   3.496   1.354   8.118
 4283SOL     OW13408   3.256   0.572   7.518
 4283SOL    HW113409   3.195   0.554   7.590
 4283SOL    HW213410   3.342   0.551   7.555
 4284SOL     OW13411   2.389   0.265   7.768
 4284SOL    HW113412   2.436   0.222   7.696
 4284SOL    HW213413   2.366   0.352   7.733
 4285SOL     OW13414   3.615   1.234   9.023
 4285SOL    HW113415   3.702   1.198   9.006
 4285SOL    HW213416   3.631   1.322   9.056
 4286SOL     OW13417   2.922   1.353   8.782
 4286SOL    HW113418   2.848   1.322   8.834
 4286SOL    HW213419   2.998   1.312   8.824
 4287SOL     OW13420   3.466   1.626   9.099
 4287SOL    HW113421   3.463   1.660   9.009
 4287SOL    HW213422   3.549   1.579   9.104
 4288SOL     OW13423   2.988   1.201   8.555
 4288SOL    HW113424   2.930   1.240   8.622
 4288SOL    HW213425   2.951   1.231   8.472
 4289SOL     OW13426   3.495   1.100   8.525
 4289SOL    HW113427   3.489   1.161   8.599
 4289SOL    HW213428   3.414   1.114   8.476
 4290SOL     OW13429   2.776   0.109   8.851
 4290SOL    HW113430   2.796   0.085   8.760
 4290SOL    HW213431   2.856   0.152   8.882
 4291SOL     OW13432   2.846   1.114   9.170
 4291SOL    HW113433   2.753   1.130   9.190
 4291SOL    HW213434   2.846   1.037   9.114
 4292SOL     OW13435   2.561   1.049   7.819
 4292SOL    HW113436   2.555   1.043   7.914
 4292SOL    HW213437   2.643   1.004   7.797
 4293SOL     OW13438   2.279   0.814   8.699
 4293SOL    HW113439   2.348   0.822   8.765
 4293SOL    HW213440   2.244   0.726   8.713
 4294SOL     OW13441   3.129   0.376   8.722
 4294SOL    HW113442   3.164   0.453   8.767
 4294SOL    HW213443   3.043   0.403   8.690
 4295SOL     OW13444   1.932   1.577   8.801
 4295SOL    HW113445   1.895   1.639   8.738
 4295SOL    HW213446   2.027   1.579   8.784
 4296SOL     OW13447   2.221   1.104   7.941
 4296SOL    HW113448   2.216   1.173   7.875
 4296SOL    HW213449   2.217   1.022   7.892
 4297SOL     OW13450   2.420   0.537   8.307
 4297SOL    HW113451   2.436   0.596   8.234
 4297SOL    HW213452   2.481   0.566   8.375
 4298SOL     OW13453   3.112   1.347   7.835
 4298SOL    HW113454   3.167   1.419   7.866
 4298SOL    HW213455   3.025   1.366   7.871
 4299SOL     OW13456   3.139   1.455   8.594
 4299SOL    HW113457   3.194   1.459   8.672
 4299SOL    HW213458   3.085   1.377   8.607
 4300SOL     OW13459   3.439   0.630   7.929
 4300SOL    HW113460   3.402   0.693   7.991
 4300SOL    HW213461   3.489   0.685   7.867
 4301SOL     OW13462   2.212   1.521   8.765
 4301SOL    HW113463   2.198   1.479   8.681
 4301SOL    HW213464   2.307   1.532   8.771
 4302SOL     OW13465   2.274   0.745   9.049
 4302SOL    HW113466   2.335   0.790   8.991
 4302SOL    HW213467   2.315   0.660   9.065
 4303SOL     OW13468   3.459   0.775   9.126
 4303SOL    HW113469   3.374   0.817   9.119
 4303SOL    HW213470   3.512   0.818   9.059
 4304SOL     OW13471   2.887   0.117   9.225
 4304SOL    HW113472   2.912   0.198   9.181
 4304SOL    HW213473   2.875   0.054   9.155
 4305SOL     OW13474   2.346   0.035   9.213
 4305SOL    HW113475   2.354   0.035   9.117
 4305SOL    HW213476   2.289   0.110   9.232
 4306SOL     OW13477   2.445   0.872   8.480
 4306SOL    HW113478   2.472   0.964   8.477
 4306SOL    HW213479   2.387   0.866   8.555
 4307SOL     OW13480   3.222   0.859   8.481
 4307SOL    HW113481   3.141   0.852   8.431
 4307SOL    HW213482   3.260   0.771   8.478
 4308SOL     OW13483   3.069   0.533   7.714
 4308SOL    HW113484   3.076   0.454   7.767
 4308SOL    HW213485   3.026   0.596   7.772
 4309SOL     OW13486   2.165   0.213   8.689
 4309SOL    HW113487   2.130   0.242   8.773
 4309SOL    HW213488   2.150   0.119   8.687
 4310SOL     OW13489   1.907   1.312   8.727
 4310SOL    HW113490   1.942   1.258   8.798
 4310SOL    HW213491   1.915   1.402   8.759
 4311SOL     OW13492   2.589   0.634   8.507
 4311SOL    HW113493   2.660   0.616   8.445
 4311SOL    HW213494   2.560   0.722   8.484
 4312SOL     OW13495   3.596   0.955   9.304
 4312SOL    HW113496   3.548   0.907   9.237
 4312SOL    HW213497   3.532   0.969   9.374
 4313SOL     OW13498   2.182   0.058   8.091
 4313SOL    HW113499   2.159   0.150   8.102
 4313SOL    HW213500   2.142   0.014   8.165
 4314SOL     OW13501   3.464   0.384   7.830
 4314SOL    HW113502   3.447   0.316   7.894
 4314SOL    HW213503   3.442   0.466   7.874
 4315SOL     OW13504   2.889   0.760   8.410
 4315SOL    HW113505   2.888   0.777   8.504
 4315SOL    HW213506   2.862   0.668   8.402
 4316SOL     OW13507   2.844   1.566   9.162
 4316SOL    HW113508   2.829   1.610   9.079
 4316SOL    HW213509   2.887   1.484   9.139
 4317SOL     OW13510   3.710   1.508   9.050
 4317SOL    HW113511   3.730   1.533   8.960
 4317SOL    HW213512   3.791   1.524   9.098
 4318SOL     OW13513   2.215   0.915   9.256
 4318SOL    HW113514   2.297   0.934   9.301
 4318SOL    HW213515   2.239   0.854   9.186
 4319SOL     OW13516   3.373   0.276   7.584
 4319SOL    HW113517   3.297   0.219   7.597
 4319SOL    HW213518   3.388   0.317   7.668
 4320SOL     OW13519   3.156   0.827   7.480
 4320SOL    HW113520   3.198   0.741   7.483
 4320SOL    HW213521   3.187   0.866   7.399
 4321SOL     OW13522   2.923   1.337   8.297
 4321SOL    HW113523   2.928   1.262   8.238
 4321SOL    HW213524   2.990   1.397   8.266
 4322SOL     OW13525   2.172   0.810   8.397
 4322SOL    HW113526   2.265   0.831   8.390
 4322SOL    HW213527   2.170   0.720   8.430
 4323SOL     OW13528   2.199   0.530   8.460
 4323SOL    HW113529   2.158   0.445   8.444
 4323SOL    HW213530   2.275   0.532   8.401
 4324SOL     OW13531   2.996   0.384   9.136
 4324SOL    HW113532   2.949   0.439   9.199
 4324SOL    HW213533   3.084   0.422   9.132
 4325SOL     OW13534   3.014   0.223   8.929
 4325SOL    HW113535   3.006   0.278   9.007
 4325SOL    HW213536   3.034   0.285   8.858
 4326SOL     OW13537   1.975   1.733   8.431
 4326SOL    HW113538   1.933   1.674   8.368
 4326SOL    HW213539   2.031   1.788   8.377
 4327SOL     OW13540   2.365   1.570   8.358
 4327SOL    HW113541   2.432   1.636   8.378
 4327SOL    HW213542   2.410   1.505   8.304
 4328SOL     OW13543   2.849   0.793   8.676
 4328SOL    HW113544   2.901   0.769   8.752
 4328SOL    HW213545   2.762   0.758   8.694
 4329SOL     OW13546   1.896   0.545   8.565
 4329SOL    HW113547   1.973   0.518   8.514
 4329SOL    HW213548   1.927   0.549   8.655
 4330SOL     OW13549   2.063   0.526   9.165
 4330SOL    HW113550   2.126   0.499   9.098
 4330SOL    HW213551   2.013   0.597   9.124
 4331SOL     OW13552   3.239   0.941   9.108
 4331SOL    HW113553   3.259   1.035   9.108
 4331SOL    HW213554   3.236   0.917   9.015
 4332SOL     OW13555   2.678   0.571   7.803
 4332SOL    HW113556   2.682   0.494   7.746
 4332SOL    HW213557   2.602   0.620   7.772
 4333SOL     OW13558   3.504   0.602   8.637
 4333SOL    HW113559   3.493   0.540   8.710
 4333SOL    HW213560   3.590   0.579   8.600
 4334SOL     OW13561   2.116   1.540   9.161
 4334SOL    HW113562   2.101   1.611   9.223
 4334SOL    HW213563   2.113   1.460   9.214
 4335SOL     OW13564   2.557   0.458   8.711
 4335SOL    HW113565   2.511   0.379   8.682
 4335SOL    HW213566   2.554   0.516   8.635
 4336SOL     OW13567   2.792   1.679   8.914
 4336SOL    HW113568   2.765   1.649   8.827
 4336SOL    HW213569   2.792   1.774   8.908
 4337SOL     OW13570   2.329   0.494   7.636
 4337SOL    HW113571   2.386   0.568   7.656
 4337SOL    HW213572   2.242   0.533   7.625
 4338SOL     OW13573   2.010   1.140   8.919
 4338SOL    HW113574   2.015   1.086   8.998
 4338SOL    HW213575   2.027   1.078   8.848
 4339SOL     OW13576   3.190   1.048   8.673
 4339SOL    HW113577   3.215   0.986   8.605
 4339SOL    HW213578   3.118   1.098   8.635
 4340SOL     OW13579   3.171   0.855   7.755
 4340SOL    HW113580   3.093   0.826   7.804
 4340SOL    HW213581   3.147   0.843   7.663
 4341SOL     OW13582   3.634   1.747   8.599
 4341SOL    HW113583   3.690   1.774   8.526
 4341SOL    HW213584   3.608   1.657   8.578
 4342SOL     OW13585   3.103   1.733   8.564
 4342SOL    HW113586   3.185   1.752   8.518
 4342SOL    HW213587   3.107   1.639   8.582
 4343SOL     OW13588   1.947   1.264   8.463
 4343SOL    HW113589   1.932   1.276   8.556
 4343SOL    HW213590   1.871   1.212   8.433
 4344SOL     OW13591   2.538   1.663   9.171
 4344SOL    HW113592   2.490   1.746   9.173
 4344SOL    HW213593   2.602   1.675   9.101
 4345SOL     OW13594   3.557   0.127   7.934
 4345SOL    HW113595   3.640   0.133   7.886
 4345SOL    HW213596   3.553   0.035   7.962
 4346SOL     OW13597   3.251   1.568   7.930
 4346SOL    HW113598   3.313   1.597   7.864
 4346SOL    HW213599   3.205   1.648   7.958
 4347SOL     OW13600   2.041   1.746   9.309
 4347SOL    HW113601   1.972   1.699   9.356
 4347SOL    HW213602   2.010   1.837   9.305
 4348SOL     OW13603   3.139   0.924   8.119
 4348SOL    HW113604   3.213   0.863   8.124
 4348SOL    HW213605   3.173   0.998   8.067
 4349SOL     OW13606   2.680   1.272   8.879
 4349SOL    HW113607   2.655   1.310   8.963
 4349SOL    HW213608   2.608   1.293   8.820
 4350SOL     OW13609   3.491   1.726   8.839
 4350SOL    HW113610   3.542   1.733   8.759
 4350SOL    HW213611   3.479   1.817   8.868
 4351SOL     OW13612   3.701   0.178   8.418
 4351SOL    HW113613   3.728   0.096   8.376
 4351SOL    HW213614   3.614   0.196   8.382
 4352SOL     OW13615   2.128   0.320   8.164
 4352SOL    HW113616   2.042   0.355   8.142
 4352SOL    HW213617   2.125   0.306   8.259
 4353SOL     OW13618   3.066   1.609   7.481
 4353SOL    HW113619   3.059   1.517   7.504
 4353SOL    HW213620   3.005   1.621   7.408
 4354SOL     OW13621   2.687   1.006   8.820
 4354SOL    HW113622   2.729   1.003   8.734
 4354SOL    HW213623   2.687   1.098   8.844
 4355SOL     OW13624   2.778   0.911   7.736
 4355SOL    HW113625   2.841   0.943   7.672
 4355SOL    HW213626   2.824   0.840   7.781
 4356SOL     OW13627   3.357   1.624   7.490
 4356SOL    HW113628   3.262   1.622   7.478
 4356SOL    HW213629   3.392   1.630   7.401
 4357SOL     OW13630   2.232   1.299   8.939
 4357SOL    HW113631   2.217   1.378   8.887
 4357SOL    HW213632   2.155   1.245   8.923
 4358SOL     OW13633   3.467   1.281   8.728
 4358SOL    HW113634   3.534   1.277   8.797
 4358SOL    HW213635   3.410   1.353   8.754
 4359SOL     OW13636   2.911   1.106   8.155
 4359SOL    HW113637   2.840   1.053   8.193
 4359SOL    HW213638   2.971   1.041   8.118
 4360SOL     OW13639   2.877   0.246   8.415
 4360SOL    HW113640   2.866   0.197   8.333
 4360SOL    HW213641   2.869   0.180   8.484
 4361SOL     OW13642   3.581   0.390   8.824
 4361SOL    HW113643   3.651   0.455   8.822
 4361SOL    HW213644   3.612   0.319   8.768
 4362SOL     OW13645   1.974   1.019   9.167
 4362SOL    HW113646   1.898   0.996   9.221
 4362SOL    HW213647   2.049   0.983   9.215
 4363SOL     OW13648   2.552   0.237   8.943
 4363SOL    HW113649   2.623   0.187   8.903
 4363SOL    HW213650   2.576   0.244   9.036
 4364SOL     OW13651   1.959   0.322   7.438
 4364SOL    HW113652   1.873   0.335   7.478
 4364SOL    HW213653   1.979   0.406   7.396
 4365SOL     OW13654   3.292   0.858   8.849
 4365SOL    HW113655   3.244   0.918   8.793
 4365SOL    HW213656   3.382   0.860   8.815
 4366SOL     OW13657   1.947   0.155   7.788
 4366SOL    HW113658   1.914   0.220   7.726
 4366SOL    HW213659   2.029   0.125   7.751
 4367SOL     OW13660   3.041   1.342   7.566
 4367SOL    HW113661   2.955   1.302   7.571
 4367SOL    HW213662   3.074   1.342   7.656
 4368SOL     OW13663   2.480   0.831   8.880
 4368SOL    HW113664   2.536   0.907   8.866
 4368SOL    HW213665   2.542   0.758   8.889
 4369SOL     OW13666   3.347   1.776   8.423
 4369SOL    HW113667   3.374   1.833   8.351
 4369SOL    HW213668   3.428   1.757   8.470
 4370SOL     OW13669   2.579   0.564   9.154
 4370SOL    HW113670   2.615   0.628   9.216
 4370SOL    HW213671   2.615   0.480   9.183
 4371SOL     OW13672   3.330   1.203   9.081
 4371SOL    HW113673   3.319   1.216   9.175
 4371SOL    HW213674   3.424   1.216   9.066
 4372SOL     OW13675   2.242   1.744   9.018
 4372SOL    HW113676   2.154   1.766   8.987
 4372SOL    HW213677   2.233   1.657   9.057
 4373SOL     OW13678   3.530   0.882   8.706
 4373SOL    HW113679   3.527   0.797   8.663
 4373SOL    HW213680   3.526   0.945   8.635
 4374SOL     OW13681   3.086   0.332   7.896
 4374SOL    HW113682   3.153   0.264   7.886
 4374SOL    HW213683   3.110   0.377   7.976
 4375SOL     OW13684   2.454   0.741   8.115
 4375SOL    HW113685   2.493   0.826   8.097
 4375SOL    HW213686   2.383   0.733   8.051
 4376SOL     OW13687   3.620   0.377   9.090
 4376SOL    HW113688   3.601   0.383   8.997
 4376SOL    HW213689   3.559   0.310   9.123
 4377SOL     OW13690   3.610   0.932   8.963
 4377SOL    HW113691   3.610   1.027   8.976
 4377SOL    HW213692   3.591   0.921   8.869
 4378SOL     OW13693   2.717   1.372   7.472
 4378SOL    HW113694   2.699   1.415   7.555
 4378SOL    HW213695   2.751   1.442   7.416
 4379SOL     OW13696   2.522   1.795   8.391
 4379SOL    HW113697   2.501   1.886   8.372
 4379SOL    HW213698   2.618   1.792   8.391
 4380SOL     OW13699   2.728   0.964   8.305
 4380SOL    HW113700   2.778   0.894   8.345
 4380SOL    HW213701   2.695   1.015   8.379
 4381SOL     OW13702   2.943   0.990   7.536
 4381SOL    HW113703   2.921   1.038   7.456
 4381SOL    HW213704   3.018   0.935   7.511
 4382SOL     OW13705   3.720   1.557   8.291
 4382SOL    HW113706   3.642   1.542   8.237
 4382SOL    HW213707   3.716   1.490   8.359
 4383SOL     OW13708   2.086   1.304   9.304
 4383SOL    HW113709   2.018   1.241   9.278
 4383SOL    HW213710   2.073   1.315   9.399
 4384SOL     OW13711   1.941   1.230   8.107
 4384SOL    HW113712   1.944   1.183   8.190
 4384SOL    HW213713   2.010   1.190   8.054
 4385SOL     OW13714   2.540   1.401   9.072
 4385SOL    HW113715   2.462   1.357   9.104
 4385SOL    HW213716   2.536   1.488   9.111
 4386SOL     OW13717   3.677   0.183   8.691
 4386SOL    HW113718   3.680   0.088   8.699
 4386SOL    HW213719   3.693   0.199   8.597
 4387SOL     OW13720   2.291   0.434   7.972
 4387SOL    HW113721   2.321   0.361   7.917
 4387SOL    HW213722   2.245   0.392   8.045
 4388SOL     OW13723   3.562   1.492   8.550
 4388SOL    HW113724   3.482   1.465   8.505
 4388SOL    HW213725   3.579   1.423   8.613
 4389SOL     OW13726   2.188   0.553   8.739
 4389SOL    HW113727   2.243   0.496   8.794
 4389SOL    HW213728   2.210   0.526   8.649
 4390SOL     OW13729   2.679   1.585   8.124
 4390SOL    HW113730   2.684   1.590   8.029
 4390SOL    HW213731   2.609   1.522   8.142
 4391SOL     OW13732   3.322   0.249   8.560
 4391SOL    HW113733   3.337   0.162   8.596
 4391SOL    HW213734   3.263   0.291   8.623
 4392SOL     OW13735   2.869   0.030   8.596
 4392SOL    HW113736   2.795   3.976   8.568
 4392SOL    HW213737   2.943   3.969   8.603
 4393SOL     OW13738   2.482   1.558   8.733
 4393SOL    HW113739   2.485   1.640   8.783
 4393SOL    HW213740   2.569   1.551   8.695
 4394SOL     OW13741   3.180   0.072   7.610
 4394SOL    HW113742   3.200   0.007   7.542
 4394SOL    HW213743   3.095   0.045   7.645
 4395SOL     OW13744   3.149   0.458   8.136
 4395SOL    HW113745   3.100   0.540   8.135
 4395SOL    HW213746   3.154   0.435   8.229
 4396SOL     OW13747   3.451   0.211   8.315
 4396SOL    HW113748   3.399   0.231   8.393
 4396SOL    HW213749   3.451   0.292   8.264
 4397SOL     OW13750   1.903   1.073   7.767
 4397SOL    HW113751   1.992   1.071   7.732
 4397SOL    HW213752   1.882   0.982   7.785
 4398SOL     OW13753   2.731   1.641   7.811
 4398SOL    HW113754   2.669   1.617   7.742
 4398SOL    HW213755   2.718   1.735   7.823
 4399SOL     OW13756   2.093   0.622   9.431
 4399SOL    HW113757   2.003   0.625   9.462
 4399SOL    HW213758   2.086   0.600   9.338
 4400SOL     OW13759   2.079   0.295  10.300
 4400SOL    HW113760   2.117   0.256  10.379
 4400SOL    HW213761   1.997   0.249  10.287
 4401SOL     OW13762   1.872   0.392   9.948
 4401SOL    HW113763   1.784   0.408   9.984
 4401SOL    HW213764   1.861   0.319   9.887
 4402SOL     OW13765   2.429   1.282  10.482
 4402SOL    HW113766   2.341   1.285  10.443
 4402SOL    HW213767   2.443   1.371  10.515
 4403SOL     OW13768   3.419   1.511  10.015
 4403SOL    HW113769   3.375   1.494  10.099
 4403SOL    HW213770   3.348   1.517   9.951
 4404SOL     OW13771   2.993   0.699  10.014
 4404SOL    HW113772   3.042   0.779   9.999
 4404SOL    HW213773   2.945   0.714  10.096
 4405SOL     OW13774   3.618   0.620   9.540
 4405SOL    HW113775   3.604   0.608   9.446
 4405SOL    HW213776   3.607   0.532   9.578
 4406SOL     OW13777   2.622   1.144  10.348
 4406SOL    HW113778   2.551   1.177  10.404
 4406SOL    HW213779   2.655   1.222  10.303
 4407SOL     OW13780   2.725   0.780  11.132
 4407SOL    HW113781   2.712   0.852  11.194
 4407SOL    HW213782   2.748   0.823  11.050
 4408SOL     OW13783   2.549   1.006   9.959
 4408SOL    HW113784   2.612   0.992  10.029
 4408SOL    HW213785   2.478   1.057  10.000
 4409SOL     OW13786   2.570   1.152  11.119
 4409SOL    HW113787   2.617   1.231  11.144
 4409SOL    HW213788   2.486   1.184  11.086
 4410SOL     OW13789   2.194   1.427  10.379
 4410SOL    HW113790   2.119   1.394  10.328
 4410SOL    HW213791   2.244   1.480  10.316
 4411SOL     OW13792   3.323   1.499  10.660
 4411SOL    HW113793   3.368   1.583  10.671
 4411SOL    HW213794   3.269   1.490  10.739
 4412SOL     OW13795   2.303   0.398  10.806
 4412SOL    HW113796   2.389   0.356  10.804
 4412SOL    HW213797   2.241   0.325  10.813
 4413SOL     OW13798   3.474   0.450  10.047
 4413SOL    HW113799   3.401   0.483   9.994
 4413SOL    HW213800   3.502   0.526  10.099
 4414SOL     OW13801   2.092   1.700   9.773
 4414SOL    HW113802   2.112   1.768   9.837
 4414SOL    HW213803   2.166   1.701   9.713
 4415SOL     OW13804   2.998   1.341  11.001
 4415SOL    HW113805   3.037   1.338  11.088
 4415SOL    HW213806   2.945   1.261  10.996
 4416SOL     OW13807   2.090   1.434   9.845
 4416SOL    HW113808   2.077   1.529   9.843
 4416SOL    HW213809   2.027   1.403   9.909
 4417SOL     OW13810   2.116   1.090  10.199
 4417SOL    HW113811   2.113   1.004  10.242
 4417SOL    HW213812   2.059   1.145  10.253
 4418SOL     OW13813   2.477   1.790  10.743
 4418SOL    HW113814   2.394   1.774  10.788
 4418SOL    HW213815   2.500   1.880  10.767
 4419SOL     OW13816   2.451   0.979   9.442
 4419SOL    HW113817   2.494   1.032   9.374
 4419SOL    HW213818   2.492   1.009   9.523
 4420SOL     OW13819   3.441   0.134  10.769
 4420SOL    HW113820   3.459   0.209  10.712
 4420SOL    HW213821   3.420   0.172  10.854
 4421SOL     OW13822   1.976   0.652   9.869
 4421SOL    HW113823   1.949   0.563   9.892
 4421SOL    HW213824   1.969   0.701   9.951
 4422SOL     OW13825   3.700   1.759   9.648
 4422SOL    HW113826   3.763   1.733   9.714
 4422SOL    HW213827   3.724   1.849   9.625
 4423SOL     OW13828   1.864   1.601   9.451
 4423SOL    HW113829   1.863   1.505   9.446
 4423SOL    HW213830   1.870   1.620   9.544
 4424SOL     OW13831   3.549   0.917   9.947
 4424SOL    HW113832   3.635   0.878   9.934
 4424SOL    HW213833   3.533   0.969   9.868
 4425SOL     OW13834   3.504   1.108   9.741
 4425SOL    HW113835   3.588   1.116   9.696
 4425SOL    HW213836   3.510   1.169   9.815
 4426SOL     OW13837   1.983   0.746  10.893
 4426SOL    HW113838   2.075   0.768  10.908
 4426SOL    HW213839   1.937   0.830  10.901
 4427SOL     OW13840   2.475   1.382  10.044
 4427SOL    HW113841   2.428   1.299  10.054
 4427SOL    HW213842   2.457   1.410   9.955
 4428SOL     OW13843   3.152   1.239  10.734
 4428SOL    HW113844   3.185   1.172  10.674
 4428SOL    HW213845   3.208   1.231  10.812
 4429SOL     OW13846   2.677   0.001   9.823
 4429SOL    HW113847   2.722   0.083   9.803
 4429SOL    HW213848   2.585   0.024   9.826
 4430SOL     OW13849   2.054   0.968  10.579
 4430SOL    HW113850   2.138   0.925  10.564
 4430SOL    HW213851   1.990   0.911  10.536
 4431SOL     OW13852   3.392   0.992   9.507
 4431SOL    HW113853   3.323   0.934   9.538
 4431SOL    HW213854   3.432   1.026   9.586
 4432SOL     OW13855   3.047   1.804  10.930
 4432SOL    HW113856   3.063   1.861  10.854
 4432SOL    HW213857   3.062   1.715  10.897
 4433SOL     OW13858   2.209   0.255  11.122
 4433SOL    HW113859   2.255   0.339  11.127
 4433SOL    HW213860   2.117   0.276  11.140
 4434SOL     OW13861   3.327   1.420  10.263
 4434SOL    HW113862   3.259   1.434  10.329
 4434SOL    HW213863   3.316   1.329  10.236
 4435SOL     OW13864   3.521   1.734   9.888
 4435SOL    HW113865   3.501   1.705   9.799
 4435SOL    HW213866   3.497   1.660   9.944
 4436SOL     OW13867   2.457   0.723   9.574
 4436SOL    HW113868   2.465   0.803   9.522
 4436SOL    HW213869   2.393   0.744   9.641
 4437SOL     OW13870   3.139   0.361  10.250
 4437SOL    HW113871   3.052   0.321  10.254
 4437SOL    HW213872   3.196   0.300  10.297
 4438SOL     OW13873   3.442   1.668   9.619
 4438SOL    HW113874   3.531   1.703   9.614
 4438SOL    HW213875   3.418   1.651   9.528
 4439SOL     OW13876   2.659   0.615  10.764
 4439SOL    HW113877   2.629   0.593  10.853
 4439SOL    HW213878   2.615   0.552  10.708
 4440SOL     OW13879   3.255   0.476  10.987
 4440SOL    HW113880   3.256   0.520  11.072
 4440SOL    HW213881   3.317   0.404  10.996
 4441SOL     OW13882   2.820   0.889  10.891
 4441SOL    HW113883   2.874   0.818  10.857
 4441SOL    HW213884   2.772   0.922  10.815
 4442SOL     OW13885   2.853   0.403  10.552
 4442SOL    HW113886   2.772   0.432  10.595
 4442SOL    HW213887   2.824   0.371  10.467
 4443SOL     OW13888   2.912   0.698   9.737
 4443SOL    HW113889   2.926   0.692   9.831
 4443SOL    HW213890   2.830   0.652   9.721
 4444SOL     OW13891   1.950   0.821  10.086
 4444SOL    HW113892   2.032   0.812  10.135
 4444SOL    HW213893   1.909   0.899  10.121
 4445SOL     OW13894   2.752   0.348   9.509
 4445SOL    HW113895   2.793   0.407   9.446
 4445SOL    HW213896   2.755   0.262   9.467
 4446SOL     OW13897   3.575   0.576  11.138
 4446SOL    HW113898   3.538   0.653  11.096
 4446SOL    HW213899   3.595   0.516  11.066
 4447SOL     OW13900   3.236   1.142   9.852
 4447SOL    HW113901   3.315   1.128   9.800
 4447SOL    HW213902   3.185   1.205   9.801
 4448SOL     OW13903   2.416   0.197  10.193
 4448SOL    HW113904   2.420   0.213  10.287
 4448SOL    HW213905   2.414   0.284  10.154
 4449SOL     OW13906   2.870   1.446   9.784
 4449SOL    HW113907   2.829   1.517   9.735
 4449SOL    HW213908   2.856   1.468   9.875
 4450SOL     OW13909   2.222   1.798  10.148
 4450SOL    HW113910   2.260   1.713  10.171
 4450SOL    HW213911   2.289   1.862  10.174
 4451SOL     OW13912   3.664   1.063  10.176
 4451SOL    HW113913   3.607   1.044  10.101
 4451SOL    HW213914   3.605   1.066  10.251
 4452SOL     OW13915   3.089   1.540  10.823
 4452SOL    HW113916   3.076   1.467  10.883
 4452SOL    HW213917   3.029   1.523  10.750
 4453SOL     OW13918   2.183   0.956   9.558
 4453SOL    HW113919   2.266   0.975   9.513
 4453SOL    HW213920   2.153   0.874   9.519
 4454SOL     OW13921   3.337   0.738  10.040
 4454SOL    HW113922   3.328   0.694  10.124
 4454SOL    HW213923   3.414   0.795  10.050
 4455SOL     OW13924   2.327   1.263  11.047
 4455SOL    HW113925   2.298   1.268  10.956
 4455SOL    HW213926   2.245   1.261  11.098
 4456SOL     OW13927   2.983   1.777   9.542
 4456SOL    HW113928   2.911   1.734   9.588
 4456SOL    HW213929   3.004   1.718   9.470
 4457SOL     OW13930   2.040   0.278  10.806
 4457SOL    HW113931   1.975   0.349  10.804
 4457SOL    HW213932   2.048   0.256  10.899
 4458SOL     OW13933   3.490   1.380   9.397
 4458SOL    HW113934   3.448   1.465   9.382
 4458SOL    HW213935   3.421   1.316   9.378
 4459SOL     OW13936   2.334   1.723   9.647
 4459SOL    HW113937   2.369   1.794   9.700
 4459SOL    HW213938   2.393   1.717   9.572
 4460SOL     OW13939   3.295   0.158   9.714
 4460SOL    HW113940   3.257   0.090   9.658
 4460SOL    HW213941   3.376   0.119   9.748
 4461SOL     OW13942   2.157   1.766  10.544
 4461SOL    HW113943   2.195   1.685  10.577
 4461SOL    HW213944   2.120   1.742  10.459
 4462SOL     OW13945   2.800   1.698  10.210
 4462SOL    HW113946   2.877   1.645  10.231
 4462SOL    HW213947   2.754   1.649  10.141
 4463SOL     OW13948   2.253   0.695   9.788
 4463SOL    HW113949   2.276   0.603   9.797
 4463SOL    HW213950   2.159   0.699   9.807
 4464SOL     OW13951   3.396   0.234  11.036
 4464SOL    HW113952   3.395   0.256  11.129
 4464SOL    HW213953   3.357   0.146  11.033
 4465SOL     OW13954   2.501   0.139   9.414
 4465SOL    HW113955   2.542   0.062   9.454
 4465SOL    HW213956   2.439   0.103   9.351
 4466SOL     OW13957   2.641   0.281  11.072
 4466SOL    HW113958   2.701   0.207  11.082
 4466SOL    HW213959   2.577   0.269  11.142
 4467SOL     OW13960   2.739   1.521  10.503
 4467SOL    HW113961   2.724   1.485  10.416
 4467SOL    HW213962   2.808   1.466  10.540
 4468SOL     OW13963   3.205   0.587  10.740
 4468SOL    HW113964   3.234   0.558  10.827
 4468SOL    HW213965   3.238   0.676  10.732
 4469SOL     OW13966   2.675   1.398  10.246
 4469SOL    HW113967   2.759   1.388  10.201
 4469SOL    HW213968   2.610   1.395  10.176
 4470SOL     OW13969   2.790   0.510  10.213
 4470SOL    HW113970   2.766   0.502  10.121
 4470SOL    HW213971   2.821   0.422  10.238
 4471SOL     OW13972   2.409   0.058   9.806
 4471SOL    HW113973   2.333   0.062   9.864
 4471SOL    HW213974   2.404   0.139   9.754
 4472SOL     OW13975   3.290   1.198   9.351
 4472SOL    HW113976   3.321   1.122   9.401
 4472SOL    HW213977   3.205   1.218   9.389
 4473SOL     OW13978   2.185   0.042   9.516
 4473SOL    HW113979   2.205   0.113   9.454
 4473SOL    HW213980   2.268   0.021   9.557
 4474SOL     OW13981   2.798   0.246   9.775
 4474SOL    HW113982   2.771   0.288   9.694
 4474SOL    HW213983   2.894   0.246   9.772
 4475SOL     OW13984   2.942   0.680  10.770
 4475SOL    HW113985   2.869   0.618  10.777
 4475SOL    HW213986   3.020   0.625  10.763
 4476SOL     OW13987   3.086   1.570  10.104
 4476SOL    HW113988   3.105   1.637  10.038
 4476SOL    HW213989   3.155   1.581  10.170
 4477SOL     OW13990   2.329   1.148  10.047
 4477SOL    HW113991   2.258   1.129  10.109
 4477SOL    HW213992   2.291   1.131   9.961
 4478SOL     OW13993   3.133   1.795   9.915
 4478SOL    HW113994   3.178   1.856   9.856
 4478SOL    HW213995   3.069   1.849   9.962
 4479SOL     OW13996   2.888   0.548   9.330
 4479SOL    HW113997   2.845   0.631   9.311
 4479SOL    HW213998   2.950   0.569   9.400
 4480SOL     OW13999   1.939   0.553  10.704
 4480SOL    HW114000   2.030   0.552  10.674
 4480SOL    HW214001   1.934   0.626  10.766
 4481SOL     OW14002   2.428   0.232  10.471
 4481SOL    HW114003   2.454   0.141  10.484
 4481SOL    HW214004   2.337   0.236  10.502
 4482SOL     OW14005   2.733   0.461   9.950
 4482SOL    HW114006   2.684   0.514   9.887
 4482SOL    HW214007   2.751   0.379   9.903
 4483SOL     OW14008   2.855   0.043  10.088
 4483SOL    HW114009   2.824   0.063  10.000
 4483SOL    HW214010   2.865   3.948  10.088
 4484SOL     OW14011   3.298   1.164  10.168
 4484SOL    HW114012   3.230   1.096  10.165
 4484SOL    HW214013   3.322   1.177  10.077
 4485SOL     OW14014   3.329   0.602  10.291
 4485SOL    HW114015   3.281   0.519  10.297
 4485SOL    HW214016   3.391   0.600  10.364
 4486SOL     OW14017   3.722   0.823   9.685
 4486SOL    HW114018   3.764   0.766   9.749
 4486SOL    HW214019   3.682   0.763   9.622
 4487SOL     OW14020   2.356   1.413   9.470
 4487SOL    HW114021   2.281   1.386   9.523
 4487SOL    HW214022   2.332   1.388   9.381
 4488SOL     OW14023   3.527   1.265   9.960
 4488SOL    HW114024   3.622   1.271   9.967
 4488SOL    HW214025   3.496   1.353   9.980
 4489SOL     OW14026   3.256   0.571   9.380
 4489SOL    HW114027   3.194   0.554   9.451
 4489SOL    HW214028   3.342   0.552   9.417
 4490SOL     OW14029   2.389   0.265   9.629
 4490SOL    HW114030   2.436   0.222   9.558
 4490SOL    HW214031   2.366   0.352   9.595
 4491SOL     OW14032   3.615   1.234  10.885
 4491SOL    HW114033   3.702   1.198  10.868
 4491SOL    HW214034   3.631   1.322  10.918
 4492SOL     OW14035   2.923   1.353  10.645
 4492SOL    HW114036   2.848   1.322  10.696
 4492SOL    HW214037   2.998   1.312  10.686
 4493SOL     OW14038   3.466   1.626  10.961
 4493SOL    HW114039   3.463   1.660  10.872
 4493SOL    HW214040   3.549   1.579  10.966
 4494SOL     OW14041   2.987   1.201  10.417
 4494SOL    HW114042   2.929   1.240  10.483
 4494SOL    HW214043   2.953   1.232  10.333
 4495SOL     OW14044   3.495   1.100  10.387
 4495SOL    HW114045   3.489   1.161  10.461
 4495SOL    HW214046   3.415   1.114  10.337
 4496SOL     OW14047   2.776   0.109  10.713
 4496SOL    HW114048   2.796   0.086  10.622
 4496SOL    HW214049   2.856   0.152  10.744
 4497SOL     OW14050   2.846   1.114  11.032
 4497SOL    HW114051   2.753   1.130  11.052
 4497SOL    HW214052   2.846   1.037  10.976
 4498SOL     OW14053   2.570   1.060   9.682
 4498SOL    HW114054   2.556   1.046   9.775
 4498SOL    HW214055   2.646   1.007   9.660
 4499SOL     OW14056   2.279   0.814  10.561
 4499SOL    HW114057   2.348   0.823  10.627
 4499SOL    HW214058   2.244   0.726  10.575
 4500SOL     OW14059   3.129   0.376  10.584
 4500SOL    HW114060   3.164   0.453  10.629
 4500SOL    HW214061   3.043   0.403  10.552
 4501SOL     OW14062   1.932   1.576  10.661
 4501SOL    HW114063   1.895   1.641  10.602
 4501SOL    HW214064   2.027   1.582  10.648
 4502SOL     OW14065   2.216   1.106   9.802
 4502SOL    HW114066   2.219   1.180   9.742
 4502SOL    HW214067   2.214   1.029   9.745
 4503SOL     OW14068   2.420   0.537  10.169
 4503SOL    HW114069   2.436   0.596  10.096
 4503SOL    HW214070   2.481   0.566  10.237
 4504SOL     OW14071   3.110   1.348   9.699
 4504SOL    HW114072   3.165   1.420   9.730
 4504SOL    HW214073   3.023   1.368   9.733
 4505SOL     OW14074   3.139   1.456  10.456
 4505SOL    HW114075   3.194   1.458  10.534
 4505SOL    HW214076   3.084   1.378  10.468
 4506SOL     OW14077   3.440   0.630   9.791
 4506SOL    HW114078   3.402   0.692   9.854
 4506SOL    HW214079   3.488   0.686   9.729
 4507SOL     OW14080   2.215   1.514  10.630
 4507SOL    HW114081   2.200   1.474  10.544
 4507SOL    HW214082   2.310   1.527  10.634
 4508SOL     OW14083   2.274   0.745  10.911
 4508SOL    HW114084   2.335   0.791  10.853
 4508SOL    HW214085   2.315   0.660  10.927
 4509SOL     OW14086   3.459   0.775  10.987
 4509SOL    HW114087   3.374   0.817  10.981
 4509SOL    HW214088   3.512   0.818  10.920
 4510SOL     OW14089   2.887   0.117  11.087
 4510SOL    HW114090   2.912   0.198  11.043
 4510SOL    HW214091   2.874   0.054  11.017
 4511SOL     OW14092   2.346   0.035  11.075
 4511SOL    HW114093   2.354   0.035  10.979
 4511SOL    HW214094   2.289   0.110  11.094
 4512SOL     OW14095   2.445   0.872  10.341
 4512SOL    HW114096   2.473   0.963  10.338
 4512SOL    HW214097   2.387   0.867  10.418
 4513SOL     OW14098   3.222   0.859  10.343
 4513SOL    HW114099   3.141   0.852  10.293
 4513SOL    HW214100   3.260   0.771  10.340
 4514SOL     OW14101   3.069   0.533   9.576
 4514SOL    HW114102   3.076   0.454   9.629
 4514SOL    HW214103   3.026   0.597   9.633
 4515SOL     OW14104   2.165   0.213  10.551
 4515SOL    HW114105   2.130   0.242  10.635
 4515SOL    HW214106   2.150   0.119  10.549
 4516SOL     OW14107   1.906   1.312  10.589
 4516SOL    HW114108   1.941   1.258  10.660
 4516SOL    HW214109   1.916   1.402  10.620
 4517SOL     OW14110   2.589   0.634  10.368
 4517SOL    HW114111   2.660   0.616  10.307
 4517SOL    HW214112   2.560   0.722  10.347
 4518SOL     OW14113   3.596   0.955  11.167
 4518SOL    HW114114   3.548   0.908  11.099
 4518SOL    HW214115   3.532   0.969  11.236
 4519SOL     OW14116   2.182   0.058   9.952
 4519SOL    HW114117   2.159   0.150   9.965
 4519SOL    HW214118   2.142   0.014  10.027
 4520SOL     OW14119   3.465   0.384   9.692
 4520SOL    HW114120   3.447   0.316   9.756
 4520SOL    HW214121   3.442   0.466   9.736
 4521SOL     OW14122   2.889   0.760  10.272
 4521SOL    HW114123   2.888   0.777  10.366
 4521SOL    HW214124   2.862   0.668  10.264
 4522SOL     OW14125   2.845   1.566  11.024
 4522SOL    HW114126   2.829   1.610  10.941
 4522SOL    HW214127   2.887   1.484  11.001
 4523SOL     OW14128   3.710   1.508  10.912
 4523SOL    HW114129   3.730   1.533  10.822
 4523SOL    HW214130   3.791   1.524  10.960
 4524SOL     OW14131   2.215   0.915  11.118
 4524SOL    HW114132   2.297   0.935  11.162
 4524SOL    HW214133   2.239   0.854  11.049
 4525SOL     OW14134   3.374   0.275   9.446
 4525SOL    HW114135   3.297   0.219   9.459
 4525SOL    HW214136   3.388   0.317   9.530
 4526SOL     OW14137   3.156   0.827   9.342
 4526SOL    HW114138   3.198   0.741   9.345
 4526SOL    HW214139   3.187   0.866   9.261
 4527SOL     OW14140   2.927   1.335  10.162
 4527SOL    HW114141   2.930   1.262  10.101
 4527SOL    HW214142   2.990   1.398  10.128
 4528SOL     OW14143   2.172   0.810  10.259
 4528SOL    HW114144   2.265   0.831  10.252
 4528SOL    HW214145   2.170   0.720  10.292
 4529SOL     OW14146   2.199   0.530  10.322
 4529SOL    HW114147   2.158   0.445  10.306
 4529SOL    HW214148   2.275   0.532  10.263
 4530SOL     OW14149   2.996   0.384  10.999
 4530SOL    HW114150   2.949   0.439  11.061
 4530SOL    HW214151   3.084   0.422  10.994
 4531SOL     OW14152   3.014   0.223  10.791
 4531SOL    HW114153   3.006   0.278  10.869
 4531SOL    HW214154   3.034   0.285  10.720
 4532SOL     OW14155   1.866   1.322   9.504
 4532SOL    HW114156   1.778   1.334   9.468
 4532SOL    HW214157   1.866   1.232   9.538
 4533SOL     OW14158   1.973   1.735  10.291
 4533SOL    HW114159   1.935   1.674  10.228
 4533SOL    HW214160   2.022   1.797  10.237
 4534SOL     OW14161   2.363   1.570  10.219
 4534SOL    HW114162   2.432   1.634  10.241
 4534SOL    HW214163   2.407   1.507  10.162
 4535SOL     OW14164   2.850   0.793  10.537
 4535SOL    HW114165   2.901   0.769  10.615
 4535SOL    HW214166   2.762   0.759  10.556
 4536SOL     OW14167   1.896   0.544  10.427
 4536SOL    HW114168   1.973   0.519  10.376
 4536SOL    HW214169   1.927   0.549  10.517
 4537SOL     OW14170   2.062   0.526  11.027
 4537SOL    HW114171   2.126   0.500  10.960
 4537SOL    HW214172   2.013   0.597  10.986
 4538SOL     OW14173   3.239   0.941  10.970
 4538SOL    HW114174   3.259   1.035  10.970
 4538SOL    HW214175   3.236   0.917  10.877
 4539SOL     OW14176   2.678   0.571   9.665
 4539SOL    HW114177   2.681   0.494   9.608
 4539SOL    HW214178   2.602   0.621   9.634
 4540SOL     OW14179   3.504   0.602  10.499
 4540SOL    HW114180   3.493   0.540  10.572
 4540SOL    HW214181   3.590   0.579  10.462
 4541SOL     OW14182   2.116   1.539  11.022
 4541SOL    HW114183   2.101   1.610  11.085
 4541SOL    HW214184   2.114   1.459  11.075
 4542SOL     OW14185   2.557   0.458  10.573
 4542SOL    HW114186   2.511   0.379  10.544
 4542SOL    HW214187   2.554   0.516  10.497
 4543SOL     OW14188   2.792   1.679  10.776
 4543SOL    HW114189   2.765   1.648  10.689
 4543SOL    HW214190   2.791   1.774  10.769
 4544SOL     OW14191   2.329   0.494   9.498
 4544SOL    HW114192   2.386   0.568   9.518
 4544SOL    HW214193   2.242   0.533   9.487
 4545SOL     OW14194   2.009   1.140  10.781
 4545SOL    HW114195   2.015   1.086  10.860
 4545SOL    HW214196   2.027   1.078  10.709
 4546SOL     OW14197   3.190   1.048  10.535
 4546SOL    HW114198   3.215   0.986  10.467
 4546SOL    HW214199   3.118   1.099  10.497
 4547SOL     OW14200   3.171   0.855   9.617
 4547SOL    HW114201   3.094   0.827   9.666
 4547SOL    HW214202   3.147   0.843   9.525
 4548SOL     OW14203   3.634   1.747  10.461
 4548SOL    HW114204   3.690   1.773  10.388
 4548SOL    HW214205   3.608   1.657  10.440
 4549SOL     OW14206   3.104   1.733  10.427
 4549SOL    HW114207   3.185   1.751  10.380
 4549SOL    HW214208   3.107   1.639  10.444
 4550SOL     OW14209   1.947   1.264  10.325
 4550SOL    HW114210   1.932   1.277  10.419
 4550SOL    HW214211   1.871   1.213  10.296
 4551SOL     OW14212   2.539   1.663  11.033
 4551SOL    HW114213   2.490   1.745  11.035
 4551SOL    HW214214   2.602   1.674  10.962
 4552SOL     OW14215   3.557   0.127   9.796
 4552SOL    HW114216   3.640   0.133   9.748
 4552SOL    HW214217   3.553   0.035   9.824
 4553SOL     OW14218   3.251   1.568   9.793
 4553SOL    HW114219   3.313   1.598   9.726
 4553SOL    HW214220   3.205   1.646   9.820
 4554SOL     OW14221   2.043   1.744  11.174
 4554SOL    HW114222   1.971   1.699  11.219
 4554SOL    HW214223   2.011   1.833  11.161
 4555SOL     OW14224   3.139   0.924   9.981
 4555SOL    HW114225   3.213   0.863   9.986
 4555SOL    HW214226   3.172   0.998   9.929
 4556SOL     OW14227   2.680   1.272  10.741
 4556SOL    HW114228   2.654   1.311  10.825
 4556SOL    HW214229   2.609   1.293  10.681
 4557SOL     OW14230   2.538   1.615   9.462
 4557SOL    HW114231   2.542   1.625   9.367
 4557SOL    HW214232   2.482   1.539   9.476
 4558SOL     OW14233   3.492   1.726  10.702
 4558SOL    HW114234   3.542   1.733  10.621
 4558SOL    HW214235   3.479   1.817  10.730
 4559SOL     OW14236   3.701   0.178  10.280
 4559SOL    HW114237   3.727   0.095  10.239
 4559SOL    HW214238   3.614   0.196  10.244
 4560SOL     OW14239   2.128   0.319  10.026
 4560SOL    HW114240   2.042   0.355  10.004
 4560SOL    HW214241   2.125   0.306  10.121
 4561SOL     OW14242   3.068   1.608   9.341
 4561SOL    HW114243   3.060   1.517   9.369
 4561SOL    HW214244   3.002   1.618   9.271
 4562SOL     OW14245   2.687   1.006  10.681
 4562SOL    HW114246   2.728   1.004  10.595
 4562SOL    HW214247   2.687   1.098  10.706
 4563SOL     OW14248   2.777   0.910   9.599
 4563SOL    HW114249   2.839   0.942   9.534
 4563SOL    HW214250   2.824   0.839   9.644
 4564SOL     OW14251   3.357   1.624   9.352
 4564SOL    HW114252   3.262   1.621   9.340
 4564SOL    HW214253   3.392   1.631   9.263
 4565SOL     OW14254   2.232   1.298  10.802
 4565SOL    HW114255   2.220   1.376  10.749
 4565SOL    HW214256   2.154   1.245  10.785
 4566SOL     OW14257   3.468   1.281  10.590
 4566SOL    HW114258   3.534   1.277  10.659
 4566SOL    HW214259   3.410   1.353  10.616
 4567SOL     OW14260   2.910   1.105  10.015
 4567SOL    HW114261   2.840   1.054  10.055
 4567SOL    HW214262   2.971   1.040   9.980
 4568SOL     OW14263   2.877   0.246  10.277
 4568SOL    HW114264   2.866   0.197  10.195
 4568SOL    HW214265   2.869   0.180  10.346
 4569SOL     OW14266   2.462   1.490   9.792
 4569SOL    HW114267   2.502   1.439   9.721
 4569SOL    HW214268   2.401   1.548   9.748
 4570SOL     OW14269   3.581   0.390  10.686
 4570SOL    HW114270   3.651   0.455  10.684
 4570SOL    HW214271   3.612   0.319  10.630
 4571SOL     OW14272   2.120   1.347   9.595
 4571SOL    HW114273   2.026   1.344   9.575
 4571SOL    HW214274   2.124   1.383   9.684
 4572SOL     OW14275   1.974   1.018  11.029
 4572SOL    HW114276   1.898   0.996  11.083
 4572SOL    HW214277   2.049   0.983  11.077
 4573SOL     OW14278   2.552   0.237  10.805
 4573SOL    HW114279   2.623   0.187  10.765
 4573SOL    HW214280   2.576   0.244  10.898
 4574SOL     OW14281   1.958   0.321   9.299
 4574SOL    HW114282   1.873   0.335   9.340
 4574SOL    HW214283   1.979   0.406   9.258
 4575SOL     OW14284   3.292   0.857  10.711
 4575SOL    HW114285   3.244   0.918  10.655
 4575SOL    HW214286   3.382   0.861  10.677
 4576SOL     OW14287   1.946   0.155   9.650
 4576SOL    HW114288   1.915   0.220   9.587
 4576SOL    HW214289   2.029   0.125   9.613
 4577SOL     OW14290   3.042   1.342   9.427
 4577SOL    HW114291   2.951   1.312   9.431
 4577SOL    HW214292   3.071   1.341   9.518
 4578SOL     OW14293   2.480   0.831  10.742
 4578SOL    HW114294   2.536   0.907  10.728
 4578SOL    HW214295   2.542   0.758  10.751
 4579SOL     OW14296   3.347   1.775  10.285
 4579SOL    HW114297   3.373   1.832  10.213
 4579SOL    HW214298   3.428   1.757  10.332
 4580SOL     OW14299   2.579   0.564  11.017
 4580SOL    HW114300   2.615   0.628  11.078
 4580SOL    HW214301   2.615   0.480  11.045
 4581SOL     OW14302   3.330   1.203  10.943
 4581SOL    HW114303   3.319   1.216  11.037
 4581SOL    HW214304   3.424   1.216  10.928
 4582SOL     OW14305   2.243   1.744  10.881
 4582SOL    HW114306   2.158   1.765  10.841
 4582SOL    HW214307   2.230   1.658  10.920
 4583SOL     OW14308   3.531   0.882  10.568
 4583SOL    HW114309   3.526   0.797  10.525
 4583SOL    HW214310   3.526   0.946  10.497
 4584SOL     OW14311   3.086   0.332   9.758
 4584SOL    HW114312   3.153   0.264   9.748
 4584SOL    HW214313   3.110   0.378   9.838
 4585SOL     OW14314   2.454   0.740   9.977
 4585SOL    HW114315   2.492   0.826   9.960
 4585SOL    HW214316   2.383   0.733   9.913
 4586SOL     OW14317   3.620   0.377  10.952
 4586SOL    HW114318   3.601   0.383  10.859
 4586SOL    HW214319   3.559   0.310  10.985
 4587SOL     OW14320   3.610   0.932  10.825
 4587SOL    HW114321   3.609   1.027  10.838
 4587SOL    HW214322   3.591   0.921  10.731
 4588SOL     OW14323   2.723   1.369   9.340
 4588SOL    HW114324   2.684   1.394   9.423
 4588SOL    HW214325   2.744   1.452   9.297
 4589SOL     OW14326   2.522   1.796  10.259
 4589SOL    HW114327   2.502   1.885  10.231
 4589SOL    HW214328   2.617   1.788  10.249
 4590SOL     OW14329   2.728   0.965  10.166
 4590SOL    HW114330   2.779   0.895  10.207
 4590SOL    HW214331   2.695   1.017  10.240
 4591SOL     OW14332   2.942   0.988   9.399
 4591SOL    HW114333   2.920   1.038   9.320
 4591SOL    HW214334   3.017   0.935   9.373
 4592SOL     OW14335   3.720   1.557  10.152
 4592SOL    HW114336   3.641   1.543  10.100
 4592SOL    HW214337   3.715   1.491  10.221
 4593SOL     OW14338   2.086   1.303  11.167
 4593SOL    HW114339   2.018   1.242  11.140
 4593SOL    HW214340   2.073   1.315  11.261
 4594SOL     OW14341   1.942   1.231   9.973
 4594SOL    HW114342   1.949   1.184  10.056
 4594SOL    HW214343   2.015   1.198   9.920
 4595SOL     OW14344   2.541   1.401  10.935
 4595SOL    HW114345   2.462   1.357  10.966
 4595SOL    HW214346   2.536   1.488  10.973
 4596SOL     OW14347   3.678   0.183  10.553
 4596SOL    HW114348   3.680   0.088  10.561
 4596SOL    HW214349   3.693   0.199  10.459
 4597SOL     OW14350   2.291   0.433   9.834
 4597SOL    HW114351   2.321   0.361   9.779
 4597SOL    HW214352   2.245   0.392   9.907
 4598SOL     OW14353   3.562   1.492  10.411
 4598SOL    HW114354   3.482   1.465  10.367
 4598SOL    HW214355   3.578   1.423  10.475
 4599SOL     OW14356   2.188   0.553  10.601
 4599SOL    HW114357   2.243   0.496  10.656
 4599SOL    HW214358   2.210   0.526  10.511
 4600SOL     OW14359   2.686   1.578   9.989
 4600SOL    HW114360   2.680   1.622   9.905
 4600SOL    HW214361   2.609   1.523   9.993
 4601SOL     OW14362   3.322   0.249  10.422
 4601SOL    HW114363   3.337   0.162  10.458
 4601SOL    HW214364   3.263   0.291  10.485
 4602SOL     OW14365   2.869   0.030  10.458
 4602SOL    HW114366   2.795   3.976  10.430
 4602SOL    HW214367   2.943   3.969  10.465
 4603SOL     OW14368   2.635   1.331   9.619
 4603SOL    HW114369   2.600   1.243   9.627
 4603SOL    HW214370   2.716   1.330   9.670
 4604SOL     OW14371   2.482   1.558  10.595
 4604SOL    HW114372   2.485   1.640  10.645
 4604SOL    HW214373   2.569   1.551  10.556
 4605SOL     OW14374   3.180   0.072   9.472
 4605SOL    HW114375   3.200   0.007   9.405
 4605SOL    HW214376   3.096   0.045   9.508
 4606SOL     OW14377   3.149   0.458   9.998
 4606SOL    HW114378   3.100   0.540   9.997
 4606SOL    HW214379   3.154   0.435  10.091
 4607SOL     OW14380   3.451   0.211  10.177
 4607SOL    HW114381   3.399   0.231  10.255
 4607SOL    HW214382   3.451   0.292  10.126
 4608SOL     OW14383   1.906   1.073   9.614
 4608SOL    HW114384   2.000   1.064   9.598
 4608SOL    HW214385   1.877   0.985   9.638
 4609SOL     OW14386   2.743   1.650   9.655
 4609SOL    HW114387   2.672   1.631   9.593
 4609SOL    HW214388   2.712   1.726   9.704
 4610SOL     OW14389   2.093   0.622  11.293
 4610SOL    HW114390   2.003   0.625  11.324
 4610SOL    HW214391   2.086   0.600  11.200
 4611SOL     OW14392   2.079   0.295  12.162
 4611SOL    HW114393   2.117   0.256  12.241
 4611SOL    HW214394   1.997   0.249  12.149
 4612SOL     OW14395   1.872   0.392  11.810
 4612SOL    HW114396   1.784   0.408  11.846
 4612SOL    HW214397   1.861   0.319  11.749
 4613SOL     OW14398   2.429   1.282  12.344
 4613SOL    HW114399   2.341   1.285  12.305
 4613SOL    HW214400   2.443   1.370  12.377
 4614SOL     OW14401   3.419   1.511  11.877
 4614SOL    HW114402   3.375   1.494  11.961
 4614SOL    HW214403   3.348   1.517  11.813
 4615SOL     OW14404   2.993   0.699  11.876
 4615SOL    HW114405   3.042   0.779  11.861
 4615SOL    HW214406   2.945   0.714  11.958
 4616SOL     OW14407   3.619   0.620  11.402
 4616SOL    HW114408   3.604   0.608  11.308
 4616SOL    HW214409   3.607   0.532  11.440
 4617SOL     OW14410   2.622   1.144  12.210
 4617SOL    HW114411   2.551   1.177  12.266
 4617SOL    HW214412   2.655   1.222  12.165
 4618SOL     OW14413   2.725   0.780  12.994
 4618SOL    HW114414   2.712   0.853  13.055
 4618SOL    HW214415   2.748   0.823  12.911
 4619SOL     OW14416   2.549   1.006  11.821
 4619SOL    HW114417   2.612   0.992  11.891
 4619SOL    HW214418   2.478   1.057  11.862
 4620SOL     OW14419   2.570   1.152  12.981
 4620SOL    HW114420   2.617   1.231  13.006
 4620SOL    HW214421   2.486   1.184  12.948
 4621SOL     OW14422   2.194   1.427  12.240
 4621SOL    HW114423   2.119   1.394  12.190
 4621SOL    HW214424   2.244   1.480  12.178
 4622SOL     OW14425   3.323   1.499  12.522
 4622SOL    HW114426   3.368   1.583  12.533
 4622SOL    HW214427   3.269   1.490  12.601
 4623SOL     OW14428   2.303   0.398  12.668
 4623SOL    HW114429   2.389   0.356  12.666
 4623SOL    HW214430   2.241   0.325  12.675
 4624SOL     OW14431   3.474   0.450  11.909
 4624SOL    HW114432   3.401   0.483  11.856
 4624SOL    HW214433   3.502   0.526  11.961
 4625SOL     OW14434   2.094   1.697  11.635
 4625SOL    HW114435   2.114   1.764  11.700
 4625SOL    HW214436   2.167   1.699  11.573
 4626SOL     OW14437   2.998   1.341  12.863
 4626SOL    HW114438   3.037   1.338  12.950
 4626SOL    HW214439   2.945   1.261  12.858
 4627SOL     OW14440   2.091   1.433  11.708
 4627SOL    HW114441   2.079   1.528  11.704
 4627SOL    HW214442   2.026   1.402  11.771
 4628SOL     OW14443   2.116   1.090  12.061
 4628SOL    HW114444   2.113   1.004  12.104
 4628SOL    HW214445   2.059   1.145  12.115
 4629SOL     OW14446   2.477   1.790  12.605
 4629SOL    HW114447   2.394   1.774  12.650
 4629SOL    HW214448   2.500   1.880  12.629
 4630SOL     OW14449   2.451   0.979  11.304
 4630SOL    HW114450   2.494   1.032  11.236
 4630SOL    HW214451   2.492   1.009  11.385
 4631SOL     OW14452   3.441   0.134  12.631
 4631SOL    HW114453   3.459   0.209  12.574
 4631SOL    HW214454   3.420   0.172  12.716
 4632SOL     OW14455   1.976   0.652  11.731
 4632SOL    HW114456   1.949   0.563  11.754
 4632SOL    HW214457   1.969   0.701  11.813
 4633SOL     OW14458   3.700   1.759  11.510
 4633SOL    HW114459   3.763   1.733  11.576
 4633SOL    HW214460   3.724   1.849  11.487
 4634SOL     OW14461   1.862   1.601  11.314
 4634SOL    HW114462   1.862   1.506  11.308
 4634SOL    HW214463   1.871   1.619  11.408
 4635SOL     OW14464   3.549   0.917  11.809
 4635SOL    HW114465   3.635   0.878  11.796
 4635SOL    HW214466   3.533   0.969  11.730
 4636SOL     OW14467   3.504   1.108  11.603
 4636SOL    HW114468   3.588   1.116  11.558
 4636SOL    HW214469   3.510   1.169  11.677
 4637SOL     OW14470   1.983   0.746  12.755
 4637SOL    HW114471   2.075   0.768  12.770
 4637SOL    HW214472   1.937   0.830  12.763
 4638SOL     OW14473   2.475   1.382  11.907
 4638SOL    HW114474   2.428   1.299  11.916
 4638SOL    HW214475   2.457   1.410  11.817
 4639SOL     OW14476   3.152   1.239  12.597
 4639SOL    HW114477   3.185   1.172  12.536
 4639SOL    HW214478   3.208   1.231  12.674
 4640SOL     OW14479   2.677   0.001  11.685
 4640SOL    HW114480   2.722   0.083  11.665
 4640SOL    HW214481   2.585   0.024  11.688
 4641SOL     OW14482   2.053   0.968  12.441
 4641SOL    HW114483   2.138   0.925  12.426
 4641SOL    HW214484   1.990   0.911  12.398
 4642SOL     OW14485   3.392   0.992  11.369
 4642SOL    HW114486   3.323   0.934  11.400
 4642SOL    HW214487   3.432   1.026  11.448
 4643SOL     OW14488   3.047   1.804  12.792
 4643SOL    HW114489   3.063   1.861  12.716
 4643SOL    HW214490   3.062   1.715  12.759
 4644SOL     OW14491   2.209   0.255  12.984
 4644SOL    HW114492   2.254   0.339  12.989
 4644SOL    HW214493   2.117   0.276  13.002
 4645SOL     OW14494   3.327   1.420  12.125
 4645SOL    HW114495   3.259   1.434  12.191
 4645SOL    HW214496   3.316   1.329  12.098
 4646SOL     OW14497   3.521   1.734  11.750
 4646SOL    HW114498   3.501   1.705  11.661
 4646SOL    HW214499   3.497   1.660  11.806
 4647SOL     OW14500   2.457   0.723  11.436
 4647SOL    HW114501   2.465   0.803  11.384
 4647SOL    HW214502   2.393   0.744  11.503
 4648SOL     OW14503   3.139   0.361  12.112
 4648SOL    HW114504   3.052   0.321  12.116
 4648SOL    HW214505   3.196   0.300  12.159
 4649SOL     OW14506   3.442   1.668  11.481
 4649SOL    HW114507   3.531   1.703  11.476
 4649SOL    HW214508   3.418   1.651  11.390
 4650SOL     OW14509   2.659   0.615  12.626
 4650SOL    HW114510   2.629   0.593  12.715
 4650SOL    HW214511   2.615   0.552  12.570
 4651SOL     OW14512   3.255   0.476  12.849
 4651SOL    HW114513   3.256   0.520  12.934
 4651SOL    HW214514   3.317   0.404  12.858
 4652SOL     OW14515   2.820   0.889  12.753
 4652SOL    HW114516   2.874   0.818  12.719
 4652SOL    HW214517   2.772   0.922  12.677
 4653SOL     OW14518   2.853   0.403  12.414
 4653SOL    HW114519   2.772   0.432  12.457
 4653SOL    HW214520   2.824   0.371  12.329
 4654SOL     OW14521   2.912   0.698  11.599
 4654SOL    HW114522   2.926   0.692  11.693
 4654SOL    HW214523   2.830   0.652  11.583
 4655SOL     OW14524   1.950   0.820  11.948
 4655SOL    HW114525   2.032   0.812  11.997
 4655SOL    HW214526   1.909   0.899  11.983
 4656SOL     OW14527   2.752   0.348  11.371
 4656SOL    HW114528   2.793   0.407  11.308
 4656SOL    HW214529   2.755   0.262  11.329
 4657SOL     OW14530   3.575   0.577  13.001
 4657SOL    HW114531   3.538   0.654  12.958
 4657SOL    HW214532   3.595   0.516  12.929
 4658SOL     OW14533   3.236   1.142  11.714
 4658SOL    HW114534   3.315   1.128  11.662
 4658SOL    HW214535   3.185   1.205  11.663
 4659SOL     OW14536   2.416   0.197  12.055
 4659SOL    HW114537   2.420   0.213  12.149
 4659SOL    HW214538   2.414   0.284  12.016
 4660SOL     OW14539   2.871   1.446  11.646
 4660SOL    HW114540   2.830   1.517  11.596
 4660SOL    HW214541   2.856   1.469  11.738
 4661SOL     OW14542   2.223   1.799  12.010
 4661SOL    HW114543   2.261   1.714  12.033
 4661SOL    HW214544   2.289   1.863  12.035
 4662SOL     OW14545   3.664   1.063  12.038
 4662SOL    HW114546   3.607   1.044  11.963
 4662SOL    HW214547   3.605   1.066  12.113
 4663SOL     OW14548   3.089   1.540  12.685
 4663SOL    HW114549   3.076   1.467  12.745
 4663SOL    HW214550   3.029   1.523  12.612
 4664SOL     OW14551   2.184   0.956  11.420
 4664SOL    HW114552   2.266   0.975  11.375
 4664SOL    HW214553   2.153   0.874  11.381
 4665SOL     OW14554   3.337   0.738  11.902
 4665SOL    HW114555   3.328   0.694  11.986
 4665SOL    HW214556   3.414   0.795  11.912
 4666SOL     OW14557   2.327   1.262  12.910
 4666SOL    HW114558   2.298   1.268  12.818
 4666SOL    HW214559   2.245   1.261  12.960
 4667SOL     OW14560   2.983   1.777  11.404
 4667SOL    HW114561   2.911   1.734  11.450
 4667SOL    HW214562   3.004   1.718  11.332
 4668SOL     OW14563   2.040   0.279  12.668
 4668SOL    HW114564   1.975   0.349  12.666
 4668SOL    HW214565   2.048   0.256  12.761
 4669SOL     OW14566   3.490   1.380  11.259
 4669SOL    HW114567   3.448   1.465  11.244
 4669SOL    HW214568   3.422   1.316  11.240
 4670SOL     OW14569   2.335   1.723  11.508
 4670SOL    HW114570   2.370   1.795  11.561
 4670SOL    HW214571   2.394   1.717  11.433
 4671SOL     OW14572   3.295   0.158  11.576
 4671SOL    HW114573   3.257   0.090  11.520
 4671SOL    HW214574   3.376   0.119  11.610
 4672SOL     OW14575   2.155   1.764  12.411
 4672SOL    HW114576   2.195   1.683  12.442
 4672SOL    HW214577   2.121   1.742  12.324
 4673SOL     OW14578   2.800   1.698  12.072
 4673SOL    HW114579   2.877   1.645  12.092
 4673SOL    HW214580   2.754   1.649  12.003
 4674SOL     OW14581   2.253   0.695  11.650
 4674SOL    HW114582   2.276   0.603  11.659
 4674SOL    HW214583   2.159   0.699  11.669
 4675SOL     OW14584   3.396   0.233  12.898
 4675SOL    HW114585   3.395   0.256  12.991
 4675SOL    HW214586   3.357   0.146  12.895
 4676SOL     OW14587   2.501   0.139  11.276
 4676SOL    HW114588   2.542   0.062  11.316
 4676SOL    HW214589   2.439   0.103  11.213
 4677SOL     OW14590   2.641   0.281  12.934
 4677SOL    HW114591   2.701   0.207  12.944
 4677SOL    HW214592   2.577   0.269  13.004
 4678SOL     OW14593   2.739   1.521  12.365
 4678SOL    HW114594   2.724   1.485  12.278
 4678SOL    HW214595   2.808   1.466  12.402
 4679SOL     OW14596   3.205   0.587  12.602
 4679SOL    HW114597   3.234   0.558  12.689
 4679SOL    HW214598   3.238   0.676  12.594
 4680SOL     OW14599   2.675   1.398  12.108
 4680SOL    HW114600   2.759   1.388  12.063
 4680SOL    HW214601   2.610   1.396  12.038
 4681SOL     OW14602   2.790   0.510  12.075
 4681SOL    HW114603   2.766   0.502  11.983
 4681SOL    HW214604   2.821   0.422  12.100
 4682SOL     OW14605   2.409   0.058  11.668
 4682SOL    HW114606   2.333   0.062  11.726
 4682SOL    HW214607   2.404   0.139  11.616
 4683SOL     OW14608   3.290   1.198  11.213
 4683SOL    HW114609   3.321   1.122  11.263
 4683SOL    HW214610   3.205   1.218  11.251
 4684SOL     OW14611   2.185   0.042  11.378
 4684SOL    HW114612   2.205   0.113  11.316
 4684SOL    HW214613   2.268   0.021  11.419
 4685SOL     OW14614   2.798   0.246  11.637
 4685SOL    HW114615   2.771   0.288  11.556
 4685SOL    HW214616   2.894   0.246  11.634
 4686SOL     OW14617   2.942   0.680  12.632
 4686SOL    HW114618   2.869   0.618  12.639
 4686SOL    HW214619   3.020   0.625  12.625
 4687SOL     OW14620   3.086   1.570  11.966
 4687SOL    HW114621   3.105   1.637  11.900
 4687SOL    HW214622   3.155   1.581  12.032
 4688SOL     OW14623   2.329   1.147  11.909
 4688SOL    HW114624   2.258   1.129  11.971
 4688SOL    HW214625   2.291   1.131  11.823
 4689SOL     OW14626   3.133   1.795  11.777
 4689SOL    HW114627   3.177   1.856  11.718
 4689SOL    HW214628   3.069   1.849  11.824
 4690SOL     OW14629   2.888   0.548  11.192
 4690SOL    HW114630   2.845   0.631  11.172
 4690SOL    HW214631   2.950   0.569  11.262
 4691SOL     OW14632   1.939   0.553  12.566
 4691SOL    HW114633   2.030   0.552  12.536
 4691SOL    HW214634   1.934   0.626  12.628
 4692SOL     OW14635   2.428   0.232  12.333
 4692SOL    HW114636   2.454   0.141  12.346
 4692SOL    HW214637   2.337   0.236  12.364
 4693SOL     OW14638   2.733   0.461  11.812
 4693SOL    HW114639   2.684   0.514  11.749
 4693SOL    HW214640   2.751   0.379  11.765
 4694SOL     OW14641   2.855   0.043  11.950
 4694SOL    HW114642   2.824   0.063  11.862
 4694SOL    HW214643   2.865   3.948  11.950
 4695SOL     OW14644   3.298   1.163  12.030
 4695SOL    HW114645   3.230   1.096  12.027
 4695SOL    HW214646   3.322   1.177  11.939
 4696SOL     OW14647   3.329   0.602  12.153
 4696SOL    HW114648   3.281   0.519  12.159
 4696SOL    HW214649   3.391   0.600  12.226
 4697SOL     OW14650   3.722   0.823  11.547
 4697SOL    HW114651   3.764   0.766  11.611
 4697SOL    HW214652   3.682   0.763  11.484
 4698SOL     OW14653   2.356   1.413  11.333
 4698SOL    HW114654   2.281   1.386  11.385
 4698SOL    HW214655   2.333   1.388  11.243
 4699SOL     OW14656   3.527   1.265  11.822
 4699SOL    HW114657   3.622   1.272  11.829
 4699SOL    HW214658   3.496   1.353  11.842
 4700SOL     OW14659   3.256   0.571  11.242
 4700SOL    HW114660   3.194   0.554  11.313
 4700SOL    HW214661   3.342   0.552  11.279
 4701SOL     OW14662   2.389   0.265  11.491
 4701SOL    HW114663   2.436   0.222  11.420
 4701SOL    HW214664   2.366   0.352  11.457
 4702SOL     OW14665   3.615   1.234  12.748
 4702SOL    HW114666   3.702   1.198  12.730
 4702SOL    HW214667   3.631   1.322  12.780
 4703SOL     OW14668   2.923   1.353  12.507
 4703SOL    HW114669   2.848   1.322  12.558
 4703SOL    HW214670   2.998   1.312  12.548
 4704SOL     OW14671   3.466   1.626  12.823
 4704SOL    HW114672   3.463   1.660  12.734
 4704SOL    HW214673   3.549   1.579  12.828
 4705SOL     OW14674   2.987   1.201  12.279
 4705SOL    HW114675   2.929   1.240  12.345
 4705SOL    HW214676   2.953   1.232  12.195
 4706SOL     OW14677   3.495   1.100  12.249
 4706SOL    HW114678   3.489   1.161  12.323
 4706SOL    HW214679   3.415   1.114  12.199
 4707SOL     OW14680   2.776   0.109  12.575
 4707SOL    HW114681   2.796   0.085  12.484
 4707SOL    HW214682   2.856   0.152  12.606
 4708SOL     OW14683   2.846   1.114  12.895
 4708SOL    HW114684   2.753   1.130  12.913
 4708SOL    HW214685   2.846   1.037  12.838
 4709SOL     OW14686   2.570   1.060  11.544
 4709SOL    HW114687   2.556   1.046  11.637
 4709SOL    HW214688   2.646   1.007  11.522
 4710SOL     OW14689   2.279   0.814  12.423
 4710SOL    HW114690   2.348   0.822  12.489
 4710SOL    HW214691   2.244   0.726  12.437
 4711SOL     OW14692   3.129   0.376  12.446
 4711SOL    HW114693   3.164   0.453  12.491
 4711SOL    HW214694   3.043   0.403  12.414
 4712SOL     OW14695   1.932   1.576  12.523
 4712SOL    HW114696   1.894   1.642  12.464
 4712SOL    HW214697   2.026   1.583  12.510
 4713SOL     OW14698   2.216   1.106  11.664
 4713SOL    HW114699   2.219   1.180  11.604
 4713SOL    HW214700   2.214   1.029  11.607
 4714SOL     OW14701   2.420   0.537  12.031
 4714SOL    HW114702   2.436   0.596  11.958
 4714SOL    HW214703   2.481   0.566  12.099
 4715SOL     OW14704   3.110   1.348  11.561
 4715SOL    HW114705   3.165   1.420  11.592
 4715SOL    HW214706   3.023   1.368  11.595
 4716SOL     OW14707   3.139   1.456  12.318
 4716SOL    HW114708   3.194   1.458  12.396
 4716SOL    HW214709   3.084   1.378  12.330
 4717SOL     OW14710   3.440   0.630  11.653
 4717SOL    HW114711   3.402   0.692  11.715
 4717SOL    HW214712   3.488   0.686  11.591
 4718SOL     OW14713   2.216   1.513  12.492
 4718SOL    HW114714   2.201   1.473  12.406
 4718SOL    HW214715   2.310   1.526  12.496
 4719SOL     OW14716   2.274   0.745  12.773
 4719SOL    HW114717   2.335   0.791  12.715
 4719SOL    HW214718   2.315   0.660  12.789
 4720SOL     OW14719   3.459   0.775  12.849
 4720SOL    HW114720   3.374   0.817  12.843
 4720SOL    HW214721   3.512   0.818  12.782
 4721SOL     OW14722   2.886   0.118  12.949
 4721SOL    HW114723   2.912   0.198  12.905
 4721SOL    HW214724   2.875   0.054  12.879
 4722SOL     OW14725   2.346   0.035  12.937
 4722SOL    HW114726   2.354   0.035  12.841
 4722SOL    HW214727   2.289   0.110  12.956
 4723SOL     OW14728   2.445   0.872  12.203
 4723SOL    HW114729   2.473   0.963  12.200
 4723SOL    HW214730   2.387   0.867  12.280
 4724SOL     OW14731   3.222   0.859  12.205
 4724SOL    HW114732   3.141   0.853  12.155
 4724SOL    HW214733   3.260   0.771  12.202
 4725SOL     OW14734   3.069   0.533  11.438
 4725SOL    HW114735   3.076   0.454  11.491
 4725SOL    HW214736   3.026   0.597  11.495
 4726SOL     OW14737   2.165   0.213  12.413
 4726SOL    HW114738   2.129   0.242  12.497
 4726SOL    HW214739   2.150   0.119  12.411
 4727SOL     OW14740   1.906   1.312  12.451
 4727SOL    HW114741   1.941   1.258  12.522
 4727SOL    HW214742   1.916   1.402  12.482
 4728SOL     OW14743   2.589   0.634  12.230
 4728SOL    HW114744   2.660   0.616  12.169
 4728SOL    HW214745   2.560   0.722  12.209
 4729SOL     OW14746   3.597   0.954  13.030
 4729SOL    HW114747   3.548   0.908  12.961
 4729SOL    HW214748   3.532   0.968  13.099
 4730SOL     OW14749   2.182   0.058  11.814
 4730SOL    HW114750   2.159   0.150  11.827
 4730SOL    HW214751   2.142   0.014  11.889
 4731SOL     OW14752   3.465   0.384  11.554
 4731SOL    HW114753   3.447   0.316  11.618
 4731SOL    HW214754   3.443   0.466  11.598
 4732SOL     OW14755   2.889   0.760  12.134
 4732SOL    HW114756   2.888   0.777  12.228
 4732SOL    HW214757   2.862   0.668  12.126
 4733SOL     OW14758   2.844   1.566  12.886
 4733SOL    HW114759   2.829   1.610  12.803
 4733SOL    HW214760   2.887   1.484  12.862
 4734SOL     OW14761   3.710   1.508  12.774
 4734SOL    HW114762   3.730   1.533  12.684
 4734SOL    HW214763   3.791   1.524  12.822
 4735SOL     OW14764   2.215   0.915  12.981
 4735SOL    HW114765   2.297   0.935  13.024
 4735SOL    HW214766   2.239   0.853  12.911
 4736SOL     OW14767   3.374   0.275  11.308
 4736SOL    HW114768   3.297   0.219  11.321
 4736SOL    HW214769   3.388   0.317  11.392
 4737SOL     OW14770   3.156   0.827  11.204
 4737SOL    HW114771   3.198   0.741  11.207
 4737SOL    HW214772   3.187   0.867  11.123
 4738SOL     OW14773   2.927   1.335  12.025
 4738SOL    HW114774   2.930   1.262  11.963
 4738SOL    HW214775   2.990   1.398  11.990
 4739SOL     OW14776   2.172   0.810  12.121
 4739SOL    HW114777   2.265   0.831  12.114
 4739SOL    HW214778   2.170   0.720  12.154
 4740SOL     OW14779   2.199   0.530  12.184
 4740SOL    HW114780   2.158   0.445  12.168
 4740SOL    HW214781   2.275   0.532  12.125
 4741SOL     OW14782   2.996   0.384  12.861
 4741SOL    HW114783   2.949   0.439  12.923
 4741SOL    HW214784   3.084   0.422  12.856
 4742SOL     OW14785   3.014   0.223  12.653
 4742SOL    HW114786   3.006   0.278  12.731
 4742SOL    HW214787   3.034   0.285  12.582
 4743SOL     OW14788   1.866   1.322  11.366
 4743SOL    HW114789   1.778   1.334  11.330
 4743SOL    HW214790   1.866   1.232  11.400
 4744SOL     OW14791   1.971   1.736  12.150
 4744SOL    HW114792   1.933   1.674  12.088
 4744SOL    HW214793   2.020   1.798  12.096
 4745SOL     OW14794   2.363   1.571  12.081
 4745SOL    HW114795   2.432   1.634  12.103
 4745SOL    HW214796   2.407   1.507  12.024
 4746SOL     OW14797   2.850   0.793  12.399
 4746SOL    HW114798   2.901   0.769  12.477
 4746SOL    HW214799   2.762   0.759  12.418
 4747SOL     OW14800   1.896   0.544  12.289
 4747SOL    HW114801   1.973   0.519  12.238
 4747SOL    HW214802   1.927   0.549  12.379
 4748SOL     OW14803   2.063   0.526  12.889
 4748SOL    HW114804   2.126   0.499  12.822
 4748SOL    HW214805   2.013   0.597  12.848
 4749SOL     OW14806   3.239   0.941  12.832
 4749SOL    HW114807   3.259   1.035  12.832
 4749SOL    HW214808   3.236   0.917  12.739
 4750SOL     OW14809   2.678   0.571  11.527
 4750SOL    HW114810   2.681   0.494  11.470
 4750SOL    HW214811   2.602   0.621  11.496
 4751SOL     OW14812   3.504   0.602  12.361
 4751SOL    HW114813   3.492   0.540  12.434
 4751SOL    HW214814   3.590   0.579  12.325
 4752SOL     OW14815   2.116   1.539  12.884
 4752SOL    HW114816   2.102   1.609  12.947
 4752SOL    HW214817   2.114   1.459  12.936
 4753SOL     OW14818   2.557   0.458  12.435
 4753SOL    HW114819   2.511   0.379  12.406
 4753SOL    HW214820   2.554   0.516  12.359
 4754SOL     OW14821   2.792   1.679  12.638
 4754SOL    HW114822   2.765   1.648  12.551
 4754SOL    HW214823   2.791   1.774  12.631
 4755SOL     OW14824   2.329   0.494  11.360
 4755SOL    HW114825   2.386   0.568  11.380
 4755SOL    HW214826   2.242   0.533  11.349
 4756SOL     OW14827   2.009   1.140  12.643
 4756SOL    HW114828   2.015   1.086  12.722
 4756SOL    HW214829   2.026   1.078  12.571
 4757SOL     OW14830   3.190   1.048  12.397
 4757SOL    HW114831   3.215   0.986  12.329
 4757SOL    HW214832   3.118   1.099  12.359
 4758SOL     OW14833   3.171   0.854  11.479
 4758SOL    HW114834   3.094   0.827  11.528
 4758SOL    HW214835   3.147   0.843  11.387
 4759SOL     OW14836   3.634   1.747  12.323
 4759SOL    HW114837   3.690   1.773  12.250
 4759SOL    HW214838   3.608   1.657  12.302
 4760SOL     OW14839   3.104   1.733  12.289
 4760SOL    HW114840   3.185   1.751  12.242
 4760SOL    HW214841   3.107   1.639  12.306
 4761SOL     OW14842   1.947   1.264  12.187
 4761SOL    HW114843   1.932   1.277  12.281
 4761SOL    HW214844   1.871   1.213  12.158
 4762SOL     OW14845   2.538   1.663  12.895
 4762SOL    HW114846   2.489   1.745  12.897
 4762SOL    HW214847   2.602   1.674  12.824
 4763SOL     OW14848   3.557   0.127  11.658
 4763SOL    HW114849   3.640   0.133  11.610
 4763SOL    HW214850   3.553   0.035  11.686
 4764SOL     OW14851   3.252   1.568  11.655
 4764SOL    HW114852   3.313   1.598  11.588
 4764SOL    HW214853   3.204   1.646  11.682
 4765SOL     OW14854   2.043   1.742  13.037
 4765SOL    HW114855   1.970   1.699  13.082
 4765SOL    HW214856   2.013   1.831  13.022
 4766SOL     OW14857   3.139   0.924  11.843
 4766SOL    HW114858   3.213   0.863  11.848
 4766SOL    HW214859   3.172   0.998  11.791
 4767SOL     OW14860   2.680   1.272  12.603
 4767SOL    HW114861   2.654   1.311  12.687
 4767SOL    HW214862   2.609   1.294  12.543
 4768SOL     OW14863   2.538   1.615  11.324
 4768SOL    HW114864   2.543   1.625  11.229
 4768SOL    HW214865   2.482   1.539  11.338
 4769SOL     OW14866   3.492   1.726  12.564
 4769SOL    HW114867   3.542   1.733  12.483
 4769SOL    HW214868   3.479   1.817  12.592
 4770SOL     OW14869   3.701   0.178  12.142
 4770SOL    HW114870   3.727   0.095  12.101
 4770SOL    HW214871   3.614   0.196  12.106
 4771SOL     OW14872   2.128   0.319  11.888
 4771SOL    HW114873   2.042   0.355  11.866
 4771SOL    HW214874   2.125   0.306  11.983
 4772SOL     OW14875   3.068   1.608  11.203
 4772SOL    HW114876   3.060   1.517  11.231
 4772SOL    HW214877   3.002   1.618  11.133
 4773SOL     OW14878   2.687   1.006  12.543
 4773SOL    HW114879   2.728   1.004  12.457
 4773SOL    HW214880   2.687   1.098  12.568
 4774SOL     OW14881   2.777   0.910  11.461
 4774SOL    HW114882   2.839   0.942  11.396
 4774SOL    HW214883   2.824   0.839  11.506
 4775SOL     OW14884   3.357   1.625  11.214
 4775SOL    HW114885   3.262   1.621  11.202
 4775SOL    HW214886   3.391   1.631  11.125
 4776SOL     OW14887   2.232   1.297  12.665
 4776SOL    HW114888   2.220   1.376  12.611
 4776SOL    HW214889   2.154   1.244  12.647
 4777SOL     OW14890   3.468   1.281  12.452
 4777SOL    HW114891   3.534   1.277  12.521
 4777SOL    HW214892   3.410   1.353  12.478
 4778SOL     OW14893   2.910   1.105  11.877
 4778SOL    HW114894   2.840   1.054  11.917
 4778SOL    HW214895   2.971   1.040  11.842
 4779SOL     OW14896   2.877   0.246  12.139
 4779SOL    HW114897   2.866   0.197  12.057
 4779SOL    HW214898   2.869   0.180  12.208
 4780SOL     OW14899   2.462   1.490  11.654
 4780SOL    HW114900   2.502   1.439  11.583
 4780SOL    HW214901   2.400   1.548  11.610
 4781SOL     OW14902   3.581   0.390  12.548
 4781SOL    HW114903   3.651   0.455  12.546
 4781SOL    HW214904   3.612   0.319  12.492
 4782SOL     OW14905   2.120   1.347  11.457
 4782SOL    HW114906   2.026   1.344  11.437
 4782SOL    HW214907   2.124   1.382  11.546
 4783SOL     OW14908   1.974   1.018  12.891
 4783SOL    HW114909   1.898   0.995  12.945
 4783SOL    HW214910   2.049   0.982  12.939
 4784SOL     OW14911   2.552   0.237  12.667
 4784SOL    HW114912   2.623   0.187  12.627
 4784SOL    HW214913   2.576   0.244  12.759
 4785SOL     OW14914   1.958   0.321  11.161
 4785SOL    HW114915   1.873   0.335  11.202
 4785SOL    HW214916   1.979   0.405  11.120
 4786SOL     OW14917   3.293   0.858  12.573
 4786SOL    HW114918   3.243   0.918  12.517
 4786SOL    HW214919   3.382   0.861  12.539
 4787SOL     OW14920   1.946   0.155  11.512
 4787SOL    HW114921   1.915   0.220  11.449
 4787SOL    HW214922   2.029   0.125  11.475
 4788SOL     OW14923   3.042   1.342  11.289
 4788SOL    HW114924   2.951   1.312  11.292
 4788SOL    HW214925   3.071   1.341  11.380
 4789SOL     OW14926   2.480   0.831  12.604
 4789SOL    HW114927   2.536   0.907  12.590
 4789SOL    HW214928   2.542   0.758  12.613
 4790SOL     OW14929   3.347   1.775  12.147
 4790SOL    HW114930   3.373   1.832  12.075
 4790SOL    HW214931   3.428   1.757  12.194
 4791SOL     OW14932   2.579   0.564  12.879
 4791SOL    HW114933   2.615   0.628  12.940
 4791SOL    HW214934   2.615   0.480  12.907
 4792SOL     OW14935   3.330   1.203  12.805
 4792SOL    HW114936   3.319   1.216  12.899
 4792SOL    HW214937   3.424   1.216  12.790
 4793SOL     OW14938   2.243   1.743  12.743
 4793SOL    HW114939   2.159   1.764  12.702
 4793SOL    HW214940   2.230   1.657  12.782
 4794SOL     OW14941   3.531   0.882  12.430
 4794SOL    HW114942   3.526   0.797  12.387
 4794SOL    HW214943   3.526   0.946  12.359
 4795SOL     OW14944   3.086   0.332  11.620
 4795SOL    HW114945   3.153   0.264  11.610
 4795SOL    HW214946   3.110   0.378  11.700
 4796SOL     OW14947   2.454   0.740  11.839
 4796SOL    HW114948   2.492   0.826  11.822
 4796SOL    HW214949   2.383   0.733  11.775
 4797SOL     OW14950   3.620   0.377  12.815
 4797SOL    HW114951   3.601   0.383  12.721
 4797SOL    HW214952   3.559   0.310  12.847
 4798SOL     OW14953   3.610   0.933  12.687
 4798SOL    HW114954   3.609   1.027  12.700
 4798SOL    HW214955   3.591   0.921  12.594
 4799SOL     OW14956   2.724   1.369  11.202
 4799SOL    HW114957   2.684   1.394  11.285
 4799SOL    HW214958   2.744   1.451  11.158
 4800SOL     OW14959   2.522   1.796  12.121
 4800SOL    HW114960   2.502   1.885  12.093
 4800SOL    HW214961   2.617   1.788  12.111
 4801SOL     OW14962   2.728   0.965  12.028
 4801SOL    HW114963   2.779   0.895  12.069
 4801SOL    HW214964   2.695   1.017  12.102
 4802SOL     OW14965   2.942   0.988  11.261
 4802SOL    HW114966   2.920   1.038  11.183
 4802SOL    HW214967   3.017   0.935  11.235
 4803SOL     OW14968   3.720   1.557  12.014
 4803SOL    HW114969   3.641   1.543  11.962
 4803SOL    HW214970   3.715   1.491  12.083
 4804SOL     OW14971   2.086   1.303  13.029
 4804SOL    HW114972   2.018   1.242  13.002
 4804SOL    HW214973   2.073   1.315  13.123
 4805SOL     OW14974   1.942   1.231  11.835
 4805SOL    HW114975   1.949   1.184  11.918
 4805SOL    HW214976   2.015   1.199  11.782
 4806SOL     OW14977   2.541   1.400  12.797
 4806SOL    HW114978   2.462   1.357  12.828
 4806SOL    HW214979   2.537   1.488  12.835
 4807SOL     OW14980   3.678   0.183  12.415
 4807SOL    HW114981   3.680   0.088  12.423
 4807SOL    HW214982   3.693   0.199  12.321
 4808SOL     OW14983   2.291   0.433  11.696
 4808SOL    HW114984   2.321   0.361  11.641
 4808SOL    HW214985   2.245   0.392  11.769
 4809SOL     OW14986   3.562   1.492  12.273
 4809SOL    HW114987   3.482   1.466  12.229
 4809SOL    HW214988   3.578   1.423  12.337
 4810SOL     OW14989   2.188   0.553  12.463
 4810SOL    HW114990   2.243   0.496  12.518
 4810SOL    HW214991   2.210   0.526  12.373
 4811SOL     OW14992   2.686   1.578  11.851
 4811SOL    HW114993   2.680   1.622  11.767
 4811SOL    HW214994   2.609   1.523  11.855
 4812SOL     OW14995   3.322   0.249  12.284
 4812SOL    HW114996   3.337   0.162  12.320
 4812SOL    HW214997   3.263   0.291  12.347
 4813SOL     OW14998   2.869   0.030  12.320
 4813SOL    HW114999   2.795   3.976  12.293
 4813SOL    HW215000   2.943   3.969  12.327
 4814SOL     OW15001   2.634   1.332  11.482
 4814SOL    HW115002   2.599   1.243  11.489
 4814SOL    HW215003   2.716   1.329  11.532
 4815SOL     OW15004   2.482   1.558  12.457
 4815SOL    HW115005   2.485   1.640  12.507
 4815SOL    HW215006   2.569   1.551  12.418
 4816SOL     OW15007   3.180   0.072  11.334
 4816SOL    HW115008   3.199   0.007  11.267
 4816SOL    HW215009   3.096   0.045  11.370
 4817SOL     OW15010   3.149   0.458  11.860
 4817SOL    HW115011   3.100   0.540  11.859
 4817SOL    HW215012   3.154   0.435  11.953
 4818SOL     OW15013   3.451   0.211  12.039
 4818SOL    HW115014   3.399   0.231  12.117
 4818SOL    HW215015   3.451   0.292  11.988
 4819SOL     OW15016   1.906   1.073  11.476
 4819SOL    HW115017   2.000   1.065  11.460
 4819SOL    HW215018   1.877   0.985  11.500
 4820SOL     OW15019   2.743   1.650  11.517
 4820SOL    HW115020   2.672   1.631  11.455
 4820SOL    HW215021   2.712   1.726  11.566
 4821SOL     OW15022   2.093   0.622  13.155
 4821SOL    HW115023   2.002   0.624  13.186
 4821SOL    HW215024   2.087   0.600  13.062
 4822SOL     OW15025   2.114   0.268   0.127
 4822SOL    HW115026   2.138   0.312   0.208
 4822SOL    HW215027   2.018   0.266   0.128
 4823SOL     OW15028   1.872   0.390  13.648
 4823SOL    HW115029   1.781   0.403  13.677
 4823SOL    HW215030   1.872   0.301  13.611
 4824SOL     OW15031   3.399   1.502  13.721
 4824SOL    HW115032   3.339   1.456  13.780
 4824SOL    HW215033   3.348   1.517  13.642
 4825SOL     OW15034   2.990   0.703  13.738
 4825SOL    HW115035   3.046   0.775  13.708
 4825SOL    HW215036   2.941   0.740  13.812
 4826SOL     OW15037   3.622   0.618  13.264
 4826SOL    HW115038   3.606   0.609  13.170
 4826SOL    HW215039   3.605   0.531  13.300
 4827SOL     OW15040   2.547   1.012  13.676
 4827SOL    HW115041   2.603   0.989  13.750
 4827SOL    HW215042   2.474   1.060  13.715
 4828SOL     OW15043   3.482   0.461  13.769
 4828SOL    HW115044   3.401   0.475  13.721
 4828SOL    HW215045   3.501   0.546  13.810
 4829SOL     OW15046   2.095   1.696  13.498
 4829SOL    HW115047   2.119   1.761  13.565
 4829SOL    HW215048   2.167   1.699  13.435
 4830SOL     OW15049   2.094   1.432  13.569
 4830SOL    HW115050   2.080   1.527  13.566
 4830SOL    HW215051   2.027   1.400  13.630
 4831SOL     OW15052   2.099   1.101   0.020
 4831SOL    HW115053   2.120   1.036   0.088
 4831SOL    HW215054   2.039   1.162   0.063
 4832SOL     OW15055   2.451   0.979  13.165
 4832SOL    HW115056   2.493   1.032  13.097
 4832SOL    HW215057   2.492   1.009  13.247
 4833SOL     OW15058   1.979   0.654  13.590
 4833SOL    HW115059   1.946   0.565  13.603
 4833SOL    HW215060   1.962   0.698  13.673
 4834SOL     OW15061   3.699   1.759  13.372
 4834SOL    HW115062   3.765   1.732  13.437
 4834SOL    HW215063   3.724   1.849  13.350
 4835SOL     OW15064   1.860   1.602  13.178
 4835SOL    HW115065   1.861   1.506  13.170
 4835SOL    HW215066   1.871   1.618  13.271
 4836SOL     OW15067   3.547   0.912  13.664
 4836SOL    HW115068   3.639   0.887  13.651
 4836SOL    HW215069   3.528   0.971  13.591
 4837SOL     OW15070   3.504   1.106  13.463
 4837SOL    HW115071   3.588   1.115  13.418
 4837SOL    HW215072   3.510   1.168  13.537
 4838SOL     OW15073   2.467   1.384  13.764
 4838SOL    HW115074   2.425   1.298  13.771
 4838SOL    HW215075   2.448   1.413  13.674
 4839SOL     OW15076   2.678   0.001  13.550
 4839SOL    HW115077   2.723   0.082  13.526
 4839SOL    HW215078   2.585   0.023  13.549
 4840SOL     OW15079   3.392   0.991  13.231
 4840SOL    HW115080   3.323   0.933  13.263
 4840SOL    HW215081   3.431   1.028  13.311
 4841SOL     OW15082   3.519   1.736  13.612
 4841SOL    HW115083   3.498   1.708  13.523
 4841SOL    HW215084   3.512   1.656  13.665
 4842SOL     OW15085   2.457   0.723  13.297
 4842SOL    HW115086   2.465   0.803  13.246
 4842SOL    HW215087   2.392   0.745  13.364
 4843SOL     OW15088   3.118   0.334   0.056
 4843SOL    HW115089   3.027   0.317   0.080
 4843SOL    HW215090   3.169   0.299   0.129
 4844SOL     OW15091   3.441   1.669  13.342
 4844SOL    HW115092   3.531   1.702  13.338
 4844SOL    HW215093   3.418   1.651  13.251
 4845SOL     OW15094   2.910   0.697  13.460
 4845SOL    HW115095   2.922   0.687  13.555
 4845SOL    HW215096   2.829   0.650  13.442
 4846SOL     OW15097   1.943   0.817  13.810
 4846SOL    HW115098   2.028   0.813  13.853
 4846SOL    HW215099   1.902   0.896  13.845
 4847SOL     OW15100   2.751   0.349  13.232
 4847SOL    HW115101   2.793   0.407  13.169
 4847SOL    HW215102   2.755   0.262  13.191
 4848SOL     OW15103   3.226   1.135  13.559
 4848SOL    HW115104   3.315   1.134  13.524
 4848SOL    HW215105   3.183   1.207  13.513
 4849SOL     OW15106   2.869   1.444  13.506
 4849SOL    HW115107   2.830   1.517  13.457
 4849SOL    HW215108   2.845   1.460  13.597
 4850SOL     OW15109   2.251   1.784  13.856
 4850SOL    HW115110   2.257   1.698  13.899
 4850SOL    HW215111   2.313   1.839   0.004
 4851SOL     OW15112   3.652   1.056  13.900
 4851SOL    HW115113   3.591   1.054  13.826
 4851SOL    HW215114   3.596   1.057   0.077
 4852SOL     OW15115   2.184   0.955  13.283
 4852SOL    HW115116   2.266   0.976  13.237
 4852SOL    HW215117   2.153   0.874  13.242
 4853SOL     OW15118   3.346   0.731  13.750
 4853SOL    HW115119   3.330   0.687  13.834
 4853SOL    HW215120   3.416   0.794  13.770
 4854SOL     OW15121   2.983   1.777  13.266
 4854SOL    HW115122   2.911   1.735  13.312
 4854SOL    HW215123   3.004   1.717  13.194
 4855SOL     OW15124   3.490   1.380  13.121
 4855SOL    HW115125   3.448   1.465  13.106
 4855SOL    HW215126   3.421   1.316  13.102
 4856SOL     OW15127   2.335   1.723  13.369
 4856SOL    HW115128   2.370   1.795  13.422
 4856SOL    HW215129   2.395   1.718  13.295
 4857SOL     OW15130   3.288   0.153  13.445
 4857SOL    HW115131   3.255   0.095  13.376
 4857SOL    HW215132   3.378   0.126  13.458
 4858SOL     OW15133   2.790   1.693   0.015
 4858SOL    HW115134   2.836   1.628   0.068
 4858SOL    HW215135   2.745   1.643  13.848
 4859SOL     OW15136   2.253   0.697  13.512
 4859SOL    HW115137   2.276   0.605  13.520
 4859SOL    HW215138   2.158   0.699  13.529
 4860SOL     OW15139   2.501   0.139  13.138
 4860SOL    HW115140   2.543   0.062  13.177
 4860SOL    HW215141   2.439   0.103  13.074
 4861SOL     OW15142   2.411   0.059  13.531
 4861SOL    HW115143   2.334   0.061  13.588
 4861SOL    HW215144   2.405   0.138  13.478
 4862SOL     OW15145   3.290   1.197  13.075
 4862SOL    HW115146   3.321   1.122  13.126
 4862SOL    HW215147   3.205   1.218  13.113
 4863SOL     OW15148   2.185   0.043  13.239
 4863SOL    HW115149   2.206   0.113  13.177
 4863SOL    HW215150   2.269   0.020  13.278
 4864SOL     OW15151   2.797   0.242  13.497
 4864SOL    HW115152   2.770   0.289  13.418
 4864SOL    HW215153   2.893   0.247  13.496
 4865SOL     OW15154   2.326   1.142  13.775
 4865SOL    HW115155   2.251   1.128  13.833
 4865SOL    HW215156   2.291   1.129  13.687
 4866SOL     OW15157   3.134   1.797  13.634
 4866SOL    HW115158   3.176   1.862  13.578
 4866SOL    HW215159   3.068   1.846  13.682
 4867SOL     OW15160   2.888   0.548  13.054
 4867SOL    HW115161   2.844   0.631  13.034
 4867SOL    HW215162   2.950   0.570  13.124
 4868SOL     OW15163   2.752   0.472  13.665
 4868SOL    HW115164   2.683   0.515  13.615
 4868SOL    HW215165   2.756   0.383  13.630
 4869SOL     OW15166   2.861   0.040  13.799
 4869SOL    HW115167   2.830   0.061  13.711
 4869SOL    HW215168   2.880   3.947  13.796
 4870SOL     OW15169   3.726   0.822  13.409
 4870SOL    HW115170   3.771   0.765  13.471
 4870SOL    HW215171   3.684   0.762  13.347
 4871SOL     OW15172   2.356   1.413  13.195
 4871SOL    HW115173   2.281   1.385  13.247
 4871SOL    HW215174   2.333   1.389  13.105
 4872SOL     OW15175   3.536   1.265  13.673
 4872SOL    HW115176   3.630   1.273  13.690
 4872SOL    HW215177   3.499   1.348  13.702
 4873SOL     OW15178   3.255   0.572  13.104
 4873SOL    HW115179   3.194   0.554  13.175
 4873SOL    HW215180   3.341   0.550  13.140
 4874SOL     OW15181   2.390   0.265  13.353
 4874SOL    HW115182   2.436   0.222  13.281
 4874SOL    HW215183   2.367   0.351  13.319
 4875SOL     OW15184   2.570   1.061  13.403
 4875SOL    HW115185   2.556   1.047  13.497
 4875SOL    HW215186   2.646   1.007  13.382
 4876SOL     OW15187   2.218   1.105  13.527
 4876SOL    HW115188   2.219   1.181  13.468
 4876SOL    HW215189   2.215   1.030  13.469
 4877SOL     OW15190   2.435   0.541  13.866
 4877SOL    HW115191   2.448   0.611  13.802
 4877SOL    HW215192   2.485   0.569   0.043
 4878SOL     OW15193   3.109   1.349  13.421
 4878SOL    HW115194   3.164   1.422  13.449
 4878SOL    HW215195   3.023   1.369  13.455
 4879SOL     OW15196   3.448   0.630  13.513
 4879SOL    HW115197   3.408   0.687  13.579
 4879SOL    HW215198   3.486   0.691  13.449
 4880SOL     OW15199   3.070   0.532  13.301
 4880SOL    HW115200   3.075   0.453  13.354
 4880SOL    HW215201   3.026   0.596  13.357
 4881SOL     OW15202   2.190   0.054  13.682
 4881SOL    HW115203   2.163   0.146  13.687
 4881SOL    HW215204   2.122   0.007  13.730
 4882SOL     OW15205   3.456   0.385  13.411
 4882SOL    HW115206   3.449   0.316  13.477
 4882SOL    HW215207   3.440   0.466  13.459
 4883SOL     OW15208   3.373   0.277  13.168
 4883SOL    HW115209   3.298   0.219  13.183
 4883SOL    HW215210   3.388   0.319  13.253
 4884SOL     OW15211   3.156   0.827  13.066
 4884SOL    HW115212   3.198   0.742  13.069
 4884SOL    HW215213   3.187   0.867  12.985
 4885SOL     OW15214   1.866   1.322  13.228
 4885SOL    HW115215   1.778   1.334  13.192
 4885SOL    HW215216   1.866   1.232  13.262
 4886SOL     OW15217   2.678   0.573  13.385
 4886SOL    HW115218   2.680   0.495  13.330
 4886SOL    HW215219   2.600   0.621  13.355
 4887SOL     OW15220   2.329   0.494  13.222
 4887SOL    HW115221   2.386   0.568  13.242
 4887SOL    HW215222   2.242   0.532  13.211
 4888SOL     OW15223   3.173   0.849  13.341
 4888SOL    HW115224   3.092   0.829  13.388
 4888SOL    HW215225   3.149   0.842  13.248
 4889SOL     OW15226   3.548   0.123  13.481
 4889SOL    HW115227   3.640   0.127  13.456
 4889SOL    HW215228   3.546   0.062  13.555
 4890SOL     OW15229   3.246   1.570  13.509
 4890SOL    HW115230   3.308   1.604  13.444
 4890SOL    HW215231   3.202   1.648  13.543
 4891SOL     OW15232   3.148   0.915  13.688
 4891SOL    HW115233   3.225   0.861  13.672
 4891SOL    HW215234   3.170   1.000  13.649
 4892SOL     OW15235   2.538   1.615  13.186
 4892SOL    HW115236   2.543   1.625  13.091
 4892SOL    HW215237   2.482   1.539  13.199
 4893SOL     OW15238   3.678   0.157   0.057
 4893SOL    HW115239   3.717   0.069   0.058
 4893SOL    HW215240   3.584   0.142   0.047
 4894SOL     OW15241   2.137   0.317  13.746
 4894SOL    HW115242   2.047   0.335  13.719
 4894SOL    HW215243   2.133   0.311  13.841
 4895SOL     OW15244   3.068   1.608  13.065
 4895SOL    HW115245   3.060   1.516  13.092
 4895SOL    HW215246   3.002   1.618  12.995
 4896SOL     OW15247   2.779   0.912  13.326
 4896SOL    HW115248   2.839   0.942  13.258
 4896SOL    HW215249   2.823   0.837  13.366
 4897SOL     OW15250   3.357   1.624  13.076
 4897SOL    HW115251   3.262   1.621  13.064
 4897SOL    HW215252   3.391   1.631  12.987
 4898SOL     OW15253   2.911   1.091  13.753
 4898SOL    HW115254   2.824   1.051  13.751
 4898SOL    HW215255   2.960   1.045  13.684
 4899SOL     OW15256   2.460   1.490  13.512
 4899SOL    HW115257   2.501   1.440  13.441
 4899SOL    HW215258   2.400   1.550  13.467
 4900SOL     OW15259   2.120   1.346  13.319
 4900SOL    HW115260   2.026   1.344  13.299
 4900SOL    HW215261   2.125   1.382  13.408
 4901SOL     OW15262   1.958   0.322  13.023
 4901SOL    HW115263   1.872   0.335  13.064
 4901SOL    HW215264   1.979   0.406  12.982
 4902SOL     OW15265   1.953   0.157  13.370
 4902SOL    HW115266   1.921   0.223  13.308
 4902SOL    HW215267   2.034   0.125  13.330
 4903SOL     OW15268   3.042   1.341  13.150
 4903SOL    HW115269   2.951   1.313  13.154
 4903SOL    HW215270   3.071   1.341  13.241
 4904SOL     OW15271   3.084   0.329  13.486
 4904SOL    HW115272   3.153   0.263  13.473
 4904SOL    HW215273   3.113   0.379  13.562
 4905SOL     OW15274   2.455   0.750  13.694
 4905SOL    HW115275   2.491   0.836  13.673
 4905SOL    HW215276   2.384   0.738  13.631
 4906SOL     OW15277   2.724   1.369  13.064
 4906SOL    HW115278   2.684   1.394  13.147
 4906SOL    HW215279   2.744   1.451  13.020
 4907SOL     OW15280   2.513   1.839   0.068
 4907SOL    HW115281   2.517   1.934   0.059
 4907SOL    HW215282   2.604   1.811   0.076
 4908SOL     OW15283   2.698   0.960  13.892
 4908SOL    HW115284   2.745   0.889   0.035
 4908SOL    HW215285   2.698   1.031   0.056
 4909SOL     OW15286   2.941   0.987  13.123
 4909SOL    HW115287   2.919   1.038  13.045
 4909SOL    HW215288   3.017   0.935  13.097
 4910SOL     OW15289   1.947   1.233  13.700
 4910SOL    HW115290   1.946   1.177  13.777
 4910SOL    HW215291   2.017   1.198  13.645
 4911SOL     OW15292   2.290   0.435  13.552
 4911SOL    HW115293   2.322   0.362  13.499
 4911SOL    HW215294   2.253   0.395  13.630
 4912SOL     OW15295   3.541   1.466   0.334
 4912SOL    HW115296   3.513   1.445   0.245
 4912SOL    HW215297   3.621   1.416   0.347
 4913SOL     OW15298   2.683   1.557  13.715
 4913SOL    HW115299   2.670   1.608  13.635
 4913SOL    HW215300   2.602   1.506  13.724
 4914SOL     OW15301   2.634   1.332  13.343
 4914SOL    HW115302   2.600   1.243  13.350
 4914SOL    HW215303   2.716   1.330  13.392
 4915SOL     OW15304   3.179   0.075  13.199
 4915SOL    HW115305   3.205   0.010  13.133
 4915SOL    HW215306   3.095   0.044  13.232
 4916SOL     OW15307   3.157   0.460  13.718
 4916SOL    HW115308   3.103   0.539  13.721
 4916SOL    HW215309   3.156   0.427  13.808
 4917SOL     OW15310   1.906   1.074  13.338
 4917SOL    HW115311   2.000   1.064  13.321
 4917SOL    HW215312   1.877   0.986  13.361
 4918SOL     OW15313   2.743   1.650  13.378
 4918SOL    HW115314   2.672   1.632  13.317
 4918SOL    HW215315   2.712   1.725  13.429
 4919SOL     OW15316   2.095   2.501   0.113
 4919SOL    HW115317   2.009   2.474   0.142
 4919SOL    HW215318   2.111   2.452   0.033
 4920SOL     OW15319   1.869   2.276   0.635
 4920SOL    HW115320   1.781   2.273   0.670
 4920SOL    HW215321   1.878   2.194   0.585
 4921SOL     OW15322   2.428   3.144   1.172
 4921SOL    HW115323   2.340   3.148   1.134
 4921SOL    HW215324   2.444   3.232   1.206
 4922SOL     OW15325   3.419   3.373   0.706
 4922SOL    HW115326   3.374   3.354   0.788
 4922SOL    HW215327   3.349   3.378   0.640
 4923SOL     OW15328   2.990   2.561   0.704
 4923SOL    HW115329   3.042   2.640   0.689
 4923SOL    HW215330   2.945   2.578   0.787
 4924SOL     OW15331   3.621   2.470   0.231
 4924SOL    HW115332   3.621   2.437   0.141
 4924SOL    HW215333   3.589   2.396   0.283
 4925SOL     OW15334   2.620   3.006   1.037
 4925SOL    HW115335   2.551   3.039   1.093
 4925SOL    HW215336   2.654   3.084   0.993
 4926SOL     OW15337   2.723   2.643   1.821
 4926SOL    HW115338   2.712   2.714   1.884
 4926SOL    HW215339   2.748   2.686   1.739
 4927SOL     OW15340   2.548   2.867   0.649
 4927SOL    HW115341   2.612   2.854   0.719
 4927SOL    HW215342   2.478   2.918   0.690
 4928SOL     OW15343   2.570   3.014   1.809
 4928SOL    HW115344   2.617   3.093   1.834
 4928SOL    HW215345   2.486   3.046   1.776
 4929SOL     OW15346   2.194   3.290   1.068
 4929SOL    HW115347   2.121   3.256   1.016
 4929SOL    HW215348   2.245   3.342   1.005
 4930SOL     OW15349   3.323   3.361   1.350
 4930SOL    HW115350   3.369   3.444   1.361
 4930SOL    HW215351   3.269   3.352   1.428
 4931SOL     OW15352   2.285   2.241   1.482
 4931SOL    HW115353   2.373   2.205   1.495
 4931SOL    HW215354   2.226   2.166   1.495
 4932SOL     OW15355   3.475   2.311   0.740
 4932SOL    HW115356   3.400   2.338   0.687
 4932SOL    HW215357   3.497   2.389   0.791
 4933SOL     OW15358   2.083   3.575   0.483
 4933SOL    HW115359   2.117   3.644   0.540
 4933SOL    HW215360   2.141   3.576   0.407
 4934SOL     OW15361   2.997   3.203   1.691
 4934SOL    HW115362   3.038   3.199   1.778
 4934SOL    HW215363   2.945   3.123   1.686
 4935SOL     OW15364   2.085   3.302   0.532
 4935SOL    HW115365   2.075   3.397   0.540
 4935SOL    HW215366   2.026   3.267   0.599
 4936SOL     OW15367   2.115   2.952   0.889
 4936SOL    HW115368   2.113   2.867   0.933
 4936SOL    HW215369   2.058   3.008   0.942
 4937SOL     OW15370   2.477   3.649   1.431
 4937SOL    HW115371   2.394   3.634   1.476
 4937SOL    HW215372   2.502   3.739   1.456
 4938SOL     OW15373   2.437   2.840   0.153
 4938SOL    HW115374   2.457   2.895   0.077
 4938SOL    HW215375   2.490   2.877   0.223
 4939SOL     OW15376   3.458   1.983   1.469
 4939SOL    HW115377   3.455   2.063   1.417
 4939SOL    HW215378   3.448   2.013   1.559
 4940SOL     OW15379   1.980   2.516   0.560
 4940SOL    HW115380   1.948   2.428   0.581
 4940SOL    HW215381   1.969   2.565   0.641
 4941SOL     OW15382   3.700   3.619   0.340
 4941SOL    HW115383   3.760   3.586   0.407
 4941SOL    HW215384   3.728   3.709   0.325
 4942SOL     OW15385   1.885   3.468   0.110
 4942SOL    HW115386   1.887   3.376   0.136
 4942SOL    HW215387   1.869   3.516   0.191
 4943SOL     OW15388   3.549   2.780   0.639
 4943SOL    HW115389   3.635   2.741   0.624
 4943SOL    HW215390   3.532   2.831   0.559
 4944SOL     OW15391   3.505   2.969   0.432
 4944SOL    HW115392   3.591   2.976   0.391
 4944SOL    HW215393   3.508   3.031   0.505
 4945SOL     OW15394   1.982   2.604   1.585
 4945SOL    HW115395   2.074   2.625   1.604
 4945SOL    HW215396   1.936   2.688   1.594
 4946SOL     OW15397   2.475   3.244   0.735
 4946SOL    HW115398   2.428   3.161   0.744
 4946SOL    HW215399   2.458   3.272   0.644
 4947SOL     OW15400   3.152   3.100   1.425
 4947SOL    HW115401   3.185   3.034   1.365
 4947SOL    HW215402   3.208   3.093   1.502
 4948SOL     OW15403   2.693   1.860   0.514
 4948SOL    HW115404   2.731   1.945   0.493
 4948SOL    HW215405   2.599   1.875   0.512
 4949SOL     OW15406   2.054   2.832   1.267
 4949SOL    HW115407   2.138   2.787   1.253
 4949SOL    HW215408   1.989   2.773   1.231
 4950SOL     OW15409   3.395   2.854   0.200
 4950SOL    HW115410   3.325   2.795   0.229
 4950SOL    HW215411   3.430   2.890   0.282
 4951SOL     OW15412   3.068   3.663   1.624
 4951SOL    HW115413   3.058   3.722   1.549
 4951SOL    HW215414   3.071   3.575   1.585
 4952SOL     OW15415   3.326   3.282   0.953
 4952SOL    HW115416   3.259   3.295   1.019
 4952SOL    HW215417   3.316   3.191   0.926
 4953SOL     OW15418   3.520   3.598   0.584
 4953SOL    HW115419   3.503   3.572   0.493
 4953SOL    HW215420   3.498   3.520   0.635
 4954SOL     OW15421   2.458   2.583   0.259
 4954SOL    HW115422   2.465   2.664   0.209
 4954SOL    HW215423   2.399   2.604   0.331
 4955SOL     OW15424   3.141   2.211   0.932
 4955SOL    HW115425   3.052   2.176   0.940
 4955SOL    HW215426   3.192   2.159   0.995
 4956SOL     OW15427   3.422   3.593   0.310
 4956SOL    HW115428   3.518   3.591   0.312
 4956SOL    HW215429   3.399   3.547   0.229
 4957SOL     OW15430   2.656   2.479   1.452
 4957SOL    HW115431   2.630   2.457   1.541
 4957SOL    HW215432   2.612   2.413   1.398
 4958SOL     OW15433   3.256   2.335   1.678
 4958SOL    HW115434   3.256   2.380   1.763
 4958SOL    HW215435   3.319   2.264   1.688
 4959SOL     OW15436   2.819   2.750   1.581
 4959SOL    HW115437   2.874   2.679   1.547
 4959SOL    HW215438   2.773   2.784   1.504
 4960SOL     OW15439   2.855   2.275   1.239
 4960SOL    HW115440   2.772   2.299   1.281
 4960SOL    HW215441   2.830   2.227   1.161
 4961SOL     OW15442   2.910   2.563   0.429
 4961SOL    HW115443   2.925   2.555   0.523
 4961SOL    HW215444   2.829   2.515   0.413
 4962SOL     OW15445   1.951   2.684   0.775
 4962SOL    HW115446   2.033   2.677   0.825
 4962SOL    HW215447   1.908   2.761   0.811
 4963SOL     OW15448   1.989   3.694   1.575
 4963SOL    HW115449   1.985   3.679   1.669
 4963SOL    HW215450   1.898   3.712   1.550
 4964SOL     OW15451   2.734   2.218   0.211
 4964SOL    HW115452   2.775   2.276   0.146
 4964SOL    HW215453   2.743   2.130   0.174
 4965SOL     OW15454   3.575   2.441   1.828
 4965SOL    HW115455   3.537   2.516   1.783
 4965SOL    HW215456   3.594   2.378   1.757
 4966SOL     OW15457   3.236   3.004   0.543
 4966SOL    HW115458   3.314   2.990   0.490
 4966SOL    HW215459   3.184   3.067   0.493
 4967SOL     OW15460   2.406   2.053   0.892
 4967SOL    HW115461   2.411   2.074   0.986
 4967SOL    HW215462   2.426   2.135   0.848
 4968SOL     OW15463   2.871   3.307   0.476
 4968SOL    HW115464   2.831   3.379   0.426
 4968SOL    HW215465   2.856   3.330   0.567
 4969SOL     OW15466   2.213   3.669   0.844
 4969SOL    HW115467   2.263   3.589   0.860
 4969SOL    HW215468   2.275   3.740   0.860
 4970SOL     OW15469   3.664   2.923   0.866
 4970SOL    HW115470   3.607   2.905   0.792
 4970SOL    HW215471   3.605   2.928   0.941
 4971SOL     OW15472   3.089   3.400   1.512
 4971SOL    HW115473   3.075   3.327   1.572
 4971SOL    HW215474   3.028   3.385   1.440
 4972SOL     OW15475   2.179   2.804   0.228
 4972SOL    HW115476   2.270   2.817   0.202
 4972SOL    HW215477   2.165   2.710   0.221
 4973SOL     OW15478   3.337   2.600   0.728
 4973SOL    HW115479   3.327   2.555   0.812
 4973SOL    HW215480   3.413   2.656   0.740
 4974SOL     OW15481   2.326   3.125   1.737
 4974SOL    HW115482   2.298   3.130   1.646
 4974SOL    HW215483   2.245   3.124   1.787
 4975SOL     OW15484   2.985   3.640   0.235
 4975SOL    HW115485   2.922   3.594   0.289
 4975SOL    HW215486   3.010   3.576   0.168
 4976SOL     OW15487   3.494   3.233   0.080
 4976SOL    HW115488   3.457   3.317   0.055
 4976SOL    HW215489   3.425   3.169   0.061
 4977SOL     OW15490   2.339   3.593   0.322
 4977SOL    HW115491   2.368   3.657   0.386
 4977SOL    HW215492   2.417   3.577   0.268
 4978SOL     OW15493   3.265   1.973   0.431
 4978SOL    HW115494   3.256   1.941   0.342
 4978SOL    HW215495   3.359   1.970   0.449
 4979SOL     OW15496   2.118   3.655   1.230
 4979SOL    HW115497   2.168   3.589   1.278
 4979SOL    HW215498   2.105   3.617   1.143
 4980SOL     OW15499   2.800   3.560   0.902
 4980SOL    HW115500   2.877   3.506   0.921
 4980SOL    HW215501   2.754   3.512   0.833
 4981SOL     OW15502   2.251   2.558   0.475
 4981SOL    HW115503   2.275   2.466   0.483
 4981SOL    HW215504   2.158   2.560   0.498
 4982SOL     OW15505   3.400   2.088   1.726
 4982SOL    HW115506   3.408   2.109   1.819
 4982SOL    HW215507   3.333   2.020   1.722
 4983SOL     OW15508   2.629   2.138   1.752
 4983SOL    HW115509   2.702   2.077   1.759
 4983SOL    HW215510   2.580   2.124   1.833
 4984SOL     OW15511   2.738   3.382   1.194
 4984SOL    HW115512   2.724   3.347   1.106
 4984SOL    HW215513   2.808   3.327   1.230
 4985SOL     OW15514   3.204   2.451   1.432
 4985SOL    HW115515   3.234   2.419   1.517
 4985SOL    HW215516   3.239   2.539   1.425
 4986SOL     OW15517   2.675   3.259   0.936
 4986SOL    HW115518   2.759   3.250   0.891
 4986SOL    HW215519   2.610   3.258   0.866
 4987SOL     OW15520   2.788   2.370   0.904
 4987SOL    HW115521   2.765   2.362   0.811
 4987SOL    HW215522   2.823   2.284   0.927
 4988SOL     OW15523   2.440   1.923   0.486
 4988SOL    HW115524   2.368   1.917   0.548
 4988SOL    HW215525   2.423   2.004   0.438
 4989SOL     OW15526   3.292   3.063   0.046
 4989SOL    HW115527   3.314   2.982   0.092
 4989SOL    HW215528   3.199   3.077   0.065
 4990SOL     OW15529   2.801   2.108   0.463
 4990SOL    HW115530   2.770   2.148   0.382
 4990SOL    HW215531   2.895   2.123   0.462
 4991SOL     OW15532   2.942   2.542   1.460
 4991SOL    HW115533   2.872   2.476   1.466
 4991SOL    HW215534   3.022   2.490   1.453
 4992SOL     OW15535   3.086   3.431   0.793
 4992SOL    HW115536   3.105   3.500   0.729
 4992SOL    HW215537   3.154   3.442   0.860
 4993SOL     OW15538   2.329   3.009   0.736
 4993SOL    HW115539   2.258   2.992   0.799
 4993SOL    HW215540   2.289   2.994   0.650
 4994SOL     OW15541   3.133   3.659   0.604
 4994SOL    HW115542   3.176   3.723   0.546
 4994SOL    HW215543   3.065   3.710   0.648
 4995SOL     OW15544   2.862   2.410   0.061
 4995SOL    HW115545   2.862   2.414  13.865
 4995SOL    HW215546   2.954   2.414   0.086
 4996SOL     OW15547   1.936   2.422   1.386
 4996SOL    HW115548   2.029   2.418   1.364
 4996SOL    HW215549   1.931   2.488   1.455
 4997SOL     OW15550   2.419   2.084   1.165
 4997SOL    HW115551   2.463   2.004   1.194
 4997SOL    HW215552   2.334   2.081   1.209
 4998SOL     OW15553   2.728   2.320   0.639
 4998SOL    HW115554   2.687   2.376   0.573
 4998SOL    HW215555   2.751   2.240   0.593
 4999SOL     OW15556   2.874   1.915   0.754
 4999SOL    HW115557   2.818   1.904   0.677
 4999SOL    HW215558   2.855   1.838   0.808
 5000SOL     OW15559   3.298   3.026   0.858
 5000SOL    HW115560   3.231   2.958   0.856
 5000SOL    HW215561   3.320   3.040   0.766
 5001SOL     OW15562   3.329   2.465   0.981
 5001SOL    HW115563   3.283   2.381   0.985
 5001SOL    HW215564   3.390   2.462   1.054
 5002SOL     OW15565   3.722   2.680   0.374
 5002SOL    HW115566   3.765   2.625   0.439
 5002SOL    HW215567   3.683   2.619   0.312
 5003SOL     OW15568   2.351   3.264   0.160
 5003SOL    HW115569   2.274   3.237   0.210
 5003SOL    HW215570   2.328   3.246   0.069
 5004SOL     OW15571   3.527   3.127   0.649
 5004SOL    HW115572   3.622   3.133   0.658
 5004SOL    HW215573   3.496   3.216   0.667
 5005SOL     OW15574   3.281   2.448   0.087
 5005SOL    HW115575   3.210   2.436   0.151
 5005SOL    HW215576   3.325   2.364   0.084
 5006SOL     OW15577   2.385   2.125   0.321
 5006SOL    HW115578   2.430   2.082   0.249
 5006SOL    HW215579   2.361   2.211   0.287
 5007SOL     OW15580   3.614   3.096   1.575
 5007SOL    HW115581   3.701   3.060   1.558
 5007SOL    HW215582   3.631   3.185   1.607
 5008SOL     OW15583   2.923   3.214   1.334
 5008SOL    HW115584   2.848   3.184   1.386
 5008SOL    HW215585   2.999   3.174   1.376
 5009SOL     OW15586   3.467   3.489   1.652
 5009SOL    HW115587   3.462   3.522   1.562
 5009SOL    HW215588   3.550   3.441   1.656
 5010SOL     OW15589   2.987   3.062   1.107
 5010SOL    HW115590   2.930   3.102   1.173
 5010SOL    HW215591   2.953   3.095   1.023
 5011SOL     OW15592   3.495   2.962   1.077
 5011SOL    HW115593   3.489   3.023   1.151
 5011SOL    HW215594   3.414   2.976   1.028
 5012SOL     OW15595   2.779   1.961   1.398
 5012SOL    HW115596   2.803   1.941   1.308
 5012SOL    HW215597   2.858   2.000   1.435
 5013SOL     OW15598   2.846   2.976   1.722
 5013SOL    HW115599   2.753   2.991   1.741
 5013SOL    HW215600   2.846   2.899   1.666
 5014SOL     OW15601   2.574   2.920   0.375
 5014SOL    HW115602   2.560   2.907   0.469
 5014SOL    HW215603   2.650   2.865   0.354
 5015SOL     OW15604   2.278   2.674   1.251
 5015SOL    HW115605   2.347   2.686   1.316
 5015SOL    HW215606   2.242   2.587   1.269
 5016SOL     OW15607   3.129   2.240   1.273
 5016SOL    HW115608   3.162   2.318   1.320
 5016SOL    HW215609   3.040   2.263   1.248
 5017SOL     OW15610   1.930   3.434   1.348
 5017SOL    HW115611   1.899   3.509   1.298
 5017SOL    HW215612   2.025   3.442   1.346
 5018SOL     OW15613   2.213   2.971   0.491
 5018SOL    HW115614   2.216   3.044   0.429
 5018SOL    HW215615   2.220   2.893   0.436
 5019SOL     OW15616   2.412   2.401   0.863
 5019SOL    HW115617   2.429   2.457   0.788
 5019SOL    HW215618   2.477   2.428   0.928
 5020SOL     OW15619   3.110   3.208   0.395
 5020SOL    HW115620   3.166   3.281   0.422
 5020SOL    HW215621   3.023   3.231   0.427
 5021SOL     OW15622   3.139   3.318   1.146
 5021SOL    HW115623   3.194   3.321   1.224
 5021SOL    HW215624   3.084   3.241   1.158
 5022SOL     OW15625   3.446   2.488   0.479
 5022SOL    HW115626   3.400   2.543   0.543
 5022SOL    HW215627   3.482   2.551   0.416
 5023SOL     OW15628   2.210   3.386   1.317
 5023SOL    HW115629   2.197   3.344   1.232
 5023SOL    HW215630   2.304   3.399   1.324
 5024SOL     OW15631   2.275   2.608   1.601
 5024SOL    HW115632   2.336   2.652   1.544
 5024SOL    HW215633   2.318   2.525   1.624
 5025SOL     OW15634   3.460   2.638   1.677
 5025SOL    HW115635   3.374   2.680   1.671
 5025SOL    HW215636   3.512   2.682   1.610
 5026SOL     OW15637   2.858   1.980   1.755
 5026SOL    HW115638   2.910   2.054   1.724
 5026SOL    HW215639   2.907   1.902   1.730
 5027SOL     OW15640   2.374   1.902   1.744
 5027SOL    HW115641   2.329   1.846   1.681
 5027SOL    HW215642   2.310   1.970   1.766
 5028SOL     OW15643   2.444   2.734   1.031
 5028SOL    HW115644   2.475   2.824   1.027
 5028SOL    HW215645   2.388   2.731   1.109
 5029SOL     OW15646   3.223   2.721   1.033
 5029SOL    HW115647   3.142   2.714   0.982
 5029SOL    HW215648   3.260   2.633   1.031
 5030SOL     OW15649   3.080   2.403   0.275
 5030SOL    HW115650   3.083   2.321   0.325
 5030SOL    HW215651   3.026   2.462   0.329
 5031SOL     OW15652   1.908   3.172   1.277
 5031SOL    HW115653   1.942   3.119   1.349
 5031SOL    HW215654   1.916   3.263   1.307
 5032SOL     OW15655   2.586   2.492   1.059
 5032SOL    HW115656   2.661   2.475   1.001
 5032SOL    HW215657   2.560   2.582   1.038
 5033SOL     OW15658   3.595   2.820   1.855
 5033SOL    HW115659   3.549   2.768   1.790
 5033SOL    HW215660   3.531   2.831   1.926
 5034SOL     OW15661   2.223   1.909   0.623
 5034SOL    HW115662   2.146   1.962   0.600
 5034SOL    HW215663   2.199   1.869   0.707
 5035SOL     OW15664   3.478   2.235   0.373
 5035SOL    HW115665   3.502   2.170   0.439
 5035SOL    HW215666   3.452   2.312   0.424
 5036SOL     OW15667   2.888   2.622   0.962
 5036SOL    HW115668   2.889   2.639   1.056
 5036SOL    HW215669   2.863   2.530   0.955
 5037SOL     OW15670   2.846   3.429   1.715
 5037SOL    HW115671   2.829   3.472   1.631
 5037SOL    HW215672   2.888   3.346   1.691
 5038SOL     OW15673   3.709   3.370   1.601
 5038SOL    HW115674   3.730   3.396   1.512
 5038SOL    HW215675   3.790   3.386   1.650
 5039SOL     OW15676   2.216   2.780   1.807
 5039SOL    HW115677   2.298   2.796   1.853
 5039SOL    HW215678   2.238   2.717   1.738
 5040SOL     OW15679   3.411   2.127   0.134
 5040SOL    HW115680   3.354   2.053   0.156
 5040SOL    HW215681   3.434   2.165   0.219
 5041SOL     OW15682   3.157   2.692   0.055
 5041SOL    HW115683   3.202   2.608   0.060
 5041SOL    HW215684   3.176   2.724  13.867
 5042SOL     OW15685   2.927   3.197   0.852
 5042SOL    HW115686   2.930   3.124   0.790
 5042SOL    HW215687   2.990   3.260   0.818
 5043SOL     OW15688   2.173   2.673   0.947
 5043SOL    HW115689   2.266   2.696   0.941
 5043SOL    HW215690   2.172   2.587   0.989
 5044SOL     OW15691   2.191   2.360   1.012
 5044SOL    HW115692   2.151   2.285   0.967
 5044SOL    HW215693   2.269   2.381   0.960
 5045SOL     OW15694   2.996   2.240   1.679
 5045SOL    HW115695   2.951   2.295   1.743
 5045SOL    HW215696   3.085   2.277   1.675
 5046SOL     OW15697   3.022   2.067   1.469
 5046SOL    HW115698   3.013   2.129   1.542
 5046SOL    HW215699   3.060   2.118   1.398
 5047SOL     OW15700   1.878   3.176   0.183
 5047SOL    HW115701   1.797   3.186   0.132
 5047SOL    HW215702   1.873   3.087   0.218
 5048SOL     OW15703   1.956   3.649   0.936
 5048SOL    HW115704   1.925   3.569   0.893
 5048SOL    HW215705   2.042   3.664   0.899
 5049SOL     OW15706   2.361   3.435   0.906
 5049SOL    HW115707   2.429   3.498   0.930
 5049SOL    HW215708   2.406   3.371   0.852
 5050SOL     OW15709   2.850   2.656   1.228
 5050SOL    HW115710   2.904   2.631   1.303
 5050SOL    HW215711   2.763   2.621   1.249
 5051SOL     OW15712   1.899   2.398   1.117
 5051SOL    HW115713   1.984   2.394   1.073
 5051SOL    HW215714   1.921   2.414   1.209
 5052SOL     OW15715   2.058   2.382   1.722
 5052SOL    HW115716   2.116   2.352   1.653
 5052SOL    HW215717   2.005   2.450   1.681
 5053SOL     OW15718   3.238   2.803   1.660
 5053SOL    HW115719   3.259   2.897   1.660
 5053SOL    HW215720   3.236   2.779   1.567
 5054SOL     OW15721   2.675   2.435   0.364
 5054SOL    HW115722   2.689   2.362   0.305
 5054SOL    HW215723   2.603   2.484   0.326
 5055SOL     OW15724   3.504   2.464   1.189
 5055SOL    HW115725   3.492   2.403   1.262
 5055SOL    HW215726   3.590   2.441   1.153
 5056SOL     OW15727   2.110   3.414   1.730
 5056SOL    HW115728   2.085   3.478   1.797
 5056SOL    HW215729   2.107   3.330   1.776
 5057SOL     OW15730   2.552   2.316   1.263
 5057SOL    HW115731   2.507   2.239   1.228
 5057SOL    HW215732   2.555   2.378   1.190
 5058SOL     OW15733   2.794   3.537   1.466
 5058SOL    HW115734   2.766   3.505   1.380
 5058SOL    HW215735   2.789   3.632   1.459
 5059SOL     OW15736   2.307   2.359   0.230
 5059SOL    HW115737   2.372   2.429   0.233
 5059SOL    HW215738   2.230   2.400   0.192
 5060SOL     OW15739   2.010   3.002   1.471
 5060SOL    HW115740   2.015   2.948   1.550
 5060SOL    HW215741   2.027   2.941   1.400
 5061SOL     OW15742   3.190   2.911   1.225
 5061SOL    HW115743   3.215   2.848   1.157
 5061SOL    HW215744   3.118   2.960   1.187
 5062SOL     OW15745   3.170   2.721   0.323
 5062SOL    HW115746   3.093   2.685   0.369
 5062SOL    HW215747   3.151   2.706   0.230
 5063SOL     OW15748   3.632   3.609   1.149
 5063SOL    HW115749   3.691   3.634   1.078
 5063SOL    HW215750   3.608   3.519   1.129
 5064SOL     OW15751   3.105   3.596   1.116
 5064SOL    HW115752   3.187   3.613   1.070
 5064SOL    HW215753   3.107   3.502   1.135
 5065SOL     OW15754   1.946   3.127   1.014
 5065SOL    HW115755   1.933   3.139   1.108
 5065SOL    HW215756   1.870   3.075   0.986
 5066SOL     OW15757   2.540   3.524   1.724
 5066SOL    HW115758   2.488   3.604   1.727
 5066SOL    HW215759   2.600   3.538   1.650
 5067SOL     OW15760   2.777   1.964   0.136
 5067SOL    HW115761   2.815   1.956   0.048
 5067SOL    HW215762   2.827   1.902   0.189
 5068SOL     OW15763   3.573   2.004   0.515
 5068SOL    HW115764   3.652   1.996   0.461
 5068SOL    HW215765   3.563   1.917   0.555
 5069SOL     OW15766   3.251   3.433   0.481
 5069SOL    HW115767   3.313   3.466   0.416
 5069SOL    HW215768   3.205   3.511   0.513
 5070SOL     OW15769   1.993   3.656   1.841
 5070SOL    HW115770   1.942   3.592   1.889
 5070SOL    HW215771   2.044   3.702   1.908
 5071SOL     OW15772   3.139   2.786   0.671
 5071SOL    HW115773   3.212   2.725   0.676
 5071SOL    HW215774   3.172   2.859   0.619
 5072SOL     OW15775   2.680   3.134   1.431
 5072SOL    HW115776   2.654   3.173   1.515
 5072SOL    HW215777   2.609   3.157   1.371
 5073SOL     OW15778   2.549   3.444   0.175
 5073SOL    HW115779   2.526   3.490   0.095
 5073SOL    HW215780   2.490   3.369   0.177
 5074SOL     OW15781   3.491   3.587   1.391
 5074SOL    HW115782   3.542   3.594   1.310
 5074SOL    HW215783   3.479   3.678   1.419
 5075SOL     OW15784   3.699   2.041   0.969
 5075SOL    HW115785   3.730   1.955   0.941
 5075SOL    HW215786   3.613   2.051   0.928
 5076SOL     OW15787   3.077   3.465   0.031
 5076SOL    HW115788   3.068   3.375   0.062
 5076SOL    HW215789   3.037   3.464  13.844
 5077SOL     OW15790   2.686   2.868   1.371
 5077SOL    HW115791   2.730   2.866   1.286
 5077SOL    HW215792   2.687   2.960   1.396
 5078SOL     OW15793   2.781   2.772   0.287
 5078SOL    HW115794   2.852   2.809   0.234
 5078SOL    HW215795   2.822   2.700   0.335
 5079SOL     OW15796   3.351   3.492   0.066
 5079SOL    HW115797   3.258   3.486   0.048
 5079SOL    HW215798   3.392   3.502  13.880
 5080SOL     OW15799   2.232   3.162   1.491
 5080SOL    HW115800   2.218   3.241   1.438
 5080SOL    HW215801   2.154   3.109   1.475
 5081SOL     OW15802   3.468   3.143   1.280
 5081SOL    HW115803   3.534   3.139   1.349
 5081SOL    HW215804   3.410   3.215   1.306
 5082SOL     OW15805   2.910   2.967   0.704
 5082SOL    HW115806   2.840   2.915   0.745
 5082SOL    HW215807   2.972   2.902   0.671
 5083SOL     OW15808   2.880   2.101   0.966
 5083SOL    HW115809   2.876   2.053   0.883
 5083SOL    HW215810   2.877   2.034   1.033
 5084SOL     OW15811   2.463   3.352   0.482
 5084SOL    HW115812   2.505   3.300   0.413
 5084SOL    HW215813   2.400   3.407   0.436
 5085SOL     OW15814   3.582   2.253   1.379
 5085SOL    HW115815   3.653   2.317   1.375
 5085SOL    HW215816   3.611   2.181   1.324
 5086SOL     OW15817   2.128   3.193   0.294
 5086SOL    HW115818   2.041   3.203   0.253
 5086SOL    HW215819   2.119   3.238   0.378
 5087SOL     OW15820   1.973   2.880   1.718
 5087SOL    HW115821   1.897   2.858   1.772
 5087SOL    HW215822   2.048   2.845   1.767
 5088SOL     OW15823   2.534   2.060   1.498
 5088SOL    HW115824   2.617   2.040   1.456
 5088SOL    HW215825   2.558   2.087   1.587
 5089SOL     OW15826   1.882   2.284   0.050
 5089SOL    HW115827   1.866   2.190   0.054
 5089SOL    HW215828   1.936   2.296  13.872
 5090SOL     OW15829   3.293   2.721   1.402
 5090SOL    HW115830   3.244   2.781   1.345
 5090SOL    HW215831   3.382   2.723   1.367
 5091SOL     OW15832   3.046   3.213   0.123
 5091SOL    HW115833   2.954   3.190   0.113
 5091SOL    HW215834   3.065   3.199   0.215
 5092SOL     OW15835   2.480   2.693   1.431
 5092SOL    HW115836   2.535   2.770   1.418
 5092SOL    HW215837   2.543   2.621   1.441
 5093SOL     OW15838   3.347   3.640   0.977
 5093SOL    HW115839   3.375   3.689   0.900
 5093SOL    HW215840   3.429   3.617   1.021
 5094SOL     OW15841   2.580   2.426   1.704
 5094SOL    HW115842   2.614   2.490   1.766
 5094SOL    HW215843   2.613   2.342   1.735
 5095SOL     OW15844   3.330   3.065   1.633
 5095SOL    HW115845   3.319   3.078   1.727
 5095SOL    HW215846   3.424   3.077   1.618
 5096SOL     OW15847   2.243   3.601   1.561
 5096SOL    HW115848   2.156   3.639   1.549
 5096SOL    HW215849   2.226   3.517   1.604
 5097SOL     OW15850   3.531   2.744   1.258
 5097SOL    HW115851   3.526   2.658   1.215
 5097SOL    HW215852   3.526   2.807   1.186
 5098SOL     OW15853   3.082   2.182   0.455
 5098SOL    HW115854   3.146   2.111   0.447
 5098SOL    HW215855   3.109   2.231   0.533
 5099SOL     OW15856   2.451   2.601   0.668
 5099SOL    HW115857   2.492   2.686   0.652
 5099SOL    HW215858   2.382   2.596   0.602
 5100SOL     OW15859   3.627   2.223   1.648
 5100SOL    HW115860   3.608   2.235   1.555
 5100SOL    HW215861   3.557   2.166   1.679
 5101SOL     OW15862   3.611   2.794   1.514
 5101SOL    HW115863   3.610   2.889   1.528
 5101SOL    HW215864   3.592   2.783   1.421
 5102SOL     OW15865   2.764   3.254   0.054
 5102SOL    HW115866   2.690   3.246   0.114
 5102SOL    HW215867   2.725   3.282  13.871
 5103SOL     OW15868   2.521   3.656   0.947
 5103SOL    HW115869   2.497   3.745   0.923
 5103SOL    HW215870   2.616   3.652   0.939
 5104SOL     OW15871   2.727   2.826   0.856
 5104SOL    HW115872   2.779   2.757   0.897
 5104SOL    HW215873   2.695   2.879   0.929
 5105SOL     OW15874   2.959   2.864   0.104
 5105SOL    HW115875   2.948   2.913   0.023
 5105SOL    HW215876   3.035   2.808   0.089
 5106SOL     OW15877   3.720   3.417   0.842
 5106SOL    HW115878   3.641   3.404   0.790
 5106SOL    HW215879   3.714   3.352   0.912
 5107SOL     OW15880   2.086   3.167   1.856
 5107SOL    HW115881   2.018   3.105   1.828
 5107SOL    HW215882   2.070   3.179   1.949
 5108SOL     OW15883   1.945   3.096   0.663
 5108SOL    HW115884   1.948   3.047   0.745
 5108SOL    HW215885   2.017   3.061   0.611
 5109SOL     OW15886   2.542   3.262   1.626
 5109SOL    HW115887   2.462   3.219   1.656
 5109SOL    HW215888   2.537   3.350   1.663
 5110SOL     OW15889   3.678   2.045   1.240
 5110SOL    HW115890   3.673   1.949   1.248
 5110SOL    HW215891   3.689   2.060   1.146
 5111SOL     OW15892   2.290   2.293   0.531
 5111SOL    HW115893   2.321   2.234   0.463
 5111SOL    HW215894   2.252   2.235   0.597
 5112SOL     OW15895   3.562   3.354   1.101
 5112SOL    HW115896   3.482   3.326   1.057
 5112SOL    HW215897   3.580   3.286   1.165
 5113SOL     OW15898   2.189   2.415   1.289
 5113SOL    HW115899   2.238   2.357   1.348
 5113SOL    HW215900   2.212   2.383   1.201
 5114SOL     OW15901   2.687   3.440   0.679
 5114SOL    HW115902   2.682   3.484   0.594
 5114SOL    HW215903   2.609   3.385   0.683
 5115SOL     OW15904   3.294   2.086   1.118
 5115SOL    HW115905   3.322   2.007   1.165
 5115SOL    HW215906   3.242   2.135   1.182
 5116SOL     OW15907   2.870   1.882   1.145
 5116SOL    HW115908   2.816   1.813   1.107
 5116SOL    HW215909   2.958   1.845   1.147
 5117SOL     OW15910   2.630   3.184   0.317
 5117SOL    HW115911   2.601   3.095   0.332
 5117SOL    HW215912   2.717   3.189   0.357
 5118SOL     OW15913   2.482   3.419   1.284
 5118SOL    HW115914   2.484   3.500   1.335
 5118SOL    HW215915   2.569   3.413   1.245
 5119SOL     OW15916   3.209   1.927   0.162
 5119SOL    HW115917   3.241   1.870   0.092
 5119SOL    HW215918   3.128   1.885   0.192
 5120SOL     OW15919   3.158   2.322   0.682
 5120SOL    HW115920   3.105   2.401   0.691
 5120SOL    HW215921   3.157   2.281   0.769
 5121SOL     OW15922   3.447   2.067   0.876
 5121SOL    HW115923   3.384   2.086   0.945
 5121SOL    HW215924   3.448   2.146   0.822
 5122SOL     OW15925   1.902   2.933   0.307
 5122SOL    HW115926   1.997   2.929   0.302
 5122SOL    HW215927   1.875   2.844   0.329
 5123SOL     OW15928   2.751   3.514   0.348
 5123SOL    HW115929   2.681   3.484   0.289
 5123SOL    HW215930   2.714   3.590   0.392
 5124SOL     OW15931   2.094   2.491   1.982
 5124SOL    HW115932   2.006   2.474   2.016
 5124SOL    HW215933   2.092   2.459   1.892
 5125SOL     OW15934   1.868   2.279   2.496
 5125SOL    HW115935   1.779   2.275   2.531
 5125SOL    HW215936   1.876   2.199   2.444
 5126SOL     OW15937   2.428   3.144   3.034
 5126SOL    HW115938   2.341   3.148   2.996
 5126SOL    HW215939   2.443   3.232   3.068
 5127SOL     OW15940   3.419   3.374   2.568
 5127SOL    HW115941   3.375   3.354   2.651
 5127SOL    HW215942   3.348   3.378   2.504
 5128SOL     OW15943   2.990   2.561   2.566
 5128SOL    HW115944   3.042   2.640   2.551
 5128SOL    HW215945   2.945   2.578   2.648
 5129SOL     OW15946   3.626   2.470   2.093
 5129SOL    HW115947   3.608   2.461   2.000
 5129SOL    HW215948   3.591   2.390   2.133
 5130SOL     OW15949   2.621   3.006   2.899
 5130SOL    HW115950   2.551   3.039   2.956
 5130SOL    HW215951   2.655   3.084   2.855
 5131SOL     OW15952   2.723   2.643   3.683
 5131SOL    HW115953   2.712   2.714   3.746
 5131SOL    HW215954   2.748   2.686   3.601
 5132SOL     OW15955   2.548   2.868   2.511
 5132SOL    HW115956   2.612   2.854   2.581
 5132SOL    HW215957   2.478   2.918   2.552
 5133SOL     OW15958   2.570   3.014   3.671
 5133SOL    HW115959   2.617   3.093   3.696
 5133SOL    HW215960   2.486   3.046   3.638
 5134SOL     OW15961   2.193   3.290   2.930
 5134SOL    HW115962   2.121   3.255   2.878
 5134SOL    HW215963   2.244   3.342   2.867
 5135SOL     OW15964   3.323   3.361   3.212
 5135SOL    HW115965   3.369   3.444   3.223
 5135SOL    HW215966   3.269   3.352   3.290
 5136SOL     OW15967   2.285   2.242   3.345
 5136SOL    HW115968   2.373   2.206   3.357
 5136SOL    HW215969   2.227   2.167   3.355
 5137SOL     OW15970   3.475   2.311   2.602
 5137SOL    HW115971   3.400   2.338   2.549
 5137SOL    HW215972   3.496   2.389   2.654
 5138SOL     OW15973   2.083   3.579   2.341
 5138SOL    HW115974   2.119   3.640   2.405
 5138SOL    HW215975   2.149   3.572   2.273
 5139SOL     OW15976   2.997   3.203   3.553
 5139SOL    HW115977   3.038   3.199   3.640
 5139SOL    HW215978   2.945   3.123   3.548
 5140SOL     OW15979   2.090   3.303   2.396
 5140SOL    HW115980   2.072   3.397   2.404
 5140SOL    HW215981   2.030   3.262   2.458
 5141SOL     OW15982   2.116   2.952   2.752
 5141SOL    HW115983   2.113   2.867   2.795
 5141SOL    HW215984   2.058   3.008   2.805
 5142SOL     OW15985   2.477   3.649   3.293
 5142SOL    HW115986   2.394   3.634   3.338
 5142SOL    HW215987   2.502   3.739   3.318
 5143SOL     OW15988   2.452   2.841   1.993
 5143SOL    HW115989   2.494   2.894   1.926
 5143SOL    HW215990   2.492   2.870   2.075
 5144SOL     OW15991   3.458   1.983   3.331
 5144SOL    HW115992   3.455   2.063   3.279
 5144SOL    HW215993   3.448   2.013   3.421
 5145SOL     OW15994   1.981   2.517   2.422
 5145SOL    HW115995   1.947   2.430   2.442
 5145SOL    HW215996   1.970   2.566   2.503
 5146SOL     OW15997   3.699   3.619   2.203
 5146SOL    HW115998   3.764   3.592   2.268
 5146SOL    HW215999   3.724   3.708   2.178
 5147SOL     OW16000   1.888   3.458   1.985
 5147SOL    HW116001   1.874   3.365   2.007
 5147SOL    HW216002   1.868   3.504   2.066
 5148SOL     OW16003   3.550   2.781   2.500
 5148SOL    HW116004   3.635   2.741   2.485
 5148SOL    HW216005   3.532   2.831   2.420
 5149SOL     OW16006   3.504   2.970   2.293
 5149SOL    HW116007   3.588   2.978   2.248
 5149SOL    HW216008   3.510   3.031   2.367
 5150SOL     OW16009   1.982   2.605   3.446
 5150SOL    HW116010   2.074   2.626   3.465
 5150SOL    HW216011   1.936   2.688   3.455
 5151SOL     OW16012   2.475   3.244   2.597
 5151SOL    HW116013   2.428   3.161   2.606
 5151SOL    HW216014   2.458   3.272   2.506
 5152SOL     OW16015   3.152   3.100   3.287
 5152SOL    HW116016   3.185   3.034   3.227
 5152SOL    HW216017   3.208   3.093   3.364
 5153SOL     OW16018   2.692   1.859   2.374
 5153SOL    HW116019   2.731   1.944   2.355
 5153SOL    HW216020   2.598   1.875   2.373
 5154SOL     OW16021   2.054   2.832   3.129
 5154SOL    HW116022   2.138   2.787   3.115
 5154SOL    HW216023   1.989   2.773   3.093
 5155SOL     OW16024   3.392   2.854   2.059
 5155SOL    HW116025   3.323   2.796   2.089
 5155SOL    HW216026   3.432   2.888   2.138
 5156SOL     OW16027   3.068   3.663   3.486
 5156SOL    HW116028   3.058   3.721   3.411
 5156SOL    HW216029   3.071   3.575   3.448
 5157SOL     OW16030   3.326   3.282   2.814
 5157SOL    HW116031   3.259   3.296   2.881
 5157SOL    HW216032   3.316   3.191   2.788
 5158SOL     OW16033   3.517   3.598   2.441
 5158SOL    HW116034   3.502   3.566   2.352
 5158SOL    HW216035   3.496   3.523   2.496
 5159SOL     OW16036   2.458   2.587   2.127
 5159SOL    HW116037   2.466   2.666   2.074
 5159SOL    HW216038   2.392   2.608   2.193
 5160SOL     OW16039   3.141   2.211   2.794
 5160SOL    HW116040   3.052   2.176   2.802
 5160SOL    HW216041   3.192   2.159   2.857
 5161SOL     OW16042   3.440   3.534   2.170
 5161SOL    HW116043   3.531   3.565   2.166
 5161SOL    HW216044   3.418   3.513   2.079
 5162SOL     OW16045   2.656   2.479   3.314
 5162SOL    HW116046   2.630   2.457   3.403
 5162SOL    HW216047   2.612   2.413   3.260
 5163SOL     OW16048   3.256   2.335   3.540
 5163SOL    HW116049   3.256   2.380   3.625
 5163SOL    HW216050   3.319   2.264   3.550
 5164SOL     OW16051   2.819   2.750   3.443
 5164SOL    HW116052   2.874   2.679   3.409
 5164SOL    HW216053   2.773   2.784   3.366
 5165SOL     OW16054   2.855   2.275   3.101
 5165SOL    HW116055   2.772   2.299   3.143
 5165SOL    HW216056   2.830   2.227   3.023
 5166SOL     OW16057   2.912   2.561   2.289
 5166SOL    HW116058   2.926   2.554   2.383
 5166SOL    HW216059   2.830   2.514   2.274
 5167SOL     OW16060   1.950   2.682   2.639
 5167SOL    HW116061   2.033   2.677   2.687
 5167SOL    HW216062   1.908   2.761   2.673
 5168SOL     OW16063   1.989   3.694   3.437
 5168SOL    HW116064   1.985   3.679   3.531
 5168SOL    HW216065   1.898   3.712   3.412
 5169SOL     OW16066   2.750   2.209   2.057
 5169SOL    HW116067   2.794   2.269   1.997
 5169SOL    HW216068   2.764   2.122   2.020
 5170SOL     OW16069   3.575   2.441   3.690
 5170SOL    HW116070   3.537   2.516   3.645
 5170SOL    HW216071   3.594   2.378   3.620
 5171SOL     OW16072   3.236   3.004   2.404
 5171SOL    HW116073   3.315   2.990   2.352
 5171SOL    HW216074   3.185   3.066   2.353
 5172SOL     OW16075   2.405   2.053   2.754
 5172SOL    HW116076   2.410   2.074   2.847
 5172SOL    HW216077   2.426   2.135   2.710
 5173SOL     OW16078   2.871   3.309   2.336
 5173SOL    HW116079   2.828   3.380   2.287
 5173SOL    HW216080   2.856   3.330   2.428
 5174SOL     OW16081   2.213   3.668   2.704
 5174SOL    HW116082   2.263   3.589   2.722
 5174SOL    HW216083   2.274   3.740   2.722
 5175SOL     OW16084   3.664   2.924   2.728
 5175SOL    HW116085   3.607   2.905   2.653
 5175SOL    HW216086   3.605   2.928   2.803
 5176SOL     OW16087   3.089   3.400   3.374
 5176SOL    HW116088   3.076   3.327   3.434
 5176SOL    HW216089   3.028   3.385   3.302
 5177SOL     OW16090   2.183   2.816   2.110
 5177SOL    HW116091   2.265   2.836   2.063
 5177SOL    HW216092   2.151   2.736   2.071
 5178SOL     OW16093   3.337   2.601   2.590
 5178SOL    HW116094   3.327   2.555   2.674
 5178SOL    HW216095   3.414   2.656   2.602
 5179SOL     OW16096   2.327   3.125   3.599
 5179SOL    HW116097   2.298   3.130   3.508
 5179SOL    HW216098   2.245   3.124   3.649
 5180SOL     OW16099   2.975   3.642   2.087
 5180SOL    HW116100   2.914   3.593   2.143
 5180SOL    HW216101   3.003   3.578   2.021
 5181SOL     OW16102   3.489   3.243   1.951
 5181SOL    HW116103   3.448   3.327   1.932
 5181SOL    HW216104   3.422   3.178   1.931
 5182SOL     OW16105   2.331   3.595   2.186
 5182SOL    HW116106   2.366   3.661   2.247
 5182SOL    HW216107   2.404   3.575   2.129
 5183SOL     OW16108   3.263   1.970   2.292
 5183SOL    HW116109   3.252   1.944   2.200
 5183SOL    HW216110   3.358   1.976   2.305
 5184SOL     OW16111   2.118   3.655   3.092
 5184SOL    HW116112   2.168   3.589   3.140
 5184SOL    HW216113   2.105   3.617   3.005
 5185SOL     OW16114   2.800   3.560   2.764
 5185SOL    HW116115   2.877   3.506   2.783
 5185SOL    HW216116   2.754   3.512   2.695
 5186SOL     OW16117   2.253   2.557   2.341
 5186SOL    HW116118   2.275   2.465   2.348
 5186SOL    HW216119   2.159   2.561   2.358
 5187SOL     OW16120   3.400   2.088   3.588
 5187SOL    HW116121   3.408   2.109   3.681
 5187SOL    HW216122   3.333   2.020   3.584
 5188SOL     OW16123   2.499   1.990   1.969
 5188SOL    HW116124   2.570   1.929   1.989
 5188SOL    HW216125   2.455   1.951   1.893
 5189SOL     OW16126   2.629   2.138   3.614
 5189SOL    HW116127   2.702   2.077   3.621
 5189SOL    HW216128   2.579   2.124   3.695
 5190SOL     OW16129   2.739   3.382   3.056
 5190SOL    HW116130   2.724   3.347   2.968
 5190SOL    HW216131   2.808   3.327   3.092
 5191SOL     OW16132   3.204   2.451   3.294
 5191SOL    HW116133   3.234   2.419   3.379
 5191SOL    HW216134   3.239   2.539   3.287
 5192SOL     OW16135   2.675   3.260   2.798
 5192SOL    HW116136   2.759   3.250   2.753
 5192SOL    HW216137   2.610   3.257   2.728
 5193SOL     OW16138   2.788   2.370   2.766
 5193SOL    HW116139   2.766   2.362   2.673
 5193SOL    HW216140   2.823   2.284   2.790
 5194SOL     OW16141   2.439   1.926   2.346
 5194SOL    HW116142   2.365   1.918   2.406
 5194SOL    HW216143   2.421   2.007   2.297
 5195SOL     OW16144   3.291   3.060   1.903
 5195SOL    HW116145   3.322   2.984   1.953
 5195SOL    HW216146   3.204   3.079   1.941
 5196SOL     OW16147   2.800   2.108   2.326
 5196SOL    HW116148   2.770   2.149   2.244
 5196SOL    HW216149   2.895   2.121   2.326
 5197SOL     OW16150   2.942   2.542   3.322
 5197SOL    HW116151   2.872   2.476   3.328
 5197SOL    HW216152   3.022   2.490   3.315
 5198SOL     OW16153   3.086   3.431   2.655
 5198SOL    HW116154   3.105   3.500   2.591
 5198SOL    HW216155   3.154   3.441   2.722
 5199SOL     OW16156   2.329   3.010   2.599
 5199SOL    HW116157   2.258   2.992   2.660
 5199SOL    HW216158   2.291   2.992   2.513
 5200SOL     OW16159   3.133   3.659   2.466
 5200SOL    HW116160   3.175   3.724   2.409
 5200SOL    HW216161   3.065   3.709   2.511
 5201SOL     OW16162   2.888   2.407   1.881
 5201SOL    HW116163   2.846   2.491   1.861
 5201SOL    HW216164   2.952   2.428   1.949
 5202SOL     OW16165   1.936   2.423   3.248
 5202SOL    HW116166   2.029   2.418   3.226
 5202SOL    HW216167   1.931   2.489   3.317
 5203SOL     OW16168   2.419   2.084   3.027
 5203SOL    HW116169   2.463   2.004   3.056
 5203SOL    HW216170   2.333   2.081   3.070
 5204SOL     OW16171   2.728   2.320   2.502
 5204SOL    HW116172   2.686   2.376   2.437
 5204SOL    HW216173   2.751   2.240   2.455
 5205SOL     OW16174   2.874   1.915   2.616
 5205SOL    HW116175   2.818   1.904   2.539
 5205SOL    HW216176   2.855   1.838   2.670
 5206SOL     OW16177   3.298   3.026   2.720
 5206SOL    HW116178   3.231   2.958   2.718
 5206SOL    HW216179   3.321   3.039   2.628
 5207SOL     OW16180   3.329   2.465   2.843
 5207SOL    HW116181   3.283   2.381   2.847
 5207SOL    HW216182   3.390   2.462   2.916
 5208SOL     OW16183   3.721   2.682   2.238
 5208SOL    HW116184   3.766   2.625   2.301
 5208SOL    HW216185   3.684   2.621   2.173
 5209SOL     OW16186   2.355   3.275   2.022
 5209SOL    HW116187   2.280   3.247   2.074
 5209SOL    HW216188   2.333   3.249   1.933
 5210SOL     OW16189   3.527   3.128   2.511
 5210SOL    HW116190   3.622   3.133   2.519
 5210SOL    HW216191   3.496   3.216   2.532
 5211SOL     OW16192   3.256   2.433   1.933
 5211SOL    HW116193   3.195   2.415   2.005
 5211SOL    HW216194   3.340   2.400   1.964
 5212SOL     OW16195   2.384   2.130   2.179
 5212SOL    HW116196   2.423   2.077   2.109
 5212SOL    HW216197   2.367   2.214   2.139
 5213SOL     OW16198   3.614   3.096   3.437
 5213SOL    HW116199   3.701   3.060   3.420
 5213SOL    HW216200   3.631   3.185   3.469
 5214SOL     OW16201   2.923   3.215   3.196
 5214SOL    HW116202   2.848   3.184   3.248
 5214SOL    HW216203   2.999   3.174   3.238
 5215SOL     OW16204   3.467   3.489   3.514
 5215SOL    HW116205   3.462   3.522   3.424
 5215SOL    HW216206   3.550   3.441   3.518
 5216SOL     OW16207   2.987   3.063   2.969
 5216SOL    HW116208   2.930   3.102   3.035
 5216SOL    HW216209   2.953   3.095   2.885
 5217SOL     OW16210   3.495   2.962   2.939
 5217SOL    HW116211   3.489   3.023   3.013
 5217SOL    HW216212   3.414   2.976   2.890
 5218SOL     OW16213   2.779   1.961   3.260
 5218SOL    HW116214   2.803   1.941   3.170
 5218SOL    HW216215   2.858   2.000   3.297
 5219SOL     OW16216   2.846   2.976   3.584
 5219SOL    HW116217   2.753   2.991   3.603
 5219SOL    HW216218   2.846   2.899   3.528
 5220SOL     OW16219   2.570   2.922   2.234
 5220SOL    HW116220   2.556   2.908   2.327
 5220SOL    HW216221   2.646   2.869   2.212
 5221SOL     OW16222   2.278   2.674   3.113
 5221SOL    HW116223   2.347   2.686   3.178
 5221SOL    HW216224   2.242   2.587   3.131
 5222SOL     OW16225   3.129   2.240   3.135
 5222SOL    HW116226   3.162   2.318   3.181
 5222SOL    HW216227   3.040   2.263   3.109
 5223SOL     OW16228   1.930   3.434   3.210
 5223SOL    HW116229   1.899   3.509   3.160
 5223SOL    HW216230   2.025   3.442   3.208
 5224SOL     OW16231   2.216   2.968   2.354
 5224SOL    HW116232   2.219   3.042   2.293
 5224SOL    HW216233   2.214   2.890   2.298
 5225SOL     OW16234   2.413   2.401   2.725
 5225SOL    HW116235   2.429   2.458   2.650
 5225SOL    HW216236   2.477   2.428   2.790
 5226SOL     OW16237   3.110   3.210   2.251
 5226SOL    HW116238   3.165   3.281   2.282
 5226SOL    HW216239   3.023   3.230   2.285
 5227SOL     OW16240   3.139   3.318   3.008
 5227SOL    HW116241   3.194   3.321   3.086
 5227SOL    HW216242   3.084   3.241   3.020
 5228SOL     OW16243   3.444   2.487   2.339
 5228SOL    HW116244   3.400   2.544   2.403
 5228SOL    HW216245   3.488   2.547   2.279
 5229SOL     OW16246   2.210   3.386   3.179
 5229SOL    HW116247   2.197   3.344   3.094
 5229SOL    HW216248   2.304   3.399   3.186
 5230SOL     OW16249   2.275   2.608   3.463
 5230SOL    HW116250   2.337   2.652   3.406
 5230SOL    HW216251   2.317   2.525   3.486
 5231SOL     OW16252   3.460   2.638   3.540
 5231SOL    HW116253   3.374   2.680   3.533
 5231SOL    HW216254   3.512   2.682   3.472
 5232SOL     OW16255   2.858   1.980   3.617
 5232SOL    HW116256   2.910   2.054   3.586
 5232SOL    HW216257   2.908   1.902   3.592
 5233SOL     OW16258   2.373   1.903   3.607
 5233SOL    HW116259   2.328   1.846   3.543
 5233SOL    HW216260   2.308   1.969   3.629
 5234SOL     OW16261   2.445   2.734   2.894
 5234SOL    HW116262   2.475   2.824   2.889
 5234SOL    HW216263   2.388   2.731   2.971
 5235SOL     OW16264   3.223   2.721   2.895
 5235SOL    HW116265   3.142   2.714   2.845
 5235SOL    HW216266   3.260   2.633   2.893
 5236SOL     OW16267   3.069   2.391   2.131
 5236SOL    HW116268   3.077   2.313   2.185
 5236SOL    HW216269   3.027   2.455   2.188
 5237SOL     OW16270   1.908   3.172   3.139
 5237SOL    HW116271   1.941   3.119   3.211
 5237SOL    HW216272   1.916   3.262   3.169
 5238SOL     OW16273   2.586   2.492   2.921
 5238SOL    HW116274   2.661   2.475   2.863
 5238SOL    HW216275   2.560   2.582   2.901
 5239SOL     OW16276   3.595   2.820   3.717
 5239SOL    HW116277   3.549   2.768   3.652
 5239SOL    HW216278   3.531   2.831   3.788
 5240SOL     OW16279   2.220   1.904   2.481
 5240SOL    HW116280   2.147   1.963   2.462
 5240SOL    HW216281   2.200   1.868   2.567
 5241SOL     OW16282   3.476   2.234   2.231
 5241SOL    HW116283   3.504   2.171   2.297
 5241SOL    HW216284   3.453   2.312   2.281
 5242SOL     OW16285   2.888   2.622   2.824
 5242SOL    HW116286   2.889   2.639   2.918
 5242SOL    HW216287   2.863   2.530   2.817
 5243SOL     OW16288   2.846   3.429   3.577
 5243SOL    HW116289   2.829   3.472   3.493
 5243SOL    HW216290   2.888   3.346   3.554
 5244SOL     OW16291   3.709   3.370   3.464
 5244SOL    HW116292   3.730   3.396   3.374
 5244SOL    HW216293   3.790   3.386   3.512
 5245SOL     OW16294   2.216   2.780   3.669
 5245SOL    HW116295   2.298   2.796   3.715
 5245SOL    HW216296   2.238   2.717   3.600
 5246SOL     OW16297   3.393   2.136   1.989
 5246SOL    HW116298   3.329   2.070   2.015
 5246SOL    HW216299   3.425   2.172   2.072
 5247SOL     OW16300   3.156   2.689   1.895
 5247SOL    HW116301   3.199   2.603   1.898
 5247SOL    HW216302   3.187   2.728   1.813
 5248SOL     OW16303   2.926   3.197   2.714
 5248SOL    HW116304   2.930   3.124   2.653
 5248SOL    HW216305   2.990   3.260   2.680
 5249SOL     OW16306   2.173   2.673   2.810
 5249SOL    HW116307   2.266   2.696   2.802
 5249SOL    HW216308   2.173   2.587   2.851
 5250SOL     OW16309   2.191   2.360   2.874
 5250SOL    HW116310   2.151   2.286   2.828
 5250SOL    HW216311   2.269   2.381   2.822
 5251SOL     OW16312   2.996   2.240   3.541
 5251SOL    HW116313   2.951   2.295   3.605
 5251SOL    HW216314   3.085   2.277   3.537
 5252SOL     OW16315   3.022   2.067   3.331
 5252SOL    HW116316   3.013   2.129   3.404
 5252SOL    HW216317   3.060   2.118   3.260
 5253SOL     OW16318   1.867   3.185   2.058
 5253SOL    HW116319   1.780   3.198   2.020
 5253SOL    HW216320   1.865   3.094   2.090
 5254SOL     OW16321   1.956   3.649   2.798
 5254SOL    HW116322   1.925   3.569   2.755
 5254SOL    HW216323   2.042   3.664   2.761
 5255SOL     OW16324   2.361   3.436   2.768
 5255SOL    HW116325   2.429   3.498   2.792
 5255SOL    HW216326   2.406   3.370   2.714
 5256SOL     OW16327   2.850   2.656   3.090
 5256SOL    HW116328   2.904   2.631   3.165
 5256SOL    HW216329   2.763   2.621   3.111
 5257SOL     OW16330   1.899   2.398   2.979
 5257SOL    HW116331   1.983   2.395   2.934
 5257SOL    HW216332   1.921   2.414   3.071
 5258SOL     OW16333   2.060   2.384   3.584
 5258SOL    HW116334   2.118   2.353   3.514
 5258SOL    HW216335   2.006   2.452   3.542
 5259SOL     OW16336   3.238   2.803   3.522
 5259SOL    HW116337   3.259   2.897   3.522
 5259SOL    HW216338   3.236   2.779   3.429
 5260SOL     OW16339   2.677   2.431   2.218
 5260SOL    HW116340   2.680   2.356   2.159
 5260SOL    HW216341   2.603   2.483   2.187
 5261SOL     OW16342   3.504   2.464   3.051
 5261SOL    HW116343   3.493   2.403   3.124
 5261SOL    HW216344   3.590   2.441   3.015
 5262SOL     OW16345   2.110   3.414   3.592
 5262SOL    HW116346   2.085   3.478   3.659
 5262SOL    HW216347   2.107   3.330   3.638
 5263SOL     OW16348   2.552   2.316   3.125
 5263SOL    HW116349   2.507   2.239   3.090
 5263SOL    HW216350   2.555   2.378   3.052
 5264SOL     OW16351   2.794   3.537   3.328
 5264SOL    HW116352   2.766   3.505   3.242
 5264SOL    HW216353   2.789   3.632   3.321
 5265SOL     OW16354   2.329   2.359   2.054
 5265SOL    HW116355   2.385   2.434   2.073
 5265SOL    HW216356   2.242   2.397   2.038
 5266SOL     OW16357   2.011   3.002   3.333
 5266SOL    HW116358   2.015   2.948   3.412
 5266SOL    HW216359   2.027   2.940   3.262
 5267SOL     OW16360   3.190   2.911   3.087
 5267SOL    HW116361   3.215   2.848   3.019
 5267SOL    HW216362   3.118   2.960   3.049
 5268SOL     OW16363   3.171   2.718   2.169
 5268SOL    HW116364   3.093   2.688   2.218
 5268SOL    HW216365   3.148   2.705   2.077
 5269SOL     OW16366   3.632   3.609   3.011
 5269SOL    HW116367   3.691   3.634   2.940
 5269SOL    HW216368   3.607   3.519   2.992
 5270SOL     OW16369   3.105   3.596   2.978
 5270SOL    HW116370   3.187   3.613   2.932
 5270SOL    HW216371   3.107   3.502   2.997
 5271SOL     OW16372   1.945   3.128   2.875
 5271SOL    HW116373   1.932   3.139   2.970
 5271SOL    HW216374   1.871   3.074   2.847
 5272SOL     OW16375   2.540   3.524   3.586
 5272SOL    HW116376   2.488   3.604   3.590
 5272SOL    HW216377   2.600   3.538   3.512
 5273SOL     OW16378   3.578   2.005   2.377
 5273SOL    HW116379   3.647   1.992   2.312
 5273SOL    HW216380   3.565   1.918   2.416
 5274SOL     OW16381   3.251   3.430   2.345
 5274SOL    HW116382   3.312   3.461   2.278
 5274SOL    HW216383   3.205   3.509   2.374
 5275SOL     OW16384   1.993   3.656   3.703
 5275SOL    HW116385   1.942   3.592   3.751
 5275SOL    HW216386   2.044   3.702   3.770
 5276SOL     OW16387   3.139   2.786   2.533
 5276SOL    HW116388   3.212   2.725   2.538
 5276SOL    HW216389   3.172   2.859   2.481
 5277SOL     OW16390   2.680   3.134   3.293
 5277SOL    HW116391   2.654   3.173   3.377
 5277SOL    HW216392   2.609   3.156   3.233
 5278SOL     OW16393   2.537   3.475   2.018
 5278SOL    HW116394   2.543   3.490   1.924
 5278SOL    HW216395   2.481   3.398   2.027
 5279SOL     OW16396   3.491   3.588   3.253
 5279SOL    HW116397   3.542   3.594   3.172
 5279SOL    HW216398   3.479   3.678   3.281
 5280SOL     OW16399   3.699   2.041   2.831
 5280SOL    HW116400   3.730   1.956   2.803
 5280SOL    HW216401   3.613   2.051   2.790
 5281SOL     OW16402   3.067   3.470   1.896
 5281SOL    HW116403   3.059   3.378   1.921
 5281SOL    HW216404   3.006   3.481   1.823
 5282SOL     OW16405   2.686   2.868   3.233
 5282SOL    HW116406   2.730   2.865   3.148
 5282SOL    HW216407   2.687   2.960   3.258
 5283SOL     OW16408   2.778   2.772   2.152
 5283SOL    HW116409   2.839   2.804   2.085
 5283SOL    HW216410   2.824   2.701   2.196
 5284SOL     OW16411   3.355   3.489   1.903
 5284SOL    HW116412   3.261   3.481   1.889
 5284SOL    HW216413   3.392   3.494   1.815
 5285SOL     OW16414   2.232   3.163   3.353
 5285SOL    HW116415   2.218   3.241   3.300
 5285SOL    HW216416   2.154   3.109   3.337
 5286SOL     OW16417   3.468   3.143   3.142
 5286SOL    HW116418   3.534   3.139   3.211
 5286SOL    HW216419   3.410   3.215   3.168
 5287SOL     OW16420   2.910   2.967   2.567
 5287SOL    HW116421   2.840   2.916   2.607
 5287SOL    HW216422   2.971   2.902   2.533
 5288SOL     OW16423   2.880   2.101   2.828
 5288SOL    HW116424   2.876   2.053   2.745
 5288SOL    HW216425   2.877   2.034   2.895
 5289SOL     OW16426   2.463   3.352   2.344
 5289SOL    HW116427   2.504   3.300   2.274
 5289SOL    HW216428   2.399   3.407   2.299
 5290SOL     OW16429   3.582   2.253   3.241
 5290SOL    HW116430   3.653   2.317   3.237
 5290SOL    HW216431   3.611   2.181   3.186
 5291SOL     OW16432   2.120   3.209   2.149
 5291SOL    HW116433   2.027   3.206   2.127
 5291SOL    HW216434   2.123   3.246   2.237
 5292SOL     OW16435   1.974   2.880   3.581
 5292SOL    HW116436   1.897   2.858   3.634
 5292SOL    HW216437   2.048   2.845   3.629
 5293SOL     OW16438   2.534   2.060   3.360
 5293SOL    HW116439   2.617   2.040   3.318
 5293SOL    HW216440   2.558   2.087   3.449
 5294SOL     OW16441   1.898   2.274   1.922
 5294SOL    HW116442   1.854   2.196   1.889
 5294SOL    HW216443   1.951   2.305   1.849
 5295SOL     OW16444   3.293   2.721   3.264
 5295SOL    HW116445   3.244   2.781   3.207
 5295SOL    HW216446   3.382   2.723   3.229
 5296SOL     OW16447   3.042   3.204   1.979
 5296SOL    HW116448   2.951   3.174   1.982
 5296SOL    HW216449   3.070   3.202   2.070
 5297SOL     OW16450   2.480   2.693   3.293
 5297SOL    HW116451   2.535   2.770   3.280
 5297SOL    HW216452   2.543   2.621   3.303
 5298SOL     OW16453   3.347   3.640   2.839
 5298SOL    HW116454   3.375   3.690   2.762
 5298SOL    HW216455   3.429   3.617   2.884
 5299SOL     OW16456   2.580   2.426   3.566
 5299SOL    HW116457   2.614   2.490   3.628
 5299SOL    HW216458   2.613   2.342   3.597
 5300SOL     OW16459   3.330   3.065   3.495
 5300SOL    HW116460   3.319   3.078   3.589
 5300SOL    HW216461   3.424   3.077   3.480
 5301SOL     OW16462   2.243   3.601   3.423
 5301SOL    HW116463   2.156   3.639   3.411
 5301SOL    HW216464   2.226   3.517   3.466
 5302SOL     OW16465   3.531   2.744   3.120
 5302SOL    HW116466   3.526   2.658   3.077
 5302SOL    HW216467   3.526   2.807   3.048
 5303SOL     OW16468   3.081   2.182   2.319
 5303SOL    HW116469   3.144   2.111   2.310
 5303SOL    HW216470   3.109   2.230   2.397
 5304SOL     OW16471   2.452   2.601   2.530
 5304SOL    HW116472   2.493   2.686   2.514
 5304SOL    HW216473   2.383   2.595   2.464
 5305SOL     OW16474   3.627   2.223   3.510
 5305SOL    HW116475   3.608   2.235   3.417
 5305SOL    HW216476   3.557   2.166   3.541
 5306SOL     OW16477   3.611   2.794   3.376
 5306SOL    HW116478   3.610   2.889   3.390
 5306SOL    HW216479   3.592   2.783   3.283
 5307SOL     OW16480   2.725   3.231   1.893
 5307SOL    HW116481   2.684   3.257   1.975
 5307SOL    HW216482   2.743   3.313   1.847
 5308SOL     OW16483   2.520   3.656   2.809
 5308SOL    HW116484   2.498   3.745   2.785
 5308SOL    HW216485   2.616   3.652   2.801
 5309SOL     OW16486   2.727   2.827   2.718
 5309SOL    HW116487   2.779   2.757   2.759
 5309SOL    HW216488   2.696   2.879   2.792
 5310SOL     OW16489   2.942   2.850   1.950
 5310SOL    HW116490   2.920   2.900   1.872
 5310SOL    HW216491   3.017   2.797   1.925
 5311SOL     OW16492   3.719   3.419   2.704
 5311SOL    HW116493   3.640   3.402   2.652
 5311SOL    HW216494   3.716   3.352   2.773
 5312SOL     OW16495   2.086   3.167   3.718
 5312SOL    HW116496   2.018   3.105   3.690
 5312SOL    HW216497   2.070   3.179   3.811
 5313SOL     OW16498   1.945   3.098   2.525
 5313SOL    HW116499   1.948   3.048   2.607
 5313SOL    HW216500   2.014   3.058   2.471
 5314SOL     OW16501   2.542   3.262   3.487
 5314SOL    HW116502   2.462   3.219   3.518
 5314SOL    HW216503   2.537   3.350   3.525
 5315SOL     OW16504   3.678   2.045   3.102
 5315SOL    HW116505   3.673   1.949   3.110
 5315SOL    HW216506   3.689   2.060   3.008
 5316SOL     OW16507   2.291   2.293   2.386
 5316SOL    HW116508   2.322   2.231   2.321
 5316SOL    HW216509   2.251   2.239   2.454
 5317SOL     OW16510   3.562   3.354   2.963
 5317SOL    HW116511   3.481   3.326   2.920
 5317SOL    HW216512   3.580   3.286   3.028
 5318SOL     OW16513   2.189   2.415   3.151
 5318SOL    HW116514   2.238   2.357   3.210
 5318SOL    HW216515   2.211   2.383   3.063
 5319SOL     OW16516   2.687   3.440   2.541
 5319SOL    HW116517   2.681   3.482   2.455
 5319SOL    HW216518   2.609   3.385   2.546
 5320SOL     OW16519   3.294   2.086   2.980
 5320SOL    HW116520   3.322   2.007   3.027
 5320SOL    HW216521   3.242   2.135   3.044
 5321SOL     OW16522   2.870   1.882   3.007
 5321SOL    HW116523   2.816   1.813   2.969
 5321SOL    HW216524   2.958   1.845   3.009
 5322SOL     OW16525   2.633   3.194   2.173
 5322SOL    HW116526   2.599   3.105   2.179
 5322SOL    HW216527   2.716   3.191   2.221
 5323SOL     OW16528   2.482   3.420   3.146
 5323SOL    HW116529   2.484   3.500   3.197
 5323SOL    HW216530   2.569   3.413   3.107
 5324SOL     OW16531   3.214   1.916   2.025
 5324SOL    HW116532   3.240   1.855   1.956
 5324SOL    HW216533   3.128   1.884   2.053
 5325SOL     OW16534   3.159   2.322   2.545
 5325SOL    HW116535   3.105   2.401   2.554
 5325SOL    HW216536   3.157   2.282   2.632
 5326SOL     OW16537   3.447   2.067   2.738
 5326SOL    HW116538   3.384   2.086   2.807
 5326SOL    HW216539   3.448   2.146   2.684
 5327SOL     OW16540   1.906   2.935   2.167
 5327SOL    HW116541   1.999   2.925   2.150
 5327SOL    HW216542   1.876   2.847   2.190
 5328SOL     OW16543   2.743   3.514   2.208
 5328SOL    HW116544   2.674   3.494   2.145
 5328SOL    HW216545   2.712   3.591   2.255
 5329SOL     OW16546   2.094   2.491   3.844
 5329SOL    HW116547   2.006   2.474   3.878
 5329SOL    HW216548   2.092   2.459   3.754
 5330SOL     OW16549   1.865   2.281   4.355
 5330SOL    HW116550   1.777   2.277   4.393
 5330SOL    HW216551   1.871   2.203   4.300
 5331SOL     OW16552   2.428   3.144   4.896
 5331SOL    HW116553   2.341   3.148   4.858
 5331SOL    HW216554   2.443   3.233   4.930
 5332SOL     OW16555   3.419   3.374   4.430
 5332SOL    HW116556   3.375   3.354   4.513
 5332SOL    HW216557   3.348   3.378   4.366
 5333SOL     OW16558   2.990   2.561   4.428
 5333SOL    HW116559   3.042   2.640   4.413
 5333SOL    HW216560   2.945   2.577   4.510
 5334SOL     OW16561   3.626   2.470   3.955
 5334SOL    HW116562   3.608   2.461   3.862
 5334SOL    HW216563   3.591   2.390   3.995
 5335SOL     OW16564   2.621   3.006   4.761
 5335SOL    HW116565   2.551   3.039   4.818
 5335SOL    HW216566   2.655   3.084   4.717
 5336SOL     OW16567   2.722   2.644   5.545
 5336SOL    HW116568   2.715   2.715   5.608
 5336SOL    HW216569   2.747   2.686   5.463
 5337SOL     OW16570   2.548   2.868   4.373
 5337SOL    HW116571   2.612   2.854   4.443
 5337SOL    HW216572   2.478   2.918   4.414
 5338SOL     OW16573   2.570   3.014   5.532
 5338SOL    HW116574   2.618   3.093   5.557
 5338SOL    HW216575   2.486   3.046   5.499
 5339SOL     OW16576   2.193   3.290   4.792
 5339SOL    HW116577   2.121   3.255   4.740
 5339SOL    HW216578   2.244   3.342   4.729
 5340SOL     OW16579   3.323   3.361   5.074
 5340SOL    HW116580   3.369   3.444   5.085
 5340SOL    HW216581   3.269   3.352   5.152
 5341SOL     OW16582   2.286   2.243   5.207
 5341SOL    HW116583   2.374   2.208   5.219
 5341SOL    HW216584   2.229   2.167   5.216
 5342SOL     OW16585   3.475   2.311   4.464
 5342SOL    HW116586   3.400   2.338   4.411
 5342SOL    HW216587   3.496   2.389   4.516
 5343SOL     OW16588   2.083   3.579   4.203
 5343SOL    HW116589   2.119   3.640   4.267
 5343SOL    HW216590   2.149   3.572   4.135
 5344SOL     OW16591   2.997   3.203   5.415
 5344SOL    HW116592   3.038   3.199   5.502
 5344SOL    HW216593   2.945   3.123   5.410
 5345SOL     OW16594   2.090   3.303   4.258
 5345SOL    HW116595   2.072   3.397   4.266
 5345SOL    HW216596   2.030   3.262   4.320
 5346SOL     OW16597   2.116   2.952   4.614
 5346SOL    HW116598   2.113   2.867   4.657
 5346SOL    HW216599   2.058   3.008   4.667
 5347SOL     OW16600   2.477   3.650   5.155
 5347SOL    HW116601   2.394   3.634   5.200
 5347SOL    HW216602   2.502   3.739   5.180
 5348SOL     OW16603   2.452   2.841   3.855
 5348SOL    HW116604   2.494   2.894   3.788
 5348SOL    HW216605   2.492   2.870   3.937
 5349SOL     OW16606   3.459   1.983   5.193
 5349SOL    HW116607   3.455   2.064   5.141
 5349SOL    HW216608   3.448   2.013   5.283
 5350SOL     OW16609   1.981   2.518   4.284
 5350SOL    HW116610   1.947   2.430   4.303
 5350SOL    HW216611   1.970   2.566   4.365
 5351SOL     OW16612   3.699   3.619   4.064
 5351SOL    HW116613   3.764   3.592   4.130
 5351SOL    HW216614   3.725   3.708   4.040
 5352SOL     OW16615   1.888   3.458   3.847
 5352SOL    HW116616   1.874   3.365   3.869
 5352SOL    HW216617   1.868   3.504   3.928
 5353SOL     OW16618   3.550   2.781   4.362
 5353SOL    HW116619   3.635   2.741   4.347
 5353SOL    HW216620   3.532   2.831   4.282
 5354SOL     OW16621   3.504   2.970   4.155
 5354SOL    HW116622   3.588   2.978   4.110
 5354SOL    HW216623   3.510   3.031   4.229
 5355SOL     OW16624   1.982   2.605   5.308
 5355SOL    HW116625   2.074   2.626   5.327
 5355SOL    HW216626   1.936   2.689   5.317
 5356SOL     OW16627   2.475   3.244   4.459
 5356SOL    HW116628   2.428   3.161   4.468
 5356SOL    HW216629   2.458   3.272   4.368
 5357SOL     OW16630   3.152   3.101   5.149
 5357SOL    HW116631   3.185   3.034   5.089
 5357SOL    HW216632   3.208   3.093   5.226
 5358SOL     OW16633   2.693   1.859   4.237
 5358SOL    HW116634   2.732   1.944   4.217
 5358SOL    HW216635   2.599   1.875   4.235
 5359SOL     OW16636   2.054   2.832   4.992
 5359SOL    HW116637   2.138   2.787   4.977
 5359SOL    HW216638   1.989   2.773   4.954
 5360SOL     OW16639   3.392   2.854   3.921
 5360SOL    HW116640   3.323   2.796   3.951
 5360SOL    HW216641   3.432   2.888   4.001
 5361SOL     OW16642   3.068   3.663   5.348
 5361SOL    HW116643   3.058   3.721   5.273
 5361SOL    HW216644   3.071   3.575   5.310
 5362SOL     OW16645   3.326   3.282   4.676
 5362SOL    HW116646   3.259   3.296   4.743
 5362SOL    HW216647   3.316   3.191   4.649
 5363SOL     OW16648   3.517   3.598   4.303
 5363SOL    HW116649   3.502   3.566   4.214
 5363SOL    HW216650   3.496   3.523   4.359
 5364SOL     OW16651   2.458   2.587   3.989
 5364SOL    HW116652   2.466   2.666   3.936
 5364SOL    HW216653   2.392   2.608   4.055
 5365SOL     OW16654   3.141   2.210   4.656
 5365SOL    HW116655   3.052   2.176   4.664
 5365SOL    HW216656   3.192   2.159   4.719
 5366SOL     OW16657   3.440   3.534   4.032
 5366SOL    HW116658   3.531   3.565   4.028
 5366SOL    HW216659   3.418   3.513   3.941
 5367SOL     OW16660   2.656   2.479   5.176
 5367SOL    HW116661   2.631   2.457   5.265
 5367SOL    HW216662   2.612   2.413   5.122
 5368SOL     OW16663   3.256   2.336   5.402
 5368SOL    HW116664   3.256   2.380   5.487
 5368SOL    HW216665   3.319   2.264   5.412
 5369SOL     OW16666   2.820   2.750   5.305
 5369SOL    HW116667   2.874   2.679   5.271
 5369SOL    HW216668   2.773   2.783   5.228
 5370SOL     OW16669   2.856   2.275   4.963
 5370SOL    HW116670   2.773   2.299   5.006
 5370SOL    HW216671   2.830   2.227   4.885
 5371SOL     OW16672   2.912   2.561   4.151
 5371SOL    HW116673   2.926   2.554   4.245
 5371SOL    HW216674   2.830   2.514   4.136
 5372SOL     OW16675   1.950   2.682   4.501
 5372SOL    HW116676   2.033   2.677   4.549
 5372SOL    HW216677   1.908   2.761   4.535
 5373SOL     OW16678   1.989   3.693   5.299
 5373SOL    HW116679   1.985   3.679   5.393
 5373SOL    HW216680   1.898   3.712   5.274
 5374SOL     OW16681   2.750   2.209   3.919
 5374SOL    HW116682   2.794   2.269   3.859
 5374SOL    HW216683   2.764   2.122   3.882
 5375SOL     OW16684   3.576   2.441   5.552
 5375SOL    HW116685   3.537   2.516   5.507
 5375SOL    HW216686   3.594   2.378   5.481
 5376SOL     OW16687   3.236   3.004   4.266
 5376SOL    HW116688   3.315   2.990   4.214
 5376SOL    HW216689   3.185   3.066   4.215
 5377SOL     OW16690   2.404   2.053   4.616
 5377SOL    HW116691   2.409   2.073   4.709
 5377SOL    HW216692   2.426   2.135   4.572
 5378SOL     OW16693   2.871   3.309   4.198
 5378SOL    HW116694   2.828   3.380   4.149
 5378SOL    HW216695   2.856   3.330   4.290
 5379SOL     OW16696   2.213   3.668   4.566
 5379SOL    HW116697   2.263   3.589   4.584
 5379SOL    HW216698   2.274   3.740   4.584
 5380SOL     OW16699   3.664   2.924   4.590
 5380SOL    HW116700   3.607   2.905   4.515
 5380SOL    HW216701   3.605   2.928   4.665
 5381SOL     OW16702   3.089   3.400   5.236
 5381SOL    HW116703   3.076   3.327   5.296
 5381SOL    HW216704   3.028   3.385   5.164
 5382SOL     OW16705   2.183   2.817   3.972
 5382SOL    HW116706   2.265   2.836   3.925
 5382SOL    HW216707   2.151   2.736   3.933
 5383SOL     OW16708   3.337   2.601   4.452
 5383SOL    HW116709   3.327   2.555   4.536
 5383SOL    HW216710   3.414   2.656   4.464
 5384SOL     OW16711   2.326   3.125   5.461
 5384SOL    HW116712   2.298   3.130   5.370
 5384SOL    HW216713   2.245   3.124   5.511
 5385SOL     OW16714   2.975   3.642   3.949
 5385SOL    HW116715   2.914   3.593   4.005
 5385SOL    HW216716   3.003   3.578   3.883
 5386SOL     OW16717   3.489   3.243   3.813
 5386SOL    HW116718   3.448   3.327   3.794
 5386SOL    HW216719   3.422   3.178   3.793
 5387SOL     OW16720   2.331   3.595   4.048
 5387SOL    HW116721   2.366   3.661   4.109
 5387SOL    HW216722   2.404   3.575   3.991
 5388SOL     OW16723   3.263   1.970   4.154
 5388SOL    HW116724   3.252   1.944   4.062
 5388SOL    HW216725   3.358   1.976   4.167
 5389SOL     OW16726   2.118   3.655   4.954
 5389SOL    HW116727   2.168   3.589   5.002
 5389SOL    HW216728   2.106   3.617   4.867
 5390SOL     OW16729   2.800   3.560   4.626
 5390SOL    HW116730   2.877   3.506   4.645
 5390SOL    HW216731   2.754   3.512   4.557
 5391SOL     OW16732   2.253   2.558   4.202
 5391SOL    HW116733   2.275   2.465   4.210
 5391SOL    HW216734   2.159   2.561   4.220
 5392SOL     OW16735   3.400   2.088   5.450
 5392SOL    HW116736   3.408   2.109   5.543
 5392SOL    HW216737   3.332   2.021   5.446
 5393SOL     OW16738   2.499   1.990   3.831
 5393SOL    HW116739   2.570   1.928   3.851
 5393SOL    HW216740   2.454   1.951   3.755
 5394SOL     OW16741   2.632   2.141   5.475
 5394SOL    HW116742   2.705   2.079   5.480
 5394SOL    HW216743   2.579   2.121   5.553
 5395SOL     OW16744   2.739   3.382   4.918
 5395SOL    HW116745   2.724   3.347   4.830
 5395SOL    HW216746   2.808   3.327   4.954
 5396SOL     OW16747   3.204   2.450   5.156
 5396SOL    HW116748   3.234   2.419   5.241
 5396SOL    HW216749   3.239   2.539   5.149
 5397SOL     OW16750   2.675   3.260   4.660
 5397SOL    HW116751   2.759   3.250   4.615
 5397SOL    HW216752   2.610   3.257   4.590
 5398SOL     OW16753   2.788   2.370   4.628
 5398SOL    HW116754   2.766   2.362   4.535
 5398SOL    HW216755   2.823   2.284   4.652
 5399SOL     OW16756   2.440   1.927   4.208
 5399SOL    HW116757   2.365   1.916   4.266
 5399SOL    HW216758   2.422   2.007   4.159
 5400SOL     OW16759   3.291   3.060   3.765
 5400SOL    HW116760   3.322   2.984   3.815
 5400SOL    HW216761   3.204   3.079   3.803
 5401SOL     OW16762   2.800   2.108   4.188
 5401SOL    HW116763   2.771   2.149   4.106
 5401SOL    HW216764   2.895   2.121   4.188
 5402SOL     OW16765   2.942   2.542   5.184
 5402SOL    HW116766   2.872   2.477   5.191
 5402SOL    HW216767   3.022   2.490   5.177
 5403SOL     OW16768   3.086   3.431   4.517
 5403SOL    HW116769   3.105   3.500   4.453
 5403SOL    HW216770   3.154   3.441   4.584
 5404SOL     OW16771   2.329   3.010   4.461
 5404SOL    HW116772   2.258   2.992   4.522
 5404SOL    HW216773   2.291   2.992   4.375
 5405SOL     OW16774   3.133   3.659   4.328
 5405SOL    HW116775   3.175   3.724   4.271
 5405SOL    HW216776   3.065   3.709   4.373
 5406SOL     OW16777   2.888   2.407   3.743
 5406SOL    HW116778   2.846   2.491   3.723
 5406SOL    HW216779   2.952   2.428   3.811
 5407SOL     OW16780   1.936   2.423   5.110
 5407SOL    HW116781   2.029   2.418   5.088
 5407SOL    HW216782   1.931   2.489   5.179
 5408SOL     OW16783   2.418   2.084   4.889
 5408SOL    HW116784   2.463   2.004   4.918
 5408SOL    HW216785   2.333   2.081   4.933
 5409SOL     OW16786   2.728   2.320   4.364
 5409SOL    HW116787   2.686   2.376   4.299
 5409SOL    HW216788   2.751   2.240   4.317
 5410SOL     OW16789   2.874   1.915   4.478
 5410SOL    HW116790   2.818   1.904   4.401
 5410SOL    HW216791   2.855   1.838   4.532
 5411SOL     OW16792   3.298   3.026   4.582
 5411SOL    HW116793   3.231   2.958   4.580
 5411SOL    HW216794   3.321   3.039   4.490
 5412SOL     OW16795   3.329   2.465   4.705
 5412SOL    HW116796   3.283   2.381   4.709
 5412SOL    HW216797   3.390   2.462   4.778
 5413SOL     OW16798   3.721   2.682   4.100
 5413SOL    HW116799   3.766   2.625   4.163
 5413SOL    HW216800   3.685   2.621   4.035
 5414SOL     OW16801   2.355   3.275   3.884
 5414SOL    HW116802   2.280   3.247   3.936
 5414SOL    HW216803   2.333   3.249   3.795
 5415SOL     OW16804   3.527   3.128   4.373
 5415SOL    HW116805   3.622   3.133   4.381
 5415SOL    HW216806   3.496   3.216   4.394
 5416SOL     OW16807   3.256   2.433   3.795
 5416SOL    HW116808   3.195   2.415   3.867
 5416SOL    HW216809   3.340   2.400   3.826
 5417SOL     OW16810   2.384   2.130   4.041
 5417SOL    HW116811   2.423   2.077   3.971
 5417SOL    HW216812   2.367   2.214   4.001
 5418SOL     OW16813   3.614   3.096   5.299
 5418SOL    HW116814   3.701   3.060   5.282
 5418SOL    HW216815   3.631   3.185   5.331
 5419SOL     OW16816   2.923   3.215   5.058
 5419SOL    HW116817   2.848   3.184   5.110
 5419SOL    HW216818   2.999   3.174   5.100
 5420SOL     OW16819   3.467   3.489   5.376
 5420SOL    HW116820   3.462   3.522   5.286
 5420SOL    HW216821   3.550   3.441   5.380
 5421SOL     OW16822   2.987   3.063   4.831
 5421SOL    HW116823   2.930   3.102   4.897
 5421SOL    HW216824   2.952   3.095   4.747
 5422SOL     OW16825   3.495   2.962   4.801
 5422SOL    HW116826   3.489   3.023   4.875
 5422SOL    HW216827   3.414   2.976   4.752
 5423SOL     OW16828   2.779   1.961   5.122
 5423SOL    HW116829   2.803   1.941   5.032
 5423SOL    HW216830   2.858   2.000   5.160
 5424SOL     OW16831   2.846   2.976   5.446
 5424SOL    HW116832   2.753   2.991   5.465
 5424SOL    HW216833   2.846   2.899   5.390
 5425SOL     OW16834   2.570   2.922   4.096
 5425SOL    HW116835   2.557   2.908   4.189
 5425SOL    HW216836   2.646   2.869   4.074
 5426SOL     OW16837   2.278   2.674   4.975
 5426SOL    HW116838   2.347   2.686   5.040
 5426SOL    HW216839   2.243   2.587   4.993
 5427SOL     OW16840   3.129   2.240   4.997
 5427SOL    HW116841   3.162   2.318   5.043
 5427SOL    HW216842   3.040   2.263   4.972
 5428SOL     OW16843   1.930   3.434   5.072
 5428SOL    HW116844   1.899   3.509   5.022
 5428SOL    HW216845   2.025   3.442   5.070
 5429SOL     OW16846   2.216   2.968   4.216
 5429SOL    HW116847   2.219   3.042   4.155
 5429SOL    HW216848   2.214   2.890   4.160
 5430SOL     OW16849   2.413   2.401   4.587
 5430SOL    HW116850   2.429   2.458   4.512
 5430SOL    HW216851   2.477   2.428   4.652
 5431SOL     OW16852   3.110   3.210   4.113
 5431SOL    HW116853   3.165   3.281   4.144
 5431SOL    HW216854   3.023   3.230   4.147
 5432SOL     OW16855   3.139   3.318   4.870
 5432SOL    HW116856   3.194   3.321   4.948
 5432SOL    HW216857   3.084   3.241   4.882
 5433SOL     OW16858   3.444   2.487   4.201
 5433SOL    HW116859   3.400   2.544   4.265
 5433SOL    HW216860   3.488   2.548   4.141
 5434SOL     OW16861   2.210   3.386   5.042
 5434SOL    HW116862   2.197   3.344   4.956
 5434SOL    HW216863   2.304   3.399   5.048
 5435SOL     OW16864   2.274   2.609   5.326
 5435SOL    HW116865   2.336   2.653   5.268
 5435SOL    HW216866   2.317   2.526   5.348
 5436SOL     OW16867   3.460   2.638   5.402
 5436SOL    HW116868   3.374   2.679   5.395
 5436SOL    HW216869   3.512   2.682   5.334
 5437SOL     OW16870   2.858   1.979   5.478
 5437SOL    HW116871   2.911   2.053   5.448
 5437SOL    HW216872   2.909   1.902   5.453
 5438SOL     OW16873   2.373   1.903   5.468
 5438SOL    HW116874   2.327   1.847   5.406
 5438SOL    HW216875   2.307   1.967   5.495
 5439SOL     OW16876   2.444   2.734   4.755
 5439SOL    HW116877   2.475   2.824   4.751
 5439SOL    HW216878   2.388   2.731   4.833
 5440SOL     OW16879   3.223   2.721   4.757
 5440SOL    HW116880   3.142   2.714   4.707
 5440SOL    HW216881   3.260   2.633   4.755
 5441SOL     OW16882   3.069   2.391   3.993
 5441SOL    HW116883   3.077   2.313   4.047
 5441SOL    HW216884   3.027   2.455   4.050
 5442SOL     OW16885   1.907   3.172   5.001
 5442SOL    HW116886   1.942   3.119   5.073
 5442SOL    HW216887   1.916   3.263   5.031
 5443SOL     OW16888   2.586   2.492   4.783
 5443SOL    HW116889   2.661   2.475   4.725
 5443SOL    HW216890   2.560   2.582   4.763
 5444SOL     OW16891   3.595   2.820   5.579
 5444SOL    HW116892   3.549   2.767   5.514
 5444SOL    HW216893   3.531   2.831   5.650
 5445SOL     OW16894   2.220   1.898   4.339
 5445SOL    HW116895   2.152   1.963   4.324
 5445SOL    HW216896   2.203   1.866   4.427
 5446SOL     OW16897   3.476   2.234   4.093
 5446SOL    HW116898   3.504   2.171   4.159
 5446SOL    HW216899   3.453   2.312   4.143
 5447SOL     OW16900   2.888   2.622   4.686
 5447SOL    HW116901   2.889   2.639   4.780
 5447SOL    HW216902   2.863   2.530   4.679
 5448SOL     OW16903   2.846   3.429   5.439
 5448SOL    HW116904   2.829   3.472   5.355
 5448SOL    HW216905   2.887   3.346   5.416
 5449SOL     OW16906   3.710   3.370   5.326
 5449SOL    HW116907   3.730   3.396   5.236
 5449SOL    HW216908   3.790   3.386   5.374
 5450SOL     OW16909   2.216   2.779   5.534
 5450SOL    HW116910   2.300   2.797   5.576
 5450SOL    HW216911   2.237   2.717   5.464
 5451SOL     OW16912   3.393   2.136   3.851
 5451SOL    HW116913   3.329   2.070   3.877
 5451SOL    HW216914   3.425   2.172   3.934
 5452SOL     OW16915   3.156   2.689   3.757
 5452SOL    HW116916   3.199   2.603   3.760
 5452SOL    HW216917   3.187   2.728   3.675
 5453SOL     OW16918   2.926   3.197   4.576
 5453SOL    HW116919   2.930   3.124   4.515
 5453SOL    HW216920   2.990   3.260   4.542
 5454SOL     OW16921   2.173   2.673   4.672
 5454SOL    HW116922   2.266   2.696   4.664
 5454SOL    HW216923   2.173   2.587   4.713
 5455SOL     OW16924   2.191   2.361   4.736
 5455SOL    HW116925   2.151   2.287   4.690
 5455SOL    HW216926   2.269   2.381   4.684
 5456SOL     OW16927   2.997   2.240   5.403
 5456SOL    HW116928   2.951   2.295   5.467
 5456SOL    HW216929   3.085   2.277   5.400
 5457SOL     OW16930   3.022   2.066   5.193
 5457SOL    HW116931   3.013   2.128   5.266
 5457SOL    HW216932   3.060   2.118   5.122
 5458SOL     OW16933   1.867   3.185   3.920
 5458SOL    HW116934   1.780   3.198   3.882
 5458SOL    HW216935   1.865   3.094   3.952
 5459SOL     OW16936   1.956   3.649   4.660
 5459SOL    HW116937   1.925   3.569   4.617
 5459SOL    HW216938   2.043   3.664   4.623
 5460SOL     OW16939   2.361   3.435   4.630
 5460SOL    HW116940   2.429   3.498   4.654
 5460SOL    HW216941   2.406   3.370   4.576
 5461SOL     OW16942   2.849   2.656   4.952
 5461SOL    HW116943   2.904   2.631   5.027
 5461SOL    HW216944   2.763   2.621   4.973
 5462SOL     OW16945   1.899   2.398   4.841
 5462SOL    HW116946   1.983   2.396   4.796
 5462SOL    HW216947   1.921   2.413   4.933
 5463SOL     OW16948   2.060   2.386   5.449
 5463SOL    HW116949   2.119   2.354   5.380
 5463SOL    HW216950   2.007   2.453   5.405
 5464SOL     OW16951   3.238   2.803   5.383
 5464SOL    HW116952   3.259   2.897   5.383
 5464SOL    HW216953   3.236   2.779   5.291
 5465SOL     OW16954   2.677   2.431   4.080
 5465SOL    HW116955   2.680   2.356   4.021
 5465SOL    HW216956   2.603   2.483   4.049
 5466SOL     OW16957   3.505   2.464   4.913
 5466SOL    HW116958   3.492   2.403   4.986
 5466SOL    HW216959   3.590   2.441   4.877
 5467SOL     OW16960   2.110   3.414   5.454
 5467SOL    HW116961   2.085   3.478   5.521
 5467SOL    HW216962   2.107   3.330   5.500
 5468SOL     OW16963   2.552   2.316   4.987
 5468SOL    HW116964   2.507   2.239   4.951
 5468SOL    HW216965   2.555   2.378   4.914
 5469SOL     OW16966   2.794   3.537   5.190
 5469SOL    HW116967   2.766   3.505   5.104
 5469SOL    HW216968   2.789   3.632   5.183
 5470SOL     OW16969   2.329   2.359   3.916
 5470SOL    HW116970   2.385   2.434   3.934
 5470SOL    HW216971   2.242   2.397   3.900
 5471SOL     OW16972   2.010   3.002   5.195
 5471SOL    HW116973   2.015   2.948   5.274
 5471SOL    HW216974   2.027   2.941   5.124
 5472SOL     OW16975   3.190   2.911   4.949
 5472SOL    HW116976   3.215   2.848   4.881
 5472SOL    HW216977   3.118   2.960   4.911
 5473SOL     OW16978   3.171   2.718   4.031
 5473SOL    HW116979   3.093   2.688   4.080
 5473SOL    HW216980   3.148   2.705   3.939
 5474SOL     OW16981   3.632   3.609   4.873
 5474SOL    HW116982   3.691   3.634   4.802
 5474SOL    HW216983   3.607   3.519   4.853
 5475SOL     OW16984   3.105   3.596   4.840
 5475SOL    HW116985   3.187   3.613   4.794
 5475SOL    HW216986   3.107   3.502   4.859
 5476SOL     OW16987   1.945   3.128   4.737
 5476SOL    HW116988   1.932   3.139   4.832
 5476SOL    HW216989   1.871   3.074   4.709
 5477SOL     OW16990   2.540   3.524   5.448
 5477SOL    HW116991   2.488   3.604   5.452
 5477SOL    HW216992   2.600   3.538   5.374
 5478SOL     OW16993   3.578   2.005   4.239
 5478SOL    HW116994   3.647   1.992   4.174
 5478SOL    HW216995   3.565   1.918   4.278
 5479SOL     OW16996   3.251   3.430   4.207
 5479SOL    HW116997   3.312   3.461   4.140
 5479SOL    HW216998   3.205   3.509   4.236
 5480SOL     OW16999   1.993   3.656   5.565
 5480SOL    HW117000   1.942   3.592   5.613
 5480SOL    HW217001   2.044   3.702   5.632
 5481SOL     OW17002   3.139   2.786   4.395
 5481SOL    HW117003   3.212   2.725   4.400
 5481SOL    HW217004   3.172   2.859   4.343
 5482SOL     OW17005   2.680   3.134   5.155
 5482SOL    HW117006   2.654   3.173   5.239
 5482SOL    HW217007   2.609   3.156   5.095
 5483SOL     OW17008   2.537   3.475   3.880
 5483SOL    HW117009   2.543   3.490   3.786
 5483SOL    HW217010   2.481   3.398   3.889
 5484SOL     OW17011   3.491   3.588   5.115
 5484SOL    HW117012   3.542   3.594   5.034
 5484SOL    HW217013   3.479   3.678   5.143
 5485SOL     OW17014   3.699   2.041   4.693
 5485SOL    HW117015   3.730   1.955   4.665
 5485SOL    HW217016   3.613   2.051   4.652
 5486SOL     OW17017   3.067   3.470   3.758
 5486SOL    HW117018   3.059   3.378   3.783
 5486SOL    HW217019   3.006   3.481   3.685
 5487SOL     OW17020   2.686   2.868   5.095
 5487SOL    HW117021   2.730   2.865   5.010
 5487SOL    HW217022   2.687   2.960   5.120
 5488SOL     OW17023   2.778   2.772   4.013
 5488SOL    HW117024   2.839   2.804   3.947
 5488SOL    HW217025   2.824   2.701   4.058
 5489SOL     OW17026   3.355   3.489   3.765
 5489SOL    HW117027   3.261   3.481   3.751
 5489SOL    HW217028   3.392   3.494   3.677
 5490SOL     OW17029   2.232   3.163   5.215
 5490SOL    HW117030   2.218   3.241   5.162
 5490SOL    HW217031   2.154   3.109   5.199
 5491SOL     OW17032   3.468   3.143   5.004
 5491SOL    HW117033   3.534   3.139   5.073
 5491SOL    HW217034   3.410   3.215   5.030
 5492SOL     OW17035   2.910   2.967   4.429
 5492SOL    HW117036   2.840   2.916   4.469
 5492SOL    HW217037   2.971   2.902   4.395
 5493SOL     OW17038   2.880   2.101   4.690
 5493SOL    HW117039   2.876   2.053   4.607
 5493SOL    HW217040   2.877   2.034   4.757
 5494SOL     OW17041   2.463   3.352   4.206
 5494SOL    HW117042   2.504   3.300   4.136
 5494SOL    HW217043   2.399   3.407   4.161
 5495SOL     OW17044   3.582   2.253   5.103
 5495SOL    HW117045   3.653   2.317   5.099
 5495SOL    HW217046   3.611   2.181   5.048
 5496SOL     OW17047   2.120   3.209   4.011
 5496SOL    HW117048   2.027   3.206   3.989
 5496SOL    HW217049   2.123   3.246   4.099
 5497SOL     OW17050   1.974   2.880   5.443
 5497SOL    HW117051   1.897   2.858   5.496
 5497SOL    HW217052   2.048   2.844   5.492
 5498SOL     OW17053   2.534   2.060   5.222
 5498SOL    HW117054   2.618   2.040   5.180
 5498SOL    HW217055   2.558   2.087   5.311
 5499SOL     OW17056   1.897   2.275   3.779
 5499SOL    HW117057   1.856   2.195   3.745
 5499SOL    HW217058   1.951   2.306   3.707
 5500SOL     OW17059   3.293   2.721   5.126
 5500SOL    HW117060   3.244   2.781   5.069
 5500SOL    HW217061   3.382   2.723   5.091
 5501SOL     OW17062   3.042   3.204   3.841
 5501SOL    HW117063   2.951   3.174   3.844
 5501SOL    HW217064   3.070   3.202   3.932
 5502SOL     OW17065   2.480   2.693   5.156
 5502SOL    HW117066   2.535   2.770   5.142
 5502SOL    HW217067   2.542   2.621   5.165
 5503SOL     OW17068   3.347   3.640   4.701
 5503SOL    HW117069   3.375   3.690   4.624
 5503SOL    HW217070   3.429   3.617   4.746
 5504SOL     OW17071   2.580   2.426   5.427
 5504SOL    HW117072   2.614   2.489   5.490
 5504SOL    HW217073   2.612   2.341   5.459
 5505SOL     OW17074   3.330   3.065   5.357
 5505SOL    HW117075   3.319   3.078   5.451
 5505SOL    HW217076   3.424   3.077   5.342
 5506SOL     OW17077   2.243   3.601   5.285
 5506SOL    HW117078   2.156   3.639   5.273
 5506SOL    HW217079   2.226   3.517   5.327
 5507SOL     OW17080   3.531   2.744   4.982
 5507SOL    HW117081   3.526   2.658   4.939
 5507SOL    HW217082   3.526   2.807   4.910
 5508SOL     OW17083   3.081   2.182   4.181
 5508SOL    HW117084   3.144   2.111   4.172
 5508SOL    HW217085   3.109   2.230   4.259
 5509SOL     OW17086   2.452   2.601   4.392
 5509SOL    HW117087   2.493   2.686   4.376
 5509SOL    HW217088   2.383   2.595   4.326
 5510SOL     OW17089   3.627   2.223   5.372
 5510SOL    HW117090   3.608   2.235   5.279
 5510SOL    HW217091   3.557   2.166   5.403
 5511SOL     OW17092   3.611   2.794   5.238
 5511SOL    HW117093   3.610   2.889   5.252
 5511SOL    HW217094   3.592   2.783   5.145
 5512SOL     OW17095   2.725   3.231   3.755
 5512SOL    HW117096   2.684   3.257   3.837
 5512SOL    HW217097   2.743   3.313   3.710
 5513SOL     OW17098   2.520   3.656   4.671
 5513SOL    HW117099   2.498   3.745   4.647
 5513SOL    HW217100   2.616   3.652   4.663
 5514SOL     OW17101   2.727   2.827   4.580
 5514SOL    HW117102   2.779   2.757   4.621
 5514SOL    HW217103   2.696   2.879   4.654
 5515SOL     OW17104   2.942   2.850   3.812
 5515SOL    HW117105   2.920   2.900   3.734
 5515SOL    HW217106   3.017   2.797   3.787
 5516SOL     OW17107   3.719   3.419   4.566
 5516SOL    HW117108   3.640   3.402   4.514
 5516SOL    HW217109   3.716   3.352   4.635
 5517SOL     OW17110   2.086   3.166   5.580
 5517SOL    HW117111   2.018   3.106   5.551
 5517SOL    HW217112   2.069   3.179   5.673
 5518SOL     OW17113   1.945   3.098   4.387
 5518SOL    HW117114   1.948   3.048   4.469
 5518SOL    HW217115   2.014   3.058   4.333
 5519SOL     OW17116   2.541   3.262   5.349
 5519SOL    HW117117   2.462   3.219   5.380
 5519SOL    HW217118   2.537   3.350   5.387
 5520SOL     OW17119   3.679   2.045   4.964
 5520SOL    HW117120   3.673   1.949   4.972
 5520SOL    HW217121   3.689   2.060   4.870
 5521SOL     OW17122   2.292   2.294   4.248
 5521SOL    HW117123   2.322   2.231   4.182
 5521SOL    HW217124   2.252   2.240   4.316
 5522SOL     OW17125   3.562   3.354   4.825
 5522SOL    HW117126   3.481   3.326   4.782
 5522SOL    HW217127   3.580   3.286   4.890
 5523SOL     OW17128   2.189   2.415   5.013
 5523SOL    HW117129   2.238   2.357   5.072
 5523SOL    HW217130   2.211   2.383   4.925
 5524SOL     OW17131   2.687   3.440   4.403
 5524SOL    HW117132   2.681   3.482   4.317
 5524SOL    HW217133   2.609   3.385   4.408
 5525SOL     OW17134   3.294   2.086   4.842
 5525SOL    HW117135   3.322   2.007   4.889
 5525SOL    HW217136   3.242   2.135   4.906
 5526SOL     OW17137   2.870   1.882   4.869
 5526SOL    HW117138   2.816   1.813   4.831
 5526SOL    HW217139   2.958   1.845   4.871
 5527SOL     OW17140   2.633   3.194   4.035
 5527SOL    HW117141   2.599   3.105   4.041
 5527SOL    HW217142   2.716   3.191   4.083
 5528SOL     OW17143   2.482   3.420   5.007
 5528SOL    HW117144   2.484   3.500   5.059
 5528SOL    HW217145   2.569   3.412   4.969
 5529SOL     OW17146   3.214   1.916   3.887
 5529SOL    HW117147   3.240   1.855   3.818
 5529SOL    HW217148   3.128   1.884   3.915
 5530SOL     OW17149   3.159   2.322   4.407
 5530SOL    HW117150   3.105   2.401   4.416
 5530SOL    HW217151   3.157   2.282   4.494
 5531SOL     OW17152   3.447   2.067   4.600
 5531SOL    HW117153   3.384   2.086   4.669
 5531SOL    HW217154   3.448   2.146   4.546
 5532SOL     OW17155   1.906   2.935   4.029
 5532SOL    HW117156   1.999   2.925   4.012
 5532SOL    HW217157   1.876   2.847   4.052
 5533SOL     OW17158   2.743   3.514   4.070
 5533SOL    HW117159   2.674   3.494   4.007
 5533SOL    HW217160   2.712   3.591   4.117
 5534SOL     OW17161   2.092   2.496   5.708
 5534SOL    HW117162   2.005   2.478   5.742
 5534SOL    HW217163   2.092   2.461   5.619
 5535SOL     OW17164   1.883   2.240   6.205
 5535SOL    HW117165   1.824   2.290   6.262
 5535SOL    HW217166   1.824   2.184   6.154
 5536SOL     OW17167   2.429   3.145   6.758
 5536SOL    HW117168   2.341   3.147   6.720
 5536SOL    HW217169   2.443   3.233   6.792
 5537SOL     OW17170   3.419   3.374   6.292
 5537SOL    HW117171   3.375   3.354   6.375
 5537SOL    HW217172   3.348   3.378   6.228
 5538SOL     OW17173   2.996   2.561   6.292
 5538SOL    HW117174   3.043   2.643   6.277
 5538SOL    HW217175   2.949   2.575   6.374
 5539SOL     OW17176   3.627   2.470   5.817
 5539SOL    HW117177   3.608   2.460   5.724
 5539SOL    HW217178   3.591   2.391   5.857
 5540SOL     OW17179   2.622   3.007   6.623
 5540SOL    HW117180   2.552   3.039   6.679
 5540SOL    HW217181   2.654   3.085   6.578
 5541SOL     OW17182   2.726   2.648   7.414
 5541SOL    HW117183   2.687   2.716   7.469
 5541SOL    HW217184   2.750   2.693   7.333
 5542SOL     OW17185   2.557   2.889   6.232
 5542SOL    HW117186   2.614   2.858   6.302
 5542SOL    HW217187   2.480   2.925   6.278
 5543SOL     OW17188   2.577   3.029   7.380
 5543SOL    HW117189   2.621   3.109   7.406
 5543SOL    HW217190   2.490   3.056   7.353
 5544SOL     OW17191   2.193   3.291   6.654
 5544SOL    HW117192   2.121   3.256   6.603
 5544SOL    HW217193   2.244   3.342   6.591
 5545SOL     OW17194   3.323   3.361   6.936
 5545SOL    HW117195   3.368   3.444   6.948
 5545SOL    HW217196   3.268   3.352   7.014
 5546SOL     OW17197   3.475   2.311   6.326
 5546SOL    HW117198   3.399   2.337   6.273
 5546SOL    HW217199   3.495   2.388   6.379
 5547SOL     OW17200   2.083   3.579   6.065
 5547SOL    HW117201   2.119   3.640   6.129
 5547SOL    HW217202   2.150   3.573   5.997
 5548SOL     OW17203   2.997   3.203   7.278
 5548SOL    HW117204   3.037   3.198   7.364
 5548SOL    HW217205   2.944   3.123   7.271
 5549SOL     OW17206   2.089   3.303   6.119
 5549SOL    HW117207   2.073   3.397   6.128
 5549SOL    HW217208   2.030   3.262   6.182
 5550SOL     OW17209   2.116   2.955   6.479
 5550SOL    HW117210   2.101   2.871   6.524
 5550SOL    HW217211   2.061   3.017   6.526
 5551SOL     OW17212   2.477   3.650   7.018
 5551SOL    HW117213   2.394   3.634   7.062
 5551SOL    HW217214   2.501   3.739   7.042
 5552SOL     OW17215   2.452   2.843   5.716
 5552SOL    HW117216   2.495   2.896   5.649
 5552SOL    HW217217   2.493   2.872   5.798
 5553SOL     OW17218   3.459   1.983   7.055
 5553SOL    HW117219   3.454   2.063   7.003
 5553SOL    HW217220   3.448   2.013   7.146
 5554SOL     OW17221   3.699   3.619   5.926
 5554SOL    HW117222   3.763   3.592   5.992
 5554SOL    HW217223   3.725   3.708   5.902
 5555SOL     OW17224   1.888   3.457   5.709
 5555SOL    HW117225   1.874   3.365   5.731
 5555SOL    HW217226   1.868   3.504   5.790
 5556SOL     OW17227   3.551   2.782   6.224
 5556SOL    HW117228   3.636   2.741   6.208
 5556SOL    HW217229   3.532   2.832   6.144
 5557SOL     OW17230   3.504   2.970   6.017
 5557SOL    HW117231   3.588   2.978   5.972
 5557SOL    HW217232   3.510   3.031   6.091
 5558SOL     OW17233   2.475   3.245   6.321
 5558SOL    HW117234   2.430   3.161   6.330
 5558SOL    HW217235   2.458   3.271   6.230
 5559SOL     OW17236   3.153   3.101   7.010
 5559SOL    HW117237   3.185   3.034   6.950
 5559SOL    HW217238   3.208   3.093   7.088
 5560SOL     OW17239   2.053   2.835   6.846
 5560SOL    HW117240   2.139   2.793   6.839
 5560SOL    HW217241   1.991   2.766   6.823
 5561SOL     OW17242   3.392   2.854   5.783
 5561SOL    HW117243   3.322   2.796   5.813
 5561SOL    HW217244   3.432   2.888   5.863
 5562SOL     OW17245   3.069   3.663   7.210
 5562SOL    HW117246   3.058   3.721   7.135
 5562SOL    HW217247   3.071   3.575   7.172
 5563SOL     OW17248   3.326   3.282   6.538
 5563SOL    HW117249   3.259   3.295   6.605
 5563SOL    HW217250   3.316   3.191   6.511
 5564SOL     OW17251   3.517   3.598   6.165
 5564SOL    HW117252   3.501   3.566   6.076
 5564SOL    HW217253   3.496   3.523   6.221
 5565SOL     OW17254   2.458   2.591   5.845
 5565SOL    HW117255   2.476   2.665   5.788
 5565SOL    HW217256   2.396   2.625   5.910
 5566SOL     OW17257   3.142   2.208   6.518
 5566SOL    HW117258   3.052   2.178   6.530
 5566SOL    HW217259   3.193   2.158   6.581
 5567SOL     OW17260   3.440   3.535   5.894
 5567SOL    HW117261   3.531   3.565   5.890
 5567SOL    HW217262   3.418   3.513   5.803
 5568SOL     OW17263   2.657   2.468   7.021
 5568SOL    HW117264   2.646   2.460   7.116
 5568SOL    HW217265   2.609   2.393   6.986
 5569SOL     OW17266   3.257   2.336   7.263
 5569SOL    HW117267   3.256   2.380   7.348
 5569SOL    HW217268   3.319   2.264   7.274
 5570SOL     OW17269   2.819   2.749   7.167
 5570SOL    HW117270   2.874   2.679   7.133
 5570SOL    HW217271   2.774   2.785   7.091
 5571SOL     OW17272   2.872   2.293   6.822
 5571SOL    HW117273   2.795   2.325   6.869
 5571SOL    HW217274   2.836   2.255   6.741
 5572SOL     OW17275   2.912   2.561   6.014
 5572SOL    HW117276   2.926   2.551   6.108
 5572SOL    HW217277   2.831   2.513   5.997
 5573SOL     OW17278   1.989   3.695   7.161
 5573SOL    HW117279   1.985   3.679   7.255
 5573SOL    HW217280   1.898   3.711   7.136
 5574SOL     OW17281   2.751   2.209   5.781
 5574SOL    HW117282   2.794   2.268   5.719
 5574SOL    HW217283   2.752   2.124   5.738
 5575SOL     OW17284   3.576   2.441   7.414
 5575SOL    HW117285   3.537   2.516   7.370
 5575SOL    HW217286   3.593   2.378   7.343
 5576SOL     OW17287   3.237   3.005   6.128
 5576SOL    HW117288   3.316   2.990   6.076
 5576SOL    HW217289   3.185   3.066   6.077
 5577SOL     OW17290   2.871   3.309   6.059
 5577SOL    HW117291   2.828   3.380   6.012
 5577SOL    HW217292   2.856   3.329   6.152
 5578SOL     OW17293   2.213   3.668   6.428
 5578SOL    HW117294   2.263   3.588   6.446
 5578SOL    HW217295   2.274   3.739   6.446
 5579SOL     OW17296   3.664   2.924   6.451
 5579SOL    HW117297   3.607   2.904   6.377
 5579SOL    HW217298   3.605   2.928   6.527
 5580SOL     OW17299   3.089   3.400   7.098
 5580SOL    HW117300   3.076   3.327   7.158
 5580SOL    HW217301   3.028   3.384   7.026
 5581SOL     OW17302   2.187   2.805   5.837
 5581SOL    HW117303   2.264   2.834   5.789
 5581SOL    HW217304   2.153   2.732   5.785
 5582SOL     OW17305   3.338   2.600   6.313
 5582SOL    HW117306   3.325   2.555   6.396
 5582SOL    HW217307   3.414   2.657   6.327
 5583SOL     OW17308   2.328   3.131   7.324
 5583SOL    HW117309   2.299   3.133   7.232
 5583SOL    HW217310   2.247   3.122   7.374
 5584SOL     OW17311   2.975   3.642   5.811
 5584SOL    HW117312   2.914   3.593   5.867
 5584SOL    HW217313   3.003   3.578   5.745
 5585SOL     OW17314   3.490   3.243   5.674
 5585SOL    HW117315   3.448   3.327   5.656
 5585SOL    HW217316   3.422   3.178   5.655
 5586SOL     OW17317   2.331   3.595   5.910
 5586SOL    HW117318   2.366   3.661   5.971
 5586SOL    HW217319   2.404   3.575   5.853
 5587SOL     OW17320   3.266   1.967   6.016
 5587SOL    HW117321   3.254   1.944   5.924
 5587SOL    HW217322   3.361   1.975   6.027
 5588SOL     OW17323   2.118   3.655   6.816
 5588SOL    HW117324   2.168   3.589   6.864
 5588SOL    HW217325   2.106   3.617   6.729
 5589SOL     OW17326   2.800   3.560   6.488
 5589SOL    HW117327   2.876   3.506   6.508
 5589SOL    HW217328   2.753   3.512   6.420
 5590SOL     OW17329   3.401   2.088   7.311
 5590SOL    HW117330   3.408   2.109   7.405
 5590SOL    HW217331   3.331   2.023   7.307
 5591SOL     OW17332   2.520   1.989   5.680
 5591SOL    HW117333   2.576   1.916   5.708
 5591SOL    HW217334   2.465   1.951   5.611
 5592SOL     OW17335   2.739   3.383   6.780
 5592SOL    HW117336   2.724   3.347   6.692
 5592SOL    HW217337   2.808   3.327   6.817
 5593SOL     OW17338   3.205   2.451   7.018
 5593SOL    HW117339   3.234   2.419   7.104
 5593SOL    HW217340   3.240   2.540   7.012
 5594SOL     OW17341   2.675   3.261   6.522
 5594SOL    HW117342   2.759   3.249   6.477
 5594SOL    HW217343   2.610   3.257   6.452
 5595SOL     OW17344   2.784   2.368   6.491
 5595SOL    HW117345   2.778   2.368   6.395
 5595SOL    HW217346   2.820   2.283   6.514
 5596SOL     OW17347   3.291   3.060   5.627
 5596SOL    HW117348   3.322   2.984   5.677
 5596SOL    HW217349   3.204   3.079   5.665
 5597SOL     OW17350   2.825   2.147   6.042
 5597SOL    HW117351   2.789   2.167   5.956
 5597SOL    HW217352   2.920   2.151   6.030
 5598SOL     OW17353   2.941   2.541   7.045
 5598SOL    HW117354   2.873   2.474   7.050
 5598SOL    HW217355   3.023   2.491   7.037
 5599SOL     OW17356   3.087   3.431   6.379
 5599SOL    HW117357   3.106   3.500   6.315
 5599SOL    HW217358   3.154   3.441   6.446
 5600SOL     OW17359   2.327   3.010   6.323
 5600SOL    HW117360   2.257   2.991   6.385
 5600SOL    HW217361   2.289   2.992   6.237
 5601SOL     OW17362   3.133   3.660   6.190
 5601SOL    HW117363   3.175   3.724   6.133
 5601SOL    HW217364   3.065   3.709   6.235
 5602SOL     OW17365   2.889   2.408   5.604
 5602SOL    HW117366   2.846   2.491   5.586
 5602SOL    HW217367   2.951   2.428   5.675
 5603SOL     OW17368   2.768   2.348   6.221
 5603SOL    HW117369   2.696   2.388   6.172
 5603SOL    HW217370   2.785   2.266   6.175
 5604SOL     OW17371   3.297   3.026   6.443
 5604SOL    HW117372   3.231   2.958   6.443
 5604SOL    HW217373   3.320   3.038   6.351
 5605SOL     OW17374   3.330   2.464   6.567
 5605SOL    HW117375   3.282   2.382   6.572
 5605SOL    HW217376   3.391   2.462   6.640
 5606SOL     OW17377   3.722   2.682   5.962
 5606SOL    HW117378   3.766   2.625   6.025
 5606SOL    HW217379   3.685   2.621   5.897
 5607SOL     OW17380   2.354   3.275   5.746
 5607SOL    HW117381   2.279   3.246   5.798
 5607SOL    HW217382   2.333   3.249   5.657
 5608SOL     OW17383   3.527   3.128   6.234
 5608SOL    HW117384   3.623   3.133   6.243
 5608SOL    HW217385   3.496   3.216   6.256
 5609SOL     OW17386   3.256   2.433   5.657
 5609SOL    HW117387   3.195   2.416   5.729
 5609SOL    HW217388   3.340   2.400   5.689
 5610SOL     OW17389   2.329   2.095   5.847
 5610SOL    HW117390   2.405   2.063   5.798
 5610SOL    HW217391   2.333   2.190   5.839
 5611SOL     OW17392   3.614   3.096   7.161
 5611SOL    HW117393   3.701   3.060   7.144
 5611SOL    HW217394   3.631   3.185   7.193
 5612SOL     OW17395   2.923   3.217   6.922
 5612SOL    HW117396   2.848   3.185   6.972
 5612SOL    HW217397   2.999   3.174   6.962
 5613SOL     OW17398   3.467   3.489   7.238
 5613SOL    HW117399   3.462   3.522   7.149
 5613SOL    HW217400   3.550   3.441   7.242
 5614SOL     OW17401   2.990   3.066   6.693
 5614SOL    HW117402   2.929   3.100   6.758
 5614SOL    HW217403   2.952   3.093   6.609
 5615SOL     OW17404   3.496   2.962   6.663
 5615SOL    HW117405   3.489   3.023   6.737
 5615SOL    HW217406   3.414   2.975   6.614
 5616SOL     OW17407   2.798   1.931   6.991
 5616SOL    HW117408   2.815   1.922   6.898
 5616SOL    HW217409   2.870   1.983   7.025
 5617SOL     OW17410   2.846   2.975   7.309
 5617SOL    HW117411   2.753   2.992   7.326
 5617SOL    HW217412   2.846   2.898   7.252
 5618SOL     OW17413   2.568   2.920   5.958
 5618SOL    HW117414   2.559   2.912   6.053
 5618SOL    HW217415   2.645   2.867   5.937
 5619SOL     OW17416   2.282   2.687   6.837
 5619SOL    HW117417   2.357   2.702   6.895
 5619SOL    HW217418   2.253   2.598   6.856
 5620SOL     OW17419   3.135   2.241   6.859
 5620SOL    HW117420   3.166   2.318   6.906
 5620SOL    HW217421   3.045   2.264   6.833
 5621SOL     OW17422   1.930   3.433   6.934
 5621SOL    HW117423   1.899   3.509   6.884
 5621SOL    HW217424   2.026   3.441   6.932
 5622SOL     OW17425   2.212   2.969   6.077
 5622SOL    HW117426   2.221   3.045   6.018
 5622SOL    HW217427   2.215   2.893   6.019
 5623SOL     OW17428   3.110   3.210   5.975
 5623SOL    HW117429   3.165   3.281   6.006
 5623SOL    HW217430   3.023   3.230   6.009
 5624SOL     OW17431   3.139   3.319   6.731
 5624SOL    HW117432   3.193   3.320   6.810
 5624SOL    HW217433   3.084   3.240   6.741
 5625SOL     OW17434   3.444   2.487   6.062
 5625SOL    HW117435   3.400   2.542   6.127
 5625SOL    HW217436   3.487   2.549   6.004
 5626SOL     OW17437   2.209   3.386   6.904
 5626SOL    HW117438   2.197   3.345   6.818
 5626SOL    HW217439   2.304   3.399   6.910
 5627SOL     OW17440   2.286   2.645   7.163
 5627SOL    HW117441   2.364   2.664   7.110
 5627SOL    HW217442   2.292   2.551   7.180
 5628SOL     OW17443   3.460   2.639   7.264
 5628SOL    HW117444   3.374   2.679   7.257
 5628SOL    HW217445   3.512   2.682   7.196
 5629SOL     OW17446   2.859   1.964   7.343
 5629SOL    HW117447   2.893   2.048   7.312
 5629SOL    HW217448   2.918   1.899   7.305
 5630SOL     OW17449   2.441   2.728   6.611
 5630SOL    HW117450   2.474   2.818   6.608
 5630SOL    HW217451   2.381   2.726   6.685
 5631SOL     OW17452   3.222   2.722   6.618
 5631SOL    HW117453   3.139   2.714   6.572
 5631SOL    HW217454   3.259   2.633   6.616
 5632SOL     OW17455   3.068   2.393   5.854
 5632SOL    HW117456   3.080   2.315   5.908
 5632SOL    HW217457   3.025   2.456   5.912
 5633SOL     OW17458   1.905   3.171   6.864
 5633SOL    HW117459   1.941   3.119   6.935
 5633SOL    HW217460   1.915   3.262   6.894
 5634SOL     OW17461   2.627   2.525   6.677
 5634SOL    HW117462   2.649   2.464   6.606
 5634SOL    HW217463   2.559   2.582   6.640
 5635SOL     OW17464   3.595   2.820   7.442
 5635SOL    HW117465   3.550   2.767   7.376
 5635SOL    HW217466   3.530   2.831   7.512
 5636SOL     OW17467   3.476   2.234   5.955
 5636SOL    HW117468   3.504   2.171   6.021
 5636SOL    HW217469   3.453   2.313   6.005
 5637SOL     OW17470   2.894   2.620   6.549
 5637SOL    HW117471   2.890   2.643   6.642
 5637SOL    HW217472   2.853   2.534   6.543
 5638SOL     OW17473   2.846   3.430   7.301
 5638SOL    HW117474   2.829   3.473   7.217
 5638SOL    HW217475   2.887   3.346   7.278
 5639SOL     OW17476   3.710   3.370   7.188
 5639SOL    HW117477   3.730   3.395   7.098
 5639SOL    HW217478   3.790   3.386   7.236
 5640SOL     OW17479   2.230   2.816   7.362
 5640SOL    HW117480   2.313   2.816   7.410
 5640SOL    HW217481   2.246   2.759   7.287
 5641SOL     OW17482   3.394   2.136   5.713
 5641SOL    HW117483   3.329   2.070   5.739
 5641SOL    HW217484   3.425   2.172   5.796
 5642SOL     OW17485   3.156   2.689   5.619
 5642SOL    HW117486   3.198   2.603   5.622
 5642SOL    HW217487   3.187   2.728   5.537
 5643SOL     OW17488   2.925   3.197   6.437
 5643SOL    HW117489   2.929   3.123   6.377
 5643SOL    HW217490   2.990   3.259   6.403
 5644SOL     OW17491   2.997   2.242   7.264
 5644SOL    HW117492   2.951   2.296   7.328
 5644SOL    HW217493   3.085   2.278   7.260
 5645SOL     OW17494   3.025   2.067   7.056
 5645SOL    HW117495   3.011   2.128   7.128
 5645SOL    HW217496   3.061   2.120   6.985
 5646SOL     OW17497   1.867   3.182   5.782
 5646SOL    HW117498   1.780   3.197   5.744
 5646SOL    HW217499   1.863   3.093   5.815
 5647SOL     OW17500   1.956   3.649   6.522
 5647SOL    HW117501   1.925   3.569   6.479
 5647SOL    HW217502   2.043   3.664   6.485
 5648SOL     OW17503   2.361   3.436   6.492
 5648SOL    HW117504   2.429   3.498   6.516
 5648SOL    HW217505   2.406   3.370   6.438
 5649SOL     OW17506   2.850   2.664   6.815
 5649SOL    HW117507   2.893   2.629   6.893
 5649SOL    HW217508   2.768   2.615   6.808
 5650SOL     OW17509   3.238   2.803   7.246
 5650SOL    HW117510   3.259   2.897   7.245
 5650SOL    HW217511   3.236   2.779   7.153
 5651SOL     OW17512   2.678   2.437   5.935
 5651SOL    HW117513   2.680   2.356   5.884
 5651SOL    HW217514   2.600   2.483   5.905
 5652SOL     OW17515   3.505   2.464   6.776
 5652SOL    HW117516   3.492   2.403   6.848
 5652SOL    HW217517   3.590   2.441   6.739
 5653SOL     OW17518   2.109   3.414   7.315
 5653SOL    HW117519   2.085   3.477   7.383
 5653SOL    HW217520   2.108   3.330   7.360
 5654SOL     OW17521   2.794   3.537   7.053
 5654SOL    HW117522   2.766   3.504   6.967
 5654SOL    HW217523   2.788   3.633   7.044
 5655SOL     OW17524   2.332   2.360   5.777
 5655SOL    HW117525   2.387   2.436   5.795
 5655SOL    HW217526   2.244   2.397   5.762
 5656SOL     OW17527   2.011   3.001   7.054
 5656SOL    HW117528   2.017   2.948   7.134
 5656SOL    HW217529   2.029   2.939   6.983
 5657SOL     OW17530   3.191   2.911   6.811
 5657SOL    HW117531   3.215   2.848   6.743
 5657SOL    HW217532   3.118   2.961   6.773
 5658SOL     OW17533   3.171   2.718   5.893
 5658SOL    HW117534   3.095   2.688   5.943
 5658SOL    HW217535   3.147   2.704   5.802
 5659SOL     OW17536   3.632   3.609   6.735
 5659SOL    HW117537   3.691   3.634   6.664
 5659SOL    HW217538   3.607   3.519   6.716
 5660SOL     OW17539   3.105   3.596   6.703
 5660SOL    HW117540   3.187   3.613   6.656
 5660SOL    HW217541   3.106   3.503   6.721
 5661SOL     OW17542   1.949   3.136   6.599
 5661SOL    HW117543   1.933   3.142   6.693
 5661SOL    HW217544   1.881   3.077   6.567
 5662SOL     OW17545   2.541   3.525   7.311
 5662SOL    HW117546   2.488   3.605   7.313
 5662SOL    HW217547   2.600   3.537   7.237
 5663SOL     OW17548   3.578   2.005   6.100
 5663SOL    HW117549   3.647   1.992   6.036
 5663SOL    HW217550   3.565   1.918   6.140
 5664SOL     OW17551   3.251   3.430   6.069
 5664SOL    HW117552   3.312   3.461   6.002
 5664SOL    HW217553   3.205   3.509   6.098
 5665SOL     OW17554   1.993   3.657   7.427
 5665SOL    HW117555   1.942   3.592   7.475
 5665SOL    HW217556   2.044   3.702   7.494
 5666SOL     OW17557   3.140   2.787   6.257
 5666SOL    HW117558   3.213   2.725   6.261
 5666SOL    HW217559   3.174   2.860   6.205
 5667SOL     OW17560   2.681   3.136   7.016
 5667SOL    HW117561   2.654   3.174   7.100
 5667SOL    HW217562   2.608   3.156   6.957
 5668SOL     OW17563   2.537   3.476   5.742
 5668SOL    HW117564   2.543   3.490   5.648
 5668SOL    HW217565   2.482   3.398   5.751
 5669SOL     OW17566   3.491   3.588   6.977
 5669SOL    HW117567   3.542   3.594   6.897
 5669SOL    HW217568   3.479   3.678   7.005
 5670SOL     OW17569   3.699   2.041   6.555
 5670SOL    HW117570   3.730   1.956   6.527
 5670SOL    HW217571   3.613   2.051   6.514
 5671SOL     OW17572   3.067   3.470   5.620
 5671SOL    HW117573   3.059   3.378   5.645
 5671SOL    HW217574   3.006   3.481   5.547
 5672SOL     OW17575   2.690   2.871   6.959
 5672SOL    HW117576   2.732   2.863   6.874
 5672SOL    HW217577   2.692   2.965   6.978
 5673SOL     OW17578   2.776   2.772   5.874
 5673SOL    HW117579   2.840   2.803   5.810
 5673SOL    HW217580   2.822   2.701   5.920
 5674SOL     OW17581   3.355   3.489   5.627
 5674SOL    HW117582   3.261   3.481   5.613
 5674SOL    HW217583   3.392   3.494   5.539
 5675SOL     OW17584   2.232   3.162   7.078
 5675SOL    HW117585   2.217   3.240   7.024
 5675SOL    HW217586   2.155   3.108   7.061
 5676SOL     OW17587   3.468   3.143   6.866
 5676SOL    HW117588   3.534   3.139   6.936
 5676SOL    HW217589   3.410   3.214   6.892
 5677SOL     OW17590   2.910   2.967   6.292
 5677SOL    HW117591   2.839   2.916   6.330
 5677SOL    HW217592   2.971   2.901   6.258
 5678SOL     OW17593   2.884   2.102   6.553
 5678SOL    HW117594   2.859   2.057   6.472
 5678SOL    HW217595   2.878   2.035   6.621
 5679SOL     OW17596   2.463   3.352   6.067
 5679SOL    HW117597   2.504   3.300   5.998
 5679SOL    HW217598   2.399   3.407   6.022
 5680SOL     OW17599   3.582   2.253   6.965
 5680SOL    HW117600   3.653   2.317   6.961
 5680SOL    HW217601   3.612   2.181   6.910
 5681SOL     OW17602   2.120   3.208   5.873
 5681SOL    HW117603   2.027   3.206   5.851
 5681SOL    HW217604   2.123   3.246   5.960
 5682SOL     OW17605   1.971   2.903   7.313
 5682SOL    HW117606   1.899   2.860   7.360
 5682SOL    HW217607   2.049   2.857   7.342
 5683SOL     OW17608   2.643   2.127   7.112
 5683SOL    HW117609   2.677   2.043   7.078
 5683SOL    HW217610   2.575   2.101   7.174
 5684SOL     OW17611   1.894   2.272   5.639
 5684SOL    HW117612   1.858   2.192   5.600
 5684SOL    HW217613   1.952   2.307   5.571
 5685SOL     OW17614   3.294   2.721   6.988
 5685SOL    HW117615   3.243   2.780   6.932
 5685SOL    HW217616   3.382   2.723   6.953
 5686SOL     OW17617   3.041   3.204   5.703
 5686SOL    HW117618   2.951   3.173   5.706
 5686SOL    HW217619   3.070   3.203   5.794
 5687SOL     OW17620   2.495   2.691   7.005
 5687SOL    HW117621   2.549   2.770   6.995
 5687SOL    HW217622   2.558   2.619   7.007
 5688SOL     OW17623   3.347   3.641   6.564
 5688SOL    HW117624   3.376   3.689   6.486
 5688SOL    HW217625   3.429   3.616   6.608
 5689SOL     OW17626   2.617   2.436   7.281
 5689SOL    HW117627   2.647   2.503   7.343
 5689SOL    HW217628   2.652   2.354   7.314
 5690SOL     OW17629   3.330   3.066   7.219
 5690SOL    HW117630   3.319   3.078   7.314
 5690SOL    HW217631   3.424   3.077   7.204
 5691SOL     OW17632   2.243   3.601   7.147
 5691SOL    HW117633   2.156   3.640   7.135
 5691SOL    HW217634   2.226   3.517   7.189
 5692SOL     OW17635   3.531   2.744   6.844
 5692SOL    HW117636   3.526   2.658   6.801
 5692SOL    HW217637   3.525   2.807   6.772
 5693SOL     OW17638   3.096   2.185   6.037
 5693SOL    HW117639   3.156   2.112   6.034
 5693SOL    HW217640   3.118   2.232   6.117
 5694SOL     OW17641   3.627   2.223   7.234
 5694SOL    HW117642   3.609   2.235   7.141
 5694SOL    HW217643   3.557   2.166   7.265
 5695SOL     OW17644   3.612   2.794   7.100
 5695SOL    HW117645   3.610   2.889   7.113
 5695SOL    HW217646   3.592   2.782   7.007
 5696SOL     OW17647   2.724   3.231   5.616
 5696SOL    HW117648   2.684   3.257   5.699
 5696SOL    HW217649   2.743   3.313   5.572
 5697SOL     OW17650   2.520   3.656   6.533
 5697SOL    HW117651   2.498   3.746   6.508
 5697SOL    HW217652   2.616   3.652   6.525
 5698SOL     OW17653   2.727   2.824   6.442
 5698SOL    HW117654   2.776   2.753   6.484
 5698SOL    HW217655   2.694   2.876   6.516
 5699SOL     OW17656   2.942   2.850   5.674
 5699SOL    HW117657   2.921   2.900   5.595
 5699SOL    HW217658   3.017   2.797   5.649
 5700SOL     OW17659   3.719   3.419   6.428
 5700SOL    HW117660   3.640   3.402   6.376
 5700SOL    HW217661   3.716   3.352   6.497
 5701SOL     OW17662   2.084   3.166   7.440
 5701SOL    HW117663   2.023   3.100   7.407
 5701SOL    HW217664   2.061   3.177   7.532
 5702SOL     OW17665   1.946   3.096   6.249
 5702SOL    HW117666   1.950   3.048   6.331
 5702SOL    HW217667   2.015   3.058   6.195
 5703SOL     OW17668   2.541   3.267   7.208
 5703SOL    HW117669   2.462   3.223   7.239
 5703SOL    HW217670   2.536   3.354   7.248
 5704SOL     OW17671   3.679   2.045   6.826
 5704SOL    HW117672   3.673   1.950   6.834
 5704SOL    HW217673   3.689   2.060   6.732
 5705SOL     OW17674   3.562   3.354   6.687
 5705SOL    HW117675   3.481   3.326   6.643
 5705SOL    HW217676   3.579   3.286   6.752
 5706SOL     OW17677   2.686   3.441   6.265
 5706SOL    HW117678   2.679   3.481   6.179
 5706SOL    HW217679   2.609   3.385   6.271
 5707SOL     OW17680   3.295   2.085   6.705
 5707SOL    HW117681   3.321   2.007   6.753
 5707SOL    HW217682   3.243   2.135   6.767
 5708SOL     OW17683   2.870   1.882   6.728
 5708SOL    HW117684   2.814   1.818   6.684
 5708SOL    HW217685   2.957   1.841   6.730
 5709SOL     OW17686   2.634   3.193   5.897
 5709SOL    HW117687   2.599   3.104   5.904
 5709SOL    HW217688   2.716   3.191   5.946
 5710SOL     OW17689   2.481   3.420   6.869
 5710SOL    HW117690   2.485   3.501   6.921
 5710SOL    HW217691   2.569   3.412   6.831
 5711SOL     OW17692   3.214   1.916   5.750
 5711SOL    HW117693   3.240   1.856   5.680
 5711SOL    HW217694   3.127   1.885   5.777
 5712SOL     OW17695   3.158   2.321   6.269
 5712SOL    HW117696   3.104   2.399   6.275
 5712SOL    HW217697   3.156   2.282   6.356
 5713SOL     OW17698   3.446   2.066   6.461
 5713SOL    HW117699   3.384   2.086   6.532
 5713SOL    HW217700   3.448   2.146   6.408
 5714SOL     OW17701   1.902   2.929   5.893
 5714SOL    HW117702   1.996   2.919   5.881
 5714SOL    HW217703   1.869   2.839   5.900
 5715SOL     OW17704   2.743   3.514   5.932
 5715SOL    HW117705   2.673   3.495   5.869
 5715SOL    HW217706   2.712   3.591   5.979
 5716SOL     OW17707   1.850   2.269   8.078
 5716SOL    HW117708   1.765   2.277   8.123
 5716SOL    HW217709   1.837   2.197   8.017
 5717SOL     OW17710   2.428   3.144   8.620
 5717SOL    HW117711   2.340   3.148   8.582
 5717SOL    HW217712   2.443   3.232   8.654
 5718SOL     OW17713   3.419   3.374   8.154
 5718SOL    HW117714   3.375   3.354   8.237
 5718SOL    HW217715   3.348   3.378   8.090
 5719SOL     OW17716   2.989   2.561   8.153
 5719SOL    HW117717   3.041   2.640   8.136
 5719SOL    HW217718   2.945   2.579   8.236
 5720SOL     OW17719   3.625   2.470   7.680
 5720SOL    HW117720   3.608   2.461   7.586
 5720SOL    HW217721   3.591   2.390   7.718
 5721SOL     OW17722   2.620   3.006   8.485
 5721SOL    HW117723   2.551   3.039   8.541
 5721SOL    HW217724   2.655   3.084   8.441
 5722SOL     OW17725   2.723   2.643   9.269
 5722SOL    HW117726   2.712   2.714   9.331
 5722SOL    HW217727   2.748   2.686   9.187
 5723SOL     OW17728   2.547   2.867   8.099
 5723SOL    HW117729   2.612   2.854   8.167
 5723SOL    HW217730   2.478   2.919   8.141
 5724SOL     OW17731   2.570   3.014   9.257
 5724SOL    HW117732   2.617   3.093   9.282
 5724SOL    HW217733   2.486   3.046   9.224
 5725SOL     OW17734   2.194   3.290   8.516
 5725SOL    HW117735   2.121   3.255   8.464
 5725SOL    HW217736   2.244   3.342   8.453
 5726SOL     OW17737   3.323   3.361   8.798
 5726SOL    HW117738   3.369   3.444   8.809
 5726SOL    HW217739   3.269   3.352   8.876
 5727SOL     OW17740   2.292   2.255   8.950
 5727SOL    HW117741   2.382   2.223   8.946
 5727SOL    HW217742   2.239   2.175   8.957
 5728SOL     OW17743   3.475   2.311   8.189
 5728SOL    HW117744   3.401   2.338   8.134
 5728SOL    HW217745   3.498   2.389   8.239
 5729SOL     OW17746   2.083   3.578   7.927
 5729SOL    HW117747   2.119   3.640   7.991
 5729SOL    HW217748   2.150   3.573   7.859
 5730SOL     OW17749   2.997   3.203   9.139
 5730SOL    HW117750   3.038   3.199   9.226
 5730SOL    HW217751   2.945   3.123   9.134
 5731SOL     OW17752   2.090   3.303   7.982
 5731SOL    HW117753   2.074   3.397   7.989
 5731SOL    HW217754   2.029   3.263   8.044
 5732SOL     OW17755   2.115   2.952   8.338
 5732SOL    HW117756   2.113   2.867   8.381
 5732SOL    HW217757   2.058   3.007   8.391
 5733SOL     OW17758   2.477   3.649   8.879
 5733SOL    HW117759   2.394   3.634   8.924
 5733SOL    HW217760   2.502   3.739   8.904
 5734SOL     OW17761   2.515   2.841   7.556
 5734SOL    HW117762   2.538   2.915   7.500
 5734SOL    HW217763   2.528   2.873   7.645
 5735SOL     OW17764   3.458   1.983   8.917
 5735SOL    HW117765   3.456   2.064   8.865
 5735SOL    HW217766   3.448   2.013   9.007
 5736SOL     OW17767   2.002   2.487   8.059
 5736SOL    HW117768   1.946   2.410   8.065
 5736SOL    HW217769   1.965   2.549   8.121
 5737SOL     OW17770   3.699   3.619   7.789
 5737SOL    HW117771   3.764   3.592   7.854
 5737SOL    HW217772   3.724   3.708   7.764
 5738SOL     OW17773   1.889   3.458   7.572
 5738SOL    HW117774   1.874   3.366   7.593
 5738SOL    HW217775   1.868   3.505   7.652
 5739SOL     OW17776   3.550   2.780   8.086
 5739SOL    HW117777   3.635   2.740   8.070
 5739SOL    HW217778   3.532   2.831   8.007
 5740SOL     OW17779   3.504   2.970   7.879
 5740SOL    HW117780   3.588   2.978   7.834
 5740SOL    HW217781   3.510   3.031   7.953
 5741SOL     OW17782   1.981   2.603   9.033
 5741SOL    HW117783   2.073   2.620   9.053
 5741SOL    HW217784   1.938   2.688   9.042
 5742SOL     OW17785   2.475   3.244   8.183
 5742SOL    HW117786   2.428   3.161   8.192
 5742SOL    HW217787   2.458   3.272   8.093
 5743SOL     OW17788   3.152   3.100   8.873
 5743SOL    HW117789   3.185   3.034   8.813
 5743SOL    HW217790   3.208   3.093   8.950
 5744SOL     OW17791   2.055   2.832   8.715
 5744SOL    HW117792   2.138   2.787   8.701
 5744SOL    HW217793   1.989   2.773   8.679
 5745SOL     OW17794   3.393   2.854   7.644
 5745SOL    HW117795   3.323   2.795   7.674
 5745SOL    HW217796   3.432   2.888   7.725
 5746SOL     OW17797   3.068   3.663   9.072
 5746SOL    HW117798   3.058   3.722   8.997
 5746SOL    HW217799   3.071   3.575   9.033
 5747SOL     OW17800   2.252   2.155   9.260
 5747SOL    HW117801   2.295   2.237   9.285
 5747SOL    HW217802   2.159   2.169   9.280
 5748SOL     OW17803   3.326   3.282   8.400
 5748SOL    HW117804   3.259   3.296   8.467
 5748SOL    HW217805   3.316   3.191   8.373
 5749SOL     OW17806   3.517   3.598   8.027
 5749SOL    HW117807   3.502   3.567   7.938
 5749SOL    HW217808   3.496   3.523   8.082
 5750SOL     OW17809   3.141   2.210   8.381
 5750SOL    HW117810   3.052   2.177   8.390
 5750SOL    HW217811   3.193   2.159   8.443
 5751SOL     OW17812   3.440   3.534   7.756
 5751SOL    HW117813   3.531   3.565   7.752
 5751SOL    HW217814   3.418   3.513   7.665
 5752SOL     OW17815   2.656   2.479   8.901
 5752SOL    HW117816   2.630   2.457   8.990
 5752SOL    HW217817   2.612   2.414   8.846
 5753SOL     OW17818   3.256   2.335   9.126
 5753SOL    HW117819   3.256   2.380   9.211
 5753SOL    HW217820   3.319   2.264   9.136
 5754SOL     OW17821   2.820   2.750   9.029
 5754SOL    HW117822   2.874   2.679   8.995
 5754SOL    HW217823   2.773   2.784   8.952
 5755SOL     OW17824   2.855   2.275   8.687
 5755SOL    HW117825   2.773   2.299   8.730
 5755SOL    HW217826   2.828   2.227   8.609
 5756SOL     OW17827   2.918   2.565   7.876
 5756SOL    HW117828   2.930   2.557   7.971
 5756SOL    HW217829   2.839   2.515   7.858
 5757SOL     OW17830   1.943   2.689   8.229
 5757SOL    HW117831   2.028   2.680   8.271
 5757SOL    HW217832   1.905   2.769   8.267
 5758SOL     OW17833   1.989   3.694   9.023
 5758SOL    HW117834   1.985   3.679   9.117
 5758SOL    HW217835   1.898   3.712   8.998
 5759SOL     OW17836   3.575   2.441   9.276
 5759SOL    HW117837   3.537   2.516   9.231
 5759SOL    HW217838   3.594   2.378   9.206
 5760SOL     OW17839   3.236   3.004   7.990
 5760SOL    HW117840   3.315   2.989   7.938
 5760SOL    HW217841   3.184   3.066   7.939
 5761SOL     OW17842   2.408   2.054   8.333
 5761SOL    HW117843   2.419   2.071   8.427
 5761SOL    HW217844   2.421   2.140   8.292
 5762SOL     OW17845   2.871   3.309   7.922
 5762SOL    HW117846   2.828   3.380   7.873
 5762SOL    HW217847   2.856   3.331   8.014
 5763SOL     OW17848   2.213   3.668   8.290
 5763SOL    HW117849   2.263   3.589   8.308
 5763SOL    HW217850   2.274   3.740   8.308
 5764SOL     OW17851   3.664   2.924   8.314
 5764SOL    HW117852   3.607   2.905   8.239
 5764SOL    HW217853   3.605   2.928   8.389
 5765SOL     OW17854   3.089   3.401   8.960
 5765SOL    HW117855   3.075   3.327   9.020
 5765SOL    HW217856   3.028   3.385   8.888
 5766SOL     OW17857   3.336   2.601   8.177
 5766SOL    HW117858   3.328   2.555   8.261
 5766SOL    HW217859   3.414   2.656   8.188
 5767SOL     OW17860   2.326   3.125   9.185
 5767SOL    HW117861   2.298   3.130   9.094
 5767SOL    HW217862   2.245   3.124   9.235
 5768SOL     OW17863   2.975   3.642   7.673
 5768SOL    HW117864   2.914   3.593   7.729
 5768SOL    HW217865   3.003   3.579   7.607
 5769SOL     OW17866   3.490   3.243   7.537
 5769SOL    HW117867   3.448   3.327   7.518
 5769SOL    HW217868   3.422   3.178   7.517
 5770SOL     OW17869   2.331   3.595   7.773
 5770SOL    HW117870   2.366   3.661   7.833
 5770SOL    HW217871   2.404   3.575   7.714
 5771SOL     OW17872   3.263   1.967   7.879
 5771SOL    HW117873   3.252   1.945   7.787
 5771SOL    HW217874   3.358   1.977   7.891
 5772SOL     OW17875   2.118   3.655   8.678
 5772SOL    HW117876   2.168   3.589   8.726
 5772SOL    HW217877   2.105   3.617   8.591
 5773SOL     OW17878   2.800   3.560   8.350
 5773SOL    HW117879   2.877   3.506   8.369
 5773SOL    HW217880   2.754   3.512   8.281
 5774SOL     OW17881   2.238   2.569   7.967
 5774SOL    HW117882   2.269   2.479   7.956
 5774SOL    HW217883   2.145   2.559   7.991
 5775SOL     OW17884   3.400   2.088   9.174
 5775SOL    HW117885   3.408   2.109   9.267
 5775SOL    HW217886   3.333   2.020   9.170
 5776SOL     OW17887   2.630   2.139   9.202
 5776SOL    HW117888   2.702   2.077   9.208
 5776SOL    HW217889   2.576   2.121   9.278
 5777SOL     OW17890   2.738   3.382   8.642
 5777SOL    HW117891   2.724   3.347   8.554
 5777SOL    HW217892   2.808   3.327   8.678
 5778SOL     OW17893   3.204   2.450   8.880
 5778SOL    HW117894   3.234   2.419   8.965
 5778SOL    HW217895   3.239   2.539   8.873
 5779SOL     OW17896   2.675   3.259   8.384
 5779SOL    HW117897   2.759   3.250   8.339
 5779SOL    HW217898   2.610   3.258   8.314
 5780SOL     OW17899   2.788   2.370   8.352
 5780SOL    HW117900   2.764   2.361   8.260
 5780SOL    HW217901   2.823   2.285   8.377
 5781SOL     OW17902   3.291   3.060   7.490
 5781SOL    HW117903   3.322   2.984   7.538
 5781SOL    HW217904   3.204   3.078   7.525
 5782SOL     OW17905   2.942   2.542   8.908
 5782SOL    HW117906   2.872   2.477   8.915
 5782SOL    HW217907   3.022   2.490   8.901
 5783SOL     OW17908   3.086   3.432   8.242
 5783SOL    HW117909   3.105   3.500   8.177
 5783SOL    HW217910   3.154   3.441   8.308
 5784SOL     OW17911   2.328   3.010   8.184
 5784SOL    HW117912   2.259   2.992   8.248
 5784SOL    HW217913   2.286   2.995   8.099
 5785SOL     OW17914   3.133   3.659   8.052
 5785SOL    HW117915   3.175   3.723   7.995
 5785SOL    HW217916   3.065   3.709   8.097
 5786SOL     OW17917   2.891   2.416   7.456
 5786SOL    HW117918   2.850   2.502   7.445
 5786SOL    HW217919   2.948   2.425   7.532
 5787SOL     OW17920   1.937   2.422   8.834
 5787SOL    HW117921   2.030   2.418   8.812
 5787SOL    HW217922   1.932   2.487   8.904
 5788SOL     OW17923   2.454   2.083   8.599
 5788SOL    HW117924   2.490   2.004   8.639
 5788SOL    HW217925   2.369   2.095   8.642
 5789SOL     OW17926   2.726   2.317   8.088
 5789SOL    HW117927   2.687   2.382   8.029
 5789SOL    HW217928   2.766   2.252   8.030
 5790SOL     OW17929   2.877   1.918   8.207
 5790SOL    HW117930   2.818   1.907   8.132
 5790SOL    HW217931   2.861   1.841   8.262
 5791SOL     OW17932   3.298   3.026   8.306
 5791SOL    HW117933   3.231   2.958   8.303
 5791SOL    HW217934   3.322   3.039   8.214
 5792SOL     OW17935   3.329   2.465   8.430
 5792SOL    HW117936   3.283   2.381   8.433
 5792SOL    HW217937   3.390   2.462   8.503
 5793SOL     OW17938   3.722   2.682   7.824
 5793SOL    HW117939   3.766   2.625   7.887
 5793SOL    HW217940   3.684   2.622   7.759
 5794SOL     OW17941   2.353   3.275   7.608
 5794SOL    HW117942   2.277   3.246   7.659
 5794SOL    HW217943   2.334   3.247   7.518
 5795SOL     OW17944   3.527   3.127   8.098
 5795SOL    HW117945   3.622   3.133   8.105
 5795SOL    HW217946   3.496   3.216   8.118
 5796SOL     OW17947   3.256   2.434   7.519
 5796SOL    HW117948   3.194   2.415   7.590
 5796SOL    HW217949   3.340   2.399   7.551
 5797SOL     OW17950   3.614   3.096   9.023
 5797SOL    HW117951   3.701   3.060   9.006
 5797SOL    HW217952   3.631   3.185   9.055
 5798SOL     OW17953   2.923   3.215   8.782
 5798SOL    HW117954   2.848   3.184   8.834
 5798SOL    HW217955   2.999   3.174   8.824
 5799SOL     OW17956   3.467   3.489   9.100
 5799SOL    HW117957   3.462   3.522   9.010
 5799SOL    HW217958   3.550   3.441   9.104
 5800SOL     OW17959   2.987   3.063   8.555
 5800SOL    HW117960   2.930   3.102   8.621
 5800SOL    HW217961   2.953   3.095   8.471
 5801SOL     OW17962   3.495   2.962   8.525
 5801SOL    HW117963   3.489   3.023   8.599
 5801SOL    HW217964   3.414   2.976   8.476
 5802SOL     OW17965   2.780   1.961   8.846
 5802SOL    HW117966   2.804   1.941   8.756
 5802SOL    HW217967   2.858   2.000   8.884
 5803SOL     OW17968   2.846   2.976   9.170
 5803SOL    HW117969   2.753   2.991   9.189
 5803SOL    HW217970   2.846   2.899   9.114
 5804SOL     OW17971   2.571   2.924   7.823
 5804SOL    HW117972   2.559   2.908   7.917
 5804SOL    HW217973   2.646   2.870   7.799
 5805SOL     OW17974   2.278   2.674   8.699
 5805SOL    HW117975   2.347   2.686   8.764
 5805SOL    HW217976   2.243   2.586   8.716
 5806SOL     OW17977   3.129   2.240   8.721
 5806SOL    HW117978   3.162   2.318   8.767
 5806SOL    HW217979   3.040   2.263   8.696
 5807SOL     OW17980   1.930   3.434   8.796
 5807SOL    HW117981   1.898   3.509   8.747
 5807SOL    HW217982   2.025   3.442   8.794
 5808SOL     OW17983   2.206   2.970   7.940
 5808SOL    HW117984   2.224   3.040   7.877
 5808SOL    HW217985   2.241   2.891   7.900
 5809SOL     OW17986   2.414   2.400   8.313
 5809SOL    HW117987   2.431   2.454   8.236
 5809SOL    HW217988   2.478   2.429   8.377
 5810SOL     OW17989   3.110   3.209   7.838
 5810SOL    HW117990   3.165   3.281   7.868
 5810SOL    HW217991   3.023   3.230   7.871
 5811SOL     OW17992   3.139   3.318   8.594
 5811SOL    HW117993   3.194   3.321   8.672
 5811SOL    HW217994   3.084   3.241   8.606
 5812SOL     OW17995   3.445   2.487   7.926
 5812SOL    HW117996   3.400   2.545   7.988
 5812SOL    HW217997   3.488   2.546   7.864
 5813SOL     OW17998   2.210   3.386   8.765
 5813SOL    HW117999   2.197   3.344   8.680
 5813SOL    HW218000   2.304   3.399   8.772
 5814SOL     OW18001   2.275   2.609   9.050
 5814SOL    HW118002   2.337   2.652   8.992
 5814SOL    HW218003   2.314   2.524   9.068
 5815SOL     OW18004   3.460   2.638   9.126
 5815SOL    HW118005   3.374   2.680   9.119
 5815SOL    HW218006   3.512   2.682   9.058
 5816SOL     OW18007   2.858   1.979   9.203
 5816SOL    HW118008   2.910   2.053   9.172
 5816SOL    HW218009   2.908   1.902   9.178
 5817SOL     OW18010   2.371   1.907   9.197
 5817SOL    HW118011   2.319   1.856   9.135
 5817SOL    HW218012   2.322   1.988   9.209
 5818SOL     OW18013   2.444   2.734   8.479
 5818SOL    HW118014   2.475   2.824   8.476
 5818SOL    HW218015   2.388   2.731   8.556
 5819SOL     OW18016   3.223   2.721   8.482
 5819SOL    HW118017   3.142   2.714   8.430
 5819SOL    HW218018   3.260   2.633   8.479
 5820SOL     OW18019   3.068   2.392   7.715
 5820SOL    HW118020   3.078   2.314   7.770
 5820SOL    HW218021   3.031   2.457   7.773
 5821SOL     OW18022   2.225   2.076   8.727
 5821SOL    HW118023   2.144   2.098   8.772
 5821SOL    HW218024   2.217   1.983   8.708
 5822SOL     OW18025   1.908   3.172   8.725
 5822SOL    HW118026   1.942   3.119   8.797
 5822SOL    HW218027   1.916   3.263   8.755
 5823SOL     OW18028   2.587   2.493   8.507
 5823SOL    HW118029   2.661   2.476   8.449
 5823SOL    HW218030   2.560   2.583   8.487
 5824SOL     OW18031   3.595   2.820   9.304
 5824SOL    HW118032   3.549   2.768   9.238
 5824SOL    HW218033   3.531   2.831   9.374
 5825SOL     OW18034   3.476   2.234   7.817
 5825SOL    HW118035   3.504   2.171   7.883
 5825SOL    HW218036   3.453   2.312   7.867
 5826SOL     OW18037   2.888   2.622   8.410
 5826SOL    HW118038   2.889   2.640   8.504
 5826SOL    HW218039   2.863   2.530   8.404
 5827SOL     OW18040   2.846   3.429   9.163
 5827SOL    HW118041   2.829   3.472   9.079
 5827SOL    HW218042   2.888   3.346   9.140
 5828SOL     OW18043   3.709   3.370   9.050
 5828SOL    HW118044   3.730   3.396   8.960
 5828SOL    HW218045   3.790   3.386   9.098
 5829SOL     OW18046   2.215   2.777   9.257
 5829SOL    HW118047   2.298   2.796   9.300
 5829SOL    HW218048   2.237   2.716   9.187
 5830SOL     OW18049   3.394   2.136   7.575
 5830SOL    HW118050   3.329   2.070   7.601
 5830SOL    HW218051   3.426   2.172   7.658
 5831SOL     OW18052   3.157   2.690   7.482
 5831SOL    HW118053   3.198   2.603   7.484
 5831SOL    HW218054   3.187   2.728   7.399
 5832SOL     OW18055   2.927   3.197   8.300
 5832SOL    HW118056   2.930   3.124   8.239
 5832SOL    HW218057   2.990   3.260   8.266
 5833SOL     OW18058   2.172   2.674   8.396
 5833SOL    HW118059   2.265   2.696   8.390
 5833SOL    HW218060   2.171   2.586   8.434
 5834SOL     OW18061   2.189   2.365   8.458
 5834SOL    HW118062   2.152   2.286   8.418
 5834SOL    HW218063   2.268   2.383   8.407
 5835SOL     OW18064   2.997   2.240   9.127
 5835SOL    HW118065   2.950   2.295   9.191
 5835SOL    HW218066   3.085   2.277   9.124
 5836SOL     OW18067   3.022   2.067   8.917
 5836SOL    HW118068   3.013   2.128   8.990
 5836SOL    HW218069   3.060   2.118   8.846
 5837SOL     OW18070   1.866   3.183   7.644
 5837SOL    HW118071   1.780   3.200   7.605
 5837SOL    HW218072   1.861   3.093   7.676
 5838SOL     OW18073   1.955   3.649   8.384
 5838SOL    HW118074   1.925   3.568   8.341
 5838SOL    HW218075   2.042   3.664   8.347
 5839SOL     OW18076   2.361   3.435   8.354
 5839SOL    HW118077   2.429   3.499   8.378
 5839SOL    HW218078   2.406   3.371   8.300
 5840SOL     OW18079   2.849   2.656   8.676
 5840SOL    HW118080   2.903   2.631   8.751
 5840SOL    HW218081   2.763   2.621   8.697
 5841SOL     OW18082   1.900   2.395   8.565
 5841SOL    HW118083   1.984   2.396   8.520
 5841SOL    HW218084   1.922   2.412   8.657
 5842SOL     OW18085   2.068   2.381   9.177
 5842SOL    HW118086   2.117   2.350   9.102
 5842SOL    HW218087   2.000   2.438   9.140
 5843SOL     OW18088   3.238   2.803   9.108
 5843SOL    HW118089   3.259   2.897   9.107
 5843SOL    HW218090   3.236   2.779   9.015
 5844SOL     OW18091   2.699   2.427   7.797
 5844SOL    HW118092   2.706   2.352   7.738
 5844SOL    HW218093   2.622   2.474   7.768
 5845SOL     OW18094   3.505   2.464   8.637
 5845SOL    HW118095   3.493   2.403   8.710
 5845SOL    HW218096   3.590   2.441   8.601
 5846SOL     OW18097   2.110   3.414   9.178
 5846SOL    HW118098   2.085   3.478   9.245
 5846SOL    HW218099   2.107   3.330   9.224
 5847SOL     OW18100   2.551   2.318   8.713
 5847SOL    HW118101   2.514   2.238   8.676
 5847SOL    HW218102   2.554   2.380   8.639
 5848SOL     OW18103   2.794   3.537   8.914
 5848SOL    HW118104   2.766   3.505   8.828
 5848SOL    HW218105   2.789   3.632   8.907
 5849SOL     OW18106   2.010   3.002   8.919
 5849SOL    HW118107   2.015   2.948   8.998
 5849SOL    HW218108   2.027   2.941   8.847
 5850SOL     OW18109   3.190   2.911   8.673
 5850SOL    HW118110   3.215   2.848   8.605
 5850SOL    HW218111   3.118   2.960   8.635
 5851SOL     OW18112   3.171   2.717   7.756
 5851SOL    HW118113   3.092   2.689   7.803
 5851SOL    HW218114   3.149   2.705   7.664
 5852SOL     OW18115   3.632   3.609   8.597
 5852SOL    HW118116   3.691   3.634   8.526
 5852SOL    HW218117   3.607   3.519   8.578
 5853SOL     OW18118   3.105   3.596   8.564
 5853SOL    HW118119   3.187   3.613   8.518
 5853SOL    HW218120   3.107   3.502   8.583
 5854SOL     OW18121   1.945   3.128   8.462
 5854SOL    HW118122   1.933   3.139   8.556
 5854SOL    HW218123   1.870   3.075   8.434
 5855SOL     OW18124   2.540   3.524   9.172
 5855SOL    HW118125   2.488   3.604   9.175
 5855SOL    HW218126   2.600   3.538   9.098
 5856SOL     OW18127   3.578   2.005   7.963
 5856SOL    HW118128   3.647   1.992   7.898
 5856SOL    HW218129   3.565   1.918   8.002
 5857SOL     OW18130   3.251   3.430   7.931
 5857SOL    HW118131   3.312   3.461   7.864
 5857SOL    HW218132   3.205   3.509   7.960
 5858SOL     OW18133   1.993   3.656   9.289
 5858SOL    HW118134   1.942   3.592   9.337
 5858SOL    HW218135   2.044   3.702   9.356
 5859SOL     OW18136   3.139   2.786   8.119
 5859SOL    HW118137   3.212   2.725   8.124
 5859SOL    HW218138   3.172   2.859   8.067
 5860SOL     OW18139   2.680   3.134   8.879
 5860SOL    HW118140   2.654   3.173   8.963
 5860SOL    HW218141   2.609   3.157   8.819
 5861SOL     OW18142   2.537   3.475   7.604
 5861SOL    HW118143   2.543   3.490   7.510
 5861SOL    HW218144   2.481   3.398   7.612
 5862SOL     OW18145   3.491   3.587   8.839
 5862SOL    HW118146   3.542   3.594   8.758
 5862SOL    HW218147   3.479   3.678   8.867
 5863SOL     OW18148   3.699   2.041   8.417
 5863SOL    HW118149   3.730   1.956   8.389
 5863SOL    HW218150   3.613   2.050   8.376
 5864SOL     OW18151   3.067   3.470   7.482
 5864SOL    HW118152   3.059   3.378   7.507
 5864SOL    HW218153   3.006   3.481   7.409
 5865SOL     OW18154   2.686   2.868   8.819
 5865SOL    HW118155   2.730   2.865   8.734
 5865SOL    HW218156   2.687   2.960   8.844
 5866SOL     OW18157   2.780   2.775   7.743
 5866SOL    HW118158   2.837   2.806   7.672
 5866SOL    HW218159   2.830   2.704   7.784
 5867SOL     OW18160   3.355   3.489   7.489
 5867SOL    HW118161   3.261   3.481   7.475
 5867SOL    HW218162   3.392   3.494   7.401
 5868SOL     OW18163   2.232   3.163   8.939
 5868SOL    HW118164   2.218   3.241   8.886
 5868SOL    HW218165   2.154   3.109   8.923
 5869SOL     OW18166   3.467   3.142   8.728
 5869SOL    HW118167   3.534   3.139   8.797
 5869SOL    HW218168   3.410   3.215   8.754
 5870SOL     OW18169   2.910   2.967   8.154
 5870SOL    HW118170   2.840   2.915   8.193
 5870SOL    HW218171   2.971   2.903   8.118
 5871SOL     OW18172   2.881   2.103   8.415
 5871SOL    HW118173   2.878   2.053   8.333
 5871SOL    HW218174   2.877   2.035   8.484
 5872SOL     OW18175   2.462   3.351   7.930
 5872SOL    HW118176   2.505   3.301   7.861
 5872SOL    HW218177   2.400   3.407   7.884
 5873SOL     OW18178   3.582   2.253   8.827
 5873SOL    HW118179   3.653   2.317   8.823
 5873SOL    HW218180   3.611   2.181   8.772
 5874SOL     OW18181   2.120   3.203   7.737
 5874SOL    HW118182   2.027   3.207   7.713
 5874SOL    HW218183   2.124   3.243   7.824
 5875SOL     OW18184   1.974   2.880   9.167
 5875SOL    HW118185   1.898   2.858   9.220
 5875SOL    HW218186   2.048   2.844   9.215
 5876SOL     OW18187   2.536   2.059   8.946
 5876SOL    HW118188   2.620   2.040   8.906
 5876SOL    HW218189   2.557   2.087   9.035
 5877SOL     OW18190   3.293   2.721   8.850
 5877SOL    HW118191   3.244   2.780   8.793
 5877SOL    HW218192   3.382   2.723   8.815
 5878SOL     OW18193   3.042   3.205   7.565
 5878SOL    HW118194   2.951   3.172   7.567
 5878SOL    HW218195   3.070   3.202   7.656
 5879SOL     OW18196   2.480   2.693   8.879
 5879SOL    HW118197   2.535   2.770   8.866
 5879SOL    HW218198   2.542   2.621   8.889
 5880SOL     OW18199   3.347   3.640   8.425
 5880SOL    HW118200   3.375   3.689   8.348
 5880SOL    HW218201   3.429   3.616   8.470
 5881SOL     OW18202   2.579   2.425   9.153
 5881SOL    HW118203   2.615   2.490   9.214
 5881SOL    HW218204   2.613   2.341   9.184
 5882SOL     OW18205   3.330   3.065   9.081
 5882SOL    HW118206   3.320   3.078   9.175
 5882SOL    HW218207   3.424   3.077   9.066
 5883SOL     OW18208   2.243   3.601   9.009
 5883SOL    HW118209   2.156   3.639   8.997
 5883SOL    HW218210   2.226   3.517   9.051
 5884SOL     OW18211   3.531   2.744   8.706
 5884SOL    HW118212   3.526   2.658   8.663
 5884SOL    HW218213   3.526   2.807   8.634
 5885SOL     OW18214   3.090   2.190   7.902
 5885SOL    HW118215   3.147   2.113   7.896
 5885SOL    HW218216   3.117   2.233   7.983
 5886SOL     OW18217   2.463   2.599   8.112
 5886SOL    HW118218   2.498   2.687   8.100
 5886SOL    HW218219   2.381   2.599   8.062
 5887SOL     OW18220   3.627   2.223   9.096
 5887SOL    HW118221   3.608   2.235   9.003
 5887SOL    HW218222   3.557   2.166   9.127
 5888SOL     OW18223   3.611   2.794   8.962
 5888SOL    HW118224   3.610   2.889   8.976
 5888SOL    HW218225   3.591   2.783   8.869
 5889SOL     OW18226   2.727   3.236   7.480
 5889SOL    HW118227   2.684   3.263   7.561
 5889SOL    HW218228   2.746   3.318   7.434
 5890SOL     OW18229   2.520   3.656   8.395
 5890SOL    HW118230   2.497   3.745   8.371
 5890SOL    HW218231   2.616   3.652   8.387
 5891SOL     OW18232   2.727   2.826   8.304
 5891SOL    HW118233   2.779   2.757   8.345
 5891SOL    HW218234   2.695   2.879   8.378
 5892SOL     OW18235   2.944   2.854   7.540
 5892SOL    HW118236   2.918   2.899   7.459
 5892SOL    HW218237   3.017   2.798   7.513
 5893SOL     OW18238   3.719   3.419   8.290
 5893SOL    HW118239   3.641   3.402   8.238
 5893SOL    HW218240   3.716   3.352   8.359
 5894SOL     OW18241   2.086   3.167   9.304
 5894SOL    HW118242   2.018   3.105   9.276
 5894SOL    HW218243   2.070   3.179   9.397
 5895SOL     OW18244   1.946   3.096   8.110
 5895SOL    HW118245   1.948   3.048   8.193
 5895SOL    HW218246   2.018   3.059   8.059
 5896SOL     OW18247   2.542   3.262   9.074
 5896SOL    HW118248   2.462   3.219   9.104
 5896SOL    HW218249   2.537   3.350   9.111
 5897SOL     OW18250   3.678   2.045   8.688
 5897SOL    HW118251   3.674   1.949   8.696
 5897SOL    HW218252   3.689   2.060   8.594
 5898SOL     OW18253   2.280   2.266   8.023
 5898SOL    HW118254   2.286   2.212   7.944
 5898SOL    HW218255   2.213   2.223   8.077
 5899SOL     OW18256   3.562   3.354   8.549
 5899SOL    HW118257   3.482   3.326   8.506
 5899SOL    HW218258   3.580   3.286   8.614
 5900SOL     OW18259   2.191   2.412   8.737
 5900SOL    HW118260   2.241   2.356   8.795
 5900SOL    HW218261   2.211   2.380   8.649
 5901SOL     OW18262   2.687   3.441   8.127
 5901SOL    HW118263   2.681   3.482   8.041
 5901SOL    HW218264   2.609   3.385   8.132
 5902SOL     OW18265   3.294   2.086   8.566
 5902SOL    HW118266   3.324   2.008   8.614
 5902SOL    HW218267   3.242   2.134   8.630
 5903SOL     OW18268   2.870   1.883   8.593
 5903SOL    HW118269   2.816   1.812   8.557
 5903SOL    HW218270   2.959   1.847   8.595
 5904SOL     OW18271   2.632   3.194   7.762
 5904SOL    HW118272   2.599   3.105   7.767
 5904SOL    HW218273   2.717   3.191   7.805
 5905SOL     OW18274   2.482   3.420   8.732
 5905SOL    HW118275   2.484   3.500   8.783
 5905SOL    HW218276   2.569   3.412   8.693
 5906SOL     OW18277   3.215   1.916   7.613
 5906SOL    HW118278   3.239   1.859   7.540
 5906SOL    HW218279   3.127   1.888   7.638
 5907SOL     OW18280   3.159   2.322   8.133
 5907SOL    HW118281   3.107   2.401   8.141
 5907SOL    HW218282   3.157   2.282   8.220
 5908SOL     OW18283   3.446   2.066   8.323
 5908SOL    HW118284   3.384   2.086   8.393
 5908SOL    HW218285   3.448   2.146   8.270
 5909SOL     OW18286   1.895   2.928   7.753
 5909SOL    HW118287   1.990   2.930   7.749
 5909SOL    HW218288   1.872   2.837   7.738
 5910SOL     OW18289   2.743   3.513   7.795
 5910SOL    HW118290   2.673   3.494   7.731
 5910SOL    HW218291   2.712   3.591   7.841
 5911SOL     OW18292   2.091   2.479   9.433
 5911SOL    HW118293   2.000   2.487   9.462
 5911SOL    HW218294   2.084   2.451   9.341
 5912SOL     OW18295   1.858   2.278   9.936
 5912SOL    HW118296   1.774   2.280   9.982
 5912SOL    HW218297   1.856   2.197   9.886
 5913SOL     OW18298   2.428   3.144  10.482
 5913SOL    HW118299   2.341   3.148  10.444
 5913SOL    HW218300   2.443   3.233  10.516
 5914SOL     OW18301   3.419   3.374  10.016
 5914SOL    HW118302   3.375   3.354  10.099
 5914SOL    HW218303   3.348   3.378   9.952
 5915SOL     OW18304   2.990   2.561  10.014
 5915SOL    HW118305   3.042   2.640   9.999
 5915SOL    HW218306   2.945   2.578  10.096
 5916SOL     OW18307   3.626   2.470   9.542
 5916SOL    HW118308   3.608   2.461   9.448
 5916SOL    HW218309   3.591   2.390   9.581
 5917SOL     OW18310   2.621   3.006  10.347
 5917SOL    HW118311   2.551   3.039  10.404
 5917SOL    HW218312   2.655   3.084  10.303
 5918SOL     OW18313   2.723   2.643  11.131
 5918SOL    HW118314   2.712   2.714  11.193
 5918SOL    HW218315   2.748   2.686  11.049
 5919SOL     OW18316   2.548   2.868   9.959
 5919SOL    HW118317   2.612   2.854  10.029
 5919SOL    HW218318   2.478   2.918  10.000
 5920SOL     OW18319   2.570   3.014  11.119
 5920SOL    HW118320   2.617   3.093  11.144
 5920SOL    HW218321   2.486   3.046  11.086
 5921SOL     OW18322   2.193   3.290  10.378
 5921SOL    HW118323   2.121   3.255  10.326
 5921SOL    HW218324   2.244   3.342  10.315
 5922SOL     OW18325   3.323   3.361  10.660
 5922SOL    HW118326   3.369   3.444  10.671
 5922SOL    HW218327   3.269   3.352  10.738
 5923SOL     OW18328   2.290   2.244  10.789
 5923SOL    HW118329   2.379   2.211  10.805
 5923SOL    HW218330   2.233   2.171  10.813
 5924SOL     OW18331   3.475   2.311  10.050
 5924SOL    HW118332   3.400   2.338   9.997
 5924SOL    HW218333   3.496   2.389  10.102
 5925SOL     OW18334   2.083   3.579   9.789
 5925SOL    HW118335   2.119   3.640   9.853
 5925SOL    HW218336   2.150   3.572   9.721
 5926SOL     OW18337   2.997   3.203  11.001
 5926SOL    HW118338   3.038   3.199  11.088
 5926SOL    HW218339   2.945   3.123  10.996
 5927SOL     OW18340   2.090   3.303   9.844
 5927SOL    HW118341   2.073   3.397   9.852
 5927SOL    HW218342   2.030   3.262   9.906
 5928SOL     OW18343   2.115   2.952  10.200
 5928SOL    HW118344   2.113   2.867  10.243
 5928SOL    HW218345   2.058   3.008  10.253
 5929SOL     OW18346   2.477   3.649  10.741
 5929SOL    HW118347   2.394   3.634  10.786
 5929SOL    HW218348   2.502   3.739  10.766
 5930SOL     OW18349   2.452   2.841   9.442
 5930SOL    HW118350   2.494   2.894   9.374
 5930SOL    HW218351   2.492   2.871   9.523
 5931SOL     OW18352   3.459   1.983  10.779
 5931SOL    HW118353   3.455   2.063  10.727
 5931SOL    HW218354   3.448   2.013  10.869
 5932SOL     OW18355   1.980   2.516   9.870
 5932SOL    HW118356   1.944   2.429   9.888
 5932SOL    HW218357   1.969   2.564   9.952
 5933SOL     OW18358   3.699   3.619   9.651
 5933SOL    HW118359   3.764   3.592   9.716
 5933SOL    HW218360   3.724   3.708   9.626
 5934SOL     OW18361   1.888   3.458   9.433
 5934SOL    HW118362   1.874   3.365   9.455
 5934SOL    HW218363   1.868   3.504   9.514
 5935SOL     OW18364   3.550   2.781   9.948
 5935SOL    HW118365   3.635   2.741   9.933
 5935SOL    HW218366   3.532   2.831   9.868
 5936SOL     OW18367   3.504   2.970   9.741
 5936SOL    HW118368   3.588   2.978   9.696
 5936SOL    HW218369   3.510   3.031   9.815
 5937SOL     OW18370   1.981   2.603  10.895
 5937SOL    HW118371   2.073   2.620  10.915
 5937SOL    HW218372   1.938   2.688  10.904
 5938SOL     OW18373   2.475   3.244  10.045
 5938SOL    HW118374   2.428   3.161  10.054
 5938SOL    HW218375   2.458   3.272   9.954
 5939SOL     OW18376   3.152   3.100  10.735
 5939SOL    HW118377   3.185   3.034  10.675
 5939SOL    HW218378   3.208   3.093  10.812
 5940SOL     OW18379   2.671   1.862   9.816
 5940SOL    HW118380   2.712   1.947   9.800
 5940SOL    HW218381   2.578   1.881   9.826
 5941SOL     OW18382   2.054   2.832  10.577
 5941SOL    HW118383   2.138   2.787  10.563
 5941SOL    HW218384   1.989   2.773  10.541
 5942SOL     OW18385   3.392   2.854   9.507
 5942SOL    HW118386   3.323   2.796   9.537
 5942SOL    HW218387   3.432   2.888   9.587
 5943SOL     OW18388   3.068   3.663  10.934
 5943SOL    HW118389   3.058   3.722  10.859
 5943SOL    HW218390   3.071   3.575  10.895
 5944SOL     OW18391   2.254   2.159  11.114
 5944SOL    HW118392   2.295   2.237  11.151
 5944SOL    HW218393   2.161   2.170  11.131
 5945SOL     OW18394   3.326   3.282  10.262
 5945SOL    HW118395   3.259   3.296  10.329
 5945SOL    HW218396   3.316   3.191  10.236
 5946SOL     OW18397   3.517   3.598   9.889
 5946SOL    HW118398   3.502   3.566   9.800
 5946SOL    HW218399   3.496   3.523   9.944
 5947SOL     OW18400   2.458   2.586   9.574
 5947SOL    HW118401   2.466   2.665   9.522
 5947SOL    HW218402   2.392   2.608   9.641
 5948SOL     OW18403   3.141   2.210  10.242
 5948SOL    HW118404   3.052   2.176  10.250
 5948SOL    HW218405   3.192   2.159  10.305
 5949SOL     OW18406   3.440   3.534   9.618
 5949SOL    HW118407   3.531   3.565   9.614
 5949SOL    HW218408   3.418   3.513   9.527
 5950SOL     OW18409   2.655   2.479  10.763
 5950SOL    HW118410   2.629   2.457  10.852
 5950SOL    HW218411   2.612   2.413  10.708
 5951SOL     OW18412   3.256   2.336  10.988
 5951SOL    HW118413   3.256   2.380  11.073
 5951SOL    HW218414   3.318   2.264  10.998
 5952SOL     OW18415   2.820   2.750  10.891
 5952SOL    HW118416   2.874   2.679  10.857
 5952SOL    HW218417   2.773   2.784  10.814
 5953SOL     OW18418   2.855   2.276  10.549
 5953SOL    HW118419   2.772   2.298  10.591
 5953SOL    HW218420   2.830   2.227  10.471
 5954SOL     OW18421   2.911   2.561   9.737
 5954SOL    HW118422   2.926   2.554   9.831
 5954SOL    HW218423   2.830   2.514   9.722
 5955SOL     OW18424   1.950   2.682  10.087
 5955SOL    HW118425   2.033   2.677  10.134
 5955SOL    HW218426   1.908   2.761  10.121
 5956SOL     OW18427   1.989   3.694  10.885
 5956SOL    HW118428   1.985   3.679  10.979
 5956SOL    HW218429   1.898   3.712  10.860
 5957SOL     OW18430   2.751   2.210   9.507
 5957SOL    HW118431   2.794   2.268   9.445
 5957SOL    HW218432   2.759   2.123   9.468
 5958SOL     OW18433   3.576   2.441  11.138
 5958SOL    HW118434   3.537   2.516  11.093
 5958SOL    HW218435   3.594   2.378  11.068
 5959SOL     OW18436   3.236   3.004   9.852
 5959SOL    HW118437   3.315   2.990   9.800
 5959SOL    HW218438   3.185   3.066   9.801
 5960SOL     OW18439   2.407   2.054  10.199
 5960SOL    HW118440   2.409   2.071  10.294
 5960SOL    HW218441   2.427   2.139  10.159
 5961SOL     OW18442   2.871   3.309   9.784
 5961SOL    HW118443   2.828   3.380   9.735
 5961SOL    HW218444   2.856   3.330   9.876
 5962SOL     OW18445   2.213   3.668  10.152
 5962SOL    HW118446   2.263   3.589  10.170
 5962SOL    HW218447   2.274   3.740  10.170
 5963SOL     OW18448   3.664   2.924  10.176
 5963SOL    HW118449   3.607   2.905  10.101
 5963SOL    HW218450   3.605   2.928  10.251
 5964SOL     OW18451   3.089   3.400  10.822
 5964SOL    HW118452   3.076   3.327  10.882
 5964SOL    HW218453   3.028   3.385  10.750
 5965SOL     OW18454   2.184   2.817   9.559
 5965SOL    HW118455   2.266   2.837   9.512
 5965SOL    HW218456   2.153   2.737   9.518
 5966SOL     OW18457   3.337   2.601  10.038
 5966SOL    HW118458   3.327   2.555  10.122
 5966SOL    HW218459   3.414   2.656  10.050
 5967SOL     OW18460   2.326   3.125  11.047
 5967SOL    HW118461   2.298   3.130  10.956
 5967SOL    HW218462   2.245   3.124  11.097
 5968SOL     OW18463   2.975   3.642   9.535
 5968SOL    HW118464   2.914   3.593   9.591
 5968SOL    HW218465   3.003   3.578   9.469
 5969SOL     OW18466   3.489   3.243   9.399
 5969SOL    HW118467   3.448   3.327   9.380
 5969SOL    HW218468   3.422   3.178   9.379
 5970SOL     OW18469   2.331   3.595   9.634
 5970SOL    HW118470   2.366   3.661   9.695
 5970SOL    HW218471   2.405   3.575   9.577
 5971SOL     OW18472   3.263   1.970   9.740
 5971SOL    HW118473   3.252   1.945   9.649
 5971SOL    HW218474   3.358   1.976   9.753
 5972SOL     OW18475   2.118   3.655  10.540
 5972SOL    HW118476   2.168   3.589  10.588
 5972SOL    HW218477   2.105   3.617  10.453
 5973SOL     OW18478   2.800   3.560  10.212
 5973SOL    HW118479   2.877   3.506  10.231
 5973SOL    HW218480   2.754   3.512  10.144
 5974SOL     OW18481   2.252   2.558   9.788
 5974SOL    HW118482   2.275   2.465   9.796
 5974SOL    HW218483   2.158   2.561   9.807
 5975SOL     OW18484   3.400   2.088  11.036
 5975SOL    HW118485   3.408   2.109  11.129
 5975SOL    HW218486   3.333   2.020  11.032
 5976SOL     OW18487   2.502   1.988   9.421
 5976SOL    HW118488   2.572   1.922   9.428
 5976SOL    HW218489   2.448   1.957   9.349
 5977SOL     OW18490   2.630   2.139  11.063
 5977SOL    HW118491   2.702   2.077  11.069
 5977SOL    HW218492   2.576   2.121  11.140
 5978SOL     OW18493   2.739   3.382  10.504
 5978SOL    HW118494   2.724   3.347  10.416
 5978SOL    HW218495   2.808   3.327  10.540
 5979SOL     OW18496   3.204   2.451  10.742
 5979SOL    HW118497   3.234   2.419  10.827
 5979SOL    HW218498   3.239   2.539  10.735
 5980SOL     OW18499   2.675   3.260  10.246
 5980SOL    HW118500   2.759   3.250  10.201
 5980SOL    HW218501   2.610   3.257  10.176
 5981SOL     OW18502   2.788   2.370  10.214
 5981SOL    HW118503   2.766   2.362  10.121
 5981SOL    HW218504   2.823   2.284  10.238
 5982SOL     OW18505   2.404   1.926   9.818
 5982SOL    HW118506   2.338   1.939   9.886
 5982SOL    HW218507   2.395   2.003   9.761
 5983SOL     OW18508   3.291   3.060   9.351
 5983SOL    HW118509   3.322   2.984   9.401
 5983SOL    HW218510   3.204   3.079   9.389
 5984SOL     OW18511   2.797   2.107   9.774
 5984SOL    HW118512   2.770   2.148   9.692
 5984SOL    HW218513   2.893   2.118   9.775
 5985SOL     OW18514   2.942   2.541  10.770
 5985SOL    HW118515   2.872   2.476  10.776
 5985SOL    HW218516   3.022   2.490  10.763
 5986SOL     OW18517   3.086   3.431  10.103
 5986SOL    HW118518   3.105   3.500  10.039
 5986SOL    HW218519   3.154   3.441  10.170
 5987SOL     OW18520   2.329   3.010  10.047
 5987SOL    HW118521   2.258   2.992  10.108
 5987SOL    HW218522   2.291   2.992   9.961
 5988SOL     OW18523   3.133   3.659   9.914
 5988SOL    HW118524   3.175   3.723   9.857
 5988SOL    HW218525   3.065   3.709   9.959
 5989SOL     OW18526   2.888   2.407   9.329
 5989SOL    HW118527   2.846   2.491   9.309
 5989SOL    HW218528   2.952   2.428   9.397
 5990SOL     OW18529   1.936   2.423  10.696
 5990SOL    HW118530   2.028   2.418  10.673
 5990SOL    HW218531   1.931   2.488  10.766
 5991SOL     OW18532   2.416   2.083  10.474
 5991SOL    HW118533   2.461   2.005  10.504
 5991SOL    HW218534   2.332   2.082  10.520
 5992SOL     OW18535   2.728   2.320   9.950
 5992SOL    HW118536   2.686   2.376   9.885
 5992SOL    HW218537   2.751   2.240   9.903
 5993SOL     OW18538   2.874   1.916  10.064
 5993SOL    HW118539   2.819   1.905   9.987
 5993SOL    HW218540   2.856   1.839  10.118
 5994SOL     OW18541   3.298   3.026  10.168
 5994SOL    HW118542   3.231   2.958  10.166
 5994SOL    HW218543   3.321   3.039  10.076
 5995SOL     OW18544   3.329   2.465  10.291
 5995SOL    HW118545   3.283   2.381  10.295
 5995SOL    HW218546   3.390   2.462  10.364
 5996SOL     OW18547   3.721   2.682   9.686
 5996SOL    HW118548   3.766   2.625   9.749
 5996SOL    HW218549   3.684   2.621   9.621
 5997SOL     OW18550   2.355   3.275   9.470
 5997SOL    HW118551   2.280   3.246   9.522
 5997SOL    HW218552   2.333   3.249   9.381
 5998SOL     OW18553   3.527   3.128   9.960
 5998SOL    HW118554   3.622   3.133   9.967
 5998SOL    HW218555   3.496   3.216   9.980
 5999SOL     OW18556   3.256   2.433   9.381
 5999SOL    HW118557   3.195   2.415   9.453
 5999SOL    HW218558   3.340   2.400   9.412
 6000SOL     OW18559   2.387   2.126   9.632
 6000SOL    HW118560   2.425   2.072   9.563
 6000SOL    HW218561   2.369   2.210   9.590
 6001SOL     OW18562   3.614   3.096  10.885
 6001SOL    HW118563   3.701   3.060  10.868
 6001SOL    HW218564   3.631   3.185  10.917
 6002SOL     OW18565   2.923   3.215  10.644
 6002SOL    HW118566   2.848   3.184  10.696
 6002SOL    HW218567   2.999   3.174  10.686
 6003SOL     OW18568   3.467   3.489  10.962
 6003SOL    HW118569   3.462   3.522  10.872
 6003SOL    HW218570   3.550   3.441  10.966
 6004SOL     OW18571   2.987   3.063  10.417
 6004SOL    HW118572   2.930   3.102  10.483
 6004SOL    HW218573   2.953   3.095  10.333
 6005SOL     OW18574   3.495   2.962  10.387
 6005SOL    HW118575   3.489   3.023  10.461
 6005SOL    HW218576   3.414   2.976  10.338
 6006SOL     OW18577   2.779   1.961  10.708
 6006SOL    HW118578   2.803   1.941  10.618
 6006SOL    HW218579   2.858   2.000  10.746
 6007SOL     OW18580   2.846   2.976  11.032
 6007SOL    HW118581   2.753   2.991  11.051
 6007SOL    HW218582   2.846   2.899  10.976
 6008SOL     OW18583   2.570   2.922   9.682
 6008SOL    HW118584   2.557   2.908   9.776
 6008SOL    HW218585   2.646   2.869   9.660
 6009SOL     OW18586   2.278   2.674  10.561
 6009SOL    HW118587   2.347   2.686  10.626
 6009SOL    HW218588   2.243   2.587  10.579
 6010SOL     OW18589   3.129   2.240  10.583
 6010SOL    HW118590   3.162   2.318  10.629
 6010SOL    HW218591   3.040   2.263  10.557
 6011SOL     OW18592   1.930   3.434  10.658
 6011SOL    HW118593   1.899   3.509  10.608
 6011SOL    HW218594   2.025   3.442  10.656
 6012SOL     OW18595   2.215   2.968   9.802
 6012SOL    HW118596   2.219   3.042   9.741
 6012SOL    HW218597   2.214   2.891   9.746
 6013SOL     OW18598   2.413   2.400  10.172
 6013SOL    HW118599   2.430   2.458  10.097
 6013SOL    HW218600   2.478   2.428  10.238
 6014SOL     OW18601   3.110   3.210   9.699
 6014SOL    HW118602   3.165   3.281   9.730
 6014SOL    HW218603   3.023   3.230   9.733
 6015SOL     OW18604   3.139   3.318  10.456
 6015SOL    HW118605   3.194   3.321  10.534
 6015SOL    HW218606   3.084   3.241  10.468
 6016SOL     OW18607   3.444   2.487   9.787
 6016SOL    HW118608   3.400   2.544   9.850
 6016SOL    HW218609   3.488   2.547   9.727
 6017SOL     OW18610   2.210   3.386  10.628
 6017SOL    HW118611   2.197   3.344  10.542
 6017SOL    HW218612   2.304   3.399  10.634
 6018SOL     OW18613   2.275   2.609  10.911
 6018SOL    HW118614   2.337   2.653  10.853
 6018SOL    HW218615   2.315   2.525  10.931
 6019SOL     OW18616   3.460   2.638  10.988
 6019SOL    HW118617   3.374   2.680  10.981
 6019SOL    HW218618   3.512   2.682  10.920
 6020SOL     OW18619   2.858   1.979  11.065
 6020SOL    HW118620   2.910   2.053  11.034
 6020SOL    HW218621   2.908   1.902  11.040
 6021SOL     OW18622   2.372   1.907  11.059
 6021SOL    HW118623   2.320   1.854  10.998
 6021SOL    HW218624   2.323   1.988  11.068
 6022SOL     OW18625   2.444   2.734  10.341
 6022SOL    HW118626   2.475   2.824  10.337
 6022SOL    HW218627   2.388   2.731  10.419
 6023SOL     OW18628   3.223   2.721  10.343
 6023SOL    HW118629   3.142   2.714  10.293
 6023SOL    HW218630   3.260   2.633  10.341
 6024SOL     OW18631   3.069   2.391   9.579
 6024SOL    HW118632   3.077   2.312   9.633
 6024SOL    HW218633   3.027   2.455   9.636
 6025SOL     OW18634   1.907   3.172  10.587
 6025SOL    HW118635   1.942   3.119  10.659
 6025SOL    HW218636   1.916   3.262  10.617
 6026SOL     OW18637   2.586   2.492  10.368
 6026SOL    HW118638   2.661   2.475  10.311
 6026SOL    HW218639   2.560   2.582  10.348
 6027SOL     OW18640   3.595   2.820  11.165
 6027SOL    HW118641   3.549   2.767  11.100
 6027SOL    HW218642   3.531   2.831  11.236
 6028SOL     OW18643   3.476   2.234   9.679
 6028SOL    HW118644   3.504   2.171   9.745
 6028SOL    HW218645   3.453   2.312   9.729
 6029SOL     OW18646   2.888   2.622  10.272
 6029SOL    HW118647   2.889   2.639  10.366
 6029SOL    HW218648   2.863   2.530  10.265
 6030SOL     OW18649   2.846   3.429  11.025
 6030SOL    HW118650   2.829   3.472  10.941
 6030SOL    HW218651   2.888   3.346  11.002
 6031SOL     OW18652   3.709   3.370  10.912
 6031SOL    HW118653   3.730   3.396  10.822
 6031SOL    HW218654   3.790   3.386  10.960
 6032SOL     OW18655   2.215   2.777  11.119
 6032SOL    HW118656   2.298   2.796  11.162
 6032SOL    HW218657   2.237   2.717  11.049
 6033SOL     OW18658   3.393   2.136   9.437
 6033SOL    HW118659   3.329   2.070   9.463
 6033SOL    HW218660   3.425   2.172   9.520
 6034SOL     OW18661   3.156   2.689   9.343
 6034SOL    HW118662   3.199   2.603   9.346
 6034SOL    HW218663   3.187   2.728   9.261
 6035SOL     OW18664   2.926   3.197  10.162
 6035SOL    HW118665   2.930   3.124  10.101
 6035SOL    HW218666   2.990   3.260  10.128
 6036SOL     OW18667   2.173   2.673  10.257
 6036SOL    HW118668   2.266   2.696  10.250
 6036SOL    HW218669   2.172   2.587  10.299
 6037SOL     OW18670   2.191   2.363  10.320
 6037SOL    HW118671   2.151   2.289  10.275
 6037SOL    HW218672   2.270   2.382  10.270
 6038SOL     OW18673   2.997   2.241  10.989
 6038SOL    HW118674   2.951   2.295  11.053
 6038SOL    HW218675   3.085   2.277  10.985
 6039SOL     OW18676   3.022   2.067  10.779
 6039SOL    HW118677   3.013   2.129  10.852
 6039SOL    HW218678   3.060   2.118  10.708
 6040SOL     OW18679   1.867   3.185   9.506
 6040SOL    HW118680   1.780   3.198   9.468
 6040SOL    HW218681   1.865   3.095   9.538
 6041SOL     OW18682   1.956   3.649  10.246
 6041SOL    HW118683   1.925   3.569  10.203
 6041SOL    HW218684   2.042   3.664  10.209
 6042SOL     OW18685   2.361   3.435  10.216
 6042SOL    HW118686   2.429   3.498  10.240
 6042SOL    HW218687   2.406   3.370  10.162
 6043SOL     OW18688   2.850   2.656  10.538
 6043SOL    HW118689   2.903   2.631  10.613
 6043SOL    HW218690   2.763   2.621  10.559
 6044SOL     OW18691   1.900   2.396  10.427
 6044SOL    HW118692   1.985   2.396  10.383
 6044SOL    HW218693   1.920   2.411  10.519
 6045SOL     OW18694   2.066   2.381  11.040
 6045SOL    HW118695   2.113   2.347  10.963
 6045SOL    HW218696   1.999   2.439  11.003
 6046SOL     OW18697   3.238   2.803  10.970
 6046SOL    HW118698   3.259   2.897  10.969
 6046SOL    HW218699   3.236   2.779  10.877
 6047SOL     OW18700   2.677   2.431   9.667
 6047SOL    HW118701   2.682   2.356   9.608
 6047SOL    HW218702   2.603   2.482   9.635
 6048SOL     OW18703   3.505   2.464  10.499
 6048SOL    HW118704   3.492   2.403  10.572
 6048SOL    HW218705   3.590   2.441  10.463
 6049SOL     OW18706   2.110   3.414  11.040
 6049SOL    HW118707   2.085   3.478  11.107
 6049SOL    HW218708   2.107   3.330  11.086
 6050SOL     OW18709   2.553   2.315  10.573
 6050SOL    HW118710   2.506   2.239  10.539
 6050SOL    HW218711   2.555   2.378  10.500
 6051SOL     OW18712   2.794   3.537  10.776
 6051SOL    HW118713   2.766   3.505  10.690
 6051SOL    HW218714   2.789   3.632  10.769
 6052SOL     OW18715   2.329   2.357   9.498
 6052SOL    HW118716   2.386   2.431   9.519
 6052SOL    HW218717   2.242   2.395   9.488
 6053SOL     OW18718   2.010   3.002  10.781
 6053SOL    HW118719   2.015   2.948  10.860
 6053SOL    HW218720   2.027   2.941  10.709
 6054SOL     OW18721   3.190   2.911  10.535
 6054SOL    HW118722   3.215   2.848  10.467
 6054SOL    HW218723   3.118   2.960  10.497
 6055SOL     OW18724   3.171   2.718   9.617
 6055SOL    HW118725   3.093   2.688   9.666
 6055SOL    HW218726   3.148   2.705   9.525
 6056SOL     OW18727   3.632   3.609  10.459
 6056SOL    HW118728   3.691   3.634  10.388
 6056SOL    HW218729   3.607   3.519  10.440
 6057SOL     OW18730   3.105   3.596  10.426
 6057SOL    HW118731   3.187   3.613  10.380
 6057SOL    HW218732   3.107   3.502  10.445
 6058SOL     OW18733   1.945   3.128  10.323
 6058SOL    HW118734   1.932   3.139  10.418
 6058SOL    HW218735   1.871   3.074  10.295
 6059SOL     OW18736   2.540   3.524  11.034
 6059SOL    HW118737   2.488   3.604  11.038
 6059SOL    HW218738   2.600   3.538  10.960
 6060SOL     OW18739   3.578   2.005   9.825
 6060SOL    HW118740   3.647   1.992   9.760
 6060SOL    HW218741   3.565   1.918   9.864
 6061SOL     OW18742   3.251   3.430   9.793
 6061SOL    HW118743   3.312   3.461   9.726
 6061SOL    HW218744   3.205   3.509   9.822
 6062SOL     OW18745   1.993   3.656  11.151
 6062SOL    HW118746   1.942   3.592  11.199
 6062SOL    HW218747   2.044   3.702  11.218
 6063SOL     OW18748   3.139   2.786   9.981
 6063SOL    HW118749   3.212   2.725   9.986
 6063SOL    HW218750   3.172   2.859   9.929
 6064SOL     OW18751   2.680   3.134  10.741
 6064SOL    HW118752   2.654   3.173  10.825
 6064SOL    HW218753   2.609   3.156  10.681
 6065SOL     OW18754   2.537   3.475   9.466
 6065SOL    HW118755   2.543   3.490   9.372
 6065SOL    HW218756   2.481   3.398   9.475
 6066SOL     OW18757   3.491   3.588  10.701
 6066SOL    HW118758   3.542   3.594  10.620
 6066SOL    HW218759   3.479   3.678  10.729
 6067SOL     OW18760   3.699   2.041  10.279
 6067SOL    HW118761   3.730   1.955  10.251
 6067SOL    HW218762   3.613   2.051  10.238
 6068SOL     OW18763   3.067   3.470   9.344
 6068SOL    HW118764   3.059   3.378   9.369
 6068SOL    HW218765   3.006   3.481   9.271
 6069SOL     OW18766   2.686   2.868  10.681
 6069SOL    HW118767   2.730   2.865  10.596
 6069SOL    HW218768   2.687   2.960  10.706
 6070SOL     OW18769   2.778   2.772   9.599
 6070SOL    HW118770   2.839   2.804   9.533
 6070SOL    HW218771   2.824   2.701   9.644
 6071SOL     OW18772   3.355   3.489   9.351
 6071SOL    HW118773   3.261   3.481   9.337
 6071SOL    HW218774   3.392   3.494   9.263
 6072SOL     OW18775   2.232   3.163  10.801
 6072SOL    HW118776   2.218   3.241  10.748
 6072SOL    HW218777   2.154   3.109  10.785
 6073SOL     OW18778   3.468   3.143  10.590
 6073SOL    HW118779   3.534   3.139  10.659
 6073SOL    HW218780   3.410   3.215  10.616
 6074SOL     OW18781   2.910   2.967  10.015
 6074SOL    HW118782   2.840   2.916  10.055
 6074SOL    HW218783   2.971   2.902   9.981
 6075SOL     OW18784   2.880   2.102  10.276
 6075SOL    HW118785   2.876   2.053  10.193
 6075SOL    HW218786   2.877   2.034  10.343
 6076SOL     OW18787   2.463   3.352   9.792
 6076SOL    HW118788   2.504   3.300   9.722
 6076SOL    HW218789   2.399   3.407   9.747
 6077SOL     OW18790   3.582   2.253  10.689
 6077SOL    HW118791   3.653   2.317  10.685
 6077SOL    HW218792   3.611   2.181  10.634
 6078SOL     OW18793   2.120   3.209   9.597
 6078SOL    HW118794   2.027   3.207   9.575
 6078SOL    HW218795   2.123   3.246   9.685
 6079SOL     OW18796   1.974   2.880  11.029
 6079SOL    HW118797   1.897   2.858  11.082
 6079SOL    HW218798   2.048   2.844  11.077
 6080SOL     OW18799   2.535   2.060  10.808
 6080SOL    HW118800   2.619   2.040  10.767
 6080SOL    HW218801   2.557   2.087  10.897
 6081SOL     OW18802   3.293   2.721  10.712
 6081SOL    HW118803   3.244   2.781  10.655
 6081SOL    HW218804   3.382   2.723  10.677
 6082SOL     OW18805   3.042   3.204   9.427
 6082SOL    HW118806   2.951   3.174   9.430
 6082SOL    HW218807   3.070   3.202   9.518
 6083SOL     OW18808   2.480   2.693  10.741
 6083SOL    HW118809   2.535   2.770  10.728
 6083SOL    HW218810   2.542   2.621  10.751
 6084SOL     OW18811   3.347   3.640  10.287
 6084SOL    HW118812   3.375   3.690  10.210
 6084SOL    HW218813   3.429   3.617  10.332
 6085SOL     OW18814   2.579   2.425  11.015
 6085SOL    HW118815   2.615   2.490  11.076
 6085SOL    HW218816   2.613   2.341  11.045
 6086SOL     OW18817   3.330   3.065  10.943
 6086SOL    HW118818   3.319   3.078  11.037
 6086SOL    HW218819   3.424   3.077  10.928
 6087SOL     OW18820   2.243   3.601  10.871
 6087SOL    HW118821   2.156   3.639  10.859
 6087SOL    HW218822   2.226   3.517  10.913
 6088SOL     OW18823   3.531   2.744  10.568
 6088SOL    HW118824   3.526   2.658  10.525
 6088SOL    HW218825   3.526   2.807  10.496
 6089SOL     OW18826   3.080   2.182   9.767
 6089SOL    HW118827   3.144   2.111   9.758
 6089SOL    HW218828   3.109   2.230   9.845
 6090SOL     OW18829   2.452   2.601   9.978
 6090SOL    HW118830   2.493   2.686   9.962
 6090SOL    HW218831   2.383   2.595   9.912
 6091SOL     OW18832   3.627   2.223  10.958
 6091SOL    HW118833   3.608   2.235  10.865
 6091SOL    HW218834   3.557   2.166  10.989
 6092SOL     OW18835   3.611   2.794  10.824
 6092SOL    HW118836   3.610   2.889  10.838
 6092SOL    HW218837   3.592   2.783  10.731
 6093SOL     OW18838   2.725   3.231   9.341
 6093SOL    HW118839   2.684   3.257   9.423
 6093SOL    HW218840   2.743   3.313   9.295
 6094SOL     OW18841   2.520   3.656  10.257
 6094SOL    HW118842   2.498   3.745  10.233
 6094SOL    HW218843   2.616   3.652  10.249
 6095SOL     OW18844   2.727   2.827  10.166
 6095SOL    HW118845   2.779   2.757  10.207
 6095SOL    HW218846   2.696   2.879  10.240
 6096SOL     OW18847   2.942   2.850   9.398
 6096SOL    HW118848   2.920   2.900   9.320
 6096SOL    HW218849   3.017   2.797   9.373
 6097SOL     OW18850   3.719   3.419  10.152
 6097SOL    HW118851   3.640   3.402  10.100
 6097SOL    HW218852   3.716   3.352  10.221
 6098SOL     OW18853   2.086   3.166  11.166
 6098SOL    HW118854   2.018   3.105  11.138
 6098SOL    HW218855   2.070   3.179  11.259
 6099SOL     OW18856   1.945   3.098   9.973
 6099SOL    HW118857   1.948   3.048  10.055
 6099SOL    HW218858   2.014   3.059   9.920
 6100SOL     OW18859   2.542   3.262  10.936
 6100SOL    HW118860   2.462   3.219  10.966
 6100SOL    HW218861   2.537   3.350  10.973
 6101SOL     OW18862   3.678   2.045  10.550
 6101SOL    HW118863   3.673   1.950  10.558
 6101SOL    HW218864   3.689   2.060  10.456
 6102SOL     OW18865   2.292   2.294   9.835
 6102SOL    HW118866   2.321   2.230   9.769
 6102SOL    HW218867   2.248   2.242   9.901
 6103SOL     OW18868   3.562   3.354  10.411
 6103SOL    HW118869   3.482   3.326  10.368
 6103SOL    HW218870   3.580   3.286  10.476
 6104SOL     OW18871   2.190   2.415  10.598
 6104SOL    HW118872   2.237   2.357  10.657
 6104SOL    HW218873   2.211   2.383  10.511
 6105SOL     OW18874   2.687   3.440   9.989
 6105SOL    HW118875   2.681   3.482   9.903
 6105SOL    HW218876   2.609   3.385   9.994
 6106SOL     OW18877   3.294   2.086  10.428
 6106SOL    HW118878   3.322   2.007  10.475
 6106SOL    HW218879   3.242   2.135  10.492
 6107SOL     OW18880   2.870   1.882  10.455
 6107SOL    HW118881   2.816   1.813  10.417
 6107SOL    HW218882   2.958   1.845  10.457
 6108SOL     OW18883   2.633   3.194   9.621
 6108SOL    HW118884   2.599   3.105   9.627
 6108SOL    HW218885   2.716   3.191   9.669
 6109SOL     OW18886   2.482   3.420  10.594
 6109SOL    HW118887   2.484   3.500  10.645
 6109SOL    HW218888   2.569   3.412  10.555
 6110SOL     OW18889   3.214   1.916   9.473
 6110SOL    HW118890   3.240   1.855   9.404
 6110SOL    HW218891   3.128   1.885   9.501
 6111SOL     OW18892   3.159   2.322   9.993
 6111SOL    HW118893   3.105   2.401  10.002
 6111SOL    HW218894   3.157   2.282  10.080
 6112SOL     OW18895   3.447   2.067  10.186
 6112SOL    HW118896   3.384   2.086  10.255
 6112SOL    HW218897   3.448   2.146  10.132
 6113SOL     OW18898   1.905   2.935   9.615
 6113SOL    HW118899   1.999   2.926   9.598
 6113SOL    HW218900   1.876   2.847   9.638
 6114SOL     OW18901   2.743   3.514   9.656
 6114SOL    HW118902   2.674   3.494   9.593
 6114SOL    HW218903   2.712   3.591   9.703
 6115SOL     OW18904   2.090   2.480  11.295
 6115SOL    HW118905   2.000   2.487  11.324
 6115SOL    HW218906   2.084   2.452  11.204
 6116SOL     OW18907   1.856   2.278  11.798
 6116SOL    HW118908   1.773   2.281  11.846
 6116SOL    HW218909   1.853   2.196  11.750
 6117SOL     OW18910   2.429   3.145  12.344
 6117SOL    HW118911   2.341   3.148  12.306
 6117SOL    HW218912   2.443   3.233  12.378
 6118SOL     OW18913   3.419   3.374  11.878
 6118SOL    HW118914   3.375   3.354  11.961
 6118SOL    HW218915   3.348   3.378  11.814
 6119SOL     OW18916   2.990   2.561  11.876
 6119SOL    HW118917   3.042   2.640  11.861
 6119SOL    HW218918   2.945   2.577  11.958
 6120SOL     OW18919   3.626   2.470  11.403
 6120SOL    HW118920   3.608   2.461  11.310
 6120SOL    HW218921   3.591   2.390  11.443
 6121SOL     OW18922   2.621   3.006  12.209
 6121SOL    HW118923   2.551   3.039  12.266
 6121SOL    HW218924   2.655   3.084  12.165
 6122SOL     OW18925   2.723   2.643  12.993
 6122SOL    HW118926   2.712   2.715  13.055
 6122SOL    HW218927   2.748   2.686  12.911
 6123SOL     OW18928   2.548   2.868  11.821
 6123SOL    HW118929   2.612   2.854  11.891
 6123SOL    HW218930   2.478   2.918  11.862
 6124SOL     OW18931   2.570   3.014  12.981
 6124SOL    HW118932   2.617   3.093  13.006
 6124SOL    HW218933   2.486   3.046  12.948
 6125SOL     OW18934   2.193   3.290  12.240
 6125SOL    HW118935   2.121   3.255  12.188
 6125SOL    HW218936   2.244   3.342  12.177
 6126SOL     OW18937   3.323   3.361  12.522
 6126SOL    HW118938   3.369   3.444  12.533
 6126SOL    HW218939   3.269   3.352  12.600
 6127SOL     OW18940   2.291   2.244  12.649
 6127SOL    HW118941   2.380   2.212  12.665
 6127SOL    HW218942   2.235   2.173  12.680
 6128SOL     OW18943   3.475   2.311  11.912
 6128SOL    HW118944   3.400   2.338  11.859
 6128SOL    HW218945   3.496   2.389  11.964
 6129SOL     OW18946   2.083   3.579  11.651
 6129SOL    HW118947   2.119   3.640  11.715
 6129SOL    HW218948   2.150   3.572  11.583
 6130SOL     OW18949   2.997   3.203  12.863
 6130SOL    HW118950   3.038   3.199  12.950
 6130SOL    HW218951   2.945   3.123  12.858
 6131SOL     OW18952   2.090   3.303  11.706
 6131SOL    HW118953   2.073   3.397  11.714
 6131SOL    HW218954   2.030   3.262  11.768
 6132SOL     OW18955   2.115   2.952  12.062
 6132SOL    HW118956   2.113   2.867  12.105
 6132SOL    HW218957   2.058   3.008  12.115
 6133SOL     OW18958   2.477   3.649  12.603
 6133SOL    HW118959   2.394   3.634  12.648
 6133SOL    HW218960   2.502   3.739  12.628
 6134SOL     OW18961   2.452   2.841  11.304
 6134SOL    HW118962   2.494   2.894  11.236
 6134SOL    HW218963   2.492   2.871  11.385
 6135SOL     OW18964   3.459   1.983  12.641
 6135SOL    HW118965   3.455   2.063  12.589
 6135SOL    HW218966   3.448   2.013  12.731
 6136SOL     OW18967   1.980   2.515  11.732
 6136SOL    HW118968   1.944   2.429  11.750
 6136SOL    HW218969   1.969   2.564  11.814
 6137SOL     OW18970   3.699   3.619  11.513
 6137SOL    HW118971   3.764   3.592  11.578
 6137SOL    HW218972   3.724   3.708  11.488
 6138SOL     OW18973   1.888   3.458  11.295
 6138SOL    HW118974   1.874   3.365  11.317
 6138SOL    HW218975   1.868   3.504  11.376
 6139SOL     OW18976   3.550   2.781  11.810
 6139SOL    HW118977   3.635   2.741  11.795
 6139SOL    HW218978   3.532   2.831  11.730
 6140SOL     OW18979   3.504   2.970  11.603
 6140SOL    HW118980   3.588   2.978  11.558
 6140SOL    HW218981   3.510   3.031  11.677
 6141SOL     OW18982   1.981   2.603  12.757
 6141SOL    HW118983   2.073   2.620  12.777
 6141SOL    HW218984   1.938   2.688  12.766
 6142SOL     OW18985   2.475   3.244  11.907
 6142SOL    HW118986   2.428   3.161  11.916
 6142SOL    HW218987   2.458   3.272  11.816
 6143SOL     OW18988   3.152   3.101  12.597
 6143SOL    HW118989   3.185   3.034  12.537
 6143SOL    HW218990   3.208   3.093  12.674
 6144SOL     OW18991   2.671   1.862  11.678
 6144SOL    HW118992   2.712   1.947  11.662
 6144SOL    HW218993   2.578   1.881  11.688
 6145SOL     OW18994   2.054   2.832  12.439
 6145SOL    HW118995   2.138   2.787  12.425
 6145SOL    HW218996   1.989   2.772  12.403
 6146SOL     OW18997   3.392   2.854  11.368
 6146SOL    HW118998   3.323   2.796  11.399
 6146SOL    HW218999   3.432   2.888  11.449
 6147SOL     OW19000   3.068   3.663  12.796
 6147SOL    HW119001   3.058   3.721  12.721
 6147SOL    HW219002   3.071   3.575  12.757
 6148SOL     OW19003   2.253   2.160  12.970
 6148SOL    HW119004   2.294   2.233  13.016
 6148SOL    HW219005   2.159   2.173  12.984
 6149SOL     OW19006   3.326   3.282  12.124
 6149SOL    HW119007   3.259   3.296  12.191
 6149SOL    HW219008   3.316   3.191  12.097
 6150SOL     OW19009   3.517   3.598  11.751
 6150SOL    HW119010   3.502   3.566  11.662
 6150SOL    HW219011   3.496   3.523  11.806
 6151SOL     OW19012   2.457   2.585  11.436
 6151SOL    HW119013   2.466   2.665  11.384
 6151SOL    HW219014   2.392   2.608  11.503
 6152SOL     OW19015   3.141   2.210  12.104
 6152SOL    HW119016   3.052   2.176  12.112
 6152SOL    HW219017   3.192   2.159  12.167
 6153SOL     OW19018   3.440   3.534  11.480
 6153SOL    HW119019   3.531   3.565  11.476
 6153SOL    HW219020   3.418   3.513  11.389
 6154SOL     OW19021   2.656   2.479  12.624
 6154SOL    HW119022   2.630   2.457  12.714
 6154SOL    HW219023   2.613   2.413  12.570
 6155SOL     OW19024   3.256   2.336  12.850
 6155SOL    HW119025   3.256   2.380  12.935
 6155SOL    HW219026   3.318   2.264  12.860
 6156SOL     OW19027   2.820   2.750  12.753
 6156SOL    HW119028   2.874   2.679  12.719
 6156SOL    HW219029   2.773   2.784  12.676
 6157SOL     OW19030   2.855   2.275  12.411
 6157SOL    HW119031   2.772   2.298  12.453
 6157SOL    HW219032   2.830   2.227  12.333
 6158SOL     OW19033   2.911   2.561  11.599
 6158SOL    HW119034   2.926   2.554  11.693
 6158SOL    HW219035   2.830   2.514  11.584
 6159SOL     OW19036   1.950   2.682  11.949
 6159SOL    HW119037   2.033   2.677  11.996
 6159SOL    HW219038   1.908   2.761  11.983
 6160SOL     OW19039   1.989   3.694  12.747
 6160SOL    HW119040   1.985   3.679  12.841
 6160SOL    HW219041   1.898   3.712  12.722
 6161SOL     OW19042   2.751   2.210  11.369
 6161SOL    HW119043   2.794   2.268  11.307
 6161SOL    HW219044   2.759   2.123  11.330
 6162SOL     OW19045   3.576   2.441  13.000
 6162SOL    HW119046   3.537   2.516  12.956
 6162SOL    HW219047   3.593   2.378  12.930
 6163SOL     OW19048   3.236   3.004  11.714
 6163SOL    HW119049   3.315   2.990  11.662
 6163SOL    HW219050   3.185   3.066  11.663
 6164SOL     OW19051   2.407   2.054  12.061
 6164SOL    HW119052   2.409   2.071  12.156
 6164SOL    HW219053   2.427   2.139  12.021
 6165SOL     OW19054   2.871   3.309  11.646
 6165SOL    HW119055   2.828   3.380  11.597
 6165SOL    HW219056   2.856   3.330  11.738
 6166SOL     OW19057   2.213   3.668  12.014
 6166SOL    HW119058   2.263   3.589  12.032
 6166SOL    HW219059   2.274   3.740  12.032
 6167SOL     OW19060   3.664   2.924  12.038
 6167SOL    HW119061   3.607   2.905  11.963
 6167SOL    HW219062   3.605   2.928  12.113
 6168SOL     OW19063   3.089   3.400  12.683
 6168SOL    HW119064   3.076   3.328  12.744
 6168SOL    HW219065   3.028   3.385  12.612
 6169SOL     OW19066   2.184   2.817  11.421
 6169SOL    HW119067   2.266   2.837  11.374
 6169SOL    HW219068   2.153   2.737  11.380
 6170SOL     OW19069   3.337   2.601  11.900
 6170SOL    HW119070   3.327   2.555  11.984
 6170SOL    HW219071   3.414   2.656  11.912
 6171SOL     OW19072   2.326   3.125  12.909
 6171SOL    HW119073   2.298   3.130  12.818
 6171SOL    HW219074   2.245   3.124  12.959
 6172SOL     OW19075   2.975   3.642  11.397
 6172SOL    HW119076   2.914   3.593  11.453
 6172SOL    HW219077   3.003   3.578  11.331
 6173SOL     OW19078   3.489   3.243  11.261
 6173SOL    HW119079   3.448   3.327  11.242
 6173SOL    HW219080   3.422   3.178  11.241
 6174SOL     OW19081   2.331   3.595  11.496
 6174SOL    HW119082   2.366   3.661  11.557
 6174SOL    HW219083   2.405   3.575  11.439
 6175SOL     OW19084   3.263   1.970  11.602
 6175SOL    HW119085   3.252   1.945  11.511
 6175SOL    HW219086   3.358   1.976  11.614
 6176SOL     OW19087   2.118   3.655  12.402
 6176SOL    HW119088   2.168   3.589  12.450
 6176SOL    HW219089   2.106   3.617  12.315
 6177SOL     OW19090   2.800   3.560  12.074
 6177SOL    HW119091   2.877   3.506  12.093
 6177SOL    HW219092   2.754   3.512  12.006
 6178SOL     OW19093   2.252   2.558  11.650
 6178SOL    HW119094   2.275   2.465  11.658
 6178SOL    HW219095   2.158   2.561  11.669
 6179SOL     OW19096   3.400   2.088  12.898
 6179SOL    HW119097   3.408   2.109  12.991
 6179SOL    HW219098   3.332   2.021  12.894
 6180SOL     OW19099   2.502   1.988  11.283
 6180SOL    HW119100   2.571   1.923  11.291
 6180SOL    HW219101   2.447   1.957  11.211
 6181SOL     OW19102   2.630   2.139  12.925
 6181SOL    HW119103   2.702   2.077  12.931
 6181SOL    HW219104   2.576   2.121  13.002
 6182SOL     OW19105   2.739   3.382  12.366
 6182SOL    HW119106   2.724   3.347  12.278
 6182SOL    HW219107   2.808   3.327  12.402
 6183SOL     OW19108   3.204   2.451  12.604
 6183SOL    HW119109   3.234   2.419  12.689
 6183SOL    HW219110   3.239   2.539  12.597
 6184SOL     OW19111   2.675   3.260  12.108
 6184SOL    HW119112   2.759   3.250  12.063
 6184SOL    HW219113   2.610   3.257  12.038
 6185SOL     OW19114   2.788   2.370  12.076
 6185SOL    HW119115   2.766   2.362  11.983
 6185SOL    HW219116   2.823   2.284  12.100
 6186SOL     OW19117   2.404   1.926  11.680
 6186SOL    HW119118   2.338   1.939  11.748
 6186SOL    HW219119   2.395   2.003  11.623
 6187SOL     OW19120   3.291   3.060  11.213
 6187SOL    HW119121   3.322   2.984  11.263
 6187SOL    HW219122   3.204   3.079  11.251
 6188SOL     OW19123   2.797   2.107  11.636
 6188SOL    HW119124   2.770   2.148  11.554
 6188SOL    HW219125   2.893   2.117  11.637
 6189SOL     OW19126   2.942   2.541  12.632
 6189SOL    HW119127   2.872   2.476  12.638
 6189SOL    HW219128   3.022   2.490  12.625
 6190SOL     OW19129   3.086   3.431  11.965
 6190SOL    HW119130   3.105   3.500  11.901
 6190SOL    HW219131   3.154   3.441  12.032
 6191SOL     OW19132   2.329   3.010  11.909
 6191SOL    HW119133   2.258   2.992  11.970
 6191SOL    HW219134   2.291   2.992  11.823
 6192SOL     OW19135   3.133   3.659  11.776
 6192SOL    HW119136   3.175   3.724  11.719
 6192SOL    HW219137   3.065   3.709  11.821
 6193SOL     OW19138   2.888   2.407  11.191
 6193SOL    HW119139   2.846   2.491  11.171
 6193SOL    HW219140   2.952   2.428  11.259
 6194SOL     OW19141   1.935   2.423  12.558
 6194SOL    HW119142   2.028   2.418  12.535
 6194SOL    HW219143   1.931   2.488  12.628
 6195SOL     OW19144   2.415   2.083  12.336
 6195SOL    HW119145   2.460   2.005  12.367
 6195SOL    HW219146   2.332   2.083  12.383
 6196SOL     OW19147   2.728   2.320  11.812
 6196SOL    HW119148   2.686   2.376  11.747
 6196SOL    HW219149   2.751   2.240  11.765
 6197SOL     OW19150   2.874   1.916  11.926
 6197SOL    HW119151   2.819   1.905  11.849
 6197SOL    HW219152   2.856   1.839  11.980
 6198SOL     OW19153   3.298   3.026  12.030
 6198SOL    HW119154   3.231   2.958  12.028
 6198SOL    HW219155   3.321   3.039  11.938
 6199SOL     OW19156   3.329   2.465  12.153
 6199SOL    HW119157   3.283   2.381  12.157
 6199SOL    HW219158   3.390   2.462  12.226
 6200SOL     OW19159   3.721   2.682  11.548
 6200SOL    HW119160   3.766   2.625  11.611
 6200SOL    HW219161   3.684   2.621  11.483
 6201SOL     OW19162   2.355   3.275  11.332
 6201SOL    HW119163   2.280   3.246  11.384
 6201SOL    HW219164   2.333   3.249  11.243
 6202SOL     OW19165   3.527   3.128  11.821
 6202SOL    HW119166   3.622   3.133  11.829
 6202SOL    HW219167   3.496   3.216  11.842
 6203SOL     OW19168   3.256   2.433  11.243
 6203SOL    HW119169   3.195   2.415  11.315
 6203SOL    HW219170   3.340   2.400  11.274
 6204SOL     OW19171   2.387   2.126  11.494
 6204SOL    HW119172   2.425   2.072  11.425
 6204SOL    HW219173   2.370   2.210  11.452
 6205SOL     OW19174   3.614   3.096  12.747
 6205SOL    HW119175   3.701   3.060  12.730
 6205SOL    HW219176   3.631   3.185  12.780
 6206SOL     OW19177   2.923   3.215  12.506
 6206SOL    HW119178   2.848   3.184  12.558
 6206SOL    HW219179   2.999   3.174  12.548
 6207SOL     OW19180   3.467   3.489  12.824
 6207SOL    HW119181   3.462   3.522  12.734
 6207SOL    HW219182   3.550   3.441  12.828
 6208SOL     OW19183   2.987   3.063  12.279
 6208SOL    HW119184   2.930   3.102  12.345
 6208SOL    HW219185   2.952   3.095  12.195
 6209SOL     OW19186   3.495   2.962  12.249
 6209SOL    HW119187   3.489   3.023  12.323
 6209SOL    HW219188   3.414   2.976  12.200
 6210SOL     OW19189   2.779   1.961  12.570
 6210SOL    HW119190   2.803   1.941  12.480
 6210SOL    HW219191   2.858   2.000  12.608
 6211SOL     OW19192   2.846   2.976  12.894
 6211SOL    HW119193   2.753   2.991  12.913
 6211SOL    HW219194   2.846   2.899  12.838
 6212SOL     OW19195   2.570   2.922  11.544
 6212SOL    HW119196   2.557   2.908  11.638
 6212SOL    HW219197   2.646   2.869  11.522
 6213SOL     OW19198   2.278   2.674  12.423
 6213SOL    HW119199   2.347   2.686  12.488
 6213SOL    HW219200   2.243   2.587  12.441
 6214SOL     OW19201   3.129   2.240  12.445
 6214SOL    HW119202   3.162   2.318  12.491
 6214SOL    HW219203   3.040   2.263  12.419
 6215SOL     OW19204   1.930   3.434  12.520
 6215SOL    HW119205   1.899   3.509  12.470
 6215SOL    HW219206   2.026   3.441  12.518
 6216SOL     OW19207   2.215   2.968  11.664
 6216SOL    HW119208   2.219   3.042  11.603
 6216SOL    HW219209   2.214   2.891  11.608
 6217SOL     OW19210   2.414   2.400  12.034
 6217SOL    HW119211   2.430   2.458  11.959
 6217SOL    HW219212   2.478   2.428  12.100
 6218SOL     OW19213   3.110   3.210  11.561
 6218SOL    HW119214   3.165   3.281  11.592
 6218SOL    HW219215   3.023   3.230  11.595
 6219SOL     OW19216   3.139   3.318  12.318
 6219SOL    HW119217   3.194   3.321  12.396
 6219SOL    HW219218   3.084   3.241  12.330
 6220SOL     OW19219   3.444   2.487  11.649
 6220SOL    HW119220   3.400   2.544  11.712
 6220SOL    HW219221   3.488   2.547  11.589
 6221SOL     OW19222   2.210   3.386  12.490
 6221SOL    HW119223   2.197   3.344  12.404
 6221SOL    HW219224   2.304   3.399  12.496
 6222SOL     OW19225   2.274   2.609  12.773
 6222SOL    HW119226   2.337   2.653  12.715
 6222SOL    HW219227   2.315   2.525  12.794
 6223SOL     OW19228   3.460   2.638  12.849
 6223SOL    HW119229   3.374   2.679  12.843
 6223SOL    HW219230   3.512   2.682  12.782
 6224SOL     OW19231   2.858   1.979  12.927
 6224SOL    HW119232   2.910   2.053  12.896
 6224SOL    HW219233   2.908   1.902  12.902
 6225SOL     OW19234   2.371   1.907  12.920
 6225SOL    HW119235   2.319   1.854  12.860
 6225SOL    HW219236   2.323   1.989  12.928
 6226SOL     OW19237   2.444   2.734  12.203
 6226SOL    HW119238   2.475   2.824  12.199
 6226SOL    HW219239   2.388   2.731  12.281
 6227SOL     OW19240   3.223   2.721  12.205
 6227SOL    HW119241   3.142   2.714  12.155
 6227SOL    HW219242   3.260   2.633  12.203
 6228SOL     OW19243   3.069   2.391  11.441
 6228SOL    HW119244   3.077   2.312  11.495
 6228SOL    HW219245   3.027   2.455  11.498
 6229SOL     OW19246   1.908   3.172  12.449
 6229SOL    HW119247   1.941   3.119  12.521
 6229SOL    HW219248   1.916   3.262  12.479
 6230SOL     OW19249   2.586   2.492  12.230
 6230SOL    HW119250   2.660   2.475  12.173
 6230SOL    HW219251   2.560   2.582  12.210
 6231SOL     OW19252   3.595   2.819  13.028
 6231SOL    HW119253   3.549   2.768  12.962
 6231SOL    HW219254   3.531   2.831  13.098
 6232SOL     OW19255   3.476   2.234  11.541
 6232SOL    HW119256   3.504   2.171  11.607
 6232SOL    HW219257   3.453   2.312  11.591
 6233SOL     OW19258   2.888   2.622  12.134
 6233SOL    HW119259   2.889   2.639  12.228
 6233SOL    HW219260   2.863   2.530  12.127
 6234SOL     OW19261   2.846   3.429  12.887
 6234SOL    HW119262   2.829   3.472  12.803
 6234SOL    HW219263   2.888   3.346  12.864
 6235SOL     OW19264   3.710   3.370  12.774
 6235SOL    HW119265   3.730   3.396  12.684
 6235SOL    HW219266   3.790   3.386  12.822
 6236SOL     OW19267   2.215   2.778  12.981
 6236SOL    HW119268   2.298   2.796  13.024
 6236SOL    HW219269   2.237   2.717  12.911
 6237SOL     OW19270   3.393   2.136  11.299
 6237SOL    HW119271   3.329   2.070  11.325
 6237SOL    HW219272   3.425   2.172  11.382
 6238SOL     OW19273   3.156   2.689  11.205
 6238SOL    HW119274   3.199   2.603  11.208
 6238SOL    HW219275   3.187   2.728  11.123
 6239SOL     OW19276   2.926   3.197  12.024
 6239SOL    HW119277   2.930   3.124  11.963
 6239SOL    HW219278   2.990   3.260  11.990
 6240SOL     OW19279   2.173   2.673  12.119
 6240SOL    HW119280   2.266   2.696  12.112
 6240SOL    HW219281   2.172   2.587  12.161
 6241SOL     OW19282   2.191   2.364  12.182
 6241SOL    HW119283   2.152   2.289  12.137
 6241SOL    HW219284   2.270   2.383  12.132
 6242SOL     OW19285   2.997   2.241  12.851
 6242SOL    HW119286   2.951   2.295  12.915
 6242SOL    HW219287   3.085   2.277  12.847
 6243SOL     OW19288   3.022   2.067  12.641
 6243SOL    HW119289   3.013   2.129  12.714
 6243SOL    HW219290   3.060   2.118  12.570
 6244SOL     OW19291   1.867   3.185  11.367
 6244SOL    HW119292   1.780   3.198  11.330
 6244SOL    HW219293   1.865   3.095  11.400
 6245SOL     OW19294   1.956   3.649  12.108
 6245SOL    HW119295   1.925   3.569  12.065
 6245SOL    HW219296   2.042   3.664  12.071
 6246SOL     OW19297   2.361   3.435  12.078
 6246SOL    HW119298   2.429   3.498  12.102
 6246SOL    HW219299   2.406   3.370  12.024
 6247SOL     OW19300   2.849   2.656  12.400
 6247SOL    HW119301   2.903   2.631  12.475
 6247SOL    HW219302   2.763   2.621  12.421
 6248SOL     OW19303   1.900   2.396  12.289
 6248SOL    HW119304   1.985   2.396  12.245
 6248SOL    HW219305   1.920   2.411  12.381
 6249SOL     OW19306   2.064   2.380  12.902
 6249SOL    HW119307   2.113   2.348  12.826
 6249SOL    HW219308   1.998   2.439  12.865
 6250SOL     OW19309   3.238   2.803  12.831
 6250SOL    HW119310   3.259   2.897  12.832
 6250SOL    HW219311   3.236   2.779  12.739
 6251SOL     OW19312   2.677   2.431  11.529
 6251SOL    HW119313   2.682   2.356  11.470
 6251SOL    HW219314   2.603   2.482  11.497
 6252SOL     OW19315   3.505   2.464  12.361
 6252SOL    HW119316   3.492   2.403  12.434
 6252SOL    HW219317   3.590   2.441  12.325
 6253SOL     OW19318   2.110   3.414  12.902
 6253SOL    HW119319   2.085   3.478  12.969
 6253SOL    HW219320   2.107   3.330  12.948
 6254SOL     OW19321   2.554   2.315  12.435
 6254SOL    HW119322   2.506   2.240  12.401
 6254SOL    HW219323   2.555   2.377  12.362
 6255SOL     OW19324   2.794   3.537  12.638
 6255SOL    HW119325   2.766   3.505  12.552
 6255SOL    HW219326   2.789   3.632  12.631
 6256SOL     OW19327   2.328   2.356  11.359
 6256SOL    HW119328   2.386   2.430  11.380
 6256SOL    HW219329   2.242   2.395  11.349
 6257SOL     OW19330   2.010   3.002  12.643
 6257SOL    HW119331   2.015   2.948  12.722
 6257SOL    HW219332   2.027   2.940  12.571
 6258SOL     OW19333   3.190   2.911  12.397
 6258SOL    HW119334   3.215   2.848  12.329
 6258SOL    HW219335   3.118   2.960  12.359
 6259SOL     OW19336   3.171   2.718  11.479
 6259SOL    HW119337   3.093   2.688  11.528
 6259SOL    HW219338   3.148   2.705  11.387
 6260SOL     OW19339   3.632   3.609  12.321
 6260SOL    HW119340   3.691   3.634  12.250
 6260SOL    HW219341   3.607   3.519  12.302
 6261SOL     OW19342   3.105   3.596  12.288
 6261SOL    HW119343   3.187   3.613  12.242
 6261SOL    HW219344   3.107   3.502  12.307
 6262SOL     OW19345   1.945   3.128  12.185
 6262SOL    HW119346   1.933   3.139  12.280
 6262SOL    HW219347   1.871   3.074  12.157
 6263SOL     OW19348   2.540   3.524  12.896
 6263SOL    HW119349   2.488   3.604  12.899
 6263SOL    HW219350   2.600   3.538  12.822
 6264SOL     OW19351   3.578   2.005  11.687
 6264SOL    HW119352   3.647   1.992  11.622
 6264SOL    HW219353   3.565   1.918  11.726
 6265SOL     OW19354   3.251   3.430  11.655
 6265SOL    HW119355   3.312   3.461  11.588
 6265SOL    HW219356   3.205   3.509  11.684
 6266SOL     OW19357   1.993   3.656  13.013
 6266SOL    HW119358   1.942   3.592  13.061
 6266SOL    HW219359   2.044   3.702  13.080
 6267SOL     OW19360   3.139   2.786  11.843
 6267SOL    HW119361   3.212   2.725  11.848
 6267SOL    HW219362   3.172   2.859  11.791
 6268SOL     OW19363   2.680   3.134  12.603
 6268SOL    HW119364   2.654   3.173  12.687
 6268SOL    HW219365   2.609   3.156  12.543
 6269SOL     OW19366   2.537   3.475  11.328
 6269SOL    HW119367   2.543   3.490  11.234
 6269SOL    HW219368   2.481   3.398  11.337
 6270SOL     OW19369   3.491   3.588  12.563
 6270SOL    HW119370   3.542   3.594  12.482
 6270SOL    HW219371   3.479   3.678  12.591
 6271SOL     OW19372   3.699   2.041  12.141
 6271SOL    HW119373   3.730   1.955  12.113
 6271SOL    HW219374   3.613   2.051  12.100
 6272SOL     OW19375   3.067   3.470  11.206
 6272SOL    HW119376   3.059   3.378  11.231
 6272SOL    HW219377   3.006   3.481  11.133
 6273SOL     OW19378   2.686   2.868  12.543
 6273SOL    HW119379   2.730   2.865  12.458
 6273SOL    HW219380   2.687   2.960  12.568
 6274SOL     OW19381   2.778   2.772  11.461
 6274SOL    HW119382   2.839   2.804  11.395
 6274SOL    HW219383   2.824   2.701  11.506
 6275SOL     OW19384   3.355   3.489  11.213
 6275SOL    HW119385   3.261   3.481  11.199
 6275SOL    HW219386   3.392   3.494  11.125
 6276SOL     OW19387   2.232   3.163  12.663
 6276SOL    HW119388   2.218   3.241  12.610
 6276SOL    HW219389   2.154   3.109  12.647
 6277SOL     OW19390   3.468   3.143  12.452
 6277SOL    HW119391   3.534   3.139  12.521
 6277SOL    HW219392   3.410   3.215  12.478
 6278SOL     OW19393   2.910   2.967  11.877
 6278SOL    HW119394   2.840   2.916  11.917
 6278SOL    HW219395   2.971   2.902  11.843
 6279SOL     OW19396   2.880   2.102  12.138
 6279SOL    HW119397   2.876   2.053  12.055
 6279SOL    HW219398   2.877   2.034  12.205
 6280SOL     OW19399   2.463   3.352  11.654
 6280SOL    HW119400   2.504   3.300  11.584
 6280SOL    HW219401   2.399   3.407  11.609
 6281SOL     OW19402   3.582   2.253  12.551
 6281SOL    HW119403   3.653   2.317  12.547
 6281SOL    HW219404   3.611   2.181  12.496
 6282SOL     OW19405   2.120   3.209  11.459
 6282SOL    HW119406   2.027   3.207  11.437
 6282SOL    HW219407   2.123   3.246  11.547
 6283SOL     OW19408   1.974   2.880  12.891
 6283SOL    HW119409   1.897   2.858  12.944
 6283SOL    HW219410   2.048   2.844  12.939
 6284SOL     OW19411   2.535   2.060  12.670
 6284SOL    HW119412   2.619   2.040  12.629
 6284SOL    HW219413   2.557   2.087  12.759
 6285SOL     OW19414   3.293   2.721  12.574
 6285SOL    HW119415   3.244   2.781  12.517
 6285SOL    HW219416   3.382   2.723  12.539
 6286SOL     OW19417   3.042   3.204  11.289
 6286SOL    HW119418   2.951   3.174  11.292
 6286SOL    HW219419   3.070   3.202  11.380
 6287SOL     OW19420   2.480   2.693  12.603
 6287SOL    HW119421   2.535   2.770  12.590
 6287SOL    HW219422   2.542   2.621  12.613
 6288SOL     OW19423   3.347   3.640  12.149
 6288SOL    HW119424   3.375   3.690  12.072
 6288SOL    HW219425   3.429   3.617  12.194
 6289SOL     OW19426   2.579   2.425  12.877
 6289SOL    HW119427   2.614   2.489  12.938
 6289SOL    HW219428   2.613   2.341  12.908
 6290SOL     OW19429   3.330   3.065  12.805
 6290SOL    HW119430   3.319   3.078  12.899
 6290SOL    HW219431   3.424   3.077  12.790
 6291SOL     OW19432   2.243   3.601  12.733
 6291SOL    HW119433   2.156   3.639  12.721
 6291SOL    HW219434   2.226   3.517  12.776
 6292SOL     OW19435   3.531   2.744  12.430
 6292SOL    HW119436   3.526   2.658  12.387
 6292SOL    HW219437   3.526   2.807  12.358
 6293SOL     OW19438   3.080   2.182  11.629
 6293SOL    HW119439   3.144   2.111  11.620
 6293SOL    HW219440   3.110   2.230  11.707
 6294SOL     OW19441   2.452   2.601  11.840
 6294SOL    HW119442   2.493   2.686  11.824
 6294SOL    HW219443   2.383   2.595  11.774
 6295SOL     OW19444   3.627   2.223  12.820
 6295SOL    HW119445   3.608   2.235  12.727
 6295SOL    HW219446   3.557   2.166  12.851
 6296SOL     OW19447   3.611   2.794  12.686
 6296SOL    HW119448   3.610   2.889  12.700
 6296SOL    HW219449   3.592   2.783  12.593
 6297SOL     OW19450   2.725   3.231  11.203
 6297SOL    HW119451   2.684   3.257  11.285
 6297SOL    HW219452   2.743   3.313  11.157
 6298SOL     OW19453   2.520   3.656  12.119
 6298SOL    HW119454   2.498   3.745  12.095
 6298SOL    HW219455   2.616   3.652  12.111
 6299SOL     OW19456   2.727   2.827  12.028
 6299SOL    HW119457   2.779   2.757  12.069
 6299SOL    HW219458   2.695   2.879  12.102
 6300SOL     OW19459   2.942   2.850  11.260
 6300SOL    HW119460   2.920   2.900  11.182
 6300SOL    HW219461   3.017   2.797  11.235
 6301SOL     OW19462   3.719   3.419  12.014
 6301SOL    HW119463   3.640   3.402  11.962
 6301SOL    HW219464   3.716   3.352  12.083
 6302SOL     OW19465   2.086   3.166  13.028
 6302SOL    HW119466   2.018   3.105  13.000
 6302SOL    HW219467   2.069   3.180  13.121
 6303SOL     OW19468   1.945   3.098  11.835
 6303SOL    HW119469   1.948   3.048  11.917
 6303SOL    HW219470   2.014   3.059  11.782
 6304SOL     OW19471   2.542   3.262  12.797
 6304SOL    HW119472   2.462   3.219  12.828
 6304SOL    HW219473   2.537   3.350  12.835
 6305SOL     OW19474   3.679   2.045  12.412
 6305SOL    HW119475   3.673   1.950  12.420
 6305SOL    HW219476   3.689   2.060  12.318
 6306SOL     OW19477   2.292   2.294  11.696
 6306SOL    HW119478   2.320   2.230  11.631
 6306SOL    HW219479   2.250   2.242  11.765
 6307SOL     OW19480   3.562   3.354  12.273
 6307SOL    HW119481   3.482   3.326  12.230
 6307SOL    HW219482   3.580   3.286  12.338
 6308SOL     OW19483   2.190   2.415  12.460
 6308SOL    HW119484   2.237   2.356  12.519
 6308SOL    HW219485   2.211   2.383  12.372
 6309SOL     OW19486   2.687   3.440  11.851
 6309SOL    HW119487   2.681   3.482  11.765
 6309SOL    HW219488   2.609   3.385  11.856
 6310SOL     OW19489   3.294   2.086  12.290
 6310SOL    HW119490   3.322   2.007  12.337
 6310SOL    HW219491   3.242   2.135  12.354
 6311SOL     OW19492   2.870   1.882  12.317
 6311SOL    HW119493   2.816   1.813  12.279
 6311SOL    HW219494   2.958   1.845  12.319
 6312SOL     OW19495   2.633   3.194  11.483
 6312SOL    HW119496   2.599   3.105  11.489
 6312SOL    HW219497   2.716   3.191  11.531
 6313SOL     OW19498   2.482   3.420  12.455
 6313SOL    HW119499   2.484   3.500  12.507
 6313SOL    HW219500   2.569   3.412  12.417
 6314SOL     OW19501   3.214   1.916  11.335
 6314SOL    HW119502   3.240   1.855  11.266
 6314SOL    HW219503   3.128   1.884  11.363
 6315SOL     OW19504   3.159   2.322  11.855
 6315SOL    HW119505   3.105   2.401  11.864
 6315SOL    HW219506   3.157   2.282  11.942
 6316SOL     OW19507   3.447   2.067  12.048
 6316SOL    HW119508   3.384   2.086  12.117
 6316SOL    HW219509   3.448   2.146  11.994
 6317SOL     OW19510   1.905   2.935  11.477
 6317SOL    HW119511   1.999   2.926  11.460
 6317SOL    HW219512   1.876   2.847  11.500
 6318SOL     OW19513   2.743   3.514  11.518
 6318SOL    HW119514   2.674   3.494  11.455
 6318SOL    HW219515   2.712   3.591  11.565
 6319SOL     OW19516   2.089   2.481  13.157
 6319SOL    HW119517   1.998   2.488  13.186
 6319SOL    HW219518   2.083   2.452  13.066
 6320SOL     OW19519   1.876   2.260  13.663
 6320SOL    HW119520   1.788   2.279  13.698
 6320SOL    HW219521   1.861   2.200  13.591
 6321SOL     OW19522   3.397   3.363  13.723
 6321SOL    HW119523   3.338   3.315  13.780
 6321SOL    HW219524   3.347   3.378  13.642
 6322SOL     OW19525   2.987   2.565  13.737
 6322SOL    HW119526   3.044   2.637  13.709
 6322SOL    HW219527   2.944   2.599  13.816
 6323SOL     OW19528   3.631   2.468  13.265
 6323SOL    HW119529   3.610   2.460  13.172
 6323SOL    HW219530   3.589   2.392  13.305
 6324SOL     OW19531   2.547   2.874  13.676
 6324SOL    HW119532   2.603   2.851  13.750
 6324SOL    HW219533   2.474   2.922  13.715
 6325SOL     OW19534   3.488   2.323  13.756
 6325SOL    HW119535   3.400   2.324  13.719
 6325SOL    HW219536   3.488   2.394  13.819
 6326SOL     OW19537   2.082   3.580  13.514
 6326SOL    HW119538   2.121   3.630  13.585
 6326SOL    HW219539   2.151   3.575  13.447
 6327SOL     OW19540   2.091   3.303  13.568
 6327SOL    HW119541   2.071   3.396  13.576
 6327SOL    HW219542   2.030   3.260  13.628
 6328SOL     OW19543   2.100   2.963   0.021
 6328SOL    HW119544   2.120   2.898   0.089
 6328SOL    HW219545   2.038   3.023   0.062
 6329SOL     OW19546   2.452   2.841  13.165
 6329SOL    HW119547   2.493   2.894  13.097
 6329SOL    HW219548   2.492   2.871  13.247
 6330SOL     OW19549   1.977   2.517  13.591
 6330SOL    HW119550   1.947   2.428  13.611
 6330SOL    HW219551   1.964   2.565  13.673
 6331SOL     OW19552   3.698   3.618  13.374
 6331SOL    HW119553   3.764   3.591  13.438
 6331SOL    HW219554   3.723   3.708  13.352
 6332SOL     OW19555   1.888   3.458  13.157
 6332SOL    HW119556   1.874   3.365  13.179
 6332SOL    HW219557   1.868   3.504  13.239
 6333SOL     OW19558   3.549   2.777  13.666
 6333SOL    HW119559   3.639   2.748  13.650
 6333SOL    HW219560   3.528   2.833  13.591
 6334SOL     OW19561   3.504   2.969  13.463
 6334SOL    HW119562   3.588   2.977  13.418
 6334SOL    HW219563   3.510   3.029  13.537
 6335SOL     OW19564   2.468   3.246  13.763
 6335SOL    HW119565   2.426   3.160  13.771
 6335SOL    HW219566   2.448   3.274  13.674
 6336SOL     OW19567   2.670   1.860  13.540
 6336SOL    HW119568   2.712   1.944  13.523
 6336SOL    HW219569   2.577   1.880  13.550
 6337SOL     OW19570   3.392   2.853  13.231
 6337SOL    HW119571   3.323   2.796  13.262
 6337SOL    HW219572   3.431   2.889  13.311
 6338SOL     OW19573   3.516   3.596  13.612
 6338SOL    HW119574   3.499   3.567  13.523
 6338SOL    HW219575   3.511   3.517  13.665
 6339SOL     OW19576   2.456   2.585  13.298
 6339SOL    HW119577   2.465   2.664  13.245
 6339SOL    HW219578   2.391   2.607  13.364
 6340SOL     OW19579   3.125   2.195   0.053
 6340SOL    HW119580   3.043   2.149   0.072
 6340SOL    HW219581   3.191   2.148   0.105
 6341SOL     OW19582   3.440   3.535  13.341
 6341SOL    HW119583   3.531   3.565  13.338
 6341SOL    HW219584   3.419   3.513  13.250
 6342SOL     OW19585   2.910   2.560  13.461
 6342SOL    HW119586   2.923   2.550  13.555
 6342SOL    HW219587   2.829   2.512  13.443
 6343SOL     OW19588   1.946   2.681  13.808
 6343SOL    HW119589   2.030   2.677  13.853
 6343SOL    HW219590   1.902   2.758  13.846
 6344SOL     OW19591   2.750   2.210  13.230
 6344SOL    HW119592   2.794   2.268  13.168
 6344SOL    HW219593   2.760   2.123  13.192
 6345SOL     OW19594   3.226   2.998  13.560
 6345SOL    HW119595   3.315   2.995  13.524
 6345SOL    HW219596   3.183   3.069  13.512
 6346SOL     OW19597   2.870   3.308  13.506
 6346SOL    HW119598   2.829   3.380  13.458
 6346SOL    HW219599   2.845   3.321  13.597
 6347SOL     OW19600   2.246   3.662  13.818
 6347SOL    HW119601   2.235   3.582  13.869
 6347SOL    HW219602   2.296   3.720  13.874
 6348SOL     OW19603   3.652   2.920   0.000
 6348SOL    HW119604   3.592   2.913  13.826
 6348SOL    HW219605   3.595   2.918   0.077
 6349SOL     OW19606   2.184   2.818  13.283
 6349SOL    HW119607   2.265   2.837  13.236
 6349SOL    HW219608   2.152   2.737  13.243
 6350SOL     OW19609   3.344   2.595  13.747
 6350SOL    HW119610   3.330   2.547  13.828
 6350SOL    HW219611   3.418   2.654  13.766
 6351SOL     OW19612   2.974   3.642  13.258
 6351SOL    HW119613   2.915   3.593  13.315
 6351SOL    HW219614   3.003   3.579  13.193
 6352SOL     OW19615   3.490   3.243  13.122
 6352SOL    HW119616   3.448   3.327  13.104
 6352SOL    HW219617   3.422   3.178  13.103
 6353SOL     OW19618   2.331   3.595  13.358
 6353SOL    HW119619   2.366   3.660  13.419
 6353SOL    HW219620   2.404   3.575  13.300
 6354SOL     OW19621   3.264   1.973  13.462
 6354SOL    HW119622   3.252   1.946  13.372
 6354SOL    HW219623   3.358   1.974  13.475
 6355SOL     OW19624   2.795   3.553   0.015
 6355SOL    HW119625   2.835   3.486   0.070
 6355SOL    HW219626   2.746   3.505  13.849
 6356SOL     OW19627   2.251   2.563  13.511
 6356SOL    HW119628   2.275   2.471  13.516
 6356SOL    HW219629   2.157   2.564  13.530
 6357SOL     OW19630   2.502   1.989  13.143
 6357SOL    HW119631   2.571   1.924  13.152
 6357SOL    HW219632   2.448   1.956  13.071
 6358SOL     OW19633   2.404   1.926  13.543
 6358SOL    HW119634   2.335   1.937  13.608
 6358SOL    HW219635   2.396   2.001  13.485
 6359SOL     OW19636   3.291   3.060  13.075
 6359SOL    HW119637   3.322   2.984  13.125
 6359SOL    HW219638   3.205   3.079  13.113
 6360SOL     OW19639   2.797   2.103  13.497
 6360SOL    HW119640   2.768   2.148  13.418
 6360SOL    HW219641   2.892   2.117  13.500
 6361SOL     OW19642   2.326   3.004  13.775
 6361SOL    HW119643   2.251   2.991  13.833
 6361SOL    HW219644   2.291   2.991  13.687
 6362SOL     OW19645   3.134   3.661  13.630
 6362SOL    HW119646   3.176   3.728  13.575
 6362SOL    HW219647   3.069   3.710  13.680
 6363SOL     OW19648   2.888   2.407  13.053
 6363SOL    HW119649   2.846   2.491  13.033
 6363SOL    HW219650   2.951   2.428  13.122
 6364SOL     OW19651   2.750   2.332  13.667
 6364SOL    HW119652   2.684   2.377  13.613
 6364SOL    HW219653   2.755   2.244  13.629
 6365SOL     OW19654   2.885   1.905  13.782
 6365SOL    HW119655   2.825   1.912  13.708
 6365SOL    HW219656   2.857   1.825  13.827
 6366SOL     OW19657   3.725   2.681  13.410
 6366SOL    HW119658   3.772   2.624  13.471
 6366SOL    HW219659   3.687   2.621  13.346
 6367SOL     OW19660   2.355   3.275  13.195
 6367SOL    HW119661   2.279   3.247  13.247
 6367SOL    HW219662   2.333   3.249  13.105
 6368SOL     OW19663   3.536   3.128  13.672
 6368SOL    HW119664   3.630   3.135  13.690
 6368SOL    HW219665   3.500   3.211  13.703
 6369SOL     OW19666   3.256   2.433  13.105
 6369SOL    HW119667   3.195   2.415  13.177
 6369SOL    HW219668   3.340   2.399  13.136
 6370SOL     OW19669   2.389   2.122  13.356
 6370SOL    HW119670   2.426   2.072  13.284
 6370SOL    HW219671   2.370   2.208  13.319
 6371SOL     OW19672   2.570   2.923  13.403
 6371SOL    HW119673   2.556   2.909  13.497
 6371SOL    HW219674   2.646   2.869  13.382
 6372SOL     OW19675   2.218   2.968  13.527
 6372SOL    HW119676   2.218   3.042  13.466
 6372SOL    HW219677   2.215   2.891  13.470
 6373SOL     OW19678   2.444   2.399  13.866
 6373SOL    HW119679   2.449   2.470  13.802
 6373SOL    HW219680   2.488   2.434   0.044
 6374SOL     OW19681   3.110   3.211  13.420
 6374SOL    HW119682   3.165   3.284  13.450
 6374SOL    HW219683   3.023   3.231  13.455
 6375SOL     OW19684   3.445   2.489  13.502
 6375SOL    HW119685   3.405   2.538  13.574
 6375SOL    HW219686   3.485   2.557  13.447
 6376SOL     OW19687   3.069   2.391  13.303
 6376SOL    HW119688   3.076   2.312  13.357
 6376SOL    HW219689   3.027   2.455  13.360
 6377SOL     OW19690   3.477   2.234  13.403
 6377SOL    HW119691   3.502   2.171  13.470
 6377SOL    HW219692   3.453   2.313  13.452
 6378SOL     OW19693   3.393   2.136  13.161
 6378SOL    HW119694   3.329   2.070  13.187
 6378SOL    HW219695   3.426   2.172  13.244
 6379SOL     OW19696   3.156   2.689  13.066
 6379SOL    HW119697   3.199   2.604  13.070
 6379SOL    HW219698   3.187   2.728  12.985
 6380SOL     OW19699   1.867   3.185  13.229
 6380SOL    HW119700   1.780   3.198  13.191
 6380SOL    HW219701   1.865   3.095  13.262
 6381SOL     OW19702   2.677   2.433  13.386
 6381SOL    HW119703   2.680   2.356  13.329
 6381SOL    HW219704   2.601   2.482  13.356
 6382SOL     OW19705   2.329   2.354  13.216
 6382SOL    HW119706   2.386   2.427  13.240
 6382SOL    HW219707   2.242   2.393  13.211
 6383SOL     OW19708   3.172   2.714  13.340
 6383SOL    HW119709   3.093   2.689  13.388
 6383SOL    HW219710   3.148   2.703  13.248
 6384SOL     OW19711   3.581   2.005  13.551
 6384SOL    HW119712   3.648   1.991  13.484
 6384SOL    HW219713   3.566   1.917  13.587
 6385SOL     OW19714   3.246   3.433  13.509
 6385SOL    HW119715   3.308   3.467  13.444
 6385SOL    HW219716   3.203   3.511  13.544
 6386SOL     OW19717   3.147   2.778  13.688
 6386SOL    HW119718   3.223   2.722  13.673
 6386SOL    HW219719   3.170   2.862  13.649
 6387SOL     OW19720   2.537   3.476  13.190
 6387SOL    HW119721   2.543   3.490  13.096
 6387SOL    HW219722   2.481   3.398  13.199
 6388SOL     OW19723   3.685   2.020   0.078
 6388SOL    HW119724   3.704   1.930   0.051
 6388SOL    HW219725   3.590   2.026   0.073
 6389SOL     OW19726   2.126   2.268  13.782
 6389SOL    HW119727   2.054   2.250  13.722
 6389SOL    HW219728   2.130   2.192  13.839
 6390SOL     OW19729   3.067   3.470  13.068
 6390SOL    HW119730   3.059   3.378  13.093
 6390SOL    HW219731   3.006   3.481  12.995
 6391SOL     OW19732   2.779   2.774  13.326
 6391SOL    HW119733   2.839   2.804  13.258
 6391SOL    HW219734   2.824   2.700  13.367
 6392SOL     OW19735   3.355   3.489  13.075
 6392SOL    HW119736   3.261   3.481  13.061
 6392SOL    HW219737   3.392   3.494  12.987
 6393SOL     OW19738   2.910   2.953  13.752
 6393SOL    HW119739   2.824   2.912  13.751
 6393SOL    HW219740   2.961   2.906  13.686
 6394SOL     OW19741   2.462   3.353  13.511
 6394SOL    HW119742   2.503   3.302  13.442
 6394SOL    HW219743   2.397   3.408  13.466
 6395SOL     OW19744   2.120   3.208  13.321
 6395SOL    HW119745   2.027   3.206  13.299
 6395SOL    HW219746   2.123   3.246  13.409
 6396SOL     OW19747   3.042   3.204  13.150
 6396SOL    HW119748   2.951   3.174  13.154
 6396SOL    HW219749   3.071   3.203  13.241
 6397SOL     OW19750   3.081   2.182  13.491
 6397SOL    HW119751   3.144   2.111  13.481
 6397SOL    HW219752   3.111   2.229  13.569
 6398SOL     OW19753   2.453   2.611  13.695
 6398SOL    HW119754   2.491   2.696  13.674
 6398SOL    HW219755   2.382   2.600  13.632
 6399SOL     OW19756   2.725   3.231  13.064
 6399SOL    HW119757   2.684   3.257  13.147
 6399SOL    HW219758   2.743   3.313  13.020
 6400SOL     OW19759   2.512   3.703   0.066
 6400SOL    HW119760   2.508   3.798   0.079
 6400SOL    HW219761   2.604   3.681   0.079
 6401SOL     OW19762   2.698   2.822  13.892
 6401SOL    HW119763   2.745   2.749   0.032
 6401SOL    HW219764   2.700   2.892   0.058
 6402SOL     OW19765   2.941   2.849  13.122
 6402SOL    HW119766   2.920   2.900  13.044
 6402SOL    HW219767   3.017   2.797  13.097
 6403SOL     OW19768   1.951   3.098  13.698
 6403SOL    HW119769   1.944   3.042  13.776
 6403SOL    HW219770   2.018   3.056  13.644
 6404SOL     OW19771   2.289   2.303  13.545
 6404SOL    HW119772   2.319   2.222  13.503
 6404SOL    HW219773   2.265   2.277  13.634
 6405SOL     OW19774   3.541   3.331   0.332
 6405SOL    HW119775   3.513   3.304   0.244
 6405SOL    HW219776   3.619   3.279   0.348
 6406SOL     OW19777   2.682   3.419  13.715
 6406SOL    HW119778   2.669   3.467  13.633
 6406SOL    HW219779   2.602   3.368  13.726
 6407SOL     OW19780   2.634   3.194  13.344
 6407SOL    HW119781   2.599   3.105  13.350
 6407SOL    HW219782   2.717   3.191  13.391
 6408SOL     OW19783   3.214   1.916  13.197
 6408SOL    HW119784   3.240   1.855  13.128
 6408SOL    HW219785   3.127   1.885  13.225
 6409SOL     OW19786   3.165   2.321  13.716
 6409SOL    HW119787   3.106   2.396  13.723
 6409SOL    HW219788   3.157   2.276  13.800
 6410SOL     OW19789   1.906   2.935  13.338
 6410SOL    HW119790   2.000   2.925  13.321
 6410SOL    HW219791   1.876   2.847  13.361
 6411SOL     OW19792   2.743   3.514  13.380
 6411SOL    HW119793   2.673   3.495  13.317
 6411SOL    HW219794   2.712   3.590  13.428
 6412SOL     OW19795   2.093   3.987   0.987
 6412SOL    HW119796   2.119   3.967   1.077
 6412SOL    HW219797   2.004   3.954   0.979
 6413SOL     OW19798   1.881   0.064   0.703
 6413SOL    HW119799   1.807   0.122   0.684
 6413SOL    HW219800   1.893   0.013   0.624
 6414SOL     OW19801   3.659   0.358   0.246
 6414SOL    HW119802   3.632   0.317   0.164
 6414SOL    HW219803   3.586   0.341   0.306
 6415SOL     OW19804   2.298   0.101   1.507
 6415SOL    HW119805   2.373   0.060   1.465
 6415SOL    HW219806   2.224   0.044   1.486
 6416SOL     OW19807   3.460   3.845   1.466
 6416SOL    HW119808   3.456   3.928   1.420
 6416SOL    HW219809   3.448   3.868   1.559
 6417SOL     OW19810   2.667   3.727   0.501
 6417SOL    HW119811   2.696   3.818   0.493
 6417SOL    HW219812   2.573   3.733   0.514
 6418SOL     OW19813   3.132   0.063   0.940
 6418SOL    HW119814   3.062   0.007   0.908
 6418SOL    HW219815   3.188   0.005   0.991
 6419SOL     OW19816   2.415   3.907   0.889
 6419SOL    HW119817   2.410   3.926   0.982
 6419SOL    HW219818   2.411   3.993   0.847
 6420SOL     OW19819   2.053   3.984   1.492
 6420SOL    HW119820   1.996   0.061   1.489
 6420SOL    HW219821   2.025   3.938   1.571
 6421SOL     OW19822   3.268   3.840   0.423
 6421SOL    HW119823   3.259   3.797   0.338
 6421SOL    HW219824   3.359   3.824   0.448
 6422SOL     OW19825   3.398   3.944   1.725
 6422SOL    HW119826   3.422   3.949   1.817
 6422SOL    HW219827   3.335   3.872   1.721
 6423SOL     OW19828   2.636   3.965   1.745
 6423SOL    HW119829   2.694   3.932   1.814
 6423SOL    HW219830   2.553   3.980   1.789
 6424SOL     OW19831   2.392   3.785   0.506
 6424SOL    HW119832   2.340   3.787   0.587
 6424SOL    HW219833   2.408   3.877   0.485
 6425SOL     OW19834   2.136   3.745   0.213
 6425SOL    HW119835   2.167   3.826   0.172
 6425SOL    HW219836   2.216   3.695   0.230
 6426SOL     OW19837   2.423   3.943   1.164
 6426SOL    HW119838   2.460   3.866   1.205
 6426SOL    HW219839   2.331   3.944   1.193
 6427SOL     OW19840   2.879   3.770   0.748
 6427SOL    HW119841   2.816   3.759   0.676
 6427SOL    HW219842   2.856   3.702   0.810
 6428SOL     OW19843   2.783   3.806   1.403
 6428SOL    HW119844   2.810   3.788   1.313
 6428SOL    HW219845   2.855   3.857   1.440
 6429SOL     OW19846   3.126   0.081   1.263
 6429SOL    HW119847   3.147   0.148   1.328
 6429SOL    HW219848   3.056   0.120   1.211
 6430SOL     OW19849   2.367   3.751   1.751
 6430SOL    HW119850   2.318   3.705   1.683
 6430SOL    HW219851   2.324   3.836   1.759
 6431SOL     OW19852   2.159   3.924   1.252
 6431SOL    HW119853   2.118   3.943   1.336
 6431SOL    HW219854   2.144   3.831   1.238
 6432SOL     OW19855   3.455   3.949   0.145
 6432SOL    HW119856   3.376   3.896   0.156
 6432SOL    HW219857   3.437   0.029   0.194
 6433SOL     OW19858   3.026   3.927   1.473
 6433SOL    HW119859   3.030   3.997   1.538
 6433SOL    HW219860   3.063   3.964   1.394
 6434SOL     OW19861   2.775   3.823   0.150
 6434SOL    HW119862   2.808   3.812   0.061
 6434SOL    HW219863   2.830   3.766   0.204
 6435SOL     OW19864   3.584   3.862   0.524
 6435SOL    HW119865   3.656   3.849   0.462
 6435SOL    HW219866   3.567   3.775   0.559
 6436SOL     OW19867   3.696   3.895   0.965
 6436SOL    HW119868   3.730   3.810   0.939
 6436SOL    HW219869   3.610   3.901   0.923
 6437SOL     OW19870   2.532   3.913   1.496
 6437SOL    HW119871   2.614   3.909   1.446
 6437SOL    HW219872   2.559   3.934   1.585
 6438SOL     OW19873   1.933   3.869   0.340
 6438SOL    HW119874   1.908   3.938   0.279
 6438SOL    HW219875   2.015   3.834   0.304
 6439SOL     OW19876   3.048   0.013   0.468
 6439SOL    HW119877   3.120   3.949   0.462
 6439SOL    HW219878   3.074   0.072   0.539
 6440SOL     OW19879   3.648   0.053   1.635
 6440SOL    HW119880   3.613   0.080   1.551
 6440SOL    HW219881   3.573   0.013   1.680
 6441SOL     OW19882   3.681   3.912   1.238
 6441SOL    HW119883   3.673   3.820   1.262
 6441SOL    HW219884   3.687   3.912   1.142
 6442SOL     OW19885   3.299   3.937   1.119
 6442SOL    HW119886   3.331   3.858   1.164
 6442SOL    HW219887   3.239   3.977   1.181
 6443SOL     OW19888   2.873   3.740   1.152
 6443SOL    HW119889   2.815   3.681   1.103
 6443SOL    HW219890   2.959   3.699   1.146
 6444SOL     OW19891   3.210   3.783   0.153
 6444SOL    HW119892   3.246   3.717   0.094
 6444SOL    HW219893   3.129   3.745   0.185
 6445SOL     OW19894   3.148   0.163   0.684
 6445SOL    HW119895   3.133   0.257   0.690
 6445SOL    HW219896   3.156   0.133   0.775
 6446SOL     OW19897   3.443   3.933   0.875
 6446SOL    HW119898   3.386   3.934   0.952
 6446SOL    HW219899   3.442   0.023   0.843
 6447SOL     OW19900   2.094   3.986   2.848
 6447SOL    HW119901   2.119   3.967   2.938
 6447SOL    HW219902   2.004   3.954   2.841
 6448SOL     OW19903   1.880   0.063   2.567
 6448SOL    HW119904   1.809   0.124   2.548
 6448SOL    HW219905   1.891   0.013   2.486
 6449SOL     OW19906   3.638   0.320   2.053
 6449SOL    HW119907   3.563   0.313   1.994
 6449SOL    HW219908   3.600   0.329   2.140
 6450SOL     OW19909   2.298   0.101   3.369
 6450SOL    HW119910   2.373   0.059   3.328
 6450SOL    HW219911   2.224   0.043   3.348
 6451SOL     OW19912   3.460   3.845   3.328
 6451SOL    HW119913   3.455   3.928   3.282
 6451SOL    HW219914   3.448   3.868   3.421
 6452SOL     OW19915   2.668   3.728   2.362
 6452SOL    HW119916   2.696   3.819   2.356
 6452SOL    HW219917   2.574   3.732   2.376
 6453SOL     OW19918   3.132   0.063   2.802
 6453SOL    HW119919   3.062   0.007   2.771
 6453SOL    HW219920   3.188   0.005   2.854
 6454SOL     OW19921   2.415   3.907   2.750
 6454SOL    HW119922   2.410   3.925   2.844
 6454SOL    HW219923   2.410   3.993   2.709
 6455SOL     OW19924   2.053   3.984   3.354
 6455SOL    HW119925   1.996   0.061   3.351
 6455SOL    HW219926   2.025   3.938   3.433
 6456SOL     OW19927   3.266   3.837   2.286
 6456SOL    HW119928   3.256   3.800   2.198
 6456SOL    HW219929   3.359   3.826   2.306
 6457SOL     OW19930   3.398   3.944   3.587
 6457SOL    HW119931   3.422   3.949   3.679
 6457SOL    HW219932   3.335   3.872   3.583
 6458SOL     OW19933   2.485   3.851   1.982
 6458SOL    HW119934   2.575   3.819   1.990
 6458SOL    HW219935   2.451   3.806   1.904
 6459SOL     OW19936   2.636   3.965   3.607
 6459SOL    HW119937   2.694   3.932   3.676
 6459SOL    HW219938   2.553   3.980   3.651
 6460SOL     OW19939   2.394   3.787   2.370
 6460SOL    HW119940   2.342   3.791   2.451
 6460SOL    HW219941   2.408   3.878   2.346
 6461SOL     OW19942   2.153   3.753   2.039
 6461SOL    HW119943   2.197   3.836   2.019
 6461SOL    HW219944   2.220   3.699   2.080
 6462SOL     OW19945   2.423   3.943   3.026
 6462SOL    HW119946   2.460   3.866   3.068
 6462SOL    HW219947   2.331   3.944   3.055
 6463SOL     OW19948   2.879   3.770   2.610
 6463SOL    HW119949   2.817   3.758   2.538
 6463SOL    HW219950   2.857   3.702   2.672
 6464SOL     OW19951   2.783   3.806   3.265
 6464SOL    HW119952   2.810   3.788   3.175
 6464SOL    HW219953   2.855   3.857   3.302
 6465SOL     OW19954   3.126   0.081   3.125
 6465SOL    HW119955   3.147   0.148   3.190
 6465SOL    HW219956   3.056   0.120   3.073
 6466SOL     OW19957   2.367   3.751   3.613
 6466SOL    HW119958   2.318   3.705   3.545
 6466SOL    HW219959   2.323   3.836   3.621
 6467SOL     OW19960   2.159   3.925   3.114
 6467SOL    HW119961   2.118   3.943   3.198
 6467SOL    HW219962   2.144   3.831   3.100
 6468SOL     OW19963   3.440   3.960   1.986
 6468SOL    HW119964   3.376   3.902   2.028
 6468SOL    HW219965   3.452   0.032   2.048
 6469SOL     OW19966   3.026   3.927   3.335
 6469SOL    HW119967   3.030   3.997   3.400
 6469SOL    HW219968   3.063   3.965   3.256
 6470SOL     OW19969   2.763   3.813   1.974
 6470SOL    HW119970   2.826   3.786   1.907
 6470SOL    HW219971   2.802   3.785   2.057
 6471SOL     OW19972   3.586   3.861   2.383
 6471SOL    HW119973   3.655   3.846   2.318
 6471SOL    HW219974   3.568   3.774   2.420
 6472SOL     OW19975   3.696   3.896   2.827
 6472SOL    HW119976   3.730   3.810   2.801
 6472SOL    HW219977   3.610   3.901   2.785
 6473SOL     OW19978   2.532   3.913   3.358
 6473SOL    HW119979   2.614   3.909   3.308
 6473SOL    HW219980   2.559   3.934   3.447
 6474SOL     OW19981   1.911   0.053   1.897
 6474SOL    HW119982   1.860   0.035   1.819
 6474SOL    HW219983   1.949   0.140   1.881
 6475SOL     OW19984   1.929   3.871   2.174
 6475SOL    HW119985   1.915   3.959   2.141
 6475SOL    HW219986   2.013   3.844   2.137
 6476SOL     OW19987   3.049   0.014   2.332
 6476SOL    HW119988   3.122   3.952   2.323
 6476SOL    HW219989   3.076   0.072   2.402
 6477SOL     OW19990   3.648   0.052   3.497
 6477SOL    HW119991   3.613   0.080   3.412
 6477SOL    HW219992   3.573   0.013   3.542
 6478SOL     OW19993   3.681   3.912   3.100
 6478SOL    HW119994   3.673   3.820   3.124
 6478SOL    HW219995   3.687   3.912   3.004
 6479SOL     OW19996   3.299   3.936   2.981
 6479SOL    HW119997   3.331   3.858   3.026
 6479SOL    HW219998   3.239   3.977   3.042
 6480SOL     OW19999   2.873   3.740   3.014
 6480SOL    HW120000   2.815   3.681   2.966
 6480SOL    HW220001   2.959   3.699   3.008
 6481SOL     OW20002   3.214   3.773   2.019
 6481SOL    HW120003   3.243   3.707   1.955
 6481SOL    HW220004   3.128   3.742   2.047
 6482SOL     OW20005   3.147   0.162   2.547
 6482SOL    HW120006   3.134   0.257   2.553
 6482SOL    HW220007   3.156   0.133   2.638
 6483SOL     OW20008   3.443   3.933   2.737
 6483SOL    HW120009   3.386   3.934   2.813
 6483SOL    HW220010   3.442   0.023   2.705
 6484SOL     OW20011   2.094   3.986   4.710
 6484SOL    HW120012   2.119   3.967   4.800
 6484SOL    HW220013   2.004   3.954   4.703
 6485SOL     OW20014   1.880   0.063   4.429
 6485SOL    HW120015   1.809   0.124   4.410
 6485SOL    HW220016   1.891   0.013   4.348
 6486SOL     OW20017   3.638   0.320   3.915
 6486SOL    HW120018   3.563   0.313   3.856
 6486SOL    HW220019   3.600   0.329   4.002
 6487SOL     OW20020   2.297   0.101   5.231
 6487SOL    HW120021   2.373   0.060   5.190
 6487SOL    HW220022   2.224   0.043   5.210
 6488SOL     OW20023   3.460   3.845   5.190
 6488SOL    HW120024   3.455   3.929   5.144
 6488SOL    HW220025   3.448   3.868   5.283
 6489SOL     OW20026   2.668   3.728   4.224
 6489SOL    HW120027   2.696   3.819   4.218
 6489SOL    HW220028   2.574   3.732   4.238
 6490SOL     OW20029   3.133   0.063   4.664
 6490SOL    HW120030   3.062   0.007   4.633
 6490SOL    HW220031   3.188   0.005   4.716
 6491SOL     OW20032   2.415   3.907   4.612
 6491SOL    HW120033   2.410   3.925   4.706
 6491SOL    HW220034   2.410   3.993   4.571
 6492SOL     OW20035   2.053   3.984   5.216
 6492SOL    HW120036   1.997   0.062   5.213
 6492SOL    HW220037   2.025   3.938   5.295
 6493SOL     OW20038   3.266   3.837   4.148
 6493SOL    HW120039   3.256   3.800   4.060
 6493SOL    HW220040   3.359   3.826   4.168
 6494SOL     OW20041   3.398   3.944   5.449
 6494SOL    HW120042   3.422   3.949   5.541
 6494SOL    HW220043   3.335   3.872   5.445
 6495SOL     OW20044   2.485   3.851   3.844
 6495SOL    HW120045   2.575   3.819   3.852
 6495SOL    HW220046   2.451   3.806   3.766
 6496SOL     OW20047   2.636   3.965   5.469
 6496SOL    HW120048   2.694   3.931   5.538
 6496SOL    HW220049   2.553   3.980   5.513
 6497SOL     OW20050   2.394   3.787   4.232
 6497SOL    HW120051   2.342   3.791   4.313
 6497SOL    HW220052   2.408   3.878   4.208
 6498SOL     OW20053   2.153   3.753   3.901
 6498SOL    HW120054   2.197   3.836   3.881
 6498SOL    HW220055   2.220   3.699   3.942
 6499SOL     OW20056   2.423   3.943   4.888
 6499SOL    HW120057   2.460   3.866   4.930
 6499SOL    HW220058   2.331   3.944   4.917
 6500SOL     OW20059   2.879   3.770   4.472
 6500SOL    HW120060   2.816   3.758   4.400
 6500SOL    HW220061   2.857   3.702   4.534
 6501SOL     OW20062   2.783   3.806   5.127
 6501SOL    HW120063   2.810   3.788   5.037
 6501SOL    HW220064   2.855   3.857   5.164
 6502SOL     OW20065   3.126   0.081   4.987
 6502SOL    HW120066   3.147   0.148   5.052
 6502SOL    HW220067   3.056   0.120   4.935
 6503SOL     OW20068   2.367   3.751   5.475
 6503SOL    HW120069   2.318   3.705   5.407
 6503SOL    HW220070   2.324   3.836   5.483
 6504SOL     OW20071   2.159   3.925   4.976
 6504SOL    HW120072   2.118   3.943   5.060
 6504SOL    HW220073   2.144   3.831   4.962
 6505SOL     OW20074   3.440   3.960   3.848
 6505SOL    HW120075   3.376   3.902   3.890
 6505SOL    HW220076   3.452   0.032   3.910
 6506SOL     OW20077   3.026   3.927   5.197
 6506SOL    HW120078   3.030   3.997   5.262
 6506SOL    HW220079   3.063   3.965   5.118
 6507SOL     OW20080   2.763   3.813   3.836
 6507SOL    HW120081   2.826   3.785   3.769
 6507SOL    HW220082   2.802   3.785   3.919
 6508SOL     OW20083   3.586   3.861   4.245
 6508SOL    HW120084   3.655   3.846   4.180
 6508SOL    HW220085   3.568   3.774   4.282
 6509SOL     OW20086   3.696   3.896   4.689
 6509SOL    HW120087   3.730   3.810   4.663
 6509SOL    HW220088   3.610   3.901   4.647
 6510SOL     OW20089   2.532   3.913   5.220
 6510SOL    HW120090   2.614   3.909   5.170
 6510SOL    HW220091   2.559   3.935   5.309
 6511SOL     OW20092   1.911   0.053   3.759
 6511SOL    HW120093   1.860   0.035   3.681
 6511SOL    HW220094   1.949   0.140   3.743
 6512SOL     OW20095   1.929   3.871   4.036
 6512SOL    HW120096   1.915   3.959   4.003
 6512SOL    HW220097   2.013   3.844   3.999
 6513SOL     OW20098   3.049   0.014   4.193
 6513SOL    HW120099   3.122   3.952   4.185
 6513SOL    HW220100   3.076   0.072   4.264
 6514SOL     OW20101   3.648   0.052   5.359
 6514SOL    HW120102   3.613   0.080   5.274
 6514SOL    HW220103   3.573   0.013   5.404
 6515SOL     OW20104   3.681   3.912   4.962
 6515SOL    HW120105   3.673   3.820   4.986
 6515SOL    HW220106   3.687   3.912   4.866
 6516SOL     OW20107   3.299   3.936   4.843
 6516SOL    HW120108   3.331   3.858   4.888
 6516SOL    HW220109   3.239   3.977   4.904
 6517SOL     OW20110   2.873   3.740   4.876
 6517SOL    HW120111   2.815   3.681   4.828
 6517SOL    HW220112   2.959   3.699   4.870
 6518SOL     OW20113   3.214   3.773   3.881
 6518SOL    HW120114   3.243   3.707   3.818
 6518SOL    HW220115   3.128   3.742   3.909
 6519SOL     OW20116   3.147   0.162   4.409
 6519SOL    HW120117   3.134   0.257   4.415
 6519SOL    HW220118   3.156   0.133   4.500
 6520SOL     OW20119   3.443   3.933   4.599
 6520SOL    HW120120   3.386   3.934   4.675
 6520SOL    HW220121   3.442   0.023   4.567
 6521SOL     OW20122   2.094   3.986   6.572
 6521SOL    HW120123   2.119   3.967   6.662
 6521SOL    HW220124   2.004   3.954   6.565
 6522SOL     OW20125   1.880   0.062   6.291
 6522SOL    HW120126   1.810   0.125   6.272
 6522SOL    HW220127   1.892   0.013   6.210
 6523SOL     OW20128   3.638   0.320   5.777
 6523SOL    HW120129   3.563   0.313   5.718
 6523SOL    HW220130   3.600   0.329   5.864
 6524SOL     OW20131   2.298   0.100   7.094
 6524SOL    HW120132   2.373   0.059   7.051
 6524SOL    HW220133   2.224   0.044   7.072
 6525SOL     OW20134   3.460   3.845   7.052
 6525SOL    HW120135   3.455   3.928   7.006
 6525SOL    HW220136   3.448   3.868   7.144
 6526SOL     OW20137   2.668   3.728   6.085
 6526SOL    HW120138   2.696   3.819   6.080
 6526SOL    HW220139   2.574   3.732   6.100
 6527SOL     OW20140   3.132   0.063   6.527
 6527SOL    HW120141   3.062   0.007   6.494
 6527SOL    HW220142   3.188   0.005   6.578
 6528SOL     OW20143   2.415   3.907   6.474
 6528SOL    HW120144   2.410   3.926   6.568
 6528SOL    HW220145   2.411   3.994   6.433
 6529SOL     OW20146   2.054   3.985   7.078
 6529SOL    HW120147   1.995   0.061   7.074
 6529SOL    HW220148   2.026   3.937   7.156
 6530SOL     OW20149   3.266   3.837   6.010
 6530SOL    HW120150   3.256   3.800   5.922
 6530SOL    HW220151   3.359   3.826   6.030
 6531SOL     OW20152   3.397   3.944   7.311
 6531SOL    HW120153   3.422   3.949   7.403
 6531SOL    HW220154   3.335   3.872   7.307
 6532SOL     OW20155   2.485   3.851   5.706
 6532SOL    HW120156   2.575   3.819   5.714
 6532SOL    HW220157   2.451   3.806   5.628
 6533SOL     OW20158   2.636   3.966   7.331
 6533SOL    HW120159   2.694   3.931   7.399
 6533SOL    HW220160   2.552   3.979   7.375
 6534SOL     OW20161   2.393   3.787   6.094
 6534SOL    HW120162   2.342   3.791   6.175
 6534SOL    HW220163   2.408   3.878   6.070
 6535SOL     OW20164   2.153   3.753   5.763
 6535SOL    HW120165   2.196   3.836   5.743
 6535SOL    HW220166   2.221   3.699   5.804
 6536SOL     OW20167   2.423   3.944   6.750
 6536SOL    HW120168   2.460   3.865   6.790
 6536SOL    HW220169   2.331   3.944   6.779
 6537SOL     OW20170   2.879   3.770   6.334
 6537SOL    HW120171   2.817   3.758   6.262
 6537SOL    HW220172   2.857   3.701   6.396
 6538SOL     OW20173   2.782   3.807   6.989
 6538SOL    HW120174   2.810   3.787   6.899
 6538SOL    HW220175   2.855   3.857   7.025
 6539SOL     OW20176   3.126   0.081   6.849
 6539SOL    HW120177   3.147   0.148   6.914
 6539SOL    HW220178   3.056   0.119   6.797
 6540SOL     OW20179   2.367   3.751   7.338
 6540SOL    HW120180   2.318   3.705   7.270
 6540SOL    HW220181   2.323   3.836   7.345
 6541SOL     OW20182   2.159   3.924   6.838
 6541SOL    HW120183   2.118   3.943   6.922
 6541SOL    HW220184   2.144   3.831   6.824
 6542SOL     OW20185   3.440   3.960   5.710
 6542SOL    HW120186   3.376   3.902   5.752
 6542SOL    HW220187   3.452   0.032   5.772
 6543SOL     OW20188   3.025   3.927   7.059
 6543SOL    HW120189   3.030   3.997   7.124
 6543SOL    HW220190   3.063   3.964   6.980
 6544SOL     OW20191   2.763   3.813   5.698
 6544SOL    HW120192   2.826   3.785   5.631
 6544SOL    HW220193   2.802   3.785   5.781
 6545SOL     OW20194   3.586   3.861   6.107
 6545SOL    HW120195   3.655   3.846   6.042
 6545SOL    HW220196   3.568   3.774   6.144
 6546SOL     OW20197   3.696   3.896   6.551
 6546SOL    HW120198   3.730   3.810   6.525
 6546SOL    HW220199   3.610   3.901   6.509
 6547SOL     OW20200   2.532   3.914   7.082
 6547SOL    HW120201   2.614   3.908   7.032
 6547SOL    HW220202   2.560   3.935   7.171
 6548SOL     OW20203   1.912   0.053   5.621
 6548SOL    HW120204   1.860   0.035   5.543
 6548SOL    HW220205   1.949   0.140   5.605
 6549SOL     OW20206   1.929   3.871   5.898
 6549SOL    HW120207   1.915   3.959   5.865
 6549SOL    HW220208   2.013   3.844   5.861
 6550SOL     OW20209   3.049   0.014   6.055
 6550SOL    HW120210   3.122   3.952   6.047
 6550SOL    HW220211   3.077   0.073   6.126
 6551SOL     OW20212   3.647   0.053   7.222
 6551SOL    HW120213   3.613   0.080   7.137
 6551SOL    HW220214   3.573   0.013   7.266
 6552SOL     OW20215   3.681   3.912   6.824
 6552SOL    HW120216   3.673   3.820   6.848
 6552SOL    HW220217   3.687   3.912   6.728
 6553SOL     OW20218   3.300   3.937   6.705
 6553SOL    HW120219   3.330   3.858   6.749
 6553SOL    HW220220   3.239   3.977   6.767
 6554SOL     OW20221   2.873   3.740   6.738
 6554SOL    HW120222   2.815   3.681   6.690
 6554SOL    HW220223   2.959   3.698   6.732
 6555SOL     OW20224   3.214   3.773   5.743
 6555SOL    HW120225   3.243   3.707   5.680
 6555SOL    HW220226   3.128   3.742   5.771
 6556SOL     OW20227   3.148   0.162   6.271
 6556SOL    HW120228   3.134   0.256   6.277
 6556SOL    HW220229   3.156   0.133   6.362
 6557SOL     OW20230   3.443   3.933   6.461
 6557SOL    HW120231   3.386   3.934   6.537
 6557SOL    HW220232   3.442   0.023   6.429
 6558SOL     OW20233   2.094   3.986   8.434
 6558SOL    HW120234   2.119   3.967   8.524
 6558SOL    HW220235   2.004   3.954   8.427
 6559SOL     OW20236   1.880   0.063   8.153
 6559SOL    HW120237   1.810   0.125   8.134
 6559SOL    HW220238   1.892   0.013   8.072
 6560SOL     OW20239   3.638   0.321   7.639
 6560SOL    HW120240   3.563   0.313   7.580
 6560SOL    HW220241   3.599   0.329   7.726
 6561SOL     OW20242   2.298   0.101   8.955
 6561SOL    HW120243   2.373   0.059   8.913
 6561SOL    HW220244   2.224   0.044   8.934
 6562SOL     OW20245   3.460   3.845   8.914
 6562SOL    HW120246   3.456   3.928   8.868
 6562SOL    HW220247   3.448   3.868   9.007
 6563SOL     OW20248   2.668   3.728   7.948
 6563SOL    HW120249   2.696   3.819   7.942
 6563SOL    HW220250   2.573   3.732   7.962
 6564SOL     OW20251   3.132   0.063   8.389
 6564SOL    HW120252   3.062   0.007   8.356
 6564SOL    HW220253   3.188   0.005   8.440
 6565SOL     OW20254   2.415   3.907   8.336
 6565SOL    HW120255   2.410   3.926   8.430
 6565SOL    HW220256   2.410   3.993   8.295
 6566SOL     OW20257   2.053   3.984   8.940
 6566SOL    HW120258   1.996   0.061   8.936
 6566SOL    HW220259   2.025   3.938   9.019
 6567SOL     OW20260   3.266   3.837   7.872
 6567SOL    HW120261   3.256   3.800   7.784
 6567SOL    HW220262   3.359   3.826   7.892
 6568SOL     OW20263   3.398   3.944   9.173
 6568SOL    HW120264   3.422   3.949   9.265
 6568SOL    HW220265   3.335   3.872   9.169
 6569SOL     OW20266   2.485   3.851   7.568
 6569SOL    HW120267   2.575   3.819   7.576
 6569SOL    HW220268   2.451   3.806   7.490
 6570SOL     OW20269   2.636   3.965   9.193
 6570SOL    HW120270   2.694   3.932   9.262
 6570SOL    HW220271   2.553   3.980   9.237
 6571SOL     OW20272   2.394   3.787   7.956
 6571SOL    HW120273   2.342   3.792   8.037
 6571SOL    HW220274   2.408   3.878   7.931
 6572SOL     OW20275   2.152   3.753   7.626
 6572SOL    HW120276   2.197   3.835   7.604
 6572SOL    HW220277   2.221   3.699   7.666
 6573SOL     OW20278   2.423   3.943   8.612
 6573SOL    HW120279   2.460   3.866   8.653
 6573SOL    HW220280   2.331   3.944   8.641
 6574SOL     OW20281   2.879   3.770   8.196
 6574SOL    HW120282   2.817   3.758   8.124
 6574SOL    HW220283   2.857   3.702   8.259
 6575SOL     OW20284   2.783   3.806   8.851
 6575SOL    HW120285   2.810   3.788   8.761
 6575SOL    HW220286   2.855   3.857   8.888
 6576SOL     OW20287   3.126   0.081   8.711
 6576SOL    HW120288   3.147   0.148   8.776
 6576SOL    HW220289   3.056   0.120   8.659
 6577SOL     OW20290   2.367   3.751   9.199
 6577SOL    HW120291   2.318   3.705   9.131
 6577SOL    HW220292   2.324   3.836   9.207
 6578SOL     OW20293   2.159   3.925   8.700
 6578SOL    HW120294   2.118   3.943   8.784
 6578SOL    HW220295   2.144   3.831   8.686
 6579SOL     OW20296   3.440   3.960   7.572
 6579SOL    HW120297   3.376   3.902   7.614
 6579SOL    HW220298   3.452   0.032   7.635
 6580SOL     OW20299   3.026   3.927   8.921
 6580SOL    HW120300   3.030   3.997   8.986
 6580SOL    HW220301   3.063   3.965   8.842
 6581SOL     OW20302   2.763   3.812   7.560
 6581SOL    HW120303   2.826   3.785   7.493
 6581SOL    HW220304   2.802   3.784   7.642
 6582SOL     OW20305   3.586   3.861   7.969
 6582SOL    HW120306   3.655   3.846   7.904
 6582SOL    HW220307   3.568   3.774   8.005
 6583SOL     OW20308   3.696   3.896   8.413
 6583SOL    HW120309   3.730   3.810   8.387
 6583SOL    HW220310   3.610   3.901   8.371
 6584SOL     OW20311   2.532   3.913   8.944
 6584SOL    HW120312   2.614   3.909   8.894
 6584SOL    HW220313   2.559   3.934   9.033
 6585SOL     OW20314   1.911   0.053   7.484
 6585SOL    HW120315   1.860   0.035   7.405
 6585SOL    HW220316   1.949   0.140   7.467
 6586SOL     OW20317   1.929   3.871   7.761
 6586SOL    HW120318   1.915   3.959   7.727
 6586SOL    HW220319   2.013   3.844   7.723
 6587SOL     OW20320   3.049   0.014   7.918
 6587SOL    HW120321   3.121   3.952   7.909
 6587SOL    HW220322   3.077   0.072   7.988
 6588SOL     OW20323   3.648   0.053   9.083
 6588SOL    HW120324   3.613   0.080   8.998
 6588SOL    HW220325   3.573   0.013   9.128
 6589SOL     OW20326   3.681   3.912   8.686
 6589SOL    HW120327   3.673   3.820   8.710
 6589SOL    HW220328   3.687   3.912   8.590
 6590SOL     OW20329   3.299   3.937   8.567
 6590SOL    HW120330   3.331   3.858   8.612
 6590SOL    HW220331   3.239   3.977   8.628
 6591SOL     OW20332   2.873   3.740   8.600
 6591SOL    HW120333   2.815   3.681   8.551
 6591SOL    HW220334   2.959   3.699   8.594
 6592SOL     OW20335   3.214   3.773   7.605
 6592SOL    HW120336   3.243   3.707   7.542
 6592SOL    HW220337   3.128   3.742   7.633
 6593SOL     OW20338   3.147   0.162   8.133
 6593SOL    HW120339   3.134   0.257   8.139
 6593SOL    HW220340   3.156   0.134   8.224
 6594SOL     OW20341   3.443   3.933   8.323
 6594SOL    HW120342   3.386   3.934   8.399
 6594SOL    HW220343   3.442   0.023   8.291
 6595SOL     OW20344   2.094   3.986  10.296
 6595SOL    HW120345   2.119   3.967  10.386
 6595SOL    HW220346   2.004   3.954  10.289
 6596SOL     OW20347   1.880   0.063  10.015
 6596SOL    HW120348   1.809   0.124   9.996
 6596SOL    HW220349   1.891   0.013   9.934
 6597SOL     OW20350   3.638   0.320   9.501
 6597SOL    HW120351   3.563   0.313   9.442
 6597SOL    HW220352   3.600   0.329   9.588
 6598SOL     OW20353   2.297   0.101  10.817
 6598SOL    HW120354   2.373   0.060  10.775
 6598SOL    HW220355   2.224   0.043  10.796
 6599SOL     OW20356   3.460   3.845  10.776
 6599SOL    HW120357   3.455   3.928  10.730
 6599SOL    HW220358   3.448   3.868  10.869
 6600SOL     OW20359   2.668   3.728   9.810
 6600SOL    HW120360   2.696   3.819   9.804
 6600SOL    HW220361   2.574   3.732   9.824
 6601SOL     OW20362   3.132   0.063  10.250
 6601SOL    HW120363   3.062   0.007  10.219
 6601SOL    HW220364   3.188   0.005  10.302
 6602SOL     OW20365   2.415   3.907  10.198
 6602SOL    HW120366   2.410   3.925  10.292
 6602SOL    HW220367   2.410   3.993  10.157
 6603SOL     OW20368   2.053   3.984  10.802
 6603SOL    HW120369   1.997   0.061  10.799
 6603SOL    HW220370   2.025   3.938  10.881
 6604SOL     OW20371   3.266   3.837   9.734
 6604SOL    HW120372   3.256   3.800   9.646
 6604SOL    HW220373   3.359   3.826   9.754
 6605SOL     OW20374   3.398   3.944  11.035
 6605SOL    HW120375   3.422   3.949  11.127
 6605SOL    HW220376   3.335   3.872  11.031
 6606SOL     OW20377   2.485   3.851   9.430
 6606SOL    HW120378   2.575   3.819   9.438
 6606SOL    HW220379   2.451   3.806   9.352
 6607SOL     OW20380   2.636   3.965  11.055
 6607SOL    HW120381   2.694   3.932  11.124
 6607SOL    HW220382   2.553   3.980  11.099
 6608SOL     OW20383   2.394   3.787   9.818
 6608SOL    HW120384   2.342   3.791   9.899
 6608SOL    HW220385   2.408   3.878   9.794
 6609SOL     OW20386   2.153   3.753   9.487
 6609SOL    HW120387   2.196   3.836   9.467
 6609SOL    HW220388   2.221   3.699   9.528
 6610SOL     OW20389   2.423   3.943  10.474
 6610SOL    HW120390   2.460   3.866  10.516
 6610SOL    HW220391   2.331   3.944  10.503
 6611SOL     OW20392   2.879   3.770  10.058
 6611SOL    HW120393   2.817   3.758   9.986
 6611SOL    HW220394   2.857   3.702  10.120
 6612SOL     OW20395   2.783   3.806  10.713
 6612SOL    HW120396   2.810   3.788  10.623
 6612SOL    HW220397   2.855   3.857  10.750
 6613SOL     OW20398   3.126   0.081  10.573
 6613SOL    HW120399   3.147   0.148  10.638
 6613SOL    HW220400   3.056   0.120  10.521
 6614SOL     OW20401   2.367   3.751  11.061
 6614SOL    HW120402   2.318   3.705  10.993
 6614SOL    HW220403   2.324   3.836  11.069
 6615SOL     OW20404   2.159   3.925  10.562
 6615SOL    HW120405   2.118   3.943  10.646
 6615SOL    HW220406   2.144   3.831  10.548
 6616SOL     OW20407   3.440   3.960   9.434
 6616SOL    HW120408   3.376   3.902   9.476
 6616SOL    HW220409   3.452   0.032   9.496
 6617SOL     OW20410   3.026   3.927  10.783
 6617SOL    HW120411   3.030   3.997  10.848
 6617SOL    HW220412   3.063   3.965  10.704
 6618SOL     OW20413   2.763   3.813   9.422
 6618SOL    HW120414   2.826   3.786   9.355
 6618SOL    HW220415   2.802   3.785   9.505
 6619SOL     OW20416   3.586   3.861   9.831
 6619SOL    HW120417   3.655   3.846   9.766
 6619SOL    HW220418   3.568   3.774   9.867
 6620SOL     OW20419   3.696   3.896  10.275
 6620SOL    HW120420   3.730   3.810  10.249
 6620SOL    HW220421   3.610   3.901  10.233
 6621SOL     OW20422   2.532   3.913  10.806
 6621SOL    HW120423   2.614   3.909  10.756
 6621SOL    HW220424   2.559   3.934  10.895
 6622SOL     OW20425   1.912   0.053   9.345
 6622SOL    HW120426   1.860   0.035   9.267
 6622SOL    HW220427   1.949   0.140   9.329
 6623SOL     OW20428   1.929   3.871   9.622
 6623SOL    HW120429   1.915   3.959   9.589
 6623SOL    HW220430   2.013   3.844   9.585
 6624SOL     OW20431   3.049   0.014   9.780
 6624SOL    HW120432   3.122   3.952   9.771
 6624SOL    HW220433   3.076   0.072   9.850
 6625SOL     OW20434   3.648   0.052  10.945
 6625SOL    HW120435   3.613   0.080  10.860
 6625SOL    HW220436   3.573   0.013  10.990
 6626SOL     OW20437   3.681   3.912  10.548
 6626SOL    HW120438   3.673   3.820  10.572
 6626SOL    HW220439   3.687   3.912  10.452
 6627SOL     OW20440   3.299   3.936  10.429
 6627SOL    HW120441   3.331   3.858  10.474
 6627SOL    HW220442   3.239   3.977  10.490
 6628SOL     OW20443   2.873   3.740  10.462
 6628SOL    HW120444   2.815   3.681  10.414
 6628SOL    HW220445   2.959   3.699  10.456
 6629SOL     OW20446   3.214   3.773   9.467
 6629SOL    HW120447   3.243   3.707   9.404
 6629SOL    HW220448   3.128   3.742   9.495
 6630SOL     OW20449   3.147   0.162   9.995
 6630SOL    HW120450   3.134   0.257  10.001
 6630SOL    HW220451   3.156   0.133  10.086
 6631SOL     OW20452   3.443   3.933  10.185
 6631SOL    HW120453   3.386   3.934  10.261
 6631SOL    HW220454   3.442   0.023  10.153
 6632SOL     OW20455   2.094   3.986  12.158
 6632SOL    HW120456   2.119   3.967  12.248
 6632SOL    HW220457   2.004   3.954  12.151
 6633SOL     OW20458   1.880   0.063  11.877
 6633SOL    HW120459   1.809   0.124  11.858
 6633SOL    HW220460   1.892   0.013  11.796
 6634SOL     OW20461   3.638   0.320  11.363
 6634SOL    HW120462   3.563   0.313  11.304
 6634SOL    HW220463   3.600   0.329  11.450
 6635SOL     OW20464   2.298   0.101  12.679
 6635SOL    HW120465   2.373   0.060  12.637
 6635SOL    HW220466   2.224   0.044  12.658
 6636SOL     OW20467   3.460   3.845  12.638
 6636SOL    HW120468   3.455   3.929  12.592
 6636SOL    HW220469   3.448   3.868  12.730
 6637SOL     OW20470   2.668   3.728  11.672
 6637SOL    HW120471   2.696   3.819  11.666
 6637SOL    HW220472   2.574   3.732  11.686
 6638SOL     OW20473   3.132   0.063  12.112
 6638SOL    HW120474   3.062   0.007  12.081
 6638SOL    HW220475   3.188   0.005  12.164
 6639SOL     OW20476   2.415   3.907  12.060
 6639SOL    HW120477   2.410   3.925  12.154
 6639SOL    HW220478   2.410   3.993  12.019
 6640SOL     OW20479   2.053   3.984  12.664
 6640SOL    HW120480   1.996   0.061  12.661
 6640SOL    HW220481   2.025   3.938  12.743
 6641SOL     OW20482   3.266   3.837  11.596
 6641SOL    HW120483   3.256   3.800  11.508
 6641SOL    HW220484   3.359   3.826  11.616
 6642SOL     OW20485   3.398   3.944  12.896
 6642SOL    HW120486   3.421   3.950  12.989
 6642SOL    HW220487   3.335   3.872  12.893
 6643SOL     OW20488   2.485   3.851  11.292
 6643SOL    HW120489   2.575   3.819  11.300
 6643SOL    HW220490   2.451   3.806  11.214
 6644SOL     OW20491   2.636   3.965  12.917
 6644SOL    HW120492   2.694   3.932  12.986
 6644SOL    HW220493   2.552   3.979  12.961
 6645SOL     OW20494   2.393   3.787  11.680
 6645SOL    HW120495   2.342   3.791  11.761
 6645SOL    HW220496   2.408   3.878  11.656
 6646SOL     OW20497   2.153   3.753  11.349
 6646SOL    HW120498   2.196   3.836  11.329
 6646SOL    HW220499   2.221   3.699  11.390
 6647SOL     OW20500   2.423   3.943  12.336
 6647SOL    HW120501   2.460   3.866  12.378
 6647SOL    HW220502   2.331   3.944  12.365
 6648SOL     OW20503   2.879   3.770  11.920
 6648SOL    HW120504   2.817   3.758  11.848
 6648SOL    HW220505   2.857   3.702  11.982
 6649SOL     OW20506   2.783   3.806  12.575
 6649SOL    HW120507   2.810   3.788  12.485
 6649SOL    HW220508   2.855   3.857  12.612
 6650SOL     OW20509   3.126   0.081  12.435
 6650SOL    HW120510   3.147   0.148  12.500
 6650SOL    HW220511   3.056   0.120  12.383
 6651SOL     OW20512   2.367   3.751  12.923
 6651SOL    HW120513   2.318   3.705  12.856
 6651SOL    HW220514   2.323   3.836  12.931
 6652SOL     OW20515   2.159   3.925  12.424
 6652SOL    HW120516   2.118   3.943  12.508
 6652SOL    HW220517   2.144   3.831  12.410
 6653SOL     OW20518   3.440   3.960  11.296
 6653SOL    HW120519   3.376   3.902  11.338
 6653SOL    HW220520   3.452   0.032  11.358
 6654SOL     OW20521   3.026   3.927  12.645
 6654SOL    HW120522   3.030   3.997  12.710
 6654SOL    HW220523   3.063   3.965  12.566
 6655SOL     OW20524   2.763   3.813  11.284
 6655SOL    HW120525   2.826   3.786  11.217
 6655SOL    HW220526   2.802   3.785  11.367
 6656SOL     OW20527   3.586   3.861  11.693
 6656SOL    HW120528   3.655   3.846  11.628
 6656SOL    HW220529   3.568   3.774  11.730
 6657SOL     OW20530   3.696   3.896  12.137
 6657SOL    HW120531   3.730   3.810  12.111
 6657SOL    HW220532   3.610   3.901  12.095
 6658SOL     OW20533   2.532   3.913  12.668
 6658SOL    HW120534   2.614   3.909  12.618
 6658SOL    HW220535   2.559   3.935  12.757
 6659SOL     OW20536   1.912   0.053  11.207
 6659SOL    HW120537   1.860   0.035  11.129
 6659SOL    HW220538   1.949   0.140  11.191
 6660SOL     OW20539   1.929   3.871  11.484
 6660SOL    HW120540   1.915   3.959  11.451
 6660SOL    HW220541   2.013   3.844  11.447
 6661SOL     OW20542   3.049   0.014  11.641
 6661SOL    HW120543   3.122   3.952  11.633
 6661SOL    HW220544   3.076   0.072  11.712
 6662SOL     OW20545   3.648   0.053  12.807
 6662SOL    HW120546   3.612   0.080  12.722
 6662SOL    HW220547   3.573   0.012  12.852
 6663SOL     OW20548   3.682   3.912  12.410
 6663SOL    HW120549   3.673   3.820  12.434
 6663SOL    HW220550   3.688   3.912  12.314
 6664SOL     OW20551   3.299   3.936  12.291
 6664SOL    HW120552   3.331   3.858  12.336
 6664SOL    HW220553   3.239   3.977  12.352
 6665SOL     OW20554   2.873   3.740  12.324
 6665SOL    HW120555   2.815   3.681  12.276
 6665SOL    HW220556   2.959   3.699  12.318
 6666SOL     OW20557   3.214   3.773  11.329
 6666SOL    HW120558   3.243   3.707  11.266
 6666SOL    HW220559   3.128   3.742  11.357
 6667SOL     OW20560   3.147   0.162  11.857
 6667SOL    HW120561   3.134   0.257  11.863
 6667SOL    HW220562   3.156   0.133  11.948
 6668SOL     OW20563   3.443   3.933  12.047
 6668SOL    HW120564   3.386   3.934  12.123
 6668SOL    HW220565   3.442   0.023  12.015
 6669SOL     OW20566   1.885   0.091  13.688
 6669SOL    HW120567   1.805   0.107  13.737
 6669SOL    HW220568   1.874   0.003  13.651
 6670SOL     OW20569   3.638   0.319  13.225
 6670SOL    HW120570   3.562   0.313  13.167
 6670SOL    HW220571   3.601   0.319  13.313
 6671SOL     OW20572   3.469   0.174  13.763
 6671SOL    HW120573   3.381   0.170  13.726
 6671SOL    HW220574   3.468   0.254  13.817
 6672SOL     OW20575   2.670   3.728  13.536
 6672SOL    HW120576   2.695   3.820  13.529
 6672SOL    HW220577   2.575   3.731  13.548
 6673SOL     OW20578   3.266   3.837  13.458
 6673SOL    HW120579   3.259   3.800  13.370
 6673SOL    HW220580   3.359   3.830  13.479
 6674SOL     OW20581   2.485   3.851  13.153
 6674SOL    HW120582   2.575   3.819  13.162
 6674SOL    HW220583   2.451   3.806  13.076
 6675SOL     OW20584   2.396   3.785  13.541
 6675SOL    HW120585   2.338   3.782  13.618
 6675SOL    HW220586   2.406   3.879  13.523
 6676SOL     OW20587   2.153   3.753  13.210
 6676SOL    HW120588   2.198   3.835  13.190
 6676SOL    HW220589   2.220   3.699  13.252
 6677SOL     OW20590   2.873   3.768  13.780
 6677SOL    HW120591   2.817   3.762  13.702
 6677SOL    HW220592   2.854   3.688  13.829
 6678SOL     OW20593   3.438   3.963  13.158
 6678SOL    HW120594   3.378   3.901  13.201
 6678SOL    HW220595   3.460   0.026  13.225
 6679SOL     OW20596   2.763   3.813  13.146
 6679SOL    HW120597   2.826   3.786  13.079
 6679SOL    HW220598   2.803   3.783  13.228
 6680SOL     OW20599   3.589   3.858  13.562
 6680SOL    HW120600   3.656   3.846  13.494
 6680SOL    HW220601   3.571   3.769  13.593
 6681SOL     OW20602   3.710   3.888   0.052
 6681SOL    HW120603   3.738   3.797   0.060
 6681SOL    HW220604   3.618   3.888   0.079
 6682SOL     OW20605   1.912   0.053  13.069
 6682SOL    HW120606   1.860   0.035  12.991
 6682SOL    HW220607   1.949   0.140  13.053
 6683SOL     OW20608   1.928   3.871  13.346
 6683SOL    HW120609   1.915   3.961  13.316
 6683SOL    HW220610   2.012   3.845  13.308
 6684SOL     OW20611   3.047   0.009  13.509
 6684SOL    HW120612   3.122   3.952  13.493
 6684SOL    HW220613   3.078   0.072  13.574
 6685SOL     OW20614   3.214   3.773  13.191
 6685SOL    HW120615   3.243   3.707  13.128
 6685SOL    HW220616   3.128   3.742  13.220
 6686SOL     OW20617   3.166   0.161  13.730
 6686SOL    HW120618   3.125   0.246  13.717
 6686SOL    HW220619   3.161   0.147  13.825
 6687SOL     OW20620   3.955   0.633   0.122
 6687SOL    HW120621   3.880   0.624   0.182
 6687SOL    HW220622   3.931   0.581   0.046
 6688SOL     OW20623   3.951   0.291   0.988
 6688SOL    HW120624   3.967   0.273   1.081
 6688SOL    HW220625   3.864   0.254   0.971
 6689SOL     OW20626   3.732   0.391   0.640
 6689SOL    HW120627   3.645   0.406   0.678
 6689SOL    HW220628   3.721   0.313   0.585
 6690SOL     OW20629   0.016   1.514   1.050
 6690SOL    HW120630   3.973   1.430   1.033
 6690SOL    HW220631   0.087   1.518   0.987
 6691SOL     OW20632   3.944   1.718   0.472
 6691SOL    HW120633   3.955   1.791   0.533
 6691SOL    HW220634   0.030   1.705   0.435
 6692SOL     OW20635   3.938   1.438   0.512
 6692SOL    HW120636   3.927   1.533   0.519
 6692SOL    HW220637   3.884   1.402   0.582
 6693SOL     OW20638   3.814   0.648   0.556
 6693SOL    HW120639   3.800   0.556   0.581
 6693SOL    HW220640   3.818   0.695   0.639
 6694SOL     OW20641   3.702   1.615   0.105
 6694SOL    HW120642   3.736   1.527   0.122
 6694SOL    HW220643   3.704   1.658   0.190
 6695SOL     OW20644   3.832   0.746   1.579
 6695SOL    HW120645   3.917   0.771   1.613
 6695SOL    HW220646   3.780   0.826   1.581
 6696SOL     OW20647   3.802   0.817   0.773
 6696SOL    HW120648   3.895   0.808   0.797
 6696SOL    HW220649   3.772   0.893   0.823
 6697SOL     OW20650   3.849   1.855   1.568
 6697SOL    HW120651   3.852   1.825   1.659
 6697SOL    HW220652   3.759   1.839   1.540
 6698SOL     OW20653   3.924   0.309   1.517
 6698SOL    HW120654   3.846   0.352   1.483
 6698SOL    HW220655   3.892   0.246   1.581
 6699SOL     OW20656   3.803   0.550   1.389
 6699SOL    HW120657   3.898   0.546   1.376
 6699SOL    HW220658   3.791   0.626   1.447
 6700SOL     OW20659   3.788   1.571   1.347
 6700SOL    HW120660   3.760   1.639   1.285
 6700SOL    HW220661   3.883   1.577   1.348
 6701SOL     OW20662   0.070   1.089   0.523
 6701SOL    HW120663   0.085   1.154   0.455
 6701SOL    HW220664   0.133   1.020   0.505
 6702SOL     OW20665   0.011   0.216   1.241
 6702SOL    HW120666   3.987   0.241   1.330
 6702SOL    HW220667   0.008   0.120   1.243
 6703SOL     OW20668   3.755   1.310   1.278
 6703SOL    HW120669   3.801   1.263   1.347
 6703SOL    HW220670   3.768   1.402   1.300
 6704SOL     OW20671   3.740   1.316   0.175
 6704SOL    HW120672   3.657   1.330   0.129
 6704SOL    HW220673   3.729   1.232   0.220
 6705SOL     OW20674   3.802   1.796   0.935
 6705SOL    HW120675   3.781   1.713   0.892
 6705SOL    HW220676   3.895   1.808   0.919
 6706SOL     OW20677   0.218   1.557   0.879
 6706SOL    HW120678   0.283   1.626   0.882
 6706SOL    HW220679   0.250   1.496   0.812
 6707SOL     OW20680   3.754   0.535   1.116
 6707SOL    HW120681   3.835   0.523   1.066
 6707SOL    HW220682   3.783   0.550   1.206
 6708SOL     OW20683   3.910   0.529   1.716
 6708SOL    HW120684   3.949   0.478   1.645
 6708SOL    HW220685   3.858   0.595   1.671
 6709SOL     OW20686   3.947   1.540   1.727
 6709SOL    HW120687   3.943   1.612   1.790
 6709SOL    HW220688   3.985   1.467   1.777
 6710SOL     OW20689   3.859   1.123   1.475
 6710SOL    HW120690   3.929   1.109   1.538
 6710SOL    HW220691   3.896   1.096   1.391
 6711SOL     OW20692   3.811   1.263   1.015
 6711SOL    HW120693   3.786   1.276   1.106
 6711SOL    HW220694   3.744   1.204   0.980
 6712SOL     OW20695   3.839   1.795   1.830
 6712SOL    HW120696   3.790   1.727   1.877
 6712SOL    HW220697   3.893   1.836   1.897
 6713SOL     OW20698   3.805   0.399   0.005
 6713SOL    HW120699   3.766   0.316   0.033
 6713SOL    HW220700   3.775   0.411  13.815
 6714SOL     OW20701   3.794   0.149   0.341
 6714SOL    HW120702   3.764   0.226   0.294
 6714SOL    HW220703   3.890   0.158   0.343
 6715SOL     OW20704   3.800   1.236   0.661
 6715SOL    HW120705   3.795   1.188   0.744
 6715SOL    HW220706   3.884   1.210   0.623
 6716SOL     OW20707   3.752   1.078   0.306
 6716SOL    HW120708   3.847   1.081   0.297
 6716SOL    HW220709   3.732   0.987   0.329
 6717SOL     OW20710   3.956   0.629   1.972
 6717SOL    HW120711   3.873   0.631   2.020
 6717SOL    HW220712   3.933   0.597   1.885
 6718SOL     OW20713   3.952   0.289   2.850
 6718SOL    HW120714   3.967   0.273   2.943
 6718SOL    HW220715   3.864   0.254   2.833
 6719SOL     OW20716   3.731   0.390   2.502
 6719SOL    HW120717   3.645   0.406   2.540
 6719SOL    HW220718   3.719   0.313   2.447
 6720SOL     OW20719   0.015   1.514   2.911
 6720SOL    HW120720   3.973   1.430   2.895
 6720SOL    HW220721   0.087   1.518   2.848
 6721SOL     OW20722   3.940   1.719   2.335
 6721SOL    HW120723   3.954   1.791   2.396
 6721SOL    HW220724   0.027   1.699   2.300
 6722SOL     OW20725   3.941   1.439   2.375
 6722SOL    HW120726   3.923   1.532   2.382
 6722SOL    HW220727   3.885   1.398   2.441
 6723SOL     OW20728   3.814   0.648   2.418
 6723SOL    HW120729   3.801   0.556   2.444
 6723SOL    HW220730   3.818   0.695   2.501
 6724SOL     OW20731   3.752   1.597   1.991
 6724SOL    HW120732   3.732   1.505   2.009
 6724SOL    HW220733   3.722   1.644   2.069
 6725SOL     OW20734   3.832   0.746   3.441
 6725SOL    HW120735   3.917   0.771   3.475
 6725SOL    HW220736   3.780   0.826   3.443
 6726SOL     OW20737   3.802   0.816   2.635
 6726SOL    HW120738   3.895   0.808   2.659
 6726SOL    HW220739   3.772   0.892   2.685
 6727SOL     OW20740   3.849   1.855   3.430
 6727SOL    HW120741   3.852   1.825   3.521
 6727SOL    HW220742   3.759   1.839   3.402
 6728SOL     OW20743   3.924   0.309   3.379
 6728SOL    HW120744   3.846   0.352   3.345
 6728SOL    HW220745   3.892   0.247   3.444
 6729SOL     OW20746   3.803   0.550   3.251
 6729SOL    HW120747   3.898   0.546   3.238
 6729SOL    HW220748   3.791   0.626   3.309
 6730SOL     OW20749   0.266   0.286   2.197
 6730SOL    HW120750   0.301   0.222   2.134
 6730SOL    HW220751   0.285   0.371   2.157
 6731SOL     OW20752   3.788   1.571   3.209
 6731SOL    HW120753   3.760   1.639   3.147
 6731SOL    HW220754   3.883   1.577   3.210
 6732SOL     OW20755   0.072   1.089   2.382
 6732SOL    HW120756   0.074   1.147   2.306
 6732SOL    HW220757   0.125   1.014   2.356
 6733SOL     OW20758   0.011   0.216   3.103
 6733SOL    HW120759   3.987   0.242   3.192
 6733SOL    HW220760   0.008   0.120   3.105
 6734SOL     OW20761   3.755   1.310   3.141
 6734SOL    HW120762   3.801   1.263   3.210
 6734SOL    HW220763   3.768   1.402   3.162
 6735SOL     OW20764   3.730   1.326   2.050
 6735SOL    HW120765   3.643   1.339   2.012
 6735SOL    HW220766   3.725   1.241   2.093
 6736SOL     OW20767   3.802   1.796   2.797
 6736SOL    HW120768   3.781   1.713   2.754
 6736SOL    HW220769   3.895   1.808   2.781
 6737SOL     OW20770   0.218   1.557   2.741
 6737SOL    HW120771   0.283   1.626   2.744
 6737SOL    HW220772   0.251   1.495   2.676
 6738SOL     OW20773   3.754   0.535   2.978
 6738SOL    HW120774   3.835   0.524   2.929
 6738SOL    HW220775   3.783   0.549   3.068
 6739SOL     OW20776   3.910   0.529   3.578
 6739SOL    HW120777   3.950   0.478   3.508
 6739SOL    HW220778   3.858   0.595   3.534
 6740SOL     OW20779   3.947   1.540   3.589
 6740SOL    HW120780   3.943   1.612   3.652
 6740SOL    HW220781   3.985   1.467   3.639
 6741SOL     OW20782   3.859   1.123   3.337
 6741SOL    HW120783   3.929   1.109   3.400
 6741SOL    HW220784   3.896   1.096   3.253
 6742SOL     OW20785   3.811   1.263   2.877
 6742SOL    HW120786   3.786   1.275   2.969
 6742SOL    HW220787   3.744   1.204   2.842
 6743SOL     OW20788   3.839   1.795   3.692
 6743SOL    HW120789   3.790   1.727   3.739
 6743SOL    HW220790   3.893   1.836   3.759
 6744SOL     OW20791   3.822   0.318   1.852
 6744SOL    HW120792   3.742   0.333   1.903
 6744SOL    HW220793   3.833   0.399   1.802
 6745SOL     OW20794   3.784   0.152   2.206
 6745SOL    HW120795   3.753   0.213   2.139
 6745SOL    HW220796   3.879   0.147   2.192
 6746SOL     OW20797   3.800   1.239   2.524
 6746SOL    HW120798   3.795   1.189   2.606
 6746SOL    HW220799   3.881   1.208   2.482
 6747SOL     OW20800   3.753   1.081   2.170
 6747SOL    HW120801   3.844   1.081   2.140
 6747SOL    HW220802   3.734   0.990   2.190
 6748SOL     OW20803   3.956   0.629   3.834
 6748SOL    HW120804   3.873   0.631   3.882
 6748SOL    HW220805   3.933   0.597   3.747
 6749SOL     OW20806   3.952   0.289   4.712
 6749SOL    HW120807   3.967   0.273   4.805
 6749SOL    HW220808   3.864   0.254   4.695
 6750SOL     OW20809   3.731   0.390   4.364
 6750SOL    HW120810   3.645   0.406   4.402
 6750SOL    HW220811   3.719   0.313   4.309
 6751SOL     OW20812   0.015   1.514   4.774
 6751SOL    HW120813   3.973   1.430   4.757
 6751SOL    HW220814   0.087   1.518   4.710
 6752SOL     OW20815   3.940   1.719   4.197
 6752SOL    HW120816   3.954   1.791   4.258
 6752SOL    HW220817   0.027   1.699   4.162
 6753SOL     OW20818   3.941   1.439   4.237
 6753SOL    HW120819   3.923   1.532   4.244
 6753SOL    HW220820   3.885   1.398   4.303
 6754SOL     OW20821   3.814   0.648   4.280
 6754SOL    HW120822   3.801   0.556   4.306
 6754SOL    HW220823   3.818   0.695   4.363
 6755SOL     OW20824   3.752   1.597   3.853
 6755SOL    HW120825   3.732   1.505   3.871
 6755SOL    HW220826   3.722   1.644   3.931
 6756SOL     OW20827   3.832   0.746   5.303
 6756SOL    HW120828   3.917   0.771   5.337
 6756SOL    HW220829   3.780   0.826   5.305
 6757SOL     OW20830   3.802   0.816   4.497
 6757SOL    HW120831   3.895   0.808   4.521
 6757SOL    HW220832   3.772   0.892   4.547
 6758SOL     OW20833   3.849   1.855   5.292
 6758SOL    HW120834   3.852   1.825   5.383
 6758SOL    HW220835   3.759   1.839   5.264
 6759SOL     OW20836   3.924   0.309   5.240
 6759SOL    HW120837   3.846   0.352   5.207
 6759SOL    HW220838   3.892   0.247   5.306
 6760SOL     OW20839   3.803   0.550   5.113
 6760SOL    HW120840   3.898   0.546   5.100
 6760SOL    HW220841   3.791   0.626   5.171
 6761SOL     OW20842   0.266   0.286   4.059
 6761SOL    HW120843   0.301   0.222   3.996
 6761SOL    HW220844   0.285   0.371   4.019
 6762SOL     OW20845   3.788   1.571   5.071
 6762SOL    HW120846   3.760   1.639   5.009
 6762SOL    HW220847   3.883   1.577   5.071
 6763SOL     OW20848   0.072   1.089   4.244
 6763SOL    HW120849   0.074   1.147   4.168
 6763SOL    HW220850   0.125   1.014   4.218
 6764SOL     OW20851   0.011   0.216   4.965
 6764SOL    HW120852   3.987   0.242   5.054
 6764SOL    HW220853   0.008   0.120   4.967
 6765SOL     OW20854   3.755   1.310   5.003
 6765SOL    HW120855   3.801   1.263   5.072
 6765SOL    HW220856   3.768   1.402   5.024
 6766SOL     OW20857   3.730   1.326   3.912
 6766SOL    HW120858   3.643   1.339   3.874
 6766SOL    HW220859   3.725   1.241   3.955
 6767SOL     OW20860   3.802   1.796   4.659
 6767SOL    HW120861   3.781   1.713   4.616
 6767SOL    HW220862   3.895   1.808   4.643
 6768SOL     OW20863   0.218   1.557   4.603
 6768SOL    HW120864   0.283   1.626   4.606
 6768SOL    HW220865   0.251   1.495   4.538
 6769SOL     OW20866   3.754   0.534   4.840
 6769SOL    HW120867   3.835   0.524   4.791
 6769SOL    HW220868   3.783   0.549   4.930
 6770SOL     OW20869   3.910   0.529   5.440
 6770SOL    HW120870   3.950   0.478   5.370
 6770SOL    HW220871   3.858   0.595   5.396
 6771SOL     OW20872   3.947   1.540   5.451
 6771SOL    HW120873   3.942   1.612   5.514
 6771SOL    HW220874   3.985   1.467   5.500
 6772SOL     OW20875   3.859   1.123   5.199
 6772SOL    HW120876   3.929   1.109   5.262
 6772SOL    HW220877   3.896   1.096   5.115
 6773SOL     OW20878   3.811   1.263   4.739
 6773SOL    HW120879   3.786   1.275   4.831
 6773SOL    HW220880   3.744   1.204   4.704
 6774SOL     OW20881   3.839   1.794   5.554
 6774SOL    HW120882   3.790   1.727   5.601
 6774SOL    HW220883   3.892   1.836   5.621
 6775SOL     OW20884   3.822   0.318   3.714
 6775SOL    HW120885   3.742   0.333   3.765
 6775SOL    HW220886   3.833   0.399   3.664
 6776SOL     OW20887   3.784   0.152   4.068
 6776SOL    HW120888   3.753   0.213   4.001
 6776SOL    HW220889   3.879   0.147   4.053
 6777SOL     OW20890   3.800   1.239   4.386
 6777SOL    HW120891   3.795   1.189   4.468
 6777SOL    HW220892   3.881   1.208   4.344
 6778SOL     OW20893   3.753   1.081   4.032
 6778SOL    HW120894   3.844   1.081   4.002
 6778SOL    HW220895   3.734   0.990   4.052
 6779SOL     OW20896   3.956   0.629   5.696
 6779SOL    HW120897   3.873   0.631   5.744
 6779SOL    HW220898   3.933   0.597   5.609
 6780SOL     OW20899   3.952   0.289   6.574
 6780SOL    HW120900   3.967   0.273   6.667
 6780SOL    HW220901   3.864   0.254   6.557
 6781SOL     OW20902   3.731   0.390   6.227
 6781SOL    HW120903   3.645   0.406   6.264
 6781SOL    HW220904   3.719   0.313   6.171
 6782SOL     OW20905   0.015   1.514   6.635
 6782SOL    HW120906   3.973   1.430   6.619
 6782SOL    HW220907   0.087   1.518   6.572
 6783SOL     OW20908   3.940   1.719   6.059
 6783SOL    HW120909   3.954   1.791   6.120
 6783SOL    HW220910   0.027   1.699   6.024
 6784SOL     OW20911   3.941   1.439   6.099
 6784SOL    HW120912   3.923   1.532   6.106
 6784SOL    HW220913   3.885   1.398   6.165
 6785SOL     OW20914   3.814   0.648   6.143
 6785SOL    HW120915   3.801   0.556   6.168
 6785SOL    HW220916   3.818   0.695   6.225
 6786SOL     OW20917   3.752   1.597   5.715
 6786SOL    HW120918   3.732   1.505   5.733
 6786SOL    HW220919   3.722   1.644   5.793
 6787SOL     OW20920   3.832   0.746   7.165
 6787SOL    HW120921   3.918   0.771   7.199
 6787SOL    HW220922   3.781   0.827   7.167
 6788SOL     OW20923   3.802   0.816   6.360
 6788SOL    HW120924   3.895   0.808   6.383
 6788SOL    HW220925   3.772   0.892   6.409
 6789SOL     OW20926   3.849   1.854   7.154
 6789SOL    HW120927   3.852   1.825   7.245
 6789SOL    HW220928   3.759   1.840   7.126
 6790SOL     OW20929   3.924   0.309   7.103
 6790SOL    HW120930   3.846   0.352   7.069
 6790SOL    HW220931   3.892   0.246   7.167
 6791SOL     OW20932   3.803   0.551   6.976
 6791SOL    HW120933   3.898   0.546   6.962
 6791SOL    HW220934   3.791   0.626   7.033
 6792SOL     OW20935   0.266   0.286   5.921
 6792SOL    HW120936   0.301   0.222   5.858
 6792SOL    HW220937   0.285   0.371   5.882
 6793SOL     OW20938   3.788   1.571   6.933
 6793SOL    HW120939   3.760   1.639   6.871
 6793SOL    HW220940   3.883   1.577   6.933
 6794SOL     OW20941   0.071   1.089   6.106
 6794SOL    HW120942   0.074   1.147   6.031
 6794SOL    HW220943   0.126   1.014   6.081
 6795SOL     OW20944   0.011   0.216   6.827
 6795SOL    HW120945   3.987   0.242   6.916
 6795SOL    HW220946   0.008   0.120   6.829
 6796SOL     OW20947   3.754   1.310   6.865
 6796SOL    HW120948   3.801   1.263   6.933
 6796SOL    HW220949   3.768   1.403   6.885
 6797SOL     OW20950   3.730   1.326   5.774
 6797SOL    HW120951   3.643   1.339   5.736
 6797SOL    HW220952   3.725   1.241   5.817
 6798SOL     OW20953   3.802   1.796   6.521
 6798SOL    HW120954   3.781   1.713   6.478
 6798SOL    HW220955   3.895   1.808   6.505
 6799SOL     OW20956   0.218   1.557   6.465
 6799SOL    HW120957   0.283   1.626   6.468
 6799SOL    HW220958   0.252   1.495   6.400
 6800SOL     OW20959   3.754   0.535   6.702
 6800SOL    HW120960   3.835   0.524   6.652
 6800SOL    HW220961   3.783   0.550   6.792
 6801SOL     OW20962   3.910   0.529   7.302
 6801SOL    HW120963   3.950   0.478   7.232
 6801SOL    HW220964   3.858   0.596   7.258
 6802SOL     OW20965   3.947   1.540   7.313
 6802SOL    HW120966   3.943   1.612   7.376
 6802SOL    HW220967   3.986   1.468   7.362
 6803SOL     OW20968   3.859   1.122   7.061
 6803SOL    HW120969   3.929   1.109   7.124
 6803SOL    HW220970   3.896   1.096   6.977
 6804SOL     OW20971   3.811   1.263   6.601
 6804SOL    HW120972   3.786   1.275   6.693
 6804SOL    HW220973   3.744   1.204   6.566
 6805SOL     OW20974   3.839   1.795   7.416
 6805SOL    HW120975   3.790   1.727   7.463
 6805SOL    HW220976   3.892   1.836   7.483
 6806SOL     OW20977   3.822   0.318   5.576
 6806SOL    HW120978   3.742   0.333   5.627
 6806SOL    HW220979   3.833   0.399   5.526
 6807SOL     OW20980   3.784   0.152   5.930
 6807SOL    HW120981   3.753   0.213   5.863
 6807SOL    HW220982   3.879   0.147   5.916
 6808SOL     OW20983   3.800   1.239   6.248
 6808SOL    HW120984   3.795   1.189   6.330
 6808SOL    HW220985   3.881   1.208   6.206
 6809SOL     OW20986   3.753   1.081   5.894
 6809SOL    HW120987   3.844   1.081   5.864
 6809SOL    HW220988   3.734   0.990   5.914
 6810SOL     OW20989   3.956   0.629   7.558
 6810SOL    HW120990   3.873   0.631   7.605
 6810SOL    HW220991   3.933   0.597   7.470
 6811SOL     OW20992   3.952   0.289   8.436
 6811SOL    HW120993   3.967   0.273   8.529
 6811SOL    HW220994   3.864   0.254   8.419
 6812SOL     OW20995   3.731   0.390   8.089
 6812SOL    HW120996   3.645   0.406   8.126
 6812SOL    HW220997   3.719   0.313   8.033
 6813SOL     OW20998   0.015   1.514   8.498
 6813SOL    HW120999   3.973   1.430   8.481
 6813SOL    HW221000   0.087   1.518   8.435
 6814SOL     OW21001   3.940   1.719   7.921
 6814SOL    HW121002   3.954   1.791   7.982
 6814SOL    HW221003   0.027   1.699   7.886
 6815SOL     OW21004   3.941   1.439   7.961
 6815SOL    HW121005   3.923   1.532   7.968
 6815SOL    HW221006   3.885   1.399   8.027
 6816SOL     OW21007   3.813   0.648   8.005
 6816SOL    HW121008   3.801   0.556   8.030
 6816SOL    HW221009   3.818   0.695   8.087
 6817SOL     OW21010   3.751   1.598   7.577
 6817SOL    HW121011   3.733   1.505   7.595
 6817SOL    HW221012   3.722   1.644   7.655
 6818SOL     OW21013   3.832   0.746   9.027
 6818SOL    HW121014   3.917   0.771   9.061
 6818SOL    HW221015   3.780   0.827   9.029
 6819SOL     OW21016   3.802   0.816   8.222
 6819SOL    HW121017   3.895   0.808   8.245
 6819SOL    HW221018   3.772   0.893   8.271
 6820SOL     OW21019   3.849   1.855   9.016
 6820SOL    HW121020   3.852   1.825   9.107
 6820SOL    HW221021   3.759   1.839   8.988
 6821SOL     OW21022   3.924   0.309   8.965
 6821SOL    HW121023   3.846   0.352   8.931
 6821SOL    HW221024   3.892   0.247   9.029
 6822SOL     OW21025   3.803   0.550   8.838
 6822SOL    HW121026   3.898   0.546   8.824
 6822SOL    HW221027   3.791   0.626   8.895
 6823SOL     OW21028   0.266   0.286   7.783
 6823SOL    HW121029   0.301   0.222   7.721
 6823SOL    HW221030   0.286   0.371   7.743
 6824SOL     OW21031   3.788   1.571   8.795
 6824SOL    HW121032   3.760   1.639   8.733
 6824SOL    HW221033   3.884   1.577   8.796
 6825SOL     OW21034   0.071   1.088   7.968
 6825SOL    HW121035   0.075   1.148   7.893
 6825SOL    HW221036   0.127   1.015   7.943
 6826SOL     OW21037   0.011   0.216   8.689
 6826SOL    HW121038   3.987   0.242   8.778
 6826SOL    HW221039   0.008   0.120   8.691
 6827SOL     OW21040   3.754   1.310   8.727
 6827SOL    HW121041   3.801   1.263   8.795
 6827SOL    HW221042   3.768   1.403   8.748
 6828SOL     OW21043   3.730   1.327   7.637
 6828SOL    HW121044   3.643   1.339   7.598
 6828SOL    HW221045   3.725   1.241   7.679
 6829SOL     OW21046   3.802   1.796   8.383
 6829SOL    HW121047   3.781   1.713   8.340
 6829SOL    HW221048   3.895   1.808   8.367
 6830SOL     OW21049   0.218   1.557   8.327
 6830SOL    HW121050   0.283   1.626   8.330
 6830SOL    HW221051   0.251   1.495   8.261
 6831SOL     OW21052   3.754   0.535   8.564
 6831SOL    HW121053   3.835   0.524   8.514
 6831SOL    HW221054   3.783   0.549   8.654
 6832SOL     OW21055   3.910   0.529   9.164
 6832SOL    HW121056   3.950   0.478   9.094
 6832SOL    HW221057   3.858   0.595   9.120
 6833SOL     OW21058   3.947   1.540   9.175
 6833SOL    HW121059   3.943   1.612   9.239
 6833SOL    HW221060   3.985   1.467   9.224
 6834SOL     OW21061   3.859   1.123   8.923
 6834SOL    HW121062   3.929   1.109   8.986
 6834SOL    HW221063   3.896   1.096   8.839
 6835SOL     OW21064   3.811   1.263   8.463
 6835SOL    HW121065   3.786   1.275   8.555
 6835SOL    HW221066   3.744   1.204   8.428
 6836SOL     OW21067   3.839   1.795   9.278
 6836SOL    HW121068   3.790   1.727   9.325
 6836SOL    HW221069   3.892   1.836   9.345
 6837SOL     OW21070   3.822   0.318   7.438
 6837SOL    HW121071   3.742   0.333   7.488
 6837SOL    HW221072   3.834   0.399   7.387
 6838SOL     OW21073   3.784   0.152   7.792
 6838SOL    HW121074   3.753   0.213   7.725
 6838SOL    HW221075   3.878   0.147   7.778
 6839SOL     OW21076   3.800   1.239   8.110
 6839SOL    HW121077   3.796   1.189   8.192
 6839SOL    HW221078   3.880   1.208   8.068
 6840SOL     OW21079   3.753   1.081   7.756
 6840SOL    HW121080   3.844   1.081   7.726
 6840SOL    HW221081   3.735   0.990   7.776
 6841SOL     OW21082   3.956   0.629   9.420
 6841SOL    HW121083   3.873   0.631   9.468
 6841SOL    HW221084   3.933   0.597   9.333
 6842SOL     OW21085   3.952   0.289  10.298
 6842SOL    HW121086   3.967   0.273  10.391
 6842SOL    HW221087   3.864   0.254  10.281
 6843SOL     OW21088   3.731   0.390   9.951
 6843SOL    HW121089   3.645   0.406   9.988
 6843SOL    HW221090   3.719   0.313   9.895
 6844SOL     OW21091   0.015   1.514  10.360
 6844SOL    HW121092   3.973   1.430  10.343
 6844SOL    HW221093   0.087   1.518  10.296
 6845SOL     OW21094   3.940   1.719   9.783
 6845SOL    HW121095   3.954   1.791   9.844
 6845SOL    HW221096   0.027   1.699   9.748
 6846SOL     OW21097   3.942   1.439   9.823
 6846SOL    HW121098   3.923   1.532   9.830
 6846SOL    HW221099   3.885   1.398   9.889
 6847SOL     OW21100   3.814   0.648   9.867
 6847SOL    HW121101   3.801   0.556   9.892
 6847SOL    HW221102   3.818   0.695   9.949
 6848SOL     OW21103   3.752   1.597   9.439
 6848SOL    HW121104   3.732   1.505   9.457
 6848SOL    HW221105   3.722   1.644   9.517
 6849SOL     OW21106   3.832   0.746  10.889
 6849SOL    HW121107   3.917   0.772  10.923
 6849SOL    HW221108   3.780   0.826  10.891
 6850SOL     OW21109   3.802   0.816  10.083
 6850SOL    HW121110   3.895   0.808  10.107
 6850SOL    HW221111   3.772   0.892  10.133
 6851SOL     OW21112   3.849   1.855  10.878
 6851SOL    HW121113   3.852   1.825  10.969
 6851SOL    HW221114   3.759   1.839  10.850
 6852SOL     OW21115   3.924   0.309  10.827
 6852SOL    HW121116   3.846   0.352  10.793
 6852SOL    HW221117   3.892   0.247  10.892
 6853SOL     OW21118   3.803   0.550  10.700
 6853SOL    HW121119   3.898   0.546  10.686
 6853SOL    HW221120   3.791   0.626  10.757
 6854SOL     OW21121   0.266   0.286   9.645
 6854SOL    HW121122   0.301   0.222   9.582
 6854SOL    HW221123   0.285   0.371   9.605
 6855SOL     OW21124   3.788   1.571  10.657
 6855SOL    HW121125   3.760   1.639  10.595
 6855SOL    HW221126   3.883   1.577  10.657
 6856SOL     OW21127   0.072   1.089   9.830
 6856SOL    HW121128   0.074   1.147   9.754
 6856SOL    HW221129   0.125   1.014   9.804
 6857SOL     OW21130   0.011   0.216  10.551
 6857SOL    HW121131   3.987   0.242  10.640
 6857SOL    HW221132   0.008   0.120  10.553
 6858SOL     OW21133   3.755   1.310  10.589
 6858SOL    HW121134   3.801   1.263  10.658
 6858SOL    HW221135   3.768   1.402  10.610
 6859SOL     OW21136   3.730   1.326   9.498
 6859SOL    HW121137   3.643   1.339   9.460
 6859SOL    HW221138   3.725   1.241   9.541
 6860SOL     OW21139   3.802   1.796  10.245
 6860SOL    HW121140   3.781   1.713  10.202
 6860SOL    HW221141   3.895   1.808  10.229
 6861SOL     OW21142   0.218   1.557  10.189
 6861SOL    HW121143   0.283   1.626  10.192
 6861SOL    HW221144   0.251   1.495  10.124
 6862SOL     OW21145   3.754   0.534  10.426
 6862SOL    HW121146   3.835   0.524  10.377
 6862SOL    HW221147   3.783   0.549  10.516
 6863SOL     OW21148   3.910   0.529  11.026
 6863SOL    HW121149   3.950   0.478  10.955
 6863SOL    HW221150   3.858   0.595  10.982
 6864SOL     OW21151   3.947   1.540  11.037
 6864SOL    HW121152   3.943   1.612  11.100
 6864SOL    HW221153   3.985   1.467  11.087
 6865SOL     OW21154   3.859   1.123  10.785
 6865SOL    HW121155   3.929   1.109  10.848
 6865SOL    HW221156   3.896   1.096  10.701
 6866SOL     OW21157   3.811   1.263  10.325
 6866SOL    HW121158   3.786   1.275  10.417
 6866SOL    HW221159   3.744   1.204  10.290
 6867SOL     OW21160   3.839   1.795  11.140
 6867SOL    HW121161   3.790   1.727  11.187
 6867SOL    HW221162   3.892   1.836  11.207
 6868SOL     OW21163   3.822   0.318   9.300
 6868SOL    HW121164   3.742   0.333   9.351
 6868SOL    HW221165   3.833   0.399   9.250
 6869SOL     OW21166   3.784   0.152   9.654
 6869SOL    HW121167   3.753   0.213   9.587
 6869SOL    HW221168   3.879   0.147   9.640
 6870SOL     OW21169   3.800   1.239   9.972
 6870SOL    HW121170   3.795   1.189  10.054
 6870SOL    HW221171   3.881   1.208   9.930
 6871SOL     OW21172   3.753   1.081   9.618
 6871SOL    HW121173   3.844   1.081   9.588
 6871SOL    HW221174   3.734   0.990   9.638
 6872SOL     OW21175   3.956   0.629  11.282
 6872SOL    HW121176   3.873   0.631  11.330
 6872SOL    HW221177   3.933   0.597  11.195
 6873SOL     OW21178   3.952   0.289  12.160
 6873SOL    HW121179   3.967   0.273  12.253
 6873SOL    HW221180   3.864   0.254  12.143
 6874SOL     OW21181   3.731   0.390  11.813
 6874SOL    HW121182   3.645   0.406  11.850
 6874SOL    HW221183   3.719   0.313  11.757
 6875SOL     OW21184   0.016   1.514  12.222
 6875SOL    HW121185   3.973   1.430  12.205
 6875SOL    HW221186   0.087   1.518  12.158
 6876SOL     OW21187   3.940   1.719  11.645
 6876SOL    HW121188   3.954   1.791  11.706
 6876SOL    HW221189   0.027   1.699  11.610
 6877SOL     OW21190   3.942   1.439  11.685
 6877SOL    HW121191   3.923   1.532  11.692
 6877SOL    HW221192   3.885   1.398  11.751
 6878SOL     OW21193   3.814   0.648  11.729
 6878SOL    HW121194   3.801   0.556  11.754
 6878SOL    HW221195   3.818   0.695  11.811
 6879SOL     OW21196   3.752   1.597  11.301
 6879SOL    HW121197   3.732   1.505  11.319
 6879SOL    HW221198   3.722   1.644  11.379
 6880SOL     OW21199   3.832   0.746  12.751
 6880SOL    HW121200   3.917   0.772  12.785
 6880SOL    HW221201   3.780   0.826  12.753
 6881SOL     OW21202   3.802   0.816  11.945
 6881SOL    HW121203   3.895   0.808  11.969
 6881SOL    HW221204   3.772   0.892  11.995
 6882SOL     OW21205   3.849   1.855  12.740
 6882SOL    HW121206   3.852   1.825  12.831
 6882SOL    HW221207   3.759   1.839  12.712
 6883SOL     OW21208   3.924   0.309  12.689
 6883SOL    HW121209   3.846   0.352  12.655
 6883SOL    HW221210   3.891   0.246  12.753
 6884SOL     OW21211   3.804   0.550  12.562
 6884SOL    HW121212   3.898   0.546  12.548
 6884SOL    HW221213   3.791   0.626  12.619
 6885SOL     OW21214   0.266   0.286  11.507
 6885SOL    HW121215   0.301   0.222  11.444
 6885SOL    HW221216   0.285   0.371  11.467
 6886SOL     OW21217   3.788   1.571  12.519
 6886SOL    HW121218   3.760   1.639  12.457
 6886SOL    HW221219   3.883   1.577  12.519
 6887SOL     OW21220   0.072   1.089  11.692
 6887SOL    HW121221   0.074   1.147  11.616
 6887SOL    HW221222   0.125   1.014  11.666
 6888SOL     OW21223   0.012   0.216  12.413
 6888SOL    HW121224   3.986   0.242  12.502
 6888SOL    HW221225   0.008   0.120  12.415
 6889SOL     OW21226   3.755   1.310  12.451
 6889SOL    HW121227   3.801   1.263  12.520
 6889SOL    HW221228   3.768   1.402  12.472
 6890SOL     OW21229   3.730   1.326  11.360
 6890SOL    HW121230   3.643   1.339  11.322
 6890SOL    HW221231   3.725   1.241  11.403
 6891SOL     OW21232   3.802   1.796  12.107
 6891SOL    HW121233   3.781   1.713  12.064
 6891SOL    HW221234   3.895   1.808  12.091
 6892SOL     OW21235   0.218   1.557  12.051
 6892SOL    HW121236   0.283   1.626  12.054
 6892SOL    HW221237   0.251   1.495  11.985
 6893SOL     OW21238   3.754   0.534  12.288
 6893SOL    HW121239   3.835   0.524  12.239
 6893SOL    HW221240   3.783   0.549  12.378
 6894SOL     OW21241   3.911   0.529  12.888
 6894SOL    HW121242   3.949   0.478  12.818
 6894SOL    HW221243   3.858   0.596  12.844
 6895SOL     OW21244   3.947   1.541  12.899
 6895SOL    HW121245   3.942   1.612  12.963
 6895SOL    HW221246   3.983   1.467  12.949
 6896SOL     OW21247   3.859   1.123  12.647
 6896SOL    HW121248   3.929   1.109  12.710
 6896SOL    HW221249   3.896   1.096  12.563
 6897SOL     OW21250   3.811   1.263  12.187
 6897SOL    HW121251   3.786   1.275  12.279
 6897SOL    HW221252   3.744   1.204  12.152
 6898SOL     OW21253   3.840   1.795  13.003
 6898SOL    HW121254   3.790   1.727  13.049
 6898SOL    HW221255   3.892   1.837  13.071
 6899SOL     OW21256   3.822   0.318  11.162
 6899SOL    HW121257   3.742   0.333  11.213
 6899SOL    HW221258   3.833   0.399  11.112
 6900SOL     OW21259   3.784   0.152  11.516
 6900SOL    HW121260   3.753   0.213  11.449
 6900SOL    HW221261   3.879   0.147  11.501
 6901SOL     OW21262   3.801   1.239  11.834
 6901SOL    HW121263   3.795   1.189  11.916
 6901SOL    HW221264   3.881   1.208  11.792
 6902SOL     OW21265   3.753   1.081  11.480
 6902SOL    HW121266   3.844   1.081  11.450
 6902SOL    HW221267   3.734   0.990  11.500
 6903SOL     OW21268   3.955   0.628  13.145
 6903SOL    HW121269   3.871   0.631  13.190
 6903SOL    HW221270   3.934   0.597  13.057
 6904SOL     OW21271   3.723   0.392  13.651
 6904SOL    HW121272   3.634   0.409  13.680
 6904SOL    HW221273   3.722   0.302  13.619
 6905SOL     OW21274   3.941   1.716  13.503
 6905SOL    HW121275   3.949   1.792  13.561
 6905SOL    HW221276   0.030   1.698  13.474
 6906SOL     OW21277   3.941   1.437  13.546
 6906SOL    HW121278   3.924   1.531  13.553
 6906SOL    HW221279   3.884   1.397  13.612
 6907SOL     OW21280   3.949   1.087  13.899
 6907SOL    HW121281   3.980   1.038   0.075
 6907SOL    HW221282   3.884   1.148   0.034
 6908SOL     OW21283   3.829   0.649  13.593
 6908SOL    HW121284   3.786   0.565  13.610
 6908SOL    HW221285   3.818   0.699  13.674
 6909SOL     OW21286   3.751   1.598  13.163
 6909SOL    HW121287   3.732   1.505  13.180
 6909SOL    HW221288   3.722   1.644  13.241
 6910SOL     OW21289   3.799   0.809  13.812
 6910SOL    HW121290   3.893   0.812  13.831
 6910SOL    HW221291   3.764   0.890  13.849
 6911SOL     OW21292   0.097   1.809  13.876
 6911SOL    HW121293   0.059   1.733   0.020
 6911SOL    HW221294   0.167   1.837   0.035
 6912SOL     OW21295   0.265   0.289  13.369
 6912SOL    HW121296   0.303   0.221  13.314
 6912SOL    HW221297   0.291   0.372  13.328
 6913SOL     OW21298   0.074   1.086  13.551
 6913SOL    HW121299   0.073   1.149  13.479
 6913SOL    HW221300   0.129   1.014  13.519
 6914SOL     OW21301   3.730   1.327  13.221
 6914SOL    HW121302   3.643   1.339  13.183
 6914SOL    HW221303   3.725   1.242  13.266
 6915SOL     OW21304   0.305   1.535   0.037
 6915SOL    HW121305   0.274   1.626   0.035
 6915SOL    HW221306   0.259   1.492  13.865
 6916SOL     OW21307   3.822   0.319  13.023
 6916SOL    HW121308   3.741   0.333  13.074
 6916SOL    HW221309   3.833   0.400  12.974
 6917SOL     OW21310   3.791   0.155  13.376
 6917SOL    HW121311   3.757   0.214  13.309
 6917SOL    HW221312   3.884   0.148  13.358
 6918SOL     OW21313   3.807   1.236  13.696
 6918SOL    HW121314   3.798   1.175  13.769
 6918SOL    HW221315   3.885   1.207  13.650
 6919SOL     OW21316   3.754   1.081  13.341
 6919SOL    HW121317   3.844   1.081  13.311
 6919SOL    HW221318   3.735   0.990  13.361
 6920SOL     OW21319   3.954   2.496   0.125
 6920SOL    HW121320   3.876   2.488   0.178
 6920SOL    HW221321   3.933   2.450   0.044
 6921SOL     OW21322   3.959   2.126   0.985
 6921SOL    HW121323   3.968   2.124   1.080
 6921SOL    HW221324   3.866   2.110   0.969
 6922SOL     OW21325   3.729   2.244   0.636
 6922SOL    HW121326   3.648   2.265   0.682
 6922SOL    HW221327   3.710   2.161   0.593
 6923SOL     OW21328   0.016   3.374   1.051
 6923SOL    HW121329   3.973   3.291   1.030
 6923SOL    HW221330   0.087   3.381   0.987
 6924SOL     OW21331   3.940   3.578   0.477
 6924SOL    HW121332   3.959   3.651   0.537
 6924SOL    HW221333   0.021   3.564   0.429
 6925SOL     OW21334   3.936   3.299   0.511
 6925SOL    HW121335   3.928   3.394   0.519
 6925SOL    HW221336   3.884   3.265   0.584
 6926SOL     OW21337   3.821   2.505   0.558
 6926SOL    HW121338   3.792   2.417   0.582
 6926SOL    HW221339   3.817   2.555   0.640
 6927SOL     OW21340   3.725   3.473   0.109
 6927SOL    HW121341   3.730   3.380   0.132
 6927SOL    HW221342   3.707   3.517   0.192
 6928SOL     OW21343   3.833   2.602   1.583
 6928SOL    HW121344   3.918   2.628   1.617
 6928SOL    HW221345   3.781   2.683   1.584
 6929SOL     OW21346   3.802   2.678   0.771
 6929SOL    HW121347   3.894   2.671   0.797
 6929SOL    HW221348   3.770   2.753   0.821
 6930SOL     OW21349   3.850   3.710   1.567
 6930SOL    HW121350   3.853   3.683   1.659
 6930SOL    HW221351   3.758   3.705   1.543
 6931SOL     OW21352   3.926   2.159   1.513
 6931SOL    HW121353   3.844   2.200   1.485
 6931SOL    HW221354   3.899   2.082   1.562
 6932SOL     OW21355   3.804   2.414   1.388
 6932SOL    HW121356   3.898   2.408   1.376
 6932SOL    HW221357   3.791   2.487   1.448
 6933SOL     OW21358   3.788   3.433   1.346
 6933SOL    HW121359   3.761   3.502   1.286
 6933SOL    HW221360   3.884   3.439   1.349
 6934SOL     OW21361   0.070   2.949   0.523
 6934SOL    HW121362   0.084   3.017   0.457
 6934SOL    HW221363   0.137   2.883   0.503
 6935SOL     OW21364   0.013   2.075   1.247
 6935SOL    HW121365   3.985   2.103   1.334
 6935SOL    HW221366   0.009   1.980   1.250
 6936SOL     OW21367   3.754   3.172   1.278
 6936SOL    HW121368   3.801   3.125   1.347
 6936SOL    HW221369   3.768   3.264   1.299
 6937SOL     OW21370   0.004   1.922   0.648
 6937SOL    HW121371   0.024   2.013   0.667
 6937SOL    HW221372   0.025   1.876   0.730
 6938SOL     OW21373   3.738   3.178   0.177
 6938SOL    HW121374   3.656   3.190   0.129
 6938SOL    HW221375   3.729   3.094   0.220
 6939SOL     OW21376   3.804   3.655   0.935
 6939SOL    HW121377   3.783   3.573   0.891
 6939SOL    HW221378   3.898   3.667   0.921
 6940SOL     OW21379   0.218   3.421   0.879
 6940SOL    HW121380   0.276   3.497   0.877
 6940SOL    HW221381   0.254   3.361   0.815
 6941SOL     OW21382   3.756   2.399   1.116
 6941SOL    HW121383   3.840   2.391   1.071
 6941SOL    HW221384   3.779   2.410   1.208
 6942SOL     OW21385   3.906   2.379   1.722
 6942SOL    HW121386   3.941   2.325   1.651
 6942SOL    HW221387   3.854   2.446   1.677
 6943SOL     OW21388   3.946   3.401   1.727
 6943SOL    HW121389   3.943   3.475   1.788
 6943SOL    HW221390   3.985   3.330   1.779
 6944SOL     OW21391   3.859   2.985   1.475
 6944SOL    HW121392   3.929   2.971   1.538
 6944SOL    HW221393   3.897   2.959   1.391
 6945SOL     OW21394   3.811   3.125   1.015
 6945SOL    HW121395   3.787   3.138   1.106
 6945SOL    HW221396   3.743   3.066   0.981
 6946SOL     OW21397   3.839   3.655   1.830
 6946SOL    HW121398   3.791   3.588   1.878
 6946SOL    HW221399   3.891   3.701   1.897
 6947SOL     OW21400   3.782   2.267   0.029
 6947SOL    HW121401   3.741   2.185   0.055
 6947SOL    HW221402   3.765   2.273  13.835
 6948SOL     OW21403   3.791   2.024   0.346
 6948SOL    HW121404   3.767   2.063   0.262
 6948SOL    HW221405   3.886   2.018   0.344
 6949SOL     OW21406   3.800   3.098   0.661
 6949SOL    HW121407   3.796   3.051   0.744
 6949SOL    HW221408   3.884   3.074   0.624
 6950SOL     OW21409   3.752   2.939   0.306
 6950SOL    HW121410   3.847   2.941   0.297
 6950SOL    HW221411   3.732   2.848   0.329
 6951SOL     OW21412   3.955   2.494   1.972
 6951SOL    HW121413   3.872   2.491   2.020
 6951SOL    HW221414   3.934   2.455   1.886
 6952SOL     OW21415   3.959   2.125   2.847
 6952SOL    HW121416   3.968   2.124   2.942
 6952SOL    HW221417   3.866   2.110   2.832
 6953SOL     OW21418   3.728   2.242   2.498
 6953SOL    HW121419   3.648   2.266   2.545
 6953SOL    HW221420   3.708   2.158   2.457
 6954SOL     OW21421   0.015   3.375   2.912
 6954SOL    HW121422   3.974   3.291   2.893
 6954SOL    HW221423   0.087   3.381   2.849
 6955SOL     OW21424   3.940   3.582   2.336
 6955SOL    HW121425   3.958   3.655   2.397
 6955SOL    HW221426   0.025   3.562   2.298
 6956SOL     OW21427   3.940   3.301   2.374
 6956SOL    HW121428   3.925   3.395   2.383
 6956SOL    HW221429   3.885   3.261   2.441
 6957SOL     OW21430   3.822   2.505   2.420
 6957SOL    HW121431   3.793   2.417   2.444
 6957SOL    HW221432   3.818   2.555   2.502
 6958SOL     OW21433   3.750   3.460   1.991
 6958SOL    HW121434   3.733   3.367   2.009
 6958SOL    HW221435   3.722   3.505   2.071
 6959SOL     OW21436   3.833   2.602   3.445
 6959SOL    HW121437   3.918   2.628   3.479
 6959SOL    HW221438   3.781   2.683   3.446
 6960SOL     OW21439   3.802   2.677   2.634
 6960SOL    HW121440   3.895   2.670   2.658
 6960SOL    HW221441   3.770   2.753   2.683
 6961SOL     OW21442   3.850   3.710   3.429
 6961SOL    HW121443   3.853   3.683   3.521
 6961SOL    HW221444   3.758   3.705   3.405
 6962SOL     OW21445   3.926   2.159   3.375
 6962SOL    HW121446   3.844   2.200   3.347
 6962SOL    HW221447   3.899   2.082   3.424
 6963SOL     OW21448   0.003   1.877   2.025
 6963SOL    HW121449   0.031   1.967   2.009
 6963SOL    HW221450   0.071   1.840   2.081
 6964SOL     OW21451   3.804   2.414   3.250
 6964SOL    HW121452   3.898   2.408   3.238
 6964SOL    HW221453   3.792   2.487   3.310
 6965SOL     OW21454   0.283   2.146   2.189
 6965SOL    HW121455   0.297   2.080   2.122
 6965SOL    HW221456   0.286   2.229   2.143
 6966SOL     OW21457   3.788   3.433   3.208
 6966SOL    HW121458   3.761   3.503   3.149
 6966SOL    HW221459   3.884   3.439   3.211
 6967SOL     OW21460   0.072   2.949   2.382
 6967SOL    HW121461   0.074   3.010   2.308
 6967SOL    HW221462   0.127   2.876   2.354
 6968SOL     OW21463   0.013   2.075   3.109
 6968SOL    HW121464   3.985   2.103   3.196
 6968SOL    HW221465   0.009   1.980   3.112
 6969SOL     OW21466   3.755   3.172   3.140
 6969SOL    HW121467   3.801   3.125   3.209
 6969SOL    HW221468   3.769   3.264   3.161
 6970SOL     OW21469   0.006   1.919   2.510
 6970SOL    HW121470   0.023   2.012   2.525
 6970SOL    HW221471   0.025   1.877   2.593
 6971SOL     OW21472   3.730   3.189   2.051
 6971SOL    HW121473   3.643   3.201   2.012
 6971SOL    HW221474   3.725   3.103   2.094
 6972SOL     OW21475   3.803   3.656   2.797
 6972SOL    HW121476   3.782   3.573   2.753
 6972SOL    HW221477   3.897   3.667   2.783
 6973SOL     OW21478   0.218   3.421   2.741
 6973SOL    HW121479   0.277   3.496   2.739
 6973SOL    HW221480   0.255   3.359   2.678
 6974SOL     OW21481   3.756   2.399   2.978
 6974SOL    HW121482   3.840   2.391   2.933
 6974SOL    HW221483   3.780   2.410   3.070
 6975SOL     OW21484   3.906   2.379   3.584
 6975SOL    HW121485   3.941   2.325   3.513
 6975SOL    HW221486   3.854   2.446   3.539
 6976SOL     OW21487   3.946   3.401   3.589
 6976SOL    HW121488   3.943   3.475   3.650
 6976SOL    HW221489   3.986   3.330   3.641
 6977SOL     OW21490   3.859   2.985   3.337
 6977SOL    HW121491   3.928   2.971   3.400
 6977SOL    HW221492   3.897   2.958   3.253
 6978SOL     OW21493   3.810   3.125   2.877
 6978SOL    HW121494   3.787   3.138   2.968
 6978SOL    HW221495   3.744   3.066   2.842
 6979SOL     OW21496   3.839   3.655   3.692
 6979SOL    HW121497   3.791   3.588   3.740
 6979SOL    HW221498   3.891   3.701   3.759
 6980SOL     OW21499   3.801   2.202   1.901
 6980SOL    HW121500   3.716   2.168   1.873
 6980SOL    HW221501   3.821   2.272   1.840
 6981SOL     OW21502   3.771   2.020   2.175
 6981SOL    HW121503   3.762   2.094   2.115
 6981SOL    HW221504   3.864   2.016   2.194
 6982SOL     OW21505   3.800   3.101   2.524
 6982SOL    HW121506   3.795   3.051   2.606
 6982SOL    HW221507   3.881   3.071   2.483
 6983SOL     OW21508   3.753   2.942   2.170
 6983SOL    HW121509   3.844   2.942   2.140
 6983SOL    HW221510   3.734   2.851   2.190
 6984SOL     OW21511   3.955   2.494   3.834
 6984SOL    HW121512   3.872   2.491   3.882
 6984SOL    HW221513   3.934   2.455   3.748
 6985SOL     OW21514   3.959   2.125   4.709
 6985SOL    HW121515   3.968   2.124   4.804
 6985SOL    HW221516   3.866   2.110   4.694
 6986SOL     OW21517   3.728   2.242   4.360
 6986SOL    HW121518   3.648   2.266   4.407
 6986SOL    HW221519   3.708   2.158   4.319
 6987SOL     OW21520   0.015   3.375   4.774
 6987SOL    HW121521   3.974   3.291   4.755
 6987SOL    HW221522   0.087   3.381   4.711
 6988SOL     OW21523   3.940   3.583   4.198
 6988SOL    HW121524   3.958   3.655   4.259
 6988SOL    HW221525   0.025   3.562   4.160
 6989SOL     OW21526   3.940   3.301   4.236
 6989SOL    HW121527   3.925   3.395   4.245
 6989SOL    HW221528   3.885   3.261   4.303
 6990SOL     OW21529   3.822   2.505   4.282
 6990SOL    HW121530   3.793   2.417   4.306
 6990SOL    HW221531   3.818   2.555   4.364
 6991SOL     OW21532   3.750   3.460   3.853
 6991SOL    HW121533   3.733   3.367   3.871
 6991SOL    HW221534   3.722   3.505   3.933
 6992SOL     OW21535   3.833   2.602   5.307
 6992SOL    HW121536   3.918   2.628   5.341
 6992SOL    HW221537   3.781   2.683   5.308
 6993SOL     OW21538   3.802   2.677   4.496
 6993SOL    HW121539   3.895   2.670   4.520
 6993SOL    HW221540   3.770   2.753   4.545
 6994SOL     OW21541   3.850   3.710   5.291
 6994SOL    HW121542   3.853   3.683   5.383
 6994SOL    HW221543   3.758   3.705   5.267
 6995SOL     OW21544   3.926   2.159   5.237
 6995SOL    HW121545   3.844   2.200   5.208
 6995SOL    HW221546   3.899   2.082   5.286
 6996SOL     OW21547   0.003   1.877   3.887
 6996SOL    HW121548   0.032   1.967   3.871
 6996SOL    HW221549   0.071   1.840   3.943
 6997SOL     OW21550   3.804   2.414   5.112
 6997SOL    HW121551   3.899   2.408   5.100
 6997SOL    HW221552   3.791   2.487   5.172
 6998SOL     OW21553   0.283   2.146   4.051
 6998SOL    HW121554   0.297   2.080   3.984
 6998SOL    HW221555   0.286   2.229   4.004
 6999SOL     OW21556   3.788   3.433   5.070
 6999SOL    HW121557   3.761   3.503   5.011
 6999SOL    HW221558   3.884   3.439   5.073
 7000SOL     OW21559   0.072   2.949   4.244
 7000SOL    HW121560   0.074   3.010   4.170
 7000SOL    HW221561   0.127   2.876   4.216
 7001SOL     OW21562   0.013   2.075   4.971
 7001SOL    HW121563   3.985   2.103   5.058
 7001SOL    HW221564   0.008   1.980   4.974
 7002SOL     OW21565   3.755   3.172   5.002
 7002SOL    HW121566   3.801   3.125   5.072
 7002SOL    HW221567   3.769   3.264   5.023
 7003SOL     OW21568   0.006   1.919   4.372
 7003SOL    HW121569   0.023   2.012   4.387
 7003SOL    HW221570   0.025   1.877   4.455
 7004SOL     OW21571   3.730   3.189   3.913
 7004SOL    HW121572   3.643   3.201   3.874
 7004SOL    HW221573   3.725   3.103   3.956
 7005SOL     OW21574   3.803   3.656   4.659
 7005SOL    HW121575   3.782   3.573   4.615
 7005SOL    HW221576   3.897   3.667   4.645
 7006SOL     OW21577   0.218   3.421   4.603
 7006SOL    HW121578   0.277   3.496   4.601
 7006SOL    HW221579   0.255   3.359   4.540
 7007SOL     OW21580   3.756   2.399   4.840
 7007SOL    HW121581   3.840   2.391   4.795
 7007SOL    HW221582   3.780   2.410   4.932
 7008SOL     OW21583   3.906   2.379   5.446
 7008SOL    HW121584   3.941   2.325   5.375
 7008SOL    HW221585   3.854   2.446   5.401
 7009SOL     OW21586   3.947   3.401   5.451
 7009SOL    HW121587   3.943   3.475   5.512
 7009SOL    HW221588   3.985   3.330   5.503
 7010SOL     OW21589   3.859   2.986   5.199
 7010SOL    HW121590   3.928   2.971   5.262
 7010SOL    HW221591   3.896   2.958   5.115
 7011SOL     OW21592   3.810   3.125   4.739
 7011SOL    HW121593   3.787   3.138   4.830
 7011SOL    HW221594   3.744   3.066   4.704
 7012SOL     OW21595   3.840   3.655   5.554
 7012SOL    HW121596   3.791   3.588   5.602
 7012SOL    HW221597   3.891   3.701   5.621
 7013SOL     OW21598   3.801   2.202   3.763
 7013SOL    HW121599   3.716   2.168   3.735
 7013SOL    HW221600   3.821   2.272   3.702
 7014SOL     OW21601   3.771   2.020   4.037
 7014SOL    HW121602   3.762   2.094   3.977
 7014SOL    HW221603   3.864   2.016   4.056
 7015SOL     OW21604   3.800   3.101   4.386
 7015SOL    HW121605   3.795   3.051   4.468
 7015SOL    HW221606   3.881   3.071   4.345
 7016SOL     OW21607   3.753   2.942   4.032
 7016SOL    HW121608   3.844   2.942   4.002
 7016SOL    HW221609   3.734   2.851   4.052
 7017SOL     OW21610   3.955   2.493   5.696
 7017SOL    HW121611   3.872   2.491   5.744
 7017SOL    HW221612   3.934   2.455   5.611
 7018SOL     OW21613   3.959   2.125   6.571
 7018SOL    HW121614   3.968   2.124   6.666
 7018SOL    HW221615   3.866   2.110   6.556
 7019SOL     OW21616   3.728   2.242   6.222
 7019SOL    HW121617   3.648   2.267   6.268
 7019SOL    HW221618   3.707   2.158   6.181
 7020SOL     OW21619   0.015   3.375   6.636
 7020SOL    HW121620   3.973   3.291   6.617
 7020SOL    HW221621   0.087   3.381   6.573
 7021SOL     OW21622   3.940   3.583   6.060
 7021SOL    HW121623   3.958   3.655   6.121
 7021SOL    HW221624   0.025   3.562   6.022
 7022SOL     OW21625   3.940   3.301   6.098
 7022SOL    HW121626   3.924   3.395   6.107
 7022SOL    HW221627   3.885   3.261   6.165
 7023SOL     OW21628   3.823   2.505   6.144
 7023SOL    HW121629   3.792   2.417   6.168
 7023SOL    HW221630   3.818   2.555   6.226
 7024SOL     OW21631   3.750   3.460   5.715
 7024SOL    HW121632   3.732   3.367   5.733
 7024SOL    HW221633   3.722   3.505   5.795
 7025SOL     OW21634   3.833   2.602   7.169
 7025SOL    HW121635   3.918   2.628   7.203
 7025SOL    HW221636   3.781   2.683   7.170
 7026SOL     OW21637   3.802   2.677   6.358
 7026SOL    HW121638   3.895   2.670   6.383
 7026SOL    HW221639   3.770   2.752   6.407
 7027SOL     OW21640   3.850   3.711   7.153
 7027SOL    HW121641   3.853   3.684   7.245
 7027SOL    HW221642   3.758   3.704   7.129
 7028SOL     OW21643   3.926   2.159   7.099
 7028SOL    HW121644   3.844   2.200   7.070
 7028SOL    HW221645   3.899   2.082   7.148
 7029SOL     OW21646   0.003   1.877   5.749
 7029SOL    HW121647   0.032   1.967   5.733
 7029SOL    HW221648   0.071   1.840   5.805
 7030SOL     OW21649   3.804   2.413   6.974
 7030SOL    HW121650   3.899   2.408   6.962
 7030SOL    HW221651   3.791   2.487   7.034
 7031SOL     OW21652   0.285   2.146   5.914
 7031SOL    HW121653   0.296   2.079   5.845
 7031SOL    HW221654   0.283   2.229   5.866
 7032SOL     OW21655   3.788   3.433   6.932
 7032SOL    HW121656   3.761   3.502   6.872
 7032SOL    HW221657   3.884   3.439   6.935
 7033SOL     OW21658   0.072   2.950   6.106
 7033SOL    HW121659   0.073   3.010   6.032
 7033SOL    HW221660   0.126   2.876   6.078
 7034SOL     OW21661   0.013   2.075   6.833
 7034SOL    HW121662   3.985   2.104   6.920
 7034SOL    HW221663   0.008   1.980   6.836
 7035SOL     OW21664   3.755   3.172   6.864
 7035SOL    HW121665   3.801   3.125   6.934
 7035SOL    HW221666   3.769   3.264   6.885
 7036SOL     OW21667   0.006   1.919   6.234
 7036SOL    HW121668   0.023   2.012   6.249
 7036SOL    HW221669   0.025   1.877   6.317
 7037SOL     OW21670   3.730   3.189   5.775
 7037SOL    HW121671   3.643   3.201   5.736
 7037SOL    HW221672   3.725   3.103   5.818
 7038SOL     OW21673   3.803   3.656   6.521
 7038SOL    HW121674   3.782   3.573   6.477
 7038SOL    HW221675   3.897   3.667   6.506
 7039SOL     OW21676   0.218   3.421   6.465
 7039SOL    HW121677   0.277   3.496   6.463
 7039SOL    HW221678   0.255   3.359   6.402
 7040SOL     OW21679   3.756   2.399   6.702
 7040SOL    HW121680   3.840   2.391   6.657
 7040SOL    HW221681   3.779   2.410   6.794
 7041SOL     OW21682   3.906   2.379   7.308
 7041SOL    HW121683   3.941   2.325   7.237
 7041SOL    HW221684   3.854   2.446   7.263
 7042SOL     OW21685   3.947   3.401   7.313
 7042SOL    HW121686   3.943   3.475   7.374
 7042SOL    HW221687   3.985   3.330   7.364
 7043SOL     OW21688   3.859   2.986   7.061
 7043SOL    HW121689   3.928   2.970   7.124
 7043SOL    HW221690   3.896   2.958   6.977
 7044SOL     OW21691   3.810   3.125   6.601
 7044SOL    HW121692   3.787   3.138   6.692
 7044SOL    HW221693   3.743   3.066   6.566
 7045SOL     OW21694   3.839   3.655   7.416
 7045SOL    HW121695   3.791   3.588   7.464
 7045SOL    HW221696   3.891   3.701   7.483
 7046SOL     OW21697   3.801   2.201   5.625
 7046SOL    HW121698   3.716   2.168   5.597
 7046SOL    HW221699   3.821   2.272   5.564
 7047SOL     OW21700   3.771   2.020   5.899
 7047SOL    HW121701   3.762   2.094   5.839
 7047SOL    HW221702   3.865   2.016   5.918
 7048SOL     OW21703   3.800   3.101   6.249
 7048SOL    HW121704   3.794   3.051   6.330
 7048SOL    HW221705   3.881   3.070   6.207
 7049SOL     OW21706   3.753   2.942   5.894
 7049SOL    HW121707   3.844   2.942   5.864
 7049SOL    HW221708   3.734   2.851   5.914
 7050SOL     OW21709   3.955   2.493   7.558
 7050SOL    HW121710   3.872   2.491   7.606
 7050SOL    HW221711   3.934   2.455   7.472
 7051SOL     OW21712   3.959   2.125   8.433
 7051SOL    HW121713   3.968   2.124   8.528
 7051SOL    HW221714   3.866   2.110   8.418
 7052SOL     OW21715   3.728   2.242   8.084
 7052SOL    HW121716   3.648   2.266   8.131
 7052SOL    HW221717   3.708   2.159   8.042
 7053SOL     OW21718   0.015   3.375   8.498
 7053SOL    HW121719   3.974   3.291   8.479
 7053SOL    HW221720   0.087   3.381   8.435
 7054SOL     OW21721   3.940   3.582   7.922
 7054SOL    HW121722   3.958   3.655   7.983
 7054SOL    HW221723   0.025   3.562   7.883
 7055SOL     OW21724   3.940   3.301   7.960
 7055SOL    HW121725   3.925   3.395   7.969
 7055SOL    HW221726   3.885   3.261   8.027
 7056SOL     OW21727   3.822   2.505   8.007
 7056SOL    HW121728   3.793   2.417   8.030
 7056SOL    HW221729   3.818   2.555   8.088
 7057SOL     OW21730   3.750   3.460   7.577
 7057SOL    HW121731   3.732   3.367   7.594
 7057SOL    HW221732   3.721   3.505   7.657
 7058SOL     OW21733   3.833   2.602   9.031
 7058SOL    HW121734   3.918   2.628   9.065
 7058SOL    HW221735   3.781   2.683   9.032
 7059SOL     OW21736   3.802   2.677   8.221
 7059SOL    HW121737   3.895   2.670   8.245
 7059SOL    HW221738   3.770   2.753   8.269
 7060SOL     OW21739   3.850   3.710   9.015
 7060SOL    HW121740   3.853   3.683   9.107
 7060SOL    HW221741   3.758   3.705   8.991
 7061SOL     OW21742   3.926   2.159   8.961
 7061SOL    HW121743   3.844   2.200   8.933
 7061SOL    HW221744   3.899   2.082   9.010
 7062SOL     OW21745   0.003   1.877   7.612
 7062SOL    HW121746   0.032   1.967   7.595
 7062SOL    HW221747   0.072   1.840   7.667
 7063SOL     OW21748   3.804   2.413   8.836
 7063SOL    HW121749   3.898   2.408   8.824
 7063SOL    HW221750   3.792   2.487   8.896
 7064SOL     OW21751   0.283   2.146   7.775
 7064SOL    HW121752   0.297   2.079   7.708
 7064SOL    HW221753   0.286   2.229   7.728
 7065SOL     OW21754   3.788   3.433   8.794
 7065SOL    HW121755   3.761   3.502   8.734
 7065SOL    HW221756   3.884   3.439   8.797
 7066SOL     OW21757   0.072   2.950   7.968
 7066SOL    HW121758   0.073   3.010   7.894
 7066SOL    HW221759   0.127   2.876   7.940
 7067SOL     OW21760   0.013   2.075   8.695
 7067SOL    HW121761   3.985   2.103   8.783
 7067SOL    HW221762   0.009   1.980   8.698
 7068SOL     OW21763   3.754   3.172   8.726
 7068SOL    HW121764   3.801   3.125   8.795
 7068SOL    HW221765   3.768   3.264   8.747
 7069SOL     OW21766   0.005   1.919   8.096
 7069SOL    HW121767   0.024   2.012   8.111
 7069SOL    HW221768   0.026   1.877   8.179
 7070SOL     OW21769   3.730   3.189   7.637
 7070SOL    HW121770   3.643   3.201   7.598
 7070SOL    HW221771   3.725   3.103   7.679
 7071SOL     OW21772   3.804   3.656   8.383
 7071SOL    HW121773   3.782   3.573   8.339
 7071SOL    HW221774   3.898   3.667   8.369
 7072SOL     OW21775   0.218   3.421   8.327
 7072SOL    HW121776   0.277   3.496   8.325
 7072SOL    HW221777   0.254   3.360   8.264
 7073SOL     OW21778   3.756   2.399   8.564
 7073SOL    HW121779   3.840   2.391   8.519
 7073SOL    HW221780   3.780   2.410   8.656
 7074SOL     OW21781   3.906   2.379   9.170
 7074SOL    HW121782   3.941   2.325   9.099
 7074SOL    HW221783   3.854   2.446   9.125
 7075SOL     OW21784   3.946   3.401   9.176
 7075SOL    HW121785   3.943   3.475   9.236
 7075SOL    HW221786   3.986   3.330   9.227
 7076SOL     OW21787   3.859   2.985   8.923
 7076SOL    HW121788   3.929   2.971   8.986
 7076SOL    HW221789   3.897   2.959   8.839
 7077SOL     OW21790   3.810   3.125   8.463
 7077SOL    HW121791   3.786   3.138   8.554
 7077SOL    HW221792   3.744   3.066   8.428
 7078SOL     OW21793   3.839   3.655   9.278
 7078SOL    HW121794   3.791   3.588   9.326
 7078SOL    HW221795   3.891   3.701   9.345
 7079SOL     OW21796   3.801   2.202   7.487
 7079SOL    HW121797   3.716   2.168   7.458
 7079SOL    HW221798   3.821   2.272   7.426
 7080SOL     OW21799   3.770   2.020   7.761
 7080SOL    HW121800   3.762   2.093   7.700
 7080SOL    HW221801   3.864   2.016   7.780
 7081SOL     OW21802   3.800   3.101   8.111
 7081SOL    HW121803   3.795   3.051   8.192
 7081SOL    HW221804   3.880   3.071   8.068
 7082SOL     OW21805   3.753   2.943   7.757
 7082SOL    HW121806   3.844   2.942   7.726
 7082SOL    HW221807   3.734   2.851   7.776
 7083SOL     OW21808   3.955   2.494   9.420
 7083SOL    HW121809   3.872   2.491   9.468
 7083SOL    HW221810   3.934   2.455   9.334
 7084SOL     OW21811   3.959   2.125  10.295
 7084SOL    HW121812   3.968   2.124  10.390
 7084SOL    HW221813   3.866   2.110  10.280
 7085SOL     OW21814   3.728   2.242   9.946
 7085SOL    HW121815   3.648   2.266   9.993
 7085SOL    HW221816   3.708   2.158   9.905
 7086SOL     OW21817   0.015   3.375  10.360
 7086SOL    HW121818   3.974   3.291  10.341
 7086SOL    HW221819   0.087   3.381  10.297
 7087SOL     OW21820   3.940   3.582   9.784
 7087SOL    HW121821   3.958   3.655   9.845
 7087SOL    HW221822   0.025   3.562   9.746
 7088SOL     OW21823   3.940   3.301   9.822
 7088SOL    HW121824   3.925   3.395   9.831
 7088SOL    HW221825   3.885   3.261   9.889
 7089SOL     OW21826   3.822   2.505   9.868
 7089SOL    HW121827   3.793   2.417   9.892
 7089SOL    HW221828   3.818   2.555   9.950
 7090SOL     OW21829   3.750   3.460   9.439
 7090SOL    HW121830   3.733   3.367   9.457
 7090SOL    HW221831   3.722   3.505   9.519
 7091SOL     OW21832   3.833   2.602  10.893
 7091SOL    HW121833   3.918   2.628  10.927
 7091SOL    HW221834   3.781   2.683  10.894
 7092SOL     OW21835   3.802   2.677  10.082
 7092SOL    HW121836   3.895   2.670  10.106
 7092SOL    HW221837   3.770   2.753  10.131
 7093SOL     OW21838   3.850   3.710  10.877
 7093SOL    HW121839   3.853   3.683  10.969
 7093SOL    HW221840   3.758   3.705  10.853
 7094SOL     OW21841   3.926   2.159  10.823
 7094SOL    HW121842   3.844   2.200  10.794
 7094SOL    HW221843   3.899   2.082  10.872
 7095SOL     OW21844   0.003   1.877   9.473
 7095SOL    HW121845   0.032   1.967   9.457
 7095SOL    HW221846   0.071   1.840   9.529
 7096SOL     OW21847   3.804   2.414  10.698
 7096SOL    HW121848   3.899   2.408  10.686
 7096SOL    HW221849   3.792   2.487  10.758
 7097SOL     OW21850   0.283   2.146   9.637
 7097SOL    HW121851   0.297   2.080   9.570
 7097SOL    HW221852   0.286   2.229   9.590
 7098SOL     OW21853   3.788   3.433  10.656
 7098SOL    HW121854   3.761   3.502  10.596
 7098SOL    HW221855   3.884   3.439  10.659
 7099SOL     OW21856   0.072   2.949   9.830
 7099SOL    HW121857   0.073   3.010   9.756
 7099SOL    HW221858   0.127   2.876   9.802
 7100SOL     OW21859   0.013   2.075  10.557
 7100SOL    HW121860   3.985   2.103  10.644
 7100SOL    HW221861   0.008   1.980  10.560
 7101SOL     OW21862   3.755   3.172  10.588
 7101SOL    HW121863   3.801   3.125  10.657
 7101SOL    HW221864   3.769   3.264  10.609
 7102SOL     OW21865   0.006   1.919   9.958
 7102SOL    HW121866   0.023   2.012   9.973
 7102SOL    HW221867   0.025   1.877  10.041
 7103SOL     OW21868   3.730   3.189   9.499
 7103SOL    HW121869   3.643   3.201   9.460
 7103SOL    HW221870   3.725   3.103   9.542
 7104SOL     OW21871   3.803   3.656  10.245
 7104SOL    HW121872   3.782   3.573  10.201
 7104SOL    HW221873   3.897   3.667  10.231
 7105SOL     OW21874   0.218   3.421  10.189
 7105SOL    HW121875   0.277   3.496  10.187
 7105SOL    HW221876   0.255   3.360  10.126
 7106SOL     OW21877   3.756   2.399  10.426
 7106SOL    HW121878   3.840   2.391  10.381
 7106SOL    HW221879   3.780   2.410  10.518
 7107SOL     OW21880   3.906   2.379  11.032
 7107SOL    HW121881   3.941   2.325  10.961
 7107SOL    HW221882   3.854   2.446  10.987
 7108SOL     OW21883   3.946   3.401  11.037
 7108SOL    HW121884   3.943   3.475  11.098
 7108SOL    HW221885   3.985   3.330  11.089
 7109SOL     OW21886   3.859   2.985  10.785
 7109SOL    HW121887   3.928   2.971  10.848
 7109SOL    HW221888   3.896   2.958  10.701
 7110SOL     OW21889   3.810   3.125  10.325
 7110SOL    HW121890   3.787   3.138  10.416
 7110SOL    HW221891   3.744   3.066  10.290
 7111SOL     OW21892   3.839   3.655  11.140
 7111SOL    HW121893   3.791   3.588  11.188
 7111SOL    HW221894   3.891   3.701  11.207
 7112SOL     OW21895   3.801   2.202   9.349
 7112SOL    HW121896   3.716   2.168   9.321
 7112SOL    HW221897   3.821   2.272   9.288
 7113SOL     OW21898   3.771   2.020   9.623
 7113SOL    HW121899   3.762   2.094   9.562
 7113SOL    HW221900   3.864   2.016   9.642
 7114SOL     OW21901   3.800   3.101   9.972
 7114SOL    HW121902   3.795   3.051  10.054
 7114SOL    HW221903   3.881   3.071   9.931
 7115SOL     OW21904   3.753   2.942   9.618
 7115SOL    HW121905   3.844   2.942   9.588
 7115SOL    HW221906   3.734   2.851   9.638
 7116SOL     OW21907   3.955   2.494  11.282
 7116SOL    HW121908   3.872   2.491  11.330
 7116SOL    HW221909   3.934   2.455  11.196
 7117SOL     OW21910   3.959   2.125  12.157
 7117SOL    HW121911   3.968   2.124  12.252
 7117SOL    HW221912   3.866   2.110  12.142
 7118SOL     OW21913   3.728   2.242  11.808
 7118SOL    HW121914   3.648   2.266  11.855
 7118SOL    HW221915   3.708   2.158  11.767
 7119SOL     OW21916   0.015   3.375  12.222
 7119SOL    HW121917   3.974   3.291  12.203
 7119SOL    HW221918   0.087   3.381  12.159
 7120SOL     OW21919   3.940   3.582  11.646
 7120SOL    HW121920   3.958   3.655  11.707
 7120SOL    HW221921   0.025   3.562  11.608
 7121SOL     OW21922   3.940   3.301  11.684
 7121SOL    HW121923   3.925   3.395  11.693
 7121SOL    HW221924   3.885   3.261  11.751
 7122SOL     OW21925   3.822   2.505  11.730
 7122SOL    HW121926   3.793   2.417  11.754
 7122SOL    HW221927   3.818   2.555  11.812
 7123SOL     OW21928   3.750   3.460  11.301
 7123SOL    HW121929   3.733   3.367  11.319
 7123SOL    HW221930   3.722   3.505  11.381
 7124SOL     OW21931   3.833   2.602  12.755
 7124SOL    HW121932   3.918   2.628  12.789
 7124SOL    HW221933   3.781   2.683  12.756
 7125SOL     OW21934   3.802   2.677  11.944
 7125SOL    HW121935   3.895   2.670  11.968
 7125SOL    HW221936   3.770   2.753  11.993
 7126SOL     OW21937   3.850   3.711  12.740
 7126SOL    HW121938   3.853   3.683  12.831
 7126SOL    HW221939   3.758   3.704  12.716
 7127SOL     OW21940   3.926   2.159  12.685
 7127SOL    HW121941   3.844   2.200  12.656
 7127SOL    HW221942   3.899   2.082  12.734
 7128SOL     OW21943   0.003   1.877  11.335
 7128SOL    HW121944   0.032   1.967  11.319
 7128SOL    HW221945   0.071   1.840  11.391
 7129SOL     OW21946   3.804   2.414  12.560
 7129SOL    HW121947   3.899   2.408  12.548
 7129SOL    HW221948   3.792   2.487  12.620
 7130SOL     OW21949   0.283   2.146  11.499
 7130SOL    HW121950   0.297   2.080  11.432
 7130SOL    HW221951   0.285   2.229  11.452
 7131SOL     OW21952   3.788   3.433  12.518
 7131SOL    HW121953   3.761   3.502  12.458
 7131SOL    HW221954   3.884   3.439  12.521
 7132SOL     OW21955   0.072   2.949  11.692
 7132SOL    HW121956   0.073   3.010  11.618
 7132SOL    HW221957   0.127   2.876  11.664
 7133SOL     OW21958   0.013   2.075  12.419
 7133SOL    HW121959   3.985   2.103  12.506
 7133SOL    HW221960   0.008   1.980  12.422
 7134SOL     OW21961   3.755   3.172  12.450
 7134SOL    HW121962   3.800   3.124  12.520
 7134SOL    HW221963   3.769   3.264  12.471
 7135SOL     OW21964   0.006   1.919  11.820
 7135SOL    HW121965   0.023   2.012  11.835
 7135SOL    HW221966   0.025   1.877  11.903
 7136SOL     OW21967   3.730   3.189  11.361
 7136SOL    HW121968   3.643   3.201  11.322
 7136SOL    HW221969   3.725   3.103  11.404
 7137SOL     OW21970   3.803   3.656  12.107
 7137SOL    HW121971   3.782   3.573  12.063
 7137SOL    HW221972   3.898   3.667  12.093
 7138SOL     OW21973   0.218   3.421  12.051
 7138SOL    HW121974   0.277   3.496  12.049
 7138SOL    HW221975   0.255   3.359  11.988
 7139SOL     OW21976   3.756   2.399  12.288
 7139SOL    HW121977   3.840   2.391  12.243
 7139SOL    HW221978   3.780   2.410  12.380
 7140SOL     OW21979   3.906   2.379  12.894
 7140SOL    HW121980   3.941   2.325  12.824
 7140SOL    HW221981   3.854   2.446  12.850
 7141SOL     OW21982   3.947   3.402  12.899
 7141SOL    HW121983   3.942   3.475  12.960
 7141SOL    HW221984   3.984   3.330  12.951
 7142SOL     OW21985   3.859   2.986  12.647
 7142SOL    HW121986   3.928   2.971  12.710
 7142SOL    HW221987   3.896   2.958  12.563
 7143SOL     OW21988   3.810   3.125  12.187
 7143SOL    HW121989   3.787   3.138  12.278
 7143SOL    HW221990   3.744   3.066  12.152
 7144SOL     OW21991   3.841   3.656  13.003
 7144SOL    HW121992   3.792   3.589  13.051
 7144SOL    HW221993   3.891   3.702  13.070
 7145SOL     OW21994   3.801   2.202  11.211
 7145SOL    HW121995   3.716   2.168  11.183
 7145SOL    HW221996   3.821   2.272  11.150
 7146SOL     OW21997   3.771   2.020  11.485
 7146SOL    HW121998   3.762   2.094  11.425
 7146SOL    HW221999   3.864   2.016  11.504
 7147SOL     OW22000   3.800   3.101  11.835
 7147SOL    HW122001   3.795   3.051  11.916
 7147SOL    HW222002   3.881   3.071  11.793
 7148SOL     OW22003   3.753   2.942  11.480
 7148SOL    HW122004   3.844   2.942  11.450
 7148SOL    HW222005   3.734   2.851  11.500
 7149SOL     OW22006   3.954   2.493  13.145
 7149SOL    HW122007   3.870   2.490  13.191
 7149SOL    HW222008   3.935   2.455  13.059
 7150SOL     OW22009   3.726   2.244  13.663
 7150SOL    HW122010   3.639   2.271  13.691
 7150SOL    HW222011   3.713   2.159  13.622
 7151SOL     OW22012   3.941   3.578  13.503
 7151SOL    HW122013   3.947   3.656  13.559
 7151SOL    HW222014   0.031   3.562  13.473
 7152SOL     OW22015   3.940   3.298  13.546
 7152SOL    HW122016   3.926   3.393  13.553
 7152SOL    HW222017   3.884   3.260  13.613
 7153SOL     OW22018   3.949   2.948  13.898
 7153SOL    HW122019   3.981   2.901   0.075
 7153SOL    HW222020   3.885   3.010   0.033
 7154SOL     OW22021   3.834   2.505  13.597
 7154SOL    HW122022   3.783   2.425  13.612
 7154SOL    HW222023   3.818   2.559  13.675
 7155SOL     OW22024   3.748   3.460  13.163
 7155SOL    HW122025   3.732   3.368  13.181
 7155SOL    HW222026   3.721   3.505  13.243
 7156SOL     OW22027   3.800   2.672  13.810
 7156SOL    HW122028   3.894   2.676  13.830
 7156SOL    HW222029   3.764   2.752  13.849
 7157SOL     OW22030   0.107   3.637  13.840
 7157SOL    HW122031   0.068   3.573  13.899
 7157SOL    HW222032   0.172   3.683  13.893
 7158SOL     OW22033   0.003   1.880  13.200
 7158SOL    HW122034   0.037   1.966  13.178
 7158SOL    HW222035   0.071   1.840  13.254
 7159SOL     OW22036   0.283   2.146  13.359
 7159SOL    HW122037   0.298   2.078  13.293
 7159SOL    HW222038   0.289   2.228  13.311
 7160SOL     OW22039   0.074   2.948  13.551
 7160SOL    HW122040   0.073   3.012  13.481
 7160SOL    HW222041   0.129   2.877  13.518
 7161SOL     OW22042   3.991   1.929  13.664
 7161SOL    HW122043   0.022   2.018  13.683
 7161SOL    HW222044   0.025   1.877  13.737
 7162SOL     OW22045   3.730   3.189  13.222
 7162SOL    HW122046   3.643   3.201  13.184
 7162SOL    HW222047   3.725   3.104  13.266
 7163SOL     OW22048   0.316   3.406   0.028
 7163SOL    HW122049   0.273   3.491   0.029
 7163SOL    HW222050   0.261   3.353  13.868
 7164SOL     OW22051   3.801   2.201  13.073
 7164SOL    HW122052   3.716   2.168  13.045
 7164SOL    HW222053   3.821   2.272  13.012
 7165SOL     OW22054   3.770   2.021  13.347
 7165SOL    HW122055   3.762   2.093  13.284
 7165SOL    HW222056   3.864   2.017  13.366
 7166SOL     OW22057   3.807   3.098  13.697
 7166SOL    HW122058   3.798   3.036  13.769
 7166SOL    HW222059   3.885   3.070  13.649
 7167SOL     OW22060   3.753   2.942  13.342
 7167SOL    HW122061   3.844   2.942  13.311
 7167SOL    HW222062   3.735   2.851  13.361
 7168SOL     OW22063   3.960   3.977   0.990
 7168SOL    HW122064   3.968   3.973   1.085
 7168SOL    HW222065   3.869   3.953   0.972
 7169SOL     OW22066   3.751   0.070   0.687
 7169SOL    HW122067   3.671   0.123   0.692
 7169SOL    HW222068   3.727   3.997   0.629
 7170SOL     OW22069   3.921   0.009   1.505
 7170SOL    HW122070   3.833   0.044   1.490
 7170SOL    HW222071   3.909   3.943   1.574
 7171SOL     OW22072   3.988   3.762   0.182
 7171SOL    HW122073   0.028   3.830   0.129
 7171SOL    HW222074   0.056   3.696   0.193
 7172SOL     OW22075   0.005   3.937   1.253
 7172SOL    HW122076   3.979   3.946   1.345
 7172SOL    HW222077   0.021   3.843   1.242
 7173SOL     OW22078   0.024   3.778   0.646
 7173SOL    HW122079   0.041   3.872   0.653
 7173SOL    HW222080   0.035   3.745   0.735
 7174SOL     OW22081   3.792   3.871   0.341
 7174SOL    HW122082   3.783   3.959   0.304
 7174SOL    HW222083   3.874   3.838   0.305
 7175SOL     OW22084   3.961   3.976   2.851
 7175SOL    HW122085   3.969   3.973   2.946
 7175SOL    HW222086   3.869   3.953   2.834
 7176SOL     OW22087   3.750   0.068   2.551
 7176SOL    HW122088   3.673   0.124   2.556
 7176SOL    HW222089   3.724   3.997   2.492
 7177SOL     OW22090   3.921   0.009   3.367
 7177SOL    HW122091   3.833   0.044   3.352
 7177SOL    HW222092   3.909   3.943   3.436
 7178SOL     OW22093   3.995   3.748   2.027
 7178SOL    HW122094   0.030   3.830   1.991
 7178SOL    HW222095   0.067   3.712   2.080
 7179SOL     OW22096   0.005   3.937   3.115
 7179SOL    HW122097   3.979   3.946   3.207
 7179SOL    HW222098   0.021   3.843   3.104
 7180SOL     OW22099   0.021   3.779   2.510
 7180SOL    HW122100   0.043   3.872   2.518
 7180SOL    HW222101   0.034   3.743   2.598
 7181SOL     OW22102   3.803   0.055   1.896
 7181SOL    HW122103   3.731   0.024   1.842
 7181SOL    HW222104   3.810   0.148   1.876
 7182SOL     OW22105   3.785   3.872   2.183
 7182SOL    HW122106   3.779   3.963   2.152
 7182SOL    HW222107   3.876   3.847   2.166
 7183SOL     OW22108   3.961   3.976   4.713
 7183SOL    HW122109   3.969   3.973   4.808
 7183SOL    HW222110   3.869   3.953   4.696
 7184SOL     OW22111   3.750   0.068   4.413
 7184SOL    HW122112   3.673   0.124   4.418
 7184SOL    HW222113   3.724   3.997   4.354
 7185SOL     OW22114   3.921   0.009   5.229
 7185SOL    HW122115   3.833   0.044   5.214
 7185SOL    HW222116   3.909   3.943   5.297
 7186SOL     OW22117   3.995   3.748   3.889
 7186SOL    HW122118   0.030   3.830   3.854
 7186SOL    HW222119   0.067   3.712   3.942
 7187SOL     OW22120   0.005   3.937   4.977
 7187SOL    HW122121   3.979   3.946   5.069
 7187SOL    HW222122   0.021   3.843   4.966
 7188SOL     OW22123   0.021   3.779   4.372
 7188SOL    HW122124   0.043   3.872   4.380
 7188SOL    HW222125   0.034   3.743   4.460
 7189SOL     OW22126   3.803   0.055   3.758
 7189SOL    HW122127   3.731   0.024   3.704
 7189SOL    HW222128   3.810   0.148   3.738
 7190SOL     OW22129   3.785   3.872   4.045
 7190SOL    HW122130   3.779   3.963   4.014
 7190SOL    HW222131   3.876   3.847   4.028
 7191SOL     OW22132   3.961   3.976   6.575
 7191SOL    HW122133   3.968   3.973   6.670
 7191SOL    HW222134   3.869   3.953   6.558
 7192SOL     OW22135   3.750   0.068   6.275
 7192SOL    HW122136   3.672   0.124   6.280
 7192SOL    HW222137   3.724   3.997   6.216
 7193SOL     OW22138   3.921   0.009   7.091
 7193SOL    HW122139   3.833   0.044   7.076
 7193SOL    HW222140   3.909   3.943   7.159
 7194SOL     OW22141   3.995   3.748   5.751
 7194SOL    HW122142   0.030   3.830   5.715
 7194SOL    HW222143   0.067   3.712   5.804
 7195SOL     OW22144   0.005   3.937   6.839
 7195SOL    HW122145   3.979   3.946   6.931
 7195SOL    HW222146   0.020   3.843   6.828
 7196SOL     OW22147   0.021   3.779   6.234
 7196SOL    HW122148   0.043   3.872   6.243
 7196SOL    HW222149   0.034   3.743   6.322
 7197SOL     OW22150   3.803   0.055   5.620
 7197SOL    HW122151   3.731   0.024   5.566
 7197SOL    HW222152   3.810   0.148   5.600
 7198SOL     OW22153   3.785   3.872   5.907
 7198SOL    HW122154   3.779   3.963   5.876
 7198SOL    HW222155   3.876   3.847   5.890
 7199SOL     OW22156   3.960   3.976   8.437
 7199SOL    HW122157   3.968   3.973   8.532
 7199SOL    HW222158   3.869   3.953   8.420
 7200SOL     OW22159   3.750   0.068   8.137
 7200SOL    HW122160   3.672   0.124   8.142
 7200SOL    HW222161   3.724   3.997   8.078
 7201SOL     OW22162   3.921   0.009   8.953
 7201SOL    HW122163   3.833   0.044   8.938
 7201SOL    HW222164   3.909   3.943   9.021
 7202SOL     OW22165   3.995   3.748   7.614
 7202SOL    HW122166   0.030   3.830   7.577
 7202SOL    HW222167   0.067   3.712   7.665
 7203SOL     OW22168   0.005   3.937   8.701
 7203SOL    HW122169   3.979   3.946   8.793
 7203SOL    HW222170   0.021   3.843   8.690
 7204SOL     OW22171   0.021   3.779   8.096
 7204SOL    HW122172   0.043   3.872   8.104
 7204SOL    HW222173   0.034   3.743   8.184
 7205SOL     OW22174   3.803   0.055   7.483
 7205SOL    HW122175   3.731   0.024   7.427
 7205SOL    HW222176   3.810   0.148   7.462
 7206SOL     OW22177   3.785   3.872   7.769
 7206SOL    HW122178   3.779   3.963   7.738
 7206SOL    HW222179   3.876   3.847   7.751
 7207SOL     OW22180   3.961   3.976  10.299
 7207SOL    HW122181   3.968   3.973  10.394
 7207SOL    HW222182   3.869   3.953  10.282
 7208SOL     OW22183   3.750   0.068   9.999
 7208SOL    HW122184   3.673   0.124  10.004
 7208SOL    HW222185   3.724   3.997   9.940
 7209SOL     OW22186   3.921   0.009  10.815
 7209SOL    HW122187   3.833   0.044  10.800
 7209SOL    HW222188   3.909   3.943  10.883
 7210SOL     OW22189   3.995   3.748   9.475
 7210SOL    HW122190   0.030   3.830   9.439
 7210SOL    HW222191   0.067   3.712   9.528
 7211SOL     OW22192   0.005   3.937  10.563
 7211SOL    HW122193   3.979   3.946  10.655
 7211SOL    HW222194   0.021   3.843  10.552
 7212SOL     OW22195   0.021   3.779   9.958
 7212SOL    HW122196   0.043   3.872   9.966
 7212SOL    HW222197   0.034   3.743  10.046
 7213SOL     OW22198   3.803   0.055   9.344
 7213SOL    HW122199   3.731   0.024   9.290
 7213SOL    HW222200   3.810   0.148   9.324
 7214SOL     OW22201   3.785   3.872   9.631
 7214SOL    HW122202   3.779   3.963   9.600
 7214SOL    HW222203   3.876   3.847   9.614
 7215SOL     OW22204   3.961   3.976  12.161
 7215SOL    HW122205   3.968   3.973  12.256
 7215SOL    HW222206   3.869   3.953  12.144
 7216SOL     OW22207   3.750   0.068  11.861
 7216SOL    HW122208   3.673   0.124  11.866
 7216SOL    HW222209   3.724   3.997  11.802
 7217SOL     OW22210   3.920   0.009  12.677
 7217SOL    HW122211   3.833   0.044  12.662
 7217SOL    HW222212   3.909   3.943  12.745
 7218SOL     OW22213   3.995   3.748  11.337
 7218SOL    HW122214   0.030   3.830  11.301
 7218SOL    HW222215   0.067   3.712  11.390
 7219SOL     OW22216   0.005   3.937  12.425
 7219SOL    HW122217   3.979   3.946  12.517
 7219SOL    HW222218   0.020   3.843  12.414
 7220SOL     OW22219   0.021   3.779  11.820
 7220SOL    HW122220   0.043   3.872  11.828
 7220SOL    HW222221   0.034   3.743  11.908
 7221SOL     OW22222   3.803   0.055  11.206
 7221SOL    HW122223   3.731   0.024  11.152
 7221SOL    HW222224   3.810   0.148  11.186
 7222SOL     OW22225   3.785   3.872  11.493
 7222SOL    HW122226   3.779   3.963  11.462
 7222SOL    HW222227   3.876   3.847  11.476
 7223SOL     OW22228   3.744   0.086  13.686
 7223SOL    HW122229   3.671   0.110  13.743
 7223SOL    HW222230   3.724   3.997  13.658
 7224SOL     OW22231   3.996   3.751  13.202
 7224SOL    HW122232   0.035   3.829  13.162
 7224SOL    HW222233   0.066   3.713  13.254
 7225SOL     OW22234   3.992   3.796  13.662
 7225SOL    HW122235   0.030   3.881  13.684
 7225SOL    HW222236   0.031   3.735  13.724
 7226SOL     OW22237   3.804   0.055  13.068
 7226SOL    HW122238   3.731   0.024  13.015
 7226SOL    HW222239   3.810   0.149  13.047
 7227SOL     OW22240   3.783   3.872  13.353
 7227SOL    HW122241   3.779   3.964  13.325
 7227SOL    HW222242   3.874   3.846  13.336
   4.00000   4.00000  13.90000
