2gCDOH_1PEG_l8
22131
    1LIG      O    1   2.769   2.595   8.076
    1LIG      C    2   2.753   2.629   0.134
    1LIG     C1    3   2.620   2.566   0.186
    1LIG     O1    4   2.561   2.655   0.280
    1LIG     C2    5   2.589   2.616   0.413
    1LIG     C3    6   2.736   2.654   0.447
    1LIG     O2    7   2.768   2.608   0.576
    1LIG     C4    8   2.710   2.692   0.674
    1LIG     C5    9   2.580   2.627   0.727
    1LIG     O3   10   2.541   2.698   0.841
    1LIG     C6   11   2.590   2.641   0.961
    1LIG     C7   12   2.738   2.684   0.994
    1LIG     O4   13   2.783   2.627   1.115
    1LIG     C8   14   2.725   2.686   1.230
    1LIG     C9   15   2.599   2.602   1.267
    1LIG     O5   16   2.520   2.662   1.367
    1LIG    C10   17   2.579   2.631   1.491
    1LIG    C11   18   2.684   2.737   1.527
    1LIG     O6   19   2.641   2.791   1.647
    1LIG    C12   20   2.686   2.714   1.757
    1LIG    C13   21   2.600   2.589   1.792
    1LIG     O7   22   2.660   2.526   1.905
    1LIG    C14   23   2.621   2.588   2.027
    1LIG    C15   24   2.716   2.706   2.069
    1LIG     O8   25   2.646   2.791   2.158
    1LIG    C16   26   2.668   2.748   2.289
    1LIG    C17   27   2.556   2.647   2.328
    1LIG     O9   28   2.610   2.551   2.418
    1LIG    C18   29   2.586   2.593   2.552
    1LIG    C19   30   2.686   2.706   2.590
    1LIG    O10   31   2.649   2.766   2.710
    1LIG    C20   32   2.712   2.704   2.819
    1LIG    C21   33   2.611   2.603   2.874
    1LIG    O11   34   2.669   2.542   2.984
    1LIG    C22   35   2.628   2.603   3.103
    1LIG    C23   36   2.708   2.732   3.142
    1LIG    O12   37   2.643   2.799   3.251
    1LIG    C24   38   2.687   2.751   3.377
    1LIG    C25   39   2.603   2.623   3.406
    1LIG    O13   40   2.637   2.549   3.520
    1LIG    C26   41   2.590   2.610   3.635
    1LIG    C27   42   2.706   2.693   3.687
    1LIG    O14   43   2.768   2.617   3.789
    1LIG    C28   44   2.726   2.654   3.917
    1LIG    C29   45   2.613   2.558   3.957
    1LIG    O15   46   2.635   2.517   4.091
    1LIG    C30   47   2.566   2.604   4.179
    1LIG    C31   48   2.663   2.717   4.228
    1LIG    O16   49   2.604   2.789   4.335
    1LIG    C32   50   2.650   2.739   4.461
    1LIG    C33   51   2.575   2.610   4.497
    1LIG    O17   52   2.642   2.538   4.598
    1LIG    C34   53   2.624   2.599   4.722
    1LIG    C35   54   2.741   2.697   4.749
    1LIG    O18   55   2.803   2.661   4.871
    1LIG    C36   56   2.730   2.711   4.984
    1LIG    C37   57   2.599   2.626   5.011
    1LIG    O19   58   2.522   2.671   5.120
    1LIG    C38   59   2.578   2.624   5.240
    1LIG    C39   60   2.691   2.722   5.279
    1LIG    O20   61   2.651   2.782   5.397
    1LIG    C40   62   2.696   2.708   5.506
    1LIG    C41   63   2.605   2.588   5.542
    1LIG    O21   64   2.659   2.528   5.658
    1LIG    C42   65   2.614   2.594   5.776
    1LIG    C43   66   2.707   2.713   5.818
    1LIG    O22   67   2.642   2.789   5.917
    1LIG    C44   68   2.676   2.740   6.043
    1LIG    C45   69   2.566   2.639   6.086
    1LIG    O23   70   2.623   2.547   6.178
    1LIG    C46   71   2.595   2.591   6.310
    1LIG    C47   72   2.689   2.709   6.347
    1LIG    O24   73   2.650   2.762   6.470
    1LIG    C48   74   2.713   2.696   6.576
    1LIG    C49   75   2.613   2.593   6.632
    1LIG    O25   76   2.671   2.533   6.744
    1LIG    C50   77   2.628   2.593   6.863
    1LIG    C51   78   2.701   2.728   6.898
    1LIG    O26   79   2.632   2.790   7.006
    1LIG    C52   80   2.672   2.739   7.133
    1LIG    C53   81   2.584   2.616   7.170
    1LIG    O27   82   2.645   2.538   7.271
    1LIG    C54   83   2.615   2.587   7.399
    1LIG    C55   84   2.732   2.678   7.446
    1LIG    O28   85   2.795   2.615   7.559
    1LIG    C56   86   2.740   2.662   7.682
    1LIG    C57   87   2.597   2.601   7.703
    1LIG    O29   88   2.533   2.661   7.815
    1LIG    C58   89   2.568   2.596   7.937
    1LIG    C59   90   2.683   2.679   7.998
    1LIG      H   91   2.750   2.738   0.147
    1LIG     H1   92   2.840   2.591   0.189
    1LIG     H2   93   2.639   2.468   0.230
    1LIG     H3   94   2.547   2.553   0.106
    1LIG     H4   95   2.571   2.509   0.427
    1LIG     H5   96   2.519   2.673   0.474
    1LIG     H6   97   2.750   2.763   0.440
    1LIG     H7   98   2.807   2.607   0.379
    1LIG     H8   99   2.690   2.793   0.636
    1LIG     H9  100   2.786   2.706   0.749
    1LIG    H10  101   2.594   2.520   0.747
    1LIG    H11  102   2.497   2.636   0.657
    1LIG    H12  103   2.583   2.532   0.959
    1LIG    H13  104   2.520   2.681   1.034
    1LIG    H14  105   2.746   2.793   0.997
    1LIG    H15  106   2.807   2.645   0.920
    1LIG    H16  107   2.702   2.792   1.213
    1LIG    H17  108   2.799   2.680   1.310
    1LIG    H18  109   2.634   2.504   1.298
    1LIG    H19  110   2.530   2.581   1.186
    1LIG    H20  111   2.624   2.531   1.493
    1LIG    H21  112   2.499   2.631   1.565
    1LIG    H22  113   2.689   2.818   1.453
    1LIG    H23  114   2.784   2.693   1.537
    1LIG    H24  115   2.674   2.788   1.834
    1LIG    H25  116   2.792   2.686   1.747
    1LIG    H26  117   2.600   2.515   1.711
    1LIG    H27  118   2.496   2.617   1.813
    1LIG    H28  119   2.628   2.511   2.104
    1LIG    H29  120   2.516   2.619   2.023
    1LIG    H30  121   2.747   2.773   1.992
    1LIG    H31  122   2.810   2.667   2.109
    1LIG    H32  123   2.666   2.839   2.349
    1LIG    H33  124   2.768   2.702   2.301
    1LIG    H34  125   2.517   2.591   2.244
    1LIG    H35  126   2.471   2.701   2.371
    1LIG    H36  127   2.599   2.506   2.615
    1LIG    H37  128   2.482   2.629   2.562
    1LIG    H38  129   2.684   2.790   2.524
    1LIG    H39  130   2.789   2.668   2.592
    1LIG    H40  131   2.737   2.784   2.886
    1LIG    H41  132   2.805   2.654   2.792
    1LIG    H42  133   2.594   2.523   2.803
    1LIG    H43  134   2.514   2.648   2.897
    1LIG    H44  135   2.649   2.520   3.168
    1LIG    H45  136   2.520   2.623   3.102
    1LIG    H46  137   2.709   2.806   3.063
    1LIG    H47  138   2.812   2.708   3.166
    1LIG    H48  139   2.664   2.828   3.452
    1LIG    H49  140   2.795   2.734   3.378
    1LIG    H50  141   2.609   2.546   3.333
    1LIG    H51  142   2.500   2.655   3.405
    1LIG    H52  143   2.558   2.531   3.703
    1LIG    H53  144   2.505   2.676   3.615
    1LIG    H54  145   2.671   2.790   3.722
    1LIG    H55  146   2.782   2.709   3.609
    1LIG    H56  147   2.692   2.759   3.921
    1LIG    H57  148   2.812   2.644   3.984
    1LIG    H58  149   2.612   2.469   3.894
    1LIG    H59  150   2.516   2.608   3.945
    1LIG    H60  151   2.527   2.537   4.253
    1LIG    H61  152   2.476   2.648   4.134
    1LIG    H62  153   2.685   2.785   4.146
    1LIG    H63  154   2.759   2.676   4.258
    1LIG    H64  155   2.635   2.816   4.538
    1LIG    H65  156   2.757   2.716   4.457
    1LIG    H66  157   2.575   2.536   4.421
    1LIG    H67  158   2.472   2.636   4.523
    1LIG    H68  159   2.620   2.517   4.794
    1LIG    H69  160   2.529   2.654   4.725
    1LIG    H70  161   2.703   2.800   4.754
    1LIG    H71  162   2.816   2.691   4.669
    1LIG    H72  163   2.704   2.816   4.971
    1LIG    H73  164   2.799   2.703   5.067
    1LIG    H74  165   2.629   2.521   5.024
    1LIG    H75  166   2.528   2.632   4.929
    1LIG    H76  167   2.616   2.522   5.232
    1LIG    H77  168   2.500   2.625   5.316
    1LIG    H78  169   2.702   2.804   5.208
    1LIG    H79  170   2.786   2.670   5.290
    1LIG    H80  171   2.690   2.785   5.579
    1LIG    H81  172   2.801   2.676   5.496
    1LIG    H82  173   2.606   2.511   5.463
    1LIG    H83  174   2.501   2.620   5.557
    1LIG    H84  175   2.617   2.518   5.852
    1LIG    H85  176   2.509   2.625   5.767
    1LIG    H86  177   2.726   2.790   5.747
    1LIG    H87  178   2.806   2.676   5.848
    1LIG    H88  179   2.681   2.829   6.106
    1LIG    H89  180   2.776   2.694   6.044
    1LIG    H90  181   2.528   2.578   6.005
    1LIG    H91  182   2.480   2.692   6.127
    1LIG    H92  183   2.613   2.506   6.374
    1LIG    H93  184   2.490   2.620   6.319
    1LIG    H94  185   2.678   2.795   6.282
    1LIG    H95  186   2.794   2.679   6.347
    1LIG    H96  187   2.742   2.774   6.645
    1LIG    H97  188   2.806   2.646   6.546
    1LIG    H98  189   2.596   2.513   6.561
    1LIG    H99  190   2.515   2.638   6.654
    1LIG   H100  191   2.654   2.518   6.936
    1LIG   H101  192   2.519   2.609   6.862
    1LIG   H102  193   2.695   2.800   6.818
    1LIG   H103  194   2.806   2.709   6.921
    1LIG   H104  195   2.657   2.818   7.207
    1LIG   H105  196   2.779   2.715   7.131
    1LIG   H106  197   2.568   2.545   7.091
    1LIG   H107  198   2.485   2.650   7.198
    1LIG   H108  199   2.603   2.500   7.464
    1LIG   H109  200   2.520   2.643   7.400
    1LIG   H110  201   2.695   2.777   7.472
    1LIG   H111  202   2.807   2.688   7.367
    1LIG   H112  203   2.735   2.771   7.682
    1LIG   H113  204   2.808   2.631   7.762
    1LIG   H114  205   2.603   2.492   7.713
    1LIG   H115  206   2.532   2.624   7.619
    1LIG   H116  207   2.598   2.492   7.920
    1LIG   H117  208   2.480   2.596   8.003
    1LIG   H118  209   2.744   2.728   7.922
    1LIG   H119  210   2.640   2.760   8.056
    2MOL     C1  211   1.967   2.854   3.533
    2MOL     H1  212   1.862   2.824   3.542
    2MOL     O1  213   2.008   2.914   3.658
    2MOL     C2  214   2.143   2.968   3.665
    2MOL     H2  215   2.215   2.885   3.659
    2MOL     C3  216   2.159   3.041   3.802
    2MOL     H3  217   2.265   3.048   3.827
    2MOL     H4  218   2.112   2.979   3.879
    2MOL     O2  219   2.101   3.172   3.804
    2MOL     H5  220   2.026   3.174   3.869
    2MOL     C4  221   1.982   2.958   3.419
    2MOL     H6  222   1.919   3.044   3.442
    2MOL     O3  223   1.942   2.900   3.295
    2MOL     H7  224   1.968   2.806   3.301
    2MOL     C5  225   2.128   3.004   3.408
    2MOL     H8  226   2.192   2.917   3.390
    2MOL     O4  227   2.145   3.100   3.302
    2MOL     H9  228   2.140   3.049   3.217
    2MOL     C6  229   2.166   3.065   3.545
    2MOL    H10  230   2.103   3.154   3.558
    2MOL     O5  231   2.306   3.100   3.540
    2MOL     C7  232   2.336   3.227   3.601
    2MOL    H11  233   2.247   3.271   3.647
    2MOL     O6  234   2.434   3.207   3.706
    2MOL     C8  235   2.561   3.156   3.662
    2MOL    H12  236   2.547   3.058   3.613
    2MOL     C9  237   2.650   3.136   3.787
    2MOL    H13  238   2.727   3.062   3.767
    2MOL    H14  239   2.584   3.096   3.865
    2MOL     O7  240   2.709   3.258   3.834
    2MOL    H15  241   2.783   3.278   3.772
    2MOL    C10  242   2.387   3.324   3.493
    2MOL    H16  243   2.398   3.424   3.538
    2MOL     O8  244   2.294   3.328   3.386
    2MOL    H17  245   2.255   3.238   3.384
    2MOL    C11  246   2.523   3.276   3.439
    2MOL    H18  247   2.507   3.177   3.394
    2MOL     O9  248   2.580   3.366   3.342
    2MOL    H19  249   2.516   3.440   3.323
    2MOL    C12  250   2.618   3.258   3.561
    2MOL    H20  251   2.627   3.353   3.613
    2MOL    O10  252   2.745   3.212   3.513
    2MOL    C13  253   2.851   3.307   3.531
    2MOL    H21  254   2.812   3.409   3.545
    2MOL    O11  255   2.930   3.265   3.647
    2MOL    C14  256   2.991   3.133   3.635
    2MOL    H22  257   2.912   3.058   3.621
    2MOL    C15  258   3.068   3.098   3.766
    2MOL    H23  259   3.086   2.991   3.766
    2MOL    H24  260   3.007   3.122   3.853
    2MOL    O12  261   3.197   3.159   3.773
    2MOL    H25  262   3.255   3.087   3.741
    2MOL    C16  263   2.940   3.307   3.404
    2MOL    H26  264   3.017   3.382   3.416
    2MOL    O13  265   2.860   3.337   3.290
    2MOL    H27  266   2.771   3.357   3.325
    2MOL    C17  267   3.005   3.170   3.384
    2MOL    H28  268   2.928   3.094   3.368
    2MOL    O14  269   3.089   3.177   3.269
    2MOL    H29  270   3.033   3.225   3.203
    2MOL    C18  271   3.084   3.133   3.511
    2MOL    H30  272   3.164   3.206   3.525
    2MOL    O15  273   3.135   3.000   3.492
    2MOL    C19  274   3.277   2.984   3.510
    2MOL    H31  275   3.329   3.081   3.521
    2MOL    O16  276   3.297   2.901   3.625
    2MOL    C20  277   3.238   2.767   3.616
    2MOL    H32  278   3.129   2.776   3.604
    2MOL    C21  279   3.266   2.694   3.749
    2MOL    H33  280   3.189   2.618   3.767
    2MOL    H34  281   3.259   2.769   3.828
    2MOL    O17  282   3.396   2.634   3.753
    2MOL    H35  283   3.381   2.539   3.734
    2MOL    C22  284   3.335   2.916   3.385
    2MOL    H36  285   3.441   2.902   3.402
    2MOL    O18  286   3.316   3.002   3.273
    2MOL    H37  287   3.222   3.000   3.251
    2MOL    C23  288   3.267   2.778   3.362
    2MOL    H38  289   3.159   2.791   3.354
    2MOL    O19  290   3.317   2.712   3.244
    2MOL    H39  291   3.297   2.777   3.171
    2MOL    C24  292   3.296   2.695   3.491
    2MOL    H40  293   3.405   2.688   3.502
    2MOL    O20  294   3.237   2.564   3.476
    2MOL    C25  295   3.330   2.453   3.483
    2MOL    H41  296   3.433   2.487   3.469
    2MOL    O21  297   3.316   2.389   3.611
    2MOL    C26  298   3.185   2.334   3.642
    2MOL    H42  299   3.112   2.416   3.642
    2MOL    C27  300   3.192   2.271   3.783
    2MOL    H43  301   3.092   2.240   3.813
    2MOL    H44  302   3.227   2.348   3.852
    2MOL    O22  303   3.281   2.158   3.788
    2MOL    H45  304   3.246   2.098   3.858
    2MOL    C28  305   3.298   2.352   3.372
    2MOL    H46  306   3.373   2.272   3.376
    2MOL    O23  307   3.302   2.418   3.246
    2MOL    H47  308   3.297   2.514   3.267
    2MOL    C29  309   3.159   2.288   3.391
    2MOL    H48  310   3.085   2.368   3.383
    2MOL    O24  311   3.134   2.188   3.290
    2MOL    H49  312   3.127   2.239   3.207
    2MOL    C30  313   3.142   2.230   3.533
    2MOL    H50  314   3.204   2.141   3.541
    2MOL    O25  315   3.003   2.196   3.548
    2MOL    C31  316   2.972   2.070   3.613
    2MOL    H51  317   3.061   2.028   3.660
    2MOL    O26  318   2.871   2.092   3.715
    2MOL    C32  319   2.745   2.146   3.667
    2MOL    H52  320   2.763   2.241   3.614
    2MOL    C33  321   2.651   2.179   3.787
    2MOL    H53  322   2.575   2.251   3.755
    2MOL    H54  323   2.711   2.227   3.866
    2MOL    O27  324   2.585   2.063   3.841
    2MOL    H55  325   2.509   2.046   3.782
    2MOL    C34  326   2.918   1.970   3.507
    2MOL    H56  327   2.904   1.873   3.556
    2MOL    O28  328   3.012   1.957   3.402
    2MOL    H57  329   3.039   2.049   3.378
    2MOL    C35  330   2.782   2.017   3.449
    2MOL    H58  331   2.800   2.113   3.399
    2MOL    O29  332   2.730   1.920   3.355
    2MOL    H59  333   2.804   1.901   3.293
    2MOL    C36  334   2.685   2.044   3.567
    2MOL    H60  335   2.666   1.951   3.621
    2MOL    O30  336   2.563   2.097   3.511
    2MOL    C37  337   2.456   2.002   3.501
    2MOL    H61  338   2.494   1.899   3.507
    2MOL    O31  339   2.364   2.027   3.610
    2MOL    C38  340   2.299   2.158   3.609
    2MOL    H62  341   2.374   2.237   3.618
    2MOL    C39  342   2.203   2.165   3.729
    2MOL    H63  343   2.120   2.095   3.714
    2MOL    H64  344   2.161   2.266   3.735
    2MOL    O32  345   2.271   2.136   3.850
    2MOL    H65  346   2.289   2.224   3.890
    2MOL    C40  347   2.383   2.018   3.365
    2MOL    H66  348   2.305   1.941   3.359
    2MOL    O33  349   2.475   2.001   3.257
    2MOL    H67  350   2.564   1.990   3.300
    2MOL    C41  351   2.314   2.155   3.354
    2MOL    H68  352   2.392   2.233   3.355
    2MOL    O34  353   2.239   2.160   3.232
    2MOL    H69  354   2.277   2.087   3.180
    2MOL    C42  355   2.222   2.175   3.476
    2MOL    H70  356   2.142   2.100   3.472
    2MOL    O35  357   2.169   2.310   3.471
    2MOL    C43  358   2.025   2.320   3.479
    2MOL    H71  359   1.979   2.220   3.478
    2MOL    O36  360   1.988   2.387   3.603
    2MOL    C44  361   2.036   2.523   3.619
    2MOL    H72  362   2.144   2.519   3.624
    2MOL    C45  363   1.991   2.581   3.756
    2MOL    H73  364   1.882   2.575   3.763
    2MOL    H74  365   2.018   2.686   3.760
    2MOL    O37  366   2.051   2.513   3.868
    2MOL    H75  367   1.973   2.476   3.917
    2MOL    C46  368   1.972   2.400   3.358
    2MOL    H76  369   1.863   2.403   3.365
    2MOL    O38  370   2.012   2.337   3.236
    2MOL    H77  371   2.093   2.283   3.257
    2MOL    C47  372   2.021   2.546   3.362
    2MOL    H78  373   2.130   2.543   3.350
    2MOL    O39  374   1.965   2.622   3.254
    2MOL    H79  375   1.971   2.565   3.173
    2MOL    C48  376   1.986   2.610   3.499
    2MOL    H80  377   1.877   2.619   3.506
    2MOL    O40  378   2.050   2.740   3.504
    3MOL     C1  379   1.965   2.847   4.531
    3MOL     H1  380   1.859   2.819   4.539
    3MOL     O1  381   2.007   2.909   4.656
    3MOL     C2  382   2.141   2.968   4.660
    3MOL     H2  383   2.215   2.890   4.645
    3MOL     C3  384   2.165   3.032   4.801
    3MOL     H3  385   2.273   3.044   4.816
    3MOL     H4  386   2.131   2.962   4.878
    3MOL     O2  387   2.100   3.159   4.817
    3MOL     H5  388   2.024   3.147   4.879
    3MOL     C4  389   1.980   2.949   4.415
    3MOL     H6  390   1.911   3.032   4.433
    3MOL     O3  391   1.949   2.886   4.292
    3MOL     H7  392   1.993   2.798   4.295
    3MOL     C5  393   2.124   3.005   4.409
    3MOL     H8  394   2.193   2.920   4.396
    3MOL     O4  395   2.139   3.097   4.299
    3MOL     H9  396   2.059   3.087   4.242
    3MOL     C6  397   2.157   3.071   4.545
    3MOL    H10  398   2.089   3.156   4.560
    3MOL     O5  399   2.295   3.115   4.538
    3MOL     C7  400   2.322   3.243   4.600
    3MOL    H11  401   2.231   3.287   4.641
    3MOL     O6  402   2.418   3.225   4.707
    3MOL     C8  403   2.548   3.175   4.668
    3MOL    H12  404   2.537   3.078   4.619
    3MOL     C9  405   2.634   3.155   4.797
    3MOL    H13  406   2.715   3.084   4.775
    3MOL    H14  407   2.570   3.108   4.873
    3MOL     O7  408   2.689   3.277   4.847
    3MOL    H15  409   2.777   3.286   4.805
    3MOL    C10  410   2.378   3.339   4.492
    3MOL    H16  411   2.387   3.440   4.535
    3MOL     O8  412   2.288   3.340   4.383
    3MOL    H17  413   2.267   3.245   4.370
    3MOL    C11  414   2.518   3.295   4.445
    3MOL    H18  415   2.509   3.197   4.395
    3MOL     O9  416   2.574   3.392   4.354
    3MOL    H19  417   2.528   3.379   4.268
    3MOL    C12  418   2.609   3.277   4.568
    3MOL    H20  419   2.618   3.374   4.618
    3MOL    O10  420   2.737   3.231   4.521
    3MOL    C13  421   2.849   3.317   4.552
    3MOL    H21  422   2.815   3.418   4.578
    3MOL    O11  423   2.921   3.256   4.663
    3MOL    C14  424   2.968   3.122   4.634
    3MOL    H22  425   2.883   3.059   4.603
    3MOL    C15  426   3.028   3.055   4.762
    3MOL    H23  427   3.009   2.947   4.756
    3MOL    H24  428   2.976   3.093   4.850
    3MOL    O12  429   3.170   3.073   4.775
    3MOL    H25  430   3.208   3.015   4.705
    3MOL    C16  431   2.940   3.329   4.426
    3MOL    H26  432   3.022   3.399   4.448
    3MOL    O13  433   2.863   3.378   4.318
    3MOL    H27  434   2.769   3.352   4.335
    3MOL    C17  435   3.000   3.191   4.390
    3MOL    H28  436   2.915   3.129   4.359
    3MOL    O14  437   3.093   3.201   4.282
    3MOL    H29  438   3.068   3.278   4.228
    3MOL    C18  439   3.067   3.131   4.515
    3MOL    H30  440   3.149   3.198   4.544
    3MOL    O15  441   3.115   2.999   4.484
    3MOL    C19  442   3.258   2.984   4.484
    3MOL    H31  443   3.310   3.081   4.483
    3MOL    O16  444   3.293   2.908   4.603
    3MOL    C20  445   3.237   2.773   4.607
    3MOL    H32  446   3.128   2.778   4.598
    3MOL    C21  447   3.269   2.707   4.743
    3MOL    H33  448   3.202   2.621   4.759
    3MOL    H34  449   3.250   2.779   4.823
    3MOL    O17  450   3.405   2.663   4.750
    3MOL    H35  451   3.404   2.566   4.767
    3MOL    C22  452   3.301   2.910   4.355
    3MOL    H36  453   3.410   2.913   4.353
    3MOL    O18  454   3.249   2.975   4.241
    3MOL    H37  455   3.196   3.053   4.271
    3MOL    C23  456   3.256   2.763   4.354
    3MOL    H38  457   3.147   2.764   4.346
    3MOL    O19  458   3.311   2.693   4.241
    3MOL    H39  459   3.312   2.760   4.168
    3MOL    C24  460   3.295   2.694   4.486
    3MOL    H40  461   3.404   2.690   4.494
    3MOL    O20  462   3.238   2.561   4.482
    3MOL    C25  463   3.331   2.451   4.493
    3MOL    H41  464   3.435   2.486   4.484
    3MOL    O21  465   3.310   2.388   4.621
    3MOL    C26  466   3.176   2.339   4.647
    3MOL    H42  467   3.105   2.422   4.645
    3MOL    C27  468   3.173   2.278   4.790
    3MOL    H43  469   3.069   2.253   4.816
    3MOL    H44  470   3.206   2.354   4.862
    3MOL    O22  471   3.255   2.161   4.801
    3MOL    H45  472   3.238   2.123   4.890
    3MOL    C28  473   3.302   2.348   4.380
    3MOL    H46  474   3.371   2.263   4.393
    3MOL    O23  475   3.322   2.407   4.252
    3MOL    H47  476   3.312   2.505   4.263
    3MOL    C29  477   3.157   2.294   4.392
    3MOL    H48  478   3.088   2.379   4.381
    3MOL    O24  479   3.125   2.194   4.292
    3MOL    H49  480   3.203   2.175   4.236
    3MOL    C30  481   3.137   2.237   4.535
    3MOL    H50  482   3.200   2.147   4.544
    3MOL    O25  483   2.998   2.201   4.548
    3MOL    C31  484   2.971   2.076   4.615
    3MOL    H51  485   3.061   2.037   4.664
    3MOL    O26  486   2.870   2.101   4.715
    3MOL    C32  487   2.741   2.144   4.666
    3MOL    H52  488   2.754   2.237   4.608
    3MOL    C33  489   2.651   2.178   4.786
    3MOL    H53  490   2.573   2.248   4.754
    3MOL    H54  491   2.712   2.230   4.861
    3MOL    O27  492   2.590   2.063   4.846
    3MOL    H55  493   2.497   2.062   4.817
    3MOL    C34  494   2.921   1.971   4.513
    3MOL    H56  495   2.913   1.875   4.566
    3MOL    O28  496   3.013   1.958   4.406
    3MOL    H57  497   3.040   2.050   4.383
    3MOL    C35  498   2.782   2.009   4.456
    3MOL    H58  499   2.795   2.105   4.405
    3MOL    O29  500   2.735   1.909   4.363
    3MOL    H59  501   2.816   1.885   4.312
    3MOL    C36  502   2.684   2.034   4.573
    3MOL    H60  503   2.671   1.942   4.631
    3MOL    O30  504   2.559   2.078   4.515
    3MOL    C37  505   2.451   1.981   4.517
    3MOL    H61  506   2.491   1.880   4.531
    3MOL    O31  507   2.360   2.016   4.624
    3MOL    C38  508   2.301   2.149   4.612
    3MOL    H62  509   2.383   2.220   4.604
    3MOL    C39  510   2.222   2.182   4.740
    3MOL    H63  511   2.145   2.106   4.755
    3MOL    H64  512   2.173   2.279   4.729
    3MOL    O32  513   2.311   2.185   4.851
    3MOL    H65  514   2.263   2.132   4.921
    3MOL    C40  515   2.374   1.985   4.382
    3MOL    H66  516   2.295   1.909   4.385
    3MOL    O33  517   2.465   1.952   4.276
    3MOL    H67  518   2.554   1.976   4.312
    3MOL    C41  519   2.305   2.123   4.361
    3MOL    H68  520   2.384   2.199   4.356
    3MOL    O34  521   2.229   2.125   4.240
    3MOL    H69  522   2.300   2.128   4.170
    3MOL    C42  523   2.215   2.157   4.483
    3MOL    H70  524   2.133   2.084   4.490
    3MOL    O35  525   2.164   2.292   4.466
    3MOL    C43  526   2.019   2.308   4.461
    3MOL    H71  527   1.970   2.210   4.453
    3MOL    O36  528   1.973   2.376   4.580
    3MOL    C44  529   2.022   2.511   4.603
    3MOL    H72  530   2.131   2.509   4.608
    3MOL    C45  531   1.967   2.563   4.738
    3MOL    H73  532   1.859   2.544   4.743
    3MOL    H74  533   1.982   2.671   4.746
    3MOL    O37  534   2.035   2.499   4.846
    3MOL    H75  535   1.985   2.514   4.929
    3MOL    C46  536   1.980   2.394   4.337
    3MOL    H76  537   1.870   2.394   4.331
    3MOL    O38  538   2.034   2.337   4.217
    3MOL    H77  539   2.100   2.269   4.245
    3MOL    C47  540   2.029   2.540   4.351
    3MOL    H78  541   2.139   2.538   4.353
    3MOL    O39  542   1.983   2.617   4.240
    3MOL    H79  543   1.979   2.551   4.166
    3MOL    C48  544   1.981   2.603   4.485
    3MOL    H80  545   1.872   2.613   4.483
    3MOL    O40  546   2.047   2.731   4.502
    4SOL     OW  547   0.223   0.624   0.107
    4SOL    HW1  548   0.168   0.581   0.172
    4SOL    HW2  549   0.248   0.554   0.046
    5SOL     OW  550   0.232   0.281   0.990
    5SOL    HW1  551   0.252   0.243   1.076
    5SOL    HW2  552   0.152   0.237   0.961
    6SOL     OW  553   0.001   0.407   0.661
    6SOL    HW1  554   5.208   0.429   0.668
    6SOL    HW2  555   0.003   0.316   0.632
    7SOL     OW  556   0.574   1.284   1.182
    7SOL    HW1  557   0.491   1.292   1.135
    7SOL    HW2  558   0.590   1.372   1.217
    8SOL     OW  559   1.561   1.512   0.707
    8SOL    HW1  560   1.518   1.491   0.790
    8SOL    HW2  561   1.489   1.515   0.644
    9SOL     OW  562   1.131   0.698   0.702
    9SOL    HW1  563   1.180   0.779   0.687
    9SOL    HW2  564   1.084   0.712   0.784
   10SOL     OW  565   1.771   0.600   0.231
   10SOL    HW1  566   1.728   0.604   0.146
   10SOL    HW2  567   1.730   0.525   0.275
   11SOL     OW  568   0.756   1.141   1.040
   11SOL    HW1  569   0.689   1.175   1.099
   11SOL    HW2  570   0.791   1.219   0.996
   12SOL     OW  571   0.865   0.777   1.822
   12SOL    HW1  572   0.857   0.849   1.885
   12SOL    HW2  573   0.890   0.820   1.740
   13SOL     OW  574   0.684   1.001   0.650
   13SOL    HW1  575   0.750   0.990   0.717
   13SOL    HW2  576   0.617   1.056   0.690
   14SOL     OW  577   0.709   1.150   1.813
   14SOL    HW1  578   0.758   1.229   1.839
   14SOL    HW2  579   0.628   1.184   1.777
   15SOL     OW  580   0.358   1.405   1.060
   15SOL    HW1  581   0.271   1.401   1.021
   15SOL    HW2  582   0.406   1.467   1.006
   16SOL     OW  583   1.461   1.499   1.354
   16SOL    HW1  584   1.511   1.580   1.364
   16SOL    HW2  585   1.399   1.501   1.427
   17SOL     OW  586   0.449   0.399   1.490
   17SOL    HW1  587   0.528   0.346   1.484
   17SOL    HW2  588   0.378   0.336   1.497
   18SOL     OW  589   1.610   0.451   0.738
   18SOL    HW1  590   1.532   0.473   0.687
   18SOL    HW2  591   1.627   0.530   0.790
   19SOL     OW  592   0.217   1.730   0.466
   19SOL    HW1  593   0.259   1.785   0.531
   19SOL    HW2  594   0.287   1.708   0.404
   20SOL     OW  595   1.136   1.342   1.693
   20SOL    HW1  596   1.177   1.337   1.779
   20SOL    HW2  597   1.084   1.262   1.686
   21SOL     OW  598   0.221   1.449   0.533
   21SOL    HW1  599   0.201   1.542   0.540
   21SOL    HW2  600   0.159   1.406   0.593
   22SOL     OW  601   0.253   1.079   0.878
   22SOL    HW1  602   0.260   0.992   0.918
   22SOL    HW2  603   0.199   1.129   0.939
   23SOL     OW  604   0.614   1.790   1.433
   23SOL    HW1  605   0.530   1.773   1.475
   23SOL    HW2  606   0.634   1.881   1.455
   24SOL     OW  607   0.621   0.959   0.138
   24SOL    HW1  608   0.578   1.039   0.108
   24SOL    HW2  609   0.678   0.988   0.209
   25SOL     OW  610   1.587   0.135   1.456
   25SOL    HW1  611   1.608   0.220   1.417
   25SOL    HW2  612   1.584   0.152   1.550
   26SOL     OW  613   0.128   0.639   0.582
   26SOL    HW1  614   0.092   0.555   0.609
   26SOL    HW2  615   0.097   0.701   0.649
   27SOL     OW  616   1.845   1.758   0.331
   27SOL    HW1  617   1.910   1.728   0.396
   27SOL    HW2  618   1.870   1.849   0.314
   28SOL     OW  619   0.032   1.584   0.105
   28SOL    HW1  620   0.024   1.499   0.147
   28SOL    HW2  621   0.006   1.647   0.172
   29SOL     OW  622   1.689   0.919   0.644
   29SOL    HW1  623   1.771   0.875   0.621
   29SOL    HW2  624   1.666   0.970   0.566
   30SOL     OW  625   1.646   1.105   0.434
   30SOL    HW1  626   1.726   1.119   0.385
   30SOL    HW2  627   1.651   1.167   0.507
   31SOL     OW  628   0.130   0.749   1.587
   31SOL    HW1  629   0.224   0.764   1.587
   31SOL    HW2  630   0.092   0.836   1.600
   32SOL     OW  631   0.615   1.386   0.734
   32SOL    HW1  632   0.568   1.304   0.745
   32SOL    HW2  633   0.598   1.412   0.643
   33SOL     OW  634   1.289   1.238   1.423
   33SOL    HW1  635   1.321   1.171   1.363
   33SOL    HW2  636   1.346   1.232   1.500
   34SOL     OW  637   0.816   0.028   0.528
   34SOL    HW1  638   0.844   0.114   0.499
   34SOL    HW2  639   0.720   0.030   0.521
   35SOL     OW  640   0.176   0.945   1.279
   35SOL    HW1  641   0.266   0.916   1.269
   35SOL    HW2  642   0.134   0.923   1.195
   36SOL     OW  643   1.510   1.007   0.212
   36SOL    HW1  644   1.448   0.942   0.245
   36SOL    HW2  645   1.562   1.031   0.288
   37SOL     OW  646   1.186   1.806   1.622
   37SOL    HW1  647   1.195   1.865   1.548
   37SOL    HW2  648   1.202   1.719   1.586
   38SOL     OW  649   0.327   0.276   1.797
   38SOL    HW1  650   0.387   0.337   1.841
   38SOL    HW2  651   0.247   0.281   1.848
   39SOL     OW  652   1.467   1.419   0.952
   39SOL    HW1  653   1.399   1.435   1.017
   39SOL    HW2  654   1.454   1.328   0.925
   40SOL     OW  655   1.659   1.741   0.581
   40SOL    HW1  656   1.638   1.712   0.492
   40SOL    HW2  657   1.634   1.667   0.637
   41SOL     OW  658   0.595   0.714   0.279
   41SOL    HW1  659   0.617   0.794   0.232
   41SOL    HW2  660   0.535   0.742   0.348
   42SOL     OW  661   1.277   0.347   0.932
   42SOL    HW1  662   1.187   0.318   0.944
   42SOL    HW2  663   1.327   0.297   0.996
   43SOL     OW  664   1.587   1.671   0.319
   43SOL    HW1  665   1.677   1.700   0.312
   43SOL    HW2  666   1.560   1.654   0.229
   44SOL     OW  667   0.794   0.618   1.451
   44SOL    HW1  668   0.766   0.596   1.540
   44SOL    HW2  669   0.752   0.552   1.396
   45SOL     OW  670   1.395   0.475   1.678
   45SOL    HW1  671   1.397   0.520   1.763
   45SOL    HW2  672   1.458   0.404   1.687
   46SOL     OW  673   0.955   0.887   1.582
   46SOL    HW1  674   1.009   0.817   1.547
   46SOL    HW2  675   0.907   0.921   1.507
   47SOL     OW  676   0.993   0.417   1.235
   47SOL    HW1  677   0.908   0.438   1.273
   47SOL    HW2  678   0.973   0.368   1.155
   48SOL     OW  679   1.052   0.699   0.428
   48SOL    HW1  680   1.068   0.691   0.522
   48SOL    HW2  681   0.970   0.653   0.413
   49SOL     OW  682   0.067   0.790   0.816
   49SOL    HW1  683   0.151   0.794   0.864
   49SOL    HW2  684   0.066   0.870   0.764
   50SOL     OW  685   0.130   1.884   1.585
   50SOL    HW1  686   0.133   1.854   1.676
   50SOL    HW2  687   0.059   1.833   1.545
   51SOL     OW  688   0.886   0.359   0.202
   51SOL    HW1  689   0.930   0.406   0.131
   51SOL    HW2  690   0.868   0.272   0.166
   52SOL     OW  691   1.707   0.574   1.828
   52SOL    HW1  692   1.671   0.648   1.780
   52SOL    HW2  693   1.737   0.514   1.760
   53SOL     OW  694   1.377   1.142   0.541
   53SOL    HW1  695   1.455   1.128   0.488
   53SOL    HW2  696   1.324   1.204   0.492
   54SOL     OW  697   0.537   0.201   0.884
   54SOL    HW1  698   0.554   0.220   0.976
   54SOL    HW2  699   0.549   0.284   0.839
   55SOL     OW  700   1.005   1.444   0.473
   55SOL    HW1  701   0.967   1.517   0.423
   55SOL    HW2  702   0.986   1.466   0.564
   56SOL     OW  703   0.357   1.802   0.868
   56SOL    HW1  704   0.398   1.716   0.882
   56SOL    HW2  705   0.423   1.864   0.899
   57SOL     OW  706   1.799   1.058   0.868
   57SOL    HW1  707   1.745   1.038   0.792
   57SOL    HW2  708   1.737   1.063   0.941
   58SOL     OW  709   1.228   1.539   1.513
   58SOL    HW1  710   1.214   1.466   1.573
   58SOL    HW2  711   1.164   1.525   1.443
   59SOL     OW  712   0.327   0.949   0.249
   59SOL    HW1  713   0.408   0.967   0.201
   59SOL    HW2  714   0.318   0.853   0.247
   60SOL     OW  715   1.478   0.743   0.726
   60SOL    HW1  716   1.469   0.700   0.811
   60SOL    HW2  717   1.556   0.799   0.736
   61SOL     OW  718   0.465   1.264   1.737
   61SOL    HW1  719   0.438   1.270   1.646
   61SOL    HW2  720   0.383   1.265   1.787
   62SOL     OW  721   1.108   1.781   0.224
   62SOL    HW1  722   1.052   1.741   0.290
   62SOL    HW2  723   1.128   1.710   0.163
   63SOL     OW  724   0.197   0.279   1.493
   63SOL    HW1  725   0.158   0.366   1.488
   63SOL    HW2  726   0.207   0.263   1.587
   64SOL     OW  727   1.634   1.373   0.082
   64SOL    HW1  728   1.592   1.459   0.082
   64SOL    HW2  729   1.562   1.312   0.064
   65SOL     OW  730   0.470   1.734   0.325
   65SOL    HW1  731   0.513   1.794   0.386
   65SOL    HW2  732   0.540   1.708   0.264
   66SOL     OW  733   1.415   0.100   0.446
   66SOL    HW1  734   1.407   0.079   0.353
   66SOL    HW2  735   1.506   0.127   0.456
   67SOL     OW  736   0.277   1.801   1.213
   67SOL    HW1  737   0.306   1.724   1.261
   67SOL    HW2  738   0.225   1.766   1.141
   68SOL     OW  739   0.938   1.699   0.899
   68SOL    HW1  740   1.016   1.646   0.920
   68SOL    HW2  741   0.894   1.649   0.830
   69SOL     OW  742   0.380   0.698   0.475
   69SOL    HW1  743   0.413   0.609   0.485
   69SOL    HW2  744   0.289   0.694   0.503
   70SOL     OW  745   1.539   0.228   1.723
   70SOL    HW1  746   1.546   0.245   1.817
   70SOL    HW2  747   1.463   0.169   1.716
   71SOL     OW  748   0.625   0.138   0.122
   71SOL    HW1  749   0.715   0.109   0.134
   71SOL    HW2  750   0.597   0.097   0.040
   72SOL     OW  751   0.781   0.313   1.766
   72SOL    HW1  752   0.840   0.237   1.766
   72SOL    HW2  753   0.734   0.307   1.850
   73SOL     OW  754   0.877   1.522   1.193
   73SOL    HW1  755   0.861   1.485   1.106
   73SOL    HW2  756   0.947   1.467   1.230
   74SOL     OW  757   1.341   0.589   1.432
   74SOL    HW1  758   1.371   0.558   1.517
   74SOL    HW2  759   1.377   0.677   1.425
   75SOL     OW  760   0.815   1.394   0.940
   75SOL    HW1  761   0.900   1.383   0.896
   75SOL    HW2  762   0.751   1.396   0.869
   76SOL     OW  763   0.927   0.510   0.903
   76SOL    HW1  764   0.904   0.502   0.810
   76SOL    HW2  765   0.958   0.423   0.927
   77SOL     OW  766   0.549   0.058   0.508
   77SOL    HW1  767   0.469   0.058   0.560
   77SOL    HW2  768   0.536   0.128   0.444
   78SOL     OW  769   1.433   1.199   0.036
   78SOL    HW1  770   1.457   1.125   0.092
   78SOL    HW2  771   1.345   1.224   0.065
   79SOL     OW  772   0.317   0.073   0.198
   79SOL    HW1  773   0.379   0.141   0.173
   79SOL    HW2  774   0.367   5.291   0.191
   80SOL     OW  775   0.945   0.258   0.454
   80SOL    HW1  776   0.918   0.304   0.374
   80SOL    HW2  777   1.038   0.281   0.464
   81SOL     OW  778   1.081   0.681   1.460
   81SOL    HW1  779   1.012   0.615   1.464
   81SOL    HW2  780   1.162   0.631   1.452
   82SOL     OW  781   1.223   1.569   0.794
   82SOL    HW1  782   1.239   1.636   0.728
   82SOL    HW2  783   1.292   1.584   0.860
   83SOL     OW  784   0.468   1.151   0.732
   83SOL    HW1  785   0.399   1.131   0.795
   83SOL    HW2  786   0.428   1.135   0.647
   84SOL     OW  787   1.268   1.794   0.607
   84SOL    HW1  788   1.317   1.857   0.555
   84SOL    HW2  789   1.201   1.846   0.651
   85SOL     OW  790   1.030   0.528   0.031
   85SOL    HW1  791   0.991   0.611   0.002
   85SOL    HW2  792   1.093   0.554   0.098
   86SOL     OW  793   0.099   0.530   1.412
   86SOL    HW1  794   0.179   0.550   1.364
   86SOL    HW2  795   0.078   0.612   1.457
   87SOL     OW  796   0.560   0.240   1.159
   87SOL    HW1  797   0.591   0.153   1.184
   87SOL    HW2  798   0.467   0.240   1.182
   88SOL     OW  799   0.868   0.461   0.639
   88SOL    HW1  800   0.824   0.514   0.573
   88SOL    HW2  801   0.889   0.379   0.594
   89SOL     OW  802   0.978   0.061   0.762
   89SOL    HW1  803   0.914   0.056   0.691
   89SOL    HW2  804   0.986   5.271   0.793
   90SOL     OW  805   1.437   1.163   0.857
   90SOL    HW1  806   1.368   1.097   0.856
   90SOL    HW2  807   1.461   1.174   0.765
   91SOL     OW  808   1.467   0.606   0.977
   91SOL    HW1  809   1.417   0.524   0.981
   91SOL    HW2  810   1.527   0.600   1.051
   92SOL     OW  811   1.848   0.815   0.387
   92SOL    HW1  812   1.900   0.762   0.448
   92SOL    HW2  813   1.817   0.753   0.321
   93SOL     OW  814   0.483   1.440   0.173
   93SOL    HW1  815   0.410   1.401   0.221
   93SOL    HW2  816   0.488   1.391   0.092
   94SOL     OW  817   1.671   1.265   0.647
   94SOL    HW1  818   1.766   1.269   0.660
   94SOL    HW2  819   1.640   1.354   0.668
   95SOL     OW  820   1.399   0.578   0.087
   95SOL    HW1  821   1.336   0.559   0.157
   95SOL    HW2  822   1.454   0.500   0.083
   96SOL     OW  823   0.523   0.268   0.328
   96SOL    HW1  824   0.566   0.213   0.263
   96SOL    HW2  825   0.507   0.351   0.282
   97SOL     OW  826   1.752   1.239   1.573
   97SOL    HW1  827   1.840   1.200   1.569
   97SOL    HW2  828   1.768   1.329   1.602
   98SOL     OW  829   1.058   1.353   1.334
   98SOL    HW1  830   0.984   1.322   1.385
   98SOL    HW2  831   1.134   1.312   1.375
   99SOL     OW  832   1.608   1.626   1.654
   99SOL    HW1  833   1.602   1.659   1.565
   99SOL    HW2  834   1.691   1.578   1.656
  100SOL     OW  835   1.129   1.204   1.105
  100SOL    HW1  836   1.070   1.241   1.170
  100SOL    HW2  837   1.096   1.236   1.021
  101SOL     OW  838   1.628   1.098   1.077
  101SOL    HW1  839   1.623   1.160   1.150
  101SOL    HW2  840   1.549   1.115   1.026
  102SOL     OW  841   0.905   0.107   1.390
  102SOL    HW1  842   0.936   0.073   1.305
  102SOL    HW2  843   0.982   0.149   1.428
  103SOL     OW  844   0.984   1.115   1.722
  103SOL    HW1  845   0.892   1.131   1.743
  103SOL    HW2  846   0.983   1.037   1.667
  104SOL     OW  847   0.714   1.062   0.381
  104SOL    HW1  848   0.698   1.045   0.474
  104SOL    HW2  849   0.792   1.010   0.360
  105SOL     OW  850   0.420   0.820   1.253
  105SOL    HW1  851   0.490   0.826   1.318
  105SOL    HW2  852   0.386   0.732   1.262
  106SOL     OW  853   1.267   0.379   1.273
  106SOL    HW1  854   1.300   0.456   1.319
  106SOL    HW2  855   1.177   0.401   1.250
  107SOL     OW  856   0.102   1.624   1.367
  107SOL    HW1  857   0.079   1.630   1.274
  107SOL    HW2  858   0.188   1.581   1.368
  108SOL     OW  859   0.345   1.108   0.487
  108SOL    HW1  860   0.345   1.187   0.434
  108SOL    HW2  861   0.360   1.037   0.425
  109SOL     OW  862   0.555   0.537   0.860
  109SOL    HW1  863   0.571   0.595   0.786
  109SOL    HW2  864   0.621   0.564   0.925
  110SOL     OW  865   1.247   1.347   0.394
  110SOL    HW1  866   1.303   1.420   0.422
  110SOL    HW2  867   1.160   1.370   0.425
  111SOL     OW  868   1.281   1.457   1.147
  111SOL    HW1  869   1.336   1.460   1.225
  111SOL    HW2  870   1.226   1.381   1.159
  112SOL     OW  871   1.582   0.625   0.481
  112SOL    HW1  872   1.532   0.675   0.546
  112SOL    HW2  873   1.617   0.692   0.422
  113SOL     OW  874   0.352   1.519   1.311
  113SOL    HW1  875   0.341   1.476   1.226
  113SOL    HW2  876   0.445   1.537   1.317
  114SOL     OW  877   0.415   0.741   1.602
  114SOL    HW1  878   0.473   0.789   1.544
  114SOL    HW2  879   0.460   0.658   1.618
  115SOL     OW  880   1.601   0.779   1.682
  115SOL    HW1  881   1.515   0.820   1.675
  115SOL    HW2  882   1.654   0.821   1.614
  116SOL     OW  883   1.045   0.117   1.783
  116SOL    HW1  884   1.071   0.196   1.736
  116SOL    HW2  885   1.051   0.047   1.718
  117SOL     OW  886   0.483   0.059   1.738
  117SOL    HW1  887   0.426   5.291   1.700
  117SOL    HW2  888   0.424   0.132   1.755
  118SOL     OW  889   0.586   0.873   1.032
  118SOL    HW1  890   0.616   0.964   1.031
  118SOL    HW2  891   0.529   0.869   1.109
  119SOL     OW  892   1.358   0.859   1.030
  119SOL    HW1  893   1.275   0.850   0.983
  119SOL    HW2  894   1.398   0.772   1.024
  120SOL     OW  895   1.202   0.527   0.270
  120SOL    HW1  896   1.211   0.448   0.322
  120SOL    HW2  897   1.161   0.590   0.328
  121SOL     OW  898   0.304   0.205   1.245
  121SOL    HW1  899   0.263   0.236   1.326
  121SOL    HW2  900   0.297   0.110   1.250
  122SOL     OW  901   0.069   1.319   1.280
  122SOL    HW1  902   0.091   1.259   1.352
  122SOL    HW2  903   5.299   1.374   1.316
  123SOL     OW  904   0.727   0.632   1.060
  123SOL    HW1  905   0.800   0.615   1.001
  123SOL    HW2  906   0.698   0.721   1.038
  124SOL     OW  907   1.734   0.960   1.852
  124SOL    HW1  908   1.689   0.898   1.796
  124SOL    HW2  909   1.675   0.973   1.926
  125SOL     OW  910   0.318   0.066   0.654
  125SOL    HW1  911   0.300   0.160   0.662
  125SOL    HW2  912   0.320   0.035   0.745
  126SOL     OW  913   1.621   0.378   0.367
  126SOL    HW1  914   1.648   0.312   0.431
  126SOL    HW2  915   1.596   0.453   0.421
  127SOL     OW  916   1.028   0.759   0.961
  127SOL    HW1  917   1.024   0.777   1.055
  127SOL    HW2  918   1.001   0.668   0.952
  128SOL     OW  919   0.982   1.566   1.717
  128SOL    HW1  920   0.967   1.610   1.634
  128SOL    HW2  921   1.026   1.484   1.693
  129SOL     OW  922   1.854   1.506   1.605
  129SOL    HW1  923   1.873   1.532   1.515
  129SOL    HW2  924   1.935   1.524   1.653
  130SOL     OW  925   0.354   0.917   1.807
  130SOL    HW1  926   0.435   0.937   1.853
  130SOL    HW2  927   0.380   0.853   1.741
  131SOL     OW  928   1.520   0.302   0.126
  131SOL    HW1  929   1.484   0.215   0.140
  131SOL    HW2  930   1.561   0.326   0.210
  132SOL     OW  931   1.295   0.824   0.021
  132SOL    HW1  932   1.333   0.738   0.039
  132SOL    HW2  933   1.355   0.865   8.040
  133SOL     OW  934   1.066   1.335   0.854
  133SOL    HW1  935   1.069   1.263   0.791
  133SOL    HW2  936   1.127   1.400   0.819
  134SOL     OW  937   0.314   0.809   0.949
  134SOL    HW1  938   0.408   0.828   0.945
  134SOL    HW2  939   0.308   0.719   0.980
  135SOL     OW  940   0.336   0.526   1.015
  135SOL    HW1  941   0.299   0.440   0.999
  135SOL    HW2  942   0.411   0.531   0.956
  136SOL     OW  943   1.135   0.378   1.688
  136SOL    HW1  944   1.088   0.432   1.751
  136SOL    HW2  945   1.223   0.417   1.684
  137SOL     OW  946   1.133   0.223   1.466
  137SOL    HW1  947   1.138   0.282   1.541
  137SOL    HW2  948   1.189   0.264   1.400
  138SOL     OW  949   0.009   1.328   0.202
  138SOL    HW1  950   5.235   1.315   0.143
  138SOL    HW2  951   0.015   1.247   0.252
  139SOL     OW  952   0.093   1.782   0.949
  139SOL    HW1  953   0.059   1.711   0.895
  139SOL    HW2  954   0.181   1.798   0.914
  140SOL     OW  955   0.505   1.573   0.907
  140SOL    HW1  956   0.572   1.638   0.928
  140SOL    HW2  957   0.548   1.512   0.848
  141SOL     OW  958   0.983   0.792   1.227
  141SOL    HW1  959   1.039   0.769   1.301
  141SOL    HW2  960   0.898   0.754   1.248
  142SOL     OW  961   0.036   0.568   1.120
  142SOL    HW1  962   0.116   0.535   1.079
  142SOL    HW2  963   0.038   0.533   1.209
  143SOL     OW  964   0.168   0.515   1.716
  143SOL    HW1  965   0.251   0.495   1.674
  143SOL    HW2  966   0.137   0.594   1.671
  144SOL     OW  967   1.377   0.939   1.659
  144SOL    HW1  968   1.398   1.032   1.657
  144SOL    HW2  969   1.374   0.913   1.566
  145SOL     OW  970   0.818   0.571   0.366
  145SOL    HW1  971   0.828   0.499   0.304
  145SOL    HW2  972   0.741   0.618   0.335
  146SOL     OW  973   1.642   0.602   1.186
  146SOL    HW1  974   1.631   0.542   1.260
  146SOL    HW2  975   1.729   0.581   1.152
  147SOL     OW  976   0.256   1.556   1.735
  147SOL    HW1  977   0.234   1.619   1.803
  147SOL    HW2  978   0.250   1.470   1.777
  148SOL     OW  979   0.698   0.453   1.261
  148SOL    HW1  980   0.649   0.379   1.227
  148SOL    HW2  981   0.698   0.517   1.190
  149SOL     OW  982   0.929   1.679   1.468
  149SOL    HW1  983   0.902   1.644   1.382
  149SOL    HW2  984   0.923   1.774   1.457
  150SOL     OW  985   0.469   0.491   0.175
  150SOL    HW1  986   0.536   0.556   0.195
  150SOL    HW2  987   0.386   0.535   0.195
  151SOL     OW  988   0.148   1.137   1.471
  151SOL    HW1  989   0.146   1.089   1.554
  151SOL    HW2  990   0.160   1.070   1.404
  152SOL     OW  991   1.326   1.047   1.223
  152SOL    HW1  992   1.349   0.984   1.155
  152SOL    HW2  993   1.256   1.099   1.184
  153SOL     OW  994   1.306   0.849   0.308
  153SOL    HW1  995   1.229   0.819   0.357
  153SOL    HW2  996   1.282   0.837   0.216
  154SOL     OW  997   1.772   1.744   1.150
  154SOL    HW1  998   1.832   1.770   1.080
  154SOL    HW2  999   1.748   1.654   1.129
  155SOL     OW 1000   1.241   1.733   1.113
  155SOL    HW1 1001   1.323   1.754   1.068
  155SOL    HW2 1002   1.247   1.639   1.131
  156SOL     OW 1003   0.083   1.217   1.027
  156SOL    HW1 1004   0.069   1.242   1.119
  156SOL    HW2 1005   5.294   1.206   0.992
  157SOL     OW 1006   0.678   1.666   1.729
  157SOL    HW1 1007   0.622   1.744   1.724
  157SOL    HW2 1008   0.742   1.677   1.659
  158SOL     OW 1009   0.893   0.086   0.139
  158SOL    HW1 1010   0.943   0.077   0.058
  158SOL    HW2 1011   0.910   0.005   0.187
  159SOL     OW 1012   1.712   0.149   0.504
  159SOL    HW1 1013   1.787   0.128   0.447
  159SOL    HW2 1014   1.705   0.074   0.563
  160SOL     OW 1015   1.390   1.568   0.486
  160SOL    HW1 1016   1.453   1.601   0.422
  160SOL    HW2 1017   1.342   1.646   0.515
  161SOL     OW 1018   0.145   1.798   1.842
  161SOL    HW1 1019   0.090   1.735   1.889
  161SOL    HW2 1020   0.191   1.845   1.911
  162SOL     OW 1021   1.277   0.926   0.672
  162SOL    HW1 1022   1.351   0.865   0.678
  162SOL    HW2 1023   1.310   0.998   0.619
  163SOL     OW 1024   0.814   1.273   1.430
  163SOL    HW1 1025   0.786   1.313   1.512
  163SOL    HW2 1026   0.745   1.294   1.368
  164SOL     OW 1027   0.678   1.620   0.156
  164SOL    HW1 1028   0.682   1.628   0.060
  164SOL    HW2 1029   0.617   1.548   0.171
  165SOL     OW 1030   1.626   1.727   1.391
  165SOL    HW1 1031   1.676   1.733   1.310
  165SOL    HW2 1032   1.613   1.817   1.419
  166SOL     OW 1033   1.846   0.157   0.957
  166SOL    HW1 1034   1.845   0.062   0.945
  166SOL    HW2 1035   1.759   0.185   0.929
  167SOL     OW 1036   0.271   0.329   0.719
  167SOL    HW1 1037   0.184   0.365   0.702
  167SOL    HW2 1038   0.273   0.313   0.813
  168SOL     OW 1039   1.157   1.581   0.051
  168SOL    HW1 1040   1.172   1.489   0.071
  168SOL    HW2 1041   1.168   1.587   8.036
  169SOL     OW 1042   0.824   1.006   1.373
  169SOL    HW1 1043   0.868   1.001   1.288
  169SOL    HW2 1044   0.823   1.099   1.394
  170SOL     OW 1045   0.918   0.913   0.297
  170SOL    HW1 1046   0.972   0.938   0.222
  170SOL    HW2 1047   0.966   0.842   0.339
  171SOL     OW 1048   1.510   1.624   0.061
  171SOL    HW1 1049   1.415   1.625   0.049
  171SOL    HW2 1050   1.545   1.625   8.051
  172SOL     OW 1051   0.367   1.304   1.493
  172SOL    HW1 1052   0.359   1.378   1.434
  172SOL    HW2 1053   0.292   1.249   1.474
  173SOL     OW 1054   1.611   1.283   1.280
  173SOL    HW1 1055   1.670   1.272   1.355
  173SOL    HW2 1056   1.550   1.352   1.308
  174SOL     OW 1057   1.052   1.107   0.707
  174SOL    HW1 1058   0.981   1.056   0.746
  174SOL    HW2 1059   1.114   1.042   0.675
  175SOL     OW 1060   1.019   0.243   0.968
  175SOL    HW1 1061   0.999   0.197   0.886
  175SOL    HW2 1062   1.012   0.175   1.036
  176SOL     OW 1063   0.602   1.487   0.479
  176SOL    HW1 1064   0.645   1.438   0.409
  176SOL    HW2 1065   0.534   1.538   0.435
  177SOL     OW 1066   1.724   0.387   1.378
  177SOL    HW1 1067   1.794   0.452   1.377
  177SOL    HW2 1068   1.756   0.317   1.320
  178SOL     OW 1069   0.269   1.325   0.300
  178SOL    HW1 1070   0.183   1.335   0.258
  178SOL    HW2 1071   0.261   1.372   0.383
  179SOL     OW 1072   0.116   1.016   1.718
  179SOL    HW1 1073   0.045   0.982   1.771
  179SOL    HW2 1074   0.196   0.985   1.761
  180SOL     OW 1075   0.674   0.215   1.489
  180SOL    HW1 1076   0.758   0.198   1.445
  180SOL    HW2 1077   0.699   0.261   1.570
  181SOL     OW 1078   0.087   0.355   0.004
  181SOL    HW1 1079   0.004   0.320   0.036
  181SOL    HW2 1080   0.064   0.441   8.049
  182SOL     OW 1081   1.430   0.858   1.400
  182SOL    HW1 1082   1.381   0.919   1.345
  182SOL    HW2 1083   1.519   0.861   1.366
  183SOL     OW 1084   0.079   0.141   0.289
  183SOL    HW1 1085   0.078   0.237   0.280
  183SOL    HW2 1086   0.168   0.116   0.265
  184SOL     OW 1087   1.184   1.317   0.122
  184SOL    HW1 1088   1.089   1.307   0.121
  184SOL    HW2 1089   1.208   1.320   0.214
  185SOL     OW 1090   0.619   0.831   1.435
  185SOL    HW1 1091   0.675   0.907   1.419
  185SOL    HW2 1092   0.681   0.758   1.443
  186SOL     OW 1093   1.484   1.777   0.979
  186SOL    HW1 1094   1.507   1.836   0.907
  186SOL    HW2 1095   1.566   1.758   1.023
  187SOL     OW 1096   0.713   0.573   1.704
  187SOL    HW1 1097   0.756   0.636   1.761
  187SOL    HW2 1098   0.745   0.488   1.734
  188SOL     OW 1099   1.471   1.200   1.632
  188SOL    HW1 1100   1.459   1.214   1.726
  188SOL    HW2 1101   1.565   1.215   1.617
  189SOL     OW 1102   0.378   1.742   1.564
  189SOL    HW1 1103   0.295   1.788   1.548
  189SOL    HW2 1104   0.352   1.662   1.609
  190SOL     OW 1105   1.669   0.881   1.255
  190SOL    HW1 1106   1.663   0.796   1.213
  190SOL    HW2 1107   1.660   0.945   1.184
  191SOL     OW 1108   1.216   0.328   0.473
  191SOL    HW1 1109   1.274   0.253   0.458
  191SOL    HW2 1110   1.255   0.374   0.547
  192SOL     OW 1111   0.589   0.737   0.669
  192SOL    HW1 1112   0.628   0.823   0.654
  192SOL    HW2 1113   0.518   0.732   0.604
  193SOL     OW 1114   1.766   0.362   1.649
  193SOL    HW1 1115   1.747   0.376   1.556
  193SOL    HW2 1116   1.695   0.306   1.680
  194SOL     OW 1117   1.745   0.934   1.512
  194SOL    HW1 1118   1.742   1.028   1.525
  194SOL    HW2 1119   1.730   0.922   1.418
  195SOL     OW 1120   0.894   1.372   0.036
  195SOL    HW1 1121   0.831   1.363   0.107
  195SOL    HW2 1122   0.878   1.459   0.000
  196SOL     OW 1123   0.663   1.794   0.944
  196SOL    HW1 1124   0.642   1.884   0.921
  196SOL    HW2 1125   0.758   1.789   0.937
  197SOL     OW 1126   0.867   0.966   0.855
  197SOL    HW1 1127   0.918   0.895   0.894
  197SOL    HW2 1128   0.833   1.016   0.929
  198SOL     OW 1129   1.076   0.976   0.085
  198SOL    HW1 1130   1.068   1.041   0.015
  198SOL    HW2 1131   1.154   0.926   0.062
  199SOL     OW 1132   1.854   1.555   0.844
  199SOL    HW1 1133   1.776   1.543   0.790
  199SOL    HW2 1134   1.846   1.488   0.913
  200SOL     OW 1135   0.225   1.305   1.860
  200SOL    HW1 1136   0.157   1.243   1.834
  200SOL    HW2 1137   0.214   1.315   1.954
  201SOL     OW 1138   0.094   1.233   0.660
  201SOL    HW1 1139   0.098   1.188   0.745
  201SOL    HW2 1140   0.171   1.202   0.613
  202SOL     OW 1141   0.681   1.402   1.628
  202SOL    HW1 1142   0.601   1.360   1.658
  202SOL    HW2 1143   0.677   1.491   1.664
  203SOL     OW 1144   1.814   0.177   1.233
  203SOL    HW1 1145   1.780   0.088   1.238
  203SOL    HW2 1146   1.832   0.190   1.139
  204SOL     OW 1147   0.430   0.440   0.521
  204SOL    HW1 1148   0.465   0.366   0.471
  204SOL    HW2 1149   0.386   0.399   0.596
  205SOL     OW 1150   1.700   1.490   1.097
  205SOL    HW1 1151   1.619   1.466   1.051
  205SOL    HW2 1152   1.712   1.420   1.162
  206SOL     OW 1153   0.337   0.561   1.289
  206SOL    HW1 1154   0.393   0.503   1.339
  206SOL    HW2 1155   0.350   0.534   1.198
  207SOL     OW 1156   0.828   1.577   0.678
  207SOL    HW1 1157   0.815   1.632   0.600
  207SOL    HW2 1158   0.751   1.520   0.680
  208SOL     OW 1159   1.428   0.218   1.117
  208SOL    HW1 1160   1.464   0.143   1.164
  208SOL    HW2 1161   1.379   0.267   1.183
  209SOL     OW 1162   1.001   0.021   1.141
  209SOL    HW1 1163   0.951   5.253   1.096
  209SOL    HW2 1164   1.088   5.282   1.154
  210SOL     OW 1165   0.771   1.326   0.307
  210SOL    HW1 1166   0.740   1.237   0.323
  210SOL    HW2 1167   0.852   1.333   0.358
  211SOL     OW 1168   0.623   1.556   1.287
  211SOL    HW1 1169   0.624   1.638   1.336
  211SOL    HW2 1170   0.710   1.550   1.247
  212SOL     OW 1171   1.394   0.045   0.169
  212SOL    HW1 1172   1.385   0.027   0.076
  212SOL    HW2 1173   1.306   0.072   0.197
  213SOL     OW 1174   1.308   0.468   0.690
  213SOL    HW1 1175   1.250   0.543   0.692
  213SOL    HW2 1176   1.297   0.425   0.775
  214SOL     OW 1177   1.595   0.216   0.882
  214SOL    HW1 1178   1.528   0.227   0.950
  214SOL    HW2 1179   1.587   0.294   0.828
  215SOL     OW 1180   0.046   1.075   0.315
  215SOL    HW1 1181   0.135   1.049   0.291
  215SOL    HW2 1182   5.297   0.993   0.321
  216SOL     OW 1183   0.883   1.653   0.347
  216SOL    HW1 1184   0.815   1.637   0.282
  216SOL    HW2 1185   0.852   1.729   0.396
  217SOL     OW 1186   0.233   0.633   1.979
  217SOL    HW1 1187   0.157   0.605   2.031
  217SOL    HW2 1188   0.214   0.601   1.891
  218SOL     OW 1189   0.233   0.281   2.852
  218SOL    HW1 1190   0.252   0.243   2.938
  218SOL    HW2 1191   0.153   0.237   2.824
  219SOL     OW 1192   5.300   0.406   2.526
  219SOL    HW1 1193   5.207   0.428   2.530
  219SOL    HW2 1194   0.002   0.316   2.495
  220SOL     OW 1195   0.574   1.284   3.044
  220SOL    HW1 1196   0.491   1.293   2.996
  220SOL    HW2 1197   0.590   1.372   3.079
  221SOL     OW 1198   1.561   1.512   2.569
  221SOL    HW1 1199   1.518   1.492   2.652
  221SOL    HW2 1200   1.490   1.516   2.505
  222SOL     OW 1201   1.131   0.698   2.563
  222SOL    HW1 1202   1.180   0.779   2.549
  222SOL    HW2 1203   1.084   0.712   2.645
  223SOL     OW 1204   1.766   0.606   2.090
  223SOL    HW1 1205   1.746   0.598   1.997
  223SOL    HW2 1206   1.732   0.526   2.129
  224SOL     OW 1207   0.755   1.141   2.901
  224SOL    HW1 1208   0.688   1.175   2.961
  224SOL    HW2 1209   0.791   1.219   2.858
  225SOL     OW 1210   0.865   0.777   3.684
  225SOL    HW1 1211   0.858   0.849   3.747
  225SOL    HW2 1212   0.890   0.820   3.602
  226SOL     OW 1213   0.685   1.003   2.509
  226SOL    HW1 1214   0.751   0.990   2.577
  226SOL    HW2 1215   0.617   1.056   2.551
  227SOL     OW 1216   0.709   1.150   3.675
  227SOL    HW1 1217   0.758   1.229   3.702
  227SOL    HW2 1218   0.628   1.184   3.639
  228SOL     OW 1219   0.358   1.405   2.922
  228SOL    HW1 1220   0.270   1.405   2.885
  228SOL    HW2 1221   0.407   1.467   2.868
  229SOL     OW 1222   1.461   1.499   3.216
  229SOL    HW1 1223   1.512   1.580   3.225
  229SOL    HW2 1224   1.399   1.502   3.289
  230SOL     OW 1225   0.449   0.400   3.352
  230SOL    HW1 1226   0.528   0.346   3.346
  230SOL    HW2 1227   0.378   0.336   3.359
  231SOL     OW 1228   1.610   0.451   2.600
  231SOL    HW1 1229   1.535   0.475   2.546
  231SOL    HW2 1230   1.628   0.530   2.652
  232SOL     OW 1231   0.231   1.714   2.339
  232SOL    HW1 1232   0.264   1.783   2.397
  232SOL    HW2 1233   0.293   1.711   2.267
  233SOL     OW 1234   1.136   1.342   3.554
  233SOL    HW1 1235   1.178   1.337   3.641
  233SOL    HW2 1236   1.084   1.262   3.548
  234SOL     OW 1237   0.222   1.444   2.401
  234SOL    HW1 1238   0.215   1.540   2.397
  234SOL    HW2 1239   0.152   1.418   2.461
  235SOL     OW 1240   0.250   1.077   2.737
  235SOL    HW1 1241   0.261   0.992   2.779
  235SOL    HW2 1242   0.198   1.128   2.799
  236SOL     OW 1243   0.614   1.790   3.294
  236SOL    HW1 1244   0.530   1.773   3.337
  236SOL    HW2 1245   0.634   1.881   3.317
  237SOL     OW 1246   0.583   0.983   1.997
  237SOL    HW1 1247   0.629   1.031   1.928
  237SOL    HW2 1248   0.624   1.013   2.078
  238SOL     OW 1249   1.586   0.135   3.318
  238SOL    HW1 1250   1.608   0.220   3.279
  238SOL    HW2 1251   1.584   0.152   3.412
  239SOL     OW 1252   0.124   0.637   2.439
  239SOL    HW1 1253   0.090   0.553   2.472
  239SOL    HW2 1254   0.098   0.701   2.505
  240SOL     OW 1255   1.842   1.759   2.197
  240SOL    HW1 1256   1.907   1.730   2.262
  240SOL    HW2 1257   1.867   1.850   2.178
  241SOL     OW 1258   0.038   1.599   1.994
  241SOL    HW1 1259   0.025   1.507   2.019
  241SOL    HW2 1260   5.283   1.649   2.054
  242SOL     OW 1261   1.689   0.919   2.503
  242SOL    HW1 1262   1.772   0.876   2.482
  242SOL    HW2 1263   1.667   0.969   2.425
  243SOL     OW 1264   1.646   1.106   2.291
  243SOL    HW1 1265   1.732   1.112   2.249
  243SOL    HW2 1266   1.651   1.168   2.365
  244SOL     OW 1267   0.130   0.749   3.448
  244SOL    HW1 1268   0.225   0.763   3.449
  244SOL    HW2 1269   0.092   0.836   3.463
  245SOL     OW 1270   0.615   1.385   2.597
  245SOL    HW1 1271   0.568   1.303   2.607
  245SOL    HW2 1272   0.598   1.412   2.506
  246SOL     OW 1273   1.289   1.238   3.286
  246SOL    HW1 1274   1.321   1.171   3.225
  246SOL    HW2 1275   1.346   1.232   3.362
  247SOL     OW 1276   0.814   0.027   2.389
  247SOL    HW1 1277   0.842   0.116   2.365
  247SOL    HW2 1278   0.719   0.029   2.382
  248SOL     OW 1279   0.176   0.945   3.141
  248SOL    HW1 1280   0.267   0.916   3.131
  248SOL    HW2 1281   0.135   0.923   3.057
  249SOL     OW 1282   1.531   0.994   2.060
  249SOL    HW1 1283   1.462   0.936   2.092
  249SOL    HW2 1284   1.572   1.028   2.140
  250SOL     OW 1285   1.185   1.806   3.484
  250SOL    HW1 1286   1.196   1.865   3.410
  250SOL    HW2 1287   1.202   1.719   3.448
  251SOL     OW 1288   0.327   0.276   3.659
  251SOL    HW1 1289   0.387   0.337   3.703
  251SOL    HW2 1290   0.247   0.281   3.710
  252SOL     OW 1291   1.467   1.419   2.813
  252SOL    HW1 1292   1.398   1.435   2.879
  252SOL    HW2 1293   1.454   1.328   2.787
  253SOL     OW 1294   1.658   1.740   2.440
  253SOL    HW1 1295   1.639   1.710   2.351
  253SOL    HW2 1296   1.634   1.666   2.496
  254SOL     OW 1297   0.594   0.721   2.127
  254SOL    HW1 1298   0.602   0.802   2.077
  254SOL    HW2 1299   0.530   0.741   2.195
  255SOL     OW 1300   1.278   0.347   2.793
  255SOL    HW1 1301   1.187   0.319   2.805
  255SOL    HW2 1302   1.328   0.297   2.857
  256SOL     OW 1303   1.580   1.670   2.171
  256SOL    HW1 1304   1.671   1.701   2.164
  256SOL    HW2 1305   1.554   1.653   2.081
  257SOL     OW 1306   0.794   0.618   3.313
  257SOL    HW1 1307   0.766   0.596   3.402
  257SOL    HW2 1308   0.752   0.552   3.258
  258SOL     OW 1309   1.395   0.475   3.540
  258SOL    HW1 1310   1.397   0.520   3.625
  258SOL    HW2 1311   1.458   0.404   3.549
  259SOL     OW 1312   0.954   0.887   3.444
  259SOL    HW1 1313   1.009   0.817   3.409
  259SOL    HW2 1314   0.907   0.921   3.369
  260SOL     OW 1315   0.994   0.417   3.097
  260SOL    HW1 1316   0.908   0.438   3.135
  260SOL    HW2 1317   0.973   0.368   3.017
  261SOL     OW 1318   1.051   0.698   2.289
  261SOL    HW1 1319   1.066   0.691   2.383
  261SOL    HW2 1320   0.968   0.652   2.275
  262SOL     OW 1321   0.071   0.788   2.674
  262SOL    HW1 1322   0.153   0.793   2.724
  262SOL    HW2 1323   0.064   0.873   2.631
  263SOL     OW 1324   0.130   1.884   3.447
  263SOL    HW1 1325   0.133   1.854   3.538
  263SOL    HW2 1326   0.059   1.833   3.407
  264SOL     OW 1327   0.873   0.364   2.050
  264SOL    HW1 1328   0.915   0.424   1.988
  264SOL    HW2 1329   0.928   0.286   2.049
  265SOL     OW 1330   1.707   0.574   3.690
  265SOL    HW1 1331   1.671   0.648   3.642
  265SOL    HW2 1332   1.737   0.514   3.622
  266SOL     OW 1333   1.377   1.142   2.403
  266SOL    HW1 1334   1.456   1.129   2.351
  266SOL    HW2 1335   1.324   1.204   2.353
  267SOL     OW 1336   0.537   0.202   2.745
  267SOL    HW1 1337   0.553   0.220   2.838
  267SOL    HW2 1338   0.549   0.287   2.702
  268SOL     OW 1339   1.005   1.444   2.334
  268SOL    HW1 1340   0.968   1.517   2.285
  268SOL    HW2 1341   0.988   1.465   2.426
  269SOL     OW 1342   0.357   1.803   2.731
  269SOL    HW1 1343   0.397   1.717   2.745
  269SOL    HW2 1344   0.423   1.865   2.761
  270SOL     OW 1345   1.799   1.057   2.730
  270SOL    HW1 1346   1.745   1.039   2.653
  270SOL    HW2 1347   1.737   1.063   2.803
  271SOL     OW 1348   1.228   1.539   3.375
  271SOL    HW1 1349   1.214   1.466   3.435
  271SOL    HW2 1350   1.164   1.525   3.305
  272SOL     OW 1351   0.316   0.952   2.110
  272SOL    HW1 1352   0.398   0.976   2.066
  272SOL    HW2 1353   0.294   0.866   2.073
  273SOL     OW 1354   1.478   0.743   2.589
  273SOL    HW1 1355   1.470   0.700   2.674
  273SOL    HW2 1356   1.556   0.798   2.598
  274SOL     OW 1357   0.465   1.264   3.599
  274SOL    HW1 1358   0.438   1.270   3.508
  274SOL    HW2 1359   0.383   1.265   3.649
  275SOL     OW 1360   1.122   1.778   2.093
  275SOL    HW1 1361   1.049   1.736   2.138
  275SOL    HW2 1362   1.145   1.716   2.023
  276SOL     OW 1363   0.198   0.280   3.355
  276SOL    HW1 1364   0.158   0.367   3.351
  276SOL    HW2 1365   0.207   0.263   3.449
  277SOL     OW 1366   1.628   1.380   1.950
  277SOL    HW1 1367   1.587   1.465   1.935
  277SOL    HW2 1368   1.560   1.316   1.930
  278SOL     OW 1369   0.471   1.735   2.182
  278SOL    HW1 1370   0.514   1.793   2.245
  278SOL    HW2 1371   0.542   1.704   2.126
  279SOL     OW 1372   1.407   0.101   2.293
  279SOL    HW1 1373   1.399   0.082   2.199
  279SOL    HW2 1374   1.499   0.122   2.306
  280SOL     OW 1375   0.276   1.801   3.075
  280SOL    HW1 1376   0.307   1.724   3.123
  280SOL    HW2 1377   0.225   1.766   3.002
  281SOL     OW 1378   0.939   1.699   2.761
  281SOL    HW1 1379   1.016   1.647   2.782
  281SOL    HW2 1380   0.894   1.649   2.692
  282SOL     OW 1381   0.385   0.696   2.341
  282SOL    HW1 1382   0.415   0.605   2.349
  282SOL    HW2 1383   0.292   0.693   2.362
  283SOL     OW 1384   1.539   0.228   3.585
  283SOL    HW1 1385   1.546   0.245   3.679
  283SOL    HW2 1386   1.463   0.169   3.578
  284SOL     OW 1387   0.621   0.132   1.969
  284SOL    HW1 1388   0.687   0.068   1.994
  284SOL    HW2 1389   0.574   0.092   1.896
  285SOL     OW 1390   0.781   0.313   3.628
  285SOL    HW1 1391   0.840   0.238   3.629
  285SOL    HW2 1392   0.735   0.307   3.712
  286SOL     OW 1393   0.877   1.522   3.055
  286SOL    HW1 1394   0.861   1.485   2.968
  286SOL    HW2 1395   0.947   1.467   3.091
  287SOL     OW 1396   1.341   0.589   3.294
  287SOL    HW1 1397   1.371   0.558   3.379
  287SOL    HW2 1398   1.377   0.677   3.287
  288SOL     OW 1399   0.816   1.394   2.802
  288SOL    HW1 1400   0.900   1.383   2.758
  288SOL    HW2 1401   0.751   1.396   2.731
  289SOL     OW 1402   0.927   0.510   2.765
  289SOL    HW1 1403   0.904   0.502   2.673
  289SOL    HW2 1404   0.958   0.423   2.790
  290SOL     OW 1405   0.548   0.058   2.366
  290SOL    HW1 1406   0.469   0.059   2.420
  290SOL    HW2 1407   0.535   0.130   2.304
  291SOL     OW 1408   1.428   1.198   1.903
  291SOL    HW1 1409   1.458   1.123   1.953
  291SOL    HW2 1410   1.343   1.219   1.940
  292SOL     OW 1411   0.315   0.064   2.047
  292SOL    HW1 1412   0.381   0.130   2.026
  292SOL    HW2 1413   0.364   5.283   2.057
  293SOL     OW 1414   0.940   0.263   2.324
  293SOL    HW1 1415   0.912   0.300   2.240
  293SOL    HW2 1416   1.035   0.274   2.325
  294SOL     OW 1417   1.081   0.681   3.321
  294SOL    HW1 1418   1.012   0.615   3.326
  294SOL    HW2 1419   1.162   0.631   3.315
  295SOL     OW 1420   1.224   1.569   2.656
  295SOL    HW1 1421   1.239   1.637   2.589
  295SOL    HW2 1422   1.291   1.584   2.721
  296SOL     OW 1423   0.467   1.150   2.593
  296SOL    HW1 1424   0.398   1.130   2.657
  296SOL    HW2 1425   0.428   1.132   2.508
  297SOL     OW 1426   1.269   1.794   2.470
  297SOL    HW1 1427   1.315   1.855   2.413
  297SOL    HW2 1428   1.202   1.847   2.513
  298SOL     OW 1429   1.025   0.546   1.885
  298SOL    HW1 1430   0.983   0.630   1.866
  298SOL    HW2 1431   1.089   0.566   1.953
  299SOL     OW 1432   0.098   0.531   3.273
  299SOL    HW1 1433   0.179   0.550   3.225
  299SOL    HW2 1434   0.078   0.612   3.319
  300SOL     OW 1435   0.560   0.239   3.020
  300SOL    HW1 1436   0.592   0.153   3.047
  300SOL    HW2 1437   0.467   0.239   3.044
  301SOL     OW 1438   0.867   0.463   2.503
  301SOL    HW1 1439   0.821   0.516   2.438
  301SOL    HW2 1440   0.890   0.383   2.457
  302SOL     OW 1441   0.979   0.060   2.624
  302SOL    HW1 1442   0.914   0.056   2.554
  302SOL    HW2 1443   0.987   5.270   2.656
  303SOL     OW 1444   1.437   1.162   2.719
  303SOL    HW1 1445   1.368   1.097   2.718
  303SOL    HW2 1446   1.461   1.174   2.627
  304SOL     OW 1447   1.466   0.606   2.839
  304SOL    HW1 1448   1.417   0.524   2.843
  304SOL    HW2 1449   1.527   0.601   2.913
  305SOL     OW 1450   1.845   0.816   2.245
  305SOL    HW1 1451   1.901   0.765   2.303
  305SOL    HW2 1452   1.817   0.754   2.178
  306SOL     OW 1453   0.492   1.418   2.020
  306SOL    HW1 1454   0.416   1.390   2.072
  306SOL    HW2 1455   0.475   1.382   1.933
  307SOL     OW 1456   1.670   1.264   2.508
  307SOL    HW1 1457   1.765   1.267   2.521
  307SOL    HW2 1458   1.640   1.353   2.529
  308SOL     OW 1459   1.394   0.572   1.933
  308SOL    HW1 1460   1.333   0.552   2.004
  308SOL    HW2 1461   1.479   0.541   1.965
  309SOL     OW 1462   0.522   0.265   2.182
  309SOL    HW1 1463   0.569   0.217   2.114
  309SOL    HW2 1464   0.503   0.350   2.142
  310SOL     OW 1465   1.753   1.239   3.435
  310SOL    HW1 1466   1.840   1.200   3.431
  310SOL    HW2 1467   1.768   1.329   3.463
  311SOL     OW 1468   1.058   1.353   3.195
  311SOL    HW1 1469   0.984   1.322   3.246
  311SOL    HW2 1470   1.134   1.312   3.237
  312SOL     OW 1471   1.607   1.624   3.515
  312SOL    HW1 1472   1.602   1.660   3.426
  312SOL    HW2 1473   1.691   1.578   3.518
  313SOL     OW 1474   1.129   1.203   2.967
  313SOL    HW1 1475   1.070   1.242   3.032
  313SOL    HW2 1476   1.096   1.236   2.883
  314SOL     OW 1477   1.628   1.098   2.939
  314SOL    HW1 1478   1.623   1.160   3.012
  314SOL    HW2 1479   1.549   1.115   2.888
  315SOL     OW 1480   0.905   0.107   3.251
  315SOL    HW1 1481   0.936   0.073   3.167
  315SOL    HW2 1482   0.982   0.149   3.290
  316SOL     OW 1483   0.984   1.115   3.585
  316SOL    HW1 1484   0.892   1.131   3.605
  316SOL    HW2 1485   0.983   1.037   3.529
  317SOL     OW 1486   0.707   1.060   2.234
  317SOL    HW1 1487   0.696   1.044   2.328
  317SOL    HW2 1488   0.784   1.007   2.210
  318SOL     OW 1489   0.420   0.820   3.115
  318SOL    HW1 1490   0.490   0.826   3.180
  318SOL    HW2 1491   0.386   0.731   3.124
  319SOL     OW 1492   1.267   0.379   3.135
  319SOL    HW1 1493   1.300   0.456   3.181
  319SOL    HW2 1494   1.177   0.401   3.112
  320SOL     OW 1495   0.102   1.623   3.229
  320SOL    HW1 1496   0.080   1.632   3.136
  320SOL    HW2 1497   0.188   1.581   3.230
  321SOL     OW 1498   0.343   1.106   2.350
  321SOL    HW1 1499   0.352   1.185   2.296
  321SOL    HW2 1500   0.352   1.034   2.287
  322SOL     OW 1501   0.555   0.537   2.722
  322SOL    HW1 1502   0.570   0.595   2.647
  322SOL    HW2 1503   0.620   0.563   2.787
  323SOL     OW 1504   1.248   1.348   2.251
  323SOL    HW1 1505   1.304   1.420   2.282
  323SOL    HW2 1506   1.161   1.370   2.285
  324SOL     OW 1507   1.281   1.457   3.009
  324SOL    HW1 1508   1.337   1.461   3.087
  324SOL    HW2 1509   1.226   1.381   3.022
  325SOL     OW 1510   1.582   0.623   2.341
  325SOL    HW1 1511   1.535   0.677   2.404
  325SOL    HW2 1512   1.627   0.685   2.284
  326SOL     OW 1513   0.352   1.519   3.172
  326SOL    HW1 1514   0.342   1.476   3.088
  326SOL    HW2 1515   0.445   1.537   3.179
  327SOL     OW 1516   0.415   0.741   3.464
  327SOL    HW1 1517   0.473   0.789   3.406
  327SOL    HW2 1518   0.460   0.658   3.481
  328SOL     OW 1519   1.601   0.779   3.544
  328SOL    HW1 1520   1.515   0.820   3.537
  328SOL    HW2 1521   1.654   0.821   3.475
  329SOL     OW 1522   1.044   0.117   3.644
  329SOL    HW1 1523   1.071   0.196   3.597
  329SOL    HW2 1524   1.051   0.047   3.579
  330SOL     OW 1525   0.483   0.059   3.600
  330SOL    HW1 1526   0.426   5.291   3.562
  330SOL    HW2 1527   0.424   0.132   3.617
  331SOL     OW 1528   0.585   0.874   2.894
  331SOL    HW1 1529   0.617   0.964   2.893
  331SOL    HW2 1530   0.529   0.869   2.971
  332SOL     OW 1531   1.358   0.859   2.892
  332SOL    HW1 1532   1.275   0.849   2.845
  332SOL    HW2 1533   1.398   0.772   2.886
  333SOL     OW 1534   1.205   0.528   2.129
  333SOL    HW1 1535   1.210   0.448   2.181
  333SOL    HW2 1536   1.163   0.591   2.187
  334SOL     OW 1537   0.304   0.206   3.107
  334SOL    HW1 1538   0.263   0.237   3.188
  334SOL    HW2 1539   0.294   0.110   3.111
  335SOL     OW 1540   0.068   1.318   3.142
  335SOL    HW1 1541   0.091   1.259   3.214
  335SOL    HW2 1542   5.299   1.374   3.178
  336SOL     OW 1543   0.726   0.632   2.922
  336SOL    HW1 1544   0.800   0.615   2.863
  336SOL    HW2 1545   0.698   0.721   2.899
  337SOL     OW 1546   1.735   0.959   3.715
  337SOL    HW1 1547   1.689   0.898   3.657
  337SOL    HW2 1548   1.675   0.973   3.788
  338SOL     OW 1549   0.318   0.067   2.516
  338SOL    HW1 1550   0.299   0.161   2.524
  338SOL    HW2 1551   0.322   0.036   2.607
  339SOL     OW 1552   1.612   0.375   2.227
  339SOL    HW1 1553   1.645   0.311   2.290
  339SOL    HW2 1554   1.592   0.452   2.279
  340SOL     OW 1555   1.028   0.759   2.822
  340SOL    HW1 1556   1.024   0.777   2.917
  340SOL    HW2 1557   1.001   0.668   2.814
  341SOL     OW 1558   0.981   1.566   3.579
  341SOL    HW1 1559   0.967   1.610   3.496
  341SOL    HW2 1560   1.026   1.484   3.555
  342SOL     OW 1561   1.855   1.505   3.467
  342SOL    HW1 1562   1.873   1.533   3.377
  342SOL    HW2 1563   1.936   1.525   3.514
  343SOL     OW 1564   0.354   0.917   3.669
  343SOL    HW1 1565   0.434   0.938   3.715
  343SOL    HW2 1566   0.380   0.853   3.603
  344SOL     OW 1567   1.526   0.272   1.988
  344SOL    HW1 1568   1.462   0.208   2.019
  344SOL    HW2 1569   1.563   0.310   2.068
  345SOL     OW 1570   1.291   0.826   1.893
  345SOL    HW1 1571   1.334   0.741   1.897
  345SOL    HW2 1572   1.323   0.866   1.812
  346SOL     OW 1573   1.066   1.335   2.716
  346SOL    HW1 1574   1.069   1.263   2.653
  346SOL    HW2 1575   1.127   1.400   2.681
  347SOL     OW 1576   0.314   0.810   2.812
  347SOL    HW1 1577   0.408   0.828   2.807
  347SOL    HW2 1578   0.308   0.720   2.843
  348SOL     OW 1579   0.336   0.526   2.877
  348SOL    HW1 1580   0.299   0.440   2.861
  348SOL    HW2 1581   0.411   0.531   2.818
  349SOL     OW 1582   1.135   0.378   3.550
  349SOL    HW1 1583   1.088   0.432   3.613
  349SOL    HW2 1584   1.223   0.417   3.546
  350SOL     OW 1585   1.133   0.223   3.328
  350SOL    HW1 1586   1.138   0.282   3.403
  350SOL    HW2 1587   1.189   0.264   3.262
  351SOL     OW 1588   0.002   1.330   2.072
  351SOL    HW1 1589   5.228   1.319   2.012
  351SOL    HW2 1590   0.012   1.244   2.114
  352SOL     OW 1591   0.093   1.781   2.813
  352SOL    HW1 1592   0.059   1.711   2.757
  352SOL    HW2 1593   0.180   1.800   2.778
  353SOL     OW 1594   0.505   1.573   2.769
  353SOL    HW1 1595   0.572   1.639   2.790
  353SOL    HW2 1596   0.548   1.512   2.710
  354SOL     OW 1597   0.983   0.792   3.088
  354SOL    HW1 1598   1.039   0.769   3.163
  354SOL    HW2 1599   0.898   0.755   3.110
  355SOL     OW 1600   0.036   0.567   2.981
  355SOL    HW1 1601   0.117   0.535   2.942
  355SOL    HW2 1602   0.038   0.533   3.071
  356SOL     OW 1603   0.167   0.515   3.577
  356SOL    HW1 1604   0.251   0.495   3.537
  356SOL    HW2 1605   0.137   0.594   3.533
  357SOL     OW 1606   1.377   0.939   3.521
  357SOL    HW1 1607   1.398   1.032   3.519
  357SOL    HW2 1608   1.374   0.913   3.428
  358SOL     OW 1609   0.814   0.572   2.224
  358SOL    HW1 1610   0.818   0.498   2.164
  358SOL    HW2 1611   0.740   0.624   2.193
  359SOL     OW 1612   1.642   0.601   3.048
  359SOL    HW1 1613   1.631   0.542   3.122
  359SOL    HW2 1614   1.729   0.581   3.014
  360SOL     OW 1615   0.256   1.556   3.597
  360SOL    HW1 1616   0.234   1.619   3.665
  360SOL    HW2 1617   0.250   1.471   3.640
  361SOL     OW 1618   0.698   0.453   3.123
  361SOL    HW1 1619   0.648   0.378   3.089
  361SOL    HW2 1620   0.697   0.517   3.052
  362SOL     OW 1621   0.928   1.679   3.329
  362SOL    HW1 1622   0.902   1.645   3.244
  362SOL    HW2 1623   0.923   1.774   3.320
  363SOL     OW 1624   0.464   0.492   2.042
  363SOL    HW1 1625   0.526   0.561   2.065
  363SOL    HW2 1626   0.380   0.538   2.035
  364SOL     OW 1627   0.148   1.137   3.333
  364SOL    HW1 1628   0.145   1.089   3.415
  364SOL    HW2 1629   0.160   1.070   3.266
  365SOL     OW 1630   1.326   1.047   3.085
  365SOL    HW1 1631   1.349   0.984   3.017
  365SOL    HW2 1632   1.255   1.099   3.046
  366SOL     OW 1633   1.311   0.857   2.168
  366SOL    HW1 1634   1.236   0.826   2.218
  366SOL    HW2 1635   1.287   0.843   2.077
  367SOL     OW 1636   1.768   1.745   3.009
  367SOL    HW1 1637   1.832   1.769   2.942
  367SOL    HW2 1638   1.746   1.654   2.990
  368SOL     OW 1639   1.241   1.733   2.975
  368SOL    HW1 1640   1.323   1.754   2.930
  368SOL    HW2 1641   1.247   1.639   2.993
  369SOL     OW 1642   0.082   1.216   2.889
  369SOL    HW1 1643   0.070   1.242   2.981
  369SOL    HW2 1644   5.294   1.206   2.855
  370SOL     OW 1645   0.678   1.666   3.591
  370SOL    HW1 1646   0.622   1.744   3.586
  370SOL    HW2 1647   0.742   1.678   3.522
  371SOL     OW 1648   1.712   0.149   2.364
  371SOL    HW1 1649   1.787   0.128   2.309
  371SOL    HW2 1650   1.705   0.074   2.424
  372SOL     OW 1651   1.390   1.568   2.347
  372SOL    HW1 1652   1.451   1.600   2.280
  372SOL    HW2 1653   1.342   1.645   2.375
  373SOL     OW 1654   0.145   1.797   3.704
  373SOL    HW1 1655   0.090   1.735   3.752
  373SOL    HW2 1656   0.191   1.845   3.773
  374SOL     OW 1657   1.277   0.926   2.533
  374SOL    HW1 1658   1.351   0.865   2.540
  374SOL    HW2 1659   1.311   0.998   2.481
  375SOL     OW 1660   0.814   1.273   3.292
  375SOL    HW1 1661   0.786   1.313   3.374
  375SOL    HW2 1662   0.745   1.295   3.230
  376SOL     OW 1663   0.672   1.619   2.017
  376SOL    HW1 1664   0.683   1.632   1.923
  376SOL    HW2 1665   0.617   1.541   2.025
  377SOL     OW 1666   1.626   1.726   3.252
  377SOL    HW1 1667   1.676   1.734   3.171
  377SOL    HW2 1668   1.613   1.817   3.281
  378SOL     OW 1669   1.846   0.157   2.819
  378SOL    HW1 1670   1.844   0.061   2.808
  378SOL    HW2 1671   1.759   0.185   2.790
  379SOL     OW 1672   0.270   0.329   2.580
  379SOL    HW1 1673   0.183   0.366   2.565
  379SOL    HW2 1674   0.273   0.313   2.675
  380SOL     OW 1675   1.207   1.606   1.894
  380SOL    HW1 1676   1.197   1.514   1.920
  380SOL    HW2 1677   1.142   1.618   1.824
  381SOL     OW 1678   0.824   1.006   3.234
  381SOL    HW1 1679   0.868   1.001   3.150
  381SOL    HW2 1680   0.823   1.099   3.256
  382SOL     OW 1681   0.915   0.910   2.152
  382SOL    HW1 1682   0.976   0.942   2.086
  382SOL    HW2 1683   0.963   0.841   2.197
  383SOL     OW 1684   1.492   1.625   1.905
  383SOL    HW1 1685   1.397   1.619   1.891
  383SOL    HW2 1686   1.529   1.631   1.816
  384SOL     OW 1687   0.367   1.304   3.355
  384SOL    HW1 1688   0.359   1.378   3.296
  384SOL    HW2 1689   0.291   1.249   3.335
  385SOL     OW 1690   1.610   1.283   3.142
  385SOL    HW1 1691   1.671   1.273   3.216
  385SOL    HW2 1692   1.550   1.352   3.170
  386SOL     OW 1693   1.052   1.107   2.568
  386SOL    HW1 1694   0.981   1.056   2.608
  386SOL    HW2 1695   1.115   1.042   2.537
  387SOL     OW 1696   1.019   0.243   2.830
  387SOL    HW1 1697   0.999   0.197   2.748
  387SOL    HW2 1698   1.012   0.176   2.898
  388SOL     OW 1699   0.601   1.487   2.343
  388SOL    HW1 1700   0.646   1.439   2.274
  388SOL    HW2 1701   0.535   1.538   2.297
  389SOL     OW 1702   1.724   0.387   3.240
  389SOL    HW1 1703   1.794   0.452   3.239
  389SOL    HW2 1704   1.756   0.317   3.182
  390SOL     OW 1705   0.260   1.348   2.154
  390SOL    HW1 1706   0.167   1.350   2.132
  390SOL    HW2 1707   0.264   1.385   2.243
  391SOL     OW 1708   0.116   1.015   3.579
  391SOL    HW1 1709   0.045   0.982   3.634
  391SOL    HW2 1710   0.196   0.985   3.622
  392SOL     OW 1711   0.674   0.215   3.351
  392SOL    HW1 1712   0.758   0.198   3.308
  392SOL    HW2 1713   0.699   0.260   3.432
  393SOL     OW 1714   0.079   0.337   1.899
  393SOL    HW1 1715   5.287   0.310   1.887
  393SOL    HW2 1716   0.093   0.405   1.834
  394SOL     OW 1717   1.430   0.858   3.262
  394SOL    HW1 1718   1.381   0.919   3.207
  394SOL    HW2 1719   1.519   0.861   3.228
  395SOL     OW 1720   0.083   0.141   2.156
  395SOL    HW1 1721   0.077   0.235   2.137
  395SOL    HW2 1722   0.170   0.117   2.125
  396SOL     OW 1723   1.179   1.339   1.979
  396SOL    HW1 1724   1.088   1.309   1.982
  396SOL    HW2 1725   1.207   1.340   2.071
  397SOL     OW 1726   0.619   0.831   3.297
  397SOL    HW1 1727   0.675   0.907   3.281
  397SOL    HW2 1728   0.681   0.758   3.305
  398SOL     OW 1729   1.484   1.776   2.842
  398SOL    HW1 1730   1.508   1.835   2.770
  398SOL    HW2 1731   1.567   1.758   2.886
  399SOL     OW 1732   0.713   0.573   3.566
  399SOL    HW1 1733   0.756   0.636   3.623
  399SOL    HW2 1734   0.745   0.488   3.596
  400SOL     OW 1735   1.471   1.200   3.494
  400SOL    HW1 1736   1.459   1.214   3.588
  400SOL    HW2 1737   1.565   1.215   3.479
  401SOL     OW 1738   0.378   1.742   3.426
  401SOL    HW1 1739   0.295   1.788   3.410
  401SOL    HW2 1740   0.352   1.662   3.471
  402SOL     OW 1741   1.669   0.881   3.117
  402SOL    HW1 1742   1.663   0.796   3.074
  402SOL    HW2 1743   1.660   0.945   3.046
  403SOL     OW 1744   1.221   0.319   2.327
  403SOL    HW1 1745   1.284   0.247   2.321
  403SOL    HW2 1746   1.251   0.371   2.402
  404SOL     OW 1747   0.590   0.738   2.531
  404SOL    HW1 1748   0.629   0.824   2.515
  404SOL    HW2 1749   0.521   0.730   2.465
  405SOL     OW 1750   1.766   0.362   3.511
  405SOL    HW1 1751   1.747   0.376   3.418
  405SOL    HW2 1752   1.695   0.306   3.542
  406SOL     OW 1753   1.745   0.934   3.374
  406SOL    HW1 1754   1.742   1.029   3.387
  406SOL    HW2 1755   1.730   0.922   3.280
  407SOL     OW 1756   0.862   1.367   1.896
  407SOL    HW1 1757   0.824   1.396   1.979
  407SOL    HW2 1758   0.881   1.448   1.849
  408SOL     OW 1759   0.663   1.793   2.805
  408SOL    HW1 1760   0.642   1.884   2.783
  408SOL    HW2 1761   0.758   1.789   2.799
  409SOL     OW 1762   0.867   0.966   2.716
  409SOL    HW1 1763   0.918   0.895   2.756
  409SOL    HW2 1764   0.833   1.016   2.791
  410SOL     OW 1765   1.078   0.987   1.950
  410SOL    HW1 1766   1.057   1.039   1.872
  410SOL    HW2 1767   1.153   0.934   1.925
  411SOL     OW 1768   1.854   1.555   2.707
  411SOL    HW1 1769   1.776   1.543   2.652
  411SOL    HW2 1770   1.845   1.489   2.776
  412SOL     OW 1771   0.225   1.305   3.722
  412SOL    HW1 1772   0.157   1.243   3.697
  412SOL    HW2 1773   0.214   1.315   3.817
  413SOL     OW 1774   0.087   1.220   2.516
  413SOL    HW1 1775   0.100   1.188   2.606
  413SOL    HW2 1776   0.174   1.214   2.476
  414SOL     OW 1777   0.681   1.402   3.490
  414SOL    HW1 1778   0.600   1.360   3.520
  414SOL    HW2 1779   0.677   1.491   3.526
  415SOL     OW 1780   1.814   0.177   3.095
  415SOL    HW1 1781   1.780   0.088   3.100
  415SOL    HW2 1782   1.832   0.190   3.002
  416SOL     OW 1783   0.433   0.436   2.384
  416SOL    HW1 1784   0.464   0.362   2.332
  416SOL    HW2 1785   0.387   0.396   2.458
  417SOL     OW 1786   1.701   1.489   2.957
  417SOL    HW1 1787   1.619   1.465   2.913
  417SOL    HW2 1788   1.712   1.420   3.023
  418SOL     OW 1789   0.336   0.561   3.151
  418SOL    HW1 1790   0.393   0.503   3.202
  418SOL    HW2 1791   0.350   0.533   3.060
  419SOL     OW 1792   0.828   1.577   2.540
  419SOL    HW1 1793   0.815   1.633   2.463
  419SOL    HW2 1794   0.752   1.520   2.542
  420SOL     OW 1795   1.428   0.218   2.978
  420SOL    HW1 1796   1.464   0.144   3.026
  420SOL    HW2 1797   1.379   0.268   3.044
  421SOL     OW 1798   1.002   0.021   3.003
  421SOL    HW1 1799   0.952   5.252   2.959
  421SOL    HW2 1800   1.088   5.282   3.016
  422SOL     OW 1801   0.772   1.333   2.177
  422SOL    HW1 1802   0.742   1.242   2.183
  422SOL    HW2 1803   0.854   1.334   2.226
  423SOL     OW 1804   0.623   1.556   3.149
  423SOL    HW1 1805   0.624   1.638   3.198
  423SOL    HW2 1806   0.710   1.550   3.110
  424SOL     OW 1807   1.354   0.039   2.024
  424SOL    HW1 1808   1.388   5.297   1.945
  424SOL    HW2 1809   1.276   5.288   2.046
  425SOL     OW 1810   1.301   0.464   2.547
  425SOL    HW1 1811   1.246   0.542   2.552
  425SOL    HW2 1812   1.294   0.423   2.633
  426SOL     OW 1813   1.594   0.216   2.744
  426SOL    HW1 1814   1.528   0.227   2.812
  426SOL    HW2 1815   1.587   0.294   2.690
  427SOL     OW 1816   0.048   1.069   2.152
  427SOL    HW1 1817   0.137   1.036   2.141
  427SOL    HW2 1818   5.300   0.994   2.187
  428SOL     OW 1819   0.885   1.652   2.204
  428SOL    HW1 1820   0.812   1.636   2.144
  428SOL    HW2 1821   0.857   1.727   2.256
  429SOL     OW 1822   0.233   0.633   3.841
  429SOL    HW1 1823   0.157   0.606   3.893
  429SOL    HW2 1824   0.214   0.600   3.753
  430SOL     OW 1825   0.233   0.281   4.714
  430SOL    HW1 1826   0.252   0.243   4.800
  430SOL    HW2 1827   0.153   0.237   4.686
  431SOL     OW 1828   5.300   0.406   4.389
  431SOL    HW1 1829   5.207   0.428   4.392
  431SOL    HW2 1830   0.002   0.316   4.357
  432SOL     OW 1831   0.574   1.284   4.906
  432SOL    HW1 1832   0.491   1.293   4.858
  432SOL    HW2 1833   0.590   1.372   4.941
  433SOL     OW 1834   1.560   1.510   4.431
  433SOL    HW1 1835   1.517   1.492   4.514
  433SOL    HW2 1836   1.488   1.516   4.368
  434SOL     OW 1837   1.131   0.698   4.425
  434SOL    HW1 1838   1.180   0.779   4.411
  434SOL    HW2 1839   1.084   0.712   4.507
  435SOL     OW 1840   1.767   0.606   3.952
  435SOL    HW1 1841   1.746   0.598   3.859
  435SOL    HW2 1842   1.732   0.526   3.991
  436SOL     OW 1843   0.755   1.141   4.763
  436SOL    HW1 1844   0.688   1.175   4.822
  436SOL    HW2 1845   0.790   1.218   4.720
  437SOL     OW 1846   0.865   0.777   5.546
  437SOL    HW1 1847   0.858   0.849   5.609
  437SOL    HW2 1848   0.890   0.820   5.464
  438SOL     OW 1849   0.685   1.003   4.371
  438SOL    HW1 1850   0.751   0.990   4.439
  438SOL    HW2 1851   0.617   1.056   4.413
  439SOL     OW 1852   0.709   1.150   5.537
  439SOL    HW1 1853   0.758   1.229   5.564
  439SOL    HW2 1854   0.628   1.184   5.501
  440SOL     OW 1855   0.358   1.405   4.783
  440SOL    HW1 1856   0.270   1.405   4.747
  440SOL    HW2 1857   0.407   1.467   4.730
  441SOL     OW 1858   1.461   1.500   5.078
  441SOL    HW1 1859   1.512   1.580   5.087
  441SOL    HW2 1860   1.399   1.502   5.151
  442SOL     OW 1861   0.449   0.400   5.214
  442SOL    HW1 1862   0.528   0.346   5.208
  442SOL    HW2 1863   0.378   0.336   5.221
  443SOL     OW 1864   1.610   0.451   4.462
  443SOL    HW1 1865   1.535   0.475   4.408
  443SOL    HW2 1866   1.628   0.530   4.514
  444SOL     OW 1867   0.231   1.714   4.201
  444SOL    HW1 1868   0.264   1.783   4.259
  444SOL    HW2 1869   0.294   1.711   4.129
  445SOL     OW 1870   1.136   1.342   5.417
  445SOL    HW1 1871   1.178   1.337   5.503
  445SOL    HW2 1872   1.084   1.262   5.410
  446SOL     OW 1873   0.222   1.444   4.263
  446SOL    HW1 1874   0.216   1.539   4.259
  446SOL    HW2 1875   0.151   1.418   4.323
  447SOL     OW 1876   0.249   1.077   4.599
  447SOL    HW1 1877   0.261   0.992   4.641
  447SOL    HW2 1878   0.198   1.128   4.661
  448SOL     OW 1879   0.614   1.790   5.156
  448SOL    HW1 1880   0.529   1.773   5.199
  448SOL    HW2 1881   0.634   1.881   5.179
  449SOL     OW 1882   0.583   0.983   3.859
  449SOL    HW1 1883   0.629   1.031   3.790
  449SOL    HW2 1884   0.624   1.013   3.940
  450SOL     OW 1885   1.586   0.135   5.180
  450SOL    HW1 1886   1.608   0.220   5.141
  450SOL    HW2 1887   1.584   0.152   5.274
  451SOL     OW 1888   0.124   0.636   4.301
  451SOL    HW1 1889   0.090   0.553   4.335
  451SOL    HW2 1890   0.098   0.701   4.367
  452SOL     OW 1891   1.842   1.754   4.058
  452SOL    HW1 1892   1.901   1.728   4.129
  452SOL    HW2 1893   1.862   1.846   4.044
  453SOL     OW 1894   0.038   1.599   3.856
  453SOL    HW1 1895   0.024   1.507   3.881
  453SOL    HW2 1896   5.283   1.649   3.916
  454SOL     OW 1897   1.689   0.918   4.365
  454SOL    HW1 1898   1.772   0.876   4.344
  454SOL    HW2 1899   1.667   0.969   4.286
  455SOL     OW 1900   1.646   1.106   4.153
  455SOL    HW1 1901   1.732   1.112   4.111
  455SOL    HW2 1902   1.651   1.168   4.227
  456SOL     OW 1903   0.130   0.749   5.310
  456SOL    HW1 1904   0.225   0.763   5.311
  456SOL    HW2 1905   0.092   0.836   5.325
  457SOL     OW 1906   0.615   1.385   4.459
  457SOL    HW1 1907   0.568   1.303   4.469
  457SOL    HW2 1908   0.598   1.412   4.368
  458SOL     OW 1909   1.288   1.238   5.148
  458SOL    HW1 1910   1.321   1.171   5.087
  458SOL    HW2 1911   1.346   1.232   5.224
  459SOL     OW 1912   0.814   0.027   4.251
  459SOL    HW1 1913   0.842   0.116   4.227
  459SOL    HW2 1914   0.719   0.029   4.244
  460SOL     OW 1915   0.176   0.945   5.003
  460SOL    HW1 1916   0.267   0.916   4.993
  460SOL    HW2 1917   0.135   0.923   4.919
  461SOL     OW 1918   1.532   0.993   3.923
  461SOL    HW1 1919   1.462   0.936   3.954
  461SOL    HW2 1920   1.572   1.028   4.002
  462SOL     OW 1921   1.185   1.806   5.346
  462SOL    HW1 1922   1.196   1.866   5.272
  462SOL    HW2 1923   1.202   1.719   5.310
  463SOL     OW 1924   0.327   0.276   5.521
  463SOL    HW1 1925   0.387   0.337   5.565
  463SOL    HW2 1926   0.247   0.281   5.572
  464SOL     OW 1927   1.467   1.419   4.676
  464SOL    HW1 1928   1.398   1.435   4.741
  464SOL    HW2 1929   1.454   1.328   4.649
  465SOL     OW 1930   1.664   1.732   4.303
  465SOL    HW1 1931   1.640   1.706   4.214
  465SOL    HW2 1932   1.635   1.659   4.358
  466SOL     OW 1933   0.594   0.720   3.989
  466SOL    HW1 1934   0.603   0.802   3.939
  466SOL    HW2 1935   0.530   0.741   4.057
  467SOL     OW 1936   1.278   0.347   4.655
  467SOL    HW1 1937   1.187   0.319   4.667
  467SOL    HW2 1938   1.328   0.297   4.719
  468SOL     OW 1939   1.580   1.668   4.033
  468SOL    HW1 1940   1.670   1.701   4.027
  468SOL    HW2 1941   1.553   1.653   3.943
  469SOL     OW 1942   0.794   0.618   5.175
  469SOL    HW1 1943   0.766   0.596   5.264
  469SOL    HW2 1944   0.751   0.552   5.120
  470SOL     OW 1945   1.394   0.475   5.402
  470SOL    HW1 1946   1.397   0.520   5.487
  470SOL    HW2 1947   1.458   0.404   5.411
  471SOL     OW 1948   0.954   0.887   5.306
  471SOL    HW1 1949   1.009   0.817   5.271
  471SOL    HW2 1950   0.907   0.922   5.231
  472SOL     OW 1951   0.994   0.417   4.959
  472SOL    HW1 1952   0.908   0.438   4.997
  472SOL    HW2 1953   0.973   0.368   4.879
  473SOL     OW 1954   1.051   0.698   4.151
  473SOL    HW1 1955   1.066   0.691   4.245
  473SOL    HW2 1956   0.968   0.652   4.137
  474SOL     OW 1957   0.071   0.788   4.536
  474SOL    HW1 1958   0.153   0.793   4.586
  474SOL    HW2 1959   0.064   0.874   4.494
  475SOL     OW 1960   0.130   1.884   5.309
  475SOL    HW1 1961   0.133   1.854   5.400
  475SOL    HW2 1962   0.059   1.833   5.269
  476SOL     OW 1963   0.873   0.364   3.912
  476SOL    HW1 1964   0.915   0.424   3.850
  476SOL    HW2 1965   0.928   0.286   3.911
  477SOL     OW 1966   1.707   0.574   5.552
  477SOL    HW1 1967   1.670   0.648   5.504
  477SOL    HW2 1968   1.737   0.514   5.484
  478SOL     OW 1969   1.377   1.142   4.265
  478SOL    HW1 1970   1.456   1.129   4.213
  478SOL    HW2 1971   1.324   1.204   4.215
  479SOL     OW 1972   0.537   0.202   4.607
  479SOL    HW1 1973   0.553   0.220   4.700
  479SOL    HW2 1974   0.549   0.287   4.564
  480SOL     OW 1975   1.005   1.443   4.196
  480SOL    HW1 1976   0.968   1.516   4.147
  480SOL    HW2 1977   0.989   1.465   4.288
  481SOL     OW 1978   0.357   1.803   4.594
  481SOL    HW1 1979   0.398   1.717   4.607
  481SOL    HW2 1980   0.423   1.865   4.622
  482SOL     OW 1981   1.799   1.057   4.592
  482SOL    HW1 1982   1.744   1.039   4.515
  482SOL    HW2 1983   1.738   1.063   4.665
  483SOL     OW 1984   1.228   1.539   5.237
  483SOL    HW1 1985   1.214   1.466   5.297
  483SOL    HW2 1986   1.165   1.525   5.167
  484SOL     OW 1987   0.316   0.952   3.972
  484SOL    HW1 1988   0.398   0.976   3.928
  484SOL    HW2 1989   0.294   0.866   3.935
  485SOL     OW 1990   1.478   0.743   4.451
  485SOL    HW1 1991   1.470   0.700   4.536
  485SOL    HW2 1992   1.556   0.798   4.459
  486SOL     OW 1993   0.465   1.264   5.462
  486SOL    HW1 1994   0.438   1.270   5.370
  486SOL    HW2 1995   0.383   1.265   5.511
  487SOL     OW 1996   1.121   1.778   3.954
  487SOL    HW1 1997   1.049   1.735   4.000
  487SOL    HW2 1998   1.145   1.716   3.885
  488SOL     OW 1999   0.198   0.280   5.217
  488SOL    HW1 2000   0.158   0.367   5.212
  488SOL    HW2 2001   0.207   0.263   5.311
  489SOL     OW 2002   1.629   1.380   3.812
  489SOL    HW1 2003   1.588   1.465   3.797
  489SOL    HW2 2004   1.560   1.316   3.792
  490SOL     OW 2005   0.471   1.734   4.044
  490SOL    HW1 2006   0.514   1.793   4.107
  490SOL    HW2 2007   0.542   1.704   3.987
  491SOL     OW 2008   1.407   0.101   4.155
  491SOL    HW1 2009   1.399   0.082   4.061
  491SOL    HW2 2010   1.499   0.122   4.168
  492SOL     OW 2011   0.276   1.801   4.937
  492SOL    HW1 2012   0.307   1.723   4.984
  492SOL    HW2 2013   0.225   1.766   4.864
  493SOL     OW 2014   0.939   1.698   4.623
  493SOL    HW1 2015   1.017   1.647   4.643
  493SOL    HW2 2016   0.894   1.649   4.554
  494SOL     OW 2017   0.385   0.696   4.203
  494SOL    HW1 2018   0.415   0.605   4.211
  494SOL    HW2 2019   0.292   0.693   4.224
  495SOL     OW 2020   1.539   0.228   5.447
  495SOL    HW1 2021   1.546   0.245   5.541
  495SOL    HW2 2022   1.463   0.170   5.440
  496SOL     OW 2023   0.621   0.132   3.831
  496SOL    HW1 2024   0.688   0.069   3.856
  496SOL    HW2 2025   0.574   0.091   3.758
  497SOL     OW 2026   0.781   0.313   5.490
  497SOL    HW1 2027   0.841   0.238   5.491
  497SOL    HW2 2028   0.735   0.307   5.574
  498SOL     OW 2029   0.877   1.521   4.918
  498SOL    HW1 2030   0.861   1.485   4.830
  498SOL    HW2 2031   0.947   1.467   4.953
  499SOL     OW 2032   1.341   0.589   5.156
  499SOL    HW1 2033   1.371   0.558   5.241
  499SOL    HW2 2034   1.377   0.677   5.148
  500SOL     OW 2035   0.816   1.394   4.664
  500SOL    HW1 2036   0.900   1.383   4.620
  500SOL    HW2 2037   0.751   1.396   4.593
  501SOL     OW 2038   0.927   0.510   4.627
  501SOL    HW1 2039   0.904   0.502   4.535
  501SOL    HW2 2040   0.958   0.423   4.652
  502SOL     OW 2041   0.547   0.058   4.228
  502SOL    HW1 2042   0.469   0.059   4.283
  502SOL    HW2 2043   0.535   0.130   4.166
  503SOL     OW 2044   1.428   1.198   3.765
  503SOL    HW1 2045   1.458   1.123   3.815
  503SOL    HW2 2046   1.343   1.220   3.803
  504SOL     OW 2047   0.315   0.064   3.908
  504SOL    HW1 2048   0.382   0.130   3.889
  504SOL    HW2 2049   0.364   5.283   3.919
  505SOL     OW 2050   0.940   0.263   4.187
  505SOL    HW1 2051   0.912   0.299   4.103
  505SOL    HW2 2052   1.035   0.274   4.187
  506SOL     OW 2053   1.081   0.681   5.184
  506SOL    HW1 2054   1.012   0.614   5.188
  506SOL    HW2 2055   1.162   0.632   5.177
  507SOL     OW 2056   1.224   1.570   4.518
  507SOL    HW1 2057   1.239   1.637   4.451
  507SOL    HW2 2058   1.291   1.586   4.583
  508SOL     OW 2059   0.467   1.150   4.455
  508SOL    HW1 2060   0.398   1.130   4.519
  508SOL    HW2 2061   0.428   1.132   4.370
  509SOL     OW 2062   1.269   1.794   4.332
  509SOL    HW1 2063   1.316   1.855   4.275
  509SOL    HW2 2064   1.203   1.848   4.376
  510SOL     OW 2065   1.025   0.546   3.747
  510SOL    HW1 2066   0.983   0.630   3.728
  510SOL    HW2 2067   1.089   0.566   3.815
  511SOL     OW 2068   0.098   0.531   5.135
  511SOL    HW1 2069   0.179   0.550   5.087
  511SOL    HW2 2070   0.078   0.612   5.181
  512SOL     OW 2071   0.560   0.239   4.882
  512SOL    HW1 2072   0.592   0.153   4.909
  512SOL    HW2 2073   0.467   0.239   4.906
  513SOL     OW 2074   0.867   0.463   4.365
  513SOL    HW1 2075   0.821   0.516   4.300
  513SOL    HW2 2076   0.890   0.383   4.319
  514SOL     OW 2077   0.979   0.060   4.486
  514SOL    HW1 2078   0.914   0.056   4.416
  514SOL    HW2 2079   0.987   5.270   4.518
  515SOL     OW 2080   1.437   1.162   4.581
  515SOL    HW1 2081   1.368   1.097   4.580
  515SOL    HW2 2082   1.461   1.174   4.490
  516SOL     OW 2083   1.466   0.606   4.701
  516SOL    HW1 2084   1.417   0.524   4.705
  516SOL    HW2 2085   1.527   0.601   4.775
  517SOL     OW 2086   1.846   0.816   4.106
  517SOL    HW1 2087   1.902   0.765   4.165
  517SOL    HW2 2088   1.817   0.754   4.040
  518SOL     OW 2089   0.492   1.417   3.882
  518SOL    HW1 2090   0.416   1.390   3.934
  518SOL    HW2 2091   0.475   1.382   3.795
  519SOL     OW 2092   1.671   1.264   4.370
  519SOL    HW1 2093   1.765   1.269   4.383
  519SOL    HW2 2094   1.639   1.352   4.391
  520SOL     OW 2095   1.394   0.572   3.795
  520SOL    HW1 2096   1.333   0.553   3.866
  520SOL    HW2 2097   1.479   0.541   3.827
  521SOL     OW 2098   0.522   0.265   4.044
  521SOL    HW1 2099   0.569   0.217   3.976
  521SOL    HW2 2100   0.503   0.350   4.005
  522SOL     OW 2101   1.753   1.239   5.297
  522SOL    HW1 2102   1.840   1.200   5.293
  522SOL    HW2 2103   1.768   1.329   5.326
  523SOL     OW 2104   1.059   1.353   5.057
  523SOL    HW1 2105   0.984   1.322   5.108
  523SOL    HW2 2106   1.134   1.312   5.099
  524SOL     OW 2107   1.608   1.625   5.378
  524SOL    HW1 2108   1.602   1.660   5.289
  524SOL    HW2 2109   1.691   1.578   5.380
  525SOL     OW 2110   1.128   1.202   4.829
  525SOL    HW1 2111   1.070   1.242   4.894
  525SOL    HW2 2112   1.096   1.236   4.745
  526SOL     OW 2113   1.628   1.098   4.801
  526SOL    HW1 2114   1.624   1.160   4.874
  526SOL    HW2 2115   1.550   1.115   4.750
  527SOL     OW 2116   0.905   0.107   5.113
  527SOL    HW1 2117   0.936   0.073   5.029
  527SOL    HW2 2118   0.982   0.149   5.152
  528SOL     OW 2119   0.984   1.115   5.447
  528SOL    HW1 2120   0.892   1.131   5.467
  528SOL    HW2 2121   0.983   1.037   5.391
  529SOL     OW 2122   0.707   1.060   4.096
  529SOL    HW1 2123   0.696   1.044   4.190
  529SOL    HW2 2124   0.784   1.007   4.072
  530SOL     OW 2125   0.420   0.820   4.977
  530SOL    HW1 2126   0.490   0.826   5.042
  530SOL    HW2 2127   0.386   0.731   4.986
  531SOL     OW 2128   1.267   0.379   4.997
  531SOL    HW1 2129   1.300   0.456   5.043
  531SOL    HW2 2130   1.177   0.401   4.974
  532SOL     OW 2131   0.101   1.623   5.091
  532SOL    HW1 2132   0.080   1.632   4.998
  532SOL    HW2 2133   0.188   1.581   5.092
  533SOL     OW 2134   0.343   1.106   4.212
  533SOL    HW1 2135   0.353   1.185   4.159
  533SOL    HW2 2136   0.352   1.034   4.149
  534SOL     OW 2137   0.555   0.537   4.584
  534SOL    HW1 2138   0.570   0.595   4.509
  534SOL    HW2 2139   0.620   0.563   4.649
  535SOL     OW 2140   1.248   1.348   4.113
  535SOL    HW1 2141   1.304   1.420   4.144
  535SOL    HW2 2142   1.161   1.370   4.147
  536SOL     OW 2143   1.281   1.457   4.871
  536SOL    HW1 2144   1.337   1.461   4.949
  536SOL    HW2 2145   1.225   1.381   4.885
  537SOL     OW 2146   1.582   0.623   4.203
  537SOL    HW1 2147   1.535   0.677   4.267
  537SOL    HW2 2148   1.626   0.686   4.146
  538SOL     OW 2149   0.352   1.519   5.034
  538SOL    HW1 2150   0.342   1.476   4.950
  538SOL    HW2 2151   0.445   1.537   5.041
  539SOL     OW 2152   0.415   0.741   5.326
  539SOL    HW1 2153   0.473   0.789   5.268
  539SOL    HW2 2154   0.460   0.658   5.343
  540SOL     OW 2155   1.601   0.778   5.406
  540SOL    HW1 2156   1.515   0.820   5.399
  540SOL    HW2 2157   1.654   0.821   5.338
  541SOL     OW 2158   1.044   0.117   5.506
  541SOL    HW1 2159   1.071   0.196   5.459
  541SOL    HW2 2160   1.051   0.047   5.441
  542SOL     OW 2161   0.483   0.059   5.462
  542SOL    HW1 2162   0.426   5.291   5.424
  542SOL    HW2 2163   0.424   0.132   5.479
  543SOL     OW 2164   0.585   0.874   4.756
  543SOL    HW1 2165   0.617   0.964   4.755
  543SOL    HW2 2166   0.529   0.869   4.833
  544SOL     OW 2167   1.358   0.859   4.754
  544SOL    HW1 2168   1.275   0.850   4.707
  544SOL    HW2 2169   1.398   0.772   4.748
  545SOL     OW 2170   1.205   0.528   3.991
  545SOL    HW1 2171   1.210   0.448   4.043
  545SOL    HW2 2172   1.163   0.592   4.049
  546SOL     OW 2173   0.304   0.206   4.969
  546SOL    HW1 2174   0.263   0.237   5.050
  546SOL    HW2 2175   0.294   0.110   4.973
  547SOL     OW 2176   0.068   1.318   5.004
  547SOL    HW1 2177   0.091   1.259   5.076
  547SOL    HW2 2178   5.299   1.374   5.040
  548SOL     OW 2179   0.726   0.632   4.784
  548SOL    HW1 2180   0.800   0.615   4.725
  548SOL    HW2 2181   0.698   0.721   4.761
  549SOL     OW 2182   1.735   0.959   5.577
  549SOL    HW1 2183   1.688   0.898   5.519
  549SOL    HW2 2184   1.675   0.973   5.650
  550SOL     OW 2185   0.318   0.067   4.378
  550SOL    HW1 2186   0.299   0.161   4.386
  550SOL    HW2 2187   0.323   0.036   4.469
  551SOL     OW 2188   1.612   0.375   4.089
  551SOL    HW1 2189   1.645   0.311   4.152
  551SOL    HW2 2190   1.592   0.452   4.141
  552SOL     OW 2191   1.028   0.759   4.684
  552SOL    HW1 2192   1.025   0.777   4.778
  552SOL    HW2 2193   1.001   0.668   4.676
  553SOL     OW 2194   0.981   1.565   5.441
  553SOL    HW1 2195   0.967   1.610   5.358
  553SOL    HW2 2196   1.026   1.484   5.417
  554SOL     OW 2197   1.854   1.506   5.329
  554SOL    HW1 2198   1.873   1.532   5.239
  554SOL    HW2 2199   1.935   1.524   5.376
  555SOL     OW 2200   0.354   0.917   5.531
  555SOL    HW1 2201   0.434   0.938   5.577
  555SOL    HW2 2202   0.380   0.853   5.465
  556SOL     OW 2203   1.526   0.272   3.850
  556SOL    HW1 2204   1.462   0.208   3.881
  556SOL    HW2 2205   1.563   0.310   3.930
  557SOL     OW 2206   1.291   0.826   3.755
  557SOL    HW1 2207   1.334   0.741   3.759
  557SOL    HW2 2208   1.323   0.866   3.674
  558SOL     OW 2209   1.066   1.336   4.578
  558SOL    HW1 2210   1.069   1.264   4.515
  558SOL    HW2 2211   1.128   1.400   4.543
  559SOL     OW 2212   0.314   0.810   4.674
  559SOL    HW1 2213   0.408   0.828   4.670
  559SOL    HW2 2214   0.308   0.720   4.705
  560SOL     OW 2215   0.336   0.526   4.739
  560SOL    HW1 2216   0.299   0.440   4.723
  560SOL    HW2 2217   0.411   0.531   4.680
  561SOL     OW 2218   1.135   0.378   5.412
  561SOL    HW1 2219   1.088   0.432   5.475
  561SOL    HW2 2220   1.223   0.417   5.408
  562SOL     OW 2221   1.133   0.223   5.190
  562SOL    HW1 2222   1.138   0.282   5.265
  562SOL    HW2 2223   1.189   0.264   5.124
  563SOL     OW 2224   0.002   1.330   3.934
  563SOL    HW1 2225   5.228   1.319   3.874
  563SOL    HW2 2226   0.012   1.244   3.975
  564SOL     OW 2227   0.093   1.781   4.675
  564SOL    HW1 2228   0.060   1.711   4.619
  564SOL    HW2 2229   0.180   1.800   4.640
  565SOL     OW 2230   0.505   1.573   4.632
  565SOL    HW1 2231   0.572   1.639   4.652
  565SOL    HW2 2232   0.548   1.512   4.572
  566SOL     OW 2233   0.983   0.792   4.950
  566SOL    HW1 2234   1.039   0.769   5.025
  566SOL    HW2 2235   0.898   0.755   4.972
  567SOL     OW 2236   0.036   0.567   4.843
  567SOL    HW1 2237   0.118   0.535   4.804
  567SOL    HW2 2238   0.038   0.533   4.933
  568SOL     OW 2239   0.167   0.515   5.439
  568SOL    HW1 2240   0.251   0.495   5.399
  568SOL    HW2 2241   0.137   0.594   5.395
  569SOL     OW 2242   1.377   0.939   5.382
  569SOL    HW1 2243   1.398   1.032   5.381
  569SOL    HW2 2244   1.374   0.913   5.290
  570SOL     OW 2245   0.814   0.572   4.086
  570SOL    HW1 2246   0.818   0.498   4.025
  570SOL    HW2 2247   0.740   0.624   4.055
  571SOL     OW 2248   1.642   0.601   4.910
  571SOL    HW1 2249   1.631   0.542   4.984
  571SOL    HW2 2250   1.729   0.581   4.876
  572SOL     OW 2251   0.256   1.556   5.459
  572SOL    HW1 2252   0.234   1.619   5.527
  572SOL    HW2 2253   0.250   1.471   5.502
  573SOL     OW 2254   0.698   0.453   4.985
  573SOL    HW1 2255   0.648   0.378   4.951
  573SOL    HW2 2256   0.697   0.517   4.914
  574SOL     OW 2257   0.928   1.679   5.192
  574SOL    HW1 2258   0.902   1.645   5.106
  574SOL    HW2 2259   0.924   1.774   5.182
  575SOL     OW 2260   0.464   0.492   3.904
  575SOL    HW1 2261   0.526   0.561   3.927
  575SOL    HW2 2262   0.380   0.538   3.897
  576SOL     OW 2263   0.148   1.137   5.195
  576SOL    HW1 2264   0.145   1.089   5.277
  576SOL    HW2 2265   0.160   1.070   5.128
  577SOL     OW 2266   1.326   1.047   4.947
  577SOL    HW1 2267   1.349   0.984   4.879
  577SOL    HW2 2268   1.255   1.099   4.908
  578SOL     OW 2269   1.311   0.857   4.030
  578SOL    HW1 2270   1.236   0.826   4.080
  578SOL    HW2 2271   1.287   0.843   3.939
  579SOL     OW 2272   1.769   1.744   4.874
  579SOL    HW1 2273   1.829   1.773   4.805
  579SOL    HW2 2274   1.748   1.653   4.851
  580SOL     OW 2275   1.241   1.733   4.836
  580SOL    HW1 2276   1.323   1.754   4.792
  580SOL    HW2 2277   1.248   1.639   4.855
  581SOL     OW 2278   0.082   1.216   4.751
  581SOL    HW1 2279   0.070   1.242   4.843
  581SOL    HW2 2280   5.294   1.206   4.717
  582SOL     OW 2281   0.678   1.666   5.453
  582SOL    HW1 2282   0.622   1.744   5.448
  582SOL    HW2 2283   0.742   1.677   5.384
  583SOL     OW 2284   1.712   0.148   4.226
  583SOL    HW1 2285   1.787   0.128   4.171
  583SOL    HW2 2286   1.705   0.074   4.286
  584SOL     OW 2287   1.390   1.568   4.209
  584SOL    HW1 2288   1.450   1.600   4.142
  584SOL    HW2 2289   1.342   1.646   4.237
  585SOL     OW 2290   0.145   1.798   5.566
  585SOL    HW1 2291   0.090   1.735   5.614
  585SOL    HW2 2292   0.191   1.845   5.635
  586SOL     OW 2293   1.277   0.925   4.395
  586SOL    HW1 2294   1.351   0.865   4.402
  586SOL    HW2 2295   1.311   0.998   4.343
  587SOL     OW 2296   0.814   1.273   5.154
  587SOL    HW1 2297   0.786   1.313   5.236
  587SOL    HW2 2298   0.745   1.295   5.092
  588SOL     OW 2299   0.672   1.619   3.879
  588SOL    HW1 2300   0.683   1.632   3.785
  588SOL    HW2 2301   0.617   1.541   3.887
  589SOL     OW 2302   1.626   1.726   5.115
  589SOL    HW1 2303   1.676   1.733   5.034
  589SOL    HW2 2304   1.612   1.817   5.143
  590SOL     OW 2305   1.846   0.157   4.681
  590SOL    HW1 2306   1.844   0.062   4.670
  590SOL    HW2 2307   1.759   0.185   4.652
  591SOL     OW 2308   0.270   0.329   4.442
  591SOL    HW1 2309   0.184   0.366   4.427
  591SOL    HW2 2310   0.273   0.313   4.537
  592SOL     OW 2311   1.207   1.606   3.756
  592SOL    HW1 2312   1.198   1.514   3.782
  592SOL    HW2 2313   1.142   1.618   3.686
  593SOL     OW 2314   0.824   1.006   5.096
  593SOL    HW1 2315   0.868   1.001   5.012
  593SOL    HW2 2316   0.823   1.099   5.118
  594SOL     OW 2317   0.915   0.910   4.014
  594SOL    HW1 2318   0.976   0.942   3.947
  594SOL    HW2 2319   0.963   0.841   4.059
  595SOL     OW 2320   1.492   1.624   3.766
  595SOL    HW1 2321   1.397   1.619   3.753
  595SOL    HW2 2322   1.529   1.631   3.678
  596SOL     OW 2323   0.367   1.304   5.217
  596SOL    HW1 2324   0.359   1.378   5.158
  596SOL    HW2 2325   0.291   1.249   5.197
  597SOL     OW 2326   1.611   1.283   5.004
  597SOL    HW1 2327   1.671   1.273   5.078
  597SOL    HW2 2328   1.550   1.352   5.032
  598SOL     OW 2329   1.052   1.107   4.430
  598SOL    HW1 2330   0.981   1.056   4.470
  598SOL    HW2 2331   1.115   1.042   4.399
  599SOL     OW 2332   1.019   0.243   4.692
  599SOL    HW1 2333   0.999   0.197   4.610
  599SOL    HW2 2334   1.012   0.176   4.760
  600SOL     OW 2335   0.601   1.487   4.205
  600SOL    HW1 2336   0.646   1.439   4.136
  600SOL    HW2 2337   0.535   1.539   4.159
  601SOL     OW 2338   1.724   0.387   5.102
  601SOL    HW1 2339   1.794   0.452   5.102
  601SOL    HW2 2340   1.756   0.317   5.044
  602SOL     OW 2341   0.260   1.348   4.016
  602SOL    HW1 2342   0.167   1.350   3.994
  602SOL    HW2 2343   0.264   1.385   4.104
  603SOL     OW 2344   0.116   1.015   5.441
  603SOL    HW1 2345   0.045   0.982   5.496
  603SOL    HW2 2346   0.196   0.985   5.484
  604SOL     OW 2347   0.674   0.215   5.213
  604SOL    HW1 2348   0.758   0.198   5.170
  604SOL    HW2 2349   0.699   0.260   5.294
  605SOL     OW 2350   0.079   0.336   3.761
  605SOL    HW1 2351   5.287   0.311   3.750
  605SOL    HW2 2352   0.093   0.405   3.696
  606SOL     OW 2353   1.430   0.858   5.124
  606SOL    HW1 2354   1.381   0.919   5.069
  606SOL    HW2 2355   1.519   0.861   5.090
  607SOL     OW 2356   0.083   0.141   4.017
  607SOL    HW1 2357   0.077   0.235   4.000
  607SOL    HW2 2358   0.170   0.117   3.987
  608SOL     OW 2359   1.179   1.339   3.841
  608SOL    HW1 2360   1.088   1.309   3.844
  608SOL    HW2 2361   1.207   1.340   3.932
  609SOL     OW 2362   0.619   0.831   5.159
  609SOL    HW1 2363   0.675   0.907   5.143
  609SOL    HW2 2364   0.681   0.758   5.167
  610SOL     OW 2365   1.485   1.776   4.702
  610SOL    HW1 2366   1.507   1.839   4.633
  610SOL    HW2 2367   1.567   1.761   4.747
  611SOL     OW 2368   0.713   0.573   5.428
  611SOL    HW1 2369   0.756   0.636   5.485
  611SOL    HW2 2370   0.745   0.488   5.458
  612SOL     OW 2371   1.472   1.200   5.356
  612SOL    HW1 2372   1.459   1.214   5.450
  612SOL    HW2 2373   1.565   1.215   5.341
  613SOL     OW 2374   0.378   1.742   5.288
  613SOL    HW1 2375   0.295   1.788   5.272
  613SOL    HW2 2376   0.352   1.662   5.333
  614SOL     OW 2377   1.669   0.881   4.979
  614SOL    HW1 2378   1.663   0.796   4.936
  614SOL    HW2 2379   1.660   0.945   4.908
  615SOL     OW 2380   1.221   0.319   4.189
  615SOL    HW1 2381   1.284   0.247   4.183
  615SOL    HW2 2382   1.251   0.371   4.264
  616SOL     OW 2383   0.590   0.738   4.393
  616SOL    HW1 2384   0.629   0.824   4.377
  616SOL    HW2 2385   0.521   0.730   4.327
  617SOL     OW 2386   1.766   0.362   5.373
  617SOL    HW1 2387   1.747   0.376   5.280
  617SOL    HW2 2388   1.695   0.306   5.404
  618SOL     OW 2389   1.744   0.934   5.236
  618SOL    HW1 2390   1.743   1.028   5.250
  618SOL    HW2 2391   1.729   0.922   5.142
  619SOL     OW 2392   0.862   1.367   3.758
  619SOL    HW1 2393   0.824   1.396   3.841
  619SOL    HW2 2394   0.881   1.448   3.711
  620SOL     OW 2395   0.663   1.793   4.667
  620SOL    HW1 2396   0.642   1.884   4.645
  620SOL    HW2 2397   0.758   1.789   4.661
  621SOL     OW 2398   0.867   0.966   4.578
  621SOL    HW1 2399   0.918   0.895   4.618
  621SOL    HW2 2400   0.833   1.016   4.653
  622SOL     OW 2401   1.077   0.987   3.812
  622SOL    HW1 2402   1.057   1.039   3.734
  622SOL    HW2 2403   1.153   0.934   3.787
  623SOL     OW 2404   1.854   1.552   4.567
  623SOL    HW1 2405   1.775   1.544   4.514
  623SOL    HW2 2406   1.841   1.490   4.639
  624SOL     OW 2407   0.225   1.305   5.584
  624SOL    HW1 2408   0.157   1.243   5.559
  624SOL    HW2 2409   0.214   1.315   5.679
  625SOL     OW 2410   0.087   1.219   4.378
  625SOL    HW1 2411   0.101   1.188   4.468
  625SOL    HW2 2412   0.174   1.215   4.338
  626SOL     OW 2413   0.681   1.402   5.352
  626SOL    HW1 2414   0.600   1.360   5.382
  626SOL    HW2 2415   0.677   1.491   5.388
  627SOL     OW 2416   1.814   0.177   4.956
  627SOL    HW1 2417   1.780   0.087   4.962
  627SOL    HW2 2418   1.832   0.190   4.863
  628SOL     OW 2419   0.432   0.436   4.246
  628SOL    HW1 2420   0.464   0.362   4.194
  628SOL    HW2 2421   0.387   0.396   4.320
  629SOL     OW 2422   1.702   1.487   4.817
  629SOL    HW1 2423   1.620   1.466   4.774
  629SOL    HW2 2424   1.713   1.420   4.884
  630SOL     OW 2425   0.336   0.561   5.013
  630SOL    HW1 2426   0.393   0.503   5.064
  630SOL    HW2 2427   0.350   0.533   4.922
  631SOL     OW 2428   0.829   1.577   4.402
  631SOL    HW1 2429   0.816   1.633   4.325
  631SOL    HW2 2430   0.751   1.521   4.403
  632SOL     OW 2431   1.428   0.218   4.840
  632SOL    HW1 2432   1.464   0.144   4.888
  632SOL    HW2 2433   1.379   0.268   4.906
  633SOL     OW 2434   1.002   0.021   4.865
  633SOL    HW1 2435   0.952   5.252   4.821
  633SOL    HW2 2436   1.088   5.282   4.878
  634SOL     OW 2437   0.772   1.333   4.039
  634SOL    HW1 2438   0.742   1.242   4.045
  634SOL    HW2 2439   0.854   1.334   4.088
  635SOL     OW 2440   0.623   1.556   5.011
  635SOL    HW1 2441   0.624   1.638   5.060
  635SOL    HW2 2442   0.709   1.550   4.972
  636SOL     OW 2443   1.353   0.039   3.886
  636SOL    HW1 2444   1.388   5.297   3.807
  636SOL    HW2 2445   1.276   5.287   3.908
  637SOL     OW 2446   1.301   0.464   4.408
  637SOL    HW1 2447   1.246   0.542   4.414
  637SOL    HW2 2448   1.294   0.423   4.495
  638SOL     OW 2449   1.594   0.216   4.606
  638SOL    HW1 2450   1.528   0.227   4.674
  638SOL    HW2 2451   1.587   0.294   4.552
  639SOL     OW 2452   0.048   1.068   4.014
  639SOL    HW1 2453   0.137   1.037   4.003
  639SOL    HW2 2454   5.300   0.994   4.050
  640SOL     OW 2455   0.885   1.651   4.066
  640SOL    HW1 2456   0.812   1.636   4.006
  640SOL    HW2 2457   0.857   1.727   4.118
  641SOL     OW 2458   0.233   0.633   5.703
  641SOL    HW1 2459   0.157   0.606   5.755
  641SOL    HW2 2460   0.214   0.600   5.615
  642SOL     OW 2461   0.233   0.281   6.576
  642SOL    HW1 2462   0.252   0.243   6.662
  642SOL    HW2 2463   0.153   0.237   6.548
  643SOL     OW 2464   5.300   0.406   6.251
  643SOL    HW1 2465   5.207   0.428   6.254
  643SOL    HW2 2466   0.002   0.316   6.219
  644SOL     OW 2467   0.574   1.284   6.768
  644SOL    HW1 2468   0.491   1.293   6.720
  644SOL    HW2 2469   0.590   1.372   6.803
  645SOL     OW 2470   1.561   1.511   6.293
  645SOL    HW1 2471   1.518   1.492   6.376
  645SOL    HW2 2472   1.490   1.516   6.229
  646SOL     OW 2473   1.131   0.698   6.287
  646SOL    HW1 2474   1.180   0.779   6.273
  646SOL    HW2 2475   1.084   0.713   6.369
  647SOL     OW 2476   1.767   0.606   5.814
  647SOL    HW1 2477   1.746   0.598   5.721
  647SOL    HW2 2478   1.732   0.526   5.853
  648SOL     OW 2479   0.755   1.141   6.625
  648SOL    HW1 2480   0.688   1.175   6.684
  648SOL    HW2 2481   0.790   1.218   6.582
  649SOL     OW 2482   0.863   0.779   7.406
  649SOL    HW1 2483   0.857   0.854   7.465
  649SOL    HW2 2484   0.890   0.818   7.322
  650SOL     OW 2485   0.685   1.003   6.233
  650SOL    HW1 2486   0.751   0.990   6.301
  650SOL    HW2 2487   0.617   1.056   6.275
  651SOL     OW 2488   0.709   1.151   7.399
  651SOL    HW1 2489   0.758   1.229   7.425
  651SOL    HW2 2490   0.628   1.185   7.362
  652SOL     OW 2491   0.358   1.405   6.646
  652SOL    HW1 2492   0.270   1.405   6.609
  652SOL    HW2 2493   0.407   1.467   6.592
  653SOL     OW 2494   1.461   1.499   6.940
  653SOL    HW1 2495   1.511   1.580   6.950
  653SOL    HW2 2496   1.399   1.501   7.013
  654SOL     OW 2497   0.449   0.400   7.078
  654SOL    HW1 2498   0.528   0.347   7.072
  654SOL    HW2 2499   0.378   0.336   7.082
  655SOL     OW 2500   1.610   0.451   6.324
  655SOL    HW1 2501   1.535   0.475   6.270
  655SOL    HW2 2502   1.629   0.530   6.375
  656SOL     OW 2503   0.231   1.714   6.063
  656SOL    HW1 2504   0.264   1.783   6.121
  656SOL    HW2 2505   0.294   1.711   5.991
  657SOL     OW 2506   1.136   1.341   7.276
  657SOL    HW1 2507   1.177   1.338   7.363
  657SOL    HW2 2508   1.085   1.261   7.271
  658SOL     OW 2509   0.222   1.444   6.125
  658SOL    HW1 2510   0.216   1.539   6.121
  658SOL    HW2 2511   0.151   1.418   6.185
  659SOL     OW 2512   0.250   1.077   6.461
  659SOL    HW1 2513   0.261   0.992   6.503
  659SOL    HW2 2514   0.198   1.128   6.523
  660SOL     OW 2515   0.613   1.790   7.018
  660SOL    HW1 2516   0.530   1.773   7.061
  660SOL    HW2 2517   0.634   1.881   7.041
  661SOL     OW 2518   0.583   0.983   5.721
  661SOL    HW1 2519   0.629   1.031   5.652
  661SOL    HW2 2520   0.624   1.013   5.802
  662SOL     OW 2521   1.586   0.135   7.042
  662SOL    HW1 2522   1.608   0.220   7.004
  662SOL    HW2 2523   1.583   0.152   7.137
  663SOL     OW 2524   0.124   0.636   6.163
  663SOL    HW1 2525   0.090   0.553   6.197
  663SOL    HW2 2526   0.098   0.701   6.228
  664SOL     OW 2527   1.842   1.759   5.922
  664SOL    HW1 2528   1.907   1.731   5.986
  664SOL    HW2 2529   1.866   1.849   5.901
  665SOL     OW 2530   0.038   1.599   5.718
  665SOL    HW1 2531   0.025   1.507   5.743
  665SOL    HW2 2532   5.283   1.649   5.778
  666SOL     OW 2533   1.689   0.918   6.227
  666SOL    HW1 2534   1.772   0.876   6.206
  666SOL    HW2 2535   1.667   0.969   6.148
  667SOL     OW 2536   1.646   1.106   6.015
  667SOL    HW1 2537   1.732   1.112   5.973
  667SOL    HW2 2538   1.651   1.168   6.089
  668SOL     OW 2539   0.130   0.749   7.173
  668SOL    HW1 2540   0.224   0.764   7.173
  668SOL    HW2 2541   0.092   0.835   7.189
  669SOL     OW 2542   0.615   1.385   6.321
  669SOL    HW1 2543   0.568   1.303   6.331
  669SOL    HW2 2544   0.598   1.412   6.230
  670SOL     OW 2545   1.289   1.238   7.009
  670SOL    HW1 2546   1.321   1.171   6.949
  670SOL    HW2 2547   1.346   1.232   7.086
  671SOL     OW 2548   0.814   0.027   6.113
  671SOL    HW1 2549   0.842   0.115   6.089
  671SOL    HW2 2550   0.719   0.029   6.106
  672SOL     OW 2551   0.176   0.945   6.865
  672SOL    HW1 2552   0.266   0.916   6.855
  672SOL    HW2 2553   0.134   0.923   6.781
  673SOL     OW 2554   1.531   0.994   5.784
  673SOL    HW1 2555   1.462   0.936   5.817
  673SOL    HW2 2556   1.573   1.028   5.864
  674SOL     OW 2557   1.185   1.806   7.208
  674SOL    HW1 2558   1.196   1.865   7.133
  674SOL    HW2 2559   1.202   1.719   7.172
  675SOL     OW 2560   0.326   0.273   7.388
  675SOL    HW1 2561   0.387   0.336   7.427
  675SOL    HW2 2562   0.245   0.284   7.439
  676SOL     OW 2563   1.467   1.420   6.538
  676SOL    HW1 2564   1.398   1.435   6.603
  676SOL    HW2 2565   1.454   1.328   6.511
  677SOL     OW 2566   1.658   1.740   6.164
  677SOL    HW1 2567   1.639   1.710   6.075
  677SOL    HW2 2568   1.633   1.666   6.220
  678SOL     OW 2569   0.594   0.720   5.851
  678SOL    HW1 2570   0.603   0.802   5.801
  678SOL    HW2 2571   0.530   0.741   5.919
  679SOL     OW 2572   1.278   0.347   6.517
  679SOL    HW1 2573   1.187   0.319   6.529
  679SOL    HW2 2574   1.328   0.297   6.581
  680SOL     OW 2575   1.581   1.670   5.895
  680SOL    HW1 2576   1.671   1.701   5.888
  680SOL    HW2 2577   1.554   1.653   5.805
  681SOL     OW 2578   0.794   0.618   7.037
  681SOL    HW1 2579   0.765   0.596   7.126
  681SOL    HW2 2580   0.751   0.552   6.982
  682SOL     OW 2581   1.395   0.475   7.264
  682SOL    HW1 2582   1.396   0.520   7.348
  682SOL    HW2 2583   1.458   0.404   7.273
  683SOL     OW 2584   0.954   0.887   7.168
  683SOL    HW1 2585   1.010   0.818   7.132
  683SOL    HW2 2586   0.907   0.922   7.092
  684SOL     OW 2587   0.994   0.417   6.821
  684SOL    HW1 2588   0.908   0.438   6.859
  684SOL    HW2 2589   0.973   0.368   6.741
  685SOL     OW 2590   1.051   0.698   6.013
  685SOL    HW1 2591   1.066   0.691   6.107
  685SOL    HW2 2592   0.968   0.652   5.999
  686SOL     OW 2593   0.071   0.788   6.398
  686SOL    HW1 2594   0.153   0.793   6.448
  686SOL    HW2 2595   0.064   0.873   6.356
  687SOL     OW 2596   0.129   1.884   7.170
  687SOL    HW1 2597   0.131   1.855   7.262
  687SOL    HW2 2598   0.060   1.832   7.130
  688SOL     OW 2599   0.873   0.364   5.774
  688SOL    HW1 2600   0.915   0.424   5.712
  688SOL    HW2 2601   0.928   0.286   5.773
  689SOL     OW 2602   1.709   0.575   7.415
  689SOL    HW1 2603   1.671   0.649   7.368
  689SOL    HW2 2604   1.737   0.515   7.347
  690SOL     OW 2605   1.377   1.142   6.127
  690SOL    HW1 2606   1.456   1.129   6.075
  690SOL    HW2 2607   1.324   1.204   6.077
  691SOL     OW 2608   0.537   0.202   6.469
  691SOL    HW1 2609   0.553   0.220   6.562
  691SOL    HW2 2610   0.549   0.286   6.426
  692SOL     OW 2611   1.005   1.443   6.058
  692SOL    HW1 2612   0.968   1.517   6.009
  692SOL    HW2 2613   0.988   1.466   6.150
  693SOL     OW 2614   0.357   1.803   6.456
  693SOL    HW1 2615   0.397   1.717   6.469
  693SOL    HW2 2616   0.423   1.865   6.485
  694SOL     OW 2617   1.799   1.056   6.454
  694SOL    HW1 2618   1.745   1.039   6.378
  694SOL    HW2 2619   1.737   1.062   6.527
  695SOL     OW 2620   1.228   1.539   7.099
  695SOL    HW1 2621   1.214   1.466   7.159
  695SOL    HW2 2622   1.164   1.525   7.029
  696SOL     OW 2623   0.316   0.952   5.834
  696SOL    HW1 2624   0.398   0.976   5.790
  696SOL    HW2 2625   0.294   0.866   5.797
  697SOL     OW 2626   1.478   0.743   6.313
  697SOL    HW1 2627   1.470   0.700   6.398
  697SOL    HW2 2628   1.556   0.798   6.321
  698SOL     OW 2629   0.464   1.262   7.323
  698SOL    HW1 2630   0.438   1.269   7.232
  698SOL    HW2 2631   0.382   1.264   7.372
  699SOL     OW 2632   1.122   1.778   5.817
  699SOL    HW1 2633   1.049   1.735   5.862
  699SOL    HW2 2634   1.145   1.716   5.747
  700SOL     OW 2635   0.198   0.280   7.079
  700SOL    HW1 2636   0.158   0.367   7.073
  700SOL    HW2 2637   0.206   0.263   7.173
  701SOL     OW 2638   1.628   1.380   5.674
  701SOL    HW1 2639   1.588   1.465   5.659
  701SOL    HW2 2640   1.559   1.316   5.654
  702SOL     OW 2641   0.471   1.734   5.906
  702SOL    HW1 2642   0.514   1.793   5.969
  702SOL    HW2 2643   0.542   1.704   5.849
  703SOL     OW 2644   1.407   0.100   6.017
  703SOL    HW1 2645   1.399   0.082   5.923
  703SOL    HW2 2646   1.499   0.122   6.030
  704SOL     OW 2647   0.276   1.801   6.799
  704SOL    HW1 2648   0.307   1.724   6.846
  704SOL    HW2 2649   0.225   1.766   6.726
  705SOL     OW 2650   0.939   1.699   6.485
  705SOL    HW1 2651   1.017   1.647   6.505
  705SOL    HW2 2652   0.894   1.649   6.416
  706SOL     OW 2653   0.385   0.696   6.065
  706SOL    HW1 2654   0.415   0.605   6.073
  706SOL    HW2 2655   0.292   0.693   6.086
  707SOL     OW 2656   1.539   0.227   7.310
  707SOL    HW1 2657   1.546   0.245   7.404
  707SOL    HW2 2658   1.463   0.169   7.303
  708SOL     OW 2659   0.621   0.132   5.693
  708SOL    HW1 2660   0.688   0.069   5.718
  708SOL    HW2 2661   0.574   0.091   5.620
  709SOL     OW 2662   0.780   0.312   7.349
  709SOL    HW1 2663   0.842   0.240   7.351
  709SOL    HW2 2664   0.741   0.313   7.437
  710SOL     OW 2665   0.877   1.521   6.779
  710SOL    HW1 2666   0.861   1.485   6.692
  710SOL    HW2 2667   0.947   1.467   6.815
  711SOL     OW 2668   1.341   0.589   7.018
  711SOL    HW1 2669   1.371   0.558   7.103
  711SOL    HW2 2670   1.377   0.677   7.010
  712SOL     OW 2671   0.816   1.394   6.526
  712SOL    HW1 2672   0.900   1.383   6.482
  712SOL    HW2 2673   0.751   1.396   6.455
  713SOL     OW 2674   0.927   0.510   6.490
  713SOL    HW1 2675   0.903   0.502   6.397
  713SOL    HW2 2676   0.959   0.423   6.514
  714SOL     OW 2677   0.548   0.058   6.090
  714SOL    HW1 2678   0.469   0.059   6.144
  714SOL    HW2 2679   0.535   0.130   6.028
  715SOL     OW 2680   1.428   1.198   5.627
  715SOL    HW1 2681   1.458   1.123   5.677
  715SOL    HW2 2682   1.343   1.220   5.665
  716SOL     OW 2683   0.315   0.064   5.771
  716SOL    HW1 2684   0.382   0.130   5.751
  716SOL    HW2 2685   0.364   5.283   5.781
  717SOL     OW 2686   0.940   0.263   6.049
  717SOL    HW1 2687   0.912   0.299   5.965
  717SOL    HW2 2688   1.035   0.274   6.049
  718SOL     OW 2689   1.081   0.681   7.045
  718SOL    HW1 2690   1.013   0.614   7.051
  718SOL    HW2 2691   1.162   0.632   7.039
  719SOL     OW 2692   1.223   1.570   6.380
  719SOL    HW1 2693   1.239   1.637   6.313
  719SOL    HW2 2694   1.291   1.584   6.445
  720SOL     OW 2695   0.467   1.150   6.317
  720SOL    HW1 2696   0.398   1.130   6.381
  720SOL    HW2 2697   0.428   1.132   6.232
  721SOL     OW 2698   1.269   1.794   6.194
  721SOL    HW1 2699   1.315   1.855   6.137
  721SOL    HW2 2700   1.202   1.847   6.238
  722SOL     OW 2701   1.025   0.546   5.609
  722SOL    HW1 2702   0.983   0.630   5.590
  722SOL    HW2 2703   1.089   0.566   5.677
  723SOL     OW 2704   0.099   0.530   6.998
  723SOL    HW1 2705   0.179   0.550   6.950
  723SOL    HW2 2706   0.077   0.612   7.043
  724SOL     OW 2707   0.560   0.239   6.744
  724SOL    HW1 2708   0.592   0.153   6.771
  724SOL    HW2 2709   0.467   0.239   6.768
  725SOL     OW 2710   0.867   0.463   6.227
  725SOL    HW1 2711   0.821   0.516   6.162
  725SOL    HW2 2712   0.890   0.383   6.181
  726SOL     OW 2713   0.979   0.060   6.349
  726SOL    HW1 2714   0.914   0.056   6.278
  726SOL    HW2 2715   0.987   5.270   6.380
  727SOL     OW 2716   1.437   1.163   6.443
  727SOL    HW1 2717   1.368   1.097   6.441
  727SOL    HW2 2718   1.462   1.174   6.352
  728SOL     OW 2719   1.466   0.606   6.563
  728SOL    HW1 2720   1.417   0.524   6.567
  728SOL    HW2 2721   1.527   0.601   6.637
  729SOL     OW 2722   1.845   0.816   5.969
  729SOL    HW1 2723   1.902   0.765   6.027
  729SOL    HW2 2724   1.817   0.754   5.902
  730SOL     OW 2725   0.492   1.418   5.744
  730SOL    HW1 2726   0.416   1.390   5.796
  730SOL    HW2 2727   0.475   1.382   5.657
  731SOL     OW 2728   1.670   1.264   6.233
  731SOL    HW1 2729   1.765   1.267   6.245
  731SOL    HW2 2730   1.640   1.352   6.253
  732SOL     OW 2731   1.394   0.572   5.657
  732SOL    HW1 2732   1.333   0.552   5.729
  732SOL    HW2 2733   1.479   0.542   5.689
  733SOL     OW 2734   0.522   0.265   5.906
  733SOL    HW1 2735   0.569   0.217   5.838
  733SOL    HW2 2736   0.503   0.350   5.867
  734SOL     OW 2737   1.752   1.239   7.159
  734SOL    HW1 2738   1.840   1.200   7.154
  734SOL    HW2 2739   1.767   1.329   7.188
  735SOL     OW 2740   1.059   1.353   6.919
  735SOL    HW1 2741   0.984   1.322   6.971
  735SOL    HW2 2742   1.135   1.312   6.961
  736SOL     OW 2743   1.607   1.625   7.238
  736SOL    HW1 2744   1.602   1.659   7.149
  736SOL    HW2 2745   1.690   1.578   7.241
  737SOL     OW 2746   1.128   1.203   6.691
  737SOL    HW1 2747   1.070   1.242   6.756
  737SOL    HW2 2748   1.096   1.236   6.607
  738SOL     OW 2749   1.628   1.098   6.663
  738SOL    HW1 2750   1.623   1.160   6.736
  738SOL    HW2 2751   1.549   1.115   6.612
  739SOL     OW 2752   0.905   0.107   6.975
  739SOL    HW1 2753   0.936   0.073   6.891
  739SOL    HW2 2754   0.982   0.149   7.014
  740SOL     OW 2755   0.984   1.114   7.310
  740SOL    HW1 2756   0.892   1.131   7.328
  740SOL    HW2 2757   0.984   1.037   7.254
  741SOL     OW 2758   0.707   1.060   5.958
  741SOL    HW1 2759   0.696   1.044   6.052
  741SOL    HW2 2760   0.784   1.007   5.934
  742SOL     OW 2761   0.420   0.820   6.839
  742SOL    HW1 2762   0.490   0.826   6.904
  742SOL    HW2 2763   0.386   0.731   6.848
  743SOL     OW 2764   1.267   0.379   6.859
  743SOL    HW1 2765   1.300   0.456   6.905
  743SOL    HW2 2766   1.177   0.401   6.836
  744SOL     OW 2767   0.102   1.623   6.953
  744SOL    HW1 2768   0.080   1.632   6.860
  744SOL    HW2 2769   0.188   1.581   6.953
  745SOL     OW 2770   0.343   1.106   6.074
  745SOL    HW1 2771   0.352   1.185   6.021
  745SOL    HW2 2772   0.352   1.034   6.011
  746SOL     OW 2773   0.555   0.537   6.446
  746SOL    HW1 2774   0.570   0.595   6.371
  746SOL    HW2 2775   0.621   0.564   6.511
  747SOL     OW 2776   1.248   1.348   5.975
  747SOL    HW1 2777   1.304   1.420   6.006
  747SOL    HW2 2778   1.161   1.370   6.009
  748SOL     OW 2779   1.281   1.457   6.733
  748SOL    HW1 2780   1.337   1.461   6.811
  748SOL    HW2 2781   1.226   1.381   6.747
  749SOL     OW 2782   1.582   0.623   6.065
  749SOL    HW1 2783   1.535   0.677   6.128
  749SOL    HW2 2784   1.627   0.685   6.008
  750SOL     OW 2785   0.352   1.519   6.896
  750SOL    HW1 2786   0.342   1.476   6.812
  750SOL    HW2 2787   0.445   1.537   6.903
  751SOL     OW 2788   0.415   0.741   7.189
  751SOL    HW1 2789   0.473   0.790   7.130
  751SOL    HW2 2790   0.461   0.658   7.204
  752SOL     OW 2791   1.601   0.778   7.268
  752SOL    HW1 2792   1.515   0.820   7.261
  752SOL    HW2 2793   1.653   0.821   7.200
  753SOL     OW 2794   1.042   0.116   7.369
  753SOL    HW1 2795   1.072   0.195   7.325
  753SOL    HW2 2796   1.051   0.047   7.304
  754SOL     OW 2797   0.482   0.059   7.324
  754SOL    HW1 2798   0.426   5.291   7.286
  754SOL    HW2 2799   0.423   0.132   7.341
  755SOL     OW 2800   0.586   0.874   6.618
  755SOL    HW1 2801   0.618   0.964   6.617
  755SOL    HW2 2802   0.529   0.870   6.695
  756SOL     OW 2803   1.358   0.859   6.616
  756SOL    HW1 2804   1.275   0.850   6.569
  756SOL    HW2 2805   1.398   0.772   6.610
  757SOL     OW 2806   1.205   0.528   5.853
  757SOL    HW1 2807   1.210   0.448   5.905
  757SOL    HW2 2808   1.163   0.592   5.911
  758SOL     OW 2809   0.305   0.205   6.831
  758SOL    HW1 2810   0.263   0.237   6.911
  758SOL    HW2 2811   0.294   0.110   6.835
  759SOL     OW 2812   0.068   1.318   6.866
  759SOL    HW1 2813   0.091   1.259   6.938
  759SOL    HW2 2814   5.298   1.373   6.902
  760SOL     OW 2815   0.726   0.632   6.646
  760SOL    HW1 2816   0.800   0.615   6.587
  760SOL    HW2 2817   0.698   0.721   6.623
  761SOL     OW 2818   1.735   0.959   7.438
  761SOL    HW1 2819   1.687   0.899   7.382
  761SOL    HW2 2820   1.678   0.974   7.513
  762SOL     OW 2821   0.318   0.067   6.240
  762SOL    HW1 2822   0.299   0.161   6.248
  762SOL    HW2 2823   0.322   0.036   6.331
  763SOL     OW 2824   1.612   0.375   5.951
  763SOL    HW1 2825   1.645   0.311   6.014
  763SOL    HW2 2826   1.592   0.452   6.003
  764SOL     OW 2827   1.028   0.759   6.546
  764SOL    HW1 2828   1.025   0.777   6.640
  764SOL    HW2 2829   1.001   0.668   6.538
  765SOL     OW 2830   0.981   1.565   7.303
  765SOL    HW1 2831   0.967   1.610   7.219
  765SOL    HW2 2832   1.026   1.484   7.279
  766SOL     OW 2833   1.855   1.506   7.191
  766SOL    HW1 2834   1.873   1.532   7.101
  766SOL    HW2 2835   1.936   1.524   7.238
  767SOL     OW 2836   0.353   0.914   7.395
  767SOL    HW1 2837   0.435   0.938   7.439
  767SOL    HW2 2838   0.380   0.852   7.327
  768SOL     OW 2839   1.526   0.272   5.712
  768SOL    HW1 2840   1.462   0.208   5.743
  768SOL    HW2 2841   1.563   0.310   5.792
  769SOL     OW 2842   1.291   0.826   5.617
  769SOL    HW1 2843   1.334   0.741   5.621
  769SOL    HW2 2844   1.323   0.866   5.536
  770SOL     OW 2845   1.066   1.335   6.440
  770SOL    HW1 2846   1.069   1.263   6.377
  770SOL    HW2 2847   1.127   1.400   6.405
  771SOL     OW 2848   0.314   0.810   6.536
  771SOL    HW1 2849   0.408   0.828   6.531
  771SOL    HW2 2850   0.309   0.720   6.567
  772SOL     OW 2851   0.336   0.526   6.601
  772SOL    HW1 2852   0.299   0.440   6.585
  772SOL    HW2 2853   0.411   0.531   6.542
  773SOL     OW 2854   1.136   0.377   7.274
  773SOL    HW1 2855   1.088   0.432   7.337
  773SOL    HW2 2856   1.223   0.416   7.269
  774SOL     OW 2857   1.133   0.223   7.051
  774SOL    HW1 2858   1.138   0.281   7.127
  774SOL    HW2 2859   1.189   0.264   6.986
  775SOL     OW 2860   0.002   1.330   5.796
  775SOL    HW1 2861   5.228   1.319   5.737
  775SOL    HW2 2862   0.012   1.244   5.837
  776SOL     OW 2863   0.093   1.781   6.537
  776SOL    HW1 2864   0.059   1.712   6.481
  776SOL    HW2 2865   0.180   1.800   6.502
  777SOL     OW 2866   0.505   1.573   6.494
  777SOL    HW1 2867   0.572   1.639   6.514
  777SOL    HW2 2868   0.548   1.512   6.434
  778SOL     OW 2869   0.983   0.792   6.812
  778SOL    HW1 2870   1.039   0.769   6.887
  778SOL    HW2 2871   0.898   0.755   6.834
  779SOL     OW 2872   0.036   0.566   6.705
  779SOL    HW1 2873   0.118   0.535   6.666
  779SOL    HW2 2874   0.038   0.533   6.795
  780SOL     OW 2875   0.170   0.514   7.299
  780SOL    HW1 2876   0.253   0.495   7.256
  780SOL    HW2 2877   0.138   0.593   7.256
  781SOL     OW 2878   1.377   0.939   7.245
  781SOL    HW1 2879   1.398   1.032   7.244
  781SOL    HW2 2880   1.374   0.913   7.153
  782SOL     OW 2881   0.814   0.572   5.948
  782SOL    HW1 2882   0.818   0.498   5.888
  782SOL    HW2 2883   0.740   0.624   5.917
  783SOL     OW 2884   1.642   0.601   6.772
  783SOL    HW1 2885   1.631   0.542   6.846
  783SOL    HW2 2886   1.729   0.581   6.738
  784SOL     OW 2887   0.256   1.556   7.321
  784SOL    HW1 2888   0.233   1.618   7.391
  784SOL    HW2 2889   0.250   1.470   7.363
  785SOL     OW 2890   0.697   0.453   6.847
  785SOL    HW1 2891   0.648   0.378   6.813
  785SOL    HW2 2892   0.697   0.517   6.776
  786SOL     OW 2893   0.928   1.679   7.053
  786SOL    HW1 2894   0.902   1.645   6.968
  786SOL    HW2 2895   0.924   1.774   7.044
  787SOL     OW 2896   0.464   0.492   5.766
  787SOL    HW1 2897   0.526   0.561   5.789
  787SOL    HW2 2898   0.380   0.538   5.758
  788SOL     OW 2899   0.148   1.137   7.057
  788SOL    HW1 2900   0.145   1.088   7.139
  788SOL    HW2 2901   0.160   1.070   6.990
  789SOL     OW 2902   1.326   1.047   6.809
  789SOL    HW1 2903   1.349   0.984   6.741
  789SOL    HW2 2904   1.255   1.099   6.770
  790SOL     OW 2905   1.311   0.856   5.892
  790SOL    HW1 2906   1.235   0.826   5.942
  790SOL    HW2 2907   1.287   0.843   5.801
  791SOL     OW 2908   1.772   1.744   6.736
  791SOL    HW1 2909   1.832   1.770   6.666
  791SOL    HW2 2910   1.748   1.654   6.715
  792SOL     OW 2911   1.241   1.733   6.699
  792SOL    HW1 2912   1.323   1.754   6.654
  792SOL    HW2 2913   1.247   1.639   6.717
  793SOL     OW 2914   0.082   1.216   6.613
  793SOL    HW1 2915   0.070   1.242   6.705
  793SOL    HW2 2916   5.294   1.206   6.579
  794SOL     OW 2917   0.677   1.665   7.314
  794SOL    HW1 2918   0.623   1.744   7.311
  794SOL    HW2 2919   0.743   1.677   7.246
  795SOL     OW 2920   1.712   0.149   6.088
  795SOL    HW1 2921   1.787   0.128   6.033
  795SOL    HW2 2922   1.705   0.074   6.148
  796SOL     OW 2923   1.390   1.568   6.071
  796SOL    HW1 2924   1.451   1.600   6.004
  796SOL    HW2 2925   1.342   1.645   6.099
  797SOL     OW 2926   0.141   1.799   7.429
  797SOL    HW1 2927   0.089   1.735   7.478
  797SOL    HW2 2928   0.195   1.842   7.495
  798SOL     OW 2929   1.277   0.925   6.257
  798SOL    HW1 2930   1.351   0.865   6.264
  798SOL    HW2 2931   1.311   0.998   6.204
  799SOL     OW 2932   0.814   1.273   7.016
  799SOL    HW1 2933   0.786   1.313   7.098
  799SOL    HW2 2934   0.745   1.295   6.954
  800SOL     OW 2935   0.672   1.619   5.741
  800SOL    HW1 2936   0.683   1.632   5.647
  800SOL    HW2 2937   0.618   1.541   5.749
  801SOL     OW 2938   1.626   1.727   6.977
  801SOL    HW1 2939   1.676   1.734   6.895
  801SOL    HW2 2940   1.613   1.817   7.004
  802SOL     OW 2941   1.845   0.157   6.543
  802SOL    HW1 2942   1.845   0.062   6.531
  802SOL    HW2 2943   1.759   0.185   6.515
  803SOL     OW 2944   0.270   0.328   6.304
  803SOL    HW1 2945   0.184   0.366   6.289
  803SOL    HW2 2946   0.273   0.313   6.399
  804SOL     OW 2947   1.207   1.606   5.618
  804SOL    HW1 2948   1.197   1.514   5.644
  804SOL    HW2 2949   1.142   1.618   5.548
  805SOL     OW 2950   0.824   1.006   6.958
  805SOL    HW1 2951   0.868   1.001   6.874
  805SOL    HW2 2952   0.823   1.099   6.980
  806SOL     OW 2953   0.915   0.910   5.876
  806SOL    HW1 2954   0.976   0.942   5.810
  806SOL    HW2 2955   0.963   0.841   5.921
  807SOL     OW 2956   1.492   1.625   5.628
  807SOL    HW1 2957   1.397   1.619   5.614
  807SOL    HW2 2958   1.529   1.631   5.540
  808SOL     OW 2959   0.367   1.304   7.079
  808SOL    HW1 2960   0.359   1.378   7.020
  808SOL    HW2 2961   0.291   1.249   7.059
  809SOL     OW 2962   1.610   1.283   6.867
  809SOL    HW1 2963   1.670   1.272   6.940
  809SOL    HW2 2964   1.550   1.352   6.894
  810SOL     OW 2965   1.052   1.107   6.292
  810SOL    HW1 2966   0.981   1.056   6.332
  810SOL    HW2 2967   1.115   1.042   6.261
  811SOL     OW 2968   1.019   0.243   6.554
  811SOL    HW1 2969   0.999   0.197   6.472
  811SOL    HW2 2970   1.012   0.176   6.622
  812SOL     OW 2971   0.601   1.487   6.067
  812SOL    HW1 2972   0.646   1.439   5.998
  812SOL    HW2 2973   0.535   1.539   6.021
  813SOL     OW 2974   1.724   0.386   6.965
  813SOL    HW1 2975   1.794   0.452   6.964
  813SOL    HW2 2976   1.756   0.317   6.907
  814SOL     OW 2977   0.260   1.348   5.878
  814SOL    HW1 2978   0.167   1.350   5.856
  814SOL    HW2 2979   0.264   1.385   5.966
  815SOL     OW 2980   0.116   1.014   7.302
  815SOL    HW1 2981   0.044   0.986   7.358
  815SOL    HW2 2982   0.195   0.984   7.347
  816SOL     OW 2983   0.675   0.215   7.077
  816SOL    HW1 2984   0.758   0.198   7.033
  816SOL    HW2 2985   0.699   0.261   7.157
  817SOL     OW 2986   0.079   0.336   5.623
  817SOL    HW1 2987   5.287   0.311   5.612
  817SOL    HW2 2988   0.093   0.405   5.558
  818SOL     OW 2989   1.430   0.858   6.986
  818SOL    HW1 2990   1.381   0.919   6.931
  818SOL    HW2 2991   1.519   0.861   6.952
  819SOL     OW 2992   0.083   0.141   5.879
  819SOL    HW1 2993   0.077   0.235   5.862
  819SOL    HW2 2994   0.171   0.117   5.849
  820SOL     OW 2995   1.179   1.339   5.703
  820SOL    HW1 2996   1.088   1.309   5.706
  820SOL    HW2 2997   1.207   1.340   5.794
  821SOL     OW 2998   0.619   0.831   7.021
  821SOL    HW1 2999   0.675   0.907   7.005
  821SOL    HW2 3000   0.681   0.758   7.029
  822SOL     OW 3001   1.484   1.776   6.565
  822SOL    HW1 3002   1.507   1.836   6.493
  822SOL    HW2 3003   1.567   1.758   6.609
  823SOL     OW 3004   0.712   0.573   7.290
  823SOL    HW1 3005   0.756   0.636   7.348
  823SOL    HW2 3006   0.744   0.488   7.319
  824SOL     OW 3007   1.471   1.200   7.218
  824SOL    HW1 3008   1.459   1.213   7.312
  824SOL    HW2 3009   1.565   1.215   7.204
  825SOL     OW 3010   0.377   1.742   7.150
  825SOL    HW1 3011   0.295   1.788   7.134
  825SOL    HW2 3012   0.352   1.662   7.195
  826SOL     OW 3013   1.669   0.881   6.841
  826SOL    HW1 3014   1.663   0.796   6.798
  826SOL    HW2 3015   1.660   0.945   6.770
  827SOL     OW 3016   1.221   0.319   6.051
  827SOL    HW1 3017   1.284   0.247   6.045
  827SOL    HW2 3018   1.251   0.371   6.126
  828SOL     OW 3019   0.590   0.738   6.255
  828SOL    HW1 3020   0.629   0.824   6.239
  828SOL    HW2 3021   0.521   0.730   6.189
  829SOL     OW 3022   1.766   0.361   7.236
  829SOL    HW1 3023   1.748   0.376   7.143
  829SOL    HW2 3024   1.694   0.306   7.266
  830SOL     OW 3025   1.744   0.933   7.098
  830SOL    HW1 3026   1.742   1.028   7.112
  830SOL    HW2 3027   1.729   0.922   7.005
  831SOL     OW 3028   0.862   1.367   5.620
  831SOL    HW1 3029   0.824   1.396   5.703
  831SOL    HW2 3030   0.881   1.448   5.572
  832SOL     OW 3031   0.663   1.793   6.529
  832SOL    HW1 3032   0.642   1.884   6.507
  832SOL    HW2 3033   0.758   1.789   6.523
  833SOL     OW 3034   0.867   0.966   6.440
  833SOL    HW1 3035   0.918   0.895   6.480
  833SOL    HW2 3036   0.833   1.016   6.515
  834SOL     OW 3037   1.077   0.987   5.674
  834SOL    HW1 3038   1.057   1.039   5.596
  834SOL    HW2 3039   1.153   0.934   5.649
  835SOL     OW 3040   1.854   1.555   6.430
  835SOL    HW1 3041   1.776   1.543   6.376
  835SOL    HW2 3042   1.846   1.488   6.498
  836SOL     OW 3043   0.225   1.305   7.446
  836SOL    HW1 3044   0.155   1.245   7.420
  836SOL    HW2 3045   0.213   1.316   7.540
  837SOL     OW 3046   0.087   1.219   6.240
  837SOL    HW1 3047   0.100   1.188   6.329
  837SOL    HW2 3048   0.174   1.215   6.200
  838SOL     OW 3049   0.681   1.402   7.214
  838SOL    HW1 3050   0.600   1.361   7.244
  838SOL    HW2 3051   0.677   1.490   7.250
  839SOL     OW 3052   1.814   0.177   6.819
  839SOL    HW1 3053   1.780   0.087   6.824
  839SOL    HW2 3054   1.832   0.190   6.726
  840SOL     OW 3055   0.433   0.436   6.108
  840SOL    HW1 3056   0.464   0.362   6.056
  840SOL    HW2 3057   0.387   0.396   6.181
  841SOL     OW 3058   1.700   1.489   6.683
  841SOL    HW1 3059   1.619   1.466   6.637
  841SOL    HW2 3060   1.712   1.420   6.748
  842SOL     OW 3061   0.337   0.560   6.875
  842SOL    HW1 3062   0.394   0.503   6.925
  842SOL    HW2 3063   0.350   0.534   6.784
  843SOL     OW 3064   0.828   1.577   6.264
  843SOL    HW1 3065   0.816   1.633   6.187
  843SOL    HW2 3066   0.751   1.520   6.265
  844SOL     OW 3067   1.428   0.218   6.702
  844SOL    HW1 3068   1.464   0.144   6.750
  844SOL    HW2 3069   1.379   0.268   6.768
  845SOL     OW 3070   1.002   0.021   6.727
  845SOL    HW1 3071   0.952   5.252   6.682
  845SOL    HW2 3072   1.088   5.282   6.740
  846SOL     OW 3073   0.771   1.333   5.901
  846SOL    HW1 3074   0.742   1.242   5.907
  846SOL    HW2 3075   0.854   1.334   5.950
  847SOL     OW 3076   0.623   1.556   6.873
  847SOL    HW1 3077   0.624   1.638   6.922
  847SOL    HW2 3078   0.710   1.550   6.834
  848SOL     OW 3079   1.353   0.039   5.748
  848SOL    HW1 3080   1.389   5.297   5.669
  848SOL    HW2 3081   1.276   5.286   5.770
  849SOL     OW 3082   1.300   0.464   6.270
  849SOL    HW1 3083   1.246   0.542   6.276
  849SOL    HW2 3084   1.294   0.423   6.357
  850SOL     OW 3085   1.594   0.215   6.468
  850SOL    HW1 3086   1.528   0.227   6.536
  850SOL    HW2 3087   1.587   0.294   6.414
  851SOL     OW 3088   0.048   1.068   5.876
  851SOL    HW1 3089   0.137   1.037   5.865
  851SOL    HW2 3090   5.300   0.994   5.911
  852SOL     OW 3091   0.885   1.652   5.928
  852SOL    HW1 3092   0.812   1.636   5.868
  852SOL    HW2 3093   0.857   1.727   5.980
  853SOL     OW 3094   0.228   0.631   7.566
  853SOL    HW1 3095   0.151   0.593   7.609
  853SOL    HW2 3096   0.220   0.604   7.475
  854SOL     OW 3097   1.768   0.598   7.679
  854SOL    HW1 3098   1.747   0.593   7.586
  854SOL    HW2 3099   1.726   0.520   7.717
  855SOL     OW 3100   0.230   1.706   7.921
  855SOL    HW1 3101   0.264   1.751   7.998
  855SOL    HW2 3102   0.300   1.713   7.856
  856SOL     OW 3103   0.217   1.436   7.991
  856SOL    HW1 3104   0.209   1.531   7.983
  856SOL    HW2 3105   0.153   1.413   8.059
  857SOL     OW 3106   0.583   0.984   7.581
  857SOL    HW1 3107   0.628   1.032   7.511
  857SOL    HW2 3108   0.624   1.014   7.662
  858SOL     OW 3109   1.837   1.759   7.797
  858SOL    HW1 3110   1.908   1.729   7.854
  858SOL    HW2 3111   1.863   1.848   7.772
  859SOL     OW 3112   0.036   1.602   7.582
  859SOL    HW1 3113   0.028   1.509   7.603
  859SOL    HW2 3114   5.277   1.645   7.643
  860SOL     OW 3115   1.683   0.866   8.034
  860SOL    HW1 3116   1.763   0.878   0.005
  860SOL    HW2 3117   1.670   0.950   7.990
  861SOL     OW 3118   1.655   1.098   7.877
  861SOL    HW1 3119   1.742   1.124   7.847
  861SOL    HW2 3120   1.627   1.170   7.934
  862SOL     OW 3121   0.810   5.289   7.943
  862SOL    HW1 3122   0.852   0.074   7.930
  862SOL    HW2 3123   0.716   0.008   7.942
  863SOL     OW 3124   1.533   0.995   7.649
  863SOL    HW1 3125   1.466   0.936   7.683
  863SOL    HW2 3126   1.577   1.029   7.727
  864SOL     OW 3127   0.588   0.723   7.707
  864SOL    HW1 3128   0.597   0.805   7.658
  864SOL    HW2 3129   0.534   0.746   7.783
  865SOL     OW 3130   1.574   1.671   7.757
  865SOL    HW1 3131   1.665   1.700   7.765
  865SOL    HW2 3132   1.562   1.658   7.663
  866SOL     OW 3133   0.050   0.817   0.199
  866SOL    HW1 3134   0.122   0.765   0.162
  866SOL    HW2 3135   0.029   0.880   0.130
  867SOL     OW 3136   0.868   0.358   7.629
  867SOL    HW1 3137   0.913   0.421   7.574
  867SOL    HW2 3138   0.931   0.287   7.641
  868SOL     OW 3139   0.319   0.949   7.694
  868SOL    HW1 3140   0.399   0.976   7.650
  868SOL    HW2 3141   0.296   0.865   7.653
  869SOL     OW 3142   1.124   1.776   7.682
  869SOL    HW1 3143   1.047   1.735   7.723
  869SOL    HW2 3144   1.147   1.715   7.612
  870SOL     OW 3145   1.628   1.380   7.534
  870SOL    HW1 3146   1.586   1.465   7.520
  870SOL    HW2 3147   1.560   1.316   7.516
  871SOL     OW 3148   0.470   1.737   7.769
  871SOL    HW1 3149   0.515   1.791   7.834
  871SOL    HW2 3150   0.539   1.703   7.713
  872SOL     OW 3151   1.410   0.107   7.882
  872SOL    HW1 3152   1.405   0.083   7.789
  872SOL    HW2 3153   1.503   0.112   7.901
  873SOL     OW 3154   0.378   0.697   7.922
  873SOL    HW1 3155   0.401   0.604   7.925
  873SOL    HW2 3156   0.289   0.701   7.956
  874SOL     OW 3157   0.615   0.131   7.559
  874SOL    HW1 3158   0.691   0.076   7.579
  874SOL    HW2 3159   0.573   0.089   7.484
  875SOL     OW 3160   0.547   0.062   7.951
  875SOL    HW1 3161   0.455   0.047   7.975
  875SOL    HW2 3162   0.543   0.136   7.890
  876SOL     OW 3163   1.428   1.198   7.489
  876SOL    HW1 3164   1.459   1.124   7.542
  876SOL    HW2 3165   1.344   1.221   7.528
  877SOL     OW 3166   0.314   0.070   7.652
  877SOL    HW1 3167   0.373   0.127   7.603
  877SOL    HW2 3168   0.360   5.286   7.657
  878SOL     OW 3169   0.950   0.228   7.909
  878SOL    HW1 3170   0.900   0.299   7.868
  878SOL    HW2 3171   1.038   0.263   7.918
  879SOL     OW 3172   0.446   1.157   0.091
  879SOL    HW1 3173   0.374   1.183   0.149
  879SOL    HW2 3174   0.405   1.140   0.007
  880SOL     OW 3175   1.291   1.811   8.014
  880SOL    HW1 3176   1.326   1.880   7.958
  880SOL    HW2 3177   1.206   1.845   8.044
  881SOL     OW 3178   1.026   0.546   7.468
  881SOL    HW1 3179   0.983   0.630   7.452
  881SOL    HW2 3180   1.086   0.563   7.541
  882SOL     OW 3181   1.872   0.816   7.801
  882SOL    HW1 3182   1.865   0.790   7.893
  882SOL    HW2 3183   1.832   0.745   7.752
  883SOL     OW 3184   0.490   1.415   7.605
  883SOL    HW1 3185   0.415   1.387   7.658
  883SOL    HW2 3186   0.472   1.381   7.518
  884SOL     OW 3187   1.393   0.572   7.519
  884SOL    HW1 3188   1.332   0.552   7.590
  884SOL    HW2 3189   1.478   0.540   7.551
  885SOL     OW 3190   0.524   0.271   7.773
  885SOL    HW1 3191   0.566   0.218   7.705
  885SOL    HW2 3192   0.503   0.354   7.730
  886SOL     OW 3193   0.709   1.061   7.814
  886SOL    HW1 3194   0.693   1.050   7.907
  886SOL    HW2 3195   0.788   1.008   7.797
  887SOL     OW 3196   0.345   1.095   7.928
  887SOL    HW1 3197   0.345   1.179   7.883
  887SOL    HW2 3198   0.348   1.030   7.858
  888SOL     OW 3199   1.223   1.356   7.821
  888SOL    HW1 3200   1.285   1.425   7.845
  888SOL    HW2 3201   1.185   1.328   7.904
  889SOL     OW 3202   1.589   0.626   7.921
  889SOL    HW1 3203   1.574   0.684   7.996
  889SOL    HW2 3204   1.626   0.683   7.854
  890SOL     OW 3205   1.203   0.526   7.715
  890SOL    HW1 3206   1.204   0.439   7.755
  890SOL    HW2 3207   1.182   0.585   7.787
  891SOL     OW 3208   1.617   0.376   7.814
  891SOL    HW1 3209   1.637   0.308   7.878
  891SOL    HW2 3210   1.593   0.453   7.866
  892SOL     OW 3211   1.528   0.272   7.575
  892SOL    HW1 3212   1.465   0.207   7.605
  892SOL    HW2 3213   1.564   0.310   7.656
  893SOL     OW 3214   1.293   0.827   7.481
  893SOL    HW1 3215   1.335   0.741   7.483
  893SOL    HW2 3216   1.324   0.867   7.399
  894SOL     OW 3217   0.003   1.333   7.656
  894SOL    HW1 3218   5.221   1.331   7.608
  894SOL    HW2 3219   0.013   1.244   7.691
  895SOL     OW 3220   0.837   0.601   7.764
  895SOL    HW1 3221   0.829   0.511   7.733
  895SOL    HW2 3222   0.748   0.635   7.764
  896SOL     OW 3223   0.460   0.493   7.632
  896SOL    HW1 3224   0.523   0.563   7.651
  896SOL    HW2 3225   0.376   0.539   7.622
  897SOL     OW 3226   1.312   0.852   7.754
  897SOL    HW1 3227   1.225   0.854   7.795
  897SOL    HW2 3228   1.295   0.841   7.661
  898SOL     OW 3229   1.709   0.131   7.945
  898SOL    HW1 3230   1.784   0.131   7.885
  898SOL    HW2 3231   1.741   0.084   8.023
  899SOL     OW 3232   1.364   1.577   7.896
  899SOL    HW1 3233   1.439   1.597   7.840
  899SOL    HW2 3234   1.332   1.662   7.926
  900SOL     OW 3235   0.668   1.619   7.604
  900SOL    HW1 3236   0.680   1.631   7.509
  900SOL    HW2 3237   0.616   1.539   7.611
  901SOL     OW 3238   1.209   1.607   7.478
  901SOL    HW1 3239   1.198   1.516   7.505
  901SOL    HW2 3240   1.142   1.620   7.411
  902SOL     OW 3241   0.924   0.910   7.754
  902SOL    HW1 3242   0.979   0.934   7.680
  902SOL    HW2 3243   0.922   0.814   7.753
  903SOL     OW 3244   1.493   1.626   7.488
  903SOL    HW1 3245   1.399   1.619   7.476
  903SOL    HW2 3246   1.529   1.631   7.400
  904SOL     OW 3247   0.605   1.505   7.936
  904SOL    HW1 3248   0.650   1.446   7.875
  904SOL    HW2 3249   0.534   1.542   7.884
  905SOL     OW 3250   0.260   1.347   7.742
  905SOL    HW1 3251   0.167   1.351   7.718
  905SOL    HW2 3252   0.263   1.382   7.831
  906SOL     OW 3253   0.078   0.343   7.487
  906SOL    HW1 3254   5.290   0.309   7.470
  906SOL    HW2 3255   0.092   0.407   7.418
  907SOL     OW 3256   0.068   0.143   7.735
  907SOL    HW1 3257   0.068   0.237   7.723
  907SOL    HW2 3258   0.157   0.115   7.714
  908SOL     OW 3259   1.177   1.338   7.556
  908SOL    HW1 3260   1.084   1.313   7.557
  908SOL    HW2 3261   1.200   1.345   7.649
  909SOL     OW 3262   1.222   0.318   7.916
  909SOL    HW1 3263   1.288   0.250   7.910
  909SOL    HW2 3264   1.245   0.367   7.995
  910SOL     OW 3265   0.624   0.742   8.045
  910SOL    HW1 3266   0.629   0.818   0.023
  910SOL    HW2 3267   0.532   0.737   8.019
  911SOL     OW 3268   0.862   1.367   7.483
  911SOL    HW1 3269   0.825   1.397   7.565
  911SOL    HW2 3270   0.882   1.448   7.435
  912SOL     OW 3271   1.071   0.977   7.537
  912SOL    HW1 3272   1.054   1.035   7.463
  912SOL    HW2 3273   1.151   0.930   7.512
  913SOL     OW 3274   0.399   0.428   7.981
  913SOL    HW1 3275   0.446   0.367   7.925
  913SOL    HW2 3276   0.441   0.419   8.067
  914SOL     OW 3277   0.765   1.335   7.762
  914SOL    HW1 3278   0.736   1.244   7.763
  914SOL    HW2 3279   0.847   1.335   7.811
  915SOL     OW 3280   1.363   0.038   7.611
  915SOL    HW1 3281   1.378   5.291   7.529
  915SOL    HW2 3282   1.282   5.298   7.646
  916SOL     OW 3283   0.048   1.070   7.721
  916SOL    HW1 3284   0.137   1.036   7.721
  916SOL    HW2 3285   5.300   1.010   7.779
  917SOL     OW 3286   0.893   1.651   7.780
  917SOL    HW1 3287   0.817   1.628   7.727
  917SOL    HW2 3288   0.859   1.714   7.844
  918SOL     OW 3289   0.223   2.485   0.116
  918SOL    HW1 3290   0.154   2.440   0.164
  918SOL    HW2 3291   0.232   2.436   0.034
  919SOL     OW 3292   0.241   2.137   0.989
  919SOL    HW1 3293   0.256   2.103   1.077
  919SOL    HW2 3294   0.157   2.100   0.962
  920SOL     OW 3295   5.297   2.259   0.648
  920SOL    HW1 3296   5.205   2.287   0.658
  920SOL    HW2 3297   5.291   2.166   0.628
  921SOL     OW 3298   0.574   3.146   1.182
  921SOL    HW1 3299   0.491   3.154   1.135
  921SOL    HW2 3300   0.590   3.234   1.217
  922SOL     OW 3301   1.561   3.374   0.707
  922SOL    HW1 3302   1.518   3.354   0.790
  922SOL    HW2 3303   1.489   3.378   0.644
  923SOL     OW 3304   1.131   2.560   0.701
  923SOL    HW1 3305   1.180   2.641   0.687
  923SOL    HW2 3306   1.084   2.574   0.783
  924SOL     OW 3307   1.771   2.461   0.233
  924SOL    HW1 3308   1.730   2.467   0.147
  924SOL    HW2 3309   1.729   2.386   0.274
  925SOL     OW 3310   0.756   3.003   1.040
  925SOL    HW1 3311   0.689   3.037   1.099
  925SOL    HW2 3312   0.791   3.081   0.996
  926SOL     OW 3313   0.867   2.637   1.822
  926SOL    HW1 3314   0.856   2.708   1.884
  926SOL    HW2 3315   0.890   2.679   1.740
  927SOL     OW 3316   0.684   2.863   0.650
  927SOL    HW1 3317   0.750   2.852   0.718
  927SOL    HW2 3318   0.616   2.917   0.690
  928SOL     OW 3319   0.710   3.013   1.813
  928SOL    HW1 3320   0.758   3.091   1.839
  928SOL    HW2 3321   0.628   3.046   1.777
  929SOL     OW 3322   0.358   3.267   1.060
  929SOL    HW1 3323   0.271   3.264   1.022
  929SOL    HW2 3324   0.406   3.329   1.006
  930SOL     OW 3325   1.461   3.361   1.354
  930SOL    HW1 3326   1.511   3.442   1.364
  930SOL    HW2 3327   1.399   3.364   1.427
  931SOL     OW 3328   0.451   2.262   1.492
  931SOL    HW1 3329   0.524   2.201   1.494
  931SOL    HW2 3330   0.373   2.206   1.502
  932SOL     OW 3331   1.612   2.310   0.740
  932SOL    HW1 3332   1.537   2.332   0.686
  932SOL    HW2 3333   1.626   2.387   0.795
  933SOL     OW 3334   0.217   3.592   0.466
  933SOL    HW1 3335   0.259   3.647   0.531
  933SOL    HW2 3336   0.287   3.570   0.404
  934SOL     OW 3337   1.137   3.203   1.692
  934SOL    HW1 3338   1.177   3.199   1.779
  934SOL    HW2 3339   1.084   3.124   1.686
  935SOL     OW 3340   0.221   3.310   0.533
  935SOL    HW1 3341   0.201   3.404   0.540
  935SOL    HW2 3342   0.159   3.269   0.593
  936SOL     OW 3343   0.253   2.941   0.878
  936SOL    HW1 3344   0.260   2.854   0.918
  936SOL    HW2 3345   0.199   2.991   0.938
  937SOL     OW 3346   0.614   3.652   1.433
  937SOL    HW1 3347   0.530   3.635   1.475
  937SOL    HW2 3348   0.634   3.743   1.455
  938SOL     OW 3349   0.622   2.822   0.137
  938SOL    HW1 3350   0.578   2.902   0.108
  938SOL    HW2 3351   0.677   2.850   0.210
  939SOL     OW 3352   1.596   1.985   1.468
  939SOL    HW1 3353   1.602   2.066   1.417
  939SOL    HW2 3354   1.582   2.014   1.558
  940SOL     OW 3355   0.130   2.497   0.583
  940SOL    HW1 3356   0.087   2.414   0.606
  940SOL    HW2 3357   0.099   2.559   0.649
  941SOL     OW 3358   1.845   3.620   0.332
  941SOL    HW1 3359   1.910   3.590   0.396
  941SOL    HW2 3360   1.870   3.711   0.314
  942SOL     OW 3361   0.032   3.446   0.104
  942SOL    HW1 3362   0.024   3.361   0.147
  942SOL    HW2 3363   0.006   3.509   0.172
  943SOL     OW 3364   1.687   2.780   0.643
  943SOL    HW1 3365   1.770   2.739   0.620
  943SOL    HW2 3366   1.665   2.833   0.566
  944SOL     OW 3367   1.646   2.966   0.435
  944SOL    HW1 3368   1.726   2.981   0.384
  944SOL    HW2 3369   1.651   3.029   0.507
  945SOL     OW 3370   0.131   2.610   1.585
  945SOL    HW1 3371   0.226   2.624   1.587
  945SOL    HW2 3372   0.093   2.697   1.601
  946SOL     OW 3373   0.615   3.248   0.734
  946SOL    HW1 3374   0.568   3.166   0.745
  946SOL    HW2 3375   0.598   3.274   0.643
  947SOL     OW 3376   1.289   3.100   1.424
  947SOL    HW1 3377   1.321   3.033   1.363
  947SOL    HW2 3378   1.346   3.094   1.500
  948SOL     OW 3379   0.824   1.864   0.512
  948SOL    HW1 3380   0.862   1.948   0.490
  948SOL    HW2 3381   0.729   1.881   0.517
  949SOL     OW 3382   0.177   2.808   1.279
  949SOL    HW1 3383   0.267   2.778   1.269
  949SOL    HW2 3384   0.135   2.784   1.196
  950SOL     OW 3385   1.509   2.869   0.213
  950SOL    HW1 3386   1.448   2.803   0.246
  950SOL    HW2 3387   1.562   2.894   0.289
  951SOL     OW 3388   1.186   3.668   1.622
  951SOL    HW1 3389   1.195   3.727   1.548
  951SOL    HW2 3390   1.202   3.581   1.586
  952SOL     OW 3391   0.337   2.115   1.817
  952SOL    HW1 3392   0.383   2.198   1.830
  952SOL    HW2 3393   0.249   2.132   1.852
  953SOL     OW 3394   1.467   3.281   0.952
  953SOL    HW1 3395   1.398   3.297   1.017
  953SOL    HW2 3396   1.454   3.190   0.925
  954SOL     OW 3397   1.659   3.602   0.581
  954SOL    HW1 3398   1.638   3.574   0.492
  954SOL    HW2 3399   1.634   3.528   0.637
  955SOL     OW 3400   0.597   2.575   0.281
  955SOL    HW1 3401   0.617   2.654   0.230
  955SOL    HW2 3402   0.534   2.604   0.347
  956SOL     OW 3403   1.279   2.214   0.932
  956SOL    HW1 3404   1.190   2.182   0.941
  956SOL    HW2 3405   1.330   2.161   0.994
  957SOL     OW 3406   1.587   3.533   0.319
  957SOL    HW1 3407   1.678   3.562   0.312
  957SOL    HW2 3408   1.560   3.516   0.229
  958SOL     OW 3409   0.792   2.479   1.451
  958SOL    HW1 3410   0.765   2.456   1.540
  958SOL    HW2 3411   0.752   2.413   1.396
  959SOL     OW 3412   1.394   2.336   1.678
  959SOL    HW1 3413   1.396   2.381   1.762
  959SOL    HW2 3414   1.455   2.263   1.688
  960SOL     OW 3415   0.955   2.749   1.583
  960SOL    HW1 3416   1.009   2.679   1.547
  960SOL    HW2 3417   0.907   2.784   1.507
  961SOL     OW 3418   0.992   2.274   1.239
  961SOL    HW1 3419   0.907   2.296   1.276
  961SOL    HW2 3420   0.972   2.228   1.157
  962SOL     OW 3421   1.052   2.561   0.427
  962SOL    HW1 3422   1.068   2.554   0.521
  962SOL    HW2 3423   0.970   2.514   0.413
  963SOL     OW 3424   0.068   2.651   0.816
  963SOL    HW1 3425   0.151   2.655   0.863
  963SOL    HW2 3426   0.066   2.730   0.763
  964SOL     OW 3427   0.130   3.746   1.585
  964SOL    HW1 3428   0.133   3.716   1.676
  964SOL    HW2 3429   0.059   3.695   1.545
  965SOL     OW 3430   0.885   2.219   0.202
  965SOL    HW1 3431   0.930   2.269   0.133
  965SOL    HW2 3432   0.885   2.129   0.170
  966SOL     OW 3433   1.709   2.437   1.828
  966SOL    HW1 3434   1.671   2.511   1.781
  966SOL    HW2 3435   1.736   2.375   1.759
  967SOL     OW 3436   1.376   3.003   0.541
  967SOL    HW1 3437   1.455   2.991   0.487
  967SOL    HW2 3438   1.323   3.066   0.492
  968SOL     OW 3439   0.555   2.046   0.893
  968SOL    HW1 3440   0.552   2.073   0.985
  968SOL    HW2 3441   0.553   2.128   0.844
  969SOL     OW 3442   1.005   3.306   0.473
  969SOL    HW1 3443   0.967   3.379   0.423
  969SOL    HW2 3444   0.986   3.328   0.564
  970SOL     OW 3445   0.357   3.664   0.868
  970SOL    HW1 3446   0.398   3.578   0.882
  970SOL    HW2 3447   0.423   3.727   0.899
  971SOL     OW 3448   1.798   2.917   0.869
  971SOL    HW1 3449   1.743   2.901   0.792
  971SOL    HW2 3450   1.737   2.924   0.942
  972SOL     OW 3451   1.228   3.401   1.513
  972SOL    HW1 3452   1.214   3.328   1.573
  972SOL    HW2 3453   1.164   3.387   1.443
  973SOL     OW 3454   0.331   2.813   0.252
  973SOL    HW1 3455   0.411   2.826   0.201
  973SOL    HW2 3456   0.313   2.720   0.246
  974SOL     OW 3457   1.478   2.603   0.726
  974SOL    HW1 3458   1.470   2.562   0.812
  974SOL    HW2 3459   1.555   2.660   0.735
  975SOL     OW 3460   0.465   3.126   1.737
  975SOL    HW1 3461   0.438   3.132   1.646
  975SOL    HW2 3462   0.383   3.126   1.787
  976SOL     OW 3463   1.108   3.643   0.224
  976SOL    HW1 3464   1.052   3.603   0.290
  976SOL    HW2 3465   1.128   3.572   0.163
  977SOL     OW 3466   0.205   2.142   1.497
  977SOL    HW1 3467   0.126   2.194   1.481
  977SOL    HW2 3468   0.173   2.063   1.541
  978SOL     OW 3469   1.633   3.235   0.083
  978SOL    HW1 3470   1.593   3.321   0.082
  978SOL    HW2 3471   1.562   3.174   0.064
  979SOL     OW 3472   0.470   3.596   0.325
  979SOL    HW1 3473   0.513   3.656   0.386
  979SOL    HW2 3474   0.540   3.570   0.265
  980SOL     OW 3475   1.407   1.973   0.444
  980SOL    HW1 3476   1.398   1.952   0.351
  980SOL    HW2 3477   1.502   1.980   0.458
  981SOL     OW 3478   0.277   3.663   1.213
  981SOL    HW1 3479   0.306   3.586   1.261
  981SOL    HW2 3480   0.225   3.628   1.141
  982SOL     OW 3481   0.938   3.561   0.899
  982SOL    HW1 3482   1.016   3.509   0.920
  982SOL    HW2 3483   0.894   3.511   0.830
  983SOL     OW 3484   0.382   2.561   0.476
  983SOL    HW1 3485   0.414   2.471   0.485
  983SOL    HW2 3486   0.290   2.556   0.502
  984SOL     OW 3487   1.535   2.087   1.725
  984SOL    HW1 3488   1.545   2.108   1.818
  984SOL    HW2 3489   1.466   2.021   1.722
  985SOL     OW 3490   0.628   1.972   0.137
  985SOL    HW1 3491   0.723   1.961   0.141
  985SOL    HW2 3492   0.607   1.954   0.045
  986SOL     OW 3493   0.767   2.140   1.754
  986SOL    HW1 3494   0.842   2.081   1.756
  986SOL    HW2 3495   0.718   2.118   1.833
  987SOL     OW 3496   0.877   3.384   1.193
  987SOL    HW1 3497   0.861   3.347   1.106
  987SOL    HW2 3498   0.947   3.329   1.229
  988SOL     OW 3499   1.341   2.450   1.432
  988SOL    HW1 3500   1.371   2.420   1.517
  988SOL    HW2 3501   1.376   2.539   1.424
  989SOL     OW 3502   0.815   3.256   0.940
  989SOL    HW1 3503   0.900   3.245   0.895
  989SOL    HW2 3504   0.751   3.258   0.869
  990SOL     OW 3505   0.928   2.371   0.902
  990SOL    HW1 3506   0.904   2.363   0.810
  990SOL    HW2 3507   0.959   2.284   0.927
  991SOL     OW 3508   0.560   1.924   0.500
  991SOL    HW1 3509   0.485   1.923   0.559
  991SOL    HW2 3510   0.549   2.003   0.447
  992SOL     OW 3511   1.433   3.061   0.036
  992SOL    HW1 3512   1.457   2.987   0.092
  992SOL    HW2 3513   1.345   3.086   0.065
  993SOL     OW 3514   0.314   1.909   0.175
  993SOL    HW1 3515   0.378   1.979   0.179
  993SOL    HW2 3516   0.356   1.835   0.218
  994SOL     OW 3517   0.941   2.109   0.459
  994SOL    HW1 3518   0.913   2.151   0.377
  994SOL    HW2 3519   1.035   2.126   0.463
  995SOL     OW 3520   1.080   2.543   1.460
  995SOL    HW1 3521   1.011   2.476   1.464
  995SOL    HW2 3522   1.161   2.492   1.453
  996SOL     OW 3523   1.224   3.431   0.794
  996SOL    HW1 3524   1.239   3.498   0.727
  996SOL    HW2 3525   1.291   3.447   0.860
  997SOL     OW 3526   0.468   3.013   0.732
  997SOL    HW1 3527   0.399   2.993   0.795
  997SOL    HW2 3528   0.428   2.997   0.646
  998SOL     OW 3529   1.268   3.656   0.607
  998SOL    HW1 3530   1.317   3.719   0.555
  998SOL    HW2 3531   1.201   3.708   0.651
  999SOL     OW 3532   1.031   2.390   0.032
  999SOL    HW1 3533   0.990   2.471   0.000
  999SOL    HW2 3534   1.094   2.419   0.098
 1000SOL     OW 3535   0.088   2.407   1.398
 1000SOL    HW1 3536   0.176   2.414   1.361
 1000SOL    HW2 3537   0.080   2.483   1.456
 1001SOL     OW 3538   0.560   2.089   1.166
 1001SOL    HW1 3539   0.598   2.010   1.203
 1001SOL    HW2 3540   0.469   2.088   1.194
 1002SOL     OW 3541   0.867   2.320   0.639
 1002SOL    HW1 3542   0.825   2.376   0.574
 1002SOL    HW2 3543   0.889   2.240   0.592
 1003SOL     OW 3544   1.016   1.914   0.750
 1003SOL    HW1 3545   0.956   1.908   0.676
 1003SOL    HW2 3546   0.994   1.839   0.806
 1004SOL     OW 3547   1.437   3.024   0.857
 1004SOL    HW1 3548   1.367   2.959   0.856
 1004SOL    HW2 3549   1.461   3.036   0.765
 1005SOL     OW 3550   1.466   2.467   0.976
 1005SOL    HW1 3551   1.415   2.386   0.980
 1005SOL    HW2 3552   1.526   2.461   1.051
 1006SOL     OW 3553   1.851   2.677   0.389
 1006SOL    HW1 3554   1.902   2.622   0.449
 1006SOL    HW2 3555   1.819   2.615   0.322
 1007SOL     OW 3556   0.483   3.302   0.173
 1007SOL    HW1 3557   0.410   3.263   0.222
 1007SOL    HW2 3558   0.488   3.252   0.092
 1008SOL     OW 3559   1.670   3.127   0.648
 1008SOL    HW1 3560   1.765   3.130   0.661
 1008SOL    HW2 3561   1.640   3.215   0.668
 1009SOL     OW 3562   1.399   2.440   0.087
 1009SOL    HW1 3563   1.336   2.421   0.157
 1009SOL    HW2 3564   1.454   2.362   0.082
 1010SOL     OW 3565   0.515   2.125   0.323
 1010SOL    HW1 3566   0.565   2.074   0.260
 1010SOL    HW2 3567   0.501   2.209   0.280
 1011SOL     OW 3568   1.752   3.101   1.574
 1011SOL    HW1 3569   1.840   3.063   1.567
 1011SOL    HW2 3570   1.767   3.191   1.602
 1012SOL     OW 3571   1.058   3.215   1.333
 1012SOL    HW1 3572   0.984   3.184   1.384
 1012SOL    HW2 3573   1.134   3.174   1.375
 1013SOL     OW 3574   1.608   3.487   1.654
 1013SOL    HW1 3575   1.602   3.521   1.565
 1013SOL    HW2 3576   1.691   3.440   1.656
 1014SOL     OW 3577   1.129   3.065   1.105
 1014SOL    HW1 3578   1.070   3.103   1.170
 1014SOL    HW2 3579   1.096   3.098   1.021
 1015SOL     OW 3580   1.628   2.960   1.078
 1015SOL    HW1 3581   1.623   3.022   1.150
 1015SOL    HW2 3582   1.549   2.977   1.026
 1016SOL     OW 3583   0.919   1.958   1.397
 1016SOL    HW1 3584   0.941   1.940   1.306
 1016SOL    HW2 3585   0.998   1.998   1.433
 1017SOL     OW 3586   0.984   2.976   1.723
 1017SOL    HW1 3587   0.892   2.993   1.743
 1017SOL    HW2 3588   0.983   2.899   1.667
 1018SOL     OW 3589   0.714   2.924   0.381
 1018SOL    HW1 3590   0.697   2.907   0.473
 1018SOL    HW2 3591   0.792   2.872   0.360
 1019SOL     OW 3592   0.420   2.681   1.252
 1019SOL    HW1 3593   0.489   2.688   1.318
 1019SOL    HW2 3594   0.386   2.592   1.263
 1020SOL     OW 3595   1.265   2.239   1.275
 1020SOL    HW1 3596   1.298   2.316   1.321
 1020SOL    HW2 3597   1.175   2.261   1.252
 1021SOL     OW 3598   0.102   3.485   1.367
 1021SOL    HW1 3599   0.079   3.493   1.274
 1021SOL    HW2 3600   0.188   3.443   1.368
 1022SOL     OW 3601   0.346   2.970   0.487
 1022SOL    HW1 3602   0.345   3.050   0.434
 1022SOL    HW2 3603   0.359   2.899   0.424
 1023SOL     OW 3604   0.554   2.397   0.859
 1023SOL    HW1 3605   0.569   2.456   0.785
 1023SOL    HW2 3606   0.618   2.424   0.925
 1024SOL     OW 3607   1.247   3.209   0.394
 1024SOL    HW1 3608   1.303   3.282   0.422
 1024SOL    HW2 3609   1.160   3.232   0.425
 1025SOL     OW 3610   1.281   3.319   1.147
 1025SOL    HW1 3611   1.337   3.322   1.225
 1025SOL    HW2 3612   1.225   3.243   1.160
 1026SOL     OW 3613   1.583   2.486   0.482
 1026SOL    HW1 3614   1.533   2.535   0.546
 1026SOL    HW2 3615   1.617   2.552   0.421
 1027SOL     OW 3616   0.352   3.381   1.311
 1027SOL    HW1 3617   0.341   3.338   1.226
 1027SOL    HW2 3618   0.445   3.399   1.317
 1028SOL     OW 3619   0.414   2.604   1.602
 1028SOL    HW1 3620   0.475   2.651   1.544
 1028SOL    HW2 3621   0.453   2.518   1.615
 1029SOL     OW 3622   1.601   2.640   1.682
 1029SOL    HW1 3623   1.515   2.682   1.675
 1029SOL    HW2 3624   1.653   2.683   1.613
 1030SOL     OW 3625   0.996   1.985   1.755
 1030SOL    HW1 3626   1.051   2.058   1.727
 1030SOL    HW2 3627   1.044   1.907   1.730
 1031SOL     OW 3628   0.497   1.903   1.748
 1031SOL    HW1 3629   0.455   1.849   1.681
 1031SOL    HW2 3630   0.438   1.977   1.760
 1032SOL     OW 3631   0.586   2.735   1.033
 1032SOL    HW1 3632   0.616   2.826   1.031
 1032SOL    HW2 3633   0.529   2.730   1.109
 1033SOL     OW 3634   1.358   2.720   1.030
 1033SOL    HW1 3635   1.275   2.712   0.983
 1033SOL    HW2 3636   1.398   2.634   1.024
 1034SOL     OW 3637   1.204   2.390   0.271
 1034SOL    HW1 3638   1.211   2.311   0.325
 1034SOL    HW2 3639   1.161   2.454   0.328
 1035SOL     OW 3640   0.301   2.065   1.248
 1035SOL    HW1 3641   0.267   2.090   1.333
 1035SOL    HW2 3642   0.289   1.971   1.243
 1036SOL     OW 3643   0.069   3.181   1.280
 1036SOL    HW1 3644   0.091   3.121   1.352
 1036SOL    HW2 3645   5.299   3.236   1.316
 1037SOL     OW 3646   0.724   2.493   1.058
 1037SOL    HW1 3647   0.799   2.477   1.000
 1037SOL    HW2 3648   0.696   2.582   1.037
 1038SOL     OW 3649   1.735   2.821   1.853
 1038SOL    HW1 3650   1.688   2.760   1.795
 1038SOL    HW2 3651   1.675   2.835   1.926
 1039SOL     OW 3652   0.325   1.925   0.635
 1039SOL    HW1 3653   0.309   2.015   0.664
 1039SOL    HW2 3654   0.332   1.874   0.716
 1040SOL     OW 3655   1.621   2.237   0.370
 1040SOL    HW1 3656   1.645   2.172   0.436
 1040SOL    HW2 3657   1.595   2.314   0.420
 1041SOL     OW 3658   1.028   2.621   0.960
 1041SOL    HW1 3659   1.024   2.638   1.055
 1041SOL    HW2 3660   1.001   2.529   0.952
 1042SOL     OW 3661   0.982   3.428   1.717
 1042SOL    HW1 3662   0.967   3.472   1.634
 1042SOL    HW2 3663   1.026   3.346   1.693
 1043SOL     OW 3664   1.855   3.368   1.605
 1043SOL    HW1 3665   1.873   3.394   1.515
 1043SOL    HW2 3666   1.936   3.386   1.652
 1044SOL     OW 3667   0.354   2.780   1.806
 1044SOL    HW1 3668   0.435   2.799   1.853
 1044SOL    HW2 3669   0.379   2.715   1.741
 1045SOL     OW 3670   1.519   2.162   0.127
 1045SOL    HW1 3671   1.469   2.082   0.143
 1045SOL    HW2 3672   1.558   2.183   0.211
 1046SOL     OW 3673   1.295   2.686   0.021
 1046SOL    HW1 3674   1.334   2.600   0.038
 1046SOL    HW2 3675   1.355   2.728   8.040
 1047SOL     OW 3676   1.066   3.198   0.854
 1047SOL    HW1 3677   1.069   3.125   0.791
 1047SOL    HW2 3678   1.127   3.262   0.819
 1048SOL     OW 3679   0.314   2.671   0.950
 1048SOL    HW1 3680   0.407   2.690   0.946
 1048SOL    HW2 3681   0.309   2.581   0.982
 1049SOL     OW 3682   0.335   2.387   1.015
 1049SOL    HW1 3683   0.300   2.299   1.001
 1049SOL    HW2 3684   0.410   2.393   0.956
 1050SOL     OW 3685   1.134   2.238   1.682
 1050SOL    HW1 3686   1.086   2.293   1.744
 1050SOL    HW2 3687   1.222   2.276   1.678
 1051SOL     OW 3688   1.161   2.065   1.470
 1051SOL    HW1 3689   1.150   2.127   1.542
 1051SOL    HW2 3690   1.200   2.116   1.399
 1052SOL     OW 3691   0.009   3.190   0.202
 1052SOL    HW1 3692   5.236   3.176   0.142
 1052SOL    HW2 3693   0.014   3.110   0.254
 1053SOL     OW 3694   0.093   3.644   0.949
 1053SOL    HW1 3695   0.059   3.573   0.895
 1053SOL    HW2 3696   0.181   3.660   0.915
 1054SOL     OW 3697   0.505   3.435   0.907
 1054SOL    HW1 3698   0.572   3.500   0.928
 1054SOL    HW2 3699   0.548   3.374   0.848
 1055SOL     OW 3700   0.983   2.653   1.226
 1055SOL    HW1 3701   1.039   2.631   1.301
 1055SOL    HW2 3702   0.897   2.617   1.249
 1056SOL     OW 3703   0.033   2.420   1.115
 1056SOL    HW1 3704   0.120   2.399   1.083
 1056SOL    HW2 3705   0.037   2.405   1.210
 1057SOL     OW 3706   0.174   2.375   1.712
 1057SOL    HW1 3707   0.240   2.338   1.652
 1057SOL    HW2 3708   0.146   2.456   1.670
 1058SOL     OW 3709   1.377   2.801   1.659
 1058SOL    HW1 3710   1.398   2.894   1.657
 1058SOL    HW2 3711   1.374   2.775   1.566
 1059SOL     OW 3712   0.819   2.431   0.367
 1059SOL    HW1 3713   0.828   2.360   0.304
 1059SOL    HW2 3714   0.742   2.480   0.336
 1060SOL     OW 3715   1.641   2.463   1.186
 1060SOL    HW1 3716   1.631   2.404   1.261
 1060SOL    HW2 3717   1.728   2.443   1.151
 1061SOL     OW 3718   0.257   3.418   1.735
 1061SOL    HW1 3719   0.234   3.481   1.803
 1061SOL    HW2 3720   0.249   3.332   1.777
 1062SOL     OW 3721   0.702   2.312   1.260
 1062SOL    HW1 3722   0.649   2.238   1.230
 1062SOL    HW2 3723   0.697   2.375   1.188
 1063SOL     OW 3724   0.929   3.541   1.467
 1063SOL    HW1 3725   0.902   3.506   1.382
 1063SOL    HW2 3726   0.923   3.636   1.458
 1064SOL     OW 3727   0.467   2.352   0.180
 1064SOL    HW1 3728   0.532   2.418   0.200
 1064SOL    HW2 3729   0.383   2.398   0.183
 1065SOL     OW 3730   0.148   2.999   1.471
 1065SOL    HW1 3731   0.146   2.951   1.553
 1065SOL    HW2 3732   0.160   2.932   1.404
 1066SOL     OW 3733   1.326   2.909   1.223
 1066SOL    HW1 3734   1.349   2.846   1.155
 1066SOL    HW2 3735   1.255   2.961   1.184
 1067SOL     OW 3736   1.306   2.710   0.308
 1067SOL    HW1 3737   1.228   2.682   0.356
 1067SOL    HW2 3738   1.283   2.699   0.216
 1068SOL     OW 3739   1.771   3.606   1.150
 1068SOL    HW1 3740   1.832   3.632   1.081
 1068SOL    HW2 3741   1.748   3.516   1.129
 1069SOL     OW 3742   1.241   3.595   1.113
 1069SOL    HW1 3743   1.323   3.616   1.068
 1069SOL    HW2 3744   1.247   3.501   1.131
 1070SOL     OW 3745   0.083   3.079   1.027
 1070SOL    HW1 3746   0.069   3.104   1.119
 1070SOL    HW2 3747   5.294   3.068   0.992
 1071SOL     OW 3748   0.678   3.528   1.729
 1071SOL    HW1 3749   0.622   3.606   1.724
 1071SOL    HW2 3750   0.742   3.540   1.659
 1072SOL     OW 3751   0.905   1.953   0.133
 1072SOL    HW1 3752   0.924   1.938   0.040
 1072SOL    HW2 3753   0.969   1.900   0.179
 1073SOL     OW 3754   1.720   2.007   0.510
 1073SOL    HW1 3755   1.792   1.991   0.449
 1073SOL    HW2 3756   1.704   1.922   0.552
 1074SOL     OW 3757   1.390   3.430   0.486
 1074SOL    HW1 3758   1.453   3.463   0.422
 1074SOL    HW2 3759   1.342   3.508   0.515
 1075SOL     OW 3760   0.145   3.659   1.842
 1075SOL    HW1 3761   0.090   3.597   1.889
 1075SOL    HW2 3762   0.191   3.707   1.911
 1076SOL     OW 3763   1.277   2.787   0.671
 1076SOL    HW1 3764   1.351   2.726   0.677
 1076SOL    HW2 3765   1.311   2.860   0.619
 1077SOL     OW 3766   0.814   3.135   1.430
 1077SOL    HW1 3767   0.786   3.175   1.512
 1077SOL    HW2 3768   0.745   3.156   1.368
 1078SOL     OW 3769   0.678   3.482   0.155
 1078SOL    HW1 3770   0.681   3.490   0.060
 1078SOL    HW2 3771   0.617   3.410   0.171
 1079SOL     OW 3772   1.626   3.588   1.391
 1079SOL    HW1 3773   1.676   3.595   1.310
 1079SOL    HW2 3774   1.612   3.679   1.419
 1080SOL     OW 3775   1.840   2.035   0.966
 1080SOL    HW1 3776   1.869   1.947   0.940
 1080SOL    HW2 3777   1.754   2.045   0.927
 1081SOL     OW 3778   0.270   2.179   0.717
 1081SOL    HW1 3779   0.187   2.222   0.698
 1081SOL    HW2 3780   0.271   2.168   0.812
 1082SOL     OW 3781   1.157   3.443   0.051
 1082SOL    HW1 3782   1.172   3.350   0.071
 1082SOL    HW2 3783   1.168   3.450   8.036
 1083SOL     OW 3784   0.824   2.868   1.372
 1083SOL    HW1 3785   0.867   2.864   1.287
 1083SOL    HW2 3786   0.823   2.961   1.395
 1084SOL     OW 3787   0.918   2.775   0.297
 1084SOL    HW1 3788   0.972   2.800   0.222
 1084SOL    HW2 3789   0.966   2.704   0.339
 1085SOL     OW 3790   1.510   3.486   0.061
 1085SOL    HW1 3791   1.415   3.486   0.049
 1085SOL    HW2 3792   1.545   3.487   8.052
 1086SOL     OW 3793   0.368   3.166   1.493
 1086SOL    HW1 3794   0.359   3.240   1.434
 1086SOL    HW2 3795   0.292   3.111   1.474
 1087SOL     OW 3796   1.610   3.145   1.280
 1087SOL    HW1 3797   1.671   3.135   1.354
 1087SOL    HW2 3798   1.550   3.214   1.308
 1088SOL     OW 3799   1.052   2.969   0.707
 1088SOL    HW1 3800   0.981   2.918   0.746
 1088SOL    HW2 3801   1.114   2.904   0.675
 1089SOL     OW 3802   1.022   2.102   0.966
 1089SOL    HW1 3803   1.017   2.054   0.883
 1089SOL    HW2 3804   1.016   2.034   1.033
 1090SOL     OW 3805   0.602   3.349   0.479
 1090SOL    HW1 3806   0.645   3.300   0.409
 1090SOL    HW2 3807   0.534   3.400   0.435
 1091SOL     OW 3808   1.722   2.254   1.380
 1091SOL    HW1 3809   1.794   2.318   1.378
 1091SOL    HW2 3810   1.752   2.183   1.324
 1092SOL     OW 3811   0.269   3.187   0.300
 1092SOL    HW1 3812   0.184   3.197   0.258
 1092SOL    HW2 3813   0.261   3.234   0.383
 1093SOL     OW 3814   0.116   2.878   1.718
 1093SOL    HW1 3815   0.045   2.843   1.772
 1093SOL    HW2 3816   0.196   2.847   1.760
 1094SOL     OW 3817   0.674   2.058   1.499
 1094SOL    HW1 3818   0.758   2.038   1.458
 1094SOL    HW2 3819   0.697   2.090   1.587
 1095SOL     OW 3820   0.041   2.254   0.028
 1095SOL    HW1 3821   0.019   2.167   0.061
 1095SOL    HW2 3822   0.123   2.241   8.059
 1096SOL     OW 3823   1.430   2.720   1.400
 1096SOL    HW1 3824   1.381   2.781   1.345
 1096SOL    HW2 3825   1.519   2.723   1.366
 1097SOL     OW 3826   0.052   1.997   0.216
 1097SOL    HW1 3827   0.054   2.084   0.256
 1097SOL    HW2 3828   0.144   1.973   0.206
 1098SOL     OW 3829   1.184   3.179   0.122
 1098SOL    HW1 3830   1.089   3.170   0.121
 1098SOL    HW2 3831   1.207   3.182   0.214
 1099SOL     OW 3832   0.619   2.693   1.435
 1099SOL    HW1 3833   0.676   2.769   1.419
 1099SOL    HW2 3834   0.680   2.619   1.443
 1100SOL     OW 3835   1.484   3.638   0.978
 1100SOL    HW1 3836   1.507   3.698   0.908
 1100SOL    HW2 3837   1.567   3.620   1.023
 1101SOL     OW 3838   0.717   2.426   1.704
 1101SOL    HW1 3839   0.758   2.489   1.764
 1101SOL    HW2 3840   0.745   2.340   1.737
 1102SOL     OW 3841   1.472   3.062   1.632
 1102SOL    HW1 3842   1.459   3.076   1.726
 1102SOL    HW2 3843   1.565   3.077   1.617
 1103SOL     OW 3844   0.378   3.604   1.564
 1103SOL    HW1 3845   0.295   3.650   1.548
 1103SOL    HW2 3846   0.352   3.524   1.609
 1104SOL     OW 3847   1.670   2.743   1.255
 1104SOL    HW1 3848   1.662   2.658   1.212
 1104SOL    HW2 3849   1.660   2.807   1.185
 1105SOL     OW 3850   1.217   2.180   0.460
 1105SOL    HW1 3851   1.282   2.110   0.453
 1105SOL    HW2 3852   1.245   2.231   0.536
 1106SOL     OW 3853   0.589   2.599   0.669
 1106SOL    HW1 3854   0.628   2.685   0.655
 1106SOL    HW2 3855   0.519   2.594   0.604
 1107SOL     OW 3856   1.762   2.224   1.650
 1107SOL    HW1 3857   1.745   2.239   1.557
 1107SOL    HW2 3858   1.691   2.167   1.679
 1108SOL     OW 3859   1.745   2.795   1.512
 1108SOL    HW1 3860   1.742   2.890   1.526
 1108SOL    HW2 3861   1.730   2.784   1.418
 1109SOL     OW 3862   0.895   3.234   0.036
 1109SOL    HW1 3863   0.831   3.225   0.107
 1109SOL    HW2 3864   0.878   3.321   0.000
 1110SOL     OW 3865   0.663   3.656   0.944
 1110SOL    HW1 3866   0.642   3.746   0.921
 1110SOL    HW2 3867   0.758   3.651   0.937
 1111SOL     OW 3868   0.867   2.828   0.855
 1111SOL    HW1 3869   0.918   2.757   0.895
 1111SOL    HW2 3870   0.833   2.878   0.929
 1112SOL     OW 3871   1.076   2.838   0.085
 1112SOL    HW1 3872   1.067   2.903   0.016
 1112SOL    HW2 3873   1.154   2.788   0.061
 1113SOL     OW 3874   1.854   3.416   0.844
 1113SOL    HW1 3875   1.775   3.405   0.791
 1113SOL    HW2 3876   1.845   3.351   0.913
 1114SOL     OW 3877   0.225   3.167   1.860
 1114SOL    HW1 3878   0.157   3.104   1.834
 1114SOL    HW2 3879   0.214   3.177   1.954
 1115SOL     OW 3880   0.094   3.095   0.661
 1115SOL    HW1 3881   0.099   3.050   0.745
 1115SOL    HW2 3882   0.170   3.063   0.611
 1116SOL     OW 3883   0.681   3.264   1.629
 1116SOL    HW1 3884   0.601   3.222   1.658
 1116SOL    HW2 3885   0.677   3.353   1.664
 1117SOL     OW 3886   1.814   2.047   1.238
 1117SOL    HW1 3887   1.822   1.952   1.252
 1117SOL    HW2 3888   1.823   2.057   1.143
 1118SOL     OW 3889   0.432   2.301   0.523
 1118SOL    HW1 3890   0.462   2.228   0.469
 1118SOL    HW2 3891   0.387   2.259   0.597
 1119SOL     OW 3892   1.701   3.351   1.096
 1119SOL    HW1 3893   1.619   3.328   1.051
 1119SOL    HW2 3894   1.712   3.282   1.161
 1120SOL     OW 3895   0.336   2.421   1.291
 1120SOL    HW1 3896   0.389   2.362   1.345
 1120SOL    HW2 3897   0.350   2.391   1.202
 1121SOL     OW 3898   0.828   3.439   0.678
 1121SOL    HW1 3899   0.815   3.494   0.600
 1121SOL    HW2 3900   0.751   3.382   0.680
 1122SOL     OW 3901   1.432   2.087   1.118
 1122SOL    HW1 3902   1.455   2.007   1.164
 1122SOL    HW2 3903   1.380   2.137   1.181
 1123SOL     OW 3904   1.009   1.881   1.142
 1123SOL    HW1 3905   0.954   1.813   1.102
 1123SOL    HW2 3906   1.097   1.843   1.144
 1124SOL     OW 3907   0.771   3.188   0.307
 1124SOL    HW1 3908   0.740   3.099   0.323
 1124SOL    HW2 3909   0.852   3.195   0.358
 1125SOL     OW 3910   0.623   3.418   1.287
 1125SOL    HW1 3911   0.624   3.500   1.336
 1125SOL    HW2 3912   0.710   3.412   1.247
 1126SOL     OW 3913   1.356   1.916   0.184
 1126SOL    HW1 3914   1.377   1.869   0.104
 1126SOL    HW2 3915   1.270   1.883   0.210
 1127SOL     OW 3916   1.297   2.323   0.681
 1127SOL    HW1 3917   1.244   2.402   0.688
 1127SOL    HW2 3918   1.292   2.284   0.768
 1128SOL     OW 3919   1.587   2.064   0.878
 1128SOL    HW1 3920   1.526   2.084   0.949
 1128SOL    HW2 3921   1.586   2.143   0.823
 1129SOL     OW 3922   0.046   2.939   0.319
 1129SOL    HW1 3923   0.135   2.915   0.292
 1129SOL    HW2 3924   5.298   2.856   0.319
 1130SOL     OW 3925   0.883   3.515   0.347
 1130SOL    HW1 3926   0.815   3.499   0.282
 1130SOL    HW2 3927   0.852   3.591   0.396
 1131SOL     OW 3928   0.233   2.494   1.978
 1131SOL    HW1 3929   0.160   2.460   2.030
 1131SOL    HW2 3930   0.218   2.459   1.890
 1132SOL     OW 3931   0.242   2.137   2.851
 1132SOL    HW1 3932   0.256   2.103   2.940
 1132SOL    HW2 3933   0.158   2.101   2.824
 1133SOL     OW 3934   5.298   2.260   2.515
 1133SOL    HW1 3935   5.205   2.282   2.521
 1133SOL    HW2 3936   5.299   2.170   2.484
 1134SOL     OW 3937   0.574   3.146   3.044
 1134SOL    HW1 3938   0.491   3.154   2.996
 1134SOL    HW2 3939   0.590   3.234   3.079
 1135SOL     OW 3940   1.561   3.373   2.569
 1135SOL    HW1 3941   1.518   3.354   2.652
 1135SOL    HW2 3942   1.490   3.378   2.505
 1136SOL     OW 3943   1.130   2.560   2.563
 1136SOL    HW1 3944   1.179   2.641   2.549
 1136SOL    HW2 3945   1.084   2.574   2.645
 1137SOL     OW 3946   1.769   2.467   2.091
 1137SOL    HW1 3947   1.747   2.460   1.997
 1137SOL    HW2 3948   1.731   2.388   2.130
 1138SOL     OW 3949   0.755   3.003   2.901
 1138SOL    HW1 3950   0.688   3.037   2.960
 1138SOL    HW2 3951   0.791   3.081   2.858
 1139SOL     OW 3952   0.866   2.637   3.684
 1139SOL    HW1 3953   0.857   2.709   3.746
 1139SOL    HW2 3954   0.890   2.680   3.602
 1140SOL     OW 3955   0.685   2.864   2.509
 1140SOL    HW1 3956   0.751   2.852   2.578
 1140SOL    HW2 3957   0.617   2.918   2.551
 1141SOL     OW 3958   0.709   3.012   3.675
 1141SOL    HW1 3959   0.758   3.091   3.701
 1141SOL    HW2 3960   0.628   3.046   3.639
 1142SOL     OW 3961   0.358   3.267   2.922
 1142SOL    HW1 3962   0.270   3.267   2.885
 1142SOL    HW2 3963   0.407   3.329   2.868
 1143SOL     OW 3964   1.461   3.362   3.217
 1143SOL    HW1 3965   1.512   3.443   3.226
 1143SOL    HW2 3966   1.398   3.365   3.289
 1144SOL     OW 3967   0.451   2.262   3.354
 1144SOL    HW1 3968   0.525   2.202   3.356
 1144SOL    HW2 3969   0.373   2.206   3.364
 1145SOL     OW 3970   1.612   2.311   2.602
 1145SOL    HW1 3971   1.537   2.331   2.547
 1145SOL    HW2 3972   1.624   2.389   2.656
 1146SOL     OW 3973   0.231   3.576   2.340
 1146SOL    HW1 3974   0.264   3.645   2.397
 1146SOL    HW2 3975   0.294   3.573   2.267
 1147SOL     OW 3976   1.136   3.204   3.554
 1147SOL    HW1 3977   1.177   3.199   3.641
 1147SOL    HW2 3978   1.084   3.124   3.548
 1148SOL     OW 3979   0.222   3.306   2.401
 1148SOL    HW1 3980   0.216   3.402   2.397
 1148SOL    HW2 3981   0.152   3.280   2.461
 1149SOL     OW 3982   0.250   2.939   2.737
 1149SOL    HW1 3983   0.261   2.854   2.779
 1149SOL    HW2 3984   0.198   2.991   2.799
 1150SOL     OW 3985   0.614   3.652   3.295
 1150SOL    HW1 3986   0.530   3.635   3.337
 1150SOL    HW2 3987   0.634   3.743   3.317
 1151SOL     OW 3988   0.583   2.845   1.997
 1151SOL    HW1 3989   0.629   2.893   1.928
 1151SOL    HW2 3990   0.624   2.875   2.078
 1152SOL     OW 3991   1.595   1.984   3.331
 1152SOL    HW1 3992   1.594   2.067   3.283
 1152SOL    HW2 3993   1.577   2.009   3.422
 1153SOL     OW 3994   0.126   2.496   2.441
 1153SOL    HW1 3995   0.089   2.413   2.470
 1153SOL    HW2 3996   0.099   2.559   2.508
 1154SOL     OW 3997   1.842   3.621   2.197
 1154SOL    HW1 3998   1.906   3.592   2.262
 1154SOL    HW2 3999   1.866   3.711   2.178
 1155SOL     OW 4000   0.038   3.461   1.994
 1155SOL    HW1 4001   0.025   3.369   2.019
 1155SOL    HW2 4002   5.283   3.511   2.054
 1156SOL     OW 4003   1.688   2.780   2.502
 1156SOL    HW1 4004   1.773   2.740   2.483
 1156SOL    HW2 4005   1.666   2.831   2.424
 1157SOL     OW 4006   1.646   2.968   2.291
 1157SOL    HW1 4007   1.732   2.975   2.249
 1157SOL    HW2 4008   1.651   3.030   2.364
 1158SOL     OW 4009   0.131   2.610   3.447
 1158SOL    HW1 4010   0.226   2.624   3.449
 1158SOL    HW2 4011   0.094   2.697   3.463
 1159SOL     OW 4012   0.615   3.247   2.597
 1159SOL    HW1 4013   0.568   3.165   2.607
 1159SOL    HW2 4014   0.598   3.274   2.506
 1160SOL     OW 4015   1.287   3.100   3.284
 1160SOL    HW1 4016   1.321   3.033   3.224
 1160SOL    HW2 4017   1.342   3.093   3.362
 1161SOL     OW 4018   0.823   1.861   2.372
 1161SOL    HW1 4019   0.863   1.946   2.352
 1161SOL    HW2 4020   0.729   1.880   2.378
 1162SOL     OW 4021   0.177   2.808   3.140
 1162SOL    HW1 4022   0.268   2.778   3.131
 1162SOL    HW2 4023   0.135   2.783   3.058
 1163SOL     OW 4024   1.532   2.855   2.061
 1163SOL    HW1 4025   1.462   2.798   2.093
 1163SOL    HW2 4026   1.572   2.890   2.140
 1164SOL     OW 4027   1.185   3.668   3.484
 1164SOL    HW1 4028   1.196   3.727   3.410
 1164SOL    HW2 4029   1.202   3.581   3.448
 1165SOL     OW 4030   0.336   2.115   3.679
 1165SOL    HW1 4031   0.384   2.197   3.692
 1165SOL    HW2 4032   0.249   2.132   3.714
 1166SOL     OW 4033   1.467   3.281   2.814
 1166SOL    HW1 4034   1.398   3.297   2.879
 1166SOL    HW2 4035   1.454   3.190   2.787
 1167SOL     OW 4036   1.658   3.602   2.440
 1167SOL    HW1 4037   1.639   3.572   2.351
 1167SOL    HW2 4038   1.634   3.528   2.496
 1168SOL     OW 4039   0.595   2.583   2.128
 1168SOL    HW1 4040   0.603   2.664   2.077
 1168SOL    HW2 4041   0.531   2.603   2.196
 1169SOL     OW 4042   1.280   2.214   2.794
 1169SOL    HW1 4043   1.190   2.182   2.803
 1169SOL    HW2 4044   1.330   2.161   2.856
 1170SOL     OW 4045   1.581   3.532   2.171
 1170SOL    HW1 4046   1.671   3.563   2.164
 1170SOL    HW2 4047   1.554   3.515   2.081
 1171SOL     OW 4048   0.792   2.479   3.313
 1171SOL    HW1 4049   0.765   2.456   3.402
 1171SOL    HW2 4050   0.752   2.413   3.258
 1172SOL     OW 4051   1.393   2.336   3.540
 1172SOL    HW1 4052   1.395   2.381   3.624
 1172SOL    HW2 4053   1.456   2.264   3.549
 1173SOL     OW 4054   0.955   2.749   3.444
 1173SOL    HW1 4055   1.009   2.679   3.409
 1173SOL    HW2 4056   0.907   2.783   3.369
 1174SOL     OW 4057   0.992   2.274   3.101
 1174SOL    HW1 4058   0.907   2.296   3.138
 1174SOL    HW2 4059   0.972   2.228   3.019
 1175SOL     OW 4060   1.051   2.560   2.288
 1175SOL    HW1 4061   1.067   2.554   2.382
 1175SOL    HW2 4062   0.968   2.514   2.274
 1176SOL     OW 4063   0.072   2.649   2.673
 1176SOL    HW1 4064   0.153   2.654   2.723
 1176SOL    HW2 4065   0.063   2.735   2.632
 1177SOL     OW 4066   0.130   3.746   3.447
 1177SOL    HW1 4067   0.133   3.716   3.538
 1177SOL    HW2 4068   0.059   3.695   3.407
 1178SOL     OW 4069   0.893   2.211   2.056
 1178SOL    HW1 4070   0.933   2.273   1.995
 1178SOL    HW2 4071   0.908   2.125   2.017
 1179SOL     OW 4072   1.682   2.429   3.702
 1179SOL    HW1 4073   1.651   2.501   3.646
 1179SOL    HW2 4074   1.721   2.366   3.641
 1180SOL     OW 4075   1.377   3.004   2.403
 1180SOL    HW1 4076   1.456   2.992   2.350
 1180SOL    HW2 4077   1.324   3.066   2.353
 1181SOL     OW 4078   0.556   2.045   2.755
 1181SOL    HW1 4079   0.553   2.073   2.847
 1181SOL    HW2 4080   0.551   2.127   2.705
 1182SOL     OW 4081   1.005   3.305   2.334
 1182SOL    HW1 4082   0.968   3.379   2.284
 1182SOL    HW2 4083   0.988   3.327   2.426
 1183SOL     OW 4084   0.357   3.665   2.731
 1183SOL    HW1 4085   0.397   3.579   2.744
 1183SOL    HW2 4086   0.423   3.727   2.761
 1184SOL     OW 4087   1.798   2.921   2.730
 1184SOL    HW1 4088   1.742   2.904   2.654
 1184SOL    HW2 4089   1.737   2.925   2.803
 1185SOL     OW 4090   1.228   3.400   3.375
 1185SOL    HW1 4091   1.214   3.328   3.435
 1185SOL    HW2 4092   1.164   3.387   3.305
 1186SOL     OW 4093   0.316   2.814   2.110
 1186SOL    HW1 4094   0.398   2.838   2.065
 1186SOL    HW2 4095   0.293   2.728   2.073
 1187SOL     OW 4096   1.479   2.603   2.588
 1187SOL    HW1 4097   1.470   2.562   2.674
 1187SOL    HW2 4098   1.555   2.660   2.597
 1188SOL     OW 4099   0.465   3.126   3.600
 1188SOL    HW1 4100   0.438   3.132   3.508
 1188SOL    HW2 4101   0.383   3.127   3.649
 1189SOL     OW 4102   1.122   3.640   2.093
 1189SOL    HW1 4103   1.049   3.598   2.138
 1189SOL    HW2 4104   1.145   3.578   2.023
 1190SOL     OW 4105   0.205   2.142   3.359
 1190SOL    HW1 4106   0.126   2.194   3.343
 1190SOL    HW2 4107   0.174   2.063   3.403
 1191SOL     OW 4108   1.629   3.242   1.950
 1191SOL    HW1 4109   1.588   3.327   1.935
 1191SOL    HW2 4110   1.559   3.178   1.930
 1192SOL     OW 4111   0.471   3.597   2.182
 1192SOL    HW1 4112   0.514   3.655   2.245
 1192SOL    HW2 4113   0.542   3.566   2.126
 1193SOL     OW 4114   1.401   1.970   2.295
 1193SOL    HW1 4115   1.390   1.945   2.203
 1193SOL    HW2 4116   1.496   1.975   2.307
 1194SOL     OW 4117   0.276   3.663   3.075
 1194SOL    HW1 4118   0.306   3.585   3.123
 1194SOL    HW2 4119   0.225   3.628   3.002
 1195SOL     OW 4120   0.939   3.561   2.761
 1195SOL    HW1 4121   1.016   3.509   2.782
 1195SOL    HW2 4122   0.894   3.511   2.692
 1196SOL     OW 4123   0.386   2.558   2.341
 1196SOL    HW1 4124   0.415   2.467   2.350
 1196SOL    HW2 4125   0.293   2.555   2.361
 1197SOL     OW 4126   1.526   2.078   3.590
 1197SOL    HW1 4127   1.538   2.102   3.681
 1197SOL    HW2 4128   1.455   2.013   3.591
 1198SOL     OW 4129   0.634   1.984   1.967
 1198SOL    HW1 4130   0.704   1.920   1.979
 1198SOL    HW2 4131   0.585   1.953   1.891
 1199SOL     OW 4132   0.767   2.140   3.616
 1199SOL    HW1 4133   0.842   2.081   3.617
 1199SOL    HW2 4134   0.718   2.119   3.696
 1200SOL     OW 4135   0.877   3.384   3.055
 1200SOL    HW1 4136   0.861   3.347   2.968
 1200SOL    HW2 4137   0.947   3.329   3.092
 1201SOL     OW 4138   1.340   2.449   3.293
 1201SOL    HW1 4139   1.371   2.419   3.379
 1201SOL    HW2 4140   1.373   2.538   3.285
 1202SOL     OW 4141   0.816   3.256   2.802
 1202SOL    HW1 4142   0.900   3.245   2.758
 1202SOL    HW2 4143   0.751   3.258   2.731
 1203SOL     OW 4144   0.928   2.371   2.765
 1203SOL    HW1 4145   0.904   2.363   2.673
 1203SOL    HW2 4146   0.959   2.284   2.790
 1204SOL     OW 4147   0.560   1.923   2.358
 1204SOL    HW1 4148   0.485   1.923   2.418
 1204SOL    HW2 4149   0.550   2.003   2.306
 1205SOL     OW 4150   1.428   3.060   1.903
 1205SOL    HW1 4151   1.458   2.985   1.953
 1205SOL    HW2 4152   1.343   3.082   1.940
 1206SOL     OW 4153   0.305   1.909   2.041
 1206SOL    HW1 4154   0.367   1.973   2.006
 1206SOL    HW2 4155   0.360   1.844   2.086
 1207SOL     OW 4156   0.939   2.109   2.322
 1207SOL    HW1 4157   0.912   2.150   2.240
 1207SOL    HW2 4158   1.034   2.124   2.326
 1208SOL     OW 4159   1.080   2.542   3.322
 1208SOL    HW1 4160   1.011   2.476   3.326
 1208SOL    HW2 4161   1.161   2.492   3.315
 1209SOL     OW 4162   1.224   3.431   2.655
 1209SOL    HW1 4163   1.239   3.499   2.589
 1209SOL    HW2 4164   1.291   3.447   2.721
 1210SOL     OW 4165   0.467   3.012   2.593
 1210SOL    HW1 4166   0.398   2.992   2.657
 1210SOL    HW2 4167   0.428   2.994   2.508
 1211SOL     OW 4168   1.269   3.656   2.470
 1211SOL    HW1 4169   1.315   3.717   2.413
 1211SOL    HW2 4170   1.202   3.709   2.514
 1212SOL     OW 4171   1.023   2.404   1.885
 1212SOL    HW1 4172   0.981   2.487   1.865
 1212SOL    HW2 4173   1.089   2.426   1.951
 1213SOL     OW 4174   0.088   2.407   3.260
 1213SOL    HW1 4175   0.175   2.414   3.223
 1213SOL    HW2 4176   0.080   2.483   3.318
 1214SOL     OW 4177   0.560   2.090   3.028
 1214SOL    HW1 4178   0.598   2.010   3.066
 1214SOL    HW2 4179   0.469   2.088   3.056
 1215SOL     OW 4180   0.868   2.321   2.502
 1215SOL    HW1 4181   0.822   2.375   2.438
 1215SOL    HW2 4182   0.889   2.240   2.454
 1216SOL     OW 4183   1.016   1.915   2.613
 1216SOL    HW1 4184   0.957   1.907   2.538
 1216SOL    HW2 4185   0.994   1.840   2.668
 1217SOL     OW 4186   1.437   3.024   2.719
 1217SOL    HW1 4187   1.368   2.959   2.718
 1217SOL    HW2 4188   1.461   3.036   2.627
 1218SOL     OW 4189   1.466   2.467   2.838
 1218SOL    HW1 4190   1.414   2.386   2.842
 1218SOL    HW2 4191   1.526   2.460   2.912
 1219SOL     OW 4192   1.846   2.678   2.245
 1219SOL    HW1 4193   1.903   2.627   2.303
 1219SOL    HW2 4194   1.818   2.615   2.178
 1220SOL     OW 4195   0.492   3.279   2.020
 1220SOL    HW1 4196   0.416   3.252   2.072
 1220SOL    HW2 4197   0.475   3.244   1.933
 1221SOL     OW 4198   1.670   3.126   2.508
 1221SOL    HW1 4199   1.765   3.129   2.522
 1221SOL    HW2 4200   1.640   3.214   2.529
 1222SOL     OW 4201   1.394   2.434   1.933
 1222SOL    HW1 4202   1.333   2.415   2.004
 1222SOL    HW2 4203   1.478   2.402   1.965
 1223SOL     OW 4204   0.524   2.125   2.179
 1223SOL    HW1 4205   0.569   2.078   2.109
 1223SOL    HW2 4206   0.502   2.210   2.140
 1224SOL     OW 4207   1.058   3.215   3.194
 1224SOL    HW1 4208   0.983   3.184   3.246
 1224SOL    HW2 4209   1.134   3.174   3.235
 1225SOL     OW 4210   1.604   3.486   3.515
 1225SOL    HW1 4211   1.598   3.522   3.426
 1225SOL    HW2 4212   1.687   3.438   3.516
 1226SOL     OW 4213   1.128   3.065   2.967
 1226SOL    HW1 4214   1.070   3.104   3.032
 1226SOL    HW2 4215   1.096   3.098   2.883
 1227SOL     OW 4216   1.627   2.959   2.938
 1227SOL    HW1 4217   1.620   3.019   3.012
 1227SOL    HW2 4218   1.548   2.976   2.886
 1228SOL     OW 4219   0.919   1.958   3.259
 1228SOL    HW1 4220   0.941   1.940   3.168
 1228SOL    HW2 4221   0.998   1.998   3.295
 1229SOL     OW 4222   0.984   2.977   3.585
 1229SOL    HW1 4223   0.892   2.993   3.605
 1229SOL    HW2 4224   0.983   2.899   3.529
 1230SOL     OW 4225   0.708   2.922   2.234
 1230SOL    HW1 4226   0.696   2.906   2.328
 1230SOL    HW2 4227   0.784   2.869   2.210
 1231SOL     OW 4228   0.420   2.681   3.114
 1231SOL    HW1 4229   0.489   2.688   3.180
 1231SOL    HW2 4230   0.386   2.592   3.125
 1232SOL     OW 4231   1.265   2.239   3.136
 1232SOL    HW1 4232   1.298   2.316   3.183
 1232SOL    HW2 4233   1.175   2.261   3.114
 1233SOL     OW 4234   0.102   3.485   3.229
 1233SOL    HW1 4235   0.080   3.494   3.136
 1233SOL    HW2 4236   0.188   3.443   3.229
 1234SOL     OW 4237   0.343   2.968   2.349
 1234SOL    HW1 4238   0.352   3.047   2.296
 1234SOL    HW2 4239   0.352   2.896   2.287
 1235SOL     OW 4240   0.554   2.398   2.721
 1235SOL    HW1 4241   0.570   2.456   2.647
 1235SOL    HW2 4242   0.619   2.425   2.787
 1236SOL     OW 4243   1.248   3.210   2.251
 1236SOL    HW1 4244   1.304   3.282   2.282
 1236SOL    HW2 4245   1.161   3.232   2.285
 1237SOL     OW 4246   1.281   3.319   3.009
 1237SOL    HW1 4247   1.337   3.322   3.087
 1237SOL    HW2 4248   1.226   3.243   3.022
 1238SOL     OW 4249   1.582   2.485   2.341
 1238SOL    HW1 4250   1.535   2.537   2.405
 1238SOL    HW2 4251   1.626   2.550   2.285
 1239SOL     OW 4252   0.352   3.381   3.172
 1239SOL    HW1 4253   0.341   3.338   3.088
 1239SOL    HW2 4254   0.445   3.399   3.179
 1240SOL     OW 4255   0.414   2.604   3.464
 1240SOL    HW1 4256   0.475   2.651   3.406
 1240SOL    HW2 4257   0.454   2.518   3.477
 1241SOL     OW 4258   1.593   2.635   3.541
 1241SOL    HW1 4259   1.504   2.669   3.543
 1241SOL    HW2 4260   1.637   2.686   3.473
 1242SOL     OW 4261   0.996   1.985   3.617
 1242SOL    HW1 4262   1.052   2.058   3.590
 1242SOL    HW2 4263   1.044   1.907   3.591
 1243SOL     OW 4264   0.497   1.903   3.610
 1243SOL    HW1 4265   0.455   1.849   3.543
 1243SOL    HW2 4266   0.438   1.977   3.622
 1244SOL     OW 4267   0.585   2.736   2.894
 1244SOL    HW1 4268   0.616   2.826   2.894
 1244SOL    HW2 4269   0.529   2.730   2.971
 1245SOL     OW 4270   1.358   2.721   2.890
 1245SOL    HW1 4271   1.274   2.711   2.845
 1245SOL    HW2 4272   1.397   2.634   2.886
 1246SOL     OW 4273   1.205   2.391   2.129
 1246SOL    HW1 4274   1.212   2.312   2.183
 1246SOL    HW2 4275   1.162   2.455   2.185
 1247SOL     OW 4276   0.301   2.065   3.110
 1247SOL    HW1 4277   0.267   2.090   3.196
 1247SOL    HW2 4278   0.289   1.970   3.105
 1248SOL     OW 4279   0.069   3.180   3.142
 1248SOL    HW1 4280   0.091   3.121   3.214
 1248SOL    HW2 4281   5.299   3.236   3.178
 1249SOL     OW 4282   0.724   2.493   2.920
 1249SOL    HW1 4283   0.799   2.477   2.862
 1249SOL    HW2 4284   0.696   2.582   2.899
 1250SOL     OW 4285   1.711   2.805   3.729
 1250SOL    HW1 4286   1.663   2.749   3.669
 1250SOL    HW2 4287   1.647   2.826   3.798
 1251SOL     OW 4288   0.327   1.924   2.496
 1251SOL    HW1 4289   0.307   2.013   2.524
 1251SOL    HW2 4290   0.332   1.874   2.578
 1252SOL     OW 4291   1.616   2.236   2.229
 1252SOL    HW1 4292   1.643   2.173   2.295
 1252SOL    HW2 4293   1.594   2.315   2.279
 1253SOL     OW 4294   1.028   2.621   2.823
 1253SOL    HW1 4295   1.024   2.639   2.917
 1253SOL    HW2 4296   1.001   2.529   2.814
 1254SOL     OW 4297   0.981   3.428   3.579
 1254SOL    HW1 4298   0.967   3.472   3.496
 1254SOL    HW2 4299   1.025   3.346   3.555
 1255SOL     OW 4300   1.849   3.378   3.460
 1255SOL    HW1 4301   1.875   3.400   3.371
 1255SOL    HW2 4302   1.928   3.391   3.512
 1256SOL     OW 4303   0.354   2.780   3.668
 1256SOL    HW1 4304   0.435   2.799   3.715
 1256SOL    HW2 4305   0.379   2.715   3.603
 1257SOL     OW 4306   1.530   2.135   1.989
 1257SOL    HW1 4307   1.464   2.070   2.016
 1257SOL    HW2 4308   1.562   2.171   2.072
 1258SOL     OW 4309   1.291   2.688   1.893
 1258SOL    HW1 4310   1.335   2.603   1.896
 1258SOL    HW2 4311   1.323   2.728   1.812
 1259SOL     OW 4312   1.066   3.198   2.716
 1259SOL    HW1 4313   1.069   3.125   2.653
 1259SOL    HW2 4314   1.127   3.262   2.681
 1260SOL     OW 4315   0.314   2.672   2.812
 1260SOL    HW1 4316   0.408   2.690   2.808
 1260SOL    HW2 4317   0.308   2.582   2.844
 1261SOL     OW 4318   0.335   2.388   2.877
 1261SOL    HW1 4319   0.300   2.300   2.863
 1261SOL    HW2 4320   0.410   2.393   2.817
 1262SOL     OW 4321   1.134   2.237   3.544
 1262SOL    HW1 4322   1.087   2.293   3.607
 1262SOL    HW2 4323   1.222   2.275   3.541
 1263SOL     OW 4324   1.161   2.065   3.332
 1263SOL    HW1 4325   1.151   2.127   3.404
 1263SOL    HW2 4326   1.200   2.116   3.261
 1264SOL     OW 4327   0.002   3.192   2.072
 1264SOL    HW1 4328   5.228   3.181   2.012
 1264SOL    HW2 4329   0.012   3.106   2.114
 1265SOL     OW 4330   0.093   3.643   2.813
 1265SOL    HW1 4331   0.059   3.573   2.757
 1265SOL    HW2 4332   0.180   3.662   2.778
 1266SOL     OW 4333   0.505   3.435   2.769
 1266SOL    HW1 4334   0.572   3.501   2.790
 1266SOL    HW2 4335   0.548   3.374   2.710
 1267SOL     OW 4336   0.983   2.653   3.088
 1267SOL    HW1 4337   1.039   2.631   3.163
 1267SOL    HW2 4338   0.897   2.617   3.111
 1268SOL     OW 4339   0.033   2.424   2.978
 1268SOL    HW1 4340   0.119   2.398   2.944
 1268SOL    HW2 4341   0.037   2.405   3.071
 1269SOL     OW 4342   0.174   2.375   3.574
 1269SOL    HW1 4343   0.240   2.339   3.514
 1269SOL    HW2 4344   0.146   2.456   3.531
 1270SOL     OW 4345   1.373   2.799   3.520
 1270SOL    HW1 4346   1.396   2.892   3.518
 1270SOL    HW2 4347   1.373   2.773   3.428
 1271SOL     OW 4348   0.816   2.431   2.222
 1271SOL    HW1 4349   0.820   2.356   2.162
 1271SOL    HW2 4350   0.742   2.483   2.190
 1272SOL     OW 4351   1.644   2.459   3.044
 1272SOL    HW1 4352   1.628   2.397   3.115
 1272SOL    HW2 4353   1.735   2.444   3.019
 1273SOL     OW 4354   0.256   3.418   3.597
 1273SOL    HW1 4355   0.234   3.481   3.665
 1273SOL    HW2 4356   0.250   3.332   3.639
 1274SOL     OW 4357   0.702   2.312   3.122
 1274SOL    HW1 4358   0.649   2.238   3.092
 1274SOL    HW2 4359   0.697   2.375   3.050
 1275SOL     OW 4360   0.929   3.541   3.329
 1275SOL    HW1 4361   0.902   3.506   3.244
 1275SOL    HW2 4362   0.924   3.636   3.320
 1276SOL     OW 4363   0.465   2.355   2.047
 1276SOL    HW1 4364   0.525   2.427   2.069
 1276SOL    HW2 4365   0.380   2.398   2.035
 1277SOL     OW 4366   0.148   2.999   3.333
 1277SOL    HW1 4367   0.146   2.951   3.415
 1277SOL    HW2 4368   0.160   2.932   3.266
 1278SOL     OW 4369   1.325   2.909   3.084
 1278SOL    HW1 4370   1.350   2.846   3.016
 1278SOL    HW2 4371   1.255   2.961   3.045
 1279SOL     OW 4372   1.312   2.718   2.168
 1279SOL    HW1 4373   1.236   2.689   2.218
 1279SOL    HW2 4374   1.287   2.705   2.077
 1280SOL     OW 4375   1.772   3.606   3.012
 1280SOL    HW1 4376   1.832   3.633   2.943
 1280SOL    HW2 4377   1.747   3.517   2.990
 1281SOL     OW 4378   1.241   3.595   2.975
 1281SOL    HW1 4379   1.323   3.616   2.930
 1281SOL    HW2 4380   1.247   3.501   2.993
 1282SOL     OW 4381   0.083   3.079   2.889
 1282SOL    HW1 4382   0.070   3.104   2.981
 1282SOL    HW2 4383   5.294   3.068   2.855
 1283SOL     OW 4384   0.678   3.528   3.591
 1283SOL    HW1 4385   0.622   3.606   3.586
 1283SOL    HW2 4386   0.742   3.539   3.521
 1284SOL     OW 4387   1.721   2.009   2.372
 1284SOL    HW1 4388   1.792   1.993   2.311
 1284SOL    HW2 4389   1.704   1.923   2.412
 1285SOL     OW 4390   1.390   3.430   2.347
 1285SOL    HW1 4391   1.451   3.462   2.280
 1285SOL    HW2 4392   1.342   3.507   2.375
 1286SOL     OW 4393   0.145   3.660   3.704
 1286SOL    HW1 4394   0.090   3.597   3.751
 1286SOL    HW2 4395   0.191   3.707   3.773
 1287SOL     OW 4396   1.277   2.787   2.532
 1287SOL    HW1 4397   1.351   2.727   2.539
 1287SOL    HW2 4398   1.311   2.860   2.480
 1288SOL     OW 4399   0.814   3.135   3.292
 1288SOL    HW1 4400   0.786   3.175   3.374
 1288SOL    HW2 4401   0.745   3.156   3.230
 1289SOL     OW 4402   0.672   3.481   2.017
 1289SOL    HW1 4403   0.682   3.494   1.923
 1289SOL    HW2 4404   0.617   3.403   2.025
 1290SOL     OW 4405   1.624   3.589   3.252
 1290SOL    HW1 4406   1.675   3.597   3.171
 1290SOL    HW2 4407   1.611   3.680   3.280
 1291SOL     OW 4408   1.844   2.037   2.823
 1291SOL    HW1 4409   1.870   1.948   2.799
 1291SOL    HW2 4410   1.756   2.047   2.786
 1292SOL     OW 4411   0.273   2.179   2.579
 1292SOL    HW1 4412   0.188   2.218   2.559
 1292SOL    HW2 4413   0.271   2.168   2.674
 1293SOL     OW 4414   1.207   3.468   1.894
 1293SOL    HW1 4415   1.197   3.376   1.920
 1293SOL    HW2 4416   1.142   3.480   1.824
 1294SOL     OW 4417   0.824   2.868   3.234
 1294SOL    HW1 4418   0.868   2.864   3.149
 1294SOL    HW2 4419   0.823   2.961   3.257
 1295SOL     OW 4420   0.915   2.772   2.152
 1295SOL    HW1 4421   0.976   2.804   2.085
 1295SOL    HW2 4422   0.963   2.703   2.197
 1296SOL     OW 4423   1.492   3.487   1.904
 1296SOL    HW1 4424   1.397   3.481   1.891
 1296SOL    HW2 4425   1.529   3.493   1.816
 1297SOL     OW 4426   0.368   3.166   3.355
 1297SOL    HW1 4427   0.359   3.240   3.296
 1297SOL    HW2 4428   0.292   3.111   3.336
 1298SOL     OW 4429   1.606   3.144   3.138
 1298SOL    HW1 4430   1.684   3.150   3.192
 1298SOL    HW2 4431   1.549   3.213   3.170
 1299SOL     OW 4432   1.052   2.969   2.568
 1299SOL    HW1 4433   0.981   2.918   2.608
 1299SOL    HW2 4434   1.115   2.903   2.537
 1300SOL     OW 4435   1.022   2.102   2.828
 1300SOL    HW1 4436   1.017   2.055   2.745
 1300SOL    HW2 4437   1.016   2.035   2.895
 1301SOL     OW 4438   0.601   3.349   2.343
 1301SOL    HW1 4439   0.646   3.301   2.274
 1301SOL    HW2 4440   0.535   3.400   2.297
 1302SOL     OW 4441   1.712   2.244   3.230
 1302SOL    HW1 4442   1.788   2.303   3.230
 1302SOL    HW2 4443   1.740   2.168   3.179
 1303SOL     OW 4444   0.260   3.210   2.155
 1303SOL    HW1 4445   0.167   3.212   2.132
 1303SOL    HW2 4446   0.264   3.247   2.243
 1304SOL     OW 4447   0.116   2.878   3.579
 1304SOL    HW1 4448   0.045   2.843   3.634
 1304SOL    HW2 4449   0.196   2.847   3.622
 1305SOL     OW 4450   0.674   2.058   3.361
 1305SOL    HW1 4451   0.758   2.038   3.320
 1305SOL    HW2 4452   0.697   2.089   3.449
 1306SOL     OW 4453   0.082   2.212   1.903
 1306SOL    HW1 4454   0.003   2.163   1.880
 1306SOL    HW2 4455   0.098   2.269   1.828
 1307SOL     OW 4456   1.420   2.716   3.261
 1307SOL    HW1 4457   1.374   2.780   3.205
 1307SOL    HW2 4458   1.511   2.722   3.234
 1308SOL     OW 4459   0.056   1.995   2.105
 1308SOL    HW1 4460   0.055   2.090   2.097
 1308SOL    HW2 4461   0.145   1.970   2.083
 1309SOL     OW 4462   1.179   3.201   1.979
 1309SOL    HW1 4463   1.088   3.172   1.982
 1309SOL    HW2 4464   1.207   3.202   2.071
 1310SOL     OW 4465   0.619   2.693   3.297
 1310SOL    HW1 4466   0.676   2.769   3.281
 1310SOL    HW2 4467   0.680   2.619   3.305
 1311SOL     OW 4468   1.484   3.638   2.840
 1311SOL    HW1 4469   1.507   3.698   2.770
 1311SOL    HW2 4470   1.566   3.620   2.885
 1312SOL     OW 4471   0.717   2.426   3.567
 1312SOL    HW1 4472   0.758   2.489   3.626
 1312SOL    HW2 4473   0.745   2.341   3.598
 1313SOL     OW 4474   1.460   3.064   3.498
 1313SOL    HW1 4475   1.445   3.074   3.592
 1313SOL    HW2 4476   1.553   3.086   3.486
 1314SOL     OW 4477   0.378   3.604   3.426
 1314SOL    HW1 4478   0.295   3.650   3.410
 1314SOL    HW2 4479   0.352   3.524   3.471
 1315SOL     OW 4480   1.665   2.736   3.108
 1315SOL    HW1 4481   1.658   2.652   3.063
 1315SOL    HW2 4482   1.658   2.802   3.039
 1316SOL     OW 4483   1.217   2.181   2.320
 1316SOL    HW1 4484   1.280   2.110   2.311
 1316SOL    HW2 4485   1.246   2.230   2.397
 1317SOL     OW 4486   0.590   2.599   2.531
 1317SOL    HW1 4487   0.629   2.685   2.516
 1317SOL    HW2 4488   0.521   2.592   2.465
 1318SOL     OW 4489   1.732   2.231   3.506
 1318SOL    HW1 4490   1.716   2.227   3.412
 1318SOL    HW2 4491   1.673   2.166   3.544
 1319SOL     OW 4492   1.693   2.806   3.361
 1319SOL    HW1 4493   1.765   2.869   3.362
 1319SOL    HW2 4494   1.687   2.778   3.270
 1320SOL     OW 4495   0.863   3.229   1.896
 1320SOL    HW1 4496   0.824   3.258   1.979
 1320SOL    HW2 4497   0.881   3.310   1.849
 1321SOL     OW 4498   0.663   3.655   2.805
 1321SOL    HW1 4499   0.642   3.746   2.783
 1321SOL    HW2 4500   0.758   3.651   2.799
 1322SOL     OW 4501   0.867   2.828   2.716
 1322SOL    HW1 4502   0.918   2.757   2.756
 1322SOL    HW2 4503   0.833   2.878   2.790
 1323SOL     OW 4504   1.078   2.849   1.951
 1323SOL    HW1 4505   1.057   2.901   1.873
 1323SOL    HW2 4506   1.153   2.796   1.924
 1324SOL     OW 4507   1.854   3.417   2.706
 1324SOL    HW1 4508   1.776   3.405   2.653
 1324SOL    HW2 4509   1.848   3.349   2.773
 1325SOL     OW 4510   0.225   3.167   3.722
 1325SOL    HW1 4511   0.157   3.104   3.696
 1325SOL    HW2 4512   0.214   3.177   3.816
 1326SOL     OW 4513   0.087   3.082   2.516
 1326SOL    HW1 4514   0.100   3.050   2.606
 1326SOL    HW2 4515   0.174   3.076   2.476
 1327SOL     OW 4516   0.681   3.264   3.490
 1327SOL    HW1 4517   0.601   3.222   3.520
 1327SOL    HW2 4518   0.677   3.353   3.526
 1328SOL     OW 4519   1.817   2.043   3.094
 1328SOL    HW1 4520   1.832   1.950   3.113
 1328SOL    HW2 4521   1.823   2.049   2.999
 1329SOL     OW 4522   0.435   2.298   2.386
 1329SOL    HW1 4523   0.462   2.225   2.330
 1329SOL    HW2 4524   0.387   2.256   2.458
 1330SOL     OW 4525   1.699   3.353   2.957
 1330SOL    HW1 4526   1.618   3.329   2.912
 1330SOL    HW2 4527   1.714   3.282   3.019
 1331SOL     OW 4528   0.336   2.421   3.153
 1331SOL    HW1 4529   0.389   2.362   3.207
 1331SOL    HW2 4530   0.350   2.391   3.064
 1332SOL     OW 4531   0.829   3.439   2.540
 1332SOL    HW1 4532   0.816   3.495   2.463
 1332SOL    HW2 4533   0.752   3.382   2.542
 1333SOL     OW 4534   1.433   2.087   2.980
 1333SOL    HW1 4535   1.455   2.006   3.026
 1333SOL    HW2 4536   1.380   2.137   3.044
 1334SOL     OW 4537   1.009   1.881   3.004
 1334SOL    HW1 4538   0.954   1.813   2.964
 1334SOL    HW2 4539   1.097   1.843   3.006
 1335SOL     OW 4540   0.772   3.195   2.177
 1335SOL    HW1 4541   0.742   3.104   2.183
 1335SOL    HW2 4542   0.854   3.196   2.226
 1336SOL     OW 4543   0.623   3.418   3.149
 1336SOL    HW1 4544   0.624   3.500   3.198
 1336SOL    HW2 4545   0.710   3.412   3.109
 1337SOL     OW 4546   1.352   1.916   2.027
 1337SOL    HW1 4547   1.381   1.852   1.962
 1337SOL    HW2 4548   1.265   1.886   2.053
 1338SOL     OW 4549   1.297   2.323   2.543
 1338SOL    HW1 4550   1.244   2.402   2.550
 1338SOL    HW2 4551   1.292   2.283   2.630
 1339SOL     OW 4552   1.588   2.066   2.741
 1339SOL    HW1 4553   1.526   2.084   2.811
 1339SOL    HW2 4554   1.585   2.143   2.685
 1340SOL     OW 4555   0.048   2.930   2.152
 1340SOL    HW1 4556   0.137   2.898   2.141
 1340SOL    HW2 4557   5.300   2.856   2.187
 1341SOL     OW 4558   0.885   3.514   2.204
 1341SOL    HW1 4559   0.812   3.498   2.144
 1341SOL    HW2 4560   0.857   3.589   2.256
 1342SOL     OW 4561   0.233   2.494   3.840
 1342SOL    HW1 4562   0.160   2.460   3.892
 1342SOL    HW2 4563   0.218   2.460   3.752
 1343SOL     OW 4564   0.242   2.137   4.714
 1343SOL    HW1 4565   0.256   2.103   4.802
 1343SOL    HW2 4566   0.158   2.101   4.686
 1344SOL     OW 4567   5.298   2.260   4.377
 1344SOL    HW1 4568   5.206   2.282   4.383
 1344SOL    HW2 4569   5.299   2.170   4.346
 1345SOL     OW 4570   0.574   3.147   4.906
 1345SOL    HW1 4571   0.491   3.154   4.858
 1345SOL    HW2 4572   0.590   3.234   4.941
 1346SOL     OW 4573   1.556   3.373   4.430
 1346SOL    HW1 4574   1.513   3.355   4.513
 1346SOL    HW2 4575   1.484   3.381   4.367
 1347SOL     OW 4576   1.128   2.561   4.425
 1347SOL    HW1 4577   1.178   2.641   4.411
 1347SOL    HW2 4578   1.083   2.575   4.508
 1348SOL     OW 4579   1.779   2.450   3.962
 1348SOL    HW1 4580   1.745   2.452   3.873
 1348SOL    HW2 4581   1.730   2.380   4.006
 1349SOL     OW 4582   0.755   3.003   4.763
 1349SOL    HW1 4583   0.688   3.037   4.823
 1349SOL    HW2 4584   0.790   3.081   4.720
 1350SOL     OW 4585   0.866   2.637   5.546
 1350SOL    HW1 4586   0.857   2.709   5.608
 1350SOL    HW2 4587   0.890   2.679   5.463
 1351SOL     OW 4588   0.685   2.864   4.371
 1351SOL    HW1 4589   0.751   2.852   4.439
 1351SOL    HW2 4590   0.617   2.918   4.413
 1352SOL     OW 4591   0.709   3.012   5.537
 1352SOL    HW1 4592   0.758   3.091   5.563
 1352SOL    HW2 4593   0.628   3.046   5.501
 1353SOL     OW 4594   0.358   3.267   4.784
 1353SOL    HW1 4595   0.270   3.266   4.747
 1353SOL    HW2 4596   0.407   3.329   4.730
 1354SOL     OW 4597   1.461   3.362   5.078
 1354SOL    HW1 4598   1.511   3.443   5.089
 1354SOL    HW2 4599   1.399   3.362   5.151
 1355SOL     OW 4600   0.450   2.262   5.217
 1355SOL    HW1 4601   0.525   2.202   5.218
 1355SOL    HW2 4602   0.373   2.206   5.226
 1356SOL     OW 4603   1.594   2.302   4.469
 1356SOL    HW1 4604   1.525   2.334   4.412
 1356SOL    HW2 4605   1.643   2.380   4.495
 1357SOL     OW 4606   0.231   3.576   4.201
 1357SOL    HW1 4607   0.264   3.645   4.259
 1357SOL    HW2 4608   0.293   3.573   4.129
 1358SOL     OW 4609   1.136   3.204   5.417
 1358SOL    HW1 4610   1.177   3.198   5.503
 1358SOL    HW2 4611   1.084   3.124   5.410
 1359SOL     OW 4612   0.222   3.306   4.263
 1359SOL    HW1 4613   0.215   3.402   4.259
 1359SOL    HW2 4614   0.152   3.280   4.323
 1360SOL     OW 4615   0.250   2.939   4.599
 1360SOL    HW1 4616   0.261   2.854   4.641
 1360SOL    HW2 4617   0.198   2.990   4.661
 1361SOL     OW 4618   0.614   3.652   5.157
 1361SOL    HW1 4619   0.530   3.635   5.199
 1361SOL    HW2 4620   0.634   3.743   5.179
 1362SOL     OW 4621   0.583   2.845   3.859
 1362SOL    HW1 4622   0.629   2.893   3.790
 1362SOL    HW2 4623   0.624   2.875   3.940
 1363SOL     OW 4624   1.595   1.985   5.193
 1363SOL    HW1 4625   1.605   2.064   5.140
 1363SOL    HW2 4626   1.582   2.016   5.282
 1364SOL     OW 4627   0.126   2.496   4.303
 1364SOL    HW1 4628   0.089   2.413   4.332
 1364SOL    HW2 4629   0.098   2.559   4.370
 1365SOL     OW 4630   1.840   3.623   4.062
 1365SOL    HW1 4631   1.906   3.592   4.123
 1365SOL    HW2 4632   1.866   3.713   4.042
 1366SOL     OW 4633   0.038   3.461   3.856
 1366SOL    HW1 4634   0.025   3.369   3.881
 1366SOL    HW2 4635   5.283   3.511   3.916
 1367SOL     OW 4636   1.689   2.758   4.342
 1367SOL    HW1 4637   1.783   2.761   4.324
 1367SOL    HW2 4638   1.653   2.828   4.287
 1368SOL     OW 4639   1.645   2.971   4.157
 1368SOL    HW1 4640   1.725   2.986   4.106
 1368SOL    HW2 4641   1.652   3.032   4.230
 1369SOL     OW 4642   0.131   2.610   5.309
 1369SOL    HW1 4643   0.226   2.624   5.311
 1369SOL    HW2 4644   0.094   2.697   5.325
 1370SOL     OW 4645   0.615   3.247   4.459
 1370SOL    HW1 4646   0.568   3.165   4.469
 1370SOL    HW2 4647   0.598   3.274   4.368
 1371SOL     OW 4648   1.289   3.101   5.147
 1371SOL    HW1 4649   1.319   3.033   5.087
 1371SOL    HW2 4650   1.347   3.094   5.223
 1372SOL     OW 4651   0.822   1.861   4.233
 1372SOL    HW1 4652   0.863   1.945   4.214
 1372SOL    HW2 4653   0.729   1.880   4.240
 1373SOL     OW 4654   0.177   2.808   5.002
 1373SOL    HW1 4655   0.267   2.778   4.993
 1373SOL    HW2 4656   0.135   2.783   4.920
 1374SOL     OW 4657   1.525   2.857   3.928
 1374SOL    HW1 4658   1.455   2.801   3.961
 1374SOL    HW2 4659   1.565   2.893   4.007
 1375SOL     OW 4660   1.185   3.668   5.346
 1375SOL    HW1 4661   1.195   3.727   5.272
 1375SOL    HW2 4662   1.201   3.581   5.311
 1376SOL     OW 4663   0.336   2.115   5.541
 1376SOL    HW1 4664   0.384   2.197   5.553
 1376SOL    HW2 4665   0.249   2.132   5.576
 1377SOL     OW 4666   1.466   3.283   4.676
 1377SOL    HW1 4667   1.398   3.298   4.742
 1377SOL    HW2 4668   1.455   3.192   4.650
 1378SOL     OW 4669   1.656   3.603   4.304
 1378SOL    HW1 4670   1.643   3.574   4.214
 1378SOL    HW2 4671   1.632   3.526   4.357
 1379SOL     OW 4672   0.595   2.583   3.990
 1379SOL    HW1 4673   0.603   2.664   3.939
 1379SOL    HW2 4674   0.531   2.603   4.058
 1380SOL     OW 4675   1.279   2.216   4.656
 1380SOL    HW1 4676   1.190   2.182   4.665
 1380SOL    HW2 4677   1.331   2.163   4.716
 1381SOL     OW 4678   1.580   3.532   4.033
 1381SOL    HW1 4679   1.671   3.562   4.027
 1381SOL    HW2 4680   1.555   3.515   3.942
 1382SOL     OW 4681   0.792   2.479   5.175
 1382SOL    HW1 4682   0.765   2.456   5.264
 1382SOL    HW2 4683   0.752   2.413   5.120
 1383SOL     OW 4684   1.393   2.336   5.402
 1383SOL    HW1 4685   1.396   2.381   5.486
 1383SOL    HW2 4686   1.454   2.263   5.411
 1384SOL     OW 4687   0.955   2.749   5.306
 1384SOL    HW1 4688   1.009   2.679   5.271
 1384SOL    HW2 4689   0.907   2.783   5.231
 1385SOL     OW 4690   0.992   2.274   4.963
 1385SOL    HW1 4691   0.906   2.295   4.999
 1385SOL    HW2 4692   0.973   2.229   4.881
 1386SOL     OW 4693   1.051   2.561   4.150
 1386SOL    HW1 4694   1.067   2.554   4.244
 1386SOL    HW2 4695   0.969   2.514   4.136
 1387SOL     OW 4696   0.071   2.649   4.535
 1387SOL    HW1 4697   0.153   2.654   4.585
 1387SOL    HW2 4698   0.064   2.735   4.493
 1388SOL     OW 4699   0.130   3.746   5.309
 1388SOL    HW1 4700   0.133   3.716   5.400
 1388SOL    HW2 4701   0.059   3.695   5.269
 1389SOL     OW 4702   0.893   2.211   3.918
 1389SOL    HW1 4703   0.933   2.273   3.857
 1389SOL    HW2 4704   0.910   2.125   3.880
 1390SOL     OW 4705   1.708   2.436   5.552
 1390SOL    HW1 4706   1.671   2.511   5.505
 1390SOL    HW2 4707   1.737   2.376   5.483
 1391SOL     OW 4708   1.379   3.005   4.266
 1391SOL    HW1 4709   1.456   2.993   4.211
 1391SOL    HW2 4710   1.324   3.066   4.218
 1392SOL     OW 4711   0.555   2.045   4.617
 1392SOL    HW1 4712   0.553   2.073   4.709
 1392SOL    HW2 4713   0.552   2.126   4.567
 1393SOL     OW 4714   1.005   3.305   4.196
 1393SOL    HW1 4715   0.968   3.379   4.147
 1393SOL    HW2 4716   0.988   3.327   4.288
 1394SOL     OW 4717   0.357   3.665   4.593
 1394SOL    HW1 4718   0.397   3.579   4.607
 1394SOL    HW2 4719   0.423   3.727   4.623
 1395SOL     OW 4720   1.228   3.401   5.237
 1395SOL    HW1 4721   1.214   3.328   5.297
 1395SOL    HW2 4722   1.165   3.386   5.167
 1396SOL     OW 4723   0.316   2.814   3.972
 1396SOL    HW1 4724   0.397   2.838   3.928
 1396SOL    HW2 4725   0.293   2.728   3.935
 1397SOL     OW 4726   1.473   2.604   4.453
 1397SOL    HW1 4727   1.468   2.560   4.537
 1397SOL    HW2 4728   1.554   2.656   4.458
 1398SOL     OW 4729   0.465   3.126   5.462
 1398SOL    HW1 4730   0.438   3.132   5.370
 1398SOL    HW2 4731   0.383   3.127   5.511
 1399SOL     OW 4732   1.122   3.640   3.955
 1399SOL    HW1 4733   1.049   3.597   4.000
 1399SOL    HW2 4734   1.145   3.579   3.885
 1400SOL     OW 4735   0.205   2.142   5.221
 1400SOL    HW1 4736   0.126   2.194   5.205
 1400SOL    HW2 4737   0.173   2.063   5.265
 1401SOL     OW 4738   1.625   3.240   3.811
 1401SOL    HW1 4739   1.587   3.326   3.794
 1401SOL    HW2 4740   1.555   3.178   3.791
 1402SOL     OW 4741   0.471   3.597   4.044
 1402SOL    HW1 4742   0.514   3.655   4.107
 1402SOL    HW2 4743   0.542   3.566   3.988
 1403SOL     OW 4744   1.404   1.969   4.158
 1403SOL    HW1 4745   1.396   1.944   4.066
 1403SOL    HW2 4746   1.498   1.978   4.173
 1404SOL     OW 4747   0.276   3.663   4.937
 1404SOL    HW1 4748   0.307   3.585   4.984
 1404SOL    HW2 4749   0.225   3.628   4.864
 1405SOL     OW 4750   0.939   3.561   4.623
 1405SOL    HW1 4751   1.016   3.509   4.644
 1405SOL    HW2 4752   0.894   3.511   4.554
 1406SOL     OW 4753   0.386   2.558   4.203
 1406SOL    HW1 4754   0.415   2.467   4.211
 1406SOL    HW2 4755   0.292   2.555   4.223
 1407SOL     OW 4756   1.535   2.088   5.449
 1407SOL    HW1 4757   1.545   2.109   5.542
 1407SOL    HW2 4758   1.467   2.021   5.446
 1408SOL     OW 4759   0.633   1.984   3.830
 1408SOL    HW1 4760   0.704   1.921   3.841
 1408SOL    HW2 4761   0.585   1.953   3.753
 1409SOL     OW 4762   0.767   2.140   5.478
 1409SOL    HW1 4763   0.842   2.081   5.479
 1409SOL    HW2 4764   0.718   2.118   5.557
 1410SOL     OW 4765   0.877   3.384   4.918
 1410SOL    HW1 4766   0.861   3.347   4.830
 1410SOL    HW2 4767   0.947   3.329   4.954
 1411SOL     OW 4768   1.342   2.451   5.155
 1411SOL    HW1 4769   1.372   2.420   5.241
 1411SOL    HW2 4770   1.377   2.540   5.148
 1412SOL     OW 4771   0.815   3.256   4.664
 1412SOL    HW1 4772   0.900   3.245   4.620
 1412SOL    HW2 4773   0.751   3.258   4.593
 1413SOL     OW 4774   0.928   2.371   4.627
 1413SOL    HW1 4775   0.904   2.363   4.535
 1413SOL    HW2 4776   0.959   2.284   4.652
 1414SOL     OW 4777   0.560   1.923   4.220
 1414SOL    HW1 4778   0.485   1.923   4.280
 1414SOL    HW2 4779   0.550   2.003   4.168
 1415SOL     OW 4780   1.423   3.060   3.766
 1415SOL    HW1 4781   1.454   2.985   3.818
 1415SOL    HW2 4782   1.339   3.082   3.805
 1416SOL     OW 4783   0.305   1.909   3.903
 1416SOL    HW1 4784   0.368   1.973   3.868
 1416SOL    HW2 4785   0.360   1.844   3.948
 1417SOL     OW 4786   0.940   2.109   4.184
 1417SOL    HW1 4787   0.913   2.151   4.102
 1417SOL    HW2 4788   1.034   2.123   4.188
 1418SOL     OW 4789   1.080   2.542   5.184
 1418SOL    HW1 4790   1.011   2.476   5.187
 1418SOL    HW2 4791   1.161   2.492   5.176
 1419SOL     OW 4792   1.224   3.431   4.517
 1419SOL    HW1 4793   1.239   3.499   4.452
 1419SOL    HW2 4794   1.291   3.446   4.583
 1420SOL     OW 4795   0.467   3.012   4.455
 1420SOL    HW1 4796   0.398   2.992   4.519
 1420SOL    HW2 4797   0.428   2.994   4.370
 1421SOL     OW 4798   1.269   3.656   4.333
 1421SOL    HW1 4799   1.315   3.717   4.275
 1421SOL    HW2 4800   1.202   3.709   4.375
 1422SOL     OW 4801   1.024   2.403   3.747
 1422SOL    HW1 4802   0.982   2.487   3.727
 1422SOL    HW2 4803   1.090   2.425   3.813
 1423SOL     OW 4804   0.088   2.407   5.122
 1423SOL    HW1 4805   0.175   2.414   5.085
 1423SOL    HW2 4806   0.080   2.483   5.180
 1424SOL     OW 4807   0.560   2.090   4.890
 1424SOL    HW1 4808   0.598   2.010   4.927
 1424SOL    HW2 4809   0.469   2.088   4.918
 1425SOL     OW 4810   0.867   2.321   4.364
 1425SOL    HW1 4811   0.822   2.375   4.299
 1425SOL    HW2 4812   0.889   2.240   4.317
 1426SOL     OW 4813   1.015   1.915   4.476
 1426SOL    HW1 4814   0.957   1.908   4.400
 1426SOL    HW2 4815   0.993   1.840   4.531
 1427SOL     OW 4816   1.437   3.028   4.581
 1427SOL    HW1 4817   1.371   2.958   4.588
 1427SOL    HW2 4818   1.456   3.034   4.487
 1428SOL     OW 4819   1.465   2.471   4.706
 1428SOL    HW1 4820   1.420   2.387   4.701
 1428SOL    HW2 4821   1.528   2.459   4.777
 1429SOL     OW 4822   0.492   3.280   3.882
 1429SOL    HW1 4823   0.416   3.252   3.934
 1429SOL    HW2 4824   0.475   3.244   3.795
 1430SOL     OW 4825   1.677   3.136   4.368
 1430SOL    HW1 4826   1.767   3.163   4.384
 1430SOL    HW2 4827   1.624   3.214   4.385
 1431SOL     OW 4828   1.392   2.437   3.793
 1431SOL    HW1 4829   1.336   2.413   3.867
 1431SOL    HW2 4830   1.479   2.403   3.817
 1432SOL     OW 4831   0.524   2.125   4.041
 1432SOL    HW1 4832   0.569   2.078   3.971
 1432SOL    HW2 4833   0.502   2.210   4.002
 1433SOL     OW 4834   1.751   3.102   5.297
 1433SOL    HW1 4835   1.837   3.060   5.301
 1433SOL    HW2 4836   1.767   3.192   5.326
 1434SOL     OW 4837   1.058   3.215   5.058
 1434SOL    HW1 4838   0.984   3.184   5.109
 1434SOL    HW2 4839   1.134   3.174   5.099
 1435SOL     OW 4840   1.608   3.488   5.378
 1435SOL    HW1 4841   1.602   3.522   5.289
 1435SOL    HW2 4842   1.691   3.440   5.380
 1436SOL     OW 4843   1.129   3.066   4.829
 1436SOL    HW1 4844   1.070   3.104   4.894
 1436SOL    HW2 4845   1.096   3.098   4.745
 1437SOL     OW 4846   1.628   2.948   4.807
 1437SOL    HW1 4847   1.625   3.020   4.870
 1437SOL    HW2 4848   1.566   2.975   4.738
 1438SOL     OW 4849   0.919   1.958   5.121
 1438SOL    HW1 4850   0.941   1.940   5.030
 1438SOL    HW2 4851   0.998   1.998   5.157
 1439SOL     OW 4852   0.984   2.976   5.447
 1439SOL    HW1 4853   0.892   2.993   5.467
 1439SOL    HW2 4854   0.983   2.899   5.391
 1440SOL     OW 4855   0.708   2.922   4.096
 1440SOL    HW1 4856   0.696   2.906   4.190
 1440SOL    HW2 4857   0.784   2.869   4.072
 1441SOL     OW 4858   0.420   2.681   4.976
 1441SOL    HW1 4859   0.489   2.688   5.042
 1441SOL    HW2 4860   0.386   2.592   4.987
 1442SOL     OW 4861   1.265   2.238   5.001
 1442SOL    HW1 4862   1.298   2.316   5.045
 1442SOL    HW2 4863   1.175   2.261   4.976
 1443SOL     OW 4864   0.101   3.485   5.091
 1443SOL    HW1 4865   0.080   3.493   4.998
 1443SOL    HW2 4866   0.188   3.443   5.092
 1444SOL     OW 4867   0.343   2.968   4.211
 1444SOL    HW1 4868   0.352   3.047   4.158
 1444SOL    HW2 4869   0.352   2.896   4.149
 1445SOL     OW 4870   0.554   2.398   4.583
 1445SOL    HW1 4871   0.570   2.457   4.509
 1445SOL    HW2 4872   0.619   2.424   4.649
 1446SOL     OW 4873   1.248   3.210   4.114
 1446SOL    HW1 4874   1.304   3.282   4.143
 1446SOL    HW2 4875   1.161   3.231   4.147
 1447SOL     OW 4876   1.281   3.320   4.871
 1447SOL    HW1 4877   1.336   3.322   4.949
 1447SOL    HW2 4878   1.226   3.242   4.883
 1448SOL     OW 4879   1.586   2.484   4.207
 1448SOL    HW1 4880   1.539   2.542   4.268
 1448SOL    HW2 4881   1.625   2.544   4.143
 1449SOL     OW 4882   0.352   3.381   5.034
 1449SOL    HW1 4883   0.341   3.338   4.950
 1449SOL    HW2 4884   0.445   3.399   5.041
 1450SOL     OW 4885   0.414   2.604   5.326
 1450SOL    HW1 4886   0.475   2.651   5.268
 1450SOL    HW2 4887   0.454   2.518   5.339
 1451SOL     OW 4888   1.601   2.640   5.406
 1451SOL    HW1 4889   1.515   2.682   5.399
 1451SOL    HW2 4890   1.653   2.682   5.338
 1452SOL     OW 4891   0.996   1.985   5.479
 1452SOL    HW1 4892   1.051   2.058   5.451
 1452SOL    HW2 4893   1.044   1.907   5.453
 1453SOL     OW 4894   0.497   1.903   5.472
 1453SOL    HW1 4895   0.455   1.849   5.405
 1453SOL    HW2 4896   0.438   1.977   5.484
 1454SOL     OW 4897   0.585   2.736   4.756
 1454SOL    HW1 4898   0.617   2.826   4.756
 1454SOL    HW2 4899   0.529   2.731   4.833
 1455SOL     OW 4900   1.356   2.721   4.753
 1455SOL    HW1 4901   1.272   2.711   4.708
 1455SOL    HW2 4902   1.397   2.635   4.748
 1456SOL     OW 4903   1.205   2.390   3.992
 1456SOL    HW1 4904   1.213   2.311   4.046
 1456SOL    HW2 4905   1.162   2.454   4.048
 1457SOL     OW 4906   0.301   2.065   4.972
 1457SOL    HW1 4907   0.267   2.090   5.058
 1457SOL    HW2 4908   0.289   1.970   4.967
 1458SOL     OW 4909   0.069   3.180   5.004
 1458SOL    HW1 4910   0.091   3.121   5.076
 1458SOL    HW2 4911   5.299   3.236   5.040
 1459SOL     OW 4912   0.724   2.493   4.782
 1459SOL    HW1 4913   0.799   2.477   4.725
 1459SOL    HW2 4914   0.697   2.582   4.761
 1460SOL     OW 4915   1.734   2.821   5.576
 1460SOL    HW1 4916   1.688   2.760   5.519
 1460SOL    HW2 4917   1.674   2.835   5.650
 1461SOL     OW 4918   0.327   1.924   4.358
 1461SOL    HW1 4919   0.307   2.013   4.386
 1461SOL    HW2 4920   0.332   1.874   4.440
 1462SOL     OW 4921   1.621   2.238   4.091
 1462SOL    HW1 4922   1.641   2.168   4.153
 1462SOL    HW2 4923   1.595   2.312   4.146
 1463SOL     OW 4924   1.027   2.621   4.684
 1463SOL    HW1 4925   1.024   2.639   4.779
 1463SOL    HW2 4926   1.001   2.529   4.677
 1464SOL     OW 4927   0.982   3.428   5.441
 1464SOL    HW1 4928   0.967   3.472   5.358
 1464SOL    HW2 4929   1.026   3.346   5.417
 1465SOL     OW 4930   1.855   3.368   5.330
 1465SOL    HW1 4931   1.873   3.396   5.240
 1465SOL    HW2 4932   1.936   3.386   5.378
 1466SOL     OW 4933   0.354   2.780   5.530
 1466SOL    HW1 4934   0.435   2.799   5.577
 1466SOL    HW2 4935   0.379   2.715   5.465
 1467SOL     OW 4936   1.525   2.136   3.852
 1467SOL    HW1 4937   1.463   2.069   3.881
 1467SOL    HW2 4938   1.562   2.171   3.933
 1468SOL     OW 4939   1.291   2.689   3.756
 1468SOL    HW1 4940   1.332   2.603   3.759
 1468SOL    HW2 4941   1.320   2.727   3.674
 1469SOL     OW 4942   1.066   3.197   4.578
 1469SOL    HW1 4943   1.069   3.125   4.515
 1469SOL    HW2 4944   1.127   3.262   4.543
 1470SOL     OW 4945   0.314   2.672   4.674
 1470SOL    HW1 4946   0.408   2.690   4.670
 1470SOL    HW2 4947   0.308   2.582   4.705
 1471SOL     OW 4948   0.335   2.388   4.739
 1471SOL    HW1 4949   0.300   2.300   4.725
 1471SOL    HW2 4950   0.410   2.394   4.680
 1472SOL     OW 4951   1.134   2.238   5.407
 1472SOL    HW1 4952   1.086   2.293   5.469
 1472SOL    HW2 4953   1.222   2.276   5.402
 1473SOL     OW 4954   1.161   2.064   5.195
 1473SOL    HW1 4955   1.150   2.127   5.266
 1473SOL    HW2 4956   1.200   2.115   5.124
 1474SOL     OW 4957   0.002   3.192   3.934
 1474SOL    HW1 4958   5.228   3.181   3.874
 1474SOL    HW2 4959   0.012   3.106   3.976
 1475SOL     OW 4960   0.093   3.644   4.675
 1475SOL    HW1 4961   0.059   3.574   4.619
 1475SOL    HW2 4962   0.180   3.662   4.640
 1476SOL     OW 4963   0.505   3.435   4.632
 1476SOL    HW1 4964   0.572   3.501   4.652
 1476SOL    HW2 4965   0.548   3.374   4.572
 1477SOL     OW 4966   0.983   2.654   4.951
 1477SOL    HW1 4967   1.039   2.632   5.025
 1477SOL    HW2 4968   0.898   2.616   4.973
 1478SOL     OW 4969   0.033   2.423   4.840
 1478SOL    HW1 4970   0.119   2.398   4.806
 1478SOL    HW2 4971   0.037   2.405   4.934
 1479SOL     OW 4972   0.174   2.375   5.436
 1479SOL    HW1 4973   0.240   2.338   5.376
 1479SOL    HW2 4974   0.146   2.456   5.393
 1480SOL     OW 4975   1.377   2.801   5.382
 1480SOL    HW1 4976   1.398   2.894   5.380
 1480SOL    HW2 4977   1.374   2.775   5.290
 1481SOL     OW 4978   0.816   2.431   4.084
 1481SOL    HW1 4979   0.821   2.356   4.024
 1481SOL    HW2 4980   0.742   2.483   4.052
 1482SOL     OW 4981   1.653   2.458   4.909
 1482SOL    HW1 4982   1.627   2.410   4.988
 1482SOL    HW2 4983   1.740   2.424   4.889
 1483SOL     OW 4984   0.256   3.418   5.459
 1483SOL    HW1 4985   0.234   3.481   5.527
 1483SOL    HW2 4986   0.250   3.332   5.501
 1484SOL     OW 4987   0.701   2.312   4.984
 1484SOL    HW1 4988   0.649   2.238   4.954
 1484SOL    HW2 4989   0.697   2.375   4.912
 1485SOL     OW 4990   0.928   3.541   5.192
 1485SOL    HW1 4991   0.902   3.506   5.107
 1485SOL    HW2 4992   0.923   3.636   5.181
 1486SOL     OW 4993   0.465   2.355   3.909
 1486SOL    HW1 4994   0.525   2.426   3.931
 1486SOL    HW2 4995   0.380   2.398   3.897
 1487SOL     OW 4996   0.148   2.999   5.195
 1487SOL    HW1 4997   0.146   2.951   5.277
 1487SOL    HW2 4998   0.160   2.932   5.128
 1488SOL     OW 4999   1.324   2.908   4.949
 1488SOL    HW1 5000   1.352   2.848   4.881
 1488SOL    HW2 5001   1.254   2.960   4.909
 1489SOL     OW 5002   1.311   2.718   4.032
 1489SOL    HW1 5003   1.235   2.687   4.082
 1489SOL    HW2 5004   1.286   2.704   3.940
 1490SOL     OW 5005   1.771   3.604   4.874
 1490SOL    HW1 5006   1.831   3.632   4.805
 1490SOL    HW2 5007   1.748   3.514   4.852
 1491SOL     OW 5008   1.241   3.595   4.837
 1491SOL    HW1 5009   1.323   3.616   4.792
 1491SOL    HW2 5010   1.247   3.501   4.856
 1492SOL     OW 5011   0.083   3.079   4.751
 1492SOL    HW1 5012   0.070   3.104   4.842
 1492SOL    HW2 5013   5.294   3.068   4.717
 1493SOL     OW 5014   0.678   3.528   5.453
 1493SOL    HW1 5015   0.622   3.606   5.448
 1493SOL    HW2 5016   0.742   3.539   5.383
 1494SOL     OW 5017   1.693   1.997   4.219
 1494SOL    HW1 5018   1.781   1.998   4.181
 1494SOL    HW2 5019   1.690   1.915   4.268
 1495SOL     OW 5020   1.390   3.430   4.208
 1495SOL    HW1 5021   1.451   3.462   4.142
 1495SOL    HW2 5022   1.342   3.508   4.236
 1496SOL     OW 5023   0.145   3.660   5.566
 1496SOL    HW1 5024   0.090   3.597   5.613
 1496SOL    HW2 5025   0.191   3.707   5.635
 1497SOL     OW 5026   1.275   2.788   4.394
 1497SOL    HW1 5027   1.348   2.727   4.403
 1497SOL    HW2 5028   1.311   2.860   4.342
 1498SOL     OW 5029   0.814   3.135   5.154
 1498SOL    HW1 5030   0.786   3.175   5.236
 1498SOL    HW2 5031   0.745   3.156   5.092
 1499SOL     OW 5032   0.672   3.481   3.879
 1499SOL    HW1 5033   0.683   3.494   3.785
 1499SOL    HW2 5034   0.617   3.403   3.887
 1500SOL     OW 5035   1.626   3.589   5.116
 1500SOL    HW1 5036   1.676   3.596   5.034
 1500SOL    HW2 5037   1.613   3.679   5.143
 1501SOL     OW 5038   1.845   2.043   4.691
 1501SOL    HW1 5039   1.878   1.957   4.666
 1501SOL    HW2 5040   1.759   2.048   4.650
 1502SOL     OW 5041   0.273   2.179   4.441
 1502SOL    HW1 5042   0.188   2.218   4.421
 1502SOL    HW2 5043   0.272   2.168   4.536
 1503SOL     OW 5044   1.207   3.468   3.756
 1503SOL    HW1 5045   1.197   3.377   3.782
 1503SOL    HW2 5046   1.142   3.480   3.686
 1504SOL     OW 5047   0.824   2.867   5.096
 1504SOL    HW1 5048   0.868   2.863   5.012
 1504SOL    HW2 5049   0.824   2.961   5.118
 1505SOL     OW 5050   0.915   2.772   4.014
 1505SOL    HW1 5051   0.976   2.804   3.947
 1505SOL    HW2 5052   0.963   2.703   4.059
 1506SOL     OW 5053   1.491   3.487   3.766
 1506SOL    HW1 5054   1.397   3.481   3.752
 1506SOL    HW2 5055   1.529   3.493   3.678
 1507SOL     OW 5056   0.367   3.166   5.217
 1507SOL    HW1 5057   0.359   3.240   5.158
 1507SOL    HW2 5058   0.292   3.111   5.198
 1508SOL     OW 5059   1.614   3.149   5.001
 1508SOL    HW1 5060   1.669   3.132   5.077
 1508SOL    HW2 5061   1.552   3.216   5.029
 1509SOL     OW 5062   1.052   2.969   4.430
 1509SOL    HW1 5063   0.981   2.918   4.470
 1509SOL    HW2 5064   1.115   2.903   4.400
 1510SOL     OW 5065   1.021   2.103   4.691
 1510SOL    HW1 5066   1.017   2.055   4.608
 1510SOL    HW2 5067   1.016   2.035   4.758
 1511SOL     OW 5068   0.601   3.349   4.205
 1511SOL    HW1 5069   0.646   3.301   4.136
 1511SOL    HW2 5070   0.535   3.400   4.159
 1512SOL     OW 5071   1.725   2.254   5.106
 1512SOL    HW1 5072   1.797   2.317   5.102
 1512SOL    HW2 5073   1.754   2.182   5.050
 1513SOL     OW 5074   0.260   3.210   4.016
 1513SOL    HW1 5075   0.167   3.212   3.994
 1513SOL    HW2 5076   0.264   3.247   4.105
 1514SOL     OW 5077   0.116   2.878   5.442
 1514SOL    HW1 5078   0.045   2.843   5.496
 1514SOL    HW2 5079   0.196   2.847   5.484
 1515SOL     OW 5080   0.674   2.058   5.223
 1515SOL    HW1 5081   0.758   2.038   5.182
 1515SOL    HW2 5082   0.697   2.090   5.310
 1516SOL     OW 5083   0.082   2.212   3.765
 1516SOL    HW1 5084   0.003   2.164   3.742
 1516SOL    HW2 5085   0.098   2.269   3.690
 1517SOL     OW 5086   1.431   2.720   5.124
 1517SOL    HW1 5087   1.382   2.780   5.068
 1517SOL    HW2 5088   1.521   2.724   5.091
 1518SOL     OW 5089   0.056   1.995   3.967
 1518SOL    HW1 5090   0.055   2.090   3.958
 1518SOL    HW2 5091   0.146   1.970   3.945
 1519SOL     OW 5092   1.179   3.201   3.841
 1519SOL    HW1 5093   1.088   3.172   3.844
 1519SOL    HW2 5094   1.206   3.202   3.933
 1520SOL     OW 5095   0.619   2.693   5.159
 1520SOL    HW1 5096   0.676   2.769   5.143
 1520SOL    HW2 5097   0.680   2.619   5.167
 1521SOL     OW 5098   1.484   3.639   4.702
 1521SOL    HW1 5099   1.506   3.698   4.630
 1521SOL    HW2 5100   1.567   3.622   4.747
 1522SOL     OW 5101   0.717   2.426   5.429
 1522SOL    HW1 5102   0.758   2.489   5.488
 1522SOL    HW2 5103   0.745   2.341   5.460
 1523SOL     OW 5104   1.471   3.062   5.356
 1523SOL    HW1 5105   1.459   3.076   5.450
 1523SOL    HW2 5106   1.565   3.077   5.341
 1524SOL     OW 5107   0.378   3.604   5.288
 1524SOL    HW1 5108   0.295   3.650   5.272
 1524SOL    HW2 5109   0.352   3.524   5.333
 1525SOL     OW 5110   1.671   2.741   4.979
 1525SOL    HW1 5111   1.661   2.658   4.932
 1525SOL    HW2 5112   1.661   2.808   4.912
 1526SOL     OW 5113   1.217   2.180   4.181
 1526SOL    HW1 5114   1.281   2.109   4.174
 1526SOL    HW2 5115   1.244   2.229   4.258
 1527SOL     OW 5116   0.590   2.599   4.393
 1527SOL    HW1 5117   0.629   2.685   4.378
 1527SOL    HW2 5118   0.521   2.593   4.327
 1528SOL     OW 5119   1.763   2.223   5.374
 1528SOL    HW1 5120   1.745   2.239   5.282
 1528SOL    HW2 5121   1.691   2.167   5.403
 1529SOL     OW 5122   1.744   2.795   5.237
 1529SOL    HW1 5123   1.742   2.890   5.247
 1529SOL    HW2 5124   1.734   2.781   5.143
 1530SOL     OW 5125   0.863   3.229   3.758
 1530SOL    HW1 5126   0.824   3.258   3.841
 1530SOL    HW2 5127   0.881   3.310   3.711
 1531SOL     OW 5128   0.663   3.655   4.668
 1531SOL    HW1 5129   0.642   3.746   4.645
 1531SOL    HW2 5130   0.758   3.651   4.661
 1532SOL     OW 5131   0.867   2.828   4.578
 1532SOL    HW1 5132   0.918   2.757   4.618
 1532SOL    HW2 5133   0.833   2.878   4.653
 1533SOL     OW 5134   1.078   2.850   3.813
 1533SOL    HW1 5135   1.057   2.901   3.734
 1533SOL    HW2 5136   1.153   2.797   3.787
 1534SOL     OW 5137   1.854   3.409   4.574
 1534SOL    HW1 5138   1.782   3.408   4.511
 1534SOL    HW2 5139   1.820   3.363   4.651
 1535SOL     OW 5140   0.225   3.167   5.584
 1535SOL    HW1 5141   0.157   3.104   5.558
 1535SOL    HW2 5142   0.214   3.177   5.678
 1536SOL     OW 5143   0.087   3.082   4.379
 1536SOL    HW1 5144   0.101   3.049   4.468
 1536SOL    HW2 5145   0.173   3.076   4.338
 1537SOL     OW 5146   0.681   3.264   5.352
 1537SOL    HW1 5147   0.601   3.222   5.382
 1537SOL    HW2 5148   0.677   3.353   5.388
 1538SOL     OW 5149   1.812   2.048   4.960
 1538SOL    HW1 5150   1.825   1.954   4.973
 1538SOL    HW2 5151   1.829   2.062   4.867
 1539SOL     OW 5152   0.434   2.298   4.248
 1539SOL    HW1 5153   0.462   2.225   4.192
 1539SOL    HW2 5154   0.387   2.256   4.320
 1540SOL     OW 5155   1.706   3.348   4.812
 1540SOL    HW1 5156   1.621   3.327   4.772
 1540SOL    HW2 5157   1.719   3.280   4.878
 1541SOL     OW 5158   0.336   2.421   5.015
 1541SOL    HW1 5159   0.390   2.362   5.069
 1541SOL    HW2 5160   0.350   2.392   4.925
 1542SOL     OW 5161   0.828   3.439   4.402
 1542SOL    HW1 5162   0.815   3.494   4.324
 1542SOL    HW2 5163   0.751   3.382   4.404
 1543SOL     OW 5164   1.431   2.088   4.842
 1543SOL    HW1 5165   1.460   2.009   4.888
 1543SOL    HW2 5166   1.379   2.136   4.905
 1544SOL     OW 5167   1.009   1.880   4.866
 1544SOL    HW1 5168   0.955   1.813   4.825
 1544SOL    HW2 5169   1.097   1.843   4.868
 1545SOL     OW 5170   0.772   3.195   4.039
 1545SOL    HW1 5171   0.742   3.104   4.045
 1545SOL    HW2 5172   0.854   3.196   4.088
 1546SOL     OW 5173   0.623   3.418   5.011
 1546SOL    HW1 5174   0.624   3.500   5.060
 1546SOL    HW2 5175   0.710   3.412   4.972
 1547SOL     OW 5176   1.352   1.915   3.890
 1547SOL    HW1 5177   1.380   1.851   3.824
 1547SOL    HW2 5178   1.265   1.886   3.917
 1548SOL     OW 5179   1.291   2.323   4.403
 1548SOL    HW1 5180   1.239   2.403   4.413
 1548SOL    HW2 5181   1.292   2.284   4.490
 1549SOL     OW 5182   1.586   2.059   4.602
 1549SOL    HW1 5183   1.527   2.082   4.673
 1549SOL    HW2 5184   1.587   2.136   4.545
 1550SOL     OW 5185   0.048   2.931   4.014
 1550SOL    HW1 5186   0.137   2.898   4.003
 1550SOL    HW2 5187   5.300   2.855   4.049
 1551SOL     OW 5188   0.885   3.514   4.066
 1551SOL    HW1 5189   0.812   3.498   4.006
 1551SOL    HW2 5190   0.857   3.589   4.118
 1552SOL     OW 5191   0.233   2.494   5.702
 1552SOL    HW1 5192   0.160   2.460   5.753
 1552SOL    HW2 5193   0.219   2.460   5.614
 1553SOL     OW 5194   0.242   2.138   6.576
 1553SOL    HW1 5195   0.256   2.103   6.664
 1553SOL    HW2 5196   0.158   2.101   6.548
 1554SOL     OW 5197   5.298   2.260   6.239
 1554SOL    HW1 5198   5.205   2.282   6.245
 1554SOL    HW2 5199   5.299   2.170   6.208
 1555SOL     OW 5200   0.574   3.146   6.768
 1555SOL    HW1 5201   0.491   3.155   6.720
 1555SOL    HW2 5202   0.590   3.234   6.803
 1556SOL     OW 5203   1.561   3.374   6.293
 1556SOL    HW1 5204   1.518   3.354   6.376
 1556SOL    HW2 5205   1.490   3.378   6.229
 1557SOL     OW 5206   1.130   2.560   6.287
 1557SOL    HW1 5207   1.179   2.641   6.273
 1557SOL    HW2 5208   1.084   2.574   6.369
 1558SOL     OW 5209   1.767   2.467   5.815
 1558SOL    HW1 5210   1.746   2.460   5.722
 1558SOL    HW2 5211   1.731   2.387   5.854
 1559SOL     OW 5212   0.755   3.003   6.625
 1559SOL    HW1 5213   0.688   3.037   6.685
 1559SOL    HW2 5214   0.791   3.080   6.582
 1560SOL     OW 5215   0.865   2.638   7.406
 1560SOL    HW1 5216   0.855   2.713   7.465
 1560SOL    HW2 5217   0.891   2.677   7.322
 1561SOL     OW 5218   0.685   2.864   6.233
 1561SOL    HW1 5219   0.751   2.852   6.302
 1561SOL    HW2 5220   0.617   2.918   6.275
 1562SOL     OW 5221   0.709   3.013   7.399
 1562SOL    HW1 5222   0.758   3.091   7.425
 1562SOL    HW2 5223   0.628   3.047   7.362
 1563SOL     OW 5224   0.358   3.267   6.646
 1563SOL    HW1 5225   0.270   3.266   6.609
 1563SOL    HW2 5226   0.407   3.329   6.592
 1564SOL     OW 5227   1.461   3.361   6.940
 1564SOL    HW1 5228   1.512   3.442   6.949
 1564SOL    HW2 5229   1.399   3.363   7.013
 1565SOL     OW 5230   0.451   2.262   7.079
 1565SOL    HW1 5231   0.525   2.202   7.081
 1565SOL    HW2 5232   0.374   2.206   7.088
 1566SOL     OW 5233   1.612   2.310   6.326
 1566SOL    HW1 5234   1.537   2.333   6.271
 1566SOL    HW2 5235   1.627   2.388   6.380
 1567SOL     OW 5236   0.231   3.576   6.063
 1567SOL    HW1 5237   0.264   3.645   6.121
 1567SOL    HW2 5238   0.293   3.573   5.991
 1568SOL     OW 5239   1.136   3.203   7.276
 1568SOL    HW1 5240   1.177   3.200   7.363
 1568SOL    HW2 5241   1.085   3.123   7.271
 1569SOL     OW 5242   0.222   3.306   6.125
 1569SOL    HW1 5243   0.215   3.402   6.121
 1569SOL    HW2 5244   0.152   3.280   6.185
 1570SOL     OW 5245   0.250   2.939   6.461
 1570SOL    HW1 5246   0.261   2.854   6.503
 1570SOL    HW2 5247   0.198   2.991   6.523
 1571SOL     OW 5248   0.613   3.652   7.018
 1571SOL    HW1 5249   0.530   3.635   7.061
 1571SOL    HW2 5250   0.634   3.743   7.041
 1572SOL     OW 5251   0.583   2.845   5.721
 1572SOL    HW1 5252   0.629   2.893   5.652
 1572SOL    HW2 5253   0.624   2.875   5.802
 1573SOL     OW 5254   1.596   1.985   7.054
 1573SOL    HW1 5255   1.603   2.066   7.003
 1573SOL    HW2 5256   1.582   2.015   7.144
 1574SOL     OW 5257   0.126   2.496   6.165
 1574SOL    HW1 5258   0.089   2.413   6.194
 1574SOL    HW2 5259   0.099   2.559   6.232
 1575SOL     OW 5260   1.842   3.621   5.921
 1575SOL    HW1 5261   1.906   3.592   5.986
 1575SOL    HW2 5262   1.866   3.711   5.902
 1576SOL     OW 5263   0.038   3.461   5.718
 1576SOL    HW1 5264   0.025   3.369   5.743
 1576SOL    HW2 5265   5.283   3.511   5.778
 1577SOL     OW 5266   1.688   2.780   6.226
 1577SOL    HW1 5267   1.772   2.739   6.206
 1577SOL    HW2 5268   1.667   2.831   6.148
 1578SOL     OW 5269   1.646   2.968   6.015
 1578SOL    HW1 5270   1.732   2.974   5.973
 1578SOL    HW2 5271   1.651   3.030   6.089
 1579SOL     OW 5272   0.131   2.609   7.173
 1579SOL    HW1 5273   0.226   2.623   7.173
 1579SOL    HW2 5274   0.094   2.696   7.188
 1580SOL     OW 5275   0.615   3.247   6.321
 1580SOL    HW1 5276   0.568   3.165   6.331
 1580SOL    HW2 5277   0.598   3.274   6.230
 1581SOL     OW 5278   1.289   3.100   7.009
 1581SOL    HW1 5279   1.321   3.033   6.949
 1581SOL    HW2 5280   1.346   3.094   7.086
 1582SOL     OW 5281   0.823   1.861   6.096
 1582SOL    HW1 5282   0.863   1.946   6.076
 1582SOL    HW2 5283   0.729   1.880   6.102
 1583SOL     OW 5284   0.177   2.808   6.864
 1583SOL    HW1 5285   0.267   2.778   6.855
 1583SOL    HW2 5286   0.135   2.783   6.782
 1584SOL     OW 5287   1.531   2.855   5.785
 1584SOL    HW1 5288   1.462   2.798   5.816
 1584SOL    HW2 5289   1.572   2.890   5.864
 1585SOL     OW 5290   1.185   3.668   7.208
 1585SOL    HW1 5291   1.196   3.727   7.133
 1585SOL    HW2 5292   1.202   3.581   7.173
 1586SOL     OW 5293   0.337   2.114   7.402
 1586SOL    HW1 5294   0.384   2.197   7.415
 1586SOL    HW2 5295   0.250   2.131   7.437
 1587SOL     OW 5296   1.466   3.282   6.537
 1587SOL    HW1 5297   1.398   3.297   6.603
 1587SOL    HW2 5298   1.454   3.190   6.511
 1588SOL     OW 5299   1.658   3.602   6.164
 1588SOL    HW1 5300   1.639   3.572   6.075
 1588SOL    HW2 5301   1.634   3.528   6.220
 1589SOL     OW 5302   0.595   2.583   5.852
 1589SOL    HW1 5303   0.603   2.664   5.801
 1589SOL    HW2 5304   0.531   2.603   5.919
 1590SOL     OW 5305   1.279   2.215   6.519
 1590SOL    HW1 5306   1.190   2.182   6.527
 1590SOL    HW2 5307   1.330   2.162   6.580
 1591SOL     OW 5308   1.581   3.532   5.895
 1591SOL    HW1 5309   1.671   3.563   5.888
 1591SOL    HW2 5310   1.554   3.515   5.805
 1592SOL     OW 5311   0.791   2.479   7.038
 1592SOL    HW1 5312   0.765   2.455   7.126
 1592SOL    HW2 5313   0.752   2.413   6.982
 1593SOL     OW 5314   1.394   2.336   7.263
 1593SOL    HW1 5315   1.396   2.381   7.348
 1593SOL    HW2 5316   1.455   2.263   7.273
 1594SOL     OW 5317   0.955   2.749   7.168
 1594SOL    HW1 5318   1.009   2.679   7.132
 1594SOL    HW2 5319   0.907   2.784   7.093
 1595SOL     OW 5320   0.992   2.275   6.825
 1595SOL    HW1 5321   0.906   2.296   6.861
 1595SOL    HW2 5322   0.973   2.228   6.743
 1596SOL     OW 5323   1.051   2.560   6.012
 1596SOL    HW1 5324   1.067   2.554   6.106
 1596SOL    HW2 5325   0.968   2.514   5.998
 1597SOL     OW 5326   0.071   2.649   6.397
 1597SOL    HW1 5327   0.153   2.654   6.447
 1597SOL    HW2 5328   0.064   2.735   6.355
 1598SOL     OW 5329   0.129   3.746   7.170
 1598SOL    HW1 5330   0.131   3.717   7.262
 1598SOL    HW2 5331   0.060   3.694   7.130
 1599SOL     OW 5332   0.893   2.211   5.780
 1599SOL    HW1 5333   0.933   2.273   5.719
 1599SOL    HW2 5334   0.910   2.125   5.741
 1600SOL     OW 5335   1.709   2.437   7.415
 1600SOL    HW1 5336   1.671   2.511   7.368
 1600SOL    HW2 5337   1.736   2.376   7.347
 1601SOL     OW 5338   1.377   3.004   6.127
 1601SOL    HW1 5339   1.456   2.991   6.074
 1601SOL    HW2 5340   1.324   3.066   6.077
 1602SOL     OW 5341   0.555   2.045   6.479
 1602SOL    HW1 5342   0.553   2.073   6.571
 1602SOL    HW2 5343   0.551   2.126   6.429
 1603SOL     OW 5344   1.005   3.306   6.058
 1603SOL    HW1 5345   0.968   3.379   6.009
 1603SOL    HW2 5346   0.988   3.328   6.150
 1604SOL     OW 5347   0.357   3.665   6.456
 1604SOL    HW1 5348   0.397   3.579   6.469
 1604SOL    HW2 5349   0.423   3.727   6.485
 1605SOL     OW 5350   1.798   2.918   6.455
 1605SOL    HW1 5351   1.743   2.902   6.378
 1605SOL    HW2 5352   1.736   2.924   6.527
 1606SOL     OW 5353   1.228   3.401   7.099
 1606SOL    HW1 5354   1.214   3.328   7.159
 1606SOL    HW2 5355   1.164   3.387   7.029
 1607SOL     OW 5356   0.316   2.814   5.834
 1607SOL    HW1 5357   0.397   2.838   5.790
 1607SOL    HW2 5358   0.293   2.728   5.797
 1608SOL     OW 5359   1.478   2.604   6.313
 1608SOL    HW1 5360   1.470   2.562   6.398
 1608SOL    HW2 5361   1.556   2.660   6.321
 1609SOL     OW 5362   0.464   3.125   7.323
 1609SOL    HW1 5363   0.438   3.131   7.232
 1609SOL    HW2 5364   0.382   3.126   7.372
 1610SOL     OW 5365   1.122   3.640   5.817
 1610SOL    HW1 5366   1.049   3.597   5.862
 1610SOL    HW2 5367   1.145   3.578   5.747
 1611SOL     OW 5368   0.205   2.142   7.084
 1611SOL    HW1 5369   0.125   2.193   7.066
 1611SOL    HW2 5370   0.173   2.062   7.127
 1612SOL     OW 5371   1.629   3.242   5.674
 1612SOL    HW1 5372   1.587   3.327   5.659
 1612SOL    HW2 5373   1.560   3.178   5.654
 1613SOL     OW 5374   0.471   3.597   5.906
 1613SOL    HW1 5375   0.514   3.655   5.969
 1613SOL    HW2 5376   0.542   3.566   5.849
 1614SOL     OW 5377   1.401   1.969   6.019
 1614SOL    HW1 5378   1.391   1.945   5.927
 1614SOL    HW2 5379   1.496   1.976   6.032
 1615SOL     OW 5380   0.276   3.663   6.799
 1615SOL    HW1 5381   0.307   3.586   6.847
 1615SOL    HW2 5382   0.225   3.628   6.726
 1616SOL     OW 5383   0.939   3.561   6.485
 1616SOL    HW1 5384   1.017   3.509   6.506
 1616SOL    HW2 5385   0.894   3.511   6.416
 1617SOL     OW 5386   0.386   2.558   6.065
 1617SOL    HW1 5387   0.415   2.467   6.074
 1617SOL    HW2 5388   0.292   2.555   6.086
 1618SOL     OW 5389   1.535   2.087   7.311
 1618SOL    HW1 5390   1.545   2.108   7.404
 1618SOL    HW2 5391   1.466   2.021   7.309
 1619SOL     OW 5392   0.633   1.984   5.692
 1619SOL    HW1 5393   0.704   1.921   5.703
 1619SOL    HW2 5394   0.585   1.953   5.615
 1620SOL     OW 5395   0.766   2.138   7.339
 1620SOL    HW1 5396   0.842   2.081   7.341
 1620SOL    HW2 5397   0.723   2.125   7.424
 1621SOL     OW 5398   0.877   3.384   6.779
 1621SOL    HW1 5399   0.861   3.347   6.692
 1621SOL    HW2 5400   0.947   3.329   6.815
 1622SOL     OW 5401   1.341   2.451   7.018
 1622SOL    HW1 5402   1.371   2.420   7.103
 1622SOL    HW2 5403   1.376   2.539   7.010
 1623SOL     OW 5404   0.816   3.256   6.526
 1623SOL    HW1 5405   0.900   3.245   6.482
 1623SOL    HW2 5406   0.751   3.258   6.455
 1624SOL     OW 5407   0.928   2.371   6.489
 1624SOL    HW1 5408   0.904   2.363   6.397
 1624SOL    HW2 5409   0.959   2.284   6.514
 1625SOL     OW 5410   0.560   1.923   6.082
 1625SOL    HW1 5411   0.485   1.923   6.141
 1625SOL    HW2 5412   0.550   2.003   6.030
 1626SOL     OW 5413   1.428   3.060   5.627
 1626SOL    HW1 5414   1.458   2.985   5.677
 1626SOL    HW2 5415   1.343   3.081   5.664
 1627SOL     OW 5416   0.305   1.909   5.765
 1627SOL    HW1 5417   0.367   1.973   5.730
 1627SOL    HW2 5418   0.360   1.844   5.810
 1628SOL     OW 5419   0.940   2.109   6.046
 1628SOL    HW1 5420   0.912   2.150   5.964
 1628SOL    HW2 5421   1.034   2.123   6.050
 1629SOL     OW 5422   1.080   2.543   7.046
 1629SOL    HW1 5423   1.011   2.476   7.050
 1629SOL    HW2 5424   1.161   2.493   7.039
 1630SOL     OW 5425   1.223   3.432   6.380
 1630SOL    HW1 5426   1.239   3.499   6.313
 1630SOL    HW2 5427   1.291   3.446   6.445
 1631SOL     OW 5428   0.467   3.012   6.317
 1631SOL    HW1 5429   0.398   2.992   6.381
 1631SOL    HW2 5430   0.428   2.994   6.232
 1632SOL     OW 5431   1.269   3.656   6.194
 1632SOL    HW1 5432   1.315   3.717   6.137
 1632SOL    HW2 5433   1.202   3.709   6.238
 1633SOL     OW 5434   1.023   2.404   5.609
 1633SOL    HW1 5435   0.981   2.487   5.589
 1633SOL    HW2 5436   1.089   2.425   5.675
 1634SOL     OW 5437   0.088   2.406   6.985
 1634SOL    HW1 5438   0.175   2.414   6.947
 1634SOL    HW2 5439   0.080   2.483   7.042
 1635SOL     OW 5440   0.560   2.090   6.752
 1635SOL    HW1 5441   0.598   2.010   6.790
 1635SOL    HW2 5442   0.469   2.088   6.780
 1636SOL     OW 5443   0.868   2.321   6.226
 1636SOL    HW1 5444   0.822   2.375   6.161
 1636SOL    HW2 5445   0.889   2.240   6.178
 1637SOL     OW 5446   1.015   1.915   6.337
 1637SOL    HW1 5447   0.957   1.908   6.262
 1637SOL    HW2 5448   0.994   1.840   6.392
 1638SOL     OW 5449   1.437   3.025   6.443
 1638SOL    HW1 5450   1.368   2.959   6.442
 1638SOL    HW2 5451   1.462   3.036   6.352
 1639SOL     OW 5452   1.466   2.467   6.563
 1639SOL    HW1 5453   1.415   2.386   6.566
 1639SOL    HW2 5454   1.526   2.461   6.637
 1640SOL     OW 5455   1.846   2.678   5.969
 1640SOL    HW1 5456   1.903   2.627   6.027
 1640SOL    HW2 5457   1.817   2.616   5.902
 1641SOL     OW 5458   0.492   3.280   5.744
 1641SOL    HW1 5459   0.416   3.252   5.796
 1641SOL    HW2 5460   0.475   3.243   5.657
 1642SOL     OW 5461   1.670   3.126   6.232
 1642SOL    HW1 5462   1.765   3.129   6.246
 1642SOL    HW2 5463   1.640   3.214   6.253
 1643SOL     OW 5464   1.394   2.434   5.657
 1643SOL    HW1 5465   1.333   2.414   5.729
 1643SOL    HW2 5466   1.479   2.402   5.688
 1644SOL     OW 5467   0.524   2.125   5.903
 1644SOL    HW1 5468   0.569   2.078   5.833
 1644SOL    HW2 5469   0.502   2.210   5.864
 1645SOL     OW 5470   1.752   3.101   7.159
 1645SOL    HW1 5471   1.840   3.063   7.153
 1645SOL    HW2 5472   1.767   3.191   7.189
 1646SOL     OW 5473   1.059   3.215   6.919
 1646SOL    HW1 5474   0.984   3.184   6.971
 1646SOL    HW2 5475   1.135   3.174   6.961
 1647SOL     OW 5476   1.607   3.487   7.238
 1647SOL    HW1 5477   1.602   3.521   7.149
 1647SOL    HW2 5478   1.690   3.440   7.241
 1648SOL     OW 5479   1.128   3.065   6.691
 1648SOL    HW1 5480   1.070   3.104   6.756
 1648SOL    HW2 5481   1.096   3.098   6.607
 1649SOL     OW 5482   1.628   2.960   6.664
 1649SOL    HW1 5483   1.623   3.022   6.736
 1649SOL    HW2 5484   1.549   2.977   6.612
 1650SOL     OW 5485   0.918   1.958   6.983
 1650SOL    HW1 5486   0.941   1.940   6.891
 1650SOL    HW2 5487   0.997   1.998   7.019
 1651SOL     OW 5488   0.984   2.976   7.311
 1651SOL    HW1 5489   0.892   2.993   7.329
 1651SOL    HW2 5490   0.984   2.898   7.254
 1652SOL     OW 5491   0.707   2.922   5.958
 1652SOL    HW1 5492   0.696   2.906   6.052
 1652SOL    HW2 5493   0.784   2.869   5.934
 1653SOL     OW 5494   0.420   2.681   6.838
 1653SOL    HW1 5495   0.489   2.688   6.904
 1653SOL    HW2 5496   0.386   2.592   6.849
 1654SOL     OW 5497   1.265   2.239   6.861
 1654SOL    HW1 5498   1.298   2.316   6.907
 1654SOL    HW2 5499   1.175   2.261   6.838
 1655SOL     OW 5500   0.102   3.485   6.953
 1655SOL    HW1 5501   0.079   3.493   6.860
 1655SOL    HW2 5502   0.188   3.443   6.953
 1656SOL     OW 5503   0.343   2.968   6.073
 1656SOL    HW1 5504   0.352   3.047   6.020
 1656SOL    HW2 5505   0.352   2.896   6.011
 1657SOL     OW 5506   0.554   2.398   6.445
 1657SOL    HW1 5507   0.570   2.457   6.371
 1657SOL    HW2 5508   0.619   2.425   6.511
 1658SOL     OW 5509   1.248   3.210   5.975
 1658SOL    HW1 5510   1.304   3.282   6.006
 1658SOL    HW2 5511   1.161   3.232   6.009
 1659SOL     OW 5512   1.281   3.319   6.733
 1659SOL    HW1 5513   1.337   3.323   6.811
 1659SOL    HW2 5514   1.226   3.243   6.747
 1660SOL     OW 5515   1.582   2.484   6.065
 1660SOL    HW1 5516   1.535   2.538   6.129
 1660SOL    HW2 5517   1.626   2.548   6.009
 1661SOL     OW 5518   0.352   3.381   6.897
 1661SOL    HW1 5519   0.342   3.338   6.812
 1661SOL    HW2 5520   0.445   3.399   6.903
 1662SOL     OW 5521   0.414   2.605   7.188
 1662SOL    HW1 5522   0.475   2.651   7.131
 1662SOL    HW2 5523   0.453   2.518   7.200
 1663SOL     OW 5524   1.601   2.640   7.268
 1663SOL    HW1 5525   1.515   2.682   7.261
 1663SOL    HW2 5526   1.653   2.682   7.200
 1664SOL     OW 5527   0.996   1.986   7.341
 1664SOL    HW1 5528   1.052   2.058   7.313
 1664SOL    HW2 5529   1.045   1.907   7.315
 1665SOL     OW 5530   0.498   1.903   7.333
 1665SOL    HW1 5531   0.456   1.849   7.266
 1665SOL    HW2 5532   0.439   1.977   7.345
 1666SOL     OW 5533   0.585   2.736   6.618
 1666SOL    HW1 5534   0.617   2.826   6.618
 1666SOL    HW2 5535   0.529   2.731   6.695
 1667SOL     OW 5536   1.358   2.721   6.616
 1667SOL    HW1 5537   1.275   2.711   6.569
 1667SOL    HW2 5538   1.398   2.634   6.610
 1668SOL     OW 5539   1.205   2.390   5.853
 1668SOL    HW1 5540   1.213   2.312   5.908
 1668SOL    HW2 5541   1.162   2.455   5.909
 1669SOL     OW 5542   0.301   2.065   6.834
 1669SOL    HW1 5543   0.267   2.090   6.920
 1669SOL    HW2 5544   0.289   1.971   6.829
 1670SOL     OW 5545   0.068   3.180   6.866
 1670SOL    HW1 5546   0.091   3.121   6.938
 1670SOL    HW2 5547   5.299   3.235   6.902
 1671SOL     OW 5548   0.724   2.493   6.644
 1671SOL    HW1 5549   0.799   2.477   6.586
 1671SOL    HW2 5550   0.696   2.582   6.623
 1672SOL     OW 5551   1.735   2.822   7.438
 1672SOL    HW1 5552   1.687   2.761   7.382
 1672SOL    HW2 5553   1.677   2.836   7.514
 1673SOL     OW 5554   0.327   1.924   6.220
 1673SOL    HW1 5555   0.307   2.013   6.248
 1673SOL    HW2 5556   0.332   1.874   6.302
 1674SOL     OW 5557   1.616   2.236   5.953
 1674SOL    HW1 5558   1.644   2.172   6.019
 1674SOL    HW2 5559   1.594   2.314   6.003
 1675SOL     OW 5560   1.028   2.621   6.546
 1675SOL    HW1 5561   1.024   2.639   6.640
 1675SOL    HW2 5562   1.001   2.529   6.538
 1676SOL     OW 5563   0.981   3.427   7.303
 1676SOL    HW1 5564   0.967   3.472   7.219
 1676SOL    HW2 5565   1.026   3.346   7.279
 1677SOL     OW 5566   1.854   3.368   7.191
 1677SOL    HW1 5567   1.873   3.394   7.101
 1677SOL    HW2 5568   1.936   3.386   7.238
 1678SOL     OW 5569   0.354   2.777   7.394
 1678SOL    HW1 5570   0.436   2.800   7.438
 1678SOL    HW2 5571   0.378   2.714   7.327
 1679SOL     OW 5572   1.529   2.135   5.713
 1679SOL    HW1 5573   1.464   2.070   5.740
 1679SOL    HW2 5574   1.562   2.171   5.796
 1680SOL     OW 5575   1.291   2.688   5.617
 1680SOL    HW1 5576   1.335   2.603   5.620
 1680SOL    HW2 5577   1.323   2.728   5.535
 1681SOL     OW 5578   1.066   3.197   6.440
 1681SOL    HW1 5579   1.069   3.125   6.377
 1681SOL    HW2 5580   1.127   3.262   6.405
 1682SOL     OW 5581   0.314   2.672   6.536
 1682SOL    HW1 5582   0.408   2.690   6.532
 1682SOL    HW2 5583   0.308   2.582   6.567
 1683SOL     OW 5584   0.335   2.388   6.601
 1683SOL    HW1 5585   0.300   2.300   6.587
 1683SOL    HW2 5586   0.410   2.394   6.542
 1684SOL     OW 5587   1.134   2.237   7.267
 1684SOL    HW1 5588   1.087   2.293   7.329
 1684SOL    HW2 5589   1.222   2.276   7.263
 1685SOL     OW 5590   1.161   2.064   7.056
 1685SOL    HW1 5591   1.150   2.127   7.127
 1685SOL    HW2 5592   1.200   2.115   6.985
 1686SOL     OW 5593   0.002   3.192   5.796
 1686SOL    HW1 5594   5.228   3.180   5.736
 1686SOL    HW2 5595   0.012   3.106   5.838
 1687SOL     OW 5596   0.093   3.644   6.537
 1687SOL    HW1 5597   0.059   3.574   6.481
 1687SOL    HW2 5598   0.180   3.662   6.502
 1688SOL     OW 5599   0.505   3.435   6.494
 1688SOL    HW1 5600   0.572   3.501   6.514
 1688SOL    HW2 5601   0.548   3.374   6.434
 1689SOL     OW 5602   0.983   2.654   6.812
 1689SOL    HW1 5603   1.039   2.631   6.887
 1689SOL    HW2 5604   0.897   2.616   6.835
 1690SOL     OW 5605   0.033   2.424   6.702
 1690SOL    HW1 5606   0.119   2.398   6.668
 1690SOL    HW2 5607   0.037   2.405   6.796
 1691SOL     OW 5608   0.175   2.375   7.302
 1691SOL    HW1 5609   0.238   2.336   7.242
 1691SOL    HW2 5610   0.146   2.455   7.259
 1692SOL     OW 5611   1.376   2.801   7.245
 1692SOL    HW1 5612   1.398   2.894   7.244
 1692SOL    HW2 5613   1.374   2.775   7.153
 1693SOL     OW 5614   0.816   2.431   5.946
 1693SOL    HW1 5615   0.821   2.356   5.886
 1693SOL    HW2 5616   0.742   2.483   5.914
 1694SOL     OW 5617   1.641   2.463   6.772
 1694SOL    HW1 5618   1.631   2.404   6.847
 1694SOL    HW2 5619   1.728   2.443   6.737
 1695SOL     OW 5620   0.255   3.418   7.321
 1695SOL    HW1 5621   0.233   3.479   7.391
 1695SOL    HW2 5622   0.250   3.332   7.363
 1696SOL     OW 5623   0.701   2.312   6.846
 1696SOL    HW1 5624   0.649   2.238   6.816
 1696SOL    HW2 5625   0.697   2.375   6.774
 1697SOL     OW 5626   0.928   3.541   7.053
 1697SOL    HW1 5627   0.902   3.507   6.968
 1697SOL    HW2 5628   0.923   3.636   7.044
 1698SOL     OW 5629   0.465   2.355   5.771
 1698SOL    HW1 5630   0.525   2.426   5.793
 1698SOL    HW2 5631   0.380   2.398   5.759
 1699SOL     OW 5632   0.148   2.999   7.057
 1699SOL    HW1 5633   0.145   2.950   7.139
 1699SOL    HW2 5634   0.160   2.932   6.990
 1700SOL     OW 5635   1.326   2.909   6.809
 1700SOL    HW1 5636   1.349   2.846   6.741
 1700SOL    HW2 5637   1.255   2.961   6.770
 1701SOL     OW 5638   1.311   2.718   5.892
 1701SOL    HW1 5639   1.235   2.689   5.942
 1701SOL    HW2 5640   1.287   2.705   5.800
 1702SOL     OW 5641   1.771   3.606   6.736
 1702SOL    HW1 5642   1.832   3.632   6.666
 1702SOL    HW2 5643   1.748   3.516   6.715
 1703SOL     OW 5644   1.241   3.595   6.699
 1703SOL    HW1 5645   1.323   3.616   6.654
 1703SOL    HW2 5646   1.247   3.501   6.717
 1704SOL     OW 5647   0.083   3.079   6.613
 1704SOL    HW1 5648   0.070   3.104   6.705
 1704SOL    HW2 5649   5.294   3.068   6.579
 1705SOL     OW 5650   0.677   3.527   7.314
 1705SOL    HW1 5651   0.623   3.606   7.310
 1705SOL    HW2 5652   0.743   3.539   7.246
 1706SOL     OW 5653   1.720   2.009   6.096
 1706SOL    HW1 5654   1.792   1.994   6.035
 1706SOL    HW2 5655   1.704   1.923   6.136
 1707SOL     OW 5656   1.390   3.430   6.071
 1707SOL    HW1 5657   1.451   3.462   6.004
 1707SOL    HW2 5658   1.342   3.507   6.099
 1708SOL     OW 5659   0.141   3.661   7.429
 1708SOL    HW1 5660   0.089   3.597   7.477
 1708SOL    HW2 5661   0.195   3.704   7.496
 1709SOL     OW 5662   1.277   2.787   6.257
 1709SOL    HW1 5663   1.351   2.727   6.264
 1709SOL    HW2 5664   1.311   2.860   6.204
 1710SOL     OW 5665   0.814   3.135   7.016
 1710SOL    HW1 5666   0.786   3.175   7.098
 1710SOL    HW2 5667   0.745   3.156   6.954
 1711SOL     OW 5668   0.672   3.481   5.741
 1711SOL    HW1 5669   0.683   3.494   5.647
 1711SOL    HW2 5670   0.617   3.403   5.749
 1712SOL     OW 5671   1.626   3.589   6.977
 1712SOL    HW1 5672   1.676   3.595   6.895
 1712SOL    HW2 5673   1.612   3.679   7.004
 1713SOL     OW 5674   1.841   2.035   6.553
 1713SOL    HW1 5675   1.869   1.948   6.526
 1713SOL    HW2 5676   1.754   2.045   6.513
 1714SOL     OW 5677   0.273   2.179   6.303
 1714SOL    HW1 5678   0.188   2.218   6.283
 1714SOL    HW2 5679   0.272   2.168   6.398
 1715SOL     OW 5680   1.207   3.468   5.618
 1715SOL    HW1 5681   1.198   3.376   5.644
 1715SOL    HW2 5682   1.142   3.480   5.548
 1716SOL     OW 5683   0.824   2.868   6.958
 1716SOL    HW1 5684   0.868   2.863   6.873
 1716SOL    HW2 5685   0.823   2.961   6.980
 1717SOL     OW 5686   0.915   2.772   5.876
 1717SOL    HW1 5687   0.976   2.804   5.809
 1717SOL    HW2 5688   0.963   2.703   5.921
 1718SOL     OW 5689   1.492   3.487   5.629
 1718SOL    HW1 5690   1.397   3.481   5.615
 1718SOL    HW2 5691   1.528   3.493   5.540
 1719SOL     OW 5692   0.367   3.166   7.079
 1719SOL    HW1 5693   0.359   3.240   7.019
 1719SOL    HW2 5694   0.292   3.111   7.060
 1720SOL     OW 5695   1.610   3.144   6.866
 1720SOL    HW1 5696   1.671   3.134   6.939
 1720SOL    HW2 5697   1.550   3.214   6.894
 1721SOL     OW 5698   1.052   2.969   6.292
 1721SOL    HW1 5699   0.981   2.918   6.332
 1721SOL    HW2 5700   1.115   2.904   6.261
 1722SOL     OW 5701   1.021   2.102   6.552
 1722SOL    HW1 5702   1.017   2.055   6.469
 1722SOL    HW2 5703   1.016   2.035   6.619
 1723SOL     OW 5704   0.601   3.349   6.067
 1723SOL    HW1 5705   0.646   3.301   5.998
 1723SOL    HW2 5706   0.535   3.400   6.021
 1724SOL     OW 5707   1.722   2.254   6.967
 1724SOL    HW1 5708   1.794   2.318   6.965
 1724SOL    HW2 5709   1.752   2.183   6.910
 1725SOL     OW 5710   0.260   3.210   5.878
 1725SOL    HW1 5711   0.167   3.212   5.856
 1725SOL    HW2 5712   0.264   3.247   5.967
 1726SOL     OW 5713   0.116   2.876   7.302
 1726SOL    HW1 5714   0.045   2.846   7.358
 1726SOL    HW2 5715   0.195   2.846   7.347
 1727SOL     OW 5716   0.674   2.058   7.085
 1727SOL    HW1 5717   0.758   2.038   7.044
 1727SOL    HW2 5718   0.697   2.088   7.173
 1728SOL     OW 5719   0.082   2.212   5.627
 1728SOL    HW1 5720   0.003   2.163   5.603
 1728SOL    HW2 5721   0.098   2.269   5.552
 1729SOL     OW 5722   1.430   2.720   6.986
 1729SOL    HW1 5723   1.381   2.781   6.931
 1729SOL    HW2 5724   1.519   2.723   6.953
 1730SOL     OW 5725   0.056   1.995   5.829
 1730SOL    HW1 5726   0.055   2.090   5.820
 1730SOL    HW2 5727   0.146   1.970   5.807
 1731SOL     OW 5728   1.179   3.201   5.703
 1731SOL    HW1 5729   1.088   3.171   5.706
 1731SOL    HW2 5730   1.207   3.202   5.795
 1732SOL     OW 5731   0.619   2.693   7.021
 1732SOL    HW1 5732   0.676   2.769   7.005
 1732SOL    HW2 5733   0.680   2.619   7.029
 1733SOL     OW 5734   1.484   3.639   6.565
 1733SOL    HW1 5735   1.508   3.698   6.494
 1733SOL    HW2 5736   1.567   3.620   6.609
 1734SOL     OW 5737   0.717   2.426   7.291
 1734SOL    HW1 5738   0.758   2.488   7.351
 1734SOL    HW2 5739   0.746   2.340   7.322
 1735SOL     OW 5740   1.471   3.062   7.218
 1735SOL    HW1 5741   1.459   3.075   7.312
 1735SOL    HW2 5742   1.565   3.077   7.203
 1736SOL     OW 5743   0.377   3.605   7.150
 1736SOL    HW1 5744   0.295   3.650   7.134
 1736SOL    HW2 5745   0.352   3.524   7.195
 1737SOL     OW 5746   1.670   2.743   6.841
 1737SOL    HW1 5747   1.662   2.658   6.798
 1737SOL    HW2 5748   1.660   2.807   6.770
 1738SOL     OW 5749   1.217   2.181   6.044
 1738SOL    HW1 5750   1.280   2.110   6.035
 1738SOL    HW2 5751   1.246   2.230   6.121
 1739SOL     OW 5752   0.590   2.599   6.255
 1739SOL    HW1 5753   0.629   2.685   6.240
 1739SOL    HW2 5754   0.521   2.592   6.189
 1740SOL     OW 5755   1.762   2.224   7.237
 1740SOL    HW1 5756   1.745   2.239   7.144
 1740SOL    HW2 5757   1.691   2.167   7.265
 1741SOL     OW 5758   1.744   2.795   7.098
 1741SOL    HW1 5759   1.742   2.890   7.112
 1741SOL    HW2 5760   1.729   2.784   7.005
 1742SOL     OW 5761   0.862   3.229   5.620
 1742SOL    HW1 5762   0.824   3.258   5.703
 1742SOL    HW2 5763   0.881   3.310   5.572
 1743SOL     OW 5764   0.663   3.655   6.529
 1743SOL    HW1 5765   0.642   3.746   6.507
 1743SOL    HW2 5766   0.758   3.651   6.523
 1744SOL     OW 5767   0.867   2.828   6.440
 1744SOL    HW1 5768   0.918   2.757   6.480
 1744SOL    HW2 5769   0.833   2.878   6.515
 1745SOL     OW 5770   1.078   2.849   5.674
 1745SOL    HW1 5771   1.057   2.901   5.596
 1745SOL    HW2 5772   1.153   2.796   5.649
 1746SOL     OW 5773   1.854   3.417   6.430
 1746SOL    HW1 5774   1.775   3.404   6.377
 1746SOL    HW2 5775   1.847   3.350   6.498
 1747SOL     OW 5776   0.225   3.166   7.446
 1747SOL    HW1 5777   0.156   3.106   7.419
 1747SOL    HW2 5778   0.212   3.178   7.540
 1748SOL     OW 5779   0.087   3.082   6.241
 1748SOL    HW1 5780   0.101   3.050   6.330
 1748SOL    HW2 5781   0.173   3.076   6.200
 1749SOL     OW 5782   0.681   3.264   7.214
 1749SOL    HW1 5783   0.600   3.222   7.244
 1749SOL    HW2 5784   0.677   3.352   7.250
 1750SOL     OW 5785   1.814   2.046   6.824
 1750SOL    HW1 5786   1.822   1.952   6.838
 1750SOL    HW2 5787   1.822   2.057   6.729
 1751SOL     OW 5788   0.434   2.298   6.110
 1751SOL    HW1 5789   0.462   2.225   6.054
 1751SOL    HW2 5790   0.387   2.256   6.182
 1752SOL     OW 5791   1.700   3.352   6.683
 1752SOL    HW1 5792   1.619   3.328   6.637
 1752SOL    HW2 5793   1.712   3.282   6.747
 1753SOL     OW 5794   0.336   2.421   6.877
 1753SOL    HW1 5795   0.390   2.362   6.931
 1753SOL    HW2 5796   0.350   2.392   6.788
 1754SOL     OW 5797   0.828   3.439   6.264
 1754SOL    HW1 5798   0.816   3.494   6.187
 1754SOL    HW2 5799   0.751   3.382   6.266
 1755SOL     OW 5800   1.432   2.087   6.704
 1755SOL    HW1 5801   1.456   2.007   6.750
 1755SOL    HW2 5802   1.380   2.137   6.768
 1756SOL     OW 5803   1.009   1.881   6.728
 1756SOL    HW1 5804   0.954   1.813   6.688
 1756SOL    HW2 5805   1.097   1.843   6.730
 1757SOL     OW 5806   0.771   3.195   5.901
 1757SOL    HW1 5807   0.742   3.104   5.907
 1757SOL    HW2 5808   0.854   3.196   5.950
 1758SOL     OW 5809   0.623   3.418   6.873
 1758SOL    HW1 5810   0.624   3.500   6.922
 1758SOL    HW2 5811   0.710   3.412   6.834
 1759SOL     OW 5812   1.352   1.916   5.752
 1759SOL    HW1 5813   1.381   1.852   5.686
 1759SOL    HW2 5814   1.265   1.886   5.778
 1760SOL     OW 5815   1.296   2.323   6.267
 1760SOL    HW1 5816   1.243   2.402   6.274
 1760SOL    HW2 5817   1.292   2.283   6.354
 1761SOL     OW 5818   1.587   2.064   6.464
 1761SOL    HW1 5819   1.526   2.085   6.535
 1761SOL    HW2 5820   1.586   2.142   6.409
 1762SOL     OW 5821   0.048   2.931   5.877
 1762SOL    HW1 5822   0.137   2.898   5.865
 1762SOL    HW2 5823   5.300   2.855   5.911
 1763SOL     OW 5824   0.885   3.514   5.928
 1763SOL    HW1 5825   0.812   3.498   5.868
 1763SOL    HW2 5826   0.857   3.589   5.980
 1764SOL     OW 5827   0.230   2.492   7.567
 1764SOL    HW1 5828   0.155   2.452   7.611
 1764SOL    HW2 5829   0.222   2.464   7.476
 1765SOL     OW 5830   1.767   2.460   7.679
 1765SOL    HW1 5831   1.748   2.456   7.586
 1765SOL    HW2 5832   1.726   2.382   7.716
 1766SOL     OW 5833   0.230   3.568   7.921
 1766SOL    HW1 5834   0.264   3.613   7.998
 1766SOL    HW2 5835   0.300   3.575   7.856
 1767SOL     OW 5836   0.217   3.298   7.991
 1767SOL    HW1 5837   0.209   3.393   7.983
 1767SOL    HW2 5838   0.154   3.274   8.059
 1768SOL     OW 5839   0.583   2.846   7.581
 1768SOL    HW1 5840   0.628   2.894   7.511
 1768SOL    HW2 5841   0.624   2.876   7.662
 1769SOL     OW 5842   1.837   3.621   7.797
 1769SOL    HW1 5843   1.908   3.591   7.854
 1769SOL    HW2 5844   1.863   3.710   7.772
 1770SOL     OW 5845   0.036   3.464   7.582
 1770SOL    HW1 5846   0.028   3.371   7.603
 1770SOL    HW2 5847   5.277   3.507   7.643
 1771SOL     OW 5848   1.681   2.728   8.036
 1771SOL    HW1 5849   1.763   2.739   0.005
 1771SOL    HW2 5850   1.670   2.811   7.990
 1772SOL     OW 5851   1.655   2.960   7.877
 1772SOL    HW1 5852   1.742   2.986   7.847
 1772SOL    HW2 5853   1.627   3.032   7.933
 1773SOL     OW 5854   0.799   1.857   7.938
 1773SOL    HW1 5855   0.849   1.937   7.922
 1773SOL    HW2 5856   0.709   1.886   7.948
 1774SOL     OW 5857   1.533   2.857   7.649
 1774SOL    HW1 5858   1.466   2.796   7.683
 1774SOL    HW2 5859   1.576   2.891   7.727
 1775SOL     OW 5860   0.589   2.586   7.708
 1775SOL    HW1 5861   0.596   2.667   7.658
 1775SOL    HW2 5862   0.533   2.608   7.782
 1776SOL     OW 5863   1.574   3.533   7.757
 1776SOL    HW1 5864   1.665   3.562   7.766
 1776SOL    HW2 5865   1.562   3.520   7.663
 1777SOL     OW 5866   0.058   2.686   0.202
 1777SOL    HW1 5867   0.122   2.624   0.170
 1777SOL    HW2 5868   0.031   2.736   0.124
 1778SOL     OW 5869   0.881   2.209   7.636
 1778SOL    HW1 5870   0.927   2.269   7.577
 1778SOL    HW2 5871   0.917   2.123   7.614
 1779SOL     OW 5872   0.318   2.810   7.694
 1779SOL    HW1 5873   0.399   2.837   7.650
 1779SOL    HW2 5874   0.295   2.727   7.652
 1780SOL     OW 5875   1.123   3.638   7.682
 1780SOL    HW1 5876   1.047   3.598   7.723
 1780SOL    HW2 5877   1.147   3.577   7.611
 1781SOL     OW 5878   1.628   3.242   7.534
 1781SOL    HW1 5879   1.586   3.327   7.520
 1781SOL    HW2 5880   1.559   3.178   7.515
 1782SOL     OW 5881   0.470   3.599   7.769
 1782SOL    HW1 5882   0.515   3.653   7.834
 1782SOL    HW2 5883   0.539   3.565   7.713
 1783SOL     OW 5884   1.416   1.993   7.864
 1783SOL    HW1 5885   1.403   1.959   7.776
 1783SOL    HW2 5886   1.510   1.992   7.877
 1784SOL     OW 5887   0.379   2.562   7.923
 1784SOL    HW1 5888   0.399   2.468   7.927
 1784SOL    HW2 5889   0.285   2.567   7.938
 1785SOL     OW 5890   0.627   1.981   7.559
 1785SOL    HW1 5891   0.704   1.925   7.568
 1785SOL    HW2 5892   0.584   1.951   7.479
 1786SOL     OW 5893   0.527   1.937   7.961
 1786SOL    HW1 5894   0.439   1.942   8.000
 1786SOL    HW2 5895   0.528   2.007   7.896
 1787SOL     OW 5896   1.428   3.060   7.489
 1787SOL    HW1 5897   1.459   2.986   7.542
 1787SOL    HW2 5898   1.344   3.083   7.527
 1788SOL     OW 5899   0.306   1.906   7.619
 1788SOL    HW1 5900   0.368   1.970   7.584
 1788SOL    HW2 5901   0.361   1.843   7.667
 1789SOL     OW 5902   0.944   2.087   7.910
 1789SOL    HW1 5903   0.900   2.153   7.856
 1789SOL    HW2 5904   1.035   2.117   7.914
 1790SOL     OW 5905   0.447   3.021   0.090
 1790SOL    HW1 5906   0.375   3.043   0.149
 1790SOL    HW2 5907   0.405   3.003   0.006
 1791SOL     OW 5908   1.291   3.673   8.014
 1791SOL    HW1 5909   1.326   3.742   7.958
 1791SOL    HW2 5910   1.207   3.707   8.044
 1792SOL     OW 5911   1.025   2.404   7.467
 1792SOL    HW1 5912   0.981   2.487   7.450
 1792SOL    HW2 5913   1.086   2.423   7.538
 1793SOL     OW 5914   1.868   2.680   7.800
 1793SOL    HW1 5915   1.872   2.649   7.891
 1793SOL    HW2 5916   1.830   2.607   7.751
 1794SOL     OW 5917   0.490   3.278   7.605
 1794SOL    HW1 5918   0.415   3.249   7.658
 1794SOL    HW2 5919   0.472   3.243   7.518
 1795SOL     OW 5920   1.394   2.434   7.519
 1795SOL    HW1 5921   1.333   2.414   7.590
 1795SOL    HW2 5922   1.478   2.402   7.550
 1796SOL     OW 5923   0.527   2.128   7.770
 1796SOL    HW1 5924   0.570   2.077   7.701
 1796SOL    HW2 5925   0.503   2.210   7.729
 1797SOL     OW 5926   0.710   2.923   7.813
 1797SOL    HW1 5927   0.692   2.912   7.907
 1797SOL    HW2 5928   0.789   2.871   7.798
 1798SOL     OW 5929   0.345   2.957   7.928
 1798SOL    HW1 5930   0.345   3.041   7.882
 1798SOL    HW2 5931   0.348   2.892   7.858
 1799SOL     OW 5932   1.223   3.218   7.821
 1799SOL    HW1 5933   1.286   3.287   7.845
 1799SOL    HW2 5934   1.184   3.191   7.904
 1800SOL     OW 5935   1.588   2.490   7.921
 1800SOL    HW1 5936   1.574   2.549   7.995
 1800SOL    HW2 5937   1.627   2.545   7.853
 1801SOL     OW 5938   1.204   2.388   7.714
 1801SOL    HW1 5939   1.205   2.305   7.763
 1801SOL    HW2 5940   1.182   2.454   7.780
 1802SOL     OW 5941   1.618   2.241   7.814
 1802SOL    HW1 5942   1.640   2.174   7.880
 1802SOL    HW2 5943   1.594   2.318   7.865
 1803SOL     OW 5944   1.530   2.136   7.575
 1803SOL    HW1 5945   1.464   2.071   7.601
 1803SOL    HW2 5946   1.562   2.172   7.658
 1804SOL     OW 5947   1.294   2.689   7.481
 1804SOL    HW1 5948   1.335   2.603   7.482
 1804SOL    HW2 5949   1.324   2.729   7.399
 1805SOL     OW 5950   0.003   3.195   7.656
 1805SOL    HW1 5951   5.221   3.192   7.607
 1805SOL    HW2 5952   0.013   3.107   7.691
 1806SOL     OW 5953   0.839   2.461   7.762
 1806SOL    HW1 5954   0.831   2.370   7.733
 1806SOL    HW2 5955   0.749   2.494   7.762
 1807SOL     OW 5956   0.462   2.355   7.639
 1807SOL    HW1 5957   0.523   2.427   7.654
 1807SOL    HW2 5958   0.378   2.398   7.624
 1808SOL     OW 5959   1.310   2.710   7.755
 1808SOL    HW1 5960   1.223   2.722   7.793
 1808SOL    HW2 5961   1.294   2.702   7.661
 1809SOL     OW 5962   1.712   2.009   7.948
 1809SOL    HW1 5963   1.789   2.001   7.891
 1809SOL    HW2 5964   1.714   1.930   8.002
 1810SOL     OW 5965   1.364   3.439   7.896
 1810SOL    HW1 5966   1.439   3.459   7.840
 1810SOL    HW2 5967   1.332   3.524   7.926
 1811SOL     OW 5968   0.668   3.481   7.603
 1811SOL    HW1 5969   0.680   3.493   7.509
 1811SOL    HW2 5970   0.616   3.402   7.611
 1812SOL     OW 5971   1.209   3.469   7.478
 1812SOL    HW1 5972   1.199   3.378   7.505
 1812SOL    HW2 5973   1.142   3.481   7.411
 1813SOL     OW 5974   0.925   2.772   7.755
 1813SOL    HW1 5975   0.979   2.796   7.680
 1813SOL    HW2 5976   0.922   2.676   7.752
 1814SOL     OW 5977   1.493   3.488   7.488
 1814SOL    HW1 5978   1.399   3.481   7.476
 1814SOL    HW2 5979   1.529   3.493   7.400
 1815SOL     OW 5980   0.606   3.368   7.935
 1815SOL    HW1 5981   0.650   3.308   7.875
 1815SOL    HW2 5982   0.534   3.404   7.884
 1816SOL     OW 5983   0.260   3.208   7.742
 1816SOL    HW1 5984   0.168   3.213   7.718
 1816SOL    HW2 5985   0.263   3.244   7.831
 1817SOL     OW 5986   0.081   2.203   7.488
 1817SOL    HW1 5987   5.298   2.163   7.463
 1817SOL    HW2 5988   0.099   2.266   7.418
 1818SOL     OW 5989   0.082   1.999   7.738
 1818SOL    HW1 5990   0.067   2.086   7.701
 1818SOL    HW2 5991   0.154   1.963   7.686
 1819SOL     OW 5992   1.177   3.200   7.556
 1819SOL    HW1 5993   1.084   3.175   7.556
 1819SOL    HW2 5994   1.200   3.206   7.649
 1820SOL     OW 5995   1.215   2.180   7.904
 1820SOL    HW1 5996   1.288   2.119   7.892
 1820SOL    HW2 5997   1.236   2.228   7.984
 1821SOL     OW 5998   0.623   2.601   8.050
 1821SOL    HW1 5999   0.628   2.679   0.024
 1821SOL    HW2 6000   0.532   2.598   8.020
 1822SOL     OW 6001   0.863   3.229   7.483
 1822SOL    HW1 6002   0.825   3.259   7.565
 1822SOL    HW2 6003   0.882   3.310   7.435
 1823SOL     OW 6004   1.072   2.840   7.537
 1823SOL    HW1 6005   1.053   2.897   7.463
 1823SOL    HW2 6006   1.151   2.792   7.511
 1824SOL     OW 6007   0.392   2.293   7.979
 1824SOL    HW1 6008   0.436   2.234   7.918
 1824SOL    HW2 6009   0.436   2.278   8.063
 1825SOL     OW 6010   0.765   3.197   7.762
 1825SOL    HW1 6011   0.736   3.106   7.763
 1825SOL    HW2 6012   0.847   3.196   7.811
 1826SOL     OW 6013   1.352   1.915   7.610
 1826SOL    HW1 6014   1.381   1.848   7.547
 1826SOL    HW2 6015   1.266   1.885   7.638
 1827SOL     OW 6016   0.048   2.932   7.722
 1827SOL    HW1 6017   0.137   2.898   7.721
 1827SOL    HW2 6018   0.000   2.872   7.779
 1828SOL     OW 6019   0.893   3.514   7.780
 1828SOL    HW1 6020   0.817   3.490   7.727
 1828SOL    HW2 6021   0.859   3.576   7.844
 1829SOL     OW 6022   0.226   4.347   0.114
 1829SOL    HW1 6023   0.155   4.307   0.165
 1829SOL    HW2 6024   0.231   4.295   0.034
 1830SOL     OW 6025   0.241   3.998   0.989
 1830SOL    HW1 6026   0.256   3.965   1.077
 1830SOL    HW2 6027   0.157   3.962   0.962
 1831SOL     OW 6028   5.296   4.120   0.649
 1831SOL    HW1 6029   5.205   4.148   0.658
 1831SOL    HW2 6030   5.290   4.027   0.628
 1832SOL     OW 6031   0.574   5.000   1.183
 1832SOL    HW1 6032   0.494   5.006   1.130
 1832SOL    HW2 6033   0.592   5.090   1.209
 1833SOL     OW 6034   1.556   5.233   0.688
 1833SOL    HW1 6035   1.533   5.229   0.781
 1833SOL    HW2 6036   1.478   5.269   0.645
 1834SOL     OW 6037   1.131   4.422   0.701
 1834SOL    HW1 6038   1.179   4.503   0.687
 1834SOL    HW2 6039   1.084   4.436   0.783
 1835SOL     OW 6040   1.770   4.324   0.233
 1835SOL    HW1 6041   1.731   4.325   0.145
 1835SOL    HW2 6042   1.730   4.249   0.275
 1836SOL     OW 6043   0.758   4.867   1.037
 1836SOL    HW1 6044   0.691   4.897   1.099
 1836SOL    HW2 6045   0.786   4.947   0.992
 1837SOL     OW 6046   0.867   4.499   1.822
 1837SOL    HW1 6047   0.855   4.571   1.884
 1837SOL    HW2 6048   0.890   4.542   1.740
 1838SOL     OW 6049   0.684   4.724   0.651
 1838SOL    HW1 6050   0.750   4.715   0.719
 1838SOL    HW2 6051   0.617   4.781   0.690
 1839SOL     OW 6052   0.708   4.872   1.812
 1839SOL    HW1 6053   0.756   4.951   1.836
 1839SOL    HW2 6054   0.625   4.904   1.776
 1840SOL     OW 6055   0.377   5.146   1.053
 1840SOL    HW1 6056   0.283   5.155   1.040
 1840SOL    HW2 6057   0.416   5.198   0.983
 1841SOL     OW 6058   1.455   5.220   1.347
 1841SOL    HW1 6059   1.509   5.293   1.379
 1841SOL    HW2 6060   1.388   5.210   1.415
 1842SOL     OW 6061   0.451   4.124   1.492
 1842SOL    HW1 6062   0.524   4.063   1.494
 1842SOL    HW2 6063   0.373   4.068   1.502
 1843SOL     OW 6064   1.612   4.172   0.741
 1843SOL    HW1 6065   1.536   4.194   0.686
 1843SOL    HW2 6066   1.626   4.249   0.795
 1844SOL     OW 6067   1.133   5.072   1.701
 1844SOL    HW1 6068   1.163   5.073   1.792
 1844SOL    HW2 6069   1.080   4.993   1.694
 1845SOL     OW 6070   0.210   5.150   0.530
 1845SOL    HW1 6071   0.252   5.229   0.564
 1845SOL    HW2 6072   0.130   5.141   0.581
 1846SOL     OW 6073   0.254   4.800   0.877
 1846SOL    HW1 6074   0.263   4.712   0.914
 1846SOL    HW2 6075   0.196   4.846   0.938
 1847SOL     OW 6076   0.621   4.684   0.136
 1847SOL    HW1 6077   0.577   4.764   0.107
 1847SOL    HW2 6078   0.675   4.712   0.210
 1848SOL     OW 6079   1.596   3.847   1.468
 1848SOL    HW1 6080   1.603   3.928   1.417
 1848SOL    HW2 6081   1.582   3.877   1.558
 1849SOL     OW 6082   0.132   4.354   0.582
 1849SOL    HW1 6083   0.086   4.275   0.609
 1849SOL    HW2 6084   0.100   4.422   0.641
 1850SOL     OW 6085   0.015   5.294   0.070
 1850SOL    HW1 6086   0.021   5.210   0.115
 1850SOL    HW2 6087   0.043   0.059   0.135
 1851SOL     OW 6088   1.687   4.642   0.643
 1851SOL    HW1 6089   1.770   4.600   0.621
 1851SOL    HW2 6090   1.665   4.694   0.565
 1852SOL     OW 6091   1.646   4.829   0.434
 1852SOL    HW1 6092   1.728   4.841   0.386
 1852SOL    HW2 6093   1.652   4.891   0.507
 1853SOL     OW 6094   0.131   4.472   1.586
 1853SOL    HW1 6095   0.225   4.487   1.587
 1853SOL    HW2 6096   0.092   4.559   1.598
 1854SOL     OW 6097   0.627   5.097   0.736
 1854SOL    HW1 6098   0.569   5.020   0.735
 1854SOL    HW2 6099   0.602   5.146   0.658
 1855SOL     OW 6100   1.289   4.954   1.426
 1855SOL    HW1 6101   1.323   4.889   1.365
 1855SOL    HW2 6102   1.349   4.951   1.500
 1856SOL     OW 6103   0.823   3.726   0.512
 1856SOL    HW1 6104   0.862   3.810   0.490
 1856SOL    HW2 6105   0.729   3.743   0.517
 1857SOL     OW 6106   0.176   4.667   1.282
 1857SOL    HW1 6107   0.266   4.637   1.268
 1857SOL    HW2 6108   0.134   4.657   1.196
 1858SOL     OW 6109   1.509   4.734   0.210
 1858SOL    HW1 6110   1.449   4.667   0.243
 1858SOL    HW2 6111   1.562   4.758   0.287
 1859SOL     OW 6112   0.337   3.977   1.817
 1859SOL    HW1 6113   0.383   4.060   1.830
 1859SOL    HW2 6114   0.249   3.994   1.852
 1860SOL     OW 6115   1.477   5.146   0.963
 1860SOL    HW1 6116   1.404   5.159   1.023
 1860SOL    HW2 6117   1.465   5.058   0.928
 1861SOL     OW 6118   0.597   4.437   0.280
 1861SOL    HW1 6119   0.617   4.517   0.232
 1861SOL    HW2 6120   0.535   4.465   0.348
 1862SOL     OW 6121   1.279   4.076   0.932
 1862SOL    HW1 6122   1.190   4.044   0.941
 1862SOL    HW2 6123   1.330   4.023   0.994
 1863SOL     OW 6124   0.792   4.341   1.451
 1863SOL    HW1 6125   0.765   4.318   1.540
 1863SOL    HW2 6126   0.752   4.275   1.395
 1864SOL     OW 6127   1.393   4.198   1.678
 1864SOL    HW1 6128   1.396   4.243   1.762
 1864SOL    HW2 6129   1.455   4.125   1.687
 1865SOL     OW 6130   0.955   4.612   1.583
 1865SOL    HW1 6131   1.009   4.541   1.547
 1865SOL    HW2 6132   0.907   4.646   1.507
 1866SOL     OW 6133   0.992   4.136   1.239
 1866SOL    HW1 6134   0.906   4.158   1.275
 1866SOL    HW2 6135   0.973   4.090   1.157
 1867SOL     OW 6136   1.052   4.423   0.427
 1867SOL    HW1 6137   1.068   4.416   0.522
 1867SOL    HW2 6138   0.970   4.377   0.413
 1868SOL     OW 6139   0.067   4.511   0.818
 1868SOL    HW1 6140   0.151   4.516   0.863
 1868SOL    HW2 6141   0.063   4.592   0.766
 1869SOL     OW 6142   0.885   4.081   0.201
 1869SOL    HW1 6143   0.930   4.130   0.133
 1869SOL    HW2 6144   0.885   3.991   0.170
 1870SOL     OW 6145   1.708   4.298   1.828
 1870SOL    HW1 6146   1.671   4.372   1.780
 1870SOL    HW2 6147   1.736   4.237   1.760
 1871SOL     OW 6148   1.376   4.863   0.540
 1871SOL    HW1 6149   1.457   4.850   0.489
 1871SOL    HW2 6150   1.325   4.926   0.488
 1872SOL     OW 6151   0.555   3.908   0.893
 1872SOL    HW1 6152   0.552   3.935   0.985
 1872SOL    HW2 6153   0.553   3.989   0.844
 1873SOL     OW 6154   1.019   5.164   0.470
 1873SOL    HW1 6155   0.944   5.224   0.468
 1873SOL    HW2 6156   1.040   5.154   0.563
 1874SOL     OW 6157   1.800   4.781   0.867
 1874SOL    HW1 6158   1.743   4.763   0.792
 1874SOL    HW2 6159   1.741   4.788   0.941
 1875SOL     OW 6160   1.250   5.240   1.524
 1875SOL    HW1 6161   1.214   5.173   1.583
 1875SOL    HW2 6162   1.179   5.259   1.463
 1876SOL     OW 6163   0.329   4.674   0.247
 1876SOL    HW1 6164   0.412   4.685   0.201
 1876SOL    HW2 6165   0.315   4.579   0.248
 1877SOL     OW 6166   1.478   4.465   0.726
 1877SOL    HW1 6167   1.470   4.423   0.812
 1877SOL    HW2 6168   1.555   4.522   0.735
 1878SOL     OW 6169   0.463   4.989   1.742
 1878SOL    HW1 6170   0.437   4.992   1.650
 1878SOL    HW2 6171   0.380   4.988   1.790
 1879SOL     OW 6172   1.158   0.159   0.237
 1879SOL    HW1 6173   1.074   0.176   0.280
 1879SOL    HW2 6174   1.134   0.139   0.146
 1880SOL     OW 6175   0.205   4.004   1.497
 1880SOL    HW1 6176   0.126   4.056   1.481
 1880SOL    HW2 6177   0.173   3.925   1.541
 1881SOL     OW 6178   1.630   5.094   0.076
 1881SOL    HW1 6179   1.591   5.180   0.093
 1881SOL    HW2 6180   1.555   5.036   0.062
 1882SOL     OW 6181   1.407   3.835   0.444
 1882SOL    HW1 6182   1.398   3.814   0.351
 1882SOL    HW2 6183   1.502   3.842   0.458
 1883SOL     OW 6184   0.382   4.423   0.475
 1883SOL    HW1 6185   0.414   4.333   0.485
 1883SOL    HW2 6186   0.290   4.419   0.501
 1884SOL     OW 6187   1.535   3.949   1.725
 1884SOL    HW1 6188   1.545   3.970   1.818
 1884SOL    HW2 6189   1.466   3.883   1.722
 1885SOL     OW 6190   0.629   3.834   0.137
 1885SOL    HW1 6191   0.723   3.822   0.141
 1885SOL    HW2 6192   0.607   3.815   0.045
 1886SOL     OW 6193   0.767   4.002   1.754
 1886SOL    HW1 6194   0.842   3.943   1.756
 1886SOL    HW2 6195   0.718   3.980   1.833
 1887SOL     OW 6196   1.340   4.312   1.432
 1887SOL    HW1 6197   1.371   4.281   1.517
 1887SOL    HW2 6198   1.376   4.401   1.424
 1888SOL     OW 6199   0.814   5.120   0.936
 1888SOL    HW1 6200   0.894   5.105   0.887
 1888SOL    HW2 6201   0.745   5.126   0.869
 1889SOL     OW 6202   0.928   4.233   0.902
 1889SOL    HW1 6203   0.904   4.225   0.810
 1889SOL    HW2 6204   0.959   4.146   0.927
 1890SOL     OW 6205   0.560   3.786   0.500
 1890SOL    HW1 6206   0.485   3.785   0.559
 1890SOL    HW2 6207   0.549   3.865   0.447
 1891SOL     OW 6208   1.425   4.925   0.035
 1891SOL    HW1 6209   1.454   4.851   0.089
 1891SOL    HW2 6210   1.339   4.948   0.070
 1892SOL     OW 6211   0.314   3.770   0.175
 1892SOL    HW1 6212   0.378   3.841   0.180
 1892SOL    HW2 6213   0.356   3.697   0.218
 1893SOL     OW 6214   0.941   3.971   0.459
 1893SOL    HW1 6215   0.913   4.013   0.377
 1893SOL    HW2 6216   1.035   3.988   0.463
 1894SOL     OW 6217   1.080   4.405   1.460
 1894SOL    HW1 6218   1.011   4.338   1.464
 1894SOL    HW2 6219   1.161   4.354   1.453
 1895SOL     OW 6220   1.263   5.265   0.780
 1895SOL    HW1 6221   1.222   0.046   0.748
 1895SOL    HW2 6222   1.307   5.292   0.861
 1896SOL     OW 6223   0.466   4.874   0.729
 1896SOL    HW1 6224   0.397   4.854   0.793
 1896SOL    HW2 6225   0.425   4.856   0.644
 1897SOL     OW 6226   1.032   4.252   0.031
 1897SOL    HW1 6227   0.990   4.333   0.002
 1897SOL    HW2 6228   1.094   4.280   0.098
 1898SOL     OW 6229   0.088   4.269   1.398
 1898SOL    HW1 6230   0.176   4.277   1.361
 1898SOL    HW2 6231   0.079   4.345   1.455
 1899SOL     OW 6232   0.560   3.951   1.166
 1899SOL    HW1 6233   0.598   3.872   1.204
 1899SOL    HW2 6234   0.469   3.950   1.194
 1900SOL     OW 6235   0.868   4.182   0.639
 1900SOL    HW1 6236   0.824   4.238   0.574
 1900SOL    HW2 6237   0.889   4.102   0.591
 1901SOL     OW 6238   1.016   3.776   0.750
 1901SOL    HW1 6239   0.956   3.770   0.676
 1901SOL    HW2 6240   0.994   3.701   0.806
 1902SOL     OW 6241   1.438   4.889   0.859
 1902SOL    HW1 6242   1.370   4.822   0.855
 1902SOL    HW2 6243   1.462   4.903   0.767
 1903SOL     OW 6244   1.466   4.329   0.976
 1903SOL    HW1 6245   1.415   4.248   0.980
 1903SOL    HW2 6246   1.526   4.323   1.051
 1904SOL     OW 6247   1.848   4.539   0.388
 1904SOL    HW1 6248   1.901   4.486   0.448
 1904SOL    HW2 6249   1.817   4.477   0.322
 1905SOL     OW 6250   0.473   5.158   0.157
 1905SOL    HW1 6251   0.421   5.108   0.220
 1905SOL    HW2 6252   0.502   5.094   0.093
 1906SOL     OW 6253   1.670   4.988   0.647
 1906SOL    HW1 6254   1.764   4.995   0.666
 1906SOL    HW2 6255   1.635   5.076   0.664
 1907SOL     OW 6256   1.398   4.303   0.087
 1907SOL    HW1 6257   1.336   4.284   0.157
 1907SOL    HW2 6258   1.454   4.225   0.082
 1908SOL     OW 6259   0.515   3.987   0.323
 1908SOL    HW1 6260   0.565   3.935   0.260
 1908SOL    HW2 6261   0.501   4.071   0.280
 1909SOL     OW 6262   1.751   4.960   1.576
 1909SOL    HW1 6263   1.837   4.918   1.575
 1909SOL    HW2 6264   1.770   5.053   1.588
 1910SOL     OW 6265   1.064   5.075   1.332
 1910SOL    HW1 6266   0.986   5.049   1.380
 1910SOL    HW2 6267   1.137   5.035   1.380
 1911SOL     OW 6268   1.127   4.926   1.107
 1911SOL    HW1 6269   1.075   4.967   1.177
 1911SOL    HW2 6270   1.082   4.952   1.027
 1912SOL     OW 6271   1.629   4.822   1.077
 1912SOL    HW1 6272   1.624   4.884   1.150
 1912SOL    HW2 6273   1.551   4.841   1.024
 1913SOL     OW 6274   0.919   3.820   1.397
 1913SOL    HW1 6275   0.941   3.802   1.306
 1913SOL    HW2 6276   0.998   3.860   1.433
 1914SOL     OW 6277   0.984   4.839   1.725
 1914SOL    HW1 6278   0.892   4.855   1.743
 1914SOL    HW2 6279   0.985   4.762   1.667
 1915SOL     OW 6280   0.708   4.781   0.381
 1915SOL    HW1 6281   0.694   4.766   0.474
 1915SOL    HW2 6282   0.789   4.733   0.361
 1916SOL     OW 6283   0.421   4.542   1.251
 1916SOL    HW1 6284   0.490   4.549   1.318
 1916SOL    HW2 6285   0.386   4.454   1.262
 1917SOL     OW 6286   1.265   4.101   1.275
 1917SOL    HW1 6287   1.298   4.178   1.321
 1917SOL    HW2 6288   1.175   4.123   1.252
 1918SOL     OW 6289   0.112   5.288   1.320
 1918SOL    HW1 6290   0.052   0.049   1.363
 1918SOL    HW2 6291   0.190   5.287   1.375
 1919SOL     OW 6292   0.346   4.829   0.487
 1919SOL    HW1 6293   0.341   4.908   0.433
 1919SOL    HW2 6294   0.358   4.757   0.424
 1920SOL     OW 6295   0.554   4.259   0.859
 1920SOL    HW1 6296   0.569   4.318   0.785
 1920SOL    HW2 6297   0.618   4.286   0.925
 1921SOL     OW 6298   1.258   5.072   0.385
 1921SOL    HW1 6299   1.312   5.147   0.411
 1921SOL    HW2 6300   1.169   5.096   0.412
 1922SOL     OW 6301   1.269   5.182   1.141
 1922SOL    HW1 6302   1.328   5.195   1.216
 1922SOL    HW2 6303   1.225   5.099   1.160
 1923SOL     OW 6304   1.582   4.347   0.482
 1923SOL    HW1 6305   1.533   4.398   0.547
 1923SOL    HW2 6306   1.618   4.414   0.422
 1924SOL     OW 6307   0.381   5.232   1.315
 1924SOL    HW1 6308   0.364   5.193   1.229
 1924SOL    HW2 6309   0.474   5.256   1.312
 1925SOL     OW 6310   0.414   4.467   1.602
 1925SOL    HW1 6311   0.475   4.513   1.544
 1925SOL    HW2 6312   0.453   4.380   1.615
 1926SOL     OW 6313   1.601   4.503   1.682
 1926SOL    HW1 6314   1.515   4.544   1.675
 1926SOL    HW2 6315   1.654   4.545   1.614
 1927SOL     OW 6316   0.996   3.847   1.755
 1927SOL    HW1 6317   1.051   3.920   1.727
 1927SOL    HW2 6318   1.044   3.769   1.730
 1928SOL     OW 6319   0.497   3.765   1.748
 1928SOL    HW1 6320   0.455   3.711   1.681
 1928SOL    HW2 6321   0.438   3.839   1.760
 1929SOL     OW 6322   0.586   4.597   1.032
 1929SOL    HW1 6323   0.614   4.688   1.029
 1929SOL    HW2 6324   0.529   4.591   1.109
 1930SOL     OW 6325   1.357   4.582   1.028
 1930SOL    HW1 6326   1.274   4.572   0.983
 1930SOL    HW2 6327   1.398   4.496   1.023
 1931SOL     OW 6328   1.203   4.252   0.271
 1931SOL    HW1 6329   1.211   4.173   0.324
 1931SOL    HW2 6330   1.160   4.316   0.328
 1932SOL     OW 6331   0.301   3.927   1.247
 1932SOL    HW1 6332   0.267   3.952   1.333
 1932SOL    HW2 6333   0.289   3.833   1.243
 1933SOL     OW 6334   0.043   5.021   1.277
 1933SOL    HW1 6335   0.074   4.972   1.352
 1933SOL    HW2 6336   0.045   5.113   1.306
 1934SOL     OW 6337   0.724   4.355   1.058
 1934SOL    HW1 6338   0.799   4.339   1.000
 1934SOL    HW2 6339   0.696   4.444   1.037
 1935SOL     OW 6340   1.735   4.684   1.852
 1935SOL    HW1 6341   1.689   4.622   1.795
 1935SOL    HW2 6342   1.675   4.697   1.926
 1936SOL     OW 6343   0.325   3.787   0.635
 1936SOL    HW1 6344   0.309   3.877   0.664
 1936SOL    HW2 6345   0.331   3.736   0.716
 1937SOL     OW 6346   1.621   4.099   0.369
 1937SOL    HW1 6347   1.645   4.034   0.435
 1937SOL    HW2 6348   1.595   4.176   0.420
 1938SOL     OW 6349   1.028   4.483   0.961
 1938SOL    HW1 6350   1.024   4.500   1.055
 1938SOL    HW2 6351   1.001   4.391   0.952
 1939SOL     OW 6352   1.854   5.214   1.585
 1939SOL    HW1 6353   1.848   5.289   1.526
 1939SOL    HW2 6354   1.924   5.236   1.647
 1940SOL     OW 6355   0.354   4.643   1.806
 1940SOL    HW1 6356   0.435   4.660   1.854
 1940SOL    HW2 6357   0.379   4.577   1.740
 1941SOL     OW 6358   1.518   4.025   0.126
 1941SOL    HW1 6359   1.469   3.944   0.143
 1941SOL    HW2 6360   1.558   4.046   0.211
 1942SOL     OW 6361   1.295   4.548   0.019
 1942SOL    HW1 6362   1.333   4.462   0.038
 1942SOL    HW2 6363   1.355   4.588   8.037
 1943SOL     OW 6364   1.059   5.078   0.828
 1943SOL    HW1 6365   1.064   4.993   0.783
 1943SOL    HW2 6366   1.144   5.118   0.813
 1944SOL     OW 6367   0.315   4.533   0.948
 1944SOL    HW1 6368   0.409   4.551   0.945
 1944SOL    HW2 6369   0.309   4.443   0.981
 1945SOL     OW 6370   0.335   4.249   1.015
 1945SOL    HW1 6371   0.299   4.161   1.001
 1945SOL    HW2 6372   0.410   4.255   0.956
 1946SOL     OW 6373   1.134   4.100   1.682
 1946SOL    HW1 6374   1.086   4.155   1.744
 1946SOL    HW2 6375   1.222   4.138   1.678
 1947SOL     OW 6376   1.161   3.926   1.470
 1947SOL    HW1 6377   1.150   3.989   1.542
 1947SOL    HW2 6378   1.200   3.977   1.399
 1948SOL     OW 6379   0.012   5.052   0.196
 1948SOL    HW1 6380   5.221   5.057   0.167
 1948SOL    HW2 6381   0.017   4.967   0.242
 1949SOL     OW 6382   0.983   4.516   1.226
 1949SOL    HW1 6383   1.039   4.493   1.301
 1949SOL    HW2 6384   0.897   4.478   1.249
 1950SOL     OW 6385   0.032   4.278   1.115
 1950SOL    HW1 6386   0.121   4.262   1.084
 1950SOL    HW2 6387   0.037   4.266   1.210
 1951SOL     OW 6388   0.174   4.237   1.712
 1951SOL    HW1 6389   0.240   4.200   1.652
 1951SOL    HW2 6390   0.146   4.318   1.670
 1952SOL     OW 6391   1.377   4.663   1.658
 1952SOL    HW1 6392   1.397   4.756   1.656
 1952SOL    HW2 6393   1.373   4.636   1.566
 1953SOL     OW 6394   0.819   4.294   0.366
 1953SOL    HW1 6395   0.828   4.222   0.304
 1953SOL    HW2 6396   0.742   4.342   0.336
 1954SOL     OW 6397   1.642   4.325   1.186
 1954SOL    HW1 6398   1.632   4.266   1.260
 1954SOL    HW2 6399   1.729   4.305   1.151
 1955SOL     OW 6400   0.210   5.279   1.732
 1955SOL    HW1 6401   0.175   0.022   1.810
 1955SOL    HW2 6402   0.213   5.187   1.755
 1956SOL     OW 6403   0.702   4.174   1.260
 1956SOL    HW1 6404   0.649   4.100   1.230
 1956SOL    HW2 6405   0.697   4.237   1.188
 1957SOL     OW 6406   0.467   4.214   0.180
 1957SOL    HW1 6407   0.532   4.281   0.201
 1957SOL    HW2 6408   0.383   4.259   0.182
 1958SOL     OW 6409   0.151   4.861   1.472
 1958SOL    HW1 6410   0.147   4.812   1.554
 1958SOL    HW2 6411   0.161   4.794   1.405
 1959SOL     OW 6412   1.327   4.769   1.222
 1959SOL    HW1 6413   1.350   4.707   1.153
 1959SOL    HW2 6414   1.256   4.822   1.185
 1960SOL     OW 6415   1.307   4.573   0.307
 1960SOL    HW1 6416   1.230   4.544   0.357
 1960SOL    HW2 6417   1.281   4.561   0.216
 1961SOL     OW 6418   0.075   4.918   1.031
 1961SOL    HW1 6419   0.063   4.959   1.116
 1961SOL    HW2 6420   5.289   4.924   0.989
 1962SOL     OW 6421   0.752   0.038   1.709
 1962SOL    HW1 6422   0.659   0.060   1.718
 1962SOL    HW2 6423   0.773   0.060   1.618
 1963SOL     OW 6424   0.905   3.815   0.133
 1963SOL    HW1 6425   0.924   3.800   0.040
 1963SOL    HW2 6426   0.969   3.762   0.180
 1964SOL     OW 6427   1.719   3.869   0.510
 1964SOL    HW1 6428   1.791   3.853   0.449
 1964SOL    HW2 6429   1.704   3.784   0.551
 1965SOL     OW 6430   1.277   4.649   0.671
 1965SOL    HW1 6431   1.351   4.588   0.678
 1965SOL    HW2 6432   1.311   4.721   0.619
 1966SOL     OW 6433   0.818   4.993   1.420
 1966SOL    HW1 6434   0.788   5.029   1.503
 1966SOL    HW2 6435   0.743   5.001   1.362
 1967SOL     OW 6436   1.841   3.897   0.967
 1967SOL    HW1 6437   1.869   3.810   0.940
 1967SOL    HW2 6438   1.754   3.907   0.927
 1968SOL     OW 6439   0.270   4.040   0.716
 1968SOL    HW1 6440   0.188   4.085   0.697
 1968SOL    HW2 6441   0.270   4.030   0.811
 1969SOL     OW 6442   1.140   0.019   0.004
 1969SOL    HW1 6443   1.155   5.229   0.034
 1969SOL    HW2 6444   1.144   0.013   7.988
 1970SOL     OW 6445   0.825   4.727   1.371
 1970SOL    HW1 6446   0.870   4.721   1.286
 1970SOL    HW2 6447   0.828   4.821   1.393
 1971SOL     OW 6448   0.918   4.638   0.298
 1971SOL    HW1 6449   0.973   4.665   0.225
 1971SOL    HW2 6450   0.966   4.566   0.339
 1972SOL     OW 6451   0.366   5.029   1.500
 1972SOL    HW1 6452   0.366   5.098   1.434
 1972SOL    HW2 6453   0.291   4.973   1.476
 1973SOL     OW 6454   1.613   5.004   1.282
 1973SOL    HW1 6455   1.669   4.997   1.359
 1973SOL    HW2 6456   1.550   5.073   1.304
 1974SOL     OW 6457   1.055   4.833   0.712
 1974SOL    HW1 6458   0.982   4.782   0.748
 1974SOL    HW2 6459   1.115   4.768   0.678
 1975SOL     OW 6460   1.022   3.964   0.966
 1975SOL    HW1 6461   1.017   3.917   0.883
 1975SOL    HW2 6462   1.016   3.897   1.033
 1976SOL     OW 6463   1.722   4.116   1.380
 1976SOL    HW1 6464   1.794   4.179   1.379
 1976SOL    HW2 6465   1.752   4.045   1.324
 1977SOL     OW 6466   0.270   5.035   0.295
 1977SOL    HW1 6467   0.188   5.048   0.248
 1977SOL    HW2 6468   0.258   5.082   0.378
 1978SOL     OW 6469   0.116   4.742   1.719
 1978SOL    HW1 6470   0.045   4.704   1.771
 1978SOL    HW2 6471   0.196   4.709   1.761
 1979SOL     OW 6472   0.674   3.920   1.499
 1979SOL    HW1 6473   0.758   3.900   1.458
 1979SOL    HW2 6474   0.697   3.952   1.587
 1980SOL     OW 6475   0.042   4.116   0.027
 1980SOL    HW1 6476   0.019   4.029   0.061
 1980SOL    HW2 6477   0.123   4.101   8.058
 1981SOL     OW 6478   1.430   4.582   1.400
 1981SOL    HW1 6479   1.381   4.642   1.344
 1981SOL    HW2 6480   1.519   4.584   1.366
 1982SOL     OW 6481   0.052   3.859   0.216
 1982SOL    HW1 6482   0.053   3.945   0.257
 1982SOL    HW2 6483   0.144   3.835   0.206
 1983SOL     OW 6484   1.182   5.064   0.112
 1983SOL    HW1 6485   1.087   5.049   0.110
 1983SOL    HW2 6486   1.205   5.060   0.205
 1984SOL     OW 6487   0.619   4.555   1.436
 1984SOL    HW1 6488   0.676   4.630   1.419
 1984SOL    HW2 6489   0.680   4.481   1.443
 1985SOL     OW 6490   0.717   4.288   1.704
 1985SOL    HW1 6491   0.758   4.350   1.764
 1985SOL    HW2 6492   0.745   4.202   1.736
 1986SOL     OW 6493   1.474   4.923   1.631
 1986SOL    HW1 6494   1.460   4.935   1.725
 1986SOL    HW2 6495   1.567   4.937   1.618
 1987SOL     OW 6496   1.670   4.605   1.255
 1987SOL    HW1 6497   1.663   4.520   1.212
 1987SOL    HW2 6498   1.659   4.669   1.184
 1988SOL     OW 6499   1.217   4.042   0.460
 1988SOL    HW1 6500   1.282   3.972   0.453
 1988SOL    HW2 6501   1.245   4.093   0.536
 1989SOL     OW 6502   0.589   4.460   0.669
 1989SOL    HW1 6503   0.628   4.547   0.656
 1989SOL    HW2 6504   0.519   4.456   0.604
 1990SOL     OW 6505   1.762   4.086   1.650
 1990SOL    HW1 6506   1.745   4.101   1.557
 1990SOL    HW2 6507   1.691   4.029   1.679
 1991SOL     OW 6508   1.745   4.657   1.512
 1991SOL    HW1 6509   1.740   4.752   1.525
 1991SOL    HW2 6510   1.729   4.645   1.418
 1992SOL     OW 6511   0.909   5.095   0.035
 1992SOL    HW1 6512   0.850   5.078   0.109
 1992SOL    HW2 6513   0.862   5.159   8.062
 1993SOL     OW 6514   0.868   4.691   0.855
 1993SOL    HW1 6515   0.918   4.620   0.895
 1993SOL    HW2 6516   0.833   4.741   0.929
 1994SOL     OW 6517   1.079   4.702   0.088
 1994SOL    HW1 6518   1.061   4.758   0.013
 1994SOL    HW2 6519   1.156   4.651   0.061
 1995SOL     OW 6520   0.220   5.025   1.854
 1995SOL    HW1 6521   0.155   4.957   1.835
 1995SOL    HW2 6522   0.216   5.035   1.950
 1996SOL     OW 6523   0.081   4.929   0.657
 1996SOL    HW1 6524   0.105   4.904   0.746
 1996SOL    HW2 6525   0.165   4.945   0.614
 1997SOL     OW 6526   0.671   5.106   1.610
 1997SOL    HW1 6527   0.594   5.073   1.656
 1997SOL    HW2 6528   0.703   5.178   1.663
 1998SOL     OW 6529   1.812   3.908   1.238
 1998SOL    HW1 6530   1.823   3.814   1.252
 1998SOL    HW2 6531   1.822   3.919   1.143
 1999SOL     OW 6532   0.433   4.163   0.523
 1999SOL    HW1 6533   0.462   4.090   0.469
 1999SOL    HW2 6534   0.386   4.121   0.596
 2000SOL     OW 6535   1.707   5.224   1.119
 2000SOL    HW1 6536   1.633   5.207   1.060
 2000SOL    HW2 6537   1.713   5.144   1.172
 2001SOL     OW 6538   0.337   4.284   1.291
 2001SOL    HW1 6539   0.389   4.224   1.345
 2001SOL    HW2 6540   0.350   4.254   1.202
 2002SOL     OW 6541   1.432   3.949   1.118
 2002SOL    HW1 6542   1.457   3.869   1.165
 2002SOL    HW2 6543   1.380   3.999   1.181
 2003SOL     OW 6544   1.009   3.743   1.142
 2003SOL    HW1 6545   0.954   3.675   1.102
 2003SOL    HW2 6546   1.097   3.705   1.144
 2004SOL     OW 6547   0.797   5.039   0.281
 2004SOL    HW1 6548   0.740   4.967   0.308
 2004SOL    HW2 6549   0.853   5.055   0.358
 2005SOL     OW 6550   0.640   0.002   1.287
 2005SOL    HW1 6551   0.644   0.057   1.365
 2005SOL    HW2 6552   0.731   5.285   1.265
 2006SOL     OW 6553   1.356   3.779   0.184
 2006SOL    HW1 6554   1.378   3.730   0.104
 2006SOL    HW2 6555   1.270   3.745   0.210
 2007SOL     OW 6556   1.297   4.185   0.681
 2007SOL    HW1 6557   1.243   4.264   0.688
 2007SOL    HW2 6558   1.292   4.146   0.768
 2008SOL     OW 6559   1.586   3.926   0.878
 2008SOL    HW1 6560   1.526   3.946   0.949
 2008SOL    HW2 6561   1.586   4.004   0.823
 2009SOL     OW 6562   0.041   4.801   0.306
 2009SOL    HW1 6563   0.133   4.776   0.293
 2009SOL    HW2 6564   5.296   4.719   0.322
 2010SOL     OW 6565   0.234   4.356   1.978
 2010SOL    HW1 6566   0.160   4.323   2.029
 2010SOL    HW2 6567   0.218   4.321   1.890
 2011SOL     OW 6568   0.242   3.999   2.851
 2011SOL    HW1 6569   0.256   3.965   2.940
 2011SOL    HW2 6570   0.158   3.963   2.824
 2012SOL     OW 6571   5.298   4.122   2.515
 2012SOL    HW1 6572   5.205   4.144   2.521
 2012SOL    HW2 6573   5.299   4.031   2.484
 2013SOL     OW 6574   0.574   5.000   3.045
 2013SOL    HW1 6575   0.494   5.006   2.992
 2013SOL    HW2 6576   0.592   5.090   3.072
 2014SOL     OW 6577   1.555   5.232   2.551
 2014SOL    HW1 6578   1.536   5.228   2.644
 2014SOL    HW2 6579   1.476   5.267   2.511
 2015SOL     OW 6580   1.130   4.422   2.563
 2015SOL    HW1 6581   1.179   4.503   2.549
 2015SOL    HW2 6582   1.083   4.436   2.645
 2016SOL     OW 6583   1.767   4.329   2.091
 2016SOL    HW1 6584   1.746   4.322   1.997
 2016SOL    HW2 6585   1.731   4.250   2.130
 2017SOL     OW 6586   0.758   4.867   2.899
 2017SOL    HW1 6587   0.691   4.897   2.961
 2017SOL    HW2 6588   0.786   4.947   2.854
 2018SOL     OW 6589   0.867   4.499   3.684
 2018SOL    HW1 6590   0.855   4.571   3.746
 2018SOL    HW2 6591   0.890   4.542   3.602
 2019SOL     OW 6592   0.686   4.726   2.510
 2019SOL    HW1 6593   0.751   4.715   2.579
 2019SOL    HW2 6594   0.618   4.781   2.550
 2020SOL     OW 6595   0.708   4.872   3.674
 2020SOL    HW1 6596   0.756   4.951   3.698
 2020SOL    HW2 6597   0.625   4.904   3.639
 2021SOL     OW 6598   0.377   5.145   2.915
 2021SOL    HW1 6599   0.282   5.155   2.903
 2021SOL    HW2 6600   0.416   5.198   2.845
 2022SOL     OW 6601   1.455   5.220   3.209
 2022SOL    HW1 6602   1.509   5.293   3.241
 2022SOL    HW2 6603   1.388   5.210   3.277
 2023SOL     OW 6604   0.451   4.124   3.355
 2023SOL    HW1 6605   0.524   4.063   3.356
 2023SOL    HW2 6606   0.373   4.068   3.364
 2024SOL     OW 6607   1.612   4.172   2.602
 2024SOL    HW1 6608   1.537   4.195   2.548
 2024SOL    HW2 6609   1.627   4.249   2.656
 2025SOL     OW 6610   1.133   5.072   3.563
 2025SOL    HW1 6611   1.164   5.073   3.654
 2025SOL    HW2 6612   1.080   4.993   3.556
 2026SOL     OW 6613   0.212   5.151   2.394
 2026SOL    HW1 6614   0.251   5.231   2.430
 2026SOL    HW2 6615   0.132   5.138   2.445
 2027SOL     OW 6616   0.252   4.799   2.737
 2027SOL    HW1 6617   0.264   4.712   2.777
 2027SOL    HW2 6618   0.196   4.846   2.799
 2028SOL     OW 6619   0.583   4.706   1.997
 2028SOL    HW1 6620   0.630   4.754   1.928
 2028SOL    HW2 6621   0.623   4.736   2.079
 2029SOL     OW 6622   1.596   3.847   3.330
 2029SOL    HW1 6623   1.604   3.928   3.279
 2029SOL    HW2 6624   1.582   3.877   3.420
 2030SOL     OW 6625   0.127   4.356   2.440
 2030SOL    HW1 6626   0.088   4.274   2.471
 2030SOL    HW2 6627   0.099   4.421   2.505
 2031SOL     OW 6628   5.299   5.299   1.944
 2031SOL    HW1 6629   0.015   5.211   1.978
 2031SOL    HW2 6630   0.026   0.058   2.015
 2032SOL     OW 6631   1.689   4.642   2.503
 2032SOL    HW1 6632   1.772   4.600   2.482
 2032SOL    HW2 6633   1.668   4.692   2.424
 2033SOL     OW 6634   1.646   4.831   2.291
 2033SOL    HW1 6635   1.731   4.836   2.249
 2033SOL    HW2 6636   1.652   4.892   2.365
 2034SOL     OW 6637   0.131   4.472   3.448
 2034SOL    HW1 6638   0.225   4.486   3.449
 2034SOL    HW2 6639   0.093   4.559   3.461
 2035SOL     OW 6640   0.627   5.096   2.597
 2035SOL    HW1 6641   0.570   5.019   2.597
 2035SOL    HW2 6642   0.601   5.145   2.519
 2036SOL     OW 6643   1.289   4.954   3.287
 2036SOL    HW1 6644   1.323   4.889   3.227
 2036SOL    HW2 6645   1.349   4.952   3.362
 2037SOL     OW 6646   0.823   3.723   2.372
 2037SOL    HW1 6647   0.863   3.808   2.352
 2037SOL    HW2 6648   0.729   3.742   2.378
 2038SOL     OW 6649   0.176   4.667   3.144
 2038SOL    HW1 6650   0.266   4.637   3.131
 2038SOL    HW2 6651   0.135   4.655   3.059
 2039SOL     OW 6652   1.531   4.719   2.059
 2039SOL    HW1 6653   1.461   4.661   2.091
 2039SOL    HW2 6654   1.572   4.753   2.139
 2040SOL     OW 6655   0.336   3.977   3.679
 2040SOL    HW1 6656   0.383   4.060   3.692
 2040SOL    HW2 6657   0.249   3.994   3.714
 2041SOL     OW 6658   1.477   5.147   2.824
 2041SOL    HW1 6659   1.404   5.159   2.885
 2041SOL    HW2 6660   1.464   5.058   2.790
 2042SOL     OW 6661   0.596   4.445   2.128
 2042SOL    HW1 6662   0.603   4.526   2.078
 2042SOL    HW2 6663   0.531   4.465   2.196
 2043SOL     OW 6664   1.279   4.077   2.794
 2043SOL    HW1 6665   1.190   4.044   2.803
 2043SOL    HW2 6666   1.330   4.023   2.856
 2044SOL     OW 6667   0.792   4.341   3.313
 2044SOL    HW1 6668   0.765   4.318   3.402
 2044SOL    HW2 6669   0.752   4.275   3.257
 2045SOL     OW 6670   1.393   4.198   3.540
 2045SOL    HW1 6671   1.396   4.242   3.625
 2045SOL    HW2 6672   1.454   4.125   3.549
 2046SOL     OW 6673   0.955   4.612   3.445
 2046SOL    HW1 6674   1.009   4.541   3.409
 2046SOL    HW2 6675   0.907   4.645   3.369
 2047SOL     OW 6676   0.992   4.137   3.101
 2047SOL    HW1 6677   0.906   4.158   3.137
 2047SOL    HW2 6678   0.973   4.090   3.019
 2048SOL     OW 6679   1.051   4.422   2.288
 2048SOL    HW1 6680   1.067   4.415   2.382
 2048SOL    HW2 6681   0.968   4.376   2.274
 2049SOL     OW 6682   0.073   4.510   2.672
 2049SOL    HW1 6683   0.153   4.515   2.723
 2049SOL    HW2 6684   0.061   4.598   2.636
 2050SOL     OW 6685   0.893   4.073   2.056
 2050SOL    HW1 6686   0.933   4.135   1.995
 2050SOL    HW2 6687   0.909   3.987   2.017
 2051SOL     OW 6688   1.708   4.299   3.690
 2051SOL    HW1 6689   1.671   4.372   3.642
 2051SOL    HW2 6690   1.736   4.237   3.622
 2052SOL     OW 6691   1.377   4.864   2.401
 2052SOL    HW1 6692   1.459   4.850   2.353
 2052SOL    HW2 6693   1.327   4.925   2.347
 2053SOL     OW 6694   0.556   3.907   2.756
 2053SOL    HW1 6695   0.553   3.935   2.847
 2053SOL    HW2 6696   0.551   3.988   2.705
 2054SOL     OW 6697   1.023   5.169   2.333
 2054SOL    HW1 6698   0.946   5.225   2.328
 2054SOL    HW2 6699   1.038   5.157   2.426
 2055SOL     OW 6700   1.800   4.781   2.728
 2055SOL    HW1 6701   1.744   4.763   2.653
 2055SOL    HW2 6702   1.740   4.788   2.803
 2056SOL     OW 6703   1.250   5.240   3.386
 2056SOL    HW1 6704   1.214   5.173   3.445
 2056SOL    HW2 6705   1.179   5.259   3.325
 2057SOL     OW 6706   0.316   4.676   2.109
 2057SOL    HW1 6707   0.398   4.699   2.065
 2057SOL    HW2 6708   0.293   4.590   2.074
 2058SOL     OW 6709   1.478   4.467   2.589
 2058SOL    HW1 6710   1.470   4.423   2.674
 2058SOL    HW2 6711   1.556   4.522   2.598
 2059SOL     OW 6712   0.463   4.989   3.605
 2059SOL    HW1 6713   0.437   4.992   3.512
 2059SOL    HW2 6714   0.380   4.988   3.653
 2060SOL     OW 6715   1.068   0.179   2.068
 2060SOL    HW1 6716   1.080   0.106   2.128
 2060SOL    HW2 6717   1.103   0.148   1.985
 2061SOL     OW 6718   0.205   4.004   3.359
 2061SOL    HW1 6719   0.126   4.056   3.343
 2061SOL    HW2 6720   0.173   3.925   3.403
 2062SOL     OW 6721   1.623   5.101   1.970
 2062SOL    HW1 6722   1.620   5.177   1.911
 2062SOL    HW2 6723   1.554   5.042   1.936
 2063SOL     OW 6724   1.401   3.831   2.295
 2063SOL    HW1 6725   1.391   3.807   2.203
 2063SOL    HW2 6726   1.496   3.838   2.308
 2064SOL     OW 6727   0.386   4.420   2.341
 2064SOL    HW1 6728   0.415   4.329   2.350
 2064SOL    HW2 6729   0.293   4.417   2.361
 2065SOL     OW 6730   1.535   3.949   3.587
 2065SOL    HW1 6731   1.544   3.970   3.680
 2065SOL    HW2 6732   1.467   3.882   3.585
 2066SOL     OW 6733   0.634   3.846   1.967
 2066SOL    HW1 6734   0.704   3.782   1.979
 2066SOL    HW2 6735   0.585   3.815   1.891
 2067SOL     OW 6736   0.767   4.002   3.616
 2067SOL    HW1 6737   0.842   3.943   3.617
 2067SOL    HW2 6738   0.718   3.980   3.695
 2068SOL     OW 6739   1.340   4.313   3.294
 2068SOL    HW1 6740   1.371   4.281   3.379
 2068SOL    HW2 6741   1.377   4.401   3.286
 2069SOL     OW 6742   0.814   5.120   2.798
 2069SOL    HW1 6743   0.894   5.105   2.748
 2069SOL    HW2 6744   0.745   5.126   2.731
 2070SOL     OW 6745   0.928   4.234   2.765
 2070SOL    HW1 6746   0.904   4.225   2.672
 2070SOL    HW2 6747   0.959   4.146   2.790
 2071SOL     OW 6748   0.560   3.785   2.358
 2071SOL    HW1 6749   0.485   3.785   2.418
 2071SOL    HW2 6750   0.550   3.865   2.306
 2072SOL     OW 6751   1.428   4.924   1.900
 2072SOL    HW1 6752   1.458   4.848   1.951
 2072SOL    HW2 6753   1.340   4.941   1.934
 2073SOL     OW 6754   0.305   3.771   2.041
 2073SOL    HW1 6755   0.367   3.835   2.006
 2073SOL    HW2 6756   0.360   3.706   2.086
 2074SOL     OW 6757   0.939   3.971   2.322
 2074SOL    HW1 6758   0.912   4.012   2.240
 2074SOL    HW2 6759   1.034   3.985   2.326
 2075SOL     OW 6760   1.080   4.405   3.322
 2075SOL    HW1 6761   1.011   4.338   3.326
 2075SOL    HW2 6762   1.161   4.355   3.315
 2076SOL     OW 6763   1.264   5.267   2.640
 2076SOL    HW1 6764   1.220   0.048   2.613
 2076SOL    HW2 6765   1.308   5.289   2.722
 2077SOL     OW 6766   0.465   4.873   2.590
 2077SOL    HW1 6767   0.397   4.853   2.654
 2077SOL    HW2 6768   0.425   4.854   2.506
 2078SOL     OW 6769   1.023   4.266   1.885
 2078SOL    HW1 6770   0.981   4.349   1.865
 2078SOL    HW2 6771   1.089   4.287   1.951
 2079SOL     OW 6772   0.088   4.269   3.260
 2079SOL    HW1 6773   0.175   4.276   3.223
 2079SOL    HW2 6774   0.079   4.345   3.317
 2080SOL     OW 6775   0.560   3.952   3.028
 2080SOL    HW1 6776   0.598   3.872   3.065
 2080SOL    HW2 6777   0.469   3.950   3.056
 2081SOL     OW 6778   0.868   4.183   2.502
 2081SOL    HW1 6779   0.822   4.237   2.438
 2081SOL    HW2 6780   0.889   4.103   2.454
 2082SOL     OW 6781   1.016   3.777   2.613
 2082SOL    HW1 6782   0.957   3.770   2.538
 2082SOL    HW2 6783   0.994   3.702   2.668
 2083SOL     OW 6784   1.437   4.890   2.721
 2083SOL    HW1 6785   1.371   4.821   2.717
 2083SOL    HW2 6786   1.463   4.903   2.629
 2084SOL     OW 6787   1.466   4.329   2.839
 2084SOL    HW1 6788   1.416   4.248   2.842
 2084SOL    HW2 6789   1.526   4.323   2.913
 2085SOL     OW 6790   1.845   4.540   2.245
 2085SOL    HW1 6791   1.902   4.489   2.303
 2085SOL    HW2 6792   1.817   4.477   2.178
 2086SOL     OW 6793   0.483   5.144   2.015
 2086SOL    HW1 6794   0.420   5.094   2.067
 2086SOL    HW2 6795   0.482   5.102   1.929
 2087SOL     OW 6796   1.669   4.987   2.508
 2087SOL    HW1 6797   1.763   4.993   2.526
 2087SOL    HW2 6798   1.636   5.075   2.525
 2088SOL     OW 6799   1.394   4.296   1.933
 2088SOL    HW1 6800   1.333   4.276   2.005
 2088SOL    HW2 6801   1.478   4.264   1.964
 2089SOL     OW 6802   0.524   3.987   2.179
 2089SOL    HW1 6803   0.569   3.940   2.109
 2089SOL    HW2 6804   0.502   4.072   2.140
 2090SOL     OW 6805   1.751   4.960   3.437
 2090SOL    HW1 6806   1.837   4.918   3.438
 2090SOL    HW2 6807   1.770   5.053   3.450
 2091SOL     OW 6808   1.064   5.075   3.193
 2091SOL    HW1 6809   0.986   5.049   3.241
 2091SOL    HW2 6810   1.137   5.035   3.242
 2092SOL     OW 6811   1.127   4.926   2.970
 2092SOL    HW1 6812   1.076   4.967   3.040
 2092SOL    HW2 6813   1.081   4.951   2.889
 2093SOL     OW 6814   1.629   4.822   2.938
 2093SOL    HW1 6815   1.624   4.884   3.012
 2093SOL    HW2 6816   1.550   4.841   2.887
 2094SOL     OW 6817   0.919   3.820   3.259
 2094SOL    HW1 6818   0.941   3.802   3.168
 2094SOL    HW2 6819   0.998   3.860   3.295
 2095SOL     OW 6820   0.984   4.839   3.587
 2095SOL    HW1 6821   0.892   4.855   3.605
 2095SOL    HW2 6822   0.985   4.762   3.529
 2096SOL     OW 6823   0.703   4.781   2.235
 2096SOL    HW1 6824   0.693   4.766   2.329
 2096SOL    HW2 6825   0.781   4.731   2.211
 2097SOL     OW 6826   0.421   4.542   3.113
 2097SOL    HW1 6827   0.490   4.549   3.180
 2097SOL    HW2 6828   0.386   4.454   3.124
 2098SOL     OW 6829   1.265   4.101   3.137
 2098SOL    HW1 6830   1.298   4.178   3.183
 2098SOL    HW2 6831   1.175   4.123   3.114
 2099SOL     OW 6832   0.113   5.291   3.180
 2099SOL    HW1 6833   0.051   0.047   3.227
 2099SOL    HW2 6834   0.189   5.286   3.237
 2100SOL     OW 6835   0.344   4.828   2.349
 2100SOL    HW1 6836   0.350   4.907   2.294
 2100SOL    HW2 6837   0.351   4.755   2.287
 2101SOL     OW 6838   0.554   4.260   2.721
 2101SOL    HW1 6839   0.570   4.318   2.647
 2101SOL    HW2 6840   0.619   4.287   2.787
 2102SOL     OW 6841   1.260   5.077   2.247
 2102SOL    HW1 6842   1.317   5.144   2.286
 2102SOL    HW2 6843   1.172   5.099   2.277
 2103SOL     OW 6844   1.269   5.182   3.003
 2103SOL    HW1 6845   1.328   5.195   3.078
 2103SOL    HW2 6846   1.225   5.099   3.022
 2104SOL     OW 6847   1.581   4.347   2.341
 2104SOL    HW1 6848   1.535   4.400   2.405
 2104SOL    HW2 6849   1.627   4.410   2.285
 2105SOL     OW 6850   0.381   5.230   3.178
 2105SOL    HW1 6851   0.364   5.192   3.092
 2105SOL    HW2 6852   0.474   5.256   3.174
 2106SOL     OW 6853   0.414   4.467   3.464
 2106SOL    HW1 6854   0.475   4.512   3.406
 2106SOL    HW2 6855   0.453   4.380   3.477
 2107SOL     OW 6856   1.601   4.503   3.544
 2107SOL    HW1 6857   1.515   4.544   3.537
 2107SOL    HW2 6858   1.654   4.545   3.476
 2108SOL     OW 6859   0.996   3.847   3.617
 2108SOL    HW1 6860   1.052   3.920   3.589
 2108SOL    HW2 6861   1.044   3.769   3.591
 2109SOL     OW 6862   0.497   3.765   3.610
 2109SOL    HW1 6863   0.455   3.711   3.543
 2109SOL    HW2 6864   0.438   3.839   3.622
 2110SOL     OW 6865   0.586   4.597   2.894
 2110SOL    HW1 6866   0.614   4.688   2.892
 2110SOL    HW2 6867   0.529   4.591   2.971
 2111SOL     OW 6868   1.357   4.582   2.890
 2111SOL    HW1 6869   1.274   4.572   2.845
 2111SOL    HW2 6870   1.398   4.496   2.885
 2112SOL     OW 6871   1.205   4.253   2.129
 2112SOL    HW1 6872   1.213   4.174   2.183
 2112SOL    HW2 6873   1.162   4.317   2.185
 2113SOL     OW 6874   0.302   3.927   3.110
 2113SOL    HW1 6875   0.267   3.952   3.196
 2113SOL    HW2 6876   0.289   3.832   3.105
 2114SOL     OW 6877   0.044   5.022   3.138
 2114SOL    HW1 6878   0.074   4.972   3.214
 2114SOL    HW2 6879   0.044   5.113   3.167
 2115SOL     OW 6880   0.724   4.355   2.920
 2115SOL    HW1 6881   0.799   4.339   2.862
 2115SOL    HW2 6882   0.696   4.444   2.899
 2116SOL     OW 6883   1.734   4.684   3.714
 2116SOL    HW1 6884   1.689   4.622   3.657
 2116SOL    HW2 6885   1.675   4.697   3.788
 2117SOL     OW 6886   0.327   3.786   2.496
 2117SOL    HW1 6887   0.307   3.875   2.523
 2117SOL    HW2 6888   0.332   3.736   2.578
 2118SOL     OW 6889   1.616   4.098   2.229
 2118SOL    HW1 6890   1.644   4.034   2.295
 2118SOL    HW2 6891   1.594   4.176   2.279
 2119SOL     OW 6892   1.028   4.483   2.823
 2119SOL    HW1 6893   1.024   4.501   2.917
 2119SOL    HW2 6894   1.001   4.392   2.814
 2120SOL     OW 6895   1.854   5.214   3.447
 2120SOL    HW1 6896   1.849   5.289   3.388
 2120SOL    HW2 6897   1.924   5.237   3.509
 2121SOL     OW 6898   0.354   4.643   3.668
 2121SOL    HW1 6899   0.435   4.660   3.716
 2121SOL    HW2 6900   0.379   4.577   3.602
 2122SOL     OW 6901   1.529   3.997   1.989
 2122SOL    HW1 6902   1.464   3.932   2.016
 2122SOL    HW2 6903   1.562   4.033   2.072
 2123SOL     OW 6904   1.292   4.550   1.893
 2123SOL    HW1 6905   1.335   4.465   1.896
 2123SOL    HW2 6906   1.323   4.589   1.811
 2124SOL     OW 6907   1.058   5.079   2.687
 2124SOL    HW1 6908   1.063   4.993   2.644
 2124SOL    HW2 6909   1.145   5.117   2.675
 2125SOL     OW 6910   0.315   4.533   2.811
 2125SOL    HW1 6911   0.409   4.550   2.808
 2125SOL    HW2 6912   0.308   4.443   2.844
 2126SOL     OW 6913   0.335   4.250   2.877
 2126SOL    HW1 6914   0.300   4.162   2.863
 2126SOL    HW2 6915   0.410   4.255   2.817
 2127SOL     OW 6916   1.134   4.100   3.544
 2127SOL    HW1 6917   1.086   4.155   3.606
 2127SOL    HW2 6918   1.222   4.138   3.540
 2128SOL     OW 6919   1.161   3.927   3.332
 2128SOL    HW1 6920   1.150   3.989   3.404
 2128SOL    HW2 6921   1.200   3.977   3.261
 2129SOL     OW 6922   0.002   5.048   2.069
 2129SOL    HW1 6923   5.226   5.036   2.013
 2129SOL    HW2 6924   0.014   4.963   2.112
 2130SOL     OW 6925   0.983   4.516   3.089
 2130SOL    HW1 6926   1.039   4.493   3.163
 2130SOL    HW2 6927   0.898   4.478   3.110
 2131SOL     OW 6928   0.032   4.283   2.977
 2131SOL    HW1 6929   0.119   4.260   2.945
 2131SOL    HW2 6930   0.037   4.267   3.071
 2132SOL     OW 6931   0.175   4.237   3.574
 2132SOL    HW1 6932   0.240   4.200   3.514
 2132SOL    HW2 6933   0.146   4.318   3.532
 2133SOL     OW 6934   1.377   4.663   3.520
 2133SOL    HW1 6935   1.397   4.756   3.517
 2133SOL    HW2 6936   1.373   4.636   3.428
 2134SOL     OW 6937   0.816   4.293   2.222
 2134SOL    HW1 6938   0.820   4.218   2.162
 2134SOL    HW2 6939   0.742   4.345   2.190
 2135SOL     OW 6940   1.642   4.326   3.048
 2135SOL    HW1 6941   1.632   4.266   3.122
 2135SOL    HW2 6942   1.729   4.306   3.013
 2136SOL     OW 6943   0.209   5.279   3.594
 2136SOL    HW1 6944   0.175   0.022   3.672
 2136SOL    HW2 6945   0.213   5.186   3.617
 2137SOL     OW 6946   0.702   4.174   3.122
 2137SOL    HW1 6947   0.649   4.100   3.092
 2137SOL    HW2 6948   0.697   4.237   3.050
 2138SOL     OW 6949   0.465   4.217   2.047
 2138SOL    HW1 6950   0.525   4.289   2.069
 2138SOL    HW2 6951   0.380   4.260   2.035
 2139SOL     OW 6952   0.151   4.861   3.334
 2139SOL    HW1 6953   0.147   4.812   3.416
 2139SOL    HW2 6954   0.161   4.794   3.266
 2140SOL     OW 6955   1.327   4.769   3.084
 2140SOL    HW1 6956   1.350   4.707   3.016
 2140SOL    HW2 6957   1.256   4.822   3.047
 2141SOL     OW 6958   1.311   4.582   2.168
 2141SOL    HW1 6959   1.235   4.550   2.218
 2141SOL    HW2 6960   1.286   4.567   2.077
 2142SOL     OW 6961   0.076   4.918   2.892
 2142SOL    HW1 6962   0.065   4.959   2.978
 2142SOL    HW2 6963   5.289   4.924   2.852
 2143SOL     OW 6964   0.752   0.038   3.571
 2143SOL    HW1 6965   0.659   0.060   3.580
 2143SOL    HW2 6966   0.773   0.060   3.480
 2144SOL     OW 6967   1.719   3.870   2.371
 2144SOL    HW1 6968   1.792   3.856   2.311
 2144SOL    HW2 6969   1.704   3.785   2.412
 2145SOL     OW 6970   1.277   4.650   2.534
 2145SOL    HW1 6971   1.350   4.588   2.541
 2145SOL    HW2 6972   1.312   4.721   2.480
 2146SOL     OW 6973   0.818   4.993   3.282
 2146SOL    HW1 6974   0.788   5.029   3.365
 2146SOL    HW2 6975   0.743   5.001   3.224
 2147SOL     OW 6976   1.841   3.896   2.829
 2147SOL    HW1 6977   1.870   3.809   2.801
 2147SOL    HW2 6978   1.754   3.907   2.789
 2148SOL     OW 6979   0.273   4.041   2.579
 2148SOL    HW1 6980   0.188   4.080   2.559
 2148SOL    HW2 6981   0.271   4.029   2.674
 2149SOL     OW 6982   0.825   4.727   3.233
 2149SOL    HW1 6983   0.870   4.720   3.149
 2149SOL    HW2 6984   0.828   4.821   3.254
 2150SOL     OW 6985   0.915   4.636   2.152
 2150SOL    HW1 6986   0.977   4.668   2.086
 2150SOL    HW2 6987   0.963   4.566   2.197
 2151SOL     OW 6988   0.366   5.028   3.362
 2151SOL    HW1 6989   0.366   5.098   3.297
 2151SOL    HW2 6990   0.291   4.973   3.338
 2152SOL     OW 6991   1.612   5.004   3.144
 2152SOL    HW1 6992   1.669   4.997   3.221
 2152SOL    HW2 6993   1.550   5.073   3.166
 2153SOL     OW 6994   1.054   4.833   2.573
 2153SOL    HW1 6995   0.982   4.782   2.610
 2153SOL    HW2 6996   1.116   4.768   2.541
 2154SOL     OW 6997   1.021   3.965   2.828
 2154SOL    HW1 6998   1.017   3.917   2.745
 2154SOL    HW2 6999   1.016   3.897   2.895
 2155SOL     OW 7000   1.722   4.117   3.242
 2155SOL    HW1 7001   1.794   4.180   3.241
 2155SOL    HW2 7002   1.751   4.045   3.186
 2156SOL     OW 7003   0.259   5.059   2.148
 2156SOL    HW1 7004   0.167   5.063   2.124
 2156SOL    HW2 7005   0.262   5.097   2.236
 2157SOL     OW 7006   0.116   4.742   3.581
 2157SOL    HW1 7007   0.045   4.704   3.633
 2157SOL    HW2 7008   0.196   4.709   3.623
 2158SOL     OW 7009   0.674   3.920   3.361
 2158SOL    HW1 7010   0.758   3.900   3.320
 2158SOL    HW2 7011   0.697   3.952   3.449
 2159SOL     OW 7012   0.083   4.073   1.903
 2159SOL    HW1 7013   0.003   4.026   1.880
 2159SOL    HW2 7014   0.098   4.131   1.828
 2160SOL     OW 7015   1.430   4.582   3.262
 2160SOL    HW1 7016   1.381   4.643   3.206
 2160SOL    HW2 7017   1.519   4.584   3.228
 2161SOL     OW 7018   0.056   3.857   2.105
 2161SOL    HW1 7019   0.055   3.952   2.097
 2161SOL    HW2 7020   0.145   3.832   2.083
 2162SOL     OW 7021   1.182   5.064   1.983
 2162SOL    HW1 7022   1.091   5.035   1.983
 2162SOL    HW2 7023   1.210   5.056   2.074
 2163SOL     OW 7024   0.619   4.555   3.298
 2163SOL    HW1 7025   0.676   4.630   3.281
 2163SOL    HW2 7026   0.679   4.481   3.305
 2164SOL     OW 7027   0.717   4.288   3.566
 2164SOL    HW1 7028   0.759   4.350   3.627
 2164SOL    HW2 7029   0.745   4.202   3.598
 2165SOL     OW 7030   1.473   4.923   3.493
 2165SOL    HW1 7031   1.460   4.935   3.587
 2165SOL    HW2 7032   1.567   4.937   3.480
 2166SOL     OW 7033   1.670   4.605   3.117
 2166SOL    HW1 7034   1.663   4.520   3.074
 2166SOL    HW2 7035   1.660   4.668   3.046
 2167SOL     OW 7036   1.217   4.043   2.320
 2167SOL    HW1 7037   1.280   3.972   2.311
 2167SOL    HW2 7038   1.246   4.092   2.397
 2168SOL     OW 7039   0.590   4.461   2.531
 2168SOL    HW1 7040   0.629   4.548   2.516
 2168SOL    HW2 7041   0.521   4.454   2.466
 2169SOL     OW 7042   1.762   4.086   3.513
 2169SOL    HW1 7043   1.745   4.101   3.420
 2169SOL    HW2 7044   1.691   4.029   3.541
 2170SOL     OW 7045   1.745   4.658   3.374
 2170SOL    HW1 7046   1.740   4.752   3.387
 2170SOL    HW2 7047   1.729   4.645   3.280
 2171SOL     OW 7048   0.849   5.094   1.881
 2171SOL    HW1 7049   0.830   5.095   1.975
 2171SOL    HW2 7050   0.866   5.186   1.860
 2172SOL     OW 7051   0.868   4.691   2.716
 2172SOL    HW1 7052   0.917   4.620   2.757
 2172SOL    HW2 7053   0.833   4.741   2.790
 2173SOL     OW 7054   1.080   4.713   1.952
 2173SOL    HW1 7055   1.057   4.763   1.873
 2173SOL    HW2 7056   1.154   4.659   1.925
 2174SOL     OW 7057   0.220   5.025   3.716
 2174SOL    HW1 7058   0.155   4.957   3.697
 2174SOL    HW2 7059   0.217   5.035   3.812
 2175SOL     OW 7060   0.083   4.928   2.517
 2175SOL    HW1 7061   0.102   4.907   2.609
 2175SOL    HW2 7062   0.169   4.941   2.477
 2176SOL     OW 7063   0.671   5.106   3.471
 2176SOL    HW1 7064   0.594   5.073   3.518
 2176SOL    HW2 7065   0.703   5.178   3.525
 2177SOL     OW 7066   1.812   3.909   3.100
 2177SOL    HW1 7067   1.826   3.816   3.115
 2177SOL    HW2 7068   1.821   3.919   3.005
 2178SOL     OW 7069   0.435   4.160   2.386
 2178SOL    HW1 7070   0.462   4.087   2.330
 2178SOL    HW2 7071   0.387   4.118   2.458
 2179SOL     OW 7072   1.707   5.224   2.981
 2179SOL    HW1 7073   1.633   5.207   2.922
 2179SOL    HW2 7074   1.714   5.144   3.034
 2180SOL     OW 7075   0.337   4.284   3.153
 2180SOL    HW1 7076   0.389   4.224   3.207
 2180SOL    HW2 7077   0.350   4.253   3.064
 2181SOL     OW 7078   1.432   3.949   2.980
 2181SOL    HW1 7079   1.458   3.870   3.027
 2181SOL    HW2 7080   1.380   3.998   3.043
 2182SOL     OW 7081   1.009   3.743   3.004
 2182SOL    HW1 7082   0.954   3.675   2.964
 2182SOL    HW2 7083   1.097   3.705   3.006
 2183SOL     OW 7084   0.804   5.047   2.146
 2183SOL    HW1 7085   0.743   4.976   2.165
 2183SOL    HW2 7086   0.857   5.054   2.225
 2184SOL     OW 7087   0.640   0.003   3.149
 2184SOL    HW1 7088   0.643   0.057   3.228
 2184SOL    HW2 7089   0.731   5.285   3.128
 2185SOL     OW 7090   1.352   3.778   2.027
 2185SOL    HW1 7091   1.380   3.714   1.962
 2185SOL    HW2 7092   1.265   3.748   2.054
 2186SOL     OW 7093   1.296   4.185   2.543
 2186SOL    HW1 7094   1.243   4.264   2.550
 2186SOL    HW2 7095   1.292   4.145   2.630
 2187SOL     OW 7096   1.587   3.926   2.740
 2187SOL    HW1 7097   1.526   3.946   2.811
 2187SOL    HW2 7098   1.586   4.004   2.685
 2188SOL     OW 7099   0.047   4.790   2.152
 2188SOL    HW1 7100   0.137   4.759   2.142
 2188SOL    HW2 7101   0.000   4.716   2.190
 2189SOL     OW 7102   0.233   4.356   3.840
 2189SOL    HW1 7103   0.160   4.323   3.892
 2189SOL    HW2 7104   0.218   4.321   3.752
 2190SOL     OW 7105   0.242   3.999   4.714
 2190SOL    HW1 7106   0.256   3.965   4.802
 2190SOL    HW2 7107   0.158   3.963   4.686
 2191SOL     OW 7108   5.298   4.122   4.377
 2191SOL    HW1 7109   5.205   4.144   4.383
 2191SOL    HW2 7110   5.299   4.031   4.346
 2192SOL     OW 7111   0.574   5.000   4.907
 2192SOL    HW1 7112   0.494   5.006   4.854
 2192SOL    HW2 7113   0.592   5.090   4.934
 2193SOL     OW 7114   1.555   5.232   4.413
 2193SOL    HW1 7115   1.536   5.228   4.506
 2193SOL    HW2 7116   1.475   5.267   4.373
 2194SOL     OW 7117   1.130   4.422   4.425
 2194SOL    HW1 7118   1.179   4.503   4.411
 2194SOL    HW2 7119   1.083   4.436   4.507
 2195SOL     OW 7120   1.766   4.330   3.953
 2195SOL    HW1 7121   1.746   4.322   3.860
 2195SOL    HW2 7122   1.731   4.249   3.992
 2196SOL     OW 7123   0.758   4.867   4.761
 2196SOL    HW1 7124   0.691   4.897   4.823
 2196SOL    HW2 7125   0.786   4.947   4.716
 2197SOL     OW 7126   0.867   4.499   5.546
 2197SOL    HW1 7127   0.855   4.571   5.608
 2197SOL    HW2 7128   0.890   4.542   5.464
 2198SOL     OW 7129   0.686   4.726   4.372
 2198SOL    HW1 7130   0.751   4.715   4.441
 2198SOL    HW2 7131   0.618   4.781   4.412
 2199SOL     OW 7132   0.708   4.872   5.536
 2199SOL    HW1 7133   0.756   4.951   5.560
 2199SOL    HW2 7134   0.625   4.904   5.501
 2200SOL     OW 7135   0.377   5.145   4.777
 2200SOL    HW1 7136   0.282   5.155   4.765
 2200SOL    HW2 7137   0.416   5.198   4.707
 2201SOL     OW 7138   1.455   5.220   5.071
 2201SOL    HW1 7139   1.509   5.293   5.103
 2201SOL    HW2 7140   1.388   5.210   5.139
 2202SOL     OW 7141   0.451   4.124   5.217
 2202SOL    HW1 7142   0.524   4.063   5.218
 2202SOL    HW2 7143   0.373   4.068   5.226
 2203SOL     OW 7144   1.612   4.172   4.464
 2203SOL    HW1 7145   1.537   4.194   4.409
 2203SOL    HW2 7146   1.627   4.250   4.517
 2204SOL     OW 7147   1.133   5.072   5.425
 2204SOL    HW1 7148   1.164   5.073   5.516
 2204SOL    HW2 7149   1.080   4.993   5.418
 2205SOL     OW 7150   0.212   5.151   4.256
 2205SOL    HW1 7151   0.251   5.231   4.292
 2205SOL    HW2 7152   0.133   5.138   4.307
 2206SOL     OW 7153   0.252   4.799   4.599
 2206SOL    HW1 7154   0.264   4.712   4.639
 2206SOL    HW2 7155   0.196   4.846   4.661
 2207SOL     OW 7156   0.583   4.707   3.859
 2207SOL    HW1 7157   0.630   4.754   3.790
 2207SOL    HW2 7158   0.623   4.736   3.941
 2208SOL     OW 7159   1.596   3.847   5.192
 2208SOL    HW1 7160   1.603   3.928   5.141
 2208SOL    HW2 7161   1.582   3.877   5.282
 2209SOL     OW 7162   0.127   4.356   4.302
 2209SOL    HW1 7163   0.088   4.274   4.333
 2209SOL    HW2 7164   0.099   4.421   4.367
 2210SOL     OW 7165   5.299   5.299   3.806
 2210SOL    HW1 7166   0.015   5.211   3.840
 2210SOL    HW2 7167   0.026   0.058   3.877
 2211SOL     OW 7168   1.689   4.642   4.365
 2211SOL    HW1 7169   1.772   4.600   4.344
 2211SOL    HW2 7170   1.667   4.693   4.286
 2212SOL     OW 7171   1.646   4.831   4.153
 2212SOL    HW1 7172   1.731   4.835   4.111
 2212SOL    HW2 7173   1.652   4.892   4.227
 2213SOL     OW 7174   0.131   4.472   5.310
 2213SOL    HW1 7175   0.225   4.486   5.311
 2213SOL    HW2 7176   0.093   4.559   5.323
 2214SOL     OW 7177   0.627   5.096   4.459
 2214SOL    HW1 7178   0.570   5.019   4.459
 2214SOL    HW2 7179   0.601   5.145   4.381
 2215SOL     OW 7180   1.289   4.954   5.150
 2215SOL    HW1 7181   1.323   4.889   5.089
 2215SOL    HW2 7182   1.349   4.951   5.224
 2216SOL     OW 7183   0.823   3.723   4.234
 2216SOL    HW1 7184   0.863   3.808   4.214
 2216SOL    HW2 7185   0.729   3.742   4.240
 2217SOL     OW 7186   0.176   4.667   5.006
 2217SOL    HW1 7187   0.266   4.637   4.993
 2217SOL    HW2 7188   0.135   4.655   4.921
 2218SOL     OW 7189   1.531   4.719   3.921
 2218SOL    HW1 7190   1.461   4.661   3.953
 2218SOL    HW2 7191   1.572   4.753   4.001
 2219SOL     OW 7192   0.336   3.977   5.541
 2219SOL    HW1 7193   0.383   4.060   5.553
 2219SOL    HW2 7194   0.249   3.994   5.576
 2220SOL     OW 7195   1.477   5.147   4.686
 2220SOL    HW1 7196   1.404   5.159   4.747
 2220SOL    HW2 7197   1.464   5.058   4.652
 2221SOL     OW 7198   0.596   4.445   3.990
 2221SOL    HW1 7199   0.603   4.526   3.940
 2221SOL    HW2 7200   0.531   4.465   4.058
 2222SOL     OW 7201   1.279   4.077   4.657
 2222SOL    HW1 7202   1.190   4.044   4.665
 2222SOL    HW2 7203   1.330   4.024   4.718
 2223SOL     OW 7204   0.792   4.341   5.175
 2223SOL    HW1 7205   0.765   4.318   5.264
 2223SOL    HW2 7206   0.752   4.275   5.119
 2224SOL     OW 7207   1.393   4.198   5.402
 2224SOL    HW1 7208   1.396   4.243   5.487
 2224SOL    HW2 7209   1.455   4.125   5.411
 2225SOL     OW 7210   0.955   4.612   5.307
 2225SOL    HW1 7211   1.009   4.541   5.271
 2225SOL    HW2 7212   0.907   4.645   5.231
 2226SOL     OW 7213   0.992   4.137   4.963
 2226SOL    HW1 7214   0.906   4.158   4.999
 2226SOL    HW2 7215   0.973   4.090   4.881
 2227SOL     OW 7216   1.051   4.423   4.150
 2227SOL    HW1 7217   1.067   4.415   4.244
 2227SOL    HW2 7218   0.968   4.376   4.136
 2228SOL     OW 7219   0.072   4.510   4.534
 2228SOL    HW1 7220   0.153   4.515   4.585
 2228SOL    HW2 7221   0.061   4.598   4.498
 2229SOL     OW 7222   0.893   4.073   3.918
 2229SOL    HW1 7223   0.933   4.134   3.857
 2229SOL    HW2 7224   0.909   3.987   3.879
 2230SOL     OW 7225   1.709   4.298   5.552
 2230SOL    HW1 7226   1.671   4.372   5.504
 2230SOL    HW2 7227   1.736   4.237   5.484
 2231SOL     OW 7228   1.377   4.864   4.263
 2231SOL    HW1 7229   1.459   4.850   4.215
 2231SOL    HW2 7230   1.327   4.925   4.209
 2232SOL     OW 7231   0.556   3.907   4.618
 2232SOL    HW1 7232   0.553   3.935   4.709
 2232SOL    HW2 7233   0.551   3.988   4.567
 2233SOL     OW 7234   1.023   5.169   4.195
 2233SOL    HW1 7235   0.946   5.225   4.190
 2233SOL    HW2 7236   1.038   5.157   4.288
 2234SOL     OW 7237   1.800   4.781   4.590
 2234SOL    HW1 7238   1.744   4.763   4.515
 2234SOL    HW2 7239   1.740   4.788   4.665
 2235SOL     OW 7240   1.250   5.240   5.248
 2235SOL    HW1 7241   1.214   5.173   5.307
 2235SOL    HW2 7242   1.179   5.259   5.187
 2236SOL     OW 7243   0.316   4.676   3.971
 2236SOL    HW1 7244   0.398   4.698   3.927
 2236SOL    HW2 7245   0.293   4.590   3.936
 2237SOL     OW 7246   1.478   4.467   4.451
 2237SOL    HW1 7247   1.470   4.423   4.536
 2237SOL    HW2 7248   1.556   4.522   4.460
 2238SOL     OW 7249   0.463   4.989   5.467
 2238SOL    HW1 7250   0.437   4.992   5.374
 2238SOL    HW2 7251   0.380   4.988   5.515
 2239SOL     OW 7252   1.067   0.179   3.931
 2239SOL    HW1 7253   1.081   0.106   3.991
 2239SOL    HW2 7254   1.104   0.149   3.848
 2240SOL     OW 7255   0.205   4.004   5.221
 2240SOL    HW1 7256   0.126   4.056   5.205
 2240SOL    HW2 7257   0.173   3.925   5.265
 2241SOL     OW 7258   1.622   5.101   3.832
 2241SOL    HW1 7259   1.621   5.176   3.773
 2241SOL    HW2 7260   1.555   5.042   3.798
 2242SOL     OW 7261   1.401   3.831   4.157
 2242SOL    HW1 7262   1.391   3.806   4.065
 2242SOL    HW2 7263   1.496   3.837   4.170
 2243SOL     OW 7264   0.386   4.420   4.203
 2243SOL    HW1 7265   0.415   4.329   4.212
 2243SOL    HW2 7266   0.293   4.417   4.223
 2244SOL     OW 7267   1.535   3.949   5.449
 2244SOL    HW1 7268   1.544   3.970   5.542
 2244SOL    HW2 7269   1.466   3.883   5.446
 2245SOL     OW 7270   0.634   3.846   3.829
 2245SOL    HW1 7271   0.704   3.782   3.841
 2245SOL    HW2 7272   0.585   3.815   3.753
 2246SOL     OW 7273   0.767   4.002   5.478
 2246SOL    HW1 7274   0.842   3.943   5.479
 2246SOL    HW2 7275   0.718   3.980   5.557
 2247SOL     OW 7276   1.340   4.313   5.156
 2247SOL    HW1 7277   1.371   4.281   5.241
 2247SOL    HW2 7278   1.376   4.401   5.148
 2248SOL     OW 7279   0.814   5.120   4.660
 2248SOL    HW1 7280   0.894   5.105   4.610
 2248SOL    HW2 7281   0.745   5.126   4.593
 2249SOL     OW 7282   0.928   4.234   4.627
 2249SOL    HW1 7283   0.904   4.225   4.534
 2249SOL    HW2 7284   0.959   4.146   4.652
 2250SOL     OW 7285   0.560   3.785   4.220
 2250SOL    HW1 7286   0.485   3.785   4.279
 2250SOL    HW2 7287   0.550   3.865   4.168
 2251SOL     OW 7288   1.428   4.924   3.762
 2251SOL    HW1 7289   1.459   4.848   3.813
 2251SOL    HW2 7290   1.340   4.941   3.796
 2252SOL     OW 7291   0.305   3.771   3.903
 2252SOL    HW1 7292   0.367   3.835   3.868
 2252SOL    HW2 7293   0.360   3.706   3.948
 2253SOL     OW 7294   0.940   3.971   4.184
 2253SOL    HW1 7295   0.912   4.012   4.102
 2253SOL    HW2 7296   1.034   3.985   4.188
 2254SOL     OW 7297   1.080   4.405   5.184
 2254SOL    HW1 7298   1.011   4.338   5.188
 2254SOL    HW2 7299   1.161   4.355   5.177
 2255SOL     OW 7300   1.264   5.267   4.502
 2255SOL    HW1 7301   1.220   0.048   4.475
 2255SOL    HW2 7302   1.308   5.289   4.584
 2256SOL     OW 7303   0.465   4.873   4.452
 2256SOL    HW1 7304   0.397   4.853   4.516
 2256SOL    HW2 7305   0.425   4.853   4.368
 2257SOL     OW 7306   1.023   4.266   3.747
 2257SOL    HW1 7307   0.981   4.349   3.727
 2257SOL    HW2 7308   1.089   4.287   3.813
 2258SOL     OW 7309   0.088   4.269   5.122
 2258SOL    HW1 7310   0.175   4.276   5.085
 2258SOL    HW2 7311   0.079   4.345   5.179
 2259SOL     OW 7312   0.560   3.952   4.890
 2259SOL    HW1 7313   0.598   3.872   4.927
 2259SOL    HW2 7314   0.469   3.950   4.918
 2260SOL     OW 7315   0.868   4.183   4.363
 2260SOL    HW1 7316   0.822   4.237   4.299
 2260SOL    HW2 7317   0.889   4.103   4.316
 2261SOL     OW 7318   1.015   3.777   4.475
 2261SOL    HW1 7319   0.957   3.770   4.400
 2261SOL    HW2 7320   0.994   3.702   4.530
 2262SOL     OW 7321   1.437   4.890   4.583
 2262SOL    HW1 7322   1.371   4.821   4.579
 2262SOL    HW2 7323   1.463   4.903   4.491
 2263SOL     OW 7324   1.466   4.329   4.701
 2263SOL    HW1 7325   1.416   4.248   4.704
 2263SOL    HW2 7326   1.526   4.323   4.775
 2264SOL     OW 7327   1.845   4.540   4.107
 2264SOL    HW1 7328   1.902   4.489   4.165
 2264SOL    HW2 7329   1.817   4.477   4.040
 2265SOL     OW 7330   0.483   5.144   3.877
 2265SOL    HW1 7331   0.420   5.094   3.929
 2265SOL    HW2 7332   0.482   5.101   3.791
 2266SOL     OW 7333   1.669   4.987   4.370
 2266SOL    HW1 7334   1.763   4.993   4.388
 2266SOL    HW2 7335   1.636   5.075   4.387
 2267SOL     OW 7336   1.394   4.296   3.795
 2267SOL    HW1 7337   1.333   4.276   3.867
 2267SOL    HW2 7338   1.478   4.263   3.826
 2268SOL     OW 7339   0.524   3.987   4.041
 2268SOL    HW1 7340   0.569   3.940   3.971
 2268SOL    HW2 7341   0.502   4.072   4.002
 2269SOL     OW 7342   1.751   4.960   5.300
 2269SOL    HW1 7343   1.837   4.918   5.300
 2269SOL    HW2 7344   1.770   5.053   5.312
 2270SOL     OW 7345   1.064   5.075   5.055
 2270SOL    HW1 7346   0.986   5.049   5.103
 2270SOL    HW2 7347   1.137   5.035   5.104
 2271SOL     OW 7348   1.127   4.926   4.832
 2271SOL    HW1 7349   1.076   4.967   4.902
 2271SOL    HW2 7350   1.081   4.951   4.751
 2272SOL     OW 7351   1.629   4.822   4.801
 2272SOL    HW1 7352   1.624   4.884   4.874
 2272SOL    HW2 7353   1.550   4.841   4.749
 2273SOL     OW 7354   0.919   3.820   5.121
 2273SOL    HW1 7355   0.940   3.802   5.030
 2273SOL    HW2 7356   0.998   3.860   5.157
 2274SOL     OW 7357   0.984   4.839   5.449
 2274SOL    HW1 7358   0.892   4.855   5.467
 2274SOL    HW2 7359   0.985   4.762   5.391
 2275SOL     OW 7360   0.703   4.781   4.097
 2275SOL    HW1 7361   0.693   4.766   4.191
 2275SOL    HW2 7362   0.781   4.731   4.073
 2276SOL     OW 7363   0.421   4.542   4.975
 2276SOL    HW1 7364   0.490   4.549   5.042
 2276SOL    HW2 7365   0.386   4.454   4.986
 2277SOL     OW 7366   1.265   4.101   4.999
 2277SOL    HW1 7367   1.298   4.178   5.045
 2277SOL    HW2 7368   1.175   4.123   4.976
 2278SOL     OW 7369   0.113   5.291   5.042
 2278SOL    HW1 7370   0.051   0.047   5.089
 2278SOL    HW2 7371   0.189   5.287   5.099
 2279SOL     OW 7372   0.344   4.828   4.211
 2279SOL    HW1 7373   0.350   4.907   4.156
 2279SOL    HW2 7374   0.351   4.755   4.149
 2280SOL     OW 7375   0.554   4.260   4.583
 2280SOL    HW1 7376   0.570   4.318   4.509
 2280SOL    HW2 7377   0.619   4.287   4.649
 2281SOL     OW 7378   1.260   5.077   4.109
 2281SOL    HW1 7379   1.317   5.143   4.148
 2281SOL    HW2 7380   1.172   5.099   4.139
 2282SOL     OW 7381   1.269   5.182   4.865
 2282SOL    HW1 7382   1.328   5.195   4.939
 2282SOL    HW2 7383   1.225   5.099   4.884
 2283SOL     OW 7384   1.582   4.346   4.204
 2283SOL    HW1 7385   1.535   4.401   4.267
 2283SOL    HW2 7386   1.627   4.409   4.147
 2284SOL     OW 7387   0.381   5.230   5.040
 2284SOL    HW1 7388   0.364   5.192   4.954
 2284SOL    HW2 7389   0.474   5.256   5.036
 2285SOL     OW 7390   0.414   4.467   5.326
 2285SOL    HW1 7391   0.475   4.512   5.268
 2285SOL    HW2 7392   0.453   4.380   5.339
 2286SOL     OW 7393   1.601   4.503   5.406
 2286SOL    HW1 7394   1.515   4.544   5.399
 2286SOL    HW2 7395   1.654   4.545   5.338
 2287SOL     OW 7396   0.996   3.847   5.479
 2287SOL    HW1 7397   1.052   3.920   5.451
 2287SOL    HW2 7398   1.044   3.769   5.454
 2288SOL     OW 7399   0.497   3.765   5.472
 2288SOL    HW1 7400   0.455   3.711   5.405
 2288SOL    HW2 7401   0.438   3.839   5.484
 2289SOL     OW 7402   0.586   4.597   4.756
 2289SOL    HW1 7403   0.614   4.688   4.754
 2289SOL    HW2 7404   0.529   4.591   4.833
 2290SOL     OW 7405   1.357   4.582   4.752
 2290SOL    HW1 7406   1.274   4.572   4.707
 2290SOL    HW2 7407   1.398   4.496   4.747
 2291SOL     OW 7408   1.205   4.253   3.991
 2291SOL    HW1 7409   1.213   4.174   4.045
 2291SOL    HW2 7410   1.161   4.317   4.047
 2292SOL     OW 7411   0.302   3.927   4.972
 2292SOL    HW1 7412   0.267   3.952   5.058
 2292SOL    HW2 7413   0.289   3.832   4.967
 2293SOL     OW 7414   0.044   5.022   5.000
 2293SOL    HW1 7415   0.074   4.972   5.076
 2293SOL    HW2 7416   0.044   5.113   5.029
 2294SOL     OW 7417   0.725   4.355   4.782
 2294SOL    HW1 7418   0.799   4.339   4.724
 2294SOL    HW2 7419   0.696   4.444   4.761
 2295SOL     OW 7420   1.734   4.684   5.576
 2295SOL    HW1 7421   1.689   4.622   5.519
 2295SOL    HW2 7422   1.675   4.697   5.650
 2296SOL     OW 7423   0.328   3.786   4.358
 2296SOL    HW1 7424   0.307   3.875   4.386
 2296SOL    HW2 7425   0.332   3.736   4.440
 2297SOL     OW 7426   1.616   4.098   4.091
 2297SOL    HW1 7427   1.644   4.034   4.156
 2297SOL    HW2 7428   1.594   4.176   4.142
 2298SOL     OW 7429   1.028   4.483   4.685
 2298SOL    HW1 7430   1.024   4.501   4.779
 2298SOL    HW2 7431   1.001   4.392   4.676
 2299SOL     OW 7432   1.854   5.214   5.309
 2299SOL    HW1 7433   1.849   5.289   5.250
 2299SOL    HW2 7434   1.924   5.236   5.371
 2300SOL     OW 7435   0.354   4.643   5.530
 2300SOL    HW1 7436   0.435   4.660   5.578
 2300SOL    HW2 7437   0.379   4.577   5.464
 2301SOL     OW 7438   1.529   3.998   3.851
 2301SOL    HW1 7439   1.464   3.932   3.877
 2301SOL    HW2 7440   1.562   4.033   3.934
 2302SOL     OW 7441   1.292   4.550   3.755
 2302SOL    HW1 7442   1.335   4.465   3.759
 2302SOL    HW2 7443   1.323   4.589   3.673
 2303SOL     OW 7444   1.058   5.079   4.549
 2303SOL    HW1 7445   1.063   4.993   4.506
 2303SOL    HW2 7446   1.145   5.117   4.537
 2304SOL     OW 7447   0.314   4.533   4.673
 2304SOL    HW1 7448   0.409   4.550   4.669
 2304SOL    HW2 7449   0.308   4.443   4.706
 2305SOL     OW 7450   0.335   4.250   4.739
 2305SOL    HW1 7451   0.300   4.162   4.725
 2305SOL    HW2 7452   0.410   4.255   4.679
 2306SOL     OW 7453   1.134   4.100   5.406
 2306SOL    HW1 7454   1.086   4.155   5.468
 2306SOL    HW2 7455   1.222   4.138   5.402
 2307SOL     OW 7456   1.161   3.927   5.194
 2307SOL    HW1 7457   1.150   3.989   5.266
 2307SOL    HW2 7458   1.200   3.977   5.123
 2308SOL     OW 7459   0.002   5.048   3.931
 2308SOL    HW1 7460   5.226   5.036   3.875
 2308SOL    HW2 7461   0.014   4.963   3.974
 2309SOL     OW 7462   0.983   4.516   4.951
 2309SOL    HW1 7463   1.039   4.493   5.025
 2309SOL    HW2 7464   0.898   4.478   4.972
 2310SOL     OW 7465   0.032   4.284   4.839
 2310SOL    HW1 7466   0.119   4.260   4.806
 2310SOL    HW2 7467   0.037   4.267   4.933
 2311SOL     OW 7468   0.175   4.237   5.436
 2311SOL    HW1 7469   0.239   4.200   5.376
 2311SOL    HW2 7470   0.146   4.318   5.394
 2312SOL     OW 7471   1.377   4.663   5.382
 2312SOL    HW1 7472   1.397   4.756   5.379
 2312SOL    HW2 7473   1.373   4.636   5.290
 2313SOL     OW 7474   0.816   4.293   4.084
 2313SOL    HW1 7475   0.821   4.218   4.024
 2313SOL    HW2 7476   0.742   4.345   4.052
 2314SOL     OW 7477   1.642   4.325   4.910
 2314SOL    HW1 7478   1.631   4.266   4.984
 2314SOL    HW2 7479   1.729   4.305   4.875
 2315SOL     OW 7480   0.209   5.279   5.456
 2315SOL    HW1 7481   0.175   0.022   5.534
 2315SOL    HW2 7482   0.213   5.186   5.479
 2316SOL     OW 7483   0.702   4.174   4.984
 2316SOL    HW1 7484   0.649   4.100   4.954
 2316SOL    HW2 7485   0.697   4.237   4.912
 2317SOL     OW 7486   0.465   4.217   3.909
 2317SOL    HW1 7487   0.525   4.289   3.931
 2317SOL    HW2 7488   0.380   4.260   3.897
 2318SOL     OW 7489   0.151   4.861   5.196
 2318SOL    HW1 7490   0.147   4.812   5.278
 2318SOL    HW2 7491   0.161   4.794   5.128
 2319SOL     OW 7492   1.327   4.769   4.946
 2319SOL    HW1 7493   1.350   4.707   4.878
 2319SOL    HW2 7494   1.256   4.822   4.909
 2320SOL     OW 7495   1.310   4.582   4.030
 2320SOL    HW1 7496   1.235   4.549   4.080
 2320SOL    HW2 7497   1.287   4.567   3.939
 2321SOL     OW 7498   0.076   4.918   4.754
 2321SOL    HW1 7499   0.065   4.959   4.840
 2321SOL    HW2 7500   5.289   4.924   4.714
 2322SOL     OW 7501   0.752   0.038   5.433
 2322SOL    HW1 7502   0.659   0.060   5.442
 2322SOL    HW2 7503   0.773   0.060   5.342
 2323SOL     OW 7504   1.720   3.871   4.234
 2323SOL    HW1 7505   1.792   3.856   4.173
 2323SOL    HW2 7506   1.703   3.785   4.274
 2324SOL     OW 7507   1.277   4.650   4.396
 2324SOL    HW1 7508   1.350   4.588   4.403
 2324SOL    HW2 7509   1.311   4.722   4.342
 2325SOL     OW 7510   0.818   4.993   5.144
 2325SOL    HW1 7511   0.788   5.029   5.227
 2325SOL    HW2 7512   0.743   5.001   5.086
 2326SOL     OW 7513   1.841   3.895   4.691
 2326SOL    HW1 7514   1.869   3.808   4.662
 2326SOL    HW2 7515   1.755   3.907   4.651
 2327SOL     OW 7516   0.273   4.041   4.441
 2327SOL    HW1 7517   0.188   4.080   4.421
 2327SOL    HW2 7518   0.271   4.030   4.536
 2328SOL     OW 7519   0.825   4.727   5.095
 2328SOL    HW1 7520   0.870   4.720   5.011
 2328SOL    HW2 7521   0.828   4.821   5.116
 2329SOL     OW 7522   0.915   4.636   4.014
 2329SOL    HW1 7523   0.977   4.668   3.948
 2329SOL    HW2 7524   0.963   4.566   4.059
 2330SOL     OW 7525   0.366   5.028   5.224
 2330SOL    HW1 7526   0.366   5.098   5.159
 2330SOL    HW2 7527   0.291   4.973   5.200
 2331SOL     OW 7528   1.612   5.004   5.006
 2331SOL    HW1 7529   1.669   4.997   5.083
 2331SOL    HW2 7530   1.550   5.073   5.028
 2332SOL     OW 7531   1.054   4.833   4.435
 2332SOL    HW1 7532   0.982   4.782   4.472
 2332SOL    HW2 7533   1.116   4.768   4.403
 2333SOL     OW 7534   1.021   3.964   4.690
 2333SOL    HW1 7535   1.016   3.917   4.607
 2333SOL    HW2 7536   1.016   3.897   4.757
 2334SOL     OW 7537   1.722   4.116   5.104
 2334SOL    HW1 7538   1.794   4.179   5.103
 2334SOL    HW2 7539   1.752   4.045   5.048
 2335SOL     OW 7540   0.259   5.059   4.010
 2335SOL    HW1 7541   0.167   5.063   3.986
 2335SOL    HW2 7542   0.262   5.097   4.098
 2336SOL     OW 7543   0.116   4.742   5.443
 2336SOL    HW1 7544   0.045   4.704   5.495
 2336SOL    HW2 7545   0.196   4.709   5.485
 2337SOL     OW 7546   0.674   3.920   5.223
 2337SOL    HW1 7547   0.758   3.900   5.182
 2337SOL    HW2 7548   0.698   3.952   5.311
 2338SOL     OW 7549   0.082   4.074   3.765
 2338SOL    HW1 7550   0.003   4.025   3.742
 2338SOL    HW2 7551   0.098   4.131   3.690
 2339SOL     OW 7552   1.430   4.582   5.124
 2339SOL    HW1 7553   1.381   4.642   5.068
 2339SOL    HW2 7554   1.519   4.584   5.090
 2340SOL     OW 7555   0.056   3.857   3.967
 2340SOL    HW1 7556   0.055   3.952   3.958
 2340SOL    HW2 7557   0.145   3.832   3.945
 2341SOL     OW 7558   1.182   5.064   3.845
 2341SOL    HW1 7559   1.091   5.035   3.845
 2341SOL    HW2 7560   1.210   5.056   3.936
 2342SOL     OW 7561   0.619   4.555   5.160
 2342SOL    HW1 7562   0.676   4.630   5.143
 2342SOL    HW2 7563   0.679   4.481   5.167
 2343SOL     OW 7564   0.717   4.288   5.429
 2343SOL    HW1 7565   0.759   4.350   5.489
 2343SOL    HW2 7566   0.745   4.202   5.460
 2344SOL     OW 7567   1.474   4.923   5.355
 2344SOL    HW1 7568   1.460   4.935   5.449
 2344SOL    HW2 7569   1.567   4.937   5.342
 2345SOL     OW 7570   1.670   4.605   4.979
 2345SOL    HW1 7571   1.663   4.520   4.936
 2345SOL    HW2 7572   1.659   4.669   4.908
 2346SOL     OW 7573   1.217   4.043   4.182
 2346SOL    HW1 7574   1.280   3.972   4.173
 2346SOL    HW2 7575   1.246   4.092   4.259
 2347SOL     OW 7576   0.590   4.461   4.393
 2347SOL    HW1 7577   0.629   4.548   4.378
 2347SOL    HW2 7578   0.521   4.454   4.328
 2348SOL     OW 7579   1.762   4.085   5.374
 2348SOL    HW1 7580   1.745   4.101   5.281
 2348SOL    HW2 7581   1.691   4.029   5.403
 2349SOL     OW 7582   1.745   4.657   5.236
 2349SOL    HW1 7583   1.741   4.752   5.249
 2349SOL    HW2 7584   1.729   4.645   5.142
 2350SOL     OW 7585   0.849   5.095   3.743
 2350SOL    HW1 7586   0.830   5.095   3.837
 2350SOL    HW2 7587   0.866   5.186   3.722
 2351SOL     OW 7588   0.868   4.691   4.578
 2351SOL    HW1 7589   0.917   4.620   4.619
 2351SOL    HW2 7590   0.833   4.741   4.652
 2352SOL     OW 7591   1.080   4.713   3.813
 2352SOL    HW1 7592   1.057   4.763   3.735
 2352SOL    HW2 7593   1.154   4.659   3.787
 2353SOL     OW 7594   0.220   5.025   5.578
 2353SOL    HW1 7595   0.155   4.957   5.559
 2353SOL    HW2 7596   0.217   5.035   5.674
 2354SOL     OW 7597   0.083   4.929   4.379
 2354SOL    HW1 7598   0.101   4.907   4.471
 2354SOL    HW2 7599   0.169   4.940   4.339
 2355SOL     OW 7600   0.671   5.106   5.333
 2355SOL    HW1 7601   0.594   5.073   5.380
 2355SOL    HW2 7602   0.703   5.178   5.387
 2356SOL     OW 7603   1.813   3.908   4.962
 2356SOL    HW1 7604   1.822   3.814   4.977
 2356SOL    HW2 7605   1.822   3.919   4.867
 2357SOL     OW 7606   0.435   4.160   4.248
 2357SOL    HW1 7607   0.462   4.087   4.192
 2357SOL    HW2 7608   0.387   4.118   4.320
 2358SOL     OW 7609   1.707   5.224   4.843
 2358SOL    HW1 7610   1.633   5.207   4.784
 2358SOL    HW2 7611   1.713   5.144   4.896
 2359SOL     OW 7612   0.337   4.283   5.015
 2359SOL    HW1 7613   0.389   4.224   5.069
 2359SOL    HW2 7614   0.350   4.254   4.926
 2360SOL     OW 7615   1.432   3.949   4.842
 2360SOL    HW1 7616   1.456   3.869   4.888
 2360SOL    HW2 7617   1.380   3.999   4.906
 2361SOL     OW 7618   1.009   3.743   4.866
 2361SOL    HW1 7619   0.954   3.675   4.826
 2361SOL    HW2 7620   1.097   3.705   4.868
 2362SOL     OW 7621   0.804   5.047   4.008
 2362SOL    HW1 7622   0.743   4.976   4.027
 2362SOL    HW2 7623   0.857   5.054   4.087
 2363SOL     OW 7624   0.640   0.003   5.011
 2363SOL    HW1 7625   0.643   0.057   5.090
 2363SOL    HW2 7626   0.731   5.285   4.990
 2364SOL     OW 7627   1.352   3.778   3.889
 2364SOL    HW1 7628   1.382   3.713   3.825
 2364SOL    HW2 7629   1.265   3.748   3.915
 2365SOL     OW 7630   1.297   4.185   4.405
 2365SOL    HW1 7631   1.243   4.264   4.412
 2365SOL    HW2 7632   1.293   4.145   4.492
 2366SOL     OW 7633   1.587   3.926   4.603
 2366SOL    HW1 7634   1.526   3.947   4.673
 2366SOL    HW2 7635   1.586   4.004   4.547
 2367SOL     OW 7636   0.047   4.790   4.014
 2367SOL    HW1 7637   0.137   4.759   4.004
 2367SOL    HW2 7638   0.000   4.716   4.052
 2368SOL     OW 7639   0.233   4.356   5.702
 2368SOL    HW1 7640   0.160   4.323   5.753
 2368SOL    HW2 7641   0.218   4.321   5.614
 2369SOL     OW 7642   0.242   3.999   6.576
 2369SOL    HW1 7643   0.256   3.965   6.664
 2369SOL    HW2 7644   0.158   3.963   6.548
 2370SOL     OW 7645   5.298   4.122   6.239
 2370SOL    HW1 7646   5.205   4.144   6.245
 2370SOL    HW2 7647   5.299   4.031   6.208
 2371SOL     OW 7648   0.574   5.000   6.770
 2371SOL    HW1 7649   0.494   5.006   6.716
 2371SOL    HW2 7650   0.592   5.090   6.796
 2372SOL     OW 7651   1.555   5.232   6.275
 2372SOL    HW1 7652   1.536   5.228   6.368
 2372SOL    HW2 7653   1.476   5.268   6.235
 2373SOL     OW 7654   1.130   4.422   6.287
 2373SOL    HW1 7655   1.179   4.503   6.273
 2373SOL    HW2 7656   1.083   4.436   6.369
 2374SOL     OW 7657   1.767   4.329   5.815
 2374SOL    HW1 7658   1.746   4.321   5.721
 2374SOL    HW2 7659   1.731   4.250   5.854
 2375SOL     OW 7660   0.758   4.867   6.623
 2375SOL    HW1 7661   0.691   4.897   6.685
 2375SOL    HW2 7662   0.786   4.947   6.578
 2376SOL     OW 7663   0.866   4.501   7.406
 2376SOL    HW1 7664   0.853   4.576   7.464
 2376SOL    HW2 7665   0.891   4.539   7.322
 2377SOL     OW 7666   0.686   4.726   6.234
 2377SOL    HW1 7667   0.751   4.715   6.303
 2377SOL    HW2 7668   0.618   4.781   6.274
 2378SOL     OW 7669   0.708   4.872   7.398
 2378SOL    HW1 7670   0.756   4.951   7.421
 2378SOL    HW2 7671   0.625   4.905   7.362
 2379SOL     OW 7672   0.377   5.146   6.639
 2379SOL    HW1 7673   0.283   5.155   6.627
 2379SOL    HW2 7674   0.416   5.198   6.569
 2380SOL     OW 7675   1.455   5.220   6.933
 2380SOL    HW1 7676   1.509   5.293   6.965
 2380SOL    HW2 7677   1.388   5.210   7.001
 2381SOL     OW 7678   0.451   4.124   7.079
 2381SOL    HW1 7679   0.525   4.064   7.081
 2381SOL    HW2 7680   0.374   4.068   7.089
 2382SOL     OW 7681   1.612   4.172   6.326
 2382SOL    HW1 7682   1.537   4.194   6.272
 2382SOL    HW2 7683   1.627   4.250   6.380
 2383SOL     OW 7684   1.133   5.072   7.286
 2383SOL    HW1 7685   1.165   5.071   7.376
 2383SOL    HW2 7686   1.079   4.993   7.279
 2384SOL     OW 7687   0.212   5.151   6.118
 2384SOL    HW1 7688   0.251   5.231   6.154
 2384SOL    HW2 7689   0.133   5.138   6.169
 2385SOL     OW 7690   0.252   4.799   6.462
 2385SOL    HW1 7691   0.264   4.712   6.500
 2385SOL    HW2 7692   0.196   4.846   6.523
 2386SOL     OW 7693   0.583   4.707   5.721
 2386SOL    HW1 7694   0.630   4.754   5.652
 2386SOL    HW2 7695   0.623   4.736   5.803
 2387SOL     OW 7696   1.596   3.847   7.054
 2387SOL    HW1 7697   1.603   3.928   7.003
 2387SOL    HW2 7698   1.582   3.877   7.144
 2388SOL     OW 7699   0.127   4.356   6.165
 2388SOL    HW1 7700   0.088   4.274   6.195
 2388SOL    HW2 7701   0.099   4.421   6.229
 2389SOL     OW 7702   5.299   5.299   5.668
 2389SOL    HW1 7703   0.015   5.211   5.702
 2389SOL    HW2 7704   0.026   0.058   5.739
 2390SOL     OW 7705   1.689   4.642   6.227
 2390SOL    HW1 7706   1.772   4.600   6.206
 2390SOL    HW2 7707   1.667   4.692   6.148
 2391SOL     OW 7708   1.646   4.831   6.015
 2391SOL    HW1 7709   1.731   4.836   5.973
 2391SOL    HW2 7710   1.652   4.892   6.089
 2392SOL     OW 7711   0.131   4.470   7.174
 2392SOL    HW1 7712   0.225   4.485   7.173
 2392SOL    HW2 7713   0.093   4.557   7.184
 2393SOL     OW 7714   0.626   5.096   6.322
 2393SOL    HW1 7715   0.570   5.019   6.321
 2393SOL    HW2 7716   0.601   5.145   6.243
 2394SOL     OW 7717   1.289   4.954   7.012
 2394SOL    HW1 7718   1.323   4.889   6.951
 2394SOL    HW2 7719   1.349   4.951   7.086
 2395SOL     OW 7720   0.823   3.723   6.096
 2395SOL    HW1 7721   0.863   3.808   6.076
 2395SOL    HW2 7722   0.729   3.742   6.102
 2396SOL     OW 7723   0.176   4.667   6.868
 2396SOL    HW1 7724   0.266   4.637   6.855
 2396SOL    HW2 7725   0.134   4.656   6.783
 2397SOL     OW 7726   1.531   4.719   5.783
 2397SOL    HW1 7727   1.461   4.661   5.815
 2397SOL    HW2 7728   1.572   4.753   5.863
 2398SOL     OW 7729   0.337   3.976   7.402
 2398SOL    HW1 7730   0.384   4.059   7.415
 2398SOL    HW2 7731   0.250   3.993   7.437
 2399SOL     OW 7732   1.477   5.147   6.548
 2399SOL    HW1 7733   1.404   5.159   6.609
 2399SOL    HW2 7734   1.464   5.058   6.514
 2400SOL     OW 7735   0.596   4.445   5.852
 2400SOL    HW1 7736   0.603   4.526   5.802
 2400SOL    HW2 7737   0.531   4.465   5.920
 2401SOL     OW 7738   1.279   4.077   6.519
 2401SOL    HW1 7739   1.190   4.044   6.527
 2401SOL    HW2 7740   1.330   4.024   6.580
 2402SOL     OW 7741   0.791   4.342   7.038
 2402SOL    HW1 7742   0.765   4.317   7.126
 2402SOL    HW2 7743   0.752   4.275   6.982
 2403SOL     OW 7744   1.394   4.198   7.263
 2403SOL    HW1 7745   1.396   4.242   7.348
 2403SOL    HW2 7746   1.454   4.125   7.273
 2404SOL     OW 7747   0.955   4.612   7.168
 2404SOL    HW1 7748   1.009   4.541   7.133
 2404SOL    HW2 7749   0.907   4.645   7.093
 2405SOL     OW 7750   0.992   4.137   6.824
 2405SOL    HW1 7751   0.906   4.157   6.861
 2405SOL    HW2 7752   0.973   4.090   6.743
 2406SOL     OW 7753   1.051   4.423   6.012
 2406SOL    HW1 7754   1.067   4.415   6.106
 2406SOL    HW2 7755   0.969   4.376   5.998
 2407SOL     OW 7756   0.072   4.510   6.396
 2407SOL    HW1 7757   0.153   4.515   6.447
 2407SOL    HW2 7758   0.061   4.597   6.359
 2408SOL     OW 7759   0.893   4.073   5.780
 2408SOL    HW1 7760   0.933   4.134   5.719
 2408SOL    HW2 7761   0.908   3.987   5.741
 2409SOL     OW 7762   1.709   4.300   7.415
 2409SOL    HW1 7763   1.671   4.373   7.367
 2409SOL    HW2 7764   1.736   4.238   7.347
 2410SOL     OW 7765   1.377   4.864   6.125
 2410SOL    HW1 7766   1.459   4.850   6.077
 2410SOL    HW2 7767   1.327   4.925   6.071
 2411SOL     OW 7768   0.556   3.907   6.479
 2411SOL    HW1 7769   0.553   3.935   6.571
 2411SOL    HW2 7770   0.551   3.988   6.429
 2412SOL     OW 7771   1.023   5.169   6.057
 2412SOL    HW1 7772   0.946   5.225   6.052
 2412SOL    HW2 7773   1.038   5.157   6.150
 2413SOL     OW 7774   1.800   4.781   6.452
 2413SOL    HW1 7775   1.744   4.763   6.377
 2413SOL    HW2 7776   1.740   4.788   6.527
 2414SOL     OW 7777   1.250   5.240   7.110
 2414SOL    HW1 7778   1.214   5.173   7.168
 2414SOL    HW2 7779   1.179   5.260   7.049
 2415SOL     OW 7780   0.316   4.676   5.833
 2415SOL    HW1 7781   0.398   4.698   5.789
 2415SOL    HW2 7782   0.293   4.590   5.798
 2416SOL     OW 7783   1.478   4.467   6.313
 2416SOL    HW1 7784   1.470   4.423   6.398
 2416SOL    HW2 7785   1.556   4.522   6.322
 2417SOL     OW 7786   0.462   4.988   7.330
 2417SOL    HW1 7787   0.437   4.991   7.237
 2417SOL    HW2 7788   0.379   4.988   7.378
 2418SOL     OW 7789   1.067   0.179   5.793
 2418SOL    HW1 7790   1.081   0.106   5.853
 2418SOL    HW2 7791   1.104   0.149   5.710
 2419SOL     OW 7792   0.205   4.004   7.084
 2419SOL    HW1 7793   0.125   4.055   7.066
 2419SOL    HW2 7794   0.173   3.924   7.126
 2420SOL     OW 7795   1.622   5.101   5.694
 2420SOL    HW1 7796   1.621   5.176   5.635
 2420SOL    HW2 7797   1.554   5.043   5.660
 2421SOL     OW 7798   1.401   3.832   6.019
 2421SOL    HW1 7799   1.391   3.807   5.927
 2421SOL    HW2 7800   1.496   3.838   6.032
 2422SOL     OW 7801   0.386   4.420   6.065
 2422SOL    HW1 7802   0.415   4.329   6.074
 2422SOL    HW2 7803   0.293   4.417   6.085
 2423SOL     OW 7804   1.535   3.949   7.311
 2423SOL    HW1 7805   1.544   3.970   7.404
 2423SOL    HW2 7806   1.467   3.882   7.309
 2424SOL     OW 7807   0.634   3.846   5.691
 2424SOL    HW1 7808   0.704   3.782   5.703
 2424SOL    HW2 7809   0.585   3.815   5.615
 2425SOL     OW 7810   0.766   4.001   7.339
 2425SOL    HW1 7811   0.842   3.943   7.341
 2425SOL    HW2 7812   0.722   3.986   7.423
 2426SOL     OW 7813   1.340   4.313   7.018
 2426SOL    HW1 7814   1.371   4.281   7.103
 2426SOL    HW2 7815   1.377   4.401   7.010
 2427SOL     OW 7816   0.814   5.120   6.522
 2427SOL    HW1 7817   0.894   5.105   6.472
 2427SOL    HW2 7818   0.745   5.126   6.455
 2428SOL     OW 7819   0.928   4.234   6.489
 2428SOL    HW1 7820   0.904   4.225   6.396
 2428SOL    HW2 7821   0.959   4.147   6.514
 2429SOL     OW 7822   0.560   3.785   6.082
 2429SOL    HW1 7823   0.485   3.785   6.141
 2429SOL    HW2 7824   0.550   3.865   6.030
 2430SOL     OW 7825   1.428   4.924   5.624
 2430SOL    HW1 7826   1.458   4.848   5.675
 2430SOL    HW2 7827   1.340   4.941   5.658
 2431SOL     OW 7828   0.305   3.771   5.765
 2431SOL    HW1 7829   0.367   3.835   5.730
 2431SOL    HW2 7830   0.360   3.706   5.810
 2432SOL     OW 7831   0.939   3.971   6.046
 2432SOL    HW1 7832   0.913   4.012   5.964
 2432SOL    HW2 7833   1.034   3.985   6.050
 2433SOL     OW 7834   1.080   4.405   7.046
 2433SOL    HW1 7835   1.011   4.338   7.050
 2433SOL    HW2 7836   1.161   4.355   7.039
 2434SOL     OW 7837   1.264   5.267   6.364
 2434SOL    HW1 7838   1.221   0.048   6.337
 2434SOL    HW2 7839   1.308   5.289   6.446
 2435SOL     OW 7840   0.465   4.873   6.314
 2435SOL    HW1 7841   0.397   4.853   6.378
 2435SOL    HW2 7842   0.425   4.853   6.230
 2436SOL     OW 7843   1.023   4.266   5.609
 2436SOL    HW1 7844   0.981   4.349   5.589
 2436SOL    HW2 7845   1.089   4.287   5.675
 2437SOL     OW 7846   0.088   4.268   6.985
 2437SOL    HW1 7847   0.175   4.276   6.947
 2437SOL    HW2 7848   0.079   4.345   7.042
 2438SOL     OW 7849   0.560   3.952   6.752
 2438SOL    HW1 7850   0.598   3.872   6.789
 2438SOL    HW2 7851   0.469   3.950   6.780
 2439SOL     OW 7852   0.868   4.183   6.225
 2439SOL    HW1 7853   0.822   4.237   6.161
 2439SOL    HW2 7854   0.889   4.103   6.178
 2440SOL     OW 7855   1.015   3.777   6.337
 2440SOL    HW1 7856   0.957   3.769   6.262
 2440SOL    HW2 7857   0.994   3.702   6.392
 2441SOL     OW 7858   1.437   4.890   6.445
 2441SOL    HW1 7859   1.371   4.821   6.441
 2441SOL    HW2 7860   1.463   4.903   6.353
 2442SOL     OW 7861   1.466   4.329   6.563
 2442SOL    HW1 7862   1.416   4.248   6.566
 2442SOL    HW2 7863   1.526   4.323   6.637
 2443SOL     OW 7864   1.845   4.540   5.969
 2443SOL    HW1 7865   1.902   4.489   6.027
 2443SOL    HW2 7866   1.817   4.477   5.902
 2444SOL     OW 7867   0.483   5.144   5.739
 2444SOL    HW1 7868   0.420   5.094   5.791
 2444SOL    HW2 7869   0.482   5.101   5.653
 2445SOL     OW 7870   1.669   4.987   6.233
 2445SOL    HW1 7871   1.763   4.993   6.250
 2445SOL    HW2 7872   1.636   5.075   6.249
 2446SOL     OW 7873   1.394   4.296   5.657
 2446SOL    HW1 7874   1.333   4.276   5.729
 2446SOL    HW2 7875   1.478   4.263   5.688
 2447SOL     OW 7876   0.524   3.987   5.903
 2447SOL    HW1 7877   0.569   3.940   5.833
 2447SOL    HW2 7878   0.502   4.072   5.864
 2448SOL     OW 7879   1.751   4.959   7.161
 2448SOL    HW1 7880   1.837   4.918   7.161
 2448SOL    HW2 7881   1.769   5.052   7.174
 2449SOL     OW 7882   1.064   5.075   6.917
 2449SOL    HW1 7883   0.986   5.049   6.965
 2449SOL    HW2 7884   1.137   5.035   6.966
 2450SOL     OW 7885   1.127   4.926   6.694
 2450SOL    HW1 7886   1.076   4.967   6.764
 2450SOL    HW2 7887   1.081   4.951   6.613
 2451SOL     OW 7888   1.629   4.822   6.663
 2451SOL    HW1 7889   1.624   4.884   6.736
 2451SOL    HW2 7890   1.550   4.841   6.611
 2452SOL     OW 7891   0.918   3.820   6.983
 2452SOL    HW1 7892   0.941   3.802   6.891
 2452SOL    HW2 7893   0.998   3.860   7.019
 2453SOL     OW 7894   0.985   4.838   7.313
 2453SOL    HW1 7895   0.892   4.855   7.329
 2453SOL    HW2 7896   0.985   4.762   7.255
 2454SOL     OW 7897   0.703   4.781   5.959
 2454SOL    HW1 7898   0.693   4.766   6.053
 2454SOL    HW2 7899   0.781   4.731   5.935
 2455SOL     OW 7900   0.421   4.543   6.838
 2455SOL    HW1 7901   0.490   4.549   6.904
 2455SOL    HW2 7902   0.386   4.454   6.848
 2456SOL     OW 7903   1.265   4.101   6.861
 2456SOL    HW1 7904   1.298   4.178   6.907
 2456SOL    HW2 7905   1.175   4.123   6.838
 2457SOL     OW 7906   0.113   5.291   6.904
 2457SOL    HW1 7907   0.051   0.047   6.950
 2457SOL    HW2 7908   0.190   5.287   6.961
 2458SOL     OW 7909   0.344   4.828   6.073
 2458SOL    HW1 7910   0.350   4.907   6.018
 2458SOL    HW2 7911   0.351   4.755   6.011
 2459SOL     OW 7912   0.554   4.260   6.445
 2459SOL    HW1 7913   0.570   4.319   6.371
 2459SOL    HW2 7914   0.619   4.287   6.511
 2460SOL     OW 7915   1.260   5.077   5.971
 2460SOL    HW1 7916   1.317   5.144   6.010
 2460SOL    HW2 7917   1.172   5.099   6.001
 2461SOL     OW 7918   1.269   5.182   6.727
 2461SOL    HW1 7919   1.328   5.195   6.801
 2461SOL    HW2 7920   1.225   5.099   6.746
 2462SOL     OW 7921   1.582   4.347   6.065
 2462SOL    HW1 7922   1.535   4.400   6.129
 2462SOL    HW2 7923   1.627   4.410   6.009
 2463SOL     OW 7924   0.382   5.230   6.902
 2463SOL    HW1 7925   0.364   5.192   6.816
 2463SOL    HW2 7926   0.474   5.256   6.898
 2464SOL     OW 7927   0.414   4.467   7.188
 2464SOL    HW1 7928   0.475   4.513   7.130
 2464SOL    HW2 7929   0.452   4.380   7.200
 2465SOL     OW 7930   1.601   4.503   7.268
 2465SOL    HW1 7931   1.515   4.544   7.261
 2465SOL    HW2 7932   1.654   4.545   7.200
 2466SOL     OW 7933   0.996   3.848   7.340
 2466SOL    HW1 7934   1.052   3.920   7.312
 2466SOL    HW2 7935   1.044   3.769   7.316
 2467SOL     OW 7936   0.498   3.765   7.333
 2467SOL    HW1 7937   0.456   3.711   7.267
 2467SOL    HW2 7938   0.439   3.839   7.345
 2468SOL     OW 7939   0.586   4.597   6.618
 2468SOL    HW1 7940   0.614   4.688   6.616
 2468SOL    HW2 7941   0.529   4.591   6.695
 2469SOL     OW 7942   1.357   4.582   6.614
 2469SOL    HW1 7943   1.274   4.572   6.569
 2469SOL    HW2 7944   1.398   4.496   6.609
 2470SOL     OW 7945   1.205   4.253   5.853
 2470SOL    HW1 7946   1.213   4.174   5.907
 2470SOL    HW2 7947   1.162   4.317   5.909
 2471SOL     OW 7948   0.302   3.927   6.834
 2471SOL    HW1 7949   0.267   3.952   6.920
 2471SOL    HW2 7950   0.289   3.833   6.829
 2472SOL     OW 7951   0.044   5.022   6.862
 2472SOL    HW1 7952   0.074   4.972   6.938
 2472SOL    HW2 7953   0.044   5.113   6.891
 2473SOL     OW 7954   0.725   4.355   6.644
 2473SOL    HW1 7955   0.799   4.339   6.586
 2473SOL    HW2 7956   0.696   4.444   6.623
 2474SOL     OW 7957   1.735   4.684   7.438
 2474SOL    HW1 7958   1.688   4.622   7.382
 2474SOL    HW2 7959   1.677   4.698   7.513
 2475SOL     OW 7960   0.328   3.786   6.220
 2475SOL    HW1 7961   0.307   3.875   6.248
 2475SOL    HW2 7962   0.332   3.736   6.302
 2476SOL     OW 7963   1.616   4.098   5.953
 2476SOL    HW1 7964   1.644   4.034   6.018
 2476SOL    HW2 7965   1.594   4.176   6.003
 2477SOL     OW 7966   1.028   4.483   6.547
 2477SOL    HW1 7967   1.024   4.501   6.641
 2477SOL    HW2 7968   1.001   4.392   6.538
 2478SOL     OW 7969   1.854   5.213   7.170
 2478SOL    HW1 7970   1.848   5.289   7.111
 2478SOL    HW2 7971   1.924   5.236   7.231
 2479SOL     OW 7972   0.354   4.641   7.393
 2479SOL    HW1 7973   0.436   4.660   7.439
 2479SOL    HW2 7974   0.378   4.577   7.326
 2480SOL     OW 7975   1.529   3.997   5.713
 2480SOL    HW1 7976   1.464   3.932   5.740
 2480SOL    HW2 7977   1.562   4.033   5.796
 2481SOL     OW 7978   1.292   4.550   5.617
 2481SOL    HW1 7979   1.335   4.465   5.621
 2481SOL    HW2 7980   1.323   4.589   5.535
 2482SOL     OW 7981   1.058   5.079   6.412
 2482SOL    HW1 7982   1.063   4.993   6.369
 2482SOL    HW2 7983   1.145   5.117   6.399
 2483SOL     OW 7984   0.314   4.533   6.535
 2483SOL    HW1 7985   0.409   4.550   6.531
 2483SOL    HW2 7986   0.308   4.443   6.567
 2484SOL     OW 7987   0.335   4.250   6.601
 2484SOL    HW1 7988   0.300   4.162   6.587
 2484SOL    HW2 7989   0.410   4.255   6.542
 2485SOL     OW 7990   1.135   4.100   7.267
 2485SOL    HW1 7991   1.087   4.155   7.329
 2485SOL    HW2 7992   1.222   4.138   7.263
 2486SOL     OW 7993   1.161   3.926   7.056
 2486SOL    HW1 7994   1.150   3.989   7.127
 2486SOL    HW2 7995   1.200   3.977   6.985
 2487SOL     OW 7996   0.002   5.048   5.793
 2487SOL    HW1 7997   5.226   5.036   5.737
 2487SOL    HW2 7998   0.014   4.963   5.836
 2488SOL     OW 7999   0.982   4.516   6.813
 2488SOL    HW1 8000   1.039   4.493   6.887
 2488SOL    HW2 8001   0.898   4.477   6.834
 2489SOL     OW 8002   0.033   4.284   6.702
 2489SOL    HW1 8003   0.119   4.260   6.668
 2489SOL    HW2 8004   0.037   4.267   6.796
 2490SOL     OW 8005   0.175   4.236   7.302
 2490SOL    HW1 8006   0.237   4.197   7.241
 2490SOL    HW2 8007   0.146   4.317   7.259
 2491SOL     OW 8008   1.376   4.663   7.245
 2491SOL    HW1 8009   1.397   4.756   7.242
 2491SOL    HW2 8010   1.373   4.636   7.153
 2492SOL     OW 8011   0.816   4.293   5.946
 2492SOL    HW1 8012   0.821   4.218   5.886
 2492SOL    HW2 8013   0.742   4.345   5.914
 2493SOL     OW 8014   1.642   4.325   6.772
 2493SOL    HW1 8015   1.632   4.266   6.846
 2493SOL    HW2 8016   1.729   4.306   6.738
 2494SOL     OW 8017   0.209   5.279   7.318
 2494SOL    HW1 8018   0.162   0.018   7.392
 2494SOL    HW2 8019   0.215   5.186   7.340
 2495SOL     OW 8020   0.701   4.174   6.846
 2495SOL    HW1 8021   0.649   4.100   6.816
 2495SOL    HW2 8022   0.697   4.237   6.774
 2496SOL     OW 8023   0.465   4.217   5.771
 2496SOL    HW1 8024   0.525   4.289   5.793
 2496SOL    HW2 8025   0.380   4.260   5.759
 2497SOL     OW 8026   0.151   4.861   7.058
 2497SOL    HW1 8027   0.147   4.812   7.140
 2497SOL    HW2 8028   0.161   4.794   6.990
 2498SOL     OW 8029   1.327   4.769   6.808
 2498SOL    HW1 8030   1.350   4.707   6.740
 2498SOL    HW2 8031   1.256   4.822   6.771
 2499SOL     OW 8032   1.310   4.582   5.892
 2499SOL    HW1 8033   1.235   4.549   5.942
 2499SOL    HW2 8034   1.286   4.567   5.801
 2500SOL     OW 8035   0.075   4.918   6.616
 2500SOL    HW1 8036   0.065   4.959   6.702
 2500SOL    HW2 8037   5.289   4.924   6.576
 2501SOL     OW 8038   0.751   0.036   7.296
 2501SOL    HW1 8039   0.659   0.060   7.305
 2501SOL    HW2 8040   0.775   0.061   7.207
 2502SOL     OW 8041   1.719   3.871   6.095
 2502SOL    HW1 8042   1.792   3.856   6.035
 2502SOL    HW2 8043   1.703   3.785   6.136
 2503SOL     OW 8044   1.277   4.650   6.258
 2503SOL    HW1 8045   1.350   4.588   6.265
 2503SOL    HW2 8046   1.312   4.721   6.204
 2504SOL     OW 8047   0.818   4.993   7.006
 2504SOL    HW1 8048   0.788   5.029   7.089
 2504SOL    HW2 8049   0.743   5.001   6.947
 2505SOL     OW 8050   1.841   3.897   6.553
 2505SOL    HW1 8051   1.870   3.810   6.526
 2505SOL    HW2 8052   1.754   3.907   6.513
 2506SOL     OW 8053   0.273   4.041   6.303
 2506SOL    HW1 8054   0.188   4.080   6.283
 2506SOL    HW2 8055   0.271   4.030   6.398
 2507SOL     OW 8056   0.824   4.727   6.957
 2507SOL    HW1 8057   0.870   4.720   6.873
 2507SOL    HW2 8058   0.828   4.821   6.978
 2508SOL     OW 8059   0.915   4.636   5.876
 2508SOL    HW1 8060   0.977   4.668   5.810
 2508SOL    HW2 8061   0.963   4.566   5.921
 2509SOL     OW 8062   0.365   5.029   7.087
 2509SOL    HW1 8063   0.366   5.098   7.021
 2509SOL    HW2 8064   0.291   4.973   7.063
 2510SOL     OW 8065   1.612   5.004   6.868
 2510SOL    HW1 8066   1.669   4.997   6.945
 2510SOL    HW2 8067   1.550   5.073   6.891
 2511SOL     OW 8068   1.054   4.833   6.297
 2511SOL    HW1 8069   0.982   4.782   6.334
 2511SOL    HW2 8070   1.116   4.768   6.265
 2512SOL     OW 8071   1.021   3.964   6.552
 2512SOL    HW1 8072   1.016   3.917   6.469
 2512SOL    HW2 8073   1.016   3.897   6.619
 2513SOL     OW 8074   1.722   4.116   6.967
 2513SOL    HW1 8075   1.794   4.179   6.965
 2513SOL    HW2 8076   1.752   4.045   6.910
 2514SOL     OW 8077   0.259   5.059   5.872
 2514SOL    HW1 8078   0.167   5.063   5.848
 2514SOL    HW2 8079   0.262   5.097   5.960
 2515SOL     OW 8080   0.116   4.742   7.305
 2515SOL    HW1 8081   0.045   4.705   7.357
 2515SOL    HW2 8082   0.196   4.709   7.347
 2516SOL     OW 8083   0.674   3.920   7.085
 2516SOL    HW1 8084   0.758   3.900   7.044
 2516SOL    HW2 8085   0.697   3.950   7.173
 2517SOL     OW 8086   0.082   4.074   5.627
 2517SOL    HW1 8087   0.003   4.025   5.603
 2517SOL    HW2 8088   0.098   4.131   5.552
 2518SOL     OW 8089   1.430   4.582   6.987
 2518SOL    HW1 8090   1.381   4.643   6.931
 2518SOL    HW2 8091   1.519   4.584   6.952
 2519SOL     OW 8092   0.056   3.857   5.829
 2519SOL    HW1 8093   0.055   3.952   5.820
 2519SOL    HW2 8094   0.145   3.832   5.807
 2520SOL     OW 8095   1.182   5.064   5.707
 2520SOL    HW1 8096   1.091   5.035   5.707
 2520SOL    HW2 8097   1.210   5.056   5.798
 2521SOL     OW 8098   0.619   4.555   7.022
 2521SOL    HW1 8099   0.676   4.630   7.005
 2521SOL    HW2 8100   0.679   4.481   7.029
 2522SOL     OW 8101   0.717   4.288   7.291
 2522SOL    HW1 8102   0.758   4.349   7.352
 2522SOL    HW2 8103   0.745   4.201   7.322
 2523SOL     OW 8104   1.473   4.923   7.218
 2523SOL    HW1 8105   1.460   4.935   7.312
 2523SOL    HW2 8106   1.567   4.936   7.204
 2524SOL     OW 8107   1.669   4.605   6.841
 2524SOL    HW1 8108   1.663   4.520   6.799
 2524SOL    HW2 8109   1.659   4.668   6.770
 2525SOL     OW 8110   1.217   4.043   6.044
 2525SOL    HW1 8111   1.280   3.972   6.035
 2525SOL    HW2 8112   1.246   4.092   6.121
 2526SOL     OW 8113   0.590   4.461   6.255
 2526SOL    HW1 8114   0.629   4.548   6.240
 2526SOL    HW2 8115   0.521   4.454   6.190
 2527SOL     OW 8116   1.762   4.086   7.238
 2527SOL    HW1 8117   1.746   4.101   7.144
 2527SOL    HW2 8118   1.690   4.029   7.265
 2528SOL     OW 8119   1.745   4.657   7.098
 2528SOL    HW1 8120   1.740   4.752   7.111
 2528SOL    HW2 8121   1.729   4.645   7.004
 2529SOL     OW 8122   0.849   5.094   5.605
 2529SOL    HW1 8123   0.830   5.095   5.699
 2529SOL    HW2 8124   0.866   5.186   5.584
 2530SOL     OW 8125   0.868   4.691   6.440
 2530SOL    HW1 8126   0.917   4.620   6.481
 2530SOL    HW2 8127   0.833   4.741   6.514
 2531SOL     OW 8128   1.080   4.713   5.675
 2531SOL    HW1 8129   1.057   4.763   5.597
 2531SOL    HW2 8130   1.154   4.659   5.649
 2532SOL     OW 8131   0.219   5.024   7.442
 2532SOL    HW1 8132   0.155   4.957   7.420
 2532SOL    HW2 8133   0.210   5.036   7.537
 2533SOL     OW 8134   0.082   4.929   6.241
 2533SOL    HW1 8135   0.102   4.907   6.333
 2533SOL    HW2 8136   0.168   4.940   6.201
 2534SOL     OW 8137   0.671   5.104   7.195
 2534SOL    HW1 8138   0.594   5.073   7.242
 2534SOL    HW2 8139   0.703   5.178   7.248
 2535SOL     OW 8140   1.813   3.909   6.824
 2535SOL    HW1 8141   1.823   3.814   6.838
 2535SOL    HW2 8142   1.822   3.919   6.729
 2536SOL     OW 8143   0.435   4.160   6.110
 2536SOL    HW1 8144   0.462   4.087   6.054
 2536SOL    HW2 8145   0.387   4.118   6.182
 2537SOL     OW 8146   1.707   5.224   6.705
 2537SOL    HW1 8147   1.633   5.207   6.646
 2537SOL    HW2 8148   1.713   5.144   6.758
 2538SOL     OW 8149   0.337   4.283   6.878
 2538SOL    HW1 8150   0.390   4.224   6.931
 2538SOL    HW2 8151   0.350   4.254   6.788
 2539SOL     OW 8152   1.432   3.950   6.704
 2539SOL    HW1 8153   1.457   3.869   6.750
 2539SOL    HW2 8154   1.380   3.998   6.768
 2540SOL     OW 8155   1.009   3.743   6.728
 2540SOL    HW1 8156   0.954   3.675   6.688
 2540SOL    HW2 8157   1.097   3.705   6.730
 2541SOL     OW 8158   0.804   5.047   5.870
 2541SOL    HW1 8159   0.743   4.976   5.889
 2541SOL    HW2 8160   0.857   5.054   5.949
 2542SOL     OW 8161   0.640   0.003   6.873
 2542SOL    HW1 8162   0.644   0.057   6.952
 2542SOL    HW2 8163   0.731   5.285   6.851
 2543SOL     OW 8164   1.352   3.778   5.751
 2543SOL    HW1 8165   1.381   3.714   5.686
 2543SOL    HW2 8166   1.265   3.748   5.777
 2544SOL     OW 8167   1.297   4.185   6.267
 2544SOL    HW1 8168   1.243   4.264   6.274
 2544SOL    HW2 8169   1.293   4.145   6.354
 2545SOL     OW 8170   1.587   3.926   6.464
 2545SOL    HW1 8171   1.526   3.946   6.535
 2545SOL    HW2 8172   1.586   4.004   6.409
 2546SOL     OW 8173   0.047   4.790   5.876
 2546SOL    HW1 8174   0.137   4.759   5.866
 2546SOL    HW2 8175   0.000   4.716   5.913
 2547SOL     OW 8176   0.229   4.355   7.566
 2547SOL    HW1 8177   0.155   4.314   7.611
 2547SOL    HW2 8178   0.222   4.325   7.476
 2548SOL     OW 8179   1.767   4.322   7.679
 2548SOL    HW1 8180   1.747   4.318   7.586
 2548SOL    HW2 8181   1.726   4.244   7.716
 2549SOL     OW 8182   0.280   0.133   7.958
 2549SOL    HW1 8183   0.242   0.210   8.000
 2549SOL    HW2 8184   0.287   0.156   7.865
 2550SOL     OW 8185   0.226   5.158   7.990
 2550SOL    HW1 8186   0.234   5.253   7.994
 2550SOL    HW2 8187   0.156   5.137   8.053
 2551SOL     OW 8188   0.582   4.707   7.581
 2551SOL    HW1 8189   0.629   4.755   7.512
 2551SOL    HW2 8190   0.623   4.737   7.662
 2552SOL     OW 8191   0.002   5.298   7.523
 2552SOL    HW1 8192   0.016   5.211   7.561
 2552SOL    HW2 8193   0.019   0.058   7.596
 2553SOL     OW 8194   1.682   4.591   8.034
 2553SOL    HW1 8195   1.762   4.601   0.006
 2553SOL    HW2 8196   1.671   4.675   7.990
 2554SOL     OW 8197   1.656   4.825   7.876
 2554SOL    HW1 8198   1.744   4.844   7.844
 2554SOL    HW2 8199   1.636   4.896   7.937
 2555SOL     OW 8200   0.799   3.719   7.938
 2555SOL    HW1 8201   0.849   3.799   7.922
 2555SOL    HW2 8202   0.709   3.748   7.948
 2556SOL     OW 8203   1.532   4.721   7.648
 2556SOL    HW1 8204   1.466   4.660   7.682
 2556SOL    HW2 8205   1.576   4.754   7.726
 2557SOL     OW 8206   0.589   4.447   7.708
 2557SOL    HW1 8207   0.596   4.529   7.659
 2557SOL    HW2 8208   0.534   4.469   7.783
 2558SOL     OW 8209   0.054   4.542   0.202
 2558SOL    HW1 8210   0.124   4.487   0.166
 2558SOL    HW2 8211   0.031   4.602   0.132
 2559SOL     OW 8212   0.882   4.071   7.637
 2559SOL    HW1 8213   0.927   4.131   7.577
 2559SOL    HW2 8214   0.916   3.984   7.614
 2560SOL     OW 8215   0.318   4.672   7.693
 2560SOL    HW1 8216   0.399   4.698   7.650
 2560SOL    HW2 8217   0.295   4.588   7.653
 2561SOL     OW 8218   1.084   0.192   7.646
 2561SOL    HW1 8219   1.067   0.125   7.712
 2561SOL    HW2 8220   1.094   0.143   7.565
 2562SOL     OW 8221   1.626   5.100   7.551
 2562SOL    HW1 8222   1.613   5.179   7.499
 2562SOL    HW2 8223   1.557   5.041   7.522
 2563SOL     OW 8224   1.416   3.855   7.864
 2563SOL    HW1 8225   1.404   3.821   7.776
 2563SOL    HW2 8226   1.510   3.853   7.878
 2564SOL     OW 8227   0.379   4.424   7.922
 2564SOL    HW1 8228   0.399   4.330   7.927
 2564SOL    HW2 8229   0.286   4.430   7.940
 2565SOL     OW 8230   0.628   3.843   7.559
 2565SOL    HW1 8231   0.704   3.786   7.568
 2565SOL    HW2 8232   0.585   3.813   7.479
 2566SOL     OW 8233   0.527   3.799   7.961
 2566SOL    HW1 8234   0.440   3.804   8.000
 2566SOL    HW2 8235   0.528   3.869   7.896
 2567SOL     OW 8236   1.428   4.925   7.488
 2567SOL    HW1 8237   1.458   4.850   7.539
 2567SOL    HW2 8238   1.340   4.943   7.521
 2568SOL     OW 8239   0.306   3.768   7.619
 2568SOL    HW1 8240   0.368   3.832   7.584
 2568SOL    HW2 8241   0.361   3.705   7.667
 2569SOL     OW 8242   0.944   3.949   7.910
 2569SOL    HW1 8243   0.900   4.014   7.855
 2569SOL    HW2 8244   1.035   3.979   7.914
 2570SOL     OW 8245   0.448   4.884   0.089
 2570SOL    HW1 8246   0.376   4.902   0.149
 2570SOL    HW2 8247   0.405   4.864   0.006
 2571SOL     OW 8248   1.025   4.266   7.467
 2571SOL    HW1 8249   0.981   4.349   7.450
 2571SOL    HW2 8250   1.086   4.286   7.538
 2572SOL     OW 8251   1.871   4.540   7.801
 2572SOL    HW1 8252   1.868   4.512   7.893
 2572SOL    HW2 8253   1.831   4.469   7.752
 2573SOL     OW 8254   0.477   5.147   7.601
 2573SOL    HW1 8255   0.417   5.096   7.656
 2573SOL    HW2 8256   0.480   5.100   7.518
 2574SOL     OW 8257   1.394   4.296   7.519
 2574SOL    HW1 8258   1.333   4.276   7.590
 2574SOL    HW2 8259   1.478   4.262   7.550
 2575SOL     OW 8260   0.527   3.990   7.770
 2575SOL    HW1 8261   0.570   3.940   7.701
 2575SOL    HW2 8262   0.503   4.072   7.728
 2576SOL     OW 8263   0.706   4.781   7.815
 2576SOL    HW1 8264   0.690   4.770   7.909
 2576SOL    HW2 8265   0.787   4.732   7.799
 2577SOL     OW 8266   0.346   4.819   7.928
 2577SOL    HW1 8267   0.342   4.902   7.882
 2577SOL    HW2 8268   0.348   4.753   7.858
 2578SOL     OW 8269   1.225   5.115   7.832
 2578SOL    HW1 8270   1.311   5.124   7.873
 2578SOL    HW2 8271   1.175   5.061   7.892
 2579SOL     OW 8272   1.587   4.352   7.921
 2579SOL    HW1 8273   1.575   4.411   7.995
 2579SOL    HW2 8274   1.627   4.407   7.853
 2580SOL     OW 8275   1.204   4.250   7.715
 2580SOL    HW1 8276   1.207   4.167   7.762
 2580SOL    HW2 8277   1.177   4.314   7.782
 2581SOL     OW 8278   1.619   4.103   7.814
 2581SOL    HW1 8279   1.640   4.036   7.879
 2581SOL    HW2 8280   1.594   4.179   7.866
 2582SOL     OW 8281   1.529   3.999   7.575
 2582SOL    HW1 8282   1.464   3.934   7.601
 2582SOL    HW2 8283   1.562   4.034   7.658
 2583SOL     OW 8284   1.294   4.551   7.481
 2583SOL    HW1 8285   1.335   4.465   7.483
 2583SOL    HW2 8286   1.324   4.591   7.399
 2584SOL     OW 8287   0.004   5.051   7.655
 2584SOL    HW1 8288   5.225   5.042   7.602
 2584SOL    HW2 8289   0.017   4.964   7.693
 2585SOL     OW 8290   0.839   4.324   7.760
 2585SOL    HW1 8291   0.832   4.233   7.733
 2585SOL    HW2 8292   0.749   4.356   7.762
 2586SOL     OW 8293   0.462   4.217   7.638
 2586SOL    HW1 8294   0.523   4.289   7.654
 2586SOL    HW2 8295   0.377   4.259   7.624
 2587SOL     OW 8296   1.310   4.578   7.754
 2587SOL    HW1 8297   1.223   4.577   7.794
 2587SOL    HW2 8298   1.294   4.566   7.661
 2588SOL     OW 8299   1.712   3.870   7.947
 2588SOL    HW1 8300   1.789   3.863   7.891
 2588SOL    HW2 8301   1.714   3.792   8.003
 2589SOL     OW 8302   0.926   4.635   7.756
 2589SOL    HW1 8303   0.980   4.660   7.681
 2589SOL    HW2 8304   0.921   4.539   7.751
 2590SOL     OW 8305   0.259   5.060   7.745
 2590SOL    HW1 8306   0.167   5.067   7.721
 2590SOL    HW2 8307   0.264   5.099   7.832
 2591SOL     OW 8308   0.081   4.065   7.488
 2591SOL    HW1 8309   5.298   4.025   7.463
 2591SOL    HW2 8310   0.099   4.128   7.418
 2592SOL     OW 8311   0.081   3.861   7.738
 2592SOL    HW1 8312   0.067   3.948   7.702
 2592SOL    HW2 8313   0.154   3.825   7.686
 2593SOL     OW 8314   1.181   5.058   7.565
 2593SOL    HW1 8315   1.089   5.033   7.562
 2593SOL    HW2 8316   1.199   5.073   7.658
 2594SOL     OW 8317   1.215   4.042   7.903
 2594SOL    HW1 8318   1.288   3.981   7.892
 2594SOL    HW2 8319   1.236   4.089   7.984
 2595SOL     OW 8320   0.625   4.465   8.046
 2595SOL    HW1 8321   0.629   4.542   0.023
 2595SOL    HW2 8322   0.533   4.460   8.020
 2596SOL     OW 8323   0.851   5.094   7.466
 2596SOL    HW1 8324   0.833   5.094   7.560
 2596SOL    HW2 8325   0.864   5.186   7.444
 2597SOL     OW 8326   1.074   4.704   7.538
 2597SOL    HW1 8327   1.054   4.759   7.463
 2597SOL    HW2 8328   1.151   4.654   7.511
 2598SOL     OW 8329   0.393   4.155   7.979
 2598SOL    HW1 8330   0.437   4.095   7.919
 2598SOL    HW2 8331   0.436   4.140   8.063
 2599SOL     OW 8332   0.806   5.048   7.731
 2599SOL    HW1 8333   0.749   4.973   7.750
 2599SOL    HW2 8334   0.825   5.087   7.816
 2600SOL     OW 8335   1.352   3.777   7.610
 2600SOL    HW1 8336   1.382   3.710   7.548
 2600SOL    HW2 8337   1.266   3.747   7.638
 2601SOL     OW 8338   0.049   4.792   7.724
 2601SOL    HW1 8339   0.138   4.758   7.722
 2601SOL    HW2 8340   0.001   4.731   7.780
 2602SOL     OW 8341   2.079   0.624   0.120
 2602SOL    HW1 8342   2.000   0.589   0.162
 2602SOL    HW2 8343   2.105   0.557   0.057
 2603SOL     OW 8344   2.080   0.284   0.993
 2603SOL    HW1 8345   2.109   0.249   1.077
 2603SOL    HW2 8346   1.995   0.243   0.977
 2604SOL     OW 8347   1.866   0.386   0.638
 2604SOL    HW1 8348   1.782   0.408   0.678
 2604SOL    HW2 8349   1.848   0.308   0.586
 2605SOL     OW 8350   2.429   1.288   1.175
 2605SOL    HW1 8351   2.341   1.291   1.137
 2605SOL    HW2 8352   2.444   1.376   1.208
 2606SOL     OW 8353   3.423   1.512   0.707
 2606SOL    HW1 8354   3.380   1.491   0.790
 2606SOL    HW2 8355   3.352   1.515   0.644
 2607SOL     OW 8356   2.994   0.698   0.702
 2607SOL    HW1 8357   3.042   0.779   0.687
 2607SOL    HW2 8358   2.946   0.713   0.784
 2608SOL     OW 8359   3.633   0.599   0.231
 2608SOL    HW1 8360   3.590   0.604   0.146
 2608SOL    HW2 8361   3.592   0.525   0.275
 2609SOL     OW 8362   2.617   1.142   1.041
 2609SOL    HW1 8363   2.549   1.177   1.098
 2609SOL    HW2 8364   2.653   1.219   0.996
 2610SOL     OW 8365   2.728   0.777   1.822
 2610SOL    HW1 8366   2.717   0.849   1.885
 2610SOL    HW2 8367   2.752   0.820   1.740
 2611SOL     OW 8368   2.547   1.002   0.649
 2611SOL    HW1 8369   2.612   0.990   0.718
 2611SOL    HW2 8370   2.478   1.055   0.690
 2612SOL     OW 8371   2.572   1.151   1.812
 2612SOL    HW1 8372   2.620   1.229   1.839
 2612SOL    HW2 8373   2.490   1.184   1.777
 2613SOL     OW 8374   2.192   1.426   1.068
 2613SOL    HW1 8375   2.120   1.387   1.018
 2613SOL    HW2 8376   2.242   1.476   1.003
 2614SOL     OW 8377   3.323   1.499   1.354
 2614SOL    HW1 8378   3.373   1.580   1.364
 2614SOL    HW2 8379   3.261   1.501   1.427
 2615SOL     OW 8380   2.306   0.398   1.486
 2615SOL    HW1 8381   2.381   0.339   1.484
 2615SOL    HW2 8382   2.231   0.341   1.501
 2616SOL     OW 8383   3.472   0.451   0.738
 2616SOL    HW1 8384   3.394   0.473   0.687
 2616SOL    HW2 8385   3.490   0.530   0.790
 2617SOL     OW 8386   2.082   1.715   0.472
 2617SOL    HW1 8387   2.104   1.791   0.525
 2617SOL    HW2 8388   2.156   1.706   0.412
 2618SOL     OW 8389   2.998   1.342   1.693
 2618SOL    HW1 8390   3.039   1.337   1.779
 2618SOL    HW2 8391   2.946   1.262   1.686
 2619SOL     OW 8392   2.089   1.441   0.530
 2619SOL    HW1 8393   2.074   1.535   0.535
 2619SOL    HW2 8394   2.030   1.404   0.596
 2620SOL     OW 8395   2.119   1.090   0.891
 2620SOL    HW1 8396   2.117   1.003   0.932
 2620SOL    HW2 8397   2.061   1.144   0.945
 2621SOL     OW 8398   2.472   1.791   1.427
 2621SOL    HW1 8399   2.391   1.773   1.475
 2621SOL    HW2 8400   2.496   1.880   1.453
 2622SOL     OW 8401   2.490   0.961   0.134
 2622SOL    HW1 8402   2.439   1.038   0.108
 2622SOL    HW2 8403   2.542   0.990   0.209
 2623SOL     OW 8404   3.448   0.135   1.456
 2623SOL    HW1 8405   3.470   0.220   1.417
 2623SOL    HW2 8406   3.446   0.152   1.550
 2624SOL     OW 8407   1.976   0.651   0.562
 2624SOL    HW1 8408   1.948   0.562   0.583
 2624SOL    HW2 8409   1.969   0.699   0.644
 2625SOL     OW 8410   3.707   1.758   0.332
 2625SOL    HW1 8411   3.772   1.728   0.396
 2625SOL    HW2 8412   3.732   1.849   0.314
 2626SOL     OW 8413   1.892   1.596   0.111
 2626SOL    HW1 8414   1.878   1.507   0.145
 2626SOL    HW2 8415   1.875   1.653   0.186
 2627SOL     OW 8416   3.551   0.919   0.644
 2627SOL    HW1 8417   3.633   0.875   0.621
 2627SOL    HW2 8418   3.528   0.970   0.566
 2628SOL     OW 8419   3.508   1.105   0.435
 2628SOL    HW1 8420   3.588   1.119   0.385
 2628SOL    HW2 8421   3.513   1.167   0.507
 2629SOL     OW 8422   1.985   0.744   1.584
 2629SOL    HW1 8423   2.076   0.769   1.593
 2629SOL    HW2 8424   1.936   0.826   1.593
 2630SOL     OW 8425   2.475   1.386   0.735
 2630SOL    HW1 8426   2.430   1.303   0.744
 2630SOL    HW2 8427   2.459   1.412   0.644
 2631SOL     OW 8428   3.151   1.238   1.423
 2631SOL    HW1 8429   3.183   1.171   1.363
 2631SOL    HW2 8430   3.208   1.232   1.499
 2632SOL     OW 8431   2.673   0.028   0.529
 2632SOL    HW1 8432   2.703   0.114   0.499
 2632SOL    HW2 8433   2.578   0.031   0.523
 2633SOL     OW 8434   2.052   0.967   1.271
 2633SOL    HW1 8435   2.137   0.924   1.256
 2633SOL    HW2 8436   1.990   0.911   1.224
 2634SOL     OW 8437   3.372   1.006   0.212
 2634SOL    HW1 8438   3.310   0.942   0.245
 2634SOL    HW2 8439   3.424   1.031   0.289
 2635SOL     OW 8440   3.047   1.806   1.622
 2635SOL    HW1 8441   3.058   1.865   1.547
 2635SOL    HW2 8442   3.063   1.719   1.587
 2636SOL     OW 8443   2.189   0.266   1.811
 2636SOL    HW1 8444   2.241   0.342   1.840
 2636SOL    HW2 8445   2.103   0.280   1.850
 2637SOL     OW 8446   3.328   1.420   0.951
 2637SOL    HW1 8447   3.260   1.435   1.017
 2637SOL    HW2 8448   3.316   1.328   0.924
 2638SOL     OW 8449   3.521   1.741   0.581
 2638SOL    HW1 8450   3.500   1.712   0.492
 2638SOL    HW2 8451   3.496   1.667   0.637
 2639SOL     OW 8452   2.460   0.714   0.283
 2639SOL    HW1 8453   2.478   0.791   0.229
 2639SOL    HW2 8454   2.395   0.743   0.346
 2640SOL     OW 8455   3.139   0.347   0.932
 2640SOL    HW1 8456   3.049   0.318   0.944
 2640SOL    HW2 8457   3.189   0.297   0.996
 2641SOL     OW 8458   3.449   1.671   0.319
 2641SOL    HW1 8459   3.539   1.700   0.312
 2641SOL    HW2 8460   3.422   1.654   0.229
 2642SOL     OW 8461   2.656   0.618   1.450
 2642SOL    HW1 8462   2.629   0.597   1.539
 2642SOL    HW2 8463   2.614   0.552   1.395
 2643SOL     OW 8464   3.257   0.475   1.678
 2643SOL    HW1 8465   3.259   0.520   1.763
 2643SOL    HW2 8466   3.320   0.404   1.687
 2644SOL     OW 8467   2.817   0.888   1.582
 2644SOL    HW1 8468   2.871   0.817   1.547
 2644SOL    HW2 8469   2.769   0.921   1.507
 2645SOL     OW 8470   2.856   0.417   1.235
 2645SOL    HW1 8471   2.770   0.438   1.273
 2645SOL    HW2 8472   2.835   0.368   1.155
 2646SOL     OW 8473   2.914   0.698   0.428
 2646SOL    HW1 8474   2.930   0.691   0.522
 2646SOL    HW2 8475   2.832   0.652   0.413
 2647SOL     OW 8476   1.951   0.821   0.776
 2647SOL    HW1 8477   2.032   0.814   0.827
 2647SOL    HW2 8478   1.908   0.899   0.811
 2648SOL     OW 8479   1.989   1.850   1.578
 2648SOL    HW1 8480   1.990   1.829   1.671
 2648SOL    HW2 8481   1.897   1.838   1.552
 2649SOL     OW 8482   2.749   0.359   0.203
 2649SOL    HW1 8483   2.792   0.407   0.132
 2649SOL    HW2 8484   2.730   0.273   0.166
 2650SOL     OW 8485   3.570   0.574   1.828
 2650SOL    HW1 8486   3.532   0.648   1.780
 2650SOL    HW2 8487   3.599   0.514   1.760
 2651SOL     OW 8488   3.239   1.142   0.542
 2651SOL    HW1 8489   3.317   1.128   0.488
 2651SOL    HW2 8490   3.186   1.204   0.492
 2652SOL     OW 8491   2.387   0.201   0.883
 2652SOL    HW1 8492   2.410   0.217   0.975
 2652SOL    HW2 8493   2.410   0.282   0.838
 2653SOL     OW 8494   2.867   1.445   0.473
 2653SOL    HW1 8495   2.829   1.517   0.423
 2653SOL    HW2 8496   2.849   1.466   0.564
 2654SOL     OW 8497   2.217   1.809   0.862
 2654SOL    HW1 8498   2.259   1.723   0.869
 2654SOL    HW2 8499   2.286   1.872   0.879
 2655SOL     OW 8500   3.661   1.057   0.868
 2655SOL    HW1 8501   3.607   1.038   0.792
 2655SOL    HW2 8502   3.599   1.063   0.941
 2656SOL     OW 8503   3.090   1.539   1.513
 2656SOL    HW1 8504   3.076   1.466   1.574
 2656SOL    HW2 8505   3.027   1.523   1.443
 2657SOL     OW 8506   2.188   0.943   0.254
 2657SOL    HW1 8507   2.259   0.982   0.203
 2657SOL    HW2 8508   2.187   0.851   0.227
 2658SOL     OW 8509   3.340   0.743   0.726
 2658SOL    HW1 8510   3.332   0.700   0.811
 2658SOL    HW2 8511   3.418   0.798   0.736
 2659SOL     OW 8512   2.328   1.265   1.738
 2659SOL    HW1 8513   2.301   1.270   1.646
 2659SOL    HW2 8514   2.246   1.263   1.787
 2660SOL     OW 8515   2.969   1.781   0.224
 2660SOL    HW1 8516   2.913   1.740   0.290
 2660SOL    HW2 8517   2.990   1.710   0.163
 2661SOL     OW 8518   2.059   0.278   1.503
 2661SOL    HW1 8519   1.980   0.331   1.499
 2661SOL    HW2 8520   2.051   0.229   1.585
 2662SOL     OW 8521   3.496   1.373   0.082
 2662SOL    HW1 8522   3.454   1.459   0.082
 2662SOL    HW2 8523   3.424   1.312   0.064
 2663SOL     OW 8524   2.326   1.738   0.323
 2663SOL    HW1 8525   2.369   1.796   0.386
 2663SOL    HW2 8526   2.397   1.710   0.264
 2664SOL     OW 8527   3.277   0.099   0.446
 2664SOL    HW1 8528   3.268   0.079   0.353
 2664SOL    HW2 8529   3.368   0.127   0.456
 2665SOL     OW 8530   2.118   1.792   1.231
 2665SOL    HW1 8531   2.169   1.726   1.279
 2665SOL    HW2 8532   2.108   1.756   1.143
 2666SOL     OW 8533   2.799   1.698   0.899
 2666SOL    HW1 8534   2.878   1.647   0.920
 2666SOL    HW2 8535   2.756   1.649   0.830
 2667SOL     OW 8536   2.248   0.698   0.476
 2667SOL    HW1 8537   2.273   0.606   0.487
 2667SOL    HW2 8538   2.155   0.701   0.500
 2668SOL     OW 8539   3.401   0.228   1.723
 2668SOL    HW1 8540   3.408   0.245   1.817
 2668SOL    HW2 8541   3.325   0.170   1.716
 2669SOL     OW 8542   2.487   0.137   0.124
 2669SOL    HW1 8543   2.578   0.109   0.134
 2669SOL    HW2 8544   2.459   0.098   0.041
 2670SOL     OW 8545   2.643   0.313   1.767
 2670SOL    HW1 8546   2.701   0.236   1.768
 2670SOL    HW2 8547   2.595   0.306   1.850
 2671SOL     OW 8548   2.738   1.521   1.194
 2671SOL    HW1 8549   2.723   1.485   1.107
 2671SOL    HW2 8550   2.808   1.467   1.230
 2672SOL     OW 8551   3.203   0.589   1.432
 2672SOL    HW1 8552   3.233   0.558   1.517
 2672SOL    HW2 8553   3.239   0.677   1.425
 2673SOL     OW 8554   2.677   1.395   0.939
 2673SOL    HW1 8555   2.761   1.383   0.896
 2673SOL    HW2 8556   2.613   1.396   0.868
 2674SOL     OW 8557   2.789   0.510   0.902
 2674SOL    HW1 8558   2.765   0.502   0.810
 2674SOL    HW2 8559   2.820   0.423   0.927
 2675SOL     OW 8560   2.404   0.062   0.511
 2675SOL    HW1 8561   2.317   0.059   0.552
 2675SOL    HW2 8562   2.398   0.131   0.445
 2676SOL     OW 8563   3.296   1.199   0.036
 2676SOL    HW1 8564   3.319   1.125   0.092
 2676SOL    HW2 8565   3.207   1.223   0.065
 2677SOL     OW 8566   2.162   0.069   0.205
 2677SOL    HW1 8567   2.219   0.140   0.174
 2677SOL    HW2 8568   2.215   5.290   0.197
 2678SOL     OW 8569   2.806   0.257   0.454
 2678SOL    HW1 8570   2.779   0.303   0.375
 2678SOL    HW2 8571   2.899   0.279   0.465
 2679SOL     OW 8572   2.943   0.681   1.459
 2679SOL    HW1 8573   2.874   0.615   1.465
 2679SOL    HW2 8574   3.024   0.631   1.453
 2680SOL     OW 8575   3.084   1.570   0.795
 2680SOL    HW1 8576   3.102   1.636   0.728
 2680SOL    HW2 8577   3.154   1.584   0.859
 2681SOL     OW 8578   2.330   1.151   0.734
 2681SOL    HW1 8579   2.261   1.130   0.797
 2681SOL    HW2 8580   2.289   1.134   0.649
 2682SOL     OW 8581   3.130   1.794   0.607
 2682SOL    HW1 8582   3.180   1.857   0.554
 2682SOL    HW2 8583   3.064   1.847   0.652
 2683SOL     OW 8584   2.891   0.528   0.032
 2683SOL    HW1 8585   2.852   0.610   0.001
 2683SOL    HW2 8586   2.955   0.555   0.098
 2684SOL     OW 8587   1.941   0.553   1.393
 2684SOL    HW1 8588   2.032   0.553   1.365
 2684SOL    HW2 8589   1.935   0.624   1.457
 2685SOL     OW 8590   2.417   0.238   1.158
 2685SOL    HW1 8591   2.449   0.152   1.186
 2685SOL    HW2 8592   2.325   0.239   1.185
 2686SOL     OW 8593   2.729   0.460   0.639
 2686SOL    HW1 8594   2.687   0.515   0.573
 2686SOL    HW2 8595   2.751   0.379   0.594
 2687SOL     OW 8596   2.838   0.062   0.763
 2687SOL    HW1 8597   2.775   0.056   0.691
 2687SOL    HW2 8598   2.850   5.271   0.792
 2688SOL     OW 8599   3.299   1.163   0.857
 2688SOL    HW1 8600   3.230   1.096   0.856
 2688SOL    HW2 8601   3.323   1.174   0.765
 2689SOL     OW 8602   3.329   0.606   0.977
 2689SOL    HW1 8603   3.279   0.524   0.981
 2689SOL    HW2 8604   3.389   0.601   1.052
 2690SOL     OW 8605   3.710   0.815   0.387
 2690SOL    HW1 8606   3.762   0.762   0.448
 2690SOL    HW2 8607   3.679   0.752   0.321
 2691SOL     OW 8608   2.344   1.439   0.172
 2691SOL    HW1 8609   2.272   1.398   0.219
 2691SOL    HW2 8610   2.351   1.390   0.091
 2692SOL     OW 8611   3.533   1.265   0.647
 2692SOL    HW1 8612   3.628   1.269   0.660
 2692SOL    HW2 8613   3.503   1.354   0.668
 2693SOL     OW 8614   3.261   0.578   0.088
 2693SOL    HW1 8615   3.198   0.559   0.157
 2693SOL    HW2 8616   3.316   0.500   0.083
 2694SOL     OW 8617   2.385   0.268   0.329
 2694SOL    HW1 8618   2.426   0.213   0.262
 2694SOL    HW2 8619   2.369   0.351   0.284
 2695SOL     OW 8620   3.614   1.239   1.573
 2695SOL    HW1 8621   3.702   1.200   1.569
 2695SOL    HW2 8622   3.630   1.329   1.602
 2696SOL     OW 8623   2.920   1.354   1.334
 2696SOL    HW1 8624   2.846   1.323   1.385
 2696SOL    HW2 8625   2.996   1.312   1.375
 2697SOL     OW 8626   3.470   1.626   1.654
 2697SOL    HW1 8627   3.464   1.660   1.565
 2697SOL    HW2 8628   3.553   1.578   1.656
 2698SOL     OW 8629   2.991   1.204   1.106
 2698SOL    HW1 8630   2.932   1.241   1.170
 2698SOL    HW2 8631   2.958   1.235   1.021
 2699SOL     OW 8632   3.490   1.098   1.077
 2699SOL    HW1 8633   3.485   1.160   1.150
 2699SOL    HW2 8634   3.411   1.115   1.026
 2700SOL     OW 8635   2.766   0.106   1.389
 2700SOL    HW1 8636   2.796   0.072   1.305
 2700SOL    HW2 8637   2.843   0.149   1.427
 2701SOL     OW 8638   2.846   1.115   1.722
 2701SOL    HW1 8639   2.754   1.131   1.744
 2701SOL    HW2 8640   2.845   1.037   1.667
 2702SOL     OW 8641   2.577   1.063   0.380
 2702SOL    HW1 8642   2.559   1.045   0.472
 2702SOL    HW2 8643   2.654   1.011   0.360
 2703SOL     OW 8644   2.280   0.815   1.252
 2703SOL    HW1 8645   2.349   0.824   1.318
 2703SOL    HW2 8646   2.245   0.727   1.265
 2704SOL     OW 8647   3.129   0.379   1.273
 2704SOL    HW1 8648   3.162   0.455   1.319
 2704SOL    HW2 8649   3.039   0.401   1.250
 2705SOL     OW 8650   1.933   1.573   1.353
 2705SOL    HW1 8651   1.903   1.646   1.298
 2705SOL    HW2 8652   2.028   1.576   1.347
 2706SOL     OW 8653   2.206   1.110   0.491
 2706SOL    HW1 8654   2.213   1.182   0.429
 2706SOL    HW2 8655   2.215   1.031   0.438
 2707SOL     OW 8656   2.415   0.538   0.861
 2707SOL    HW1 8657   2.430   0.596   0.786
 2707SOL    HW2 8658   2.481   0.564   0.925
 2708SOL     OW 8659   3.109   1.347   0.394
 2708SOL    HW1 8660   3.165   1.419   0.422
 2708SOL    HW2 8661   3.022   1.370   0.425
 2709SOL     OW 8662   3.143   1.457   1.147
 2709SOL    HW1 8663   3.199   1.460   1.225
 2709SOL    HW2 8664   3.088   1.380   1.159
 2710SOL     OW 8665   3.445   0.625   0.481
 2710SOL    HW1 8666   3.394   0.675   0.546
 2710SOL    HW2 8667   3.479   0.692   0.422
 2711SOL     OW 8668   2.208   1.528   1.315
 2711SOL    HW1 8669   2.196   1.485   1.230
 2711SOL    HW2 8670   2.303   1.539   1.323
 2712SOL     OW 8671   2.276   0.744   1.602
 2712SOL    HW1 8672   2.338   0.789   1.544
 2712SOL    HW2 8673   2.318   0.660   1.620
 2713SOL     OW 8674   3.463   0.779   1.682
 2713SOL    HW1 8675   3.377   0.820   1.675
 2713SOL    HW2 8676   3.516   0.821   1.614
 2714SOL     OW 8677   2.907   0.117   1.784
 2714SOL    HW1 8678   2.932   0.196   1.737
 2714SOL    HW2 8679   2.912   0.047   1.719
 2715SOL     OW 8680   2.345   0.057   1.738
 2715SOL    HW1 8681   2.287   5.292   1.698
 2715SOL    HW2 8682   2.288   0.131   1.760
 2716SOL     OW 8683   2.445   0.873   1.031
 2716SOL    HW1 8684   2.476   0.963   1.031
 2716SOL    HW2 8685   2.389   0.867   1.108
 2717SOL     OW 8686   3.220   0.859   1.030
 2717SOL    HW1 8687   3.137   0.850   0.982
 2717SOL    HW2 8688   3.260   0.772   1.024
 2718SOL     OW 8689   3.065   0.527   0.270
 2718SOL    HW1 8690   3.073   0.447   0.323
 2718SOL    HW2 8691   3.023   0.590   0.328
 2719SOL     OW 8692   2.158   0.204   1.248
 2719SOL    HW1 8693   2.119   0.243   1.326
 2719SOL    HW2 8694   2.158   0.110   1.265
 2720SOL     OW 8695   1.908   1.311   1.276
 2720SOL    HW1 8696   1.941   1.256   1.347
 2720SOL    HW2 8697   1.915   1.400   1.310
 2721SOL     OW 8698   2.588   0.632   1.060
 2721SOL    HW1 8699   2.661   0.615   1.001
 2721SOL    HW2 8700   2.559   0.720   1.037
 2722SOL     OW 8701   3.596   0.960   1.852
 2722SOL    HW1 8702   3.551   0.898   1.796
 2722SOL    HW2 8703   3.537   0.973   1.926
 2723SOL     OW 8704   2.164   0.071   0.652
 2723SOL    HW1 8705   2.146   0.165   0.658
 2723SOL    HW2 8706   2.209   0.049   0.733
 2724SOL     OW 8707   3.483   0.378   0.367
 2724SOL    HW1 8708   3.510   0.312   0.431
 2724SOL    HW2 8709   3.458   0.453   0.421
 2725SOL     OW 8710   2.889   0.759   0.961
 2725SOL    HW1 8711   2.886   0.777   1.055
 2725SOL    HW2 8712   2.863   0.668   0.952
 2726SOL     OW 8713   2.844   1.566   1.717
 2726SOL    HW1 8714   2.829   1.610   1.633
 2726SOL    HW2 8715   2.887   1.484   1.693
 2727SOL     OW 8716   3.716   1.506   1.605
 2727SOL    HW1 8717   3.735   1.532   1.515
 2727SOL    HW2 8718   3.798   1.524   1.653
 2728SOL     OW 8719   2.215   0.916   1.808
 2728SOL    HW1 8720   2.297   0.935   1.854
 2728SOL    HW2 8721   2.240   0.854   1.740
 2729SOL     OW 8722   3.383   0.302   0.126
 2729SOL    HW1 8723   3.346   0.215   0.140
 2729SOL    HW2 8724   3.422   0.326   0.210
 2730SOL     OW 8725   3.157   0.824   0.021
 2730SOL    HW1 8726   3.196   0.738   0.039
 2730SOL    HW2 8727   3.216   0.865   8.039
 2731SOL     OW 8728   2.927   1.336   0.854
 2731SOL    HW1 8729   2.930   1.263   0.792
 2731SOL    HW2 8730   2.989   1.400   0.819
 2732SOL     OW 8731   2.171   0.809   0.947
 2732SOL    HW1 8732   2.264   0.830   0.941
 2732SOL    HW2 8733   2.169   0.719   0.979
 2733SOL     OW 8734   2.194   0.526   1.012
 2733SOL    HW1 8735   2.158   0.439   0.997
 2733SOL    HW2 8736   2.270   0.531   0.955
 2734SOL     OW 8737   2.997   0.378   1.688
 2734SOL    HW1 8738   2.950   0.432   1.751
 2734SOL    HW2 8739   3.085   0.417   1.684
 2735SOL     OW 8740   2.995   0.222   1.466
 2735SOL    HW1 8741   3.000   0.281   1.541
 2735SOL    HW2 8742   3.051   0.264   1.400
 2736SOL     OW 8743   1.873   1.324   0.190
 2736SOL    HW1 8744   1.787   1.338   0.152
 2736SOL    HW2 8745   1.871   1.234   0.222
 2737SOL     OW 8746   1.952   1.787   0.938
 2737SOL    HW1 8747   1.922   1.708   0.894
 2737SOL    HW2 8748   2.042   1.799   0.907
 2738SOL     OW 8749   2.358   1.574   0.905
 2738SOL    HW1 8750   2.427   1.635   0.930
 2738SOL    HW2 8751   2.402   1.510   0.849
 2739SOL     OW 8752   2.845   0.793   1.227
 2739SOL    HW1 8753   2.901   0.769   1.301
 2739SOL    HW2 8754   2.760   0.754   1.248
 2740SOL     OW 8755   1.897   0.544   1.117
 2740SOL    HW1 8756   1.977   0.529   1.066
 2740SOL    HW2 8757   1.927   0.548   1.208
 2741SOL     OW 8758   2.049   0.522   1.727
 2741SOL    HW1 8759   2.112   0.487   1.664
 2741SOL    HW2 8760   2.009   0.596   1.681
 2742SOL     OW 8761   3.239   0.939   1.659
 2742SOL    HW1 8762   3.260   1.032   1.656
 2742SOL    HW2 8763   3.236   0.913   1.566
 2743SOL     OW 8764   2.680   0.570   0.368
 2743SOL    HW1 8765   2.689   0.499   0.304
 2743SOL    HW2 8766   2.604   0.620   0.338
 2744SOL     OW 8767   3.504   0.602   1.186
 2744SOL    HW1 8768   3.493   0.542   1.260
 2744SOL    HW2 8769   3.591   0.581   1.152
 2745SOL     OW 8770   2.104   1.551   1.727
 2745SOL    HW1 8771   2.083   1.615   1.795
 2745SOL    HW2 8772   2.108   1.467   1.773
 2746SOL     OW 8773   2.561   0.452   1.260
 2746SOL    HW1 8774   2.510   0.378   1.227
 2746SOL    HW2 8775   2.560   0.516   1.189
 2747SOL     OW 8776   2.789   1.679   1.468
 2747SOL    HW1 8777   2.764   1.645   1.382
 2747SOL    HW2 8778   2.785   1.774   1.457
 2748SOL     OW 8779   2.329   0.492   0.177
 2748SOL    HW1 8780   2.398   0.557   0.196
 2748SOL    HW2 8781   2.247   0.538   0.193
 2749SOL     OW 8782   2.008   1.141   1.472
 2749SOL    HW1 8783   2.010   1.089   1.553
 2749SOL    HW2 8784   2.025   1.077   1.403
 2750SOL     OW 8785   3.188   1.047   1.223
 2750SOL    HW1 8786   3.211   0.983   1.155
 2750SOL    HW2 8787   3.118   1.099   1.184
 2751SOL     OW 8788   3.168   0.849   0.308
 2751SOL    HW1 8789   3.091   0.819   0.357
 2751SOL    HW2 8790   3.144   0.837   0.216
 2752SOL     OW 8791   3.633   1.744   1.150
 2752SOL    HW1 8792   3.694   1.770   1.081
 2752SOL    HW2 8793   3.610   1.654   1.129
 2753SOL     OW 8794   3.103   1.733   1.113
 2753SOL    HW1 8795   3.185   1.754   1.068
 2753SOL    HW2 8796   3.109   1.639   1.131
 2754SOL     OW 8797   1.946   1.267   1.012
 2754SOL    HW1 8798   1.931   1.280   1.106
 2754SOL    HW2 8799   1.873   1.212   0.983
 2755SOL     OW 8800   2.538   1.666   1.728
 2755SOL    HW1 8801   2.487   1.746   1.727
 2755SOL    HW2 8802   2.605   1.678   1.661
 2756SOL     OW 8803   2.755   0.086   0.139
 2756SOL    HW1 8804   2.803   0.078   0.056
 2756SOL    HW2 8805   2.774   0.005   0.186
 2757SOL     OW 8806   3.575   0.149   0.504
 2757SOL    HW1 8807   3.649   0.128   0.447
 2757SOL    HW2 8808   3.567   0.074   0.563
 2758SOL     OW 8809   3.252   1.568   0.486
 2758SOL    HW1 8810   3.315   1.601   0.422
 2758SOL    HW2 8811   3.204   1.646   0.515
 2759SOL     OW 8812   1.998   1.797   1.843
 2759SOL    HW1 8813   1.948   1.731   1.891
 2759SOL    HW2 8814   2.047   1.844   1.911
 2760SOL     OW 8815   3.139   0.926   0.672
 2760SOL    HW1 8816   3.213   0.865   0.678
 2760SOL    HW2 8817   3.173   0.998   0.619
 2761SOL     OW 8818   2.676   1.273   1.430
 2761SOL    HW1 8819   2.648   1.312   1.512
 2761SOL    HW2 8820   2.607   1.295   1.368
 2762SOL     OW 8821   2.538   1.621   0.156
 2762SOL    HW1 8822   2.544   1.627   0.061
 2762SOL    HW2 8823   2.477   1.548   0.172
 2763SOL     OW 8824   3.488   1.727   1.391
 2763SOL    HW1 8825   3.538   1.733   1.310
 2763SOL    HW2 8826   3.474   1.817   1.418
 2764SOL     OW 8827   3.708   0.157   0.957
 2764SOL    HW1 8828   3.707   0.062   0.945
 2764SOL    HW2 8829   3.621   0.185   0.929
 2765SOL     OW 8830   2.124   0.329   0.720
 2765SOL    HW1 8831   2.036   0.360   0.698
 2765SOL    HW2 8832   2.122   0.317   0.815
 2766SOL     OW 8833   3.019   1.582   0.052
 2766SOL    HW1 8834   3.034   1.489   0.072
 2766SOL    HW2 8835   3.029   1.588   8.037
 2767SOL     OW 8836   2.686   1.006   1.372
 2767SOL    HW1 8837   2.730   1.001   1.288
 2767SOL    HW2 8838   2.686   1.099   1.394
 2768SOL     OW 8839   2.782   0.915   0.299
 2768SOL    HW1 8840   2.835   0.939   0.223
 2768SOL    HW2 8841   2.828   0.842   0.339
 2769SOL     OW 8842   3.372   1.624   0.061
 2769SOL    HW1 8843   3.277   1.624   0.049
 2769SOL    HW2 8844   3.407   1.625   8.052
 2770SOL     OW 8845   2.231   1.303   1.492
 2770SOL    HW1 8846   2.217   1.380   1.437
 2770SOL    HW2 8847   2.154   1.248   1.475
 2771SOL     OW 8848   3.473   1.283   1.280
 2771SOL    HW1 8849   3.532   1.272   1.354
 2771SOL    HW2 8850   3.412   1.352   1.308
 2772SOL     OW 8851   2.914   1.107   0.708
 2772SOL    HW1 8852   2.843   1.055   0.746
 2772SOL    HW2 8853   2.976   1.042   0.674
 2773SOL     OW 8854   2.881   0.243   0.968
 2773SOL    HW1 8855   2.861   0.197   0.887
 2773SOL    HW2 8856   2.874   0.176   1.036
 2774SOL     OW 8857   2.465   1.487   0.480
 2774SOL    HW1 8858   2.510   1.437   0.412
 2774SOL    HW2 8859   2.395   1.534   0.434
 2775SOL     OW 8860   3.586   0.387   1.378
 2775SOL    HW1 8861   3.656   0.452   1.377
 2775SOL    HW2 8862   3.618   0.317   1.320
 2776SOL     OW 8863   2.129   1.320   0.294
 2776SOL    HW1 8864   2.043   1.331   0.253
 2776SOL    HW2 8865   2.122   1.365   0.378
 2777SOL     OW 8866   1.975   1.022   1.719
 2777SOL    HW1 8867   1.898   0.999   1.772
 2777SOL    HW2 8868   2.049   0.985   1.766
 2778SOL     OW 8869   2.534   0.211   1.488
 2778SOL    HW1 8870   2.618   0.194   1.445
 2778SOL    HW2 8871   2.558   0.261   1.567
 2779SOL     OW 8872   1.930   0.362   0.034
 2779SOL    HW1 8873   1.859   0.299   0.024
 2779SOL    HW2 8874   1.945   0.396   8.026
 2780SOL     OW 8875   3.292   0.858   1.400
 2780SOL    HW1 8876   3.243   0.919   1.345
 2780SOL    HW2 8877   3.381   0.861   1.366
 2781SOL     OW 8878   1.930   0.165   0.314
 2781SOL    HW1 8879   1.937   0.253   0.276
 2781SOL    HW2 8880   2.015   0.124   0.296
 2782SOL     OW 8881   3.047   1.318   0.121
 2782SOL    HW1 8882   2.952   1.307   0.120
 2782SOL    HW2 8883   3.069   1.319   0.214
 2783SOL     OW 8884   2.481   0.830   1.433
 2783SOL    HW1 8885   2.537   0.907   1.418
 2783SOL    HW2 8886   2.542   0.757   1.442
 2784SOL     OW 8887   3.346   1.777   0.978
 2784SOL    HW1 8888   3.370   1.837   0.908
 2784SOL    HW2 8889   3.428   1.757   1.023
 2785SOL     OW 8890   2.577   0.572   1.703
 2785SOL    HW1 8891   2.618   0.635   1.762
 2785SOL    HW2 8892   2.608   0.487   1.734
 2786SOL     OW 8893   3.333   1.200   1.632
 2786SOL    HW1 8894   3.321   1.214   1.726
 2786SOL    HW2 8895   3.427   1.215   1.617
 2787SOL     OW 8896   2.240   1.739   1.562
 2787SOL    HW1 8897   2.155   1.780   1.550
 2787SOL    HW2 8898   2.220   1.655   1.605
 2788SOL     OW 8899   3.531   0.881   1.255
 2788SOL    HW1 8900   3.525   0.796   1.213
 2788SOL    HW2 8901   3.522   0.944   1.184
 2789SOL     OW 8902   3.077   0.327   0.474
 2789SOL    HW1 8903   3.136   0.253   0.458
 2789SOL    HW2 8904   3.117   0.374   0.547
 2790SOL     OW 8905   2.450   0.738   0.670
 2790SOL    HW1 8906   2.490   0.823   0.654
 2790SOL    HW2 8907   2.382   0.731   0.603
 2791SOL     OW 8908   3.628   0.362   1.649
 2791SOL    HW1 8909   3.609   0.376   1.556
 2791SOL    HW2 8910   3.557   0.306   1.680
 2792SOL     OW 8911   3.607   0.934   1.512
 2792SOL    HW1 8912   3.604   1.029   1.525
 2792SOL    HW2 8913   3.592   0.922   1.418
 2793SOL     OW 8914   2.758   1.373   0.037
 2793SOL    HW1 8915   2.693   1.363   0.107
 2793SOL    HW2 8916   2.739   1.459   8.079
 2794SOL     OW 8917   2.523   1.790   0.946
 2794SOL    HW1 8918   2.504   1.881   0.920
 2794SOL    HW2 8919   2.618   1.783   0.938
 2795SOL     OW 8920   2.729   0.966   0.855
 2795SOL    HW1 8921   2.780   0.895   0.894
 2795SOL    HW2 8922   2.695   1.015   0.930
 2796SOL     OW 8923   2.939   0.977   0.086
 2796SOL    HW1 8924   2.927   1.038   0.014
 2796SOL    HW2 8925   3.017   0.926   0.062
 2797SOL     OW 8926   3.716   1.554   0.844
 2797SOL    HW1 8927   3.638   1.543   0.790
 2797SOL    HW2 8928   3.708   1.488   0.913
 2798SOL     OW 8929   2.087   1.303   1.855
 2798SOL    HW1 8930   2.020   1.241   1.827
 2798SOL    HW2 8931   2.069   1.315   1.949
 2799SOL     OW 8932   1.947   1.233   0.665
 2799SOL    HW1 8933   1.950   1.184   0.747
 2799SOL    HW2 8934   2.019   1.196   0.612
 2800SOL     OW 8935   2.542   1.403   1.627
 2800SOL    HW1 8936   2.463   1.360   1.659
 2800SOL    HW2 8937   2.538   1.491   1.664
 2801SOL     OW 8938   3.676   0.177   1.232
 2801SOL    HW1 8939   3.642   0.088   1.238
 2801SOL    HW2 8940   3.694   0.190   1.139
 2802SOL     OW 8941   2.287   0.438   0.522
 2802SOL    HW1 8942   2.324   0.366   0.472
 2802SOL    HW2 8943   2.244   0.396   0.596
 2803SOL     OW 8944   3.562   1.489   1.096
 2803SOL    HW1 8945   3.481   1.466   1.051
 2803SOL    HW2 8946   3.574   1.420   1.161
 2804SOL     OW 8947   2.190   0.556   1.290
 2804SOL    HW1 8948   2.247   0.501   1.345
 2804SOL    HW2 8949   2.211   0.529   1.201
 2805SOL     OW 8950   2.689   1.578   0.678
 2805SOL    HW1 8951   2.677   1.629   0.598
 2805SOL    HW2 8952   2.613   1.520   0.681
 2806SOL     OW 8953   3.290   0.218   1.117
 2806SOL    HW1 8954   3.327   0.144   1.164
 2806SOL    HW2 8955   3.241   0.268   1.183
 2807SOL     OW 8956   2.864   0.021   1.140
 2807SOL    HW1 8957   2.814   5.252   1.097
 2807SOL    HW2 8958   2.951   5.283   1.154
 2808SOL     OW 8959   2.631   1.328   0.309
 2808SOL    HW1 8960   2.600   1.238   0.323
 2808SOL    HW2 8961   2.714   1.332   0.357
 2809SOL     OW 8962   2.481   1.557   1.284
 2809SOL    HW1 8963   2.484   1.638   1.334
 2809SOL    HW2 8964   2.569   1.548   1.247
 2810SOL     OW 8965   3.256   0.045   0.169
 2810SOL    HW1 8966   3.247   0.027   0.076
 2810SOL    HW2 8967   3.168   0.072   0.197
 2811SOL     OW 8968   3.170   0.467   0.689
 2811SOL    HW1 8969   3.112   0.543   0.692
 2811SOL    HW2 8970   3.159   0.425   0.775
 2812SOL     OW 8971   3.456   0.215   0.882
 2812SOL    HW1 8972   3.390   0.227   0.950
 2812SOL    HW2 8973   3.449   0.294   0.828
 2813SOL     OW 8974   1.905   1.067   0.304
 2813SOL    HW1 8975   2.001   1.066   0.307
 2813SOL    HW2 8976   1.879   0.984   0.344
 2814SOL     OW 8977   2.744   1.654   0.348
 2814SOL    HW1 8978   2.676   1.637   0.283
 2814SOL    HW2 8979   2.712   1.730   0.397
 2815SOL     OW 8980   2.090   0.625   1.985
 2815SOL    HW1 8981   2.001   0.622   2.020
 2815SOL    HW2 8982   2.080   0.599   1.893
 2816SOL     OW 8983   2.080   0.284   2.855
 2816SOL    HW1 8984   2.109   0.249   2.939
 2816SOL    HW2 8985   1.995   0.243   2.839
 2817SOL     OW 8986   1.866   0.386   2.500
 2817SOL    HW1 8987   1.781   0.407   2.540
 2817SOL    HW2 8988   1.848   0.309   2.447
 2818SOL     OW 8989   2.429   1.287   3.037
 2818SOL    HW1 8990   2.341   1.289   2.999
 2818SOL    HW2 8991   2.444   1.376   3.069
 2819SOL     OW 8992   3.423   1.512   2.569
 2819SOL    HW1 8993   3.380   1.491   2.652
 2819SOL    HW2 8994   3.352   1.516   2.505
 2820SOL     OW 8995   2.993   0.698   2.564
 2820SOL    HW1 8996   3.042   0.779   2.549
 2820SOL    HW2 8997   2.946   0.713   2.645
 2821SOL     OW 8998   3.628   0.606   2.091
 2821SOL    HW1 8999   3.608   0.598   1.997
 2821SOL    HW2 9000   3.594   0.526   2.129
 2822SOL     OW 9001   2.618   1.142   2.904
 2822SOL    HW1 9002   2.549   1.177   2.960
 2822SOL    HW2 9003   2.653   1.219   2.858
 2823SOL     OW 9004   2.729   0.777   3.685
 2823SOL    HW1 9005   2.716   0.849   3.747
 2823SOL    HW2 9006   2.752   0.820   3.603
 2824SOL     OW 9007   2.548   1.003   2.509
 2824SOL    HW1 9008   2.613   0.991   2.578
 2824SOL    HW2 9009   2.479   1.055   2.549
 2825SOL     OW 9010   2.572   1.151   3.674
 2825SOL    HW1 9011   2.619   1.230   3.700
 2825SOL    HW2 9012   2.489   1.183   3.639
 2826SOL     OW 9013   2.193   1.424   2.928
 2826SOL    HW1 9014   2.120   1.387   2.879
 2826SOL    HW2 9015   2.243   1.474   2.863
 2827SOL     OW 9016   3.322   1.499   3.218
 2827SOL    HW1 9017   3.372   1.581   3.224
 2827SOL    HW2 9018   3.261   1.502   3.291
 2828SOL     OW 9019   2.306   0.398   3.348
 2828SOL    HW1 9020   2.381   0.338   3.346
 2828SOL    HW2 9021   2.231   0.342   3.363
 2829SOL     OW 9022   3.472   0.451   2.600
 2829SOL    HW1 9023   3.397   0.475   2.546
 2829SOL    HW2 9024   3.491   0.530   2.651
 2830SOL     OW 9025   2.081   1.715   2.334
 2830SOL    HW1 9026   2.103   1.791   2.387
 2830SOL    HW2 9027   2.155   1.705   2.273
 2831SOL     OW 9028   2.993   1.343   3.558
 2831SOL    HW1 9029   3.039   1.335   3.641
 2831SOL    HW2 9030   2.942   1.263   3.550
 2832SOL     OW 9031   2.092   1.441   2.397
 2832SOL    HW1 9032   2.074   1.535   2.401
 2832SOL    HW2 9033   2.032   1.403   2.461
 2833SOL     OW 9034   2.120   1.090   2.753
 2833SOL    HW1 9035   2.116   1.003   2.794
 2833SOL    HW2 9036   2.062   1.144   2.807
 2834SOL     OW 9037   2.447   0.982   1.996
 2834SOL    HW1 9038   2.493   1.030   1.928
 2834SOL    HW2 9039   2.487   1.012   2.078
 2835SOL     OW 9040   3.448   0.135   3.318
 2835SOL    HW1 9041   3.470   0.220   3.279
 2835SOL    HW2 9042   3.446   0.152   3.412
 2836SOL     OW 9043   1.976   0.653   2.421
 2836SOL    HW1 9044   1.949   0.564   2.443
 2836SOL    HW2 9045   1.969   0.701   2.504
 2837SOL     OW 9046   3.704   1.759   2.197
 2837SOL    HW1 9047   3.769   1.731   2.262
 2837SOL    HW2 9048   3.728   1.849   2.178
 2838SOL     OW 9049   1.894   1.595   1.986
 2838SOL    HW1 9050   1.877   1.503   2.005
 2838SOL    HW2 9051   1.870   1.642   2.066
 2839SOL     OW 9052   3.552   0.919   2.503
 2839SOL    HW1 9053   3.634   0.876   2.482
 2839SOL    HW2 9054   3.529   0.969   2.425
 2840SOL     OW 9055   3.508   1.106   2.291
 2840SOL    HW1 9056   3.594   1.112   2.249
 2840SOL    HW2 9057   3.513   1.168   2.365
 2841SOL     OW 9058   1.984   0.744   3.446
 2841SOL    HW1 9059   2.076   0.770   3.455
 2841SOL    HW2 9060   1.935   0.826   3.454
 2842SOL     OW 9061   2.474   1.385   2.597
 2842SOL    HW1 9062   2.429   1.302   2.606
 2842SOL    HW2 9063   2.459   1.412   2.506
 2843SOL     OW 9064   3.150   1.236   3.287
 2843SOL    HW1 9065   3.182   1.170   3.226
 2843SOL    HW2 9066   3.209   1.231   3.362
 2844SOL     OW 9067   2.673   0.027   2.390
 2844SOL    HW1 9068   2.701   0.115   2.365
 2844SOL    HW2 9069   2.577   0.031   2.384
 2845SOL     OW 9070   2.052   0.966   3.134
 2845SOL    HW1 9071   2.137   0.924   3.118
 2845SOL    HW2 9072   1.989   0.912   3.086
 2846SOL     OW 9073   3.393   0.994   2.060
 2846SOL    HW1 9074   3.324   0.936   2.092
 2846SOL    HW2 9075   3.434   1.028   2.140
 2847SOL     OW 9076   2.189   0.266   3.673
 2847SOL    HW1 9077   2.241   0.342   3.702
 2847SOL    HW2 9078   2.103   0.280   3.712
 2848SOL     OW 9079   3.329   1.420   2.813
 2848SOL    HW1 9080   3.260   1.435   2.879
 2848SOL    HW2 9081   3.316   1.329   2.786
 2849SOL     OW 9082   3.520   1.740   2.440
 2849SOL    HW1 9083   3.501   1.710   2.351
 2849SOL    HW2 9084   3.495   1.666   2.496
 2850SOL     OW 9085   2.457   0.721   2.128
 2850SOL    HW1 9086   2.462   0.802   2.078
 2850SOL    HW2 9087   2.391   0.739   2.196
 2851SOL     OW 9088   3.140   0.347   2.793
 2851SOL    HW1 9089   3.049   0.319   2.805
 2851SOL    HW2 9090   3.190   0.297   2.857
 2852SOL     OW 9091   3.443   1.670   2.171
 2852SOL    HW1 9092   3.533   1.701   2.164
 2852SOL    HW2 9093   3.416   1.653   2.081
 2853SOL     OW 9094   2.656   0.618   3.312
 2853SOL    HW1 9095   2.629   0.597   3.401
 2853SOL    HW2 9096   2.614   0.552   3.257
 2854SOL     OW 9097   3.257   0.475   3.540
 2854SOL    HW1 9098   3.259   0.520   3.625
 2854SOL    HW2 9099   3.320   0.404   3.549
 2855SOL     OW 9100   2.817   0.888   3.444
 2855SOL    HW1 9101   2.872   0.817   3.409
 2855SOL    HW2 9102   2.769   0.921   3.369
 2856SOL     OW 9103   2.856   0.417   3.097
 2856SOL    HW1 9104   2.770   0.438   3.135
 2856SOL    HW2 9105   2.835   0.368   3.017
 2857SOL     OW 9106   2.913   0.698   2.289
 2857SOL    HW1 9107   2.928   0.691   2.383
 2857SOL    HW2 9108   2.830   0.652   2.274
 2858SOL     OW 9109   1.950   0.821   2.639
 2858SOL    HW1 9110   2.031   0.814   2.689
 2858SOL    HW2 9111   1.907   0.899   2.673
 2859SOL     OW 9112   2.004   1.836   3.437
 2859SOL    HW1 9113   1.999   1.822   3.532
 2859SOL    HW2 9114   1.913   1.848   3.411
 2860SOL     OW 9115   2.736   0.364   2.051
 2860SOL    HW1 9116   2.777   0.424   1.989
 2860SOL    HW2 9117   2.790   0.285   2.048
 2861SOL     OW 9118   3.570   0.574   3.690
 2861SOL    HW1 9119   3.532   0.648   3.641
 2861SOL    HW2 9120   3.599   0.514   3.622
 2862SOL     OW 9121   3.239   1.142   2.403
 2862SOL    HW1 9122   3.318   1.129   2.350
 2862SOL    HW2 9123   3.186   1.204   2.353
 2863SOL     OW 9124   2.388   0.202   2.744
 2863SOL    HW1 9125   2.410   0.217   2.836
 2863SOL    HW2 9126   2.410   0.284   2.700
 2864SOL     OW 9127   2.868   1.444   2.334
 2864SOL    HW1 9128   2.830   1.517   2.284
 2864SOL    HW2 9129   2.850   1.466   2.425
 2865SOL     OW 9130   2.218   1.808   2.724
 2865SOL    HW1 9131   2.257   1.721   2.731
 2865SOL    HW2 9132   2.290   1.868   2.740
 2866SOL     OW 9133   3.661   1.057   2.730
 2866SOL    HW1 9134   3.607   1.039   2.654
 2866SOL    HW2 9135   3.599   1.062   2.803
 2867SOL     OW 9136   3.085   1.531   3.372
 2867SOL    HW1 9137   3.070   1.458   3.433
 2867SOL    HW2 9138   3.035   1.508   3.295
 2868SOL     OW 9139   2.182   0.958   2.112
 2868SOL    HW1 9140   2.264   0.976   2.067
 2868SOL    HW2 9141   2.151   0.875   2.074
 2869SOL     OW 9142   3.340   0.743   2.589
 2869SOL    HW1 9143   3.332   0.700   2.674
 2869SOL    HW2 9144   3.418   0.798   2.598
 2870SOL     OW 9145   2.328   1.265   3.600
 2870SOL    HW1 9146   2.300   1.270   3.508
 2870SOL    HW2 9147   2.247   1.261   3.650
 2871SOL     OW 9148   2.984   1.778   2.093
 2871SOL    HW1 9149   2.910   1.737   2.138
 2871SOL    HW2 9150   3.007   1.716   2.023
 2872SOL     OW 9151   2.059   0.278   3.365
 2872SOL    HW1 9152   1.980   0.331   3.361
 2872SOL    HW2 9153   2.051   0.229   3.447
 2873SOL     OW 9154   3.490   1.380   1.950
 2873SOL    HW1 9155   3.449   1.465   1.935
 2873SOL    HW2 9156   3.422   1.316   1.931
 2874SOL     OW 9157   2.328   1.735   2.185
 2874SOL    HW1 9158   2.371   1.795   2.247
 2874SOL    HW2 9159   2.398   1.708   2.125
 2875SOL     OW 9160   3.269   0.100   2.293
 2875SOL    HW1 9161   3.261   0.082   2.200
 2875SOL    HW2 9162   3.361   0.122   2.306
 2876SOL     OW 9163   2.112   1.790   3.092
 2876SOL    HW1 9164   2.163   1.729   3.145
 2876SOL    HW2 9165   2.112   1.751   3.004
 2877SOL     OW 9166   2.797   1.698   2.759
 2877SOL    HW1 9167   2.876   1.649   2.782
 2877SOL    HW2 9168   2.756   1.647   2.689
 2878SOL     OW 9169   2.254   0.696   2.338
 2878SOL    HW1 9170   2.276   0.603   2.349
 2878SOL    HW2 9171   2.161   0.702   2.356
 2879SOL     OW 9172   3.401   0.228   3.585
 2879SOL    HW1 9173   3.408   0.245   3.679
 2879SOL    HW2 9174   3.326   0.169   3.578
 2880SOL     OW 9175   2.486   0.132   1.969
 2880SOL    HW1 9176   2.550   0.065   1.994
 2880SOL    HW2 9177   2.435   0.092   1.899
 2881SOL     OW 9178   2.643   0.313   3.629
 2881SOL    HW1 9179   2.701   0.236   3.629
 2881SOL    HW2 9180   2.594   0.306   3.712
 2882SOL     OW 9181   2.727   1.512   3.052
 2882SOL    HW1 9182   2.719   1.477   2.963
 2882SOL    HW2 9183   2.805   1.469   3.088
 2883SOL     OW 9184   3.203   0.589   3.294
 2883SOL    HW1 9185   3.233   0.558   3.379
 2883SOL    HW2 9186   3.239   0.677   3.287
 2884SOL     OW 9187   2.677   1.393   2.799
 2884SOL    HW1 9188   2.761   1.382   2.755
 2884SOL    HW2 9189   2.613   1.395   2.728
 2885SOL     OW 9190   2.789   0.510   2.765
 2885SOL    HW1 9191   2.766   0.502   2.673
 2885SOL    HW2 9192   2.821   0.423   2.790
 2886SOL     OW 9193   2.404   0.062   2.370
 2886SOL    HW1 9194   2.319   0.061   2.413
 2886SOL    HW2 9195   2.397   0.132   2.305
 2887SOL     OW 9196   3.290   1.198   1.903
 2887SOL    HW1 9197   3.320   1.122   1.953
 2887SOL    HW2 9198   3.204   1.219   1.940
 2888SOL     OW 9199   2.163   0.062   2.053
 2888SOL    HW1 9200   2.222   0.132   2.023
 2888SOL    HW2 9201   2.219   5.286   2.063
 2889SOL     OW 9202   2.801   0.262   2.324
 2889SOL    HW1 9203   2.773   0.300   2.241
 2889SOL    HW2 9204   2.896   0.273   2.325
 2890SOL     OW 9205   2.943   0.681   3.322
 2890SOL    HW1 9206   2.874   0.615   3.327
 2890SOL    HW2 9207   3.024   0.631   3.315
 2891SOL     OW 9208   3.085   1.569   2.655
 2891SOL    HW1 9209   3.101   1.637   2.589
 2891SOL    HW2 9210   3.152   1.585   2.722
 2892SOL     OW 9211   2.331   1.149   2.596
 2892SOL    HW1 9212   2.261   1.130   2.659
 2892SOL    HW2 9213   2.291   1.133   2.510
 2893SOL     OW 9214   3.131   1.794   2.471
 2893SOL    HW1 9215   3.177   1.855   2.413
 2893SOL    HW2 9216   3.064   1.847   2.514
 2894SOL     OW 9217   2.888   0.546   1.884
 2894SOL    HW1 9218   2.845   0.630   1.866
 2894SOL    HW2 9219   2.951   0.566   1.953
 2895SOL     OW 9220   1.941   0.553   3.255
 2895SOL    HW1 9221   2.032   0.553   3.227
 2895SOL    HW2 9222   1.935   0.624   3.319
 2896SOL     OW 9223   2.417   0.238   3.020
 2896SOL    HW1 9224   2.449   0.152   3.049
 2896SOL    HW2 9225   2.325   0.239   3.046
 2897SOL     OW 9226   2.729   0.463   2.503
 2897SOL    HW1 9227   2.683   0.516   2.438
 2897SOL    HW2 9228   2.752   0.382   2.456
 2898SOL     OW 9229   2.840   0.061   2.625
 2898SOL    HW1 9230   2.775   0.056   2.555
 2898SOL    HW2 9231   2.850   5.271   2.655
 2899SOL     OW 9232   3.299   1.163   2.719
 2899SOL    HW1 9233   3.230   1.097   2.717
 2899SOL    HW2 9234   3.324   1.174   2.627
 2900SOL     OW 9235   3.328   0.606   2.840
 2900SOL    HW1 9236   3.279   0.524   2.843
 2900SOL    HW2 9237   3.389   0.601   2.914
 2901SOL     OW 9238   3.707   0.816   2.245
 2901SOL    HW1 9239   3.763   0.765   2.303
 2901SOL    HW2 9240   3.679   0.754   2.178
 2902SOL     OW 9241   2.352   1.418   2.018
 2902SOL    HW1 9242   2.277   1.389   2.070
 2902SOL    HW2 9243   2.339   1.378   1.933
 2903SOL     OW 9244   3.532   1.264   2.508
 2903SOL    HW1 9245   3.627   1.267   2.521
 2903SOL    HW2 9246   3.502   1.353   2.529
 2904SOL     OW 9247   3.256   0.572   1.933
 2904SOL    HW1 9248   3.195   0.552   2.004
 2904SOL    HW2 9249   3.341   0.541   1.965
 2905SOL     OW 9250   2.385   0.265   2.183
 2905SOL    HW1 9251   2.430   0.216   2.114
 2905SOL    HW2 9252   2.365   0.349   2.143
 2906SOL     OW 9253   3.614   1.240   3.436
 2906SOL    HW1 9254   3.702   1.200   3.431
 2906SOL    HW2 9255   3.630   1.330   3.463
 2907SOL     OW 9256   2.922   1.356   3.199
 2907SOL    HW1 9257   2.846   1.322   3.246
 2907SOL    HW2 9258   2.996   1.310   3.237
 2908SOL     OW 9259   3.470   1.626   3.517
 2908SOL    HW1 9260   3.463   1.659   3.428
 2908SOL    HW2 9261   3.554   1.579   3.518
 2909SOL     OW 9262   2.991   1.205   2.968
 2909SOL    HW1 9263   2.929   1.242   3.031
 2909SOL    HW2 9264   2.960   1.236   2.883
 2910SOL     OW 9265   3.490   1.098   2.939
 2910SOL    HW1 9266   3.485   1.160   3.012
 2910SOL    HW2 9267   3.411   1.115   2.888
 2911SOL     OW 9268   2.766   0.106   3.251
 2911SOL    HW1 9269   2.796   0.072   3.167
 2911SOL    HW2 9270   2.843   0.149   3.289
 2912SOL     OW 9271   2.845   1.114   3.585
 2912SOL    HW1 9272   2.753   1.129   3.605
 2912SOL    HW2 9273   2.845   1.037   3.528
 2913SOL     OW 9274   2.571   1.062   2.233
 2913SOL    HW1 9275   2.557   1.045   2.326
 2913SOL    HW2 9276   2.647   1.008   2.210
 2914SOL     OW 9277   2.281   0.815   3.113
 2914SOL    HW1 9278   2.349   0.824   3.180
 2914SOL    HW2 9279   2.245   0.727   3.127
 2915SOL     OW 9280   3.129   0.379   3.134
 2915SOL    HW1 9281   3.162   0.456   3.181
 2915SOL    HW2 9282   3.039   0.401   3.112
 2916SOL     OW 9283   1.931   1.572   3.214
 2916SOL    HW1 9284   1.904   1.649   3.163
 2916SOL    HW2 9285   2.027   1.575   3.211
 2917SOL     OW 9286   2.210   1.109   2.353
 2917SOL    HW1 9287   2.216   1.182   2.291
 2917SOL    HW2 9288   2.208   1.031   2.297
 2918SOL     OW 9289   2.415   0.537   2.723
 2918SOL    HW1 9290   2.430   0.595   2.648
 2918SOL    HW2 9291   2.481   0.564   2.787
 2919SOL     OW 9292   3.110   1.348   2.251
 2919SOL    HW1 9293   3.166   1.420   2.282
 2919SOL    HW2 9294   3.023   1.370   2.285
 2920SOL     OW 9295   3.144   1.457   3.009
 2920SOL    HW1 9296   3.199   1.460   3.087
 2920SOL    HW2 9297   3.089   1.379   3.020
 2921SOL     OW 9298   3.444   0.622   2.341
 2921SOL    HW1 9299   3.397   0.677   2.404
 2921SOL    HW2 9300   3.489   0.685   2.284
 2922SOL     OW 9301   2.206   1.522   3.177
 2922SOL    HW1 9302   2.196   1.481   3.091
 2922SOL    HW2 9303   2.300   1.536   3.186
 2923SOL     OW 9304   2.276   0.745   3.464
 2923SOL    HW1 9305   2.338   0.789   3.406
 2923SOL    HW2 9306   2.317   0.660   3.482
 2924SOL     OW 9307   3.463   0.779   3.544
 2924SOL    HW1 9308   3.377   0.820   3.537
 2924SOL    HW2 9309   3.516   0.821   3.476
 2925SOL     OW 9310   2.907   0.116   3.646
 2925SOL    HW1 9311   2.932   0.196   3.599
 2925SOL    HW2 9312   2.912   0.047   3.581
 2926SOL     OW 9313   2.345   0.057   3.600
 2926SOL    HW1 9314   2.287   5.292   3.561
 2926SOL    HW2 9315   2.288   0.131   3.621
 2927SOL     OW 9316   2.446   0.872   2.894
 2927SOL    HW1 9317   2.475   0.963   2.892
 2927SOL    HW2 9318   2.389   0.867   2.970
 2928SOL     OW 9319   3.219   0.859   2.893
 2928SOL    HW1 9320   3.137   0.850   2.845
 2928SOL    HW2 9321   3.260   0.772   2.886
 2929SOL     OW 9322   3.068   0.528   2.129
 2929SOL    HW1 9323   3.072   0.448   2.180
 2929SOL    HW2 9324   3.025   0.591   2.187
 2930SOL     OW 9325   2.158   0.204   3.110
 2930SOL    HW1 9326   2.119   0.243   3.188
 2930SOL    HW2 9327   2.158   0.110   3.127
 2931SOL     OW 9328   1.907   1.310   3.138
 2931SOL    HW1 9329   1.941   1.257   3.210
 2931SOL    HW2 9330   1.915   1.400   3.170
 2932SOL     OW 9331   2.588   0.632   2.922
 2932SOL    HW1 9332   2.661   0.615   2.863
 2932SOL    HW2 9333   2.559   0.720   2.899
 2933SOL     OW 9334   3.596   0.960   3.714
 2933SOL    HW1 9335   3.551   0.898   3.657
 2933SOL    HW2 9336   3.537   0.972   3.788
 2934SOL     OW 9337   2.165   0.072   2.514
 2934SOL    HW1 9338   2.148   0.166   2.521
 2934SOL    HW2 9339   2.208   0.049   2.596
 2935SOL     OW 9340   3.474   0.375   2.227
 2935SOL    HW1 9341   3.507   0.311   2.290
 2935SOL    HW2 9342   3.454   0.452   2.279
 2936SOL     OW 9343   2.890   0.759   2.823
 2936SOL    HW1 9344   2.886   0.777   2.917
 2936SOL    HW2 9345   2.863   0.668   2.814
 2937SOL     OW 9346   2.846   1.573   3.567
 2937SOL    HW1 9347   2.862   1.616   3.483
 2937SOL    HW2 9348   2.885   1.486   3.557
 2938SOL     OW 9349   3.716   1.506   3.467
 2938SOL    HW1 9350   3.735   1.532   3.377
 2938SOL    HW2 9351   3.798   1.524   3.514
 2939SOL     OW 9352   2.216   0.917   3.670
 2939SOL    HW1 9353   2.298   0.934   3.717
 2939SOL    HW2 9354   2.239   0.854   3.602
 2940SOL     OW 9355   3.388   0.272   1.988
 2940SOL    HW1 9356   3.324   0.208   2.019
 2940SOL    HW2 9357   3.424   0.310   2.068
 2941SOL     OW 9358   3.154   0.826   1.893
 2941SOL    HW1 9359   3.196   0.741   1.897
 2941SOL    HW2 9360   3.185   0.865   1.812
 2942SOL     OW 9361   2.929   1.335   2.716
 2942SOL    HW1 9362   2.931   1.263   2.653
 2942SOL    HW2 9363   2.989   1.400   2.681
 2943SOL     OW 9364   2.171   0.809   2.810
 2943SOL    HW1 9365   2.264   0.830   2.802
 2943SOL    HW2 9366   2.169   0.719   2.841
 2944SOL     OW 9367   2.194   0.526   2.875
 2944SOL    HW1 9368   2.158   0.439   2.859
 2944SOL    HW2 9369   2.271   0.531   2.817
 2945SOL     OW 9370   2.997   0.378   3.550
 2945SOL    HW1 9371   2.950   0.432   3.613
 2945SOL    HW2 9372   3.085   0.417   3.546
 2946SOL     OW 9373   2.995   0.223   3.327
 2946SOL    HW1 9374   2.999   0.281   3.403
 2946SOL    HW2 9375   3.051   0.264   3.262
 2947SOL     OW 9376   1.867   1.321   2.057
 2947SOL    HW1 9377   1.780   1.335   2.019
 2947SOL    HW2 9378   1.864   1.232   2.091
 2948SOL     OW 9379   1.951   1.788   2.797
 2948SOL    HW1 9380   1.921   1.708   2.755
 2948SOL    HW2 9381   2.042   1.798   2.768
 2949SOL     OW 9382   2.358   1.573   2.766
 2949SOL    HW1 9383   2.427   1.635   2.790
 2949SOL    HW2 9384   2.402   1.509   2.710
 2950SOL     OW 9385   2.845   0.793   3.089
 2950SOL    HW1 9386   2.901   0.769   3.163
 2950SOL    HW2 9387   2.760   0.754   3.110
 2951SOL     OW 9388   1.897   0.544   2.979
 2951SOL    HW1 9389   1.977   0.530   2.928
 2951SOL    HW2 9390   1.927   0.548   3.070
 2952SOL     OW 9391   2.049   0.522   3.589
 2952SOL    HW1 9392   2.112   0.486   3.526
 2952SOL    HW2 9393   2.009   0.596   3.543
 2953SOL     OW 9394   3.239   0.939   3.520
 2953SOL    HW1 9395   3.261   1.032   3.518
 2953SOL    HW2 9396   3.236   0.913   3.429
 2954SOL     OW 9397   2.676   0.572   2.224
 2954SOL    HW1 9398   2.680   0.498   2.164
 2954SOL    HW2 9399   2.602   0.625   2.193
 2955SOL     OW 9400   3.504   0.601   3.048
 2955SOL    HW1 9401   3.493   0.542   3.122
 2955SOL    HW2 9402   3.591   0.581   3.014
 2956SOL     OW 9403   2.104   1.546   3.596
 2956SOL    HW1 9404   2.078   1.611   3.661
 2956SOL    HW2 9405   2.103   1.463   3.643
 2957SOL     OW 9406   2.561   0.452   3.122
 2957SOL    HW1 9407   2.510   0.378   3.089
 2957SOL    HW2 9408   2.560   0.516   3.051
 2958SOL     OW 9409   2.325   0.493   2.045
 2958SOL    HW1 9410   2.385   0.564   2.068
 2958SOL    HW2 9411   2.240   0.535   2.036
 2959SOL     OW 9412   2.008   1.140   3.335
 2959SOL    HW1 9413   2.010   1.089   3.415
 2959SOL    HW2 9414   2.025   1.077   3.265
 2960SOL     OW 9415   3.187   1.048   3.085
 2960SOL    HW1 9416   3.211   0.984   3.018
 2960SOL    HW2 9417   3.117   1.100   3.046
 2961SOL     OW 9418   3.173   0.857   2.168
 2961SOL    HW1 9419   3.097   0.825   2.218
 2961SOL    HW2 9420   3.149   0.843   2.077
 2962SOL     OW 9421   3.633   1.744   3.011
 2962SOL    HW1 9422   3.694   1.770   2.942
 2962SOL    HW2 9423   3.610   1.654   2.990
 2963SOL     OW 9424   3.103   1.732   2.973
 2963SOL    HW1 9425   3.186   1.754   2.930
 2963SOL    HW2 9426   3.110   1.639   2.993
 2964SOL     OW 9427   1.946   1.267   2.874
 2964SOL    HW1 9428   1.931   1.279   2.968
 2964SOL    HW2 9429   1.873   1.212   2.846
 2965SOL     OW 9430   2.531   1.661   3.600
 2965SOL    HW1 9431   2.452   1.697   3.560
 2965SOL    HW2 9432   2.600   1.677   3.535
 2966SOL     OW 9433   3.574   0.149   2.364
 2966SOL    HW1 9434   3.650   0.128   2.309
 2966SOL    HW2 9435   3.567   0.074   2.424
 2967SOL     OW 9436   3.253   1.568   2.347
 2967SOL    HW1 9437   3.313   1.600   2.280
 2967SOL    HW2 9438   3.204   1.645   2.375
 2968SOL     OW 9439   1.997   1.798   3.706
 2968SOL    HW1 9440   1.945   1.731   3.751
 2968SOL    HW2 9441   2.048   1.839   3.775
 2969SOL     OW 9442   3.139   0.926   2.533
 2969SOL    HW1 9443   3.213   0.865   2.540
 2969SOL    HW2 9444   3.173   0.998   2.481
 2970SOL     OW 9445   2.677   1.273   3.292
 2970SOL    HW1 9446   2.647   1.311   3.374
 2970SOL    HW2 9447   2.610   1.295   3.228
 2971SOL     OW 9448   2.534   1.618   2.018
 2971SOL    HW1 9449   2.543   1.633   1.924
 2971SOL    HW2 9450   2.478   1.541   2.025
 2972SOL     OW 9451   3.488   1.725   3.253
 2972SOL    HW1 9452   3.539   1.732   3.172
 2972SOL    HW2 9453   3.473   1.816   3.279
 2973SOL     OW 9454   3.707   0.157   2.819
 2973SOL    HW1 9455   3.707   0.062   2.807
 2973SOL    HW2 9456   3.621   0.185   2.790
 2974SOL     OW 9457   2.124   0.329   2.581
 2974SOL    HW1 9458   2.036   0.360   2.559
 2974SOL    HW2 9459   2.122   0.317   2.676
 2975SOL     OW 9460   3.069   1.606   1.893
 2975SOL    HW1 9461   3.059   1.515   1.920
 2975SOL    HW2 9462   3.004   1.618   1.824
 2976SOL     OW 9463   2.686   1.005   3.234
 2976SOL    HW1 9464   2.730   1.000   3.149
 2976SOL    HW2 9465   2.686   1.099   3.255
 2977SOL     OW 9466   2.778   0.911   2.152
 2977SOL    HW1 9467   2.839   0.942   2.086
 2977SOL    HW2 9468   2.826   0.841   2.197
 2978SOL     OW 9469   3.354   1.625   1.905
 2978SOL    HW1 9470   3.259   1.619   1.891
 2978SOL    HW2 9471   3.391   1.631   1.816
 2979SOL     OW 9472   2.231   1.302   3.354
 2979SOL    HW1 9473   2.217   1.379   3.299
 2979SOL    HW2 9474   2.155   1.247   3.339
 2980SOL     OW 9475   3.471   1.283   3.142
 2980SOL    HW1 9476   3.533   1.273   3.215
 2980SOL    HW2 9477   3.412   1.352   3.171
 2981SOL     OW 9478   2.914   1.107   2.569
 2981SOL    HW1 9479   2.843   1.056   2.607
 2981SOL    HW2 9480   2.976   1.042   2.537
 2982SOL     OW 9481   2.881   0.243   2.830
 2982SOL    HW1 9482   2.861   0.197   2.749
 2982SOL    HW2 9483   2.874   0.176   2.898
 2983SOL     OW 9484   2.465   1.488   2.343
 2983SOL    HW1 9485   2.510   1.438   2.275
 2983SOL    HW2 9486   2.397   1.537   2.296
 2984SOL     OW 9487   3.586   0.387   3.240
 2984SOL    HW1 9488   3.656   0.452   3.240
 2984SOL    HW2 9489   3.618   0.317   3.182
 2985SOL     OW 9490   2.121   1.345   2.150
 2985SOL    HW1 9491   2.028   1.343   2.128
 2985SOL    HW2 9492   2.124   1.382   2.238
 2986SOL     OW 9493   1.975   1.023   3.582
 2986SOL    HW1 9494   1.898   0.999   3.634
 2986SOL    HW2 9495   2.049   0.984   3.629
 2987SOL     OW 9496   2.534   0.211   3.350
 2987SOL    HW1 9497   2.617   0.194   3.306
 2987SOL    HW2 9498   2.558   0.261   3.429
 2988SOL     OW 9499   1.939   0.339   1.903
 2988SOL    HW1 9500   1.856   0.306   1.870
 2988SOL    HW2 9501   1.960   0.412   1.845
 2989SOL     OW 9502   3.292   0.859   3.263
 2989SOL    HW1 9503   3.243   0.919   3.207
 2989SOL    HW2 9504   3.381   0.861   3.228
 2990SOL     OW 9505   1.934   0.167   2.177
 2990SOL    HW1 9506   1.935   0.250   2.129
 2990SOL    HW2 9507   2.018   0.126   2.157
 2991SOL     OW 9508   3.041   1.339   1.979
 2991SOL    HW1 9509   2.950   1.308   1.982
 2991SOL    HW2 9510   3.069   1.340   2.070
 2992SOL     OW 9511   2.481   0.830   3.296
 2992SOL    HW1 9512   2.537   0.907   3.280
 2992SOL    HW2 9513   2.542   0.757   3.304
 2993SOL     OW 9514   3.347   1.780   2.844
 2993SOL    HW1 9515   3.372   1.835   2.769
 2993SOL    HW2 9516   3.431   1.756   2.884
 2994SOL     OW 9517   2.578   0.572   3.565
 2994SOL    HW1 9518   2.619   0.635   3.624
 2994SOL    HW2 9519   2.608   0.487   3.595
 2995SOL     OW 9520   3.334   1.201   3.494
 2995SOL    HW1 9521   3.323   1.213   3.588
 2995SOL    HW2 9522   3.427   1.215   3.479
 2996SOL     OW 9523   2.257   1.710   3.436
 2996SOL    HW1 9524   2.181   1.765   3.417
 2996SOL    HW2 9525   2.221   1.634   3.481
 2997SOL     OW 9526   3.531   0.881   3.117
 2997SOL    HW1 9527   3.525   0.796   3.074
 2997SOL    HW2 9528   3.522   0.944   3.046
 2998SOL     OW 9529   3.082   0.319   2.328
 2998SOL    HW1 9530   3.145   0.247   2.320
 2998SOL    HW2 9531   3.113   0.371   2.402
 2999SOL     OW 9532   2.451   0.738   2.532
 2999SOL    HW1 9533   2.491   0.824   2.516
 2999SOL    HW2 9534   2.384   0.730   2.465
 3000SOL     OW 9535   3.628   0.362   3.511
 3000SOL    HW1 9536   3.609   0.376   3.418
 3000SOL    HW2 9537   3.557   0.306   3.542
 3001SOL     OW 9538   3.606   0.934   3.374
 3001SOL    HW1 9539   3.605   1.029   3.387
 3001SOL    HW2 9540   3.591   0.922   3.280
 3002SOL     OW 9541   2.723   1.367   1.896
 3002SOL    HW1 9542   2.685   1.396   1.979
 3002SOL    HW2 9543   2.742   1.449   1.849
 3003SOL     OW 9544   2.524   1.788   2.806
 3003SOL    HW1 9545   2.508   1.880   2.785
 3003SOL    HW2 9546   2.619   1.779   2.801
 3004SOL     OW 9547   2.729   0.967   2.717
 3004SOL    HW1 9548   2.779   0.895   2.756
 3004SOL    HW2 9549   2.695   1.016   2.792
 3005SOL     OW 9550   2.941   0.988   1.950
 3005SOL    HW1 9551   2.919   1.039   1.872
 3005SOL    HW2 9552   3.016   0.935   1.925
 3006SOL     OW 9553   3.716   1.554   2.706
 3006SOL    HW1 9554   3.638   1.542   2.652
 3006SOL    HW2 9555   3.708   1.487   2.774
 3007SOL     OW 9556   2.087   1.299   3.719
 3007SOL    HW1 9557   2.020   1.239   3.687
 3007SOL    HW2 9558   2.064   1.313   3.811
 3008SOL     OW 9559   1.946   1.234   2.527
 3008SOL    HW1 9560   1.951   1.185   2.609
 3008SOL    HW2 9561   2.014   1.195   2.472
 3009SOL     OW 9562   2.543   1.403   3.489
 3009SOL    HW1 9563   2.464   1.356   3.515
 3009SOL    HW2 9564   2.537   1.486   3.535
 3010SOL     OW 9565   3.676   0.177   3.094
 3010SOL    HW1 9566   3.642   0.088   3.100
 3010SOL    HW2 9567   3.694   0.190   3.001
 3011SOL     OW 9568   2.292   0.436   2.386
 3011SOL    HW1 9569   2.324   0.363   2.333
 3011SOL    HW2 9570   2.245   0.393   2.458
 3012SOL     OW 9571   3.562   1.489   2.958
 3012SOL    HW1 9572   3.481   1.465   2.913
 3012SOL    HW2 9573   3.574   1.420   3.023
 3013SOL     OW 9574   2.191   0.556   3.152
 3013SOL    HW1 9575   2.247   0.501   3.207
 3013SOL    HW2 9576   2.211   0.529   3.063
 3014SOL     OW 9577   2.690   1.577   2.538
 3014SOL    HW1 9578   2.677   1.632   2.461
 3014SOL    HW2 9579   2.612   1.520   2.540
 3015SOL     OW 9580   3.290   0.218   2.978
 3015SOL    HW1 9581   3.327   0.144   3.026
 3015SOL    HW2 9582   3.241   0.268   3.045
 3016SOL     OW 9583   2.865   0.021   3.002
 3016SOL    HW1 9584   2.814   5.252   2.960
 3016SOL    HW2 9585   2.951   5.283   3.016
 3017SOL     OW 9586   2.634   1.333   2.177
 3017SOL    HW1 9587   2.603   1.242   2.183
 3017SOL    HW2 9588   2.716   1.333   2.226
 3018SOL     OW 9589   2.479   1.559   3.149
 3018SOL    HW1 9590   2.482   1.646   3.189
 3018SOL    HW2 9591   2.566   1.546   3.112
 3019SOL     OW 9592   3.218   0.039   2.024
 3019SOL    HW1 9593   3.250   5.296   1.945
 3019SOL    HW2 9594   3.138   5.291   2.046
 3020SOL     OW 9595   3.163   0.464   2.547
 3020SOL    HW1 9596   3.108   0.542   2.552
 3020SOL    HW2 9597   3.156   0.424   2.633
 3021SOL     OW 9598   3.456   0.215   2.744
 3021SOL    HW1 9599   3.390   0.227   2.812
 3021SOL    HW2 9600   3.449   0.294   2.690
 3022SOL     OW 9601   1.906   1.071   2.168
 3022SOL    HW1 9602   1.999   1.063   2.150
 3022SOL    HW2 9603   1.877   0.982   2.191
 3023SOL     OW 9604   2.746   1.652   2.204
 3023SOL    HW1 9605   2.674   1.635   2.143
 3023SOL    HW2 9606   2.717   1.727   2.256
 3024SOL     OW 9607   2.090   0.626   3.847
 3024SOL    HW1 9608   2.001   0.622   3.883
 3024SOL    HW2 9609   2.080   0.599   3.756
 3025SOL     OW 9610   2.080   0.284   4.717
 3025SOL    HW1 9611   2.109   0.249   4.801
 3025SOL    HW2 9612   1.995   0.243   4.701
 3026SOL     OW 9613   1.866   0.386   4.362
 3026SOL    HW1 9614   1.782   0.407   4.402
 3026SOL    HW2 9615   1.848   0.309   4.309
 3027SOL     OW 9616   2.428   1.287   4.898
 3027SOL    HW1 9617   2.340   1.292   4.862
 3027SOL    HW2 9618   2.445   1.375   4.933
 3028SOL     OW 9619   3.422   1.513   4.431
 3028SOL    HW1 9620   3.381   1.491   4.515
 3028SOL    HW2 9621   3.349   1.516   4.369
 3029SOL     OW 9622   2.993   0.698   4.425
 3029SOL    HW1 9623   3.041   0.779   4.411
 3029SOL    HW2 9624   2.946   0.712   4.507
 3030SOL     OW 9625   3.628   0.606   3.953
 3030SOL    HW1 9626   3.608   0.598   3.859
 3030SOL    HW2 9627   3.594   0.526   3.991
 3031SOL     OW 9628   2.616   1.141   4.765
 3031SOL    HW1 9629   2.548   1.175   4.822
 3031SOL    HW2 9630   2.652   1.218   4.721
 3032SOL     OW 9631   2.728   0.777   5.546
 3032SOL    HW1 9632   2.716   0.848   5.609
 3032SOL    HW2 9633   2.752   0.820   5.465
 3033SOL     OW 9634   2.549   1.004   4.370
 3033SOL    HW1 9635   2.613   0.991   4.440
 3033SOL    HW2 9636   2.478   1.054   4.412
 3034SOL     OW 9637   2.572   1.151   5.536
 3034SOL    HW1 9638   2.620   1.229   5.563
 3034SOL    HW2 9639   2.490   1.184   5.501
 3035SOL     OW 9640   2.195   1.427   4.789
 3035SOL    HW1 9641   2.120   1.389   4.743
 3035SOL    HW2 9642   2.240   1.479   4.722
 3036SOL     OW 9643   3.323   1.500   5.078
 3036SOL    HW1 9644   3.373   1.580   5.089
 3036SOL    HW2 9645   3.260   1.502   5.150
 3037SOL     OW 9646   2.306   0.398   5.209
 3037SOL    HW1 9647   2.381   0.338   5.208
 3037SOL    HW2 9648   2.231   0.341   5.225
 3038SOL     OW 9649   3.472   0.451   4.462
 3038SOL    HW1 9650   3.397   0.475   4.408
 3038SOL    HW2 9651   3.490   0.530   4.514
 3039SOL     OW 9652   2.085   1.717   4.206
 3039SOL    HW1 9653   2.112   1.785   4.268
 3039SOL    HW2 9654   2.154   1.717   4.140
 3040SOL     OW 9655   2.998   1.341   5.416
 3040SOL    HW1 9656   3.039   1.337   5.503
 3040SOL    HW2 9657   2.946   1.262   5.410
 3041SOL     OW 9658   2.093   1.443   4.261
 3041SOL    HW1 9659   2.073   1.536   4.266
 3041SOL    HW2 9660   2.033   1.401   4.322
 3042SOL     OW 9661   2.120   1.090   4.615
 3042SOL    HW1 9662   2.117   1.003   4.656
 3042SOL    HW2 9663   2.062   1.144   4.669
 3043SOL     OW 9664   2.478   1.784   5.161
 3043SOL    HW1 9665   2.393   1.773   5.204
 3043SOL    HW2 9666   2.498   1.877   5.171
 3044SOL     OW 9667   2.447   0.981   3.858
 3044SOL    HW1 9668   2.493   1.030   3.790
 3044SOL    HW2 9669   2.487   1.012   3.940
 3045SOL     OW 9670   3.448   0.135   5.180
 3045SOL    HW1 9671   3.470   0.220   5.141
 3045SOL    HW2 9672   3.446   0.152   5.274
 3046SOL     OW 9673   1.977   0.654   4.283
 3046SOL    HW1 9674   1.949   0.564   4.305
 3046SOL    HW2 9675   1.969   0.701   4.366
 3047SOL     OW 9676   3.704   1.759   4.062
 3047SOL    HW1 9677   3.771   1.731   4.124
 3047SOL    HW2 9678   3.727   1.850   4.041
 3048SOL     OW 9679   1.896   1.593   3.846
 3048SOL    HW1 9680   1.876   1.502   3.867
 3048SOL    HW2 9681   1.871   1.642   3.925
 3049SOL     OW 9682   3.552   0.919   4.365
 3049SOL    HW1 9683   3.635   0.876   4.345
 3049SOL    HW2 9684   3.530   0.968   4.286
 3050SOL     OW 9685   3.508   1.107   4.153
 3050SOL    HW1 9686   3.594   1.112   4.111
 3050SOL    HW2 9687   3.514   1.168   4.226
 3051SOL     OW 9688   1.985   0.744   5.308
 3051SOL    HW1 9689   2.077   0.769   5.317
 3051SOL    HW2 9690   1.936   0.826   5.317
 3052SOL     OW 9691   2.473   1.385   4.457
 3052SOL    HW1 9692   2.428   1.301   4.467
 3052SOL    HW2 9693   2.457   1.411   4.366
 3053SOL     OW 9694   3.152   1.238   5.147
 3053SOL    HW1 9695   3.184   1.170   5.088
 3053SOL    HW2 9696   3.209   1.231   5.224
 3054SOL     OW 9697   2.673   0.027   4.252
 3054SOL    HW1 9698   2.701   0.115   4.227
 3054SOL    HW2 9699   2.577   0.030   4.246
 3055SOL     OW 9700   2.052   0.966   4.995
 3055SOL    HW1 9701   2.137   0.924   4.980
 3055SOL    HW2 9702   1.990   0.912   4.948
 3056SOL     OW 9703   3.393   0.994   3.922
 3056SOL    HW1 9704   3.323   0.937   3.954
 3056SOL    HW2 9705   3.435   1.028   4.002
 3057SOL     OW 9706   3.050   1.807   5.347
 3057SOL    HW1 9707   3.056   1.864   5.270
 3057SOL    HW2 9708   3.064   1.719   5.312
 3058SOL     OW 9709   2.189   0.266   5.535
 3058SOL    HW1 9710   2.241   0.342   5.564
 3058SOL    HW2 9711   2.103   0.280   5.574
 3059SOL     OW 9712   3.327   1.420   4.674
 3059SOL    HW1 9713   3.261   1.433   4.742
 3059SOL    HW2 9714   3.316   1.328   4.648
 3060SOL     OW 9715   3.516   1.743   4.303
 3060SOL    HW1 9716   3.505   1.711   4.214
 3060SOL    HW2 9717   3.495   1.667   4.358
 3061SOL     OW 9718   2.457   0.721   3.990
 3061SOL    HW1 9719   2.461   0.802   3.940
 3061SOL    HW2 9720   2.391   0.739   4.058
 3062SOL     OW 9721   3.140   0.347   4.655
 3062SOL    HW1 9722   3.049   0.319   4.667
 3062SOL    HW2 9723   3.190   0.297   4.719
 3063SOL     OW 9724   3.445   1.667   4.031
 3063SOL    HW1 9725   3.535   1.699   4.026
 3063SOL    HW2 9726   3.420   1.651   3.941
 3064SOL     OW 9727   2.657   0.618   5.174
 3064SOL    HW1 9728   2.629   0.597   5.263
 3064SOL    HW2 9729   2.614   0.552   5.119
 3065SOL     OW 9730   3.257   0.475   5.402
 3065SOL    HW1 9731   3.259   0.520   5.487
 3065SOL    HW2 9732   3.320   0.404   5.411
 3066SOL     OW 9733   2.817   0.888   5.306
 3066SOL    HW1 9734   2.871   0.817   5.271
 3066SOL    HW2 9735   2.769   0.922   5.231
 3067SOL     OW 9736   2.856   0.417   4.959
 3067SOL    HW1 9737   2.771   0.438   4.998
 3067SOL    HW2 9738   2.834   0.368   4.880
 3068SOL     OW 9739   2.913   0.698   4.150
 3068SOL    HW1 9740   2.928   0.691   4.245
 3068SOL    HW2 9741   2.830   0.652   4.136
 3069SOL     OW 9742   1.950   0.821   4.501
 3069SOL    HW1 9743   2.031   0.814   4.551
 3069SOL    HW2 9744   1.907   0.899   4.535
 3070SOL     OW 9745   1.987   1.849   5.302
 3070SOL    HW1 9746   1.988   1.828   5.395
 3070SOL    HW2 9747   1.896   1.838   5.276
 3071SOL     OW 9748   2.736   0.364   3.913
 3071SOL    HW1 9749   2.777   0.423   3.851
 3071SOL    HW2 9750   2.789   0.285   3.910
 3072SOL     OW 9751   3.570   0.574   5.552
 3072SOL    HW1 9752   3.532   0.648   5.504
 3072SOL    HW2 9753   3.599   0.514   5.484
 3073SOL     OW 9754   3.240   1.142   4.266
 3073SOL    HW1 9755   3.318   1.128   4.213
 3073SOL    HW2 9756   3.187   1.203   4.214
 3074SOL     OW 9757   2.389   0.202   4.606
 3074SOL    HW1 9758   2.410   0.217   4.698
 3074SOL    HW2 9759   2.410   0.284   4.563
 3075SOL     OW 9760   2.869   1.448   4.196
 3075SOL    HW1 9761   2.827   1.521   4.151
 3075SOL    HW2 9762   2.850   1.462   4.289
 3076SOL     OW 9763   2.202   1.790   4.588
 3076SOL    HW1 9764   2.257   1.711   4.593
 3076SOL    HW2 9765   2.261   1.862   4.610
 3077SOL     OW 9766   3.661   1.057   4.592
 3077SOL    HW1 9767   3.607   1.038   4.516
 3077SOL    HW2 9768   3.599   1.063   4.665
 3078SOL     OW 9769   3.091   1.538   5.237
 3078SOL    HW1 9770   3.076   1.465   5.297
 3078SOL    HW2 9771   3.024   1.528   5.169
 3079SOL     OW 9772   2.182   0.957   3.974
 3079SOL    HW1 9773   2.264   0.976   3.928
 3079SOL    HW2 9774   2.151   0.875   3.936
 3080SOL     OW 9775   3.340   0.744   4.451
 3080SOL    HW1 9776   3.332   0.700   4.536
 3080SOL    HW2 9777   3.418   0.798   4.460
 3081SOL     OW 9778   2.328   1.264   5.462
 3081SOL    HW1 9779   2.301   1.269   5.370
 3081SOL    HW2 9780   2.246   1.263   5.511
 3082SOL     OW 9781   2.979   1.766   3.960
 3082SOL    HW1 9782   2.902   1.726   3.999
 3082SOL    HW2 9783   3.002   1.709   3.886
 3083SOL     OW 9784   2.059   0.278   5.227
 3083SOL    HW1 9785   1.980   0.332   5.223
 3083SOL    HW2 9786   2.051   0.229   5.309
 3084SOL     OW 9787   3.490   1.380   3.813
 3084SOL    HW1 9788   3.449   1.465   3.796
 3084SOL    HW2 9789   3.422   1.316   3.793
 3085SOL     OW 9790   2.338   1.754   4.057
 3085SOL    HW1 9791   2.389   1.807   4.119
 3085SOL    HW2 9792   2.404   1.716   3.999
 3086SOL     OW 9793   3.269   0.100   4.155
 3086SOL    HW1 9794   3.261   0.082   4.062
 3086SOL    HW2 9795   3.361   0.122   4.168
 3087SOL     OW 9796   2.106   1.785   4.959
 3087SOL    HW1 9797   2.166   1.724   5.001
 3087SOL    HW2 9798   2.104   1.758   4.867
 3088SOL     OW 9799   2.791   1.680   4.641
 3088SOL    HW1 9800   2.877   1.637   4.643
 3088SOL    HW2 9801   2.752   1.650   4.559
 3089SOL     OW 9802   2.254   0.696   4.200
 3089SOL    HW1 9803   2.276   0.604   4.210
 3089SOL    HW2 9804   2.161   0.702   4.218
 3090SOL     OW 9805   3.401   0.228   5.447
 3090SOL    HW1 9806   3.408   0.245   5.541
 3090SOL    HW2 9807   3.325   0.170   5.440
 3091SOL     OW 9808   2.486   0.132   3.831
 3091SOL    HW1 9809   2.550   0.065   3.856
 3091SOL    HW2 9810   2.435   0.092   3.761
 3092SOL     OW 9811   2.643   0.312   5.491
 3092SOL    HW1 9812   2.701   0.236   5.492
 3092SOL    HW2 9813   2.595   0.307   5.574
 3093SOL     OW 9814   2.732   1.512   4.924
 3093SOL    HW1 9815   2.727   1.490   4.831
 3093SOL    HW2 9816   2.808   1.464   4.956
 3094SOL     OW 9817   3.203   0.589   5.156
 3094SOL    HW1 9818   3.233   0.558   5.241
 3094SOL    HW2 9819   3.239   0.677   5.149
 3095SOL     OW 9820   2.672   1.391   4.660
 3095SOL    HW1 9821   2.758   1.384   4.619
 3095SOL    HW2 9822   2.611   1.389   4.587
 3096SOL     OW 9823   2.790   0.510   4.627
 3096SOL    HW1 9824   2.766   0.502   4.535
 3096SOL    HW2 9825   2.821   0.423   4.652
 3097SOL     OW 9826   2.404   0.063   4.232
 3097SOL    HW1 9827   2.319   0.061   4.275
 3097SOL    HW2 9828   2.397   0.132   4.167
 3098SOL     OW 9829   3.290   1.198   3.765
 3098SOL    HW1 9830   3.322   1.122   3.814
 3098SOL    HW2 9831   3.204   1.217   3.803
 3099SOL     OW 9832   2.163   0.063   3.915
 3099SOL    HW1 9833   2.222   0.132   3.885
 3099SOL    HW2 9834   2.219   5.286   3.924
 3100SOL     OW 9835   2.801   0.262   4.186
 3100SOL    HW1 9836   2.773   0.299   4.102
 3100SOL    HW2 9837   2.896   0.273   4.187
 3101SOL     OW 9838   2.943   0.681   5.183
 3101SOL    HW1 9839   2.874   0.615   5.189
 3101SOL    HW2 9840   3.024   0.631   5.177
 3102SOL     OW 9841   3.086   1.564   4.523
 3102SOL    HW1 9842   3.100   1.644   4.471
 3102SOL    HW2 9843   3.150   1.570   4.594
 3103SOL     OW 9844   2.330   1.150   4.457
 3103SOL    HW1 9845   2.262   1.130   4.520
 3103SOL    HW2 9846   2.290   1.133   4.372
 3104SOL     OW 9847   2.888   0.546   3.746
 3104SOL    HW1 9848   2.845   0.630   3.728
 3104SOL    HW2 9849   2.951   0.566   3.815
 3105SOL     OW 9850   1.941   0.553   5.117
 3105SOL    HW1 9851   2.032   0.553   5.089
 3105SOL    HW2 9852   1.935   0.624   5.181
 3106SOL     OW 9853   2.417   0.238   4.882
 3106SOL    HW1 9854   2.449   0.152   4.911
 3106SOL    HW2 9855   2.325   0.239   4.908
 3107SOL     OW 9856   2.729   0.463   4.365
 3107SOL    HW1 9857   2.683   0.516   4.300
 3107SOL    HW2 9858   2.752   0.382   4.318
 3108SOL     OW 9859   2.840   0.061   4.486
 3108SOL    HW1 9860   2.775   0.055   4.417
 3108SOL    HW2 9861   2.850   5.271   4.517
 3109SOL     OW 9862   3.299   1.163   4.581
 3109SOL    HW1 9863   3.230   1.096   4.581
 3109SOL    HW2 9864   3.322   1.172   4.488
 3110SOL     OW 9865   3.328   0.606   4.701
 3110SOL    HW1 9866   3.279   0.524   4.705
 3110SOL    HW2 9867   3.389   0.601   4.775
 3111SOL     OW 9868   3.707   0.816   4.107
 3111SOL    HW1 9869   3.763   0.765   4.165
 3111SOL    HW2 9870   3.679   0.754   4.040
 3112SOL     OW 9871   2.351   1.418   3.881
 3112SOL    HW1 9872   2.276   1.389   3.933
 3112SOL    HW2 9873   2.337   1.378   3.795
 3113SOL     OW 9874   3.532   1.265   4.369
 3113SOL    HW1 9875   3.627   1.267   4.383
 3113SOL    HW2 9876   3.503   1.353   4.392
 3114SOL     OW 9877   3.256   0.572   3.796
 3114SOL    HW1 9878   3.195   0.552   3.866
 3114SOL    HW2 9879   3.340   0.541   3.827
 3115SOL     OW 9880   2.386   0.265   4.045
 3115SOL    HW1 9881   2.431   0.216   3.976
 3115SOL    HW2 9882   2.365   0.349   4.005
 3116SOL     OW 9883   3.614   1.239   5.297
 3116SOL    HW1 9884   3.702   1.200   5.293
 3116SOL    HW2 9885   3.630   1.329   5.326
 3117SOL     OW 9886   2.922   1.351   5.056
 3117SOL    HW1 9887   2.847   1.322   5.108
 3117SOL    HW2 9888   2.998   1.311   5.099
 3118SOL     OW 9889   3.470   1.626   5.378
 3118SOL    HW1 9890   3.464   1.659   5.289
 3118SOL    HW2 9891   3.553   1.578   5.380
 3119SOL     OW 9892   2.990   1.202   4.829
 3119SOL    HW1 9893   2.933   1.241   4.895
 3119SOL    HW2 9894   2.956   1.235   4.746
 3120SOL     OW 9895   3.490   1.098   4.801
 3120SOL    HW1 9896   3.486   1.160   4.874
 3120SOL    HW2 9897   3.411   1.115   4.751
 3121SOL     OW 9898   2.766   0.106   5.113
 3121SOL    HW1 9899   2.797   0.072   5.029
 3121SOL    HW2 9900   2.843   0.149   5.151
 3122SOL     OW 9901   2.846   1.115   5.447
 3122SOL    HW1 9902   2.754   1.131   5.468
 3122SOL    HW2 9903   2.845   1.037   5.391
 3123SOL     OW 9904   2.571   1.063   4.095
 3123SOL    HW1 9905   2.557   1.045   4.188
 3123SOL    HW2 9906   2.647   1.008   4.072
 3124SOL     OW 9907   2.281   0.815   4.975
 3124SOL    HW1 9908   2.349   0.824   5.042
 3124SOL    HW2 9909   2.245   0.727   4.989
 3125SOL     OW 9910   3.129   0.379   4.996
 3125SOL    HW1 9911   3.162   0.456   5.043
 3125SOL    HW2 9912   3.039   0.401   4.974
 3126SOL     OW 9913   1.931   1.573   5.076
 3126SOL    HW1 9914   1.901   1.647   5.023
 3126SOL    HW2 9915   2.027   1.578   5.073
 3127SOL     OW 9916   2.211   1.110   4.214
 3127SOL    HW1 9917   2.213   1.182   4.151
 3127SOL    HW2 9918   2.209   1.031   4.160
 3128SOL     OW 9919   2.416   0.537   4.584
 3128SOL    HW1 9920   2.431   0.595   4.510
 3128SOL    HW2 9921   2.481   0.564   4.649
 3129SOL     OW 9922   3.111   1.350   4.114
 3129SOL    HW1 9923   3.166   1.422   4.145
 3129SOL    HW2 9924   3.024   1.370   4.148
 3130SOL     OW 9925   3.144   1.457   4.870
 3130SOL    HW1 9926   3.199   1.461   4.949
 3130SOL    HW2 9927   3.086   1.382   4.886
 3131SOL     OW 9928   3.444   0.623   4.203
 3131SOL    HW1 9929   3.397   0.677   4.266
 3131SOL    HW2 9930   3.489   0.685   4.146
 3132SOL     OW 9931   2.209   1.524   5.039
 3132SOL    HW1 9932   2.197   1.482   4.954
 3132SOL    HW2 9933   2.303   1.539   5.046
 3133SOL     OW 9934   2.276   0.744   5.326
 3133SOL    HW1 9935   2.338   0.790   5.268
 3133SOL    HW2 9936   2.318   0.660   5.344
 3134SOL     OW 9937   3.463   0.778   5.406
 3134SOL    HW1 9938   3.377   0.820   5.399
 3134SOL    HW2 9939   3.516   0.821   5.337
 3135SOL     OW 9940   2.907   0.116   5.509
 3135SOL    HW1 9941   2.932   0.196   5.462
 3135SOL    HW2 9942   2.912   0.047   5.443
 3136SOL     OW 9943   2.345   0.057   5.462
 3136SOL    HW1 9944   2.286   5.292   5.422
 3136SOL    HW2 9945   2.288   0.131   5.484
 3137SOL     OW 9946   2.445   0.873   4.755
 3137SOL    HW1 9947   2.476   0.963   4.755
 3137SOL    HW2 9948   2.389   0.867   4.832
 3138SOL     OW 9949   3.220   0.859   4.753
 3138SOL    HW1 9950   3.136   0.849   4.708
 3138SOL    HW2 9951   3.260   0.773   4.748
 3139SOL     OW 9952   3.067   0.529   3.991
 3139SOL    HW1 9953   3.072   0.448   4.042
 3139SOL    HW2 9954   3.024   0.591   4.050
 3140SOL     OW 9955   2.158   0.204   4.972
 3140SOL    HW1 9956   2.119   0.243   5.049
 3140SOL    HW2 9957   2.158   0.110   4.989
 3141SOL     OW 9958   1.908   1.311   5.000
 3141SOL    HW1 9959   1.941   1.257   5.072
 3141SOL    HW2 9960   1.915   1.401   5.033
 3142SOL     OW 9961   2.587   0.632   4.783
 3142SOL    HW1 9962   2.661   0.615   4.725
 3142SOL    HW2 9963   2.558   0.720   4.761
 3143SOL     OW 9964   3.596   0.959   5.576
 3143SOL    HW1 9965   3.550   0.898   5.520
 3143SOL    HW2 9966   3.537   0.973   5.650
 3144SOL     OW 9967   2.165   0.072   4.376
 3144SOL    HW1 9968   2.148   0.166   4.383
 3144SOL    HW2 9969   2.208   0.049   4.458
 3145SOL     OW 9970   3.474   0.375   4.089
 3145SOL    HW1 9971   3.507   0.311   4.152
 3145SOL    HW2 9972   3.454   0.452   4.141
 3146SOL     OW 9973   2.890   0.759   4.685
 3146SOL    HW1 9974   2.886   0.777   4.779
 3146SOL    HW2 9975   2.863   0.668   4.676
 3147SOL     OW 9976   2.845   1.567   5.440
 3147SOL    HW1 9977   2.828   1.611   5.357
 3147SOL    HW2 9978   2.887   1.485   5.416
 3148SOL     OW 9979   3.717   1.506   5.329
 3148SOL    HW1 9980   3.735   1.532   5.239
 3148SOL    HW2 9981   3.798   1.524   5.377
 3149SOL     OW 9982   2.215   0.916   5.533
 3149SOL    HW1 9983   2.297   0.935   5.578
 3149SOL    HW2 9984   2.240   0.853   5.464
 3150SOL     OW 9985   3.388   0.272   3.850
 3150SOL    HW1 9986   3.324   0.208   3.881
 3150SOL    HW2 9987   3.424   0.310   3.930
 3151SOL     OW 9988   3.153   0.826   3.755
 3151SOL    HW1 9989   3.196   0.741   3.759
 3151SOL    HW2 9990   3.185   0.865   3.674
 3152SOL     OW 9991   2.925   1.335   4.577
 3152SOL    HW1 9992   2.930   1.262   4.516
 3152SOL    HW2 9993   2.989   1.399   4.544
 3153SOL     OW 9994   2.171   0.809   4.671
 3153SOL    HW1 9995   2.264   0.830   4.665
 3153SOL    HW2 9996   2.169   0.719   4.703
 3154SOL     OW 9997   2.194   0.526   4.737
 3154SOL    HW1 9998   2.158   0.439   4.721
 3154SOL    HW2 9999   2.271   0.530   4.679
 3155SOL     OW10000   2.997   0.378   5.412
 3155SOL    HW110001   2.949   0.432   5.475
 3155SOL    HW210002   3.084   0.417   5.408
 3156SOL     OW10003   2.995   0.222   5.190
 3156SOL    HW110004   2.999   0.281   5.265
 3156SOL    HW210005   3.051   0.264   5.124
 3157SOL     OW10006   1.868   1.320   3.918
 3157SOL    HW110007   1.781   1.335   3.881
 3157SOL    HW210008   1.865   1.231   3.953
 3158SOL     OW10009   1.944   1.788   4.660
 3158SOL    HW110010   1.913   1.708   4.618
 3158SOL    HW210011   2.034   1.797   4.630
 3159SOL     OW10012   2.375   1.580   4.626
 3159SOL    HW110013   2.454   1.603   4.675
 3159SOL    HW210014   2.402   1.510   4.567
 3160SOL     OW10015   2.845   0.792   4.950
 3160SOL    HW110016   2.901   0.769   5.024
 3160SOL    HW210017   2.760   0.756   4.973
 3161SOL     OW10018   1.897   0.544   4.841
 3161SOL    HW110019   1.977   0.530   4.790
 3161SOL    HW210020   1.927   0.548   4.932
 3162SOL     OW10021   2.049   0.522   5.451
 3162SOL    HW110022   2.112   0.487   5.388
 3162SOL    HW210023   2.009   0.596   5.405
 3163SOL     OW10024   3.239   0.939   5.383
 3163SOL    HW110025   3.260   1.032   5.381
 3163SOL    HW210026   3.236   0.913   5.290
 3164SOL     OW10027   2.676   0.573   4.086
 3164SOL    HW110028   2.680   0.498   4.026
 3164SOL    HW210029   2.602   0.625   4.055
 3165SOL     OW10030   3.504   0.602   4.910
 3165SOL    HW110031   3.493   0.542   4.984
 3165SOL    HW210032   3.591   0.581   4.876
 3166SOL     OW10033   2.104   1.551   5.451
 3166SOL    HW110034   2.083   1.616   5.518
 3166SOL    HW210035   2.107   1.468   5.498
 3167SOL     OW10036   2.561   0.451   4.984
 3167SOL    HW110037   2.510   0.378   4.951
 3167SOL    HW210038   2.560   0.516   4.913
 3168SOL     OW10039   2.793   1.678   5.189
 3168SOL    HW110040   2.767   1.646   5.103
 3168SOL    HW210041   2.785   1.774   5.183
 3169SOL     OW10042   2.325   0.493   3.907
 3169SOL    HW110043   2.385   0.563   3.930
 3169SOL    HW210044   2.240   0.535   3.898
 3170SOL     OW10045   2.007   1.140   5.196
 3170SOL    HW110046   2.010   1.089   5.277
 3170SOL    HW210047   2.025   1.077   5.127
 3171SOL     OW10048   3.188   1.047   4.947
 3171SOL    HW110049   3.211   0.983   4.879
 3171SOL    HW210050   3.117   1.099   4.908
 3172SOL     OW10051   3.172   0.858   4.030
 3172SOL    HW110052   3.098   0.825   4.081
 3172SOL    HW210053   3.149   0.843   3.939
 3173SOL     OW10054   3.633   1.745   4.872
 3173SOL    HW110055   3.695   1.769   4.804
 3173SOL    HW210056   3.609   1.654   4.852
 3174SOL     OW10057   3.106   1.731   4.827
 3174SOL    HW110058   3.191   1.750   4.788
 3174SOL    HW210059   3.111   1.639   4.852
 3175SOL     OW10060   1.948   1.266   4.737
 3175SOL    HW110061   1.932   1.279   4.831
 3175SOL    HW210062   1.874   1.213   4.708
 3176SOL     OW10063   2.539   1.666   5.452
 3176SOL    HW110064   2.484   1.745   5.452
 3176SOL    HW210065   2.600   1.679   5.380
 3177SOL     OW10066   3.574   0.149   4.226
 3177SOL    HW110067   3.649   0.128   4.171
 3177SOL    HW210068   3.567   0.074   4.286
 3178SOL     OW10069   3.252   1.576   4.204
 3178SOL    HW110070   3.321   1.594   4.140
 3178SOL    HW210071   3.203   1.659   4.210
 3179SOL     OW10072   1.997   1.797   5.567
 3179SOL    HW110073   1.947   1.731   5.616
 3179SOL    HW210074   2.046   1.844   5.635
 3180SOL     OW10075   3.139   0.926   4.395
 3180SOL    HW110076   3.212   0.865   4.403
 3180SOL    HW210077   3.173   0.998   4.342
 3181SOL     OW10078   2.678   1.273   5.155
 3181SOL    HW110079   2.649   1.312   5.237
 3181SOL    HW210080   2.611   1.298   5.091
 3182SOL     OW10081   2.535   1.615   3.884
 3182SOL    HW110082   2.541   1.636   3.791
 3182SOL    HW210083   2.477   1.539   3.888
 3183SOL     OW10084   3.489   1.726   5.115
 3183SOL    HW110085   3.538   1.734   5.033
 3183SOL    HW210086   3.474   1.816   5.143
 3184SOL     OW10087   3.707   0.157   4.681
 3184SOL    HW110088   3.707   0.062   4.670
 3184SOL    HW210089   3.621   0.185   4.652
 3185SOL     OW10090   2.124   0.329   4.443
 3185SOL    HW110091   2.036   0.360   4.421
 3185SOL    HW210092   2.122   0.317   4.538
 3186SOL     OW10093   3.065   1.606   3.753
 3186SOL    HW110094   3.062   1.515   3.782
 3186SOL    HW210095   3.002   1.610   3.681
 3187SOL     OW10096   2.686   1.006   5.096
 3187SOL    HW110097   2.730   1.002   5.011
 3187SOL    HW210098   2.685   1.099   5.119
 3188SOL     OW10099   2.778   0.912   4.014
 3188SOL    HW110100   2.840   0.943   3.948
 3188SOL    HW210101   2.825   0.841   4.059
 3189SOL     OW10102   3.353   1.626   3.766
 3189SOL    HW110103   3.260   1.618   3.749
 3189SOL    HW210104   3.393   1.631   3.679
 3190SOL     OW10105   2.231   1.302   5.216
 3190SOL    HW110106   2.218   1.379   5.161
 3190SOL    HW210107   2.154   1.248   5.200
 3191SOL     OW10108   3.473   1.283   5.005
 3191SOL    HW110109   3.532   1.272   5.079
 3191SOL    HW210110   3.412   1.352   5.033
 3192SOL     OW10111   2.914   1.107   4.429
 3192SOL    HW110112   2.843   1.057   4.469
 3192SOL    HW210113   2.977   1.041   4.400
 3193SOL     OW10114   2.881   0.243   4.692
 3193SOL    HW110115   2.861   0.197   4.610
 3193SOL    HW210116   2.874   0.176   4.760
 3194SOL     OW10117   2.467   1.491   4.203
 3194SOL    HW110118   2.510   1.438   4.135
 3194SOL    HW210119   2.391   1.529   4.159
 3195SOL     OW10120   3.586   0.387   5.102
 3195SOL    HW110121   3.656   0.452   5.102
 3195SOL    HW210122   3.618   0.317   5.044
 3196SOL     OW10123   2.122   1.345   4.015
 3196SOL    HW110124   2.029   1.343   3.991
 3196SOL    HW210125   2.122   1.382   4.103
 3197SOL     OW10126   1.975   1.021   5.443
 3197SOL    HW110127   1.898   0.998   5.496
 3197SOL    HW210128   2.049   0.984   5.490
 3198SOL     OW10129   2.534   0.211   5.212
 3198SOL    HW110130   2.618   0.194   5.169
 3198SOL    HW210131   2.558   0.261   5.291
 3199SOL     OW10132   1.940   0.339   3.765
 3199SOL    HW110133   1.856   0.306   3.732
 3199SOL    HW210134   1.960   0.412   3.707
 3200SOL     OW10135   3.292   0.858   5.124
 3200SOL    HW110136   3.243   0.919   5.069
 3200SOL    HW210137   3.381   0.861   5.090
 3201SOL     OW10138   1.934   0.167   4.039
 3201SOL    HW110139   1.935   0.250   3.991
 3201SOL    HW210140   2.018   0.126   4.019
 3202SOL     OW10141   3.041   1.342   3.843
 3202SOL    HW110142   2.953   1.306   3.845
 3202SOL    HW210143   3.070   1.340   3.934
 3203SOL     OW10144   2.481   0.830   5.157
 3203SOL    HW110145   2.537   0.907   5.142
 3203SOL    HW210146   2.543   0.758   5.166
 3204SOL     OW10147   3.348   1.775   4.698
 3204SOL    HW110148   3.377   1.835   4.629
 3204SOL    HW210149   3.426   1.760   4.751
 3205SOL     OW10150   2.577   0.572   5.426
 3205SOL    HW110151   2.618   0.636   5.486
 3205SOL    HW210152   2.608   0.487   5.458
 3206SOL     OW10153   3.334   1.200   5.356
 3206SOL    HW110154   3.321   1.214   5.450
 3206SOL    HW210155   3.427   1.215   5.342
 3207SOL     OW10156   2.239   1.739   5.287
 3207SOL    HW110157   2.155   1.782   5.273
 3207SOL    HW210158   2.218   1.656   5.329
 3208SOL     OW10159   3.531   0.881   4.979
 3208SOL    HW110160   3.525   0.796   4.937
 3208SOL    HW210161   3.522   0.944   4.908
 3209SOL     OW10162   3.082   0.319   4.190
 3209SOL    HW110163   3.145   0.247   4.182
 3209SOL    HW210164   3.113   0.371   4.264
 3210SOL     OW10165   2.452   0.738   4.394
 3210SOL    HW110166   2.491   0.824   4.377
 3210SOL    HW210167   2.384   0.730   4.327
 3211SOL     OW10168   3.628   0.362   5.373
 3211SOL    HW110169   3.609   0.376   5.280
 3211SOL    HW210170   3.557   0.306   5.404
 3212SOL     OW10171   3.607   0.934   5.236
 3212SOL    HW110172   3.604   1.028   5.249
 3212SOL    HW210173   3.592   0.922   5.142
 3213SOL     OW10174   2.722   1.369   3.758
 3213SOL    HW110175   2.683   1.392   3.842
 3213SOL    HW210176   2.736   1.453   3.714
 3214SOL     OW10177   2.730   0.967   4.579
 3214SOL    HW110178   2.780   0.896   4.618
 3214SOL    HW210179   2.695   1.016   4.653
 3215SOL     OW10180   2.942   0.991   3.813
 3215SOL    HW110181   2.920   1.038   3.733
 3215SOL    HW210182   3.016   0.935   3.787
 3216SOL     OW10183   3.716   1.555   4.569
 3216SOL    HW110184   3.638   1.541   4.515
 3216SOL    HW210185   3.710   1.488   4.637
 3217SOL     OW10186   2.087   1.303   5.580
 3217SOL    HW110187   2.019   1.242   5.551
 3217SOL    HW210188   2.070   1.315   5.673
 3218SOL     OW10189   1.948   1.233   4.388
 3218SOL    HW110190   1.950   1.186   4.471
 3218SOL    HW210191   2.015   1.192   4.334
 3219SOL     OW10192   2.543   1.403   5.351
 3219SOL    HW110193   2.463   1.360   5.383
 3219SOL    HW210194   2.539   1.491   5.388
 3220SOL     OW10195   3.676   0.177   4.956
 3220SOL    HW110196   3.642   0.088   4.962
 3220SOL    HW210197   3.694   0.190   4.863
 3221SOL     OW10198   2.292   0.436   4.248
 3221SOL    HW110199   2.324   0.363   4.195
 3221SOL    HW210200   2.245   0.394   4.320
 3222SOL     OW10201   3.562   1.489   4.821
 3222SOL    HW110202   3.481   1.465   4.776
 3222SOL    HW210203   3.574   1.421   4.886
 3223SOL     OW10204   2.190   0.556   5.014
 3223SOL    HW110205   2.246   0.501   5.070
 3223SOL    HW210206   2.211   0.529   4.925
 3224SOL     OW10207   2.688   1.573   4.399
 3224SOL    HW110208   2.672   1.613   4.314
 3224SOL    HW210209   2.612   1.516   4.413
 3225SOL     OW10210   3.290   0.218   4.840
 3225SOL    HW110211   3.327   0.144   4.888
 3225SOL    HW210212   3.241   0.268   4.906
 3226SOL     OW10213   2.865   0.021   4.864
 3226SOL    HW110214   2.814   5.252   4.822
 3226SOL    HW210215   2.951   5.283   4.878
 3227SOL     OW10216   2.636   1.333   4.038
 3227SOL    HW110217   2.602   1.243   4.043
 3227SOL    HW210218   2.718   1.330   4.087
 3228SOL     OW10219   2.479   1.560   5.004
 3228SOL    HW110220   2.483   1.639   5.058
 3228SOL    HW210221   2.569   1.547   4.974
 3229SOL     OW10222   3.218   0.038   3.886
 3229SOL    HW110223   3.250   5.295   3.807
 3229SOL    HW210224   3.138   5.290   3.908
 3230SOL     OW10225   3.163   0.464   4.409
 3230SOL    HW110226   3.108   0.542   4.414
 3230SOL    HW210227   3.156   0.423   4.495
 3231SOL     OW10228   3.456   0.215   4.606
 3231SOL    HW110229   3.390   0.227   4.674
 3231SOL    HW210230   3.449   0.294   4.552
 3232SOL     OW10231   1.906   1.071   4.030
 3232SOL    HW110232   2.000   1.061   4.012
 3232SOL    HW210233   1.877   0.982   4.053
 3233SOL     OW10234   2.735   1.659   4.075
 3233SOL    HW110235   2.674   1.625   4.009
 3233SOL    HW210236   2.696   1.742   4.103
 3234SOL     OW10237   2.090   0.625   5.709
 3234SOL    HW110238   2.001   0.622   5.744
 3234SOL    HW210239   2.080   0.599   5.617
 3235SOL     OW10240   2.080   0.284   6.579
 3235SOL    HW110241   2.109   0.249   6.663
 3235SOL    HW210242   1.995   0.243   6.563
 3236SOL     OW10243   1.866   0.386   6.224
 3236SOL    HW110244   1.781   0.407   6.264
 3236SOL    HW210245   1.848   0.309   6.171
 3237SOL     OW10246   2.429   1.288   6.761
 3237SOL    HW110247   2.341   1.291   6.722
 3237SOL    HW210248   2.444   1.376   6.794
 3238SOL     OW10249   3.423   1.512   6.293
 3238SOL    HW110250   3.380   1.492   6.376
 3238SOL    HW210251   3.352   1.516   6.229
 3239SOL     OW10252   2.993   0.698   6.288
 3239SOL    HW110253   3.042   0.779   6.273
 3239SOL    HW210254   2.946   0.713   6.369
 3240SOL     OW10255   3.629   0.606   5.814
 3240SOL    HW110256   3.608   0.598   5.721
 3240SOL    HW210257   3.594   0.526   5.853
 3241SOL     OW10258   2.617   1.142   6.627
 3241SOL    HW110259   2.548   1.177   6.684
 3241SOL    HW210260   2.653   1.219   6.582
 3242SOL     OW10261   2.727   0.779   7.407
 3242SOL    HW110262   2.715   0.853   7.465
 3242SOL    HW210263   2.753   0.818   7.323
 3243SOL     OW10264   2.548   1.003   6.233
 3243SOL    HW110265   2.613   0.991   6.302
 3243SOL    HW210266   2.479   1.055   6.273
 3244SOL     OW10267   2.572   1.151   7.398
 3244SOL    HW110268   2.620   1.230   7.425
 3244SOL    HW210269   2.490   1.184   7.362
 3245SOL     OW10270   2.192   1.426   6.654
 3245SOL    HW110271   2.120   1.388   6.603
 3245SOL    HW210272   2.243   1.476   6.589
 3246SOL     OW10273   3.323   1.499   6.940
 3246SOL    HW110274   3.373   1.580   6.950
 3246SOL    HW210275   3.261   1.501   7.013
 3247SOL     OW10276   2.306   0.398   7.073
 3247SOL    HW110277   2.381   0.339   7.071
 3247SOL    HW210278   2.231   0.341   7.087
 3248SOL     OW10279   3.472   0.451   6.324
 3248SOL    HW110280   3.397   0.475   6.270
 3248SOL    HW210281   3.490   0.530   6.376
 3249SOL     OW10282   2.081   1.714   6.058
 3249SOL    HW110283   2.103   1.791   6.111
 3249SOL    HW210284   2.155   1.706   5.997
 3250SOL     OW10285   2.998   1.341   7.276
 3250SOL    HW110286   3.038   1.338   7.363
 3250SOL    HW210287   2.946   1.261   7.271
 3251SOL     OW10288   2.092   1.441   6.121
 3251SOL    HW110289   2.075   1.535   6.124
 3251SOL    HW210290   2.032   1.404   6.185
 3252SOL     OW10291   2.119   1.090   6.477
 3252SOL    HW110292   2.116   1.004   6.518
 3252SOL    HW210293   2.062   1.144   6.531
 3253SOL     OW10294   2.472   1.791   7.013
 3253SOL    HW110295   2.391   1.773   7.061
 3253SOL    HW210296   2.497   1.880   7.039
 3254SOL     OW10297   2.447   0.982   5.720
 3254SOL    HW110298   2.493   1.031   5.652
 3254SOL    HW210299   2.487   1.012   5.802
 3255SOL     OW10300   3.449   0.135   7.042
 3255SOL    HW110301   3.470   0.220   7.004
 3255SOL    HW210302   3.445   0.152   7.137
 3256SOL     OW10303   1.976   0.653   6.145
 3256SOL    HW110304   1.949   0.564   6.167
 3256SOL    HW210305   1.969   0.701   6.228
 3257SOL     OW10306   3.704   1.759   5.921
 3257SOL    HW110307   3.768   1.730   5.986
 3257SOL    HW210308   3.728   1.849   5.902
 3258SOL     OW10309   1.894   1.595   5.710
 3258SOL    HW110310   1.877   1.503   5.730
 3258SOL    HW210311   1.870   1.642   5.790
 3259SOL     OW10312   3.551   0.919   6.227
 3259SOL    HW110313   3.634   0.876   6.205
 3259SOL    HW210314   3.529   0.969   6.149
 3260SOL     OW10315   3.508   1.106   6.015
 3260SOL    HW110316   3.594   1.112   5.973
 3260SOL    HW210317   3.513   1.168   6.089
 3261SOL     OW10318   1.985   0.743   7.171
 3261SOL    HW110319   2.076   0.769   7.179
 3261SOL    HW210320   1.936   0.825   7.180
 3262SOL     OW10321   2.475   1.386   6.321
 3262SOL    HW110322   2.429   1.302   6.330
 3262SOL    HW210323   2.459   1.412   6.231
 3263SOL     OW10324   3.151   1.238   7.009
 3263SOL    HW110325   3.183   1.171   6.949
 3263SOL    HW210326   3.208   1.232   7.086
 3264SOL     OW10327   2.673   0.027   6.114
 3264SOL    HW110328   2.701   0.115   6.089
 3264SOL    HW210329   2.577   0.031   6.108
 3265SOL     OW10330   2.052   0.966   6.858
 3265SOL    HW110331   2.137   0.924   6.843
 3265SOL    HW210332   1.990   0.912   6.809
 3266SOL     OW10333   3.394   0.993   5.784
 3266SOL    HW110334   3.324   0.936   5.816
 3266SOL    HW210335   3.434   1.028   5.864
 3267SOL     OW10336   3.047   1.806   7.208
 3267SOL    HW110337   3.057   1.866   7.133
 3267SOL    HW210338   3.064   1.719   7.172
 3268SOL     OW10339   2.189   0.262   7.403
 3268SOL    HW110340   2.240   0.340   7.425
 3268SOL    HW210341   2.101   0.281   7.438
 3269SOL     OW10342   3.329   1.419   6.538
 3269SOL    HW110343   3.260   1.435   6.603
 3269SOL    HW210344   3.316   1.328   6.511
 3270SOL     OW10345   3.520   1.740   6.164
 3270SOL    HW110346   3.501   1.710   6.075
 3270SOL    HW210347   3.496   1.666   6.220
 3271SOL     OW10348   2.457   0.721   5.852
 3271SOL    HW110349   2.463   0.803   5.802
 3271SOL    HW210350   2.392   0.739   5.920
 3272SOL     OW10351   3.140   0.347   6.517
 3272SOL    HW110352   3.049   0.319   6.529
 3272SOL    HW210353   3.190   0.297   6.581
 3273SOL     OW10354   3.442   1.670   5.895
 3273SOL    HW110355   3.533   1.701   5.888
 3273SOL    HW210356   3.416   1.653   5.805
 3274SOL     OW10357   2.656   0.618   7.036
 3274SOL    HW110358   2.628   0.597   7.125
 3274SOL    HW210359   2.614   0.552   6.982
 3275SOL     OW10360   3.257   0.475   7.264
 3275SOL    HW110361   3.258   0.520   7.349
 3275SOL    HW210362   3.320   0.404   7.273
 3276SOL     OW10363   2.817   0.887   7.168
 3276SOL    HW110364   2.872   0.818   7.132
 3276SOL    HW210365   2.769   0.922   7.092
 3277SOL     OW10366   2.856   0.417   6.821
 3277SOL    HW110367   2.771   0.438   6.860
 3277SOL    HW210368   2.834   0.369   6.741
 3278SOL     OW10369   2.913   0.698   6.012
 3278SOL    HW110370   2.928   0.691   6.107
 3278SOL    HW210371   2.830   0.652   5.998
 3279SOL     OW10372   1.950   0.821   6.363
 3279SOL    HW110373   2.031   0.814   6.413
 3279SOL    HW210374   1.907   0.899   6.397
 3280SOL     OW10375   1.988   1.850   7.165
 3280SOL    HW110376   1.989   1.828   7.258
 3280SOL    HW210377   1.897   1.838   7.138
 3281SOL     OW10378   2.736   0.364   5.775
 3281SOL    HW110379   2.777   0.424   5.713
 3281SOL    HW210380   2.790   0.285   5.772
 3282SOL     OW10381   3.571   0.575   7.415
 3282SOL    HW110382   3.533   0.649   7.368
 3282SOL    HW210383   3.599   0.515   7.347
 3283SOL     OW10384   3.239   1.142   6.127
 3283SOL    HW110385   3.317   1.129   6.074
 3283SOL    HW210386   3.186   1.204   6.077
 3284SOL     OW10387   2.388   0.202   6.468
 3284SOL    HW110388   2.410   0.217   6.560
 3284SOL    HW210389   2.410   0.284   6.424
 3285SOL     OW10390   2.868   1.444   6.058
 3285SOL    HW110391   2.830   1.517   6.008
 3285SOL    HW210392   2.850   1.466   6.149
 3286SOL     OW10393   2.217   1.809   6.448
 3286SOL    HW110394   2.260   1.724   6.456
 3286SOL    HW210395   2.286   1.873   6.465
 3287SOL     OW10396   3.661   1.057   6.454
 3287SOL    HW110397   3.607   1.039   6.377
 3287SOL    HW210398   3.599   1.062   6.527
 3288SOL     OW10399   3.090   1.539   7.098
 3288SOL    HW110400   3.076   1.466   7.160
 3288SOL    HW210401   3.026   1.524   7.029
 3289SOL     OW10402   2.182   0.957   5.836
 3289SOL    HW110403   2.264   0.976   5.791
 3289SOL    HW210404   2.152   0.875   5.797
 3290SOL     OW10405   3.341   0.743   6.313
 3290SOL    HW110406   3.332   0.700   6.398
 3290SOL    HW210407   3.418   0.798   6.321
 3291SOL     OW10408   2.328   1.264   7.323
 3291SOL    HW110409   2.301   1.269   7.232
 3291SOL    HW210410   2.246   1.262   7.373
 3292SOL     OW10411   2.985   1.777   5.817
 3292SOL    HW110412   2.910   1.737   5.862
 3292SOL    HW210413   3.007   1.716   5.747
 3293SOL     OW10414   2.059   0.278   7.088
 3293SOL    HW110415   1.980   0.332   7.083
 3293SOL    HW210416   2.049   0.228   7.170
 3294SOL     OW10417   3.490   1.380   5.673
 3294SOL    HW110418   3.449   1.465   5.659
 3294SOL    HW210419   3.422   1.316   5.654
 3295SOL     OW10420   2.329   1.735   5.909
 3295SOL    HW110421   2.371   1.795   5.970
 3295SOL    HW210422   2.399   1.708   5.850
 3296SOL     OW10423   3.269   0.100   6.017
 3296SOL    HW110424   3.261   0.082   5.924
 3296SOL    HW210425   3.361   0.122   6.030
 3297SOL     OW10426   2.117   1.792   6.818
 3297SOL    HW110427   2.169   1.727   6.864
 3297SOL    HW210428   2.109   1.756   6.729
 3298SOL     OW10429   2.799   1.698   6.485
 3298SOL    HW110430   2.877   1.647   6.506
 3298SOL    HW210431   2.756   1.649   6.416
 3299SOL     OW10432   2.255   0.696   6.062
 3299SOL    HW110433   2.275   0.603   6.073
 3299SOL    HW210434   2.161   0.702   6.080
 3300SOL     OW10435   3.401   0.227   7.310
 3300SOL    HW110436   3.408   0.245   7.404
 3300SOL    HW210437   3.325   0.170   7.303
 3301SOL     OW10438   2.486   0.132   5.693
 3301SOL    HW110439   2.550   0.065   5.717
 3301SOL    HW210440   2.434   0.092   5.623
 3302SOL     OW10441   2.641   0.312   7.350
 3302SOL    HW110442   2.702   0.238   7.352
 3302SOL    HW210443   2.600   0.312   7.436
 3303SOL     OW10444   2.737   1.521   6.780
 3303SOL    HW110445   2.722   1.485   6.692
 3303SOL    HW210446   2.808   1.467   6.816
 3304SOL     OW10447   3.203   0.589   7.018
 3304SOL    HW110448   3.233   0.558   7.103
 3304SOL    HW210449   3.239   0.677   7.011
 3305SOL     OW10450   2.677   1.395   6.525
 3305SOL    HW110451   2.761   1.383   6.481
 3305SOL    HW210452   2.613   1.396   6.454
 3306SOL     OW10453   2.789   0.510   6.489
 3306SOL    HW110454   2.765   0.502   6.397
 3306SOL    HW210455   2.821   0.423   6.514
 3307SOL     OW10456   2.404   0.062   6.094
 3307SOL    HW110457   2.319   0.061   6.137
 3307SOL    HW210458   2.397   0.132   6.029
 3308SOL     OW10459   3.290   1.198   5.627
 3308SOL    HW110460   3.320   1.123   5.677
 3308SOL    HW210461   3.204   1.220   5.664
 3309SOL     OW10462   2.163   0.062   5.777
 3309SOL    HW110463   2.221   0.132   5.747
 3309SOL    HW210464   2.219   5.286   5.787
 3310SOL     OW10465   2.801   0.261   6.048
 3310SOL    HW110466   2.773   0.300   5.965
 3310SOL    HW210467   2.896   0.273   6.049
 3311SOL     OW10468   2.943   0.681   7.045
 3311SOL    HW110469   2.874   0.615   7.051
 3311SOL    HW210470   3.024   0.631   7.039
 3312SOL     OW10471   3.085   1.570   6.380
 3312SOL    HW110472   3.101   1.637   6.313
 3312SOL    HW210473   3.153   1.585   6.446
 3313SOL     OW10474   2.331   1.149   6.319
 3313SOL    HW110475   2.261   1.130   6.382
 3313SOL    HW210476   2.291   1.133   6.234
 3314SOL     OW10477   3.131   1.794   6.194
 3314SOL    HW110478   3.177   1.855   6.137
 3314SOL    HW210479   3.064   1.847   6.238
 3315SOL     OW10480   2.888   0.546   5.608
 3315SOL    HW110481   2.845   0.630   5.590
 3315SOL    HW210482   2.951   0.566   5.677
 3316SOL     OW10483   1.941   0.553   6.980
 3316SOL    HW110484   2.032   0.553   6.951
 3316SOL    HW210485   1.935   0.624   7.044
 3317SOL     OW10486   2.417   0.238   6.744
 3317SOL    HW110487   2.449   0.152   6.773
 3317SOL    HW210488   2.325   0.239   6.770
 3318SOL     OW10489   2.729   0.462   6.227
 3318SOL    HW110490   2.683   0.516   6.162
 3318SOL    HW210491   2.752   0.382   6.180
 3319SOL     OW10492   2.840   0.061   6.349
 3319SOL    HW110493   2.775   0.056   6.279
 3319SOL    HW210494   2.850   5.270   6.379
 3320SOL     OW10495   3.299   1.162   6.443
 3320SOL    HW110496   3.230   1.097   6.442
 3320SOL    HW210497   3.323   1.174   6.351
 3321SOL     OW10498   3.328   0.606   6.563
 3321SOL    HW110499   3.279   0.524   6.567
 3321SOL    HW210500   3.389   0.601   6.637
 3322SOL     OW10501   3.708   0.816   5.968
 3322SOL    HW110502   3.764   0.765   6.027
 3322SOL    HW210503   3.679   0.754   5.902
 3323SOL     OW10504   2.353   1.418   5.742
 3323SOL    HW110505   2.278   1.389   5.795
 3323SOL    HW210506   2.338   1.379   5.656
 3324SOL     OW10507   3.532   1.264   6.232
 3324SOL    HW110508   3.627   1.268   6.245
 3324SOL    HW210509   3.502   1.352   6.253
 3325SOL     OW10510   3.256   0.572   5.657
 3325SOL    HW110511   3.195   0.553   5.728
 3325SOL    HW210512   3.340   0.541   5.689
 3326SOL     OW10513   2.385   0.265   5.907
 3326SOL    HW110514   2.430   0.216   5.838
 3326SOL    HW210515   2.365   0.349   5.867
 3327SOL     OW10516   3.614   1.239   7.158
 3327SOL    HW110517   3.702   1.200   7.154
 3327SOL    HW210518   3.629   1.329   7.188
 3328SOL     OW10519   2.921   1.353   6.919
 3328SOL    HW110520   2.846   1.323   6.971
 3328SOL    HW210521   2.997   1.312   6.961
 3329SOL     OW10522   3.470   1.625   7.238
 3329SOL    HW110523   3.464   1.659   7.149
 3329SOL    HW210524   3.553   1.577   7.241
 3330SOL     OW10525   2.991   1.203   6.691
 3330SOL    HW110526   2.932   1.242   6.756
 3330SOL    HW210527   2.958   1.236   6.607
 3331SOL     OW10528   3.490   1.098   6.663
 3331SOL    HW110529   3.486   1.160   6.736
 3331SOL    HW210530   3.411   1.115   6.612
 3332SOL     OW10531   2.766   0.106   6.975
 3332SOL    HW110532   2.796   0.072   6.891
 3332SOL    HW210533   2.843   0.149   7.013
 3333SOL     OW10534   2.846   1.114   7.310
 3333SOL    HW110535   2.754   1.131   7.329
 3333SOL    HW210536   2.845   1.037   7.254
 3334SOL     OW10537   2.571   1.061   5.957
 3334SOL    HW110538   2.557   1.045   6.050
 3334SOL    HW210539   2.646   1.008   5.934
 3335SOL     OW10540   2.280   0.815   6.838
 3335SOL    HW110541   2.349   0.824   6.904
 3335SOL    HW210542   2.245   0.727   6.851
 3336SOL     OW10543   3.129   0.379   6.858
 3336SOL    HW110544   3.162   0.456   6.905
 3336SOL    HW210545   3.039   0.401   6.836
 3337SOL     OW10546   1.933   1.573   6.939
 3337SOL    HW110547   1.903   1.646   6.884
 3337SOL    HW210548   2.028   1.576   6.933
 3338SOL     OW10549   2.210   1.109   6.077
 3338SOL    HW110550   2.216   1.183   6.016
 3338SOL    HW210551   2.208   1.032   6.021
 3339SOL     OW10552   2.415   0.537   6.447
 3339SOL    HW110553   2.430   0.595   6.372
 3339SOL    HW210554   2.481   0.564   6.511
 3340SOL     OW10555   3.110   1.348   5.975
 3340SOL    HW110556   3.166   1.420   6.006
 3340SOL    HW210557   3.023   1.370   6.009
 3341SOL     OW10558   3.143   1.457   6.733
 3341SOL    HW110559   3.199   1.460   6.811
 3341SOL    HW210560   3.088   1.381   6.746
 3342SOL     OW10561   3.444   0.623   6.065
 3342SOL    HW110562   3.397   0.676   6.129
 3342SOL    HW210563   3.488   0.686   6.008
 3343SOL     OW10564   2.208   1.527   6.901
 3343SOL    HW110565   2.196   1.484   6.816
 3343SOL    HW210566   2.303   1.539   6.909
 3344SOL     OW10567   2.276   0.744   7.188
 3344SOL    HW110568   2.337   0.790   7.130
 3344SOL    HW210569   2.319   0.660   7.206
 3345SOL     OW10570   3.463   0.778   7.268
 3345SOL    HW110571   3.377   0.820   7.261
 3345SOL    HW210572   3.516   0.821   7.200
 3346SOL     OW10573   2.905   0.116   7.372
 3346SOL    HW110574   2.933   0.196   7.327
 3346SOL    HW210575   2.912   0.047   7.306
 3347SOL     OW10576   2.345   0.057   7.324
 3347SOL    HW110577   2.286   5.292   7.284
 3347SOL    HW210578   2.288   0.130   7.346
 3348SOL     OW10579   2.446   0.872   6.618
 3348SOL    HW110580   2.476   0.963   6.616
 3348SOL    HW210581   2.389   0.868   6.694
 3349SOL     OW10582   3.220   0.859   6.616
 3349SOL    HW110583   3.137   0.850   6.569
 3349SOL    HW210584   3.260   0.772   6.610
 3350SOL     OW10585   3.068   0.528   5.853
 3350SOL    HW110586   3.072   0.448   5.904
 3350SOL    HW210587   3.025   0.591   5.911
 3351SOL     OW10588   2.158   0.204   6.833
 3351SOL    HW110589   2.119   0.243   6.911
 3351SOL    HW210590   2.158   0.109   6.851
 3352SOL     OW10591   1.907   1.311   6.862
 3352SOL    HW110592   1.941   1.256   6.934
 3352SOL    HW210593   1.915   1.400   6.895
 3353SOL     OW10594   2.587   0.632   6.646
 3353SOL    HW110595   2.661   0.615   6.587
 3353SOL    HW210596   2.558   0.720   6.623
 3354SOL     OW10597   3.597   0.959   7.438
 3354SOL    HW110598   3.549   0.898   7.382
 3354SOL    HW210599   3.540   0.974   7.513
 3355SOL     OW10600   2.165   0.072   6.238
 3355SOL    HW110601   2.147   0.166   6.244
 3355SOL    HW210602   2.208   0.049   6.320
 3356SOL     OW10603   3.474   0.375   5.951
 3356SOL    HW110604   3.507   0.311   6.014
 3356SOL    HW210605   3.454   0.452   6.003
 3357SOL     OW10606   2.890   0.759   6.547
 3357SOL    HW110607   2.886   0.777   6.641
 3357SOL    HW210608   2.863   0.668   6.538
 3358SOL     OW10609   2.843   1.565   7.303
 3358SOL    HW110610   2.829   1.610   7.219
 3358SOL    HW210611   2.888   1.484   7.279
 3359SOL     OW10612   3.717   1.506   7.191
 3359SOL    HW110613   3.735   1.532   7.101
 3359SOL    HW210614   3.798   1.524   7.238
 3360SOL     OW10615   2.215   0.914   7.396
 3360SOL    HW110616   2.298   0.935   7.439
 3360SOL    HW210617   2.239   0.853   7.327
 3361SOL     OW10618   3.389   0.272   5.712
 3361SOL    HW110619   3.324   0.208   5.743
 3361SOL    HW210620   3.425   0.310   5.792
 3362SOL     OW10621   3.154   0.826   5.617
 3362SOL    HW110622   3.196   0.741   5.621
 3362SOL    HW210623   3.185   0.865   5.536
 3363SOL     OW10624   2.928   1.336   6.440
 3363SOL    HW110625   2.931   1.263   6.378
 3363SOL    HW210626   2.989   1.400   6.405
 3364SOL     OW10627   2.171   0.809   6.534
 3364SOL    HW110628   2.264   0.831   6.526
 3364SOL    HW210629   2.170   0.719   6.566
 3365SOL     OW10630   2.194   0.526   6.599
 3365SOL    HW110631   2.158   0.439   6.583
 3365SOL    HW210632   2.271   0.531   6.541
 3366SOL     OW10633   2.997   0.377   7.274
 3366SOL    HW110634   2.950   0.432   7.336
 3366SOL    HW210635   3.085   0.416   7.269
 3367SOL     OW10636   2.995   0.222   7.051
 3367SOL    HW110637   2.999   0.281   7.127
 3367SOL    HW210638   3.051   0.264   6.985
 3368SOL     OW10639   1.867   1.321   5.781
 3368SOL    HW110640   1.780   1.335   5.743
 3368SOL    HW210641   1.864   1.232   5.815
 3369SOL     OW10642   1.952   1.787   6.524
 3369SOL    HW110643   1.922   1.708   6.480
 3369SOL    HW210644   2.042   1.799   6.493
 3370SOL     OW10645   2.358   1.574   6.491
 3370SOL    HW110646   2.427   1.635   6.516
 3370SOL    HW210647   2.402   1.510   6.435
 3371SOL     OW10648   2.845   0.792   6.812
 3371SOL    HW110649   2.901   0.769   6.887
 3371SOL    HW210650   2.760   0.755   6.835
 3372SOL     OW10651   1.897   0.543   6.703
 3372SOL    HW110652   1.977   0.530   6.652
 3372SOL    HW210653   1.928   0.548   6.794
 3373SOL     OW10654   2.050   0.521   7.313
 3373SOL    HW110655   2.113   0.487   7.249
 3373SOL    HW210656   2.009   0.595   7.269
 3374SOL     OW10657   3.239   0.938   7.245
 3374SOL    HW110658   3.260   1.032   7.244
 3374SOL    HW210659   3.236   0.913   7.153
 3375SOL     OW10660   2.676   0.572   5.948
 3375SOL    HW110661   2.679   0.498   5.888
 3375SOL    HW210662   2.602   0.625   5.918
 3376SOL     OW10663   3.504   0.601   6.772
 3376SOL    HW110664   3.493   0.542   6.846
 3376SOL    HW210665   3.591   0.581   6.738
 3377SOL     OW10666   2.104   1.551   7.313
 3377SOL    HW110667   2.083   1.616   7.381
 3377SOL    HW210668   2.108   1.468   7.360
 3378SOL     OW10669   2.560   0.452   6.846
 3378SOL    HW110670   2.510   0.378   6.813
 3378SOL    HW210671   2.560   0.516   6.775
 3379SOL     OW10672   2.790   1.679   7.053
 3379SOL    HW110673   2.764   1.645   6.968
 3379SOL    HW210674   2.786   1.774   7.044
 3380SOL     OW10675   2.325   0.493   5.769
 3380SOL    HW110676   2.385   0.564   5.792
 3380SOL    HW210677   2.240   0.535   5.760
 3381SOL     OW10678   2.007   1.140   7.058
 3381SOL    HW110679   2.010   1.089   7.139
 3381SOL    HW210680   2.025   1.077   6.989
 3382SOL     OW10681   3.188   1.047   6.809
 3382SOL    HW110682   3.211   0.983   6.741
 3382SOL    HW210683   3.118   1.099   6.770
 3383SOL     OW10684   3.173   0.857   5.892
 3383SOL    HW110685   3.098   0.826   5.942
 3383SOL    HW210686   3.149   0.843   5.801
 3384SOL     OW10687   3.633   1.744   6.736
 3384SOL    HW110688   3.694   1.770   6.666
 3384SOL    HW210689   3.610   1.654   6.714
 3385SOL     OW10690   3.103   1.733   6.698
 3385SOL    HW110691   3.185   1.754   6.654
 3385SOL    HW210692   3.109   1.639   6.717
 3386SOL     OW10693   1.946   1.267   6.598
 3386SOL    HW110694   1.931   1.279   6.692
 3386SOL    HW210695   1.873   1.212   6.570
 3387SOL     OW10696   2.538   1.665   7.313
 3387SOL    HW110697   2.488   1.746   7.313
 3387SOL    HW210698   2.606   1.678   7.247
 3388SOL     OW10699   3.574   0.149   6.088
 3388SOL    HW110700   3.650   0.128   6.033
 3388SOL    HW210701   3.567   0.074   6.148
 3389SOL     OW10702   3.253   1.568   6.071
 3389SOL    HW110703   3.313   1.600   6.004
 3389SOL    HW210704   3.204   1.645   6.099
 3390SOL     OW10705   1.998   1.796   7.430
 3390SOL    HW110706   1.947   1.732   7.479
 3390SOL    HW210707   2.046   1.845   7.497
 3391SOL     OW10708   3.139   0.925   6.257
 3391SOL    HW110709   3.213   0.865   6.264
 3391SOL    HW210710   3.173   0.998   6.205
 3392SOL     OW10711   2.676   1.273   7.016
 3392SOL    HW110712   2.648   1.312   7.098
 3392SOL    HW210713   2.607   1.296   6.954
 3393SOL     OW10714   2.535   1.618   5.742
 3393SOL    HW110715   2.544   1.633   5.648
 3393SOL    HW210716   2.478   1.541   5.749
 3394SOL     OW10717   3.488   1.727   6.977
 3394SOL    HW110718   3.538   1.734   6.895
 3394SOL    HW210719   3.475   1.817   7.004
 3395SOL     OW10720   3.707   0.157   6.543
 3395SOL    HW110721   3.707   0.062   6.531
 3395SOL    HW210722   3.621   0.185   6.514
 3396SOL     OW10723   2.124   0.329   6.305
 3396SOL    HW110724   2.036   0.360   6.283
 3396SOL    HW210725   2.122   0.317   6.400
 3397SOL     OW10726   3.069   1.606   5.617
 3397SOL    HW110727   3.059   1.515   5.644
 3397SOL    HW210728   3.004   1.618   5.548
 3398SOL     OW10729   2.686   1.006   6.958
 3398SOL    HW110730   2.730   1.002   6.873
 3398SOL    HW210731   2.686   1.099   6.980
 3399SOL     OW10732   2.778   0.910   5.876
 3399SOL    HW110733   2.839   0.942   5.810
 3399SOL    HW210734   2.826   0.841   5.921
 3400SOL     OW10735   3.354   1.625   5.629
 3400SOL    HW110736   3.259   1.619   5.615
 3400SOL    HW210737   3.390   1.631   5.540
 3401SOL     OW10738   2.230   1.303   7.078
 3401SOL    HW110739   2.218   1.380   7.023
 3401SOL    HW210740   2.154   1.248   7.061
 3402SOL     OW10741   3.473   1.283   6.866
 3402SOL    HW110742   3.532   1.272   6.941
 3402SOL    HW210743   3.412   1.352   6.894
 3403SOL     OW10744   2.914   1.107   6.293
 3403SOL    HW110745   2.843   1.056   6.332
 3403SOL    HW210746   2.976   1.042   6.261
 3404SOL     OW10747   2.881   0.243   6.554
 3404SOL    HW110748   2.861   0.197   6.472
 3404SOL    HW210749   2.874   0.176   6.622
 3405SOL     OW10750   2.464   1.488   6.067
 3405SOL    HW110751   2.509   1.438   5.999
 3405SOL    HW210752   2.397   1.538   6.021
 3406SOL     OW10753   3.586   0.386   6.964
 3406SOL    HW110754   3.656   0.452   6.964
 3406SOL    HW210755   3.618   0.317   6.907
 3407SOL     OW10756   2.121   1.345   5.874
 3407SOL    HW110757   2.028   1.343   5.852
 3407SOL    HW210758   2.124   1.382   5.962
 3408SOL     OW10759   1.975   1.021   7.305
 3408SOL    HW110760   1.898   0.999   7.358
 3408SOL    HW210761   2.049   0.984   7.353
 3409SOL     OW10762   2.534   0.212   7.076
 3409SOL    HW110763   2.618   0.195   7.031
 3409SOL    HW210764   2.558   0.261   7.154
 3410SOL     OW10765   1.939   0.339   5.627
 3410SOL    HW110766   1.856   0.306   5.594
 3410SOL    HW210767   1.961   0.412   5.570
 3411SOL     OW10768   3.292   0.858   6.986
 3411SOL    HW110769   3.243   0.919   6.931
 3411SOL    HW210770   3.381   0.861   6.952
 3412SOL     OW10771   1.934   0.167   5.901
 3412SOL    HW110772   1.935   0.250   5.853
 3412SOL    HW210773   2.018   0.126   5.881
 3413SOL     OW10774   3.041   1.339   5.703
 3413SOL    HW110775   2.950   1.310   5.705
 3413SOL    HW210776   3.069   1.339   5.794
 3414SOL     OW10777   2.481   0.831   7.019
 3414SOL    HW110778   2.537   0.907   7.004
 3414SOL    HW210779   2.543   0.758   7.028
 3415SOL     OW10780   3.346   1.776   6.564
 3415SOL    HW110781   3.369   1.836   6.494
 3415SOL    HW210782   3.429   1.758   6.609
 3416SOL     OW10783   2.576   0.573   7.289
 3416SOL    HW110784   2.618   0.635   7.348
 3416SOL    HW210785   2.607   0.487   7.319
 3417SOL     OW10786   3.333   1.200   7.218
 3417SOL    HW110787   3.321   1.213   7.312
 3417SOL    HW210788   3.426   1.215   7.204
 3418SOL     OW10789   2.240   1.739   7.149
 3418SOL    HW110790   2.155   1.781   7.136
 3418SOL    HW210791   2.220   1.656   7.191
 3419SOL     OW10792   3.532   0.881   6.841
 3419SOL    HW110793   3.525   0.796   6.798
 3419SOL    HW210794   3.522   0.945   6.770
 3420SOL     OW10795   3.082   0.319   6.052
 3420SOL    HW110796   3.145   0.247   6.045
 3420SOL    HW210797   3.113   0.371   6.126
 3421SOL     OW10798   2.451   0.738   6.256
 3421SOL    HW110799   2.491   0.824   6.240
 3421SOL    HW210800   2.384   0.730   6.189
 3422SOL     OW10801   3.628   0.361   7.236
 3422SOL    HW110802   3.609   0.376   7.143
 3422SOL    HW210803   3.556   0.306   7.266
 3423SOL     OW10804   3.607   0.933   7.098
 3423SOL    HW110805   3.604   1.028   7.112
 3423SOL    HW210806   3.592   0.922   7.004
 3424SOL     OW10807   2.725   1.368   5.620
 3424SOL    HW110808   2.686   1.396   5.703
 3424SOL    HW210809   2.742   1.449   5.573
 3425SOL     OW10810   2.523   1.790   6.532
 3425SOL    HW110811   2.503   1.880   6.506
 3425SOL    HW210812   2.618   1.783   6.524
 3426SOL     OW10813   2.729   0.967   6.441
 3426SOL    HW110814   2.780   0.896   6.481
 3426SOL    HW210815   2.695   1.016   6.516
 3427SOL     OW10816   2.941   0.988   5.675
 3427SOL    HW110817   2.919   1.039   5.597
 3427SOL    HW210818   3.016   0.935   5.649
 3428SOL     OW10819   3.716   1.554   6.430
 3428SOL    HW110820   3.638   1.543   6.376
 3428SOL    HW210821   3.707   1.488   6.499
 3429SOL     OW10822   2.087   1.303   7.443
 3429SOL    HW110823   2.020   1.243   7.412
 3429SOL    HW210824   2.067   1.317   7.535
 3430SOL     OW10825   1.946   1.233   6.251
 3430SOL    HW110826   1.952   1.185   6.333
 3430SOL    HW210827   2.014   1.196   6.195
 3431SOL     OW10828   2.542   1.402   7.213
 3431SOL    HW110829   2.463   1.360   7.245
 3431SOL    HW210830   2.539   1.491   7.250
 3432SOL     OW10831   3.676   0.177   6.819
 3432SOL    HW110832   3.642   0.087   6.824
 3432SOL    HW210833   3.695   0.190   6.726
 3433SOL     OW10834   2.291   0.435   6.110
 3433SOL    HW110835   2.324   0.363   6.057
 3433SOL    HW210836   2.245   0.393   6.182
 3434SOL     OW10837   3.562   1.489   6.682
 3434SOL    HW110838   3.481   1.466   6.636
 3434SOL    HW210839   3.573   1.420   6.748
 3435SOL     OW10840   2.190   0.556   6.877
 3435SOL    HW110841   2.247   0.501   6.931
 3435SOL    HW210842   2.211   0.529   6.787
 3436SOL     OW10843   2.690   1.578   6.263
 3436SOL    HW110844   2.677   1.633   6.186
 3436SOL    HW210845   2.613   1.521   6.265
 3437SOL     OW10846   3.290   0.218   6.703
 3437SOL    HW110847   3.326   0.144   6.751
 3437SOL    HW210848   3.241   0.268   6.768
 3438SOL     OW10849   2.865   0.021   6.726
 3438SOL    HW110850   2.814   5.252   6.684
 3438SOL    HW210851   2.951   5.283   6.740
 3439SOL     OW10852   2.634   1.332   5.901
 3439SOL    HW110853   2.603   1.242   5.907
 3439SOL    HW210854   2.716   1.333   5.950
 3440SOL     OW10855   2.481   1.556   6.870
 3440SOL    HW110856   2.484   1.638   6.920
 3440SOL    HW210857   2.569   1.548   6.833
 3441SOL     OW10858   3.218   0.039   5.748
 3441SOL    HW110859   3.250   5.295   5.669
 3441SOL    HW210860   3.138   5.291   5.770
 3442SOL     OW10861   3.163   0.464   6.271
 3442SOL    HW110862   3.108   0.542   6.276
 3442SOL    HW210863   3.156   0.424   6.357
 3443SOL     OW10864   3.456   0.215   6.468
 3443SOL    HW110865   3.390   0.227   6.536
 3443SOL    HW210866   3.449   0.294   6.414
 3444SOL     OW10867   1.905   1.071   5.892
 3444SOL    HW110868   1.999   1.063   5.875
 3444SOL    HW210869   1.877   0.982   5.915
 3445SOL     OW10870   2.746   1.652   5.927
 3445SOL    HW110871   2.674   1.635   5.867
 3445SOL    HW210872   2.717   1.726   5.980
 3446SOL     OW10873   2.089   0.620   7.572
 3446SOL    HW110874   1.999   0.628   7.603
 3446SOL    HW210875   2.080   0.597   7.479
 3447SOL     OW10876   3.630   0.598   7.679
 3447SOL    HW110877   3.609   0.593   7.586
 3447SOL    HW210878   3.588   0.520   7.717
 3448SOL     OW10879   2.082   1.717   7.918
 3448SOL    HW110880   2.112   1.759   8.000
 3448SOL    HW210881   2.161   1.715   7.864
 3449SOL     OW10882   2.079   1.438   7.991
 3449SOL    HW110883   2.064   1.533   7.990
 3449SOL    HW210884   2.020   1.405   8.058
 3450SOL     OW10885   2.448   0.982   7.579
 3450SOL    HW110886   2.492   1.031   7.510
 3450SOL    HW210887   2.487   1.014   7.661
 3451SOL     OW10888   3.699   1.759   7.797
 3451SOL    HW110889   3.770   1.729   7.854
 3451SOL    HW210890   3.725   1.848   7.772
 3452SOL     OW10891   1.892   1.599   7.578
 3452SOL    HW110892   1.876   1.506   7.593
 3452SOL    HW210893   1.865   1.641   7.659
 3453SOL     OW10894   3.546   0.866   8.033
 3453SOL    HW110895   3.625   0.878   0.005
 3453SOL    HW210896   3.532   0.950   7.990
 3454SOL     OW10897   3.517   1.098   7.877
 3454SOL    HW110898   3.604   1.125   7.848
 3454SOL    HW210899   3.488   1.170   7.934
 3455SOL     OW10900   2.672   5.289   7.944
 3455SOL    HW110901   2.714   0.074   7.930
 3455SOL    HW210902   2.579   0.009   7.942
 3456SOL     OW10903   3.395   0.994   7.649
 3456SOL    HW110904   3.328   0.936   7.683
 3456SOL    HW210905   3.438   1.029   7.727
 3457SOL     OW10906   2.452   0.724   7.708
 3457SOL    HW110907   2.457   0.806   7.659
 3457SOL    HW210908   2.392   0.743   7.780
 3458SOL     OW10909   3.437   1.671   7.757
 3458SOL    HW110910   3.528   1.700   7.765
 3458SOL    HW210911   3.424   1.658   7.663
 3459SOL     OW10912   1.922   0.863   0.089
 3459SOL    HW110913   1.986   0.797   0.115
 3459SOL    HW210914   1.918   0.924   0.163
 3460SOL     OW10915   2.732   0.357   7.631
 3460SOL    HW110916   2.777   0.421   7.575
 3460SOL    HW210917   2.794   0.285   7.640
 3461SOL     OW10918   2.185   0.957   7.697
 3461SOL    HW110919   2.265   0.974   7.648
 3461SOL    HW210920   2.149   0.878   7.657
 3462SOL     OW10921   2.986   1.775   7.683
 3462SOL    HW110922   2.909   1.735   7.723
 3462SOL    HW210923   3.010   1.715   7.612
 3463SOL     OW10924   3.491   1.380   7.533
 3463SOL    HW110925   3.448   1.465   7.520
 3463SOL    HW210926   3.422   1.316   7.516
 3464SOL     OW10927   2.329   1.736   7.771
 3464SOL    HW110928   2.378   1.791   7.832
 3464SOL    HW210929   2.395   1.702   7.710
 3465SOL     OW10930   3.272   0.106   7.882
 3465SOL    HW110931   3.267   0.083   7.790
 3465SOL    HW210932   3.366   0.112   7.901
 3466SOL     OW10933   2.252   0.696   7.918
 3466SOL    HW110934   2.258   0.601   7.926
 3466SOL    HW210935   2.162   0.717   7.941
 3467SOL     OW10936   2.481   0.131   7.560
 3467SOL    HW110937   2.552   0.071   7.579
 3467SOL    HW210938   2.433   0.090   7.487
 3468SOL     OW10939   2.409   0.064   7.952
 3468SOL    HW110940   2.318   0.047   7.974
 3468SOL    HW210941   2.406   0.137   7.890
 3469SOL     OW10942   3.290   1.198   7.489
 3469SOL    HW110943   3.321   1.124   7.542
 3469SOL    HW210944   3.206   1.221   7.527
 3470SOL     OW10945   2.166   0.073   7.660
 3470SOL    HW110946   2.217   0.130   7.603
 3470SOL    HW210947   2.215   5.290   7.660
 3471SOL     OW10948   2.812   0.227   7.907
 3471SOL    HW110949   2.761   0.299   7.868
 3471SOL    HW210950   2.900   0.263   7.917
 3472SOL     OW10951   2.303   1.151   0.099
 3472SOL    HW110952   2.227   1.186   0.145
 3472SOL    HW210953   2.272   1.137   0.009
 3473SOL     OW10954   3.153   1.812   8.014
 3473SOL    HW110955   3.189   1.880   7.958
 3473SOL    HW210956   3.068   1.845   8.042
 3474SOL     OW10957   2.889   0.546   7.467
 3474SOL    HW110958   2.845   0.630   7.452
 3474SOL    HW210959   2.948   0.564   7.541
 3475SOL     OW10960   3.735   0.816   7.801
 3475SOL    HW110961   3.726   0.791   7.893
 3475SOL    HW210962   3.694   0.745   7.752
 3476SOL     OW10963   2.350   1.416   7.605
 3476SOL    HW110964   2.276   1.387   7.657
 3476SOL    HW210965   2.335   1.377   7.518
 3477SOL     OW10966   3.255   0.572   7.519
 3477SOL    HW110967   3.193   0.552   7.589
 3477SOL    HW210968   3.339   0.539   7.552
 3478SOL     OW10969   2.386   0.271   7.773
 3478SOL    HW110970   2.428   0.218   7.705
 3478SOL    HW210971   2.365   0.354   7.730
 3479SOL     OW10972   2.574   1.063   7.811
 3479SOL    HW110973   2.549   1.048   7.902
 3479SOL    HW210974   2.652   1.009   7.799
 3480SOL     OW10975   2.227   1.102   7.927
 3480SOL    HW110976   2.209   1.181   7.876
 3480SOL    HW210977   2.214   1.030   7.865
 3481SOL     OW10978   3.086   1.356   7.821
 3481SOL    HW110979   3.147   1.425   7.846
 3481SOL    HW210980   3.047   1.328   7.903
 3482SOL     OW10981   3.451   0.626   7.921
 3482SOL    HW110982   3.435   0.684   7.996
 3482SOL    HW210983   3.488   0.683   7.854
 3483SOL     OW10984   3.065   0.526   7.715
 3483SOL    HW110985   3.066   0.439   7.755
 3483SOL    HW210986   3.043   0.585   7.787
 3484SOL     OW10987   3.479   0.376   7.814
 3484SOL    HW110988   3.499   0.308   7.878
 3484SOL    HW210989   3.455   0.453   7.866
 3485SOL     OW10990   3.391   0.273   7.575
 3485SOL    HW110991   3.328   0.207   7.605
 3485SOL    HW210992   3.426   0.310   7.656
 3486SOL     OW10993   3.156   0.828   7.481
 3486SOL    HW110994   3.197   0.741   7.483
 3486SOL    HW210995   3.186   0.867   7.399
 3487SOL     OW10996   1.868   1.324   7.640
 3487SOL    HW110997   1.780   1.337   7.603
 3487SOL    HW210998   1.867   1.235   7.674
 3488SOL     OW10999   2.699   0.601   7.764
 3488SOL    HW111000   2.690   0.511   7.734
 3488SOL    HW211001   2.610   0.636   7.763
 3489SOL     OW11002   2.322   0.494   7.637
 3489SOL    HW111003   2.382   0.567   7.654
 3489SOL    HW211004   2.238   0.536   7.622
 3490SOL     OW11005   3.173   0.852   7.755
 3490SOL    HW111006   3.087   0.855   7.795
 3490SOL    HW211007   3.156   0.841   7.661
 3491SOL     OW11008   3.571   0.131   7.945
 3491SOL    HW111009   3.646   0.131   7.885
 3491SOL    HW211010   3.603   0.084   8.023
 3492SOL     OW11011   3.226   1.577   7.896
 3492SOL    HW111012   3.301   1.597   7.840
 3492SOL    HW211013   3.194   1.662   7.926
 3493SOL     OW11014   2.529   1.619   7.604
 3493SOL    HW111015   2.541   1.632   7.510
 3493SOL    HW211016   2.477   1.539   7.611
 3494SOL     OW11017   3.071   1.607   7.478
 3494SOL    HW111018   3.060   1.516   7.505
 3494SOL    HW211019   3.005   1.620   7.411
 3495SOL     OW11020   2.789   0.909   7.757
 3495SOL    HW111021   2.842   0.934   7.681
 3495SOL    HW211022   2.783   0.814   7.752
 3496SOL     OW11023   3.355   1.626   7.489
 3496SOL    HW111024   3.261   1.619   7.477
 3496SOL    HW211025   3.390   1.631   7.400
 3497SOL     OW11026   2.469   1.508   7.936
 3497SOL    HW111027   2.514   1.446   7.878
 3497SOL    HW211028   2.396   1.541   7.884
 3498SOL     OW11029   2.120   1.346   7.741
 3498SOL    HW111030   2.028   1.344   7.716
 3498SOL    HW211031   2.119   1.382   7.830
 3499SOL     OW11032   1.937   0.338   7.489
 3499SOL    HW111033   1.854   0.307   7.452
 3499SOL    HW211034   1.961   0.413   7.435
 3500SOL     OW11035   1.925   0.182   7.745
 3500SOL    HW111036   1.923   0.258   7.686
 3500SOL    HW211037   2.006   0.136   7.722
 3501SOL     OW11038   3.038   1.338   7.556
 3501SOL    HW111039   2.946   1.313   7.556
 3501SOL    HW211040   3.062   1.345   7.648
 3502SOL     OW11041   3.084   0.319   7.917
 3502SOL    HW111042   3.150   0.250   7.910
 3502SOL    HW211043   3.108   0.367   7.996
 3503SOL     OW11044   2.487   0.735   8.056
 3503SOL    HW111045   2.492   0.818   0.024
 3503SOL    HW211046   2.400   0.736   8.016
 3504SOL     OW11047   2.724   1.367   7.482
 3504SOL    HW111048   2.686   1.396   7.566
 3504SOL    HW211049   2.743   1.449   7.436
 3505SOL     OW11050   2.934   0.978   7.537
 3505SOL    HW111051   2.916   1.035   7.463
 3505SOL    HW211052   3.013   0.930   7.512
 3506SOL     OW11053   2.250   0.421   7.985
 3506SOL    HW111054   2.303   0.369   7.924
 3506SOL    HW211055   2.299   0.419   8.067
 3507SOL     OW11056   2.628   1.335   7.762
 3507SOL    HW111057   2.597   1.245   7.762
 3507SOL    HW211058   2.710   1.333   7.810
 3508SOL     OW11059   3.228   0.037   7.611
 3508SOL    HW111060   3.239   5.289   7.529
 3508SOL    HW211061   3.143   0.008   7.645
 3509SOL     OW11062   1.913   1.079   7.749
 3509SOL    HW111063   2.007   1.068   7.736
 3509SOL    HW211064   1.882   0.990   7.765
 3510SOL     OW11065   2.755   1.652   7.781
 3510SOL    HW111066   2.678   1.628   7.728
 3510SOL    HW211067   2.721   1.715   7.845
 3511SOL     OW11068   2.085   2.482   0.124
 3511SOL    HW111069   2.002   2.454   0.162
 3511SOL    HW211070   2.097   2.423   0.049
 3512SOL     OW11071   2.086   2.141   0.991
 3512SOL    HW111072   2.114   2.106   1.076
 3512SOL    HW211073   1.996   2.109   0.981
 3513SOL     OW11074   1.866   2.244   0.638
 3513SOL    HW111075   1.783   2.270   0.680
 3513SOL    HW211076   1.843   2.164   0.590
 3514SOL     OW11077   2.428   3.149   1.176
 3514SOL    HW111078   2.341   3.155   1.136
 3514SOL    HW211079   2.444   3.237   1.211
 3515SOL     OW11080   3.422   3.374   0.707
 3515SOL    HW111081   3.380   3.355   0.791
 3515SOL    HW211082   3.350   3.378   0.644
 3516SOL     OW11083   3.026   2.540   0.738
 3516SOL    HW111084   3.045   2.628   0.706
 3516SOL    HW211085   2.939   2.548   0.779
 3517SOL     OW11086   3.630   2.463   0.233
 3517SOL    HW111087   3.594   2.464   0.145
 3517SOL    HW211088   3.591   2.385   0.274
 3518SOL     OW11089   2.633   3.021   1.040
 3518SOL    HW111090   2.555   3.039   1.092
 3518SOL    HW211091   2.654   3.104   0.998
 3519SOL     OW11092   2.569   3.025   1.824
 3519SOL    HW111093   2.622   3.103   1.837
 3519SOL    HW211094   2.492   3.056   1.775
 3520SOL     OW11095   2.191   3.290   1.067
 3520SOL    HW111096   2.120   3.251   1.017
 3520SOL    HW211097   2.242   3.339   1.003
 3521SOL     OW11098   3.323   3.361   1.355
 3521SOL    HW111099   3.373   3.442   1.364
 3521SOL    HW211100   3.260   3.363   1.427
 3522SOL     OW11101   2.313   2.264   1.500
 3522SOL    HW111102   2.388   2.206   1.496
 3522SOL    HW211103   2.237   2.206   1.508
 3523SOL     OW11104   3.475   2.310   0.740
 3523SOL    HW111105   3.398   2.332   0.687
 3523SOL    HW211106   3.487   2.386   0.797
 3524SOL     OW11107   2.082   3.577   0.471
 3524SOL    HW111108   2.103   3.653   0.525
 3524SOL    HW211109   2.157   3.568   0.412
 3525SOL     OW11110   3.000   3.205   1.694
 3525SOL    HW111111   3.040   3.199   1.781
 3525SOL    HW211112   2.948   3.125   1.686
 3526SOL     OW11113   2.087   3.304   0.534
 3526SOL    HW111114   2.075   3.399   0.536
 3526SOL    HW211115   2.028   3.271   0.601
 3527SOL     OW11116   2.115   2.952   0.887
 3527SOL    HW111117   2.113   2.868   0.931
 3527SOL    HW211118   2.062   3.009   0.942
 3528SOL     OW11119   2.473   3.654   1.430
 3528SOL    HW111120   2.392   3.636   1.476
 3528SOL    HW211121   2.496   3.744   1.455
 3529SOL     OW11122   2.467   2.855   0.104
 3529SOL    HW111123   2.419   2.937   0.093
 3529SOL    HW211124   2.506   2.862   0.192
 3530SOL     OW11125   3.457   1.985   1.468
 3530SOL    HW111126   3.466   2.066   1.417
 3530SOL    HW211127   3.444   2.015   1.558
 3531SOL     OW11128   1.978   2.510   0.564
 3531SOL    HW111129   1.943   2.424   0.585
 3531SOL    HW211130   1.968   2.561   0.645
 3532SOL     OW11131   3.708   3.620   0.331
 3532SOL    HW111132   3.772   3.590   0.396
 3532SOL    HW211133   3.732   3.711   0.314
 3533SOL     OW11134   1.891   3.458   0.111
 3533SOL    HW111135   1.878   3.370   0.145
 3533SOL    HW211136   1.875   3.516   0.186
 3534SOL     OW11137   3.550   2.780   0.643
 3534SOL    HW111138   3.633   2.738   0.623
 3534SOL    HW211139   3.529   2.832   0.565
 3535SOL     OW11140   3.508   2.967   0.435
 3535SOL    HW111141   3.588   2.981   0.384
 3535SOL    HW211142   3.514   3.029   0.507
 3536SOL     OW11143   1.981   2.604   1.586
 3536SOL    HW111144   2.071   2.631   1.600
 3536SOL    HW211145   1.930   2.686   1.593
 3537SOL     OW11146   2.478   3.247   0.735
 3537SOL    HW111147   2.433   3.164   0.745
 3537SOL    HW211148   2.459   3.274   0.645
 3538SOL     OW11149   3.150   3.098   1.425
 3538SOL    HW111150   3.183   3.032   1.364
 3538SOL    HW211151   3.210   3.093   1.501
 3539SOL     OW11152   2.678   1.866   0.511
 3539SOL    HW111153   2.716   1.951   0.489
 3539SOL    HW211154   2.584   1.883   0.519
 3540SOL     OW11155   2.046   2.832   1.271
 3540SOL    HW111156   2.130   2.788   1.257
 3540SOL    HW211157   1.983   2.777   1.224
 3541SOL     OW11158   3.368   2.870   0.214
 3541SOL    HW111159   3.320   2.792   0.244
 3541SOL    HW211160   3.423   2.894   0.289
 3542SOL     OW11161   3.047   3.668   1.622
 3542SOL    HW111162   3.058   3.727   1.548
 3542SOL    HW211163   3.063   3.581   1.586
 3543SOL     OW11164   2.193   2.110   1.810
 3543SOL    HW111165   2.238   2.193   1.824
 3543SOL    HW211166   2.104   2.125   1.843
 3544SOL     OW11167   3.329   3.282   0.952
 3544SOL    HW111168   3.261   3.297   1.018
 3544SOL    HW211169   3.317   3.191   0.926
 3545SOL     OW11170   3.521   3.602   0.581
 3545SOL    HW111171   3.500   3.574   0.492
 3545SOL    HW211172   3.496   3.528   0.636
 3546SOL     OW11173   3.143   2.211   0.932
 3546SOL    HW111174   3.054   2.179   0.941
 3546SOL    HW211175   3.194   2.159   0.995
 3547SOL     OW11176   3.449   3.532   0.319
 3547SOL    HW111177   3.540   3.562   0.312
 3547SOL    HW211178   3.422   3.516   0.229
 3548SOL     OW11179   3.257   2.336   1.677
 3548SOL    HW111180   3.257   2.381   1.761
 3548SOL    HW211181   3.317   2.263   1.687
 3549SOL     OW11182   2.850   2.272   1.248
 3549SOL    HW111183   2.761   2.283   1.282
 3549SOL    HW211184   2.838   2.240   1.159
 3550SOL     OW11185   1.951   2.683   0.776
 3550SOL    HW111186   2.031   2.677   0.827
 3550SOL    HW211187   1.906   2.760   0.810
 3551SOL     OW11188   1.989   3.710   1.578
 3551SOL    HW111189   1.989   3.689   1.671
 3551SOL    HW211190   1.897   3.702   1.552
 3552SOL     OW11191   2.749   2.220   0.208
 3552SOL    HW111192   2.799   2.267   0.141
 3552SOL    HW211193   2.747   2.129   0.176
 3553SOL     OW11194   3.569   2.436   1.828
 3553SOL    HW111195   3.532   2.510   1.780
 3553SOL    HW211196   3.598   2.376   1.760
 3554SOL     OW11197   3.235   2.999   0.537
 3554SOL    HW111198   3.317   2.991   0.489
 3554SOL    HW211199   3.186   3.066   0.491
 3555SOL     OW11200   2.410   2.040   0.889
 3555SOL    HW111201   2.411   2.064   0.981
 3555SOL    HW211202   2.409   2.123   0.842
 3556SOL     OW11203   2.865   3.306   0.473
 3556SOL    HW111204   2.829   3.379   0.422
 3556SOL    HW211205   2.847   3.329   0.564
 3557SOL     OW11206   2.217   3.671   0.862
 3557SOL    HW111207   2.260   3.586   0.870
 3557SOL    HW211208   2.285   3.735   0.880
 3558SOL     OW11209   3.661   2.918   0.869
 3558SOL    HW111210   3.606   2.901   0.793
 3558SOL    HW211211   3.600   2.924   0.942
 3559SOL     OW11212   3.089   3.400   1.512
 3559SOL    HW111213   3.076   3.328   1.574
 3559SOL    HW211214   3.026   3.384   1.442
 3560SOL     OW11215   2.195   2.809   0.246
 3560SOL    HW111216   2.272   2.830   0.193
 3560SOL    HW211217   2.192   2.713   0.247
 3561SOL     OW11218   3.337   2.609   0.726
 3561SOL    HW111219   3.329   2.563   0.810
 3561SOL    HW211220   3.417   2.661   0.735
 3562SOL     OW11221   2.326   3.128   1.737
 3562SOL    HW111222   2.299   3.132   1.645
 3562SOL    HW211223   2.244   3.126   1.787
 3563SOL     OW11224   2.970   3.643   0.224
 3563SOL    HW111225   2.913   3.603   0.290
 3563SOL    HW211226   2.990   3.572   0.164
 3564SOL     OW11227   2.063   2.145   1.502
 3564SOL    HW111228   1.979   2.190   1.496
 3564SOL    HW211229   2.047   2.071   1.561
 3565SOL     OW11230   3.495   3.235   0.083
 3565SOL    HW111231   3.455   3.321   0.082
 3565SOL    HW211232   3.424   3.174   0.064
 3566SOL     OW11233   2.326   3.600   0.324
 3566SOL    HW111234   2.369   3.659   0.386
 3566SOL    HW211235   2.396   3.574   0.264
 3567SOL     OW11236   3.269   1.973   0.444
 3567SOL    HW111237   3.260   1.951   0.351
 3567SOL    HW211238   3.363   1.980   0.458
 3568SOL     OW11239   2.117   3.653   1.232
 3568SOL    HW111240   2.169   3.588   1.278
 3568SOL    HW211241   2.109   3.618   1.143
 3569SOL     OW11242   2.798   3.563   0.898
 3569SOL    HW111243   2.873   3.509   0.925
 3569SOL    HW211244   2.755   3.512   0.830
 3570SOL     OW11245   2.242   2.552   0.465
 3570SOL    HW111246   2.274   2.465   0.489
 3570SOL    HW211247   2.152   2.554   0.497
 3571SOL     OW11248   3.397   2.087   1.725
 3571SOL    HW111249   3.406   2.108   1.818
 3571SOL    HW211250   3.328   2.021   1.722
 3572SOL     OW11251   2.491   1.976   0.135
 3572SOL    HW111252   2.586   1.963   0.143
 3572SOL    HW211253   2.471   1.953   0.045
 3573SOL     OW11254   2.619   2.114   1.746
 3573SOL    HW111255   2.702   2.067   1.751
 3573SOL    HW211256   2.603   2.147   1.834
 3574SOL     OW11257   2.739   3.386   1.194
 3574SOL    HW111258   2.722   3.350   1.107
 3574SOL    HW211259   2.806   3.329   1.232
 3575SOL     OW11260   3.210   2.451   1.428
 3575SOL    HW111261   3.237   2.419   1.514
 3575SOL    HW211262   3.246   2.540   1.423
 3576SOL     OW11263   2.678   3.270   0.936
 3576SOL    HW111264   2.761   3.252   0.893
 3576SOL    HW211265   2.613   3.264   0.866
 3577SOL     OW11266   2.777   2.351   0.899
 3577SOL    HW111267   2.762   2.337   0.806
 3577SOL    HW211268   2.826   2.274   0.927
 3578SOL     OW11269   2.412   1.926   0.505
 3578SOL    HW111270   2.331   1.924   0.557
 3578SOL    HW211271   2.404   2.004   0.451
 3579SOL     OW11272   3.295   3.061   0.035
 3579SOL    HW111273   3.318   2.988   0.092
 3579SOL    HW211274   3.207   3.087   0.063
 3580SOL     OW11275   2.172   1.918   0.170
 3580SOL    HW111276   2.238   1.985   0.186
 3580SOL    HW211277   2.208   1.839   0.211
 3581SOL     OW11278   2.801   2.112   0.459
 3581SOL    HW111279   2.775   2.151   0.375
 3581SOL    HW211280   2.896   2.123   0.462
 3582SOL     OW11281   2.943   2.520   1.462
 3582SOL    HW111282   2.899   2.439   1.436
 3582SOL    HW211283   3.035   2.504   1.443
 3583SOL     OW11284   3.088   3.429   0.792
 3583SOL    HW111285   3.101   3.498   0.727
 3583SOL    HW211286   3.153   3.446   0.860
 3584SOL     OW11287   2.329   3.018   0.731
 3584SOL    HW111288   2.262   2.994   0.794
 3584SOL    HW211289   2.293   2.993   0.646
 3585SOL     OW11290   3.130   3.656   0.607
 3585SOL    HW111291   3.179   3.719   0.555
 3585SOL    HW211292   3.063   3.708   0.652
 3586SOL     OW11293   2.917   2.371   0.027
 3586SOL    HW111294   2.872   2.452   0.003
 3586SOL    HW211295   2.976   2.396   0.098
 3587SOL     OW11296   1.942   2.417   1.391
 3587SOL    HW111297   2.034   2.415   1.366
 3587SOL    HW211298   1.935   2.487   1.455
 3588SOL     OW11299   2.417   2.075   1.160
 3588SOL    HW111300   2.459   2.000   1.202
 3588SOL    HW211301   2.327   2.074   1.193
 3589SOL     OW11302   2.718   2.308   0.640
 3589SOL    HW111303   2.728   2.382   0.580
 3589SOL    HW211304   2.743   2.231   0.588
 3590SOL     OW11305   2.876   1.914   0.750
 3590SOL    HW111306   2.817   1.906   0.675
 3590SOL    HW211307   2.855   1.839   0.805
 3591SOL     OW11308   3.301   3.025   0.858
 3591SOL    HW111309   3.233   2.958   0.855
 3591SOL    HW211310   3.327   3.037   0.767
 3592SOL     OW11311   3.331   2.467   0.975
 3592SOL    HW111312   3.277   2.388   0.979
 3592SOL    HW211313   3.389   2.460   1.051
 3593SOL     OW11314   3.709   2.677   0.388
 3593SOL    HW111315   3.762   2.624   0.448
 3593SOL    HW211316   3.679   2.615   0.322
 3594SOL     OW11317   2.341   3.306   0.176
 3594SOL    HW111318   2.271   3.264   0.226
 3594SOL    HW211319   2.351   3.252   0.098
 3595SOL     OW11320   3.531   3.127   0.648
 3595SOL    HW111321   3.626   3.130   0.661
 3595SOL    HW211322   3.502   3.215   0.668
 3596SOL     OW11323   3.259   2.440   0.087
 3596SOL    HW111324   3.198   2.418   0.157
 3596SOL    HW211325   3.316   2.363   0.080
 3597SOL     OW11326   2.377   2.128   0.324
 3597SOL    HW111327   2.427   2.075   0.262
 3597SOL    HW211328   2.366   2.212   0.280
 3598SOL     OW11329   3.615   3.101   1.573
 3598SOL    HW111330   3.702   3.062   1.569
 3598SOL    HW211331   3.630   3.191   1.602
 3599SOL     OW11332   2.923   3.219   1.335
 3599SOL    HW111333   2.847   3.187   1.382
 3599SOL    HW211334   2.997   3.175   1.376
 3600SOL     OW11335   3.470   3.487   1.654
 3600SOL    HW111336   3.464   3.522   1.565
 3600SOL    HW211337   3.553   3.440   1.656
 3601SOL     OW11338   2.991   3.064   1.104
 3601SOL    HW111339   2.927   3.091   1.170
 3601SOL    HW211340   2.954   3.097   1.021
 3602SOL     OW11341   3.491   2.960   1.078
 3602SOL    HW111342   3.486   3.022   1.151
 3602SOL    HW211343   3.412   2.978   1.026
 3603SOL     OW11344   2.780   1.958   1.396
 3603SOL    HW111345   2.803   1.940   1.305
 3603SOL    HW211346   2.859   1.998   1.433
 3604SOL     OW11347   2.851   2.974   1.717
 3604SOL    HW111348   2.759   2.986   1.741
 3604SOL    HW211349   2.849   2.921   1.637
 3605SOL     OW11350   2.568   2.945   0.363
 3605SOL    HW111351   2.521   2.935   0.446
 3605SOL    HW211352   2.610   2.861   0.349
 3606SOL     OW11353   2.267   2.675   1.256
 3606SOL    HW111354   2.357   2.684   1.290
 3606SOL    HW211355   2.243   2.584   1.276
 3607SOL     OW11356   3.128   2.238   1.275
 3607SOL    HW111357   3.163   2.316   1.320
 3607SOL    HW211358   3.038   2.262   1.254
 3608SOL     OW11359   1.933   3.435   1.352
 3608SOL    HW111360   1.903   3.508   1.298
 3608SOL    HW211361   2.028   3.438   1.347
 3609SOL     OW11362   2.219   2.968   0.484
 3609SOL    HW111363   2.210   3.044   0.426
 3609SOL    HW211364   2.216   2.892   0.425
 3610SOL     OW11365   2.411   2.375   0.869
 3610SOL    HW111366   2.408   2.400   0.776
 3610SOL    HW211367   2.502   2.388   0.895
 3611SOL     OW11368   3.109   3.208   0.396
 3611SOL    HW111369   3.164   3.282   0.422
 3611SOL    HW211370   3.021   3.233   0.426
 3612SOL     OW11371   3.143   3.319   1.146
 3612SOL    HW111372   3.197   3.321   1.225
 3612SOL    HW211373   3.083   3.246   1.160
 3613SOL     OW11374   3.442   2.486   0.481
 3613SOL    HW111375   3.395   2.539   0.546
 3613SOL    HW211376   3.482   2.549   0.422
 3614SOL     OW11377   2.209   3.389   1.315
 3614SOL    HW111378   2.196   3.347   1.230
 3614SOL    HW211379   2.304   3.401   1.322
 3615SOL     OW11380   2.265   2.604   1.610
 3615SOL    HW111381   2.317   2.654   1.548
 3615SOL    HW211382   2.295   2.513   1.598
 3616SOL     OW11383   3.463   2.641   1.682
 3616SOL    HW111384   3.377   2.682   1.674
 3616SOL    HW211385   3.515   2.683   1.614
 3617SOL     OW11386   2.863   1.987   1.759
 3617SOL    HW111387   2.917   2.059   1.726
 3617SOL    HW211388   2.909   1.908   1.732
 3618SOL     OW11389   2.359   1.900   1.746
 3618SOL    HW111390   2.315   1.847   1.680
 3618SOL    HW211391   2.301   1.975   1.759
 3619SOL     OW11392   3.225   2.721   1.030
 3619SOL    HW111393   3.144   2.709   0.980
 3619SOL    HW211394   3.267   2.635   1.028
 3620SOL     OW11395   3.060   2.390   0.273
 3620SOL    HW111396   3.063   2.309   0.323
 3620SOL    HW211397   3.076   2.460   0.337
 3621SOL     OW11398   2.160   2.061   1.248
 3621SOL    HW111399   2.123   2.093   1.330
 3621SOL    HW211400   2.141   1.967   1.248
 3622SOL     OW11401   1.907   3.173   1.276
 3622SOL    HW111402   1.941   3.119   1.347
 3622SOL    HW211403   1.915   3.263   1.308
 3623SOL     OW11404   3.597   2.821   1.852
 3623SOL    HW111405   3.551   2.760   1.795
 3623SOL    HW211406   3.537   2.835   1.926
 3624SOL     OW11407   2.165   1.928   0.623
 3624SOL    HW111408   2.145   2.018   0.648
 3624SOL    HW211409   2.172   1.882   0.707
 3625SOL     OW11410   3.483   2.237   0.370
 3625SOL    HW111411   3.507   2.172   0.435
 3625SOL    HW211412   3.457   2.314   0.421
 3626SOL     OW11413   2.843   3.428   1.716
 3626SOL    HW111414   2.828   3.473   1.633
 3626SOL    HW211415   2.888   3.347   1.692
 3627SOL     OW11416   3.717   3.368   1.605
 3627SOL    HW111417   3.735   3.394   1.515
 3627SOL    HW211418   3.798   3.386   1.653
 3628SOL     OW11419   2.209   2.780   1.814
 3628SOL    HW111420   2.290   2.809   1.857
 3628SOL    HW211421   2.238   2.715   1.750
 3629SOL     OW11422   3.378   2.164   0.127
 3629SOL    HW111423   3.331   2.082   0.142
 3629SOL    HW211424   3.419   2.184   0.211
 3630SOL     OW11425   3.159   2.687   0.022
 3630SOL    HW111426   3.195   2.600   0.037
 3630SOL    HW211427   3.215   2.725   8.034
 3631SOL     OW11428   2.926   3.199   0.849
 3631SOL    HW111429   2.931   3.130   0.784
 3631SOL    HW211430   2.988   3.265   0.819
 3632SOL     OW11431   2.168   2.673   0.949
 3632SOL    HW111432   2.258   2.705   0.956
 3632SOL    HW211433   2.171   2.587   0.989
 3633SOL     OW11434   2.188   2.386   1.020
 3633SOL    HW111435   2.151   2.299   1.004
 3633SOL    HW211436   2.266   2.389   0.964
 3634SOL     OW11437   3.000   2.235   1.679
 3634SOL    HW111438   2.954   2.289   1.744
 3634SOL    HW211439   3.086   2.274   1.672
 3635SOL     OW11440   3.023   2.063   1.469
 3635SOL    HW111441   3.013   2.126   1.540
 3635SOL    HW211442   3.062   2.114   1.398
 3636SOL     OW11443   1.873   3.187   0.190
 3636SOL    HW111444   1.787   3.201   0.152
 3636SOL    HW211445   1.871   3.096   0.222
 3637SOL     OW11446   1.952   3.649   0.938
 3637SOL    HW111447   1.922   3.569   0.894
 3637SOL    HW211448   2.042   3.661   0.907
 3638SOL     OW11449   2.359   3.435   0.905
 3638SOL    HW111450   2.427   3.497   0.930
 3638SOL    HW211451   2.403   3.371   0.850
 3639SOL     OW11452   1.897   2.406   1.117
 3639SOL    HW111453   1.979   2.397   1.068
 3639SOL    HW211454   1.924   2.411   1.208
 3640SOL     OW11455   2.053   2.381   1.727
 3640SOL    HW111456   2.103   2.337   1.658
 3640SOL    HW211457   2.010   2.454   1.683
 3641SOL     OW11458   3.238   2.801   1.658
 3641SOL    HW111459   3.260   2.894   1.656
 3641SOL    HW211460   3.236   2.775   1.566
 3642SOL     OW11461   3.504   2.464   1.186
 3642SOL    HW111462   3.493   2.405   1.261
 3642SOL    HW211463   3.591   2.443   1.152
 3643SOL     OW11464   2.105   3.413   1.728
 3643SOL    HW111465   2.082   3.478   1.795
 3643SOL    HW211466   2.107   3.330   1.774
 3644SOL     OW11467   2.550   2.290   1.253
 3644SOL    HW111468   2.499   2.213   1.229
 3644SOL    HW211469   2.550   2.345   1.174
 3645SOL     OW11470   2.788   3.542   1.469
 3645SOL    HW111471   2.765   3.505   1.384
 3645SOL    HW211472   2.784   3.637   1.456
 3646SOL     OW11473   2.333   2.361   0.189
 3646SOL    HW111474   2.393   2.435   0.202
 3646SOL    HW211475   2.246   2.401   0.191
 3647SOL     OW11476   2.006   3.004   1.473
 3647SOL    HW111477   2.008   2.951   1.553
 3647SOL    HW211478   2.022   2.941   1.403
 3648SOL     OW11479   3.189   2.909   1.224
 3648SOL    HW111480   3.212   2.846   1.156
 3648SOL    HW211481   3.119   2.962   1.184
 3649SOL     OW11482   3.165   2.691   0.305
 3649SOL    HW111483   3.088   2.734   0.343
 3649SOL    HW211484   3.151   2.698   0.210
 3650SOL     OW11485   3.633   3.606   1.150
 3650SOL    HW111486   3.694   3.632   1.081
 3650SOL    HW211487   3.610   3.516   1.128
 3651SOL     OW11488   3.103   3.595   1.112
 3651SOL    HW111489   3.185   3.615   1.068
 3651SOL    HW211490   3.109   3.501   1.131
 3652SOL     OW11491   1.946   3.129   1.012
 3652SOL    HW111492   1.932   3.142   1.106
 3652SOL    HW211493   1.873   3.074   0.984
 3653SOL     OW11494   2.539   3.528   1.729
 3653SOL    HW111495   2.486   3.607   1.723
 3653SOL    HW211496   2.605   3.539   1.660
 3654SOL     OW11497   2.767   1.955   0.135
 3654SOL    HW111498   2.782   1.939   0.042
 3654SOL    HW211499   2.832   1.900   0.179
 3655SOL     OW11500   3.581   2.007   0.509
 3655SOL    HW111501   3.653   1.991   0.449
 3655SOL    HW211502   3.565   1.922   0.551
 3656SOL     OW11503   3.251   3.430   0.485
 3656SOL    HW111504   3.315   3.463   0.421
 3656SOL    HW211505   3.204   3.508   0.514
 3657SOL     OW11506   1.998   3.659   1.843
 3657SOL    HW111507   1.948   3.593   1.892
 3657SOL    HW211508   2.046   3.706   1.911
 3658SOL     OW11509   3.130   2.788   0.671
 3658SOL    HW111510   3.203   2.726   0.679
 3658SOL    HW211511   3.167   2.860   0.619
 3659SOL     OW11512   2.688   3.138   1.436
 3659SOL    HW111513   2.646   3.181   1.511
 3659SOL    HW211514   2.617   3.124   1.374
 3660SOL     OW11515   2.539   3.484   0.155
 3660SOL    HW111516   2.544   3.490   0.059
 3660SOL    HW211517   2.477   3.413   0.171
 3661SOL     OW11518   3.488   3.589   1.391
 3661SOL    HW111519   3.538   3.596   1.310
 3661SOL    HW211520   3.474   3.679   1.419
 3662SOL     OW11521   3.703   2.035   0.967
 3662SOL    HW111522   3.732   1.948   0.940
 3662SOL    HW211523   3.616   2.045   0.927
 3663SOL     OW11524   2.124   2.181   0.717
 3663SOL    HW111525   2.037   2.213   0.693
 3663SOL    HW211526   2.120   2.170   0.812
 3664SOL     OW11527   3.020   3.444   0.052
 3664SOL    HW111528   3.035   3.352   0.071
 3664SOL    HW211529   3.029   3.450   8.037
 3665SOL     OW11530   3.372   3.485   0.061
 3665SOL    HW111531   3.277   3.487   0.050
 3665SOL    HW211532   3.406   3.487   8.051
 3666SOL     OW11533   2.229   3.165   1.493
 3666SOL    HW111534   2.219   3.242   1.436
 3666SOL    HW211535   2.152   3.111   1.475
 3667SOL     OW11536   3.473   3.145   1.280
 3667SOL    HW111537   3.533   3.135   1.354
 3667SOL    HW211538   3.412   3.214   1.308
 3668SOL     OW11539   2.910   2.966   0.702
 3668SOL    HW111540   2.846   2.918   0.754
 3668SOL    HW211541   2.979   2.902   0.683
 3669SOL     OW11542   2.888   2.098   0.966
 3669SOL    HW111543   2.882   2.048   0.884
 3669SOL    HW211544   2.881   2.031   1.034
 3670SOL     OW11545   2.463   3.349   0.479
 3670SOL    HW111546   2.509   3.304   0.408
 3670SOL    HW211547   2.394   3.399   0.436
 3671SOL     OW11548   3.584   2.254   1.381
 3671SOL    HW111549   3.656   2.317   1.379
 3671SOL    HW211550   3.614   2.183   1.324
 3672SOL     OW11551   2.126   3.179   0.302
 3672SOL    HW111552   2.042   3.194   0.257
 3672SOL    HW211553   2.119   3.228   0.384
 3673SOL     OW11554   1.973   2.883   1.718
 3673SOL    HW111555   1.897   2.861   1.772
 3673SOL    HW211556   2.047   2.847   1.767
 3674SOL     OW11557   2.533   2.056   1.494
 3674SOL    HW111558   2.618   2.039   1.454
 3674SOL    HW211559   2.552   2.079   1.585
 3675SOL     OW11560   1.920   2.220   0.039
 3675SOL    HW111561   1.843   2.168   0.016
 3675SOL    HW211562   1.962   2.240   8.035
 3676SOL     OW11563   3.293   2.721   1.401
 3676SOL    HW111564   3.243   2.781   1.346
 3676SOL    HW211565   3.382   2.724   1.366
 3677SOL     OW11566   1.934   2.016   0.305
 3677SOL    HW111567   1.917   2.100   0.261
 3677SOL    HW211568   2.017   1.986   0.268
 3678SOL     OW11569   3.047   3.181   0.121
 3678SOL    HW111570   2.952   3.170   0.119
 3678SOL    HW211571   3.069   3.182   0.214
 3679SOL     OW11572   3.346   3.638   0.978
 3679SOL    HW111573   3.370   3.699   0.908
 3679SOL    HW211574   3.429   3.620   1.023
 3680SOL     OW11575   3.335   3.061   1.632
 3680SOL    HW111576   3.322   3.076   1.726
 3680SOL    HW211577   3.428   3.077   1.617
 3681SOL     OW11578   2.241   3.601   1.564
 3681SOL    HW111579   2.156   3.643   1.550
 3681SOL    HW211580   2.221   3.518   1.606
 3682SOL     OW11581   3.531   2.743   1.255
 3682SOL    HW111582   3.525   2.658   1.213
 3682SOL    HW211583   3.522   2.807   1.184
 3683SOL     OW11584   3.079   2.180   0.459
 3683SOL    HW111585   3.144   2.110   0.450
 3683SOL    HW211586   3.108   2.229   0.536
 3684SOL     OW11587   3.624   2.224   1.651
 3684SOL    HW111588   3.607   2.239   1.558
 3684SOL    HW211589   3.553   2.167   1.679
 3685SOL     OW11590   3.607   2.795   1.512
 3685SOL    HW111591   3.605   2.890   1.526
 3685SOL    HW211592   3.592   2.784   1.419
 3686SOL     OW11593   2.759   3.236   0.037
 3686SOL    HW111594   2.696   3.229   0.109
 3686SOL    HW211595   2.739   3.320   8.076
 3687SOL     OW11596   2.522   3.654   0.945
 3687SOL    HW111597   2.503   3.745   0.921
 3687SOL    HW211598   2.617   3.646   0.938
 3688SOL     OW11599   2.962   2.863   0.092
 3688SOL    HW111600   2.945   2.919   0.016
 3688SOL    HW211601   3.030   2.802   0.062
 3689SOL     OW11602   3.716   3.416   0.844
 3689SOL    HW111603   3.638   3.405   0.791
 3689SOL    HW211604   3.706   3.351   0.914
 3690SOL     OW11605   2.087   3.165   1.856
 3690SOL    HW111606   2.018   3.105   1.827
 3690SOL    HW211607   2.069   3.177   1.950
 3691SOL     OW11608   1.945   3.094   0.666
 3691SOL    HW111609   1.951   3.046   0.748
 3691SOL    HW211610   2.020   3.062   0.614
 3692SOL     OW11611   2.542   3.264   1.628
 3692SOL    HW111612   2.461   3.223   1.657
 3692SOL    HW211613   2.537   3.353   1.664
 3693SOL     OW11614   3.674   2.046   1.237
 3693SOL    HW111615   3.685   1.952   1.252
 3693SOL    HW211616   3.684   2.057   1.143
 3694SOL     OW11617   2.306   2.296   0.541
 3694SOL    HW111618   2.325   2.230   0.474
 3694SOL    HW211619   2.244   2.254   0.600
 3695SOL     OW11620   3.563   3.351   1.095
 3695SOL    HW111621   3.481   3.328   1.051
 3695SOL    HW211622   3.574   3.282   1.161
 3696SOL     OW11623   2.196   2.414   1.297
 3696SOL    HW111624   2.251   2.355   1.349
 3696SOL    HW211625   2.208   2.385   1.207
 3697SOL     OW11626   2.691   3.440   0.675
 3697SOL    HW111627   2.675   3.494   0.597
 3697SOL    HW211628   2.613   3.383   0.680
 3698SOL     OW11629   3.295   2.086   1.119
 3698SOL    HW111630   3.320   2.007   1.166
 3698SOL    HW211631   3.242   2.136   1.182
 3699SOL     OW11632   2.871   1.879   1.142
 3699SOL    HW111633   2.817   1.811   1.102
 3699SOL    HW211634   2.959   1.842   1.145
 3700SOL     OW11635   2.635   3.203   0.302
 3700SOL    HW111636   2.604   3.114   0.313
 3700SOL    HW211637   2.715   3.207   0.354
 3701SOL     OW11638   2.481   3.421   1.284
 3701SOL    HW111639   2.485   3.502   1.334
 3701SOL    HW211640   2.569   3.410   1.248
 3702SOL     OW11641   3.218   1.916   0.184
 3702SOL    HW111642   3.239   1.869   0.104
 3702SOL    HW211643   3.132   1.882   0.210
 3703SOL     OW11644   3.165   2.315   0.681
 3703SOL    HW111645   3.119   2.399   0.693
 3703SOL    HW211646   3.161   2.273   0.767
 3704SOL     OW11647   3.448   2.064   0.878
 3704SOL    HW111648   3.388   2.084   0.949
 3704SOL    HW211649   3.448   2.142   0.823
 3705SOL     OW11650   1.904   2.928   0.301
 3705SOL    HW111651   2.000   2.929   0.303
 3705SOL    HW211652   1.880   2.846   0.343
 3706SOL     OW11653   2.745   3.516   0.347
 3706SOL    HW111654   2.677   3.499   0.282
 3706SOL    HW211655   2.713   3.591   0.396
 3707SOL     OW11656   2.093   2.480   1.985
 3707SOL    HW111657   2.004   2.486   2.020
 3707SOL    HW211658   2.081   2.457   1.892
 3708SOL     OW11659   2.088   2.140   2.866
 3708SOL    HW111660   2.108   2.092   2.947
 3708SOL    HW211661   1.999   2.113   2.843
 3709SOL     OW11662   1.866   2.243   2.502
 3709SOL    HW111663   1.783   2.270   2.542
 3709SOL    HW211664   1.844   2.164   2.452
 3710SOL     OW11665   2.423   3.142   3.042
 3710SOL    HW111666   2.340   3.146   2.994
 3710SOL    HW211667   2.454   3.233   3.044
 3711SOL     OW11668   3.422   3.374   2.568
 3711SOL    HW111669   3.380   3.355   2.652
 3711SOL    HW211670   3.351   3.379   2.505
 3712SOL     OW11671   3.018   2.540   2.586
 3712SOL    HW111672   3.045   2.629   2.565
 3712SOL    HW211673   2.940   2.551   2.641
 3713SOL     OW11674   3.628   2.467   2.091
 3713SOL    HW111675   3.608   2.460   1.998
 3713SOL    HW211676   3.594   2.387   2.130
 3714SOL     OW11677   2.642   3.023   2.911
 3714SOL    HW111678   2.562   3.036   2.963
 3714SOL    HW211679   2.651   3.105   2.863
 3715SOL     OW11680   2.201   3.270   2.921
 3715SOL    HW111681   2.123   3.240   2.875
 3715SOL    HW211682   2.245   3.327   2.857
 3716SOL     OW11683   3.311   3.369   3.213
 3716SOL    HW111684   3.368   3.446   3.220
 3716SOL    HW211685   3.305   3.335   3.303
 3717SOL     OW11686   3.475   2.310   2.602
 3717SOL    HW111687   3.399   2.333   2.549
 3717SOL    HW211688   3.489   2.386   2.658
 3718SOL     OW11689   2.081   3.576   2.334
 3718SOL    HW111690   2.103   3.652   2.388
 3718SOL    HW211691   2.154   3.569   2.273
 3719SOL     OW11692   2.091   3.303   2.396
 3719SOL    HW111693   2.075   3.397   2.401
 3719SOL    HW211694   2.032   3.266   2.462
 3720SOL     OW11695   2.112   2.951   2.754
 3720SOL    HW111696   2.112   2.871   2.807
 3720SOL    HW211697   2.062   3.014   2.807
 3721SOL     OW11698   2.475   3.642   3.304
 3721SOL    HW111699   2.384   3.636   3.334
 3721SOL    HW211700   2.497   3.734   3.316
 3722SOL     OW11701   2.429   2.862   1.988
 3722SOL    HW111702   2.475   2.919   1.926
 3722SOL    HW211703   2.491   2.850   2.060
 3723SOL     OW11704   3.460   1.984   3.326
 3723SOL    HW111705   3.473   2.066   3.277
 3723SOL    HW211706   3.455   2.012   3.417
 3724SOL     OW11707   1.978   2.513   2.424
 3724SOL    HW111708   1.944   2.426   2.445
 3724SOL    HW211709   1.968   2.564   2.504
 3725SOL     OW11710   3.704   3.621   2.197
 3725SOL    HW111711   3.769   3.592   2.262
 3725SOL    HW211712   3.728   3.711   2.178
 3726SOL     OW11713   1.894   3.457   1.986
 3726SOL    HW111714   1.876   3.365   2.006
 3726SOL    HW211715   1.870   3.504   2.065
 3727SOL     OW11716   3.550   2.779   2.502
 3727SOL    HW111717   3.635   2.740   2.485
 3727SOL    HW211718   3.531   2.830   2.423
 3728SOL     OW11719   3.508   2.969   2.291
 3728SOL    HW111720   3.594   2.974   2.249
 3728SOL    HW211721   3.514   3.030   2.365
 3729SOL     OW11722   2.476   3.247   2.596
 3729SOL    HW111723   2.432   3.163   2.607
 3729SOL    HW211724   2.457   3.273   2.506
 3730SOL     OW11725   2.675   1.857   2.372
 3730SOL    HW111726   2.719   1.939   2.350
 3730SOL    HW211727   2.583   1.881   2.379
 3731SOL     OW11728   2.087   2.849   3.046
 3731SOL    HW111729   2.148   2.784   3.081
 3731SOL    HW211730   2.002   2.825   3.085
 3732SOL     OW11731   3.394   2.856   2.060
 3732SOL    HW111732   3.329   2.794   2.093
 3732SOL    HW211733   3.435   2.891   2.139
 3733SOL     OW11734   3.052   3.668   3.480
 3733SOL    HW111735   3.057   3.745   3.424
 3733SOL    HW211736   3.038   3.595   3.420
 3734SOL     OW11737   3.328   3.284   2.813
 3734SOL    HW111738   3.259   3.301   2.877
 3734SOL    HW211739   3.316   3.193   2.787
 3735SOL     OW11740   3.520   3.602   2.440
 3735SOL    HW111741   3.501   3.572   2.351
 3735SOL    HW211742   3.496   3.528   2.496
 3736SOL     OW11743   3.144   2.212   2.798
 3736SOL    HW111744   3.054   2.181   2.803
 3736SOL    HW211745   3.192   2.157   2.859
 3737SOL     OW11746   3.443   3.532   2.171
 3737SOL    HW111747   3.533   3.563   2.164
 3737SOL    HW211748   3.416   3.515   2.081
 3738SOL     OW11749   2.850   2.274   3.127
 3738SOL    HW111750   2.758   2.292   3.147
 3738SOL    HW211751   2.849   2.241   3.037
 3739SOL     OW11752   1.949   2.682   2.640
 3739SOL    HW111753   2.031   2.676   2.688
 3739SOL    HW211754   1.907   2.762   2.673
 3740SOL     OW11755   1.982   3.714   3.443
 3740SOL    HW111756   1.982   3.695   3.537
 3740SOL    HW211757   1.892   3.699   3.415
 3741SOL     OW11758   2.746   2.189   2.004
 3741SOL    HW111759   2.800   2.252   1.957
 3741SOL    HW211760   2.794   2.106   1.998
 3742SOL     OW11761   3.606   2.436   3.694
 3742SOL    HW111762   3.596   2.522   3.653
 3742SOL    HW211763   3.612   2.375   3.622
 3743SOL     OW11764   3.235   2.999   2.399
 3743SOL    HW111765   3.318   2.992   2.352
 3743SOL    HW211766   3.187   3.067   2.352
 3744SOL     OW11767   2.412   2.041   2.761
 3744SOL    HW111768   2.390   2.080   2.845
 3744SOL    HW211769   2.418   2.116   2.701
 3745SOL     OW11770   2.866   3.305   2.334
 3745SOL    HW111771   2.830   3.378   2.284
 3745SOL    HW211772   2.850   3.328   2.426
 3746SOL     OW11773   2.217   3.671   2.724
 3746SOL    HW111774   2.260   3.586   2.732
 3746SOL    HW211775   2.285   3.735   2.743
 3747SOL     OW11776   3.660   2.917   2.731
 3747SOL    HW111777   3.604   2.901   2.655
 3747SOL    HW211778   3.599   2.923   2.804
 3748SOL     OW11779   2.176   2.825   2.113
 3748SOL    HW111780   2.257   2.847   2.067
 3748SOL    HW211781   2.151   2.740   2.078
 3749SOL     OW11782   3.337   2.609   2.588
 3749SOL    HW111783   3.332   2.561   2.671
 3749SOL    HW211784   3.417   2.661   2.596
 3750SOL     OW11785   2.984   3.640   2.093
 3750SOL    HW111786   2.910   3.598   2.138
 3750SOL    HW211787   3.007   3.578   2.023
 3751SOL     OW11788   3.490   3.242   1.950
 3751SOL    HW111789   3.450   3.327   1.935
 3751SOL    HW211790   3.421   3.178   1.930
 3752SOL     OW11791   2.328   3.598   2.183
 3752SOL    HW111792   2.370   3.657   2.247
 3752SOL    HW211793   2.400   3.569   2.127
 3753SOL     OW11794   3.263   1.969   2.295
 3753SOL    HW111795   3.253   1.944   2.203
 3753SOL    HW211796   3.358   1.976   2.308
 3754SOL     OW11797   2.108   3.669   3.084
 3754SOL    HW111798   2.155   3.596   3.123
 3754SOL    HW211799   2.091   3.641   2.994
 3755SOL     OW11800   2.798   3.564   2.757
 3755SOL    HW111801   2.866   3.507   2.794
 3755SOL    HW211802   2.756   3.511   2.689
 3756SOL     OW11803   2.249   2.551   2.335
 3756SOL    HW111804   2.276   2.462   2.355
 3756SOL    HW211805   2.156   2.555   2.358
 3757SOL     OW11806   3.430   2.060   3.588
 3757SOL    HW111807   3.400   2.114   3.661
 3757SOL    HW211808   3.375   1.982   3.591
 3758SOL     OW11809   2.478   1.973   1.981
 3758SOL    HW111810   2.568   1.939   1.980
 3758SOL    HW211811   2.443   1.951   1.895
 3759SOL     OW11812   2.742   3.401   3.033
 3759SOL    HW111813   2.715   3.351   2.956
 3759SOL    HW211814   2.783   3.337   3.091
 3760SOL     OW11815   2.673   3.266   2.795
 3760SOL    HW111816   2.758   3.251   2.754
 3760SOL    HW211817   2.611   3.261   2.723
 3761SOL     OW11818   2.776   2.351   2.763
 3761SOL    HW111819   2.762   2.337   2.670
 3761SOL    HW211820   2.823   2.272   2.792
 3762SOL     OW11821   2.411   1.927   2.365
 3762SOL    HW111822   2.329   1.926   2.414
 3762SOL    HW211823   2.405   2.005   2.309
 3763SOL     OW11824   3.290   3.060   1.903
 3763SOL    HW111825   3.320   2.985   1.953
 3763SOL    HW211826   3.204   3.081   1.939
 3764SOL     OW11827   2.155   1.910   2.047
 3764SOL    HW111828   2.215   1.970   2.003
 3764SOL    HW211829   2.212   1.845   2.088
 3765SOL     OW11830   2.808   2.093   2.327
 3765SOL    HW111831   2.769   2.165   2.277
 3765SOL    HW211832   2.902   2.111   2.325
 3766SOL     OW11833   2.940   2.544   3.302
 3766SOL    HW111834   2.882   2.470   3.319
 3766SOL    HW211835   3.019   2.506   3.264
 3767SOL     OW11836   3.090   3.427   2.652
 3767SOL    HW111837   3.102   3.498   2.588
 3767SOL    HW211838   3.153   3.447   2.721
 3768SOL     OW11839   2.327   3.017   2.599
 3768SOL    HW111840   2.257   2.992   2.659
 3768SOL    HW211841   2.295   2.992   2.512
 3769SOL     OW11842   3.131   3.656   2.470
 3769SOL    HW111843   3.177   3.717   2.413
 3769SOL    HW211844   3.064   3.709   2.514
 3770SOL     OW11845   2.905   2.389   1.886
 3770SOL    HW111846   2.841   2.460   1.882
 3770SOL    HW211847   2.963   2.412   1.958
 3771SOL     OW11848   2.732   2.301   2.509
 3771SOL    HW111849   2.709   2.364   2.441
 3771SOL    HW211850   2.756   2.221   2.462
 3772SOL     OW11851   2.877   1.915   2.613
 3772SOL    HW111852   2.820   1.907   2.537
 3772SOL    HW211853   2.854   1.840   2.668
 3773SOL     OW11854   3.297   3.028   2.720
 3773SOL    HW111855   3.236   2.954   2.716
 3773SOL    HW211856   3.325   3.039   2.629
 3774SOL     OW11857   3.330   2.465   2.833
 3774SOL    HW111858   3.280   2.384   2.840
 3774SOL    HW211859   3.390   2.462   2.907
 3775SOL     OW11860   3.707   2.678   2.244
 3775SOL    HW111861   3.763   2.627   2.303
 3775SOL    HW211862   3.679   2.615   2.177
 3776SOL     OW11863   2.354   3.277   2.020
 3776SOL    HW111864   2.278   3.250   2.071
 3776SOL    HW211865   2.339   3.240   1.933
 3777SOL     OW11866   3.530   3.126   2.509
 3777SOL    HW111867   3.625   3.128   2.522
 3777SOL    HW211868   3.501   3.214   2.529
 3778SOL     OW11869   3.257   2.433   1.933
 3778SOL    HW111870   3.197   2.412   2.005
 3778SOL    HW211871   3.342   2.402   1.963
 3779SOL     OW11872   2.385   2.130   2.184
 3779SOL    HW111873   2.423   2.075   2.115
 3779SOL    HW211874   2.367   2.213   2.141
 3780SOL     OW11875   3.624   3.095   3.430
 3780SOL    HW111876   3.715   3.065   3.423
 3780SOL    HW211877   3.632   3.183   3.467
 3781SOL     OW11878   3.461   3.478   3.508
 3781SOL    HW111879   3.463   3.521   3.423
 3781SOL    HW211880   3.547   3.436   3.516
 3782SOL     OW11881   2.972   3.087   2.976
 3782SOL    HW111882   2.891   3.061   3.019
 3782SOL    HW211883   2.946   3.114   2.888
 3783SOL     OW11884   3.491   2.962   2.941
 3783SOL    HW111885   3.495   3.029   3.010
 3783SOL    HW211886   3.408   2.978   2.897
 3784SOL     OW11887   2.265   2.660   3.150
 3784SOL    HW111888   2.356   2.689   3.142
 3784SOL    HW211889   2.267   2.567   3.129
 3785SOL     OW11890   1.932   3.438   3.207
 3785SOL    HW111891   1.896   3.511   3.158
 3785SOL    HW211892   2.026   3.441   3.191
 3786SOL     OW11893   2.218   2.968   2.350
 3786SOL    HW111894   2.212   3.043   2.291
 3786SOL    HW211895   2.208   2.892   2.294
 3787SOL     OW11896   2.414   2.382   2.735
 3787SOL    HW111897   2.411   2.404   2.642
 3787SOL    HW211898   2.505   2.396   2.760
 3788SOL     OW11899   3.109   3.210   2.253
 3788SOL    HW111900   3.165   3.282   2.282
 3788SOL    HW211901   3.022   3.232   2.286
 3789SOL     OW11902   3.136   3.317   3.003
 3789SOL    HW111903   3.190   3.317   3.083
 3789SOL    HW211904   3.090   3.234   3.005
 3790SOL     OW11905   3.441   2.485   2.340
 3790SOL    HW111906   3.398   2.540   2.405
 3790SOL    HW211907   3.490   2.547   2.285
 3791SOL     OW11908   2.195   3.421   3.147
 3791SOL    HW111909   2.205   3.360   3.074
 3791SOL    HW211910   2.247   3.383   3.218
 3792SOL     OW11911   2.307   2.611   3.502
 3792SOL    HW111912   2.309   2.668   3.425
 3792SOL    HW211913   2.308   2.522   3.466
 3793SOL     OW11914   3.216   2.716   2.873
 3793SOL    HW111915   3.142   2.692   2.819
 3793SOL    HW211916   3.267   2.635   2.881
 3794SOL     OW11917   3.063   2.390   2.131
 3794SOL    HW111918   3.067   2.307   2.179
 3794SOL    HW211919   3.061   2.457   2.198
 3795SOL     OW11920   1.892   3.174   3.145
 3795SOL    HW111921   1.938   3.122   3.211
 3795SOL    HW211922   1.910   3.265   3.170
 3796SOL     OW11923   3.613   2.825   3.703
 3796SOL    HW111924   3.552   2.805   3.633
 3796SOL    HW211925   3.564   2.808   3.784
 3797SOL     OW11926   2.165   1.927   2.485
 3797SOL    HW111927   2.144   2.017   2.510
 3797SOL    HW211928   2.172   1.881   2.569
 3798SOL     OW11929   3.477   2.236   2.229
 3798SOL    HW111930   3.506   2.172   2.295
 3798SOL    HW211931   3.455   2.314   2.280
 3799SOL     OW11932   3.715   3.373   3.469
 3799SOL    HW111933   3.734   3.396   3.378
 3799SOL    HW211934   3.797   3.388   3.516
 3800SOL     OW11935   3.390   2.135   1.989
 3800SOL    HW111936   3.326   2.069   2.016
 3800SOL    HW211937   3.424   2.171   2.072
 3801SOL     OW11938   3.154   2.686   1.891
 3801SOL    HW111939   3.197   2.601   1.894
 3801SOL    HW211940   3.185   2.726   1.810
 3802SOL     OW11941   2.926   3.201   2.713
 3802SOL    HW111942   2.932   3.130   2.650
 3802SOL    HW211943   2.988   3.266   2.681
 3803SOL     OW11944   2.171   2.665   2.803
 3803SOL    HW111945   2.259   2.700   2.813
 3803SOL    HW211946   2.175   2.577   2.839
 3804SOL     OW11947   2.186   2.394   2.875
 3804SOL    HW111948   2.152   2.305   2.871
 3804SOL    HW211949   2.266   2.392   2.823
 3805SOL     OW11950   1.867   3.183   2.057
 3805SOL    HW111951   1.780   3.197   2.019
 3805SOL    HW211952   1.864   3.093   2.091
 3806SOL     OW11953   1.954   3.648   2.801
 3806SOL    HW111954   1.923   3.569   2.757
 3806SOL    HW211955   2.043   3.661   2.768
 3807SOL     OW11956   2.360   3.435   2.767
 3807SOL    HW111957   2.427   3.499   2.789
 3807SOL    HW211958   2.404   3.372   2.710
 3808SOL     OW11959   1.908   2.413   2.997
 3808SOL    HW111960   1.972   2.410   2.926
 3808SOL    HW211961   1.952   2.369   3.070
 3809SOL     OW11962   2.707   2.329   2.231
 3809SOL    HW111963   2.705   2.289   2.144
 3809SOL    HW211964   2.636   2.394   2.229
 3810SOL     OW11965   3.505   2.469   3.038
 3810SOL    HW111966   3.483   2.418   3.116
 3810SOL    HW211967   3.593   2.440   3.015
 3811SOL     OW11968   2.073   3.418   3.608
 3811SOL    HW111969   2.060   3.503   3.649
 3811SOL    HW211970   2.065   3.355   3.680
 3812SOL     OW11971   2.537   2.301   3.132
 3812SOL    HW111972   2.509   2.212   3.109
 3812SOL    HW211973   2.560   2.342   3.049
 3813SOL     OW11974   2.772   3.595   3.356
 3813SOL    HW111975   2.752   3.550   3.274
 3813SOL    HW211976   2.770   3.688   3.334
 3814SOL     OW11977   2.330   2.365   2.058
 3814SOL    HW111978   2.379   2.446   2.071
 3814SOL    HW211979   2.240   2.393   2.043
 3815SOL     OW11980   3.165   2.900   3.063
 3815SOL    HW111981   3.182   2.839   2.991
 3815SOL    HW211982   3.100   2.961   3.028
 3816SOL     OW11983   3.176   2.708   2.164
 3816SOL    HW111984   3.094   2.732   2.207
 3816SOL    HW211985   3.154   2.704   2.071
 3817SOL     OW11986   3.636   3.608   3.014
 3817SOL    HW111987   3.696   3.635   2.944
 3817SOL    HW211988   3.611   3.518   2.990
 3818SOL     OW11989   3.104   3.597   2.978
 3818SOL    HW111990   3.186   3.615   2.932
 3818SOL    HW211991   3.106   3.503   2.994
 3819SOL     OW11992   1.942   3.134   2.874
 3819SOL    HW111993   1.925   3.141   2.968
 3819SOL    HW211994   1.876   3.072   2.843
 3820SOL     OW11995   2.573   3.590   3.599
 3820SOL    HW111996   2.505   3.657   3.591
 3820SOL    HW211997   2.616   3.589   3.513
 3821SOL     OW11998   3.581   2.008   2.371
 3821SOL    HW111999   3.654   1.994   2.311
 3821SOL    HW212000   3.566   1.923   2.411
 3822SOL     OW12001   3.252   3.430   2.346
 3822SOL    HW112002   3.313   3.462   2.279
 3822SOL    HW212003   3.204   3.507   2.375
 3823SOL     OW12004   1.993   3.662   3.709
 3823SOL    HW112005   1.942   3.598   3.759
 3823SOL    HW212006   2.043   3.710   3.775
 3824SOL     OW12007   3.131   2.786   2.531
 3824SOL    HW112008   3.205   2.725   2.540
 3824SOL    HW212009   3.166   2.859   2.480
 3825SOL     OW12010   2.702   3.097   3.243
 3825SOL    HW112011   2.709   3.147   3.324
 3825SOL    HW212012   2.615   3.117   3.210
 3826SOL     OW12013   2.533   3.482   2.017
 3826SOL    HW112014   2.543   3.494   1.923
 3826SOL    HW212015   2.478   3.404   2.025
 3827SOL     OW12016   3.485   3.588   3.252
 3827SOL    HW112017   3.538   3.593   3.173
 3827SOL    HW212018   3.472   3.679   3.279
 3828SOL     OW12019   3.703   2.035   2.828
 3828SOL    HW112020   3.732   1.948   2.801
 3828SOL    HW212021   3.617   2.045   2.788
 3829SOL     OW12022   2.123   2.179   2.583
 3829SOL    HW112023   2.037   2.212   2.556
 3829SOL    HW212024   2.118   2.172   2.678
 3830SOL     OW12025   3.069   3.468   1.893
 3830SOL    HW112026   3.059   3.377   1.920
 3830SOL    HW212027   3.004   3.480   1.824
 3831SOL     OW12028   3.354   3.487   1.904
 3831SOL    HW112029   3.259   3.481   1.891
 3831SOL    HW212030   3.391   3.493   1.816
 3832SOL     OW12031   3.497   3.166   3.131
 3832SOL    HW112032   3.532   3.124   3.210
 3832SOL    HW212033   3.412   3.201   3.159
 3833SOL     OW12034   2.913   2.969   2.566
 3833SOL    HW112035   2.838   2.920   2.601
 3833SOL    HW212036   2.978   2.902   2.545
 3834SOL     OW12037   2.888   2.099   2.827
 3834SOL    HW112038   2.883   2.049   2.746
 3834SOL    HW212039   2.881   2.034   2.897
 3835SOL     OW12040   2.463   3.353   2.344
 3835SOL    HW112041   2.509   3.306   2.274
 3835SOL    HW212042   2.393   3.401   2.299
 3836SOL     OW12043   3.591   2.247   3.244
 3836SOL    HW112044   3.659   2.314   3.238
 3836SOL    HW212045   3.620   2.178   3.184
 3837SOL     OW12046   2.121   3.207   2.151
 3837SOL    HW112047   2.029   3.205   2.128
 3837SOL    HW212048   2.124   3.244   2.239
 3838SOL     OW12049   1.940   2.195   1.898
 3838SOL    HW112050   1.853   2.175   1.864
 3838SOL    HW212051   1.969   2.271   1.846
 3839SOL     OW12052   1.931   2.018   2.172
 3839SOL    HW112053   1.916   2.098   2.120
 3839SOL    HW212054   2.016   1.985   2.142
 3840SOL     OW12055   3.042   3.202   1.979
 3840SOL    HW112056   2.951   3.171   1.981
 3840SOL    HW212057   3.069   3.201   2.071
 3841SOL     OW12058   3.346   3.638   2.841
 3841SOL    HW112059   3.369   3.698   2.769
 3841SOL    HW212060   3.429   3.619   2.884
 3842SOL     OW12061   2.234   3.612   3.423
 3842SOL    HW112062   2.145   3.649   3.416
 3842SOL    HW212063   2.219   3.518   3.434
 3843SOL     OW12064   3.583   2.746   3.104
 3843SOL    HW112065   3.538   2.665   3.080
 3843SOL    HW212066   3.547   2.812   3.046
 3844SOL     OW12067   3.080   2.180   2.319
 3844SOL    HW112068   3.143   2.109   2.310
 3844SOL    HW212069   3.108   2.228   2.397
 3845SOL     OW12070   3.625   2.232   3.512
 3845SOL    HW112071   3.611   2.237   3.417
 3845SOL    HW212072   3.562   2.166   3.542
 3846SOL     OW12073   3.644   2.776   3.374
 3846SOL    HW112074   3.638   2.871   3.386
 3846SOL    HW212075   3.618   2.761   3.283
 3847SOL     OW12076   2.730   3.234   1.897
 3847SOL    HW112077   2.689   3.266   1.977
 3847SOL    HW212078   2.748   3.313   1.846
 3848SOL     OW12079   2.521   3.653   2.803
 3848SOL    HW112080   2.504   3.745   2.782
 3848SOL    HW212081   2.616   3.645   2.801
 3849SOL     OW12082   2.961   2.866   1.953
 3849SOL    HW112083   2.926   2.904   1.873
 3849SOL    HW212084   3.026   2.802   1.922
 3850SOL     OW12085   3.718   3.416   2.704
 3850SOL    HW112086   3.639   3.404   2.652
 3850SOL    HW212087   3.709   3.353   2.775
 3851SOL     OW12088   1.946   3.095   2.528
 3851SOL    HW112089   1.951   3.046   2.610
 3851SOL    HW212090   2.016   3.058   2.474
 3852SOL     OW12091   3.675   2.042   3.097
 3852SOL    HW112092   3.686   1.948   3.110
 3852SOL    HW212093   3.685   2.055   3.003
 3853SOL     OW12094   2.306   2.293   2.404
 3853SOL    HW112095   2.326   2.229   2.335
 3853SOL    HW212096   2.243   2.248   2.460
 3854SOL     OW12097   3.562   3.358   2.950
 3854SOL    HW112098   3.482   3.336   2.901
 3854SOL    HW212099   3.567   3.292   3.019
 3855SOL     OW12100   2.691   3.438   2.536
 3855SOL    HW112101   2.676   3.495   2.460
 3855SOL    HW212102   2.613   3.383   2.541
 3856SOL     OW12103   3.289   2.080   2.986
 3856SOL    HW112104   3.331   1.996   3.007
 3856SOL    HW212105   3.247   2.107   3.067
 3857SOL     OW12106   2.874   1.885   3.003
 3857SOL    HW112107   2.815   1.814   2.979
 3857SOL    HW212108   2.960   1.845   3.007
 3858SOL     OW12109   2.634   3.205   2.177
 3858SOL    HW112110   2.609   3.113   2.166
 3858SOL    HW212111   2.717   3.201   2.225
 3859SOL     OW12112   3.214   1.916   2.027
 3859SOL    HW112113   3.243   1.852   1.962
 3859SOL    HW212114   3.127   1.886   2.053
 3860SOL     OW12115   3.164   2.315   2.543
 3860SOL    HW112116   3.116   2.397   2.552
 3860SOL    HW212117   3.160   2.275   2.630
 3861SOL     OW12118   3.449   2.065   2.740
 3861SOL    HW112119   3.385   2.088   2.808
 3861SOL    HW212120   3.451   2.142   2.682
 3862SOL     OW12121   1.906   2.933   2.168
 3862SOL    HW112122   1.999   2.923   2.148
 3862SOL    HW212123   1.877   2.844   2.191
 3863SOL     OW12124   2.747   3.515   2.204
 3863SOL    HW112125   2.674   3.498   2.144
 3863SOL    HW212126   2.718   3.590   2.256
 3864SOL     OW12127   3.424   3.379   4.430
 3864SOL    HW112128   3.376   3.376   4.513
 3864SOL    HW212129   3.356   3.386   4.363
 3865SOL     OW12130   2.975   2.600   4.438
 3865SOL    HW112131   3.069   2.583   4.445
 3865SOL    HW212132   2.936   2.545   4.506
 3866SOL     OW12133   3.629   2.460   3.962
 3866SOL    HW112134   3.613   2.449   3.869
 3866SOL    HW212135   3.586   2.384   4.003
 3867SOL     OW12136   2.569   3.025   5.547
 3867SOL    HW112137   2.622   3.104   5.560
 3867SOL    HW212138   2.492   3.056   5.500
 3868SOL     OW12139   3.327   3.362   5.085
 3868SOL    HW112140   3.379   3.442   5.091
 3868SOL    HW212141   3.264   3.369   5.157
 3869SOL     OW12142   2.312   2.254   5.251
 3869SOL    HW112143   2.387   2.198   5.232
 3869SOL    HW212144   2.236   2.195   5.243
 3870SOL     OW12145   2.085   3.585   4.188
 3870SOL    HW112146   2.106   3.658   4.246
 3870SOL    HW212147   2.162   3.576   4.131
 3871SOL     OW12148   3.004   3.203   5.418
 3871SOL    HW112149   3.040   3.199   5.506
 3871SOL    HW212150   2.949   3.125   5.410
 3872SOL     OW12151   1.994   3.330   4.245
 3872SOL    HW112152   2.023   3.419   4.224
 3872SOL    HW212153   2.070   3.291   4.288
 3873SOL     OW12154   2.479   3.657   5.155
 3873SOL    HW112155   2.396   3.636   5.198
 3873SOL    HW212156   2.497   3.748   5.182
 3874SOL     OW12157   2.427   2.841   3.845
 3874SOL    HW112158   2.437   2.904   3.773
 3874SOL    HW212159   2.471   2.883   3.919
 3875SOL     OW12160   3.459   1.984   5.194
 3875SOL    HW112161   3.470   2.063   5.141
 3875SOL    HW212162   3.444   2.016   5.283
 3876SOL     OW12163   3.705   3.621   4.058
 3876SOL    HW112164   3.768   3.593   4.124
 3876SOL    HW212165   3.729   3.712   4.039
 3877SOL     OW12166   1.893   3.457   3.853
 3877SOL    HW112167   1.882   3.365   3.877
 3877SOL    HW212168   1.870   3.505   3.933
 3878SOL     OW12169   3.609   2.784   4.355
 3878SOL    HW112170   3.681   2.728   4.326
 3878SOL    HW212171   3.573   2.822   4.275
 3879SOL     OW12172   3.540   2.956   4.147
 3879SOL    HW112173   3.624   2.978   4.107
 3879SOL    HW212174   3.521   3.028   4.207
 3880SOL     OW12175   1.980   2.601   5.311
 3880SOL    HW112176   2.071   2.628   5.321
 3880SOL    HW212177   1.932   2.684   5.306
 3881SOL     OW12178   3.152   3.074   5.146
 3881SOL    HW112179   3.218   3.046   5.083
 3881SOL    HW212180   3.200   3.084   5.229
 3882SOL     OW12181   2.021   2.798   5.028
 3882SOL    HW112182   2.109   2.759   5.024
 3882SOL    HW212183   1.986   2.787   4.940
 3883SOL     OW12184   3.048   3.668   5.346
 3883SOL    HW112185   3.060   3.727   5.272
 3883SOL    HW212186   3.063   3.581   5.309
 3884SOL     OW12187   2.192   2.107   5.540
 3884SOL    HW112188   2.237   2.192   5.539
 3884SOL    HW212189   2.104   2.127   5.572
 3885SOL     OW12190   3.336   3.299   4.689
 3885SOL    HW112191   3.267   3.327   4.749
 3885SOL    HW212192   3.321   3.205   4.678
 3886SOL     OW12193   3.523   3.602   4.300
 3886SOL    HW112194   3.499   3.574   4.212
 3886SOL    HW212195   3.497   3.530   4.356
 3887SOL     OW12196   3.443   3.536   4.032
 3887SOL    HW112197   3.534   3.566   4.027
 3887SOL    HW212198   3.418   3.519   3.941
 3888SOL     OW12199   3.257   2.334   5.402
 3888SOL    HW112200   3.259   2.379   5.486
 3888SOL    HW212201   3.318   2.261   5.413
 3889SOL     OW12202   2.942   2.558   4.172
 3889SOL    HW112203   2.943   2.575   4.266
 3889SOL    HW212204   2.851   2.537   4.152
 3890SOL     OW12205   1.990   3.709   5.302
 3890SOL    HW112206   1.990   3.688   5.395
 3890SOL    HW212207   1.898   3.702   5.276
 3891SOL     OW12208   3.570   2.436   5.552
 3891SOL    HW112209   3.532   2.510   5.504
 3891SOL    HW212210   3.598   2.375   5.484
 3892SOL     OW12211   2.219   3.676   4.591
 3892SOL    HW112212   2.277   3.600   4.586
 3892SOL    HW212213   2.278   3.750   4.606
 3893SOL     OW12214   3.672   2.924   4.591
 3893SOL    HW112215   3.627   2.892   4.513
 3893SOL    HW212216   3.606   2.920   4.660
 3894SOL     OW12217   3.090   3.398   5.236
 3894SOL    HW112218   3.077   3.331   5.303
 3894SOL    HW212219   3.031   3.374   5.165
 3895SOL     OW12220   2.192   2.766   3.975
 3895SOL    HW112221   2.270   2.789   3.925
 3895SOL    HW212222   2.150   2.697   3.924
 3896SOL     OW12223   2.327   3.129   5.460
 3896SOL    HW112224   2.300   3.132   5.368
 3896SOL    HW212225   2.245   3.126   5.509
 3897SOL     OW12226   2.987   3.646   3.956
 3897SOL    HW112227   2.909   3.610   3.998
 3897SOL    HW212228   3.013   3.578   3.893
 3898SOL     OW12229   2.051   2.149   5.246
 3898SOL    HW112230   1.966   2.193   5.238
 3898SOL    HW212231   2.036   2.077   5.307
 3899SOL     OW12232   3.484   3.238   3.809
 3899SOL    HW112233   3.461   3.330   3.794
 3899SOL    HW212234   3.401   3.194   3.825
 3900SOL     OW12235   2.322   3.608   4.039
 3900SOL    HW112236   2.371   3.655   4.107
 3900SOL    HW212237   2.389   3.563   3.988
 3901SOL     OW12238   3.283   2.001   4.148
 3901SOL    HW112239   3.254   1.961   4.065
 3901SOL    HW212240   3.370   1.966   4.162
 3902SOL     OW12241   2.118   3.654   4.956
 3902SOL    HW112242   2.170   3.587   5.000
 3902SOL    HW212243   2.106   3.621   4.867
 3903SOL     OW12244   3.397   2.087   5.450
 3903SOL    HW112245   3.406   2.108   5.543
 3903SOL    HW212246   3.329   2.019   5.447
 3904SOL     OW12247   2.621   2.117   5.468
 3904SOL    HW112248   2.702   2.067   5.478
 3904SOL    HW212249   2.598   2.142   5.558
 3905SOL     OW12250   3.205   2.452   5.159
 3905SOL    HW112251   3.233   2.413   5.241
 3905SOL    HW212252   3.250   2.536   5.155
 3906SOL     OW12253   2.150   1.899   3.912
 3906SOL    HW112254   2.202   1.975   3.885
 3906SOL    HW212255   2.213   1.842   3.956
 3907SOL     OW12256   2.807   2.147   4.157
 3907SOL    HW112257   2.762   2.127   4.075
 3907SOL    HW212258   2.894   2.108   4.147
 3908SOL     OW12259   2.942   2.522   5.166
 3908SOL    HW112260   2.900   2.441   5.195
 3908SOL    HW212261   3.034   2.499   5.157
 3909SOL     OW12262   3.136   3.664   4.319
 3909SOL    HW112263   3.179   3.727   4.262
 3909SOL    HW212264   3.076   3.716   4.372
 3910SOL     OW12265   2.903   2.405   3.759
 3910SOL    HW112266   2.854   2.487   3.747
 3910SOL    HW212267   2.951   2.418   3.841
 3911SOL     OW12268   1.938   2.424   5.107
 3911SOL    HW112269   2.030   2.406   5.088
 3911SOL    HW212270   1.940   2.490   5.176
 3912SOL     OW12271   2.727   2.341   4.339
 3912SOL    HW112272   2.676   2.383   4.269
 3912SOL    HW212273   2.761   2.261   4.299
 3913SOL     OW12274   3.726   2.677   4.096
 3913SOL    HW112275   3.777   2.623   4.155
 3913SOL    HW212276   3.677   2.615   4.041
 3914SOL     OW12277   3.536   3.133   4.376
 3914SOL    HW112278   3.631   3.135   4.382
 3914SOL    HW212279   3.509   3.224   4.388
 3915SOL     OW12280   2.436   2.168   4.074
 3915SOL    HW112281   2.473   2.108   4.009
 3915SOL    HW212282   2.426   2.251   4.026
 3916SOL     OW12283   3.615   3.101   5.299
 3916SOL    HW112284   3.702   3.063   5.294
 3916SOL    HW212285   3.630   3.192   5.326
 3917SOL     OW12286   2.940   3.228   5.066
 3917SOL    HW112287   2.855   3.197   5.098
 3917SOL    HW212288   3.003   3.166   5.103
 3918SOL     OW12289   3.469   3.487   5.377
 3918SOL    HW112290   3.464   3.522   5.289
 3918SOL    HW212291   3.553   3.440   5.380
 3919SOL     OW12292   3.505   2.964   4.807
 3919SOL    HW112293   3.495   3.026   4.879
 3919SOL    HW212294   3.420   2.965   4.763
 3920SOL     OW12295   2.777   1.960   5.132
 3920SOL    HW112296   2.793   1.933   5.042
 3920SOL    HW212297   2.860   1.996   5.162
 3921SOL     OW12298   2.850   2.976   5.442
 3921SOL    HW112299   2.759   2.986   5.469
 3921SOL    HW212300   2.846   2.920   5.364
 3922SOL     OW12301   2.560   2.954   4.050
 3922SOL    HW112302   2.485   2.948   4.110
 3922SOL    HW212303   2.633   2.918   4.099
 3923SOL     OW12304   2.259   2.673   5.038
 3923SOL    HW112305   2.354   2.683   5.032
 3923SOL    HW212306   2.244   2.578   5.031
 3924SOL     OW12307   1.931   3.439   5.078
 3924SOL    HW112308   1.899   3.510   5.023
 3924SOL    HW212309   2.026   3.440   5.068
 3925SOL     OW12310   2.321   2.927   4.163
 3925SOL    HW112311   2.267   2.993   4.207
 3925SOL    HW212312   2.258   2.871   4.117
 3926SOL     OW12313   2.370   2.450   4.620
 3926SOL    HW112314   2.381   2.434   4.527
 3926SOL    HW212315   2.448   2.413   4.661
 3927SOL     OW12316   3.142   3.347   4.885
 3927SOL    HW112317   3.205   3.346   4.956
 3927SOL    HW212318   3.073   3.287   4.912
 3928SOL     OW12319   2.205   3.380   5.022
 3928SOL    HW112320   2.197   3.317   4.950
 3928SOL    HW212321   2.299   3.396   5.030
 3929SOL     OW12322   2.261   2.603   5.334
 3929SOL    HW112323   2.296   2.649   5.258
 3929SOL    HW212324   2.291   2.513   5.323
 3930SOL     OW12325   3.462   2.640   5.407
 3930SOL    HW112326   3.376   2.682   5.400
 3930SOL    HW212327   3.515   2.683   5.340
 3931SOL     OW12328   2.863   1.985   5.488
 3931SOL    HW112329   2.914   2.056   5.448
 3931SOL    HW212330   2.908   1.906   5.460
 3932SOL     OW12331   2.358   1.899   5.472
 3932SOL    HW112332   2.316   1.848   5.403
 3932SOL    HW212333   2.301   1.974   5.485
 3933SOL     OW12334   3.052   2.379   4.021
 3933SOL    HW112335   3.071   2.307   4.081
 3933SOL    HW212336   3.018   2.449   4.076
 3934SOL     OW12337   2.165   2.046   5.019
 3934SOL    HW112338   2.113   2.075   5.094
 3934SOL    HW212339   2.135   1.956   5.002
 3935SOL     OW12340   1.915   3.173   5.009
 3935SOL    HW112341   1.936   3.120   5.086
 3935SOL    HW212342   1.912   3.263   5.042
 3936SOL     OW12343   3.597   2.821   5.577
 3936SOL    HW112344   3.551   2.760   5.520
 3936SOL    HW212345   3.537   2.835   5.650
 3937SOL     OW12346   3.500   2.251   4.097
 3937SOL    HW112347   3.504   2.169   4.146
 3937SOL    HW212348   3.431   2.302   4.141
 3938SOL     OW12349   2.845   3.427   5.444
 3938SOL    HW112350   2.829   3.474   5.362
 3938SOL    HW212351   2.888   3.345   5.416
 3939SOL     OW12352   3.716   3.368   5.329
 3939SOL    HW112353   3.735   3.394   5.239
 3939SOL    HW212354   3.797   3.386   5.376
 3940SOL     OW12355   2.209   2.781   5.536
 3940SOL    HW112356   2.291   2.808   5.579
 3940SOL    HW212357   2.236   2.715   5.473
 3941SOL     OW12358   2.276   2.676   4.738
 3941SOL    HW112359   2.323   2.622   4.674
 3941SOL    HW212360   2.211   2.618   4.776
 3942SOL     OW12361   2.998   2.241   5.400
 3942SOL    HW112362   2.954   2.292   5.468
 3942SOL    HW212363   3.087   2.277   5.397
 3943SOL     OW12364   3.023   2.066   5.196
 3943SOL    HW112365   3.013   2.126   5.270
 3943SOL    HW212366   3.049   2.122   5.123
 3944SOL     OW12367   1.861   3.189   3.929
 3944SOL    HW112368   1.776   3.204   3.889
 3944SOL    HW212369   1.860   3.098   3.956
 3945SOL     OW12370   1.952   3.646   4.661
 3945SOL    HW112371   1.925   3.566   4.618
 3945SOL    HW212372   2.042   3.661   4.632
 3946SOL     OW12373   2.055   2.379   5.451
 3946SOL    HW112374   2.104   2.335   5.382
 3946SOL    HW212375   2.013   2.453   5.407
 3947SOL     OW12376   3.238   2.802   5.383
 3947SOL    HW112377   3.260   2.896   5.383
 3947SOL    HW212378   3.239   2.777   5.291
 3948SOL     OW12379   3.505   2.462   4.922
 3948SOL    HW112380   3.494   2.394   4.989
 3948SOL    HW212381   3.588   2.440   4.880
 3949SOL     OW12382   2.106   3.413   5.451
 3949SOL    HW112383   2.083   3.478   5.518
 3949SOL    HW212384   2.107   3.330   5.498
 3950SOL     OW12385   2.502   2.323   5.016
 3950SOL    HW112386   2.483   2.231   4.999
 3950SOL    HW212387   2.552   2.352   4.940
 3951SOL     OW12388   2.786   3.549   5.205
 3951SOL    HW112389   2.767   3.510   5.120
 3951SOL    HW212390   2.784   3.643   5.190
 3952SOL     OW12391   2.321   2.390   3.931
 3952SOL    HW112392   2.381   2.463   3.915
 3952SOL    HW212393   2.234   2.428   3.927
 3953SOL     OW12394   2.008   3.001   5.203
 3953SOL    HW112395   2.009   2.957   5.289
 3953SOL    HW212396   2.013   2.930   5.140
 3954SOL     OW12397   3.111   2.721   4.015
 3954SOL    HW112398   3.054   2.682   4.081
 3954SOL    HW212399   3.166   2.649   3.984
 3955SOL     OW12400   3.635   3.609   4.875
 3955SOL    HW112401   3.695   3.635   4.805
 3955SOL    HW212402   3.612   3.518   4.855
 3956SOL     OW12403   3.101   3.611   4.832
 3956SOL    HW112404   3.183   3.630   4.787
 3956SOL    HW212405   3.107   3.518   4.854
 3957SOL     OW12406   2.540   3.528   5.453
 3957SOL    HW112407   2.486   3.607   5.448
 3957SOL    HW212408   2.606   3.540   5.384
 3958SOL     OW12409   3.584   2.011   4.240
 3958SOL    HW112410   3.654   1.999   4.176
 3958SOL    HW212411   3.568   1.924   4.276
 3959SOL     OW12412   3.257   3.438   4.219
 3959SOL    HW112413   3.309   3.467   4.144
 3959SOL    HW212414   3.206   3.515   4.243
 3960SOL     OW12415   1.998   3.658   5.567
 3960SOL    HW112416   1.948   3.593   5.615
 3960SOL    HW212417   2.047   3.706   5.635
 3961SOL     OW12418   2.694   3.141   5.159
 3961SOL    HW112419   2.657   3.176   5.239
 3961SOL    HW212420   2.625   3.152   5.093
 3962SOL     OW12421   2.516   3.489   3.880
 3962SOL    HW112422   2.539   3.513   3.790
 3962SOL    HW212423   2.520   3.393   3.881
 3963SOL     OW12424   3.489   3.589   5.115
 3963SOL    HW112425   3.539   3.597   5.033
 3963SOL    HW212426   3.474   3.679   5.143
 3964SOL     OW12427   3.701   2.034   4.688
 3964SOL    HW112428   3.732   1.947   4.664
 3964SOL    HW212429   3.611   2.038   4.654
 3965SOL     OW12430   3.085   3.475   3.760
 3965SOL    HW112431   3.073   3.381   3.778
 3965SOL    HW212432   3.028   3.493   3.686
 3966SOL     OW12433   3.363   3.490   3.766
 3966SOL    HW112434   3.267   3.484   3.759
 3966SOL    HW212435   3.394   3.493   3.676
 3967SOL     OW12436   2.232   3.163   5.213
 3967SOL    HW112437   2.218   3.241   5.159
 3967SOL    HW212438   2.155   3.109   5.199
 3968SOL     OW12439   3.462   3.138   5.010
 3968SOL    HW112440   3.534   3.135   5.073
 3968SOL    HW212441   3.411   3.215   5.036
 3969SOL     OW12442   2.888   2.895   4.370
 3969SOL    HW112443   2.859   2.879   4.460
 3969SOL    HW212444   2.983   2.906   4.377
 3970SOL     OW12445   3.584   2.250   5.106
 3970SOL    HW112446   3.654   2.316   5.104
 3970SOL    HW212447   3.616   2.180   5.049
 3971SOL     OW12448   1.973   2.893   5.450
 3971SOL    HW112449   1.897   2.864   5.499
 3971SOL    HW212450   2.047   2.850   5.493
 3972SOL     OW12451   2.530   2.061   5.217
 3972SOL    HW112452   2.613   2.038   5.175
 3972SOL    HW212453   2.554   2.082   5.307
 3973SOL     OW12454   3.296   2.721   5.127
 3973SOL    HW112455   3.239   2.749   5.054
 3973SOL    HW212456   3.385   2.729   5.092
 3974SOL     OW12457   1.929   2.012   4.045
 3974SOL    HW112458   1.917   2.102   4.013
 3974SOL    HW212459   2.011   1.983   4.005
 3975SOL     OW12460   3.349   3.647   4.710
 3975SOL    HW112461   3.371   3.699   4.632
 3975SOL    HW212462   3.434   3.625   4.749
 3976SOL     OW12463   3.334   3.064   5.356
 3976SOL    HW112464   3.321   3.077   5.450
 3976SOL    HW212465   3.427   3.078   5.341
 3977SOL     OW12466   2.243   3.601   5.286
 3977SOL    HW112467   2.157   3.642   5.273
 3977SOL    HW212468   2.222   3.518   5.330
 3978SOL     OW12469   3.535   2.745   4.986
 3978SOL    HW112470   3.528   2.659   4.946
 3978SOL    HW212471   3.536   2.806   4.912
 3979SOL     OW12472   3.624   2.223   5.376
 3979SOL    HW112473   3.608   2.238   5.283
 3979SOL    HW212474   3.553   2.167   5.404
 3980SOL     OW12475   3.607   2.796   5.241
 3980SOL    HW112476   3.607   2.891   5.252
 3980SOL    HW212477   3.593   2.783   5.147
 3981SOL     OW12478   2.522   3.665   4.674
 3981SOL    HW112479   2.483   3.750   4.652
 3981SOL    HW212480   2.610   3.669   4.637
 3982SOL     OW12481   2.946   2.816   3.802
 3982SOL    HW112482   2.971   2.883   3.739
 3982SOL    HW212483   3.021   2.808   3.861
 3983SOL     OW12484   3.716   3.418   4.569
 3983SOL    HW112485   3.639   3.404   4.513
 3983SOL    HW212486   3.711   3.348   4.634
 3984SOL     OW12487   2.086   3.165   5.579
 3984SOL    HW112488   2.021   3.101   5.550
 3984SOL    HW212489   2.068   3.177   5.672
 3985SOL     OW12490   2.544   3.264   5.352
 3985SOL    HW112491   2.463   3.222   5.379
 3985SOL    HW212492   2.539   3.353   5.388
 3986SOL     OW12493   3.675   2.045   4.960
 3986SOL    HW112494   3.684   1.951   4.974
 3986SOL    HW212495   3.686   2.057   4.866
 3987SOL     OW12496   3.569   3.354   4.827
 3987SOL    HW112497   3.488   3.334   4.781
 3987SOL    HW212498   3.581   3.280   4.887
 3988SOL     OW12499   2.210   2.405   5.047
 3988SOL    HW112500   2.267   2.355   5.106
 3988SOL    HW212501   2.223   2.364   4.961
 3989SOL     OW12502   2.869   1.851   4.899
 3989SOL    HW112503   2.814   1.819   4.828
 3989SOL    HW212504   2.956   1.818   4.878
 3990SOL     OW12505   2.613   3.216   4.116
 3990SOL    HW112506   2.592   3.127   4.088
 3990SOL    HW212507   2.692   3.239   4.066
 3991SOL     OW12508   2.471   3.422   5.012
 3991SOL    HW112509   2.493   3.504   5.057
 3991SOL    HW212510   2.548   3.402   4.960
 3992SOL     OW12511   3.202   1.912   3.898
 3992SOL    HW112512   3.242   1.849   3.838
 3992SOL    HW212513   3.118   1.872   3.922
 3993SOL     OW12514   3.440   2.076   4.615
 3993SOL    HW112515   3.378   2.092   4.686
 3993SOL    HW212516   3.455   2.163   4.577
 3994SOL     OW12517   1.893   2.930   4.011
 3994SOL    HW112518   1.985   2.913   3.993
 3994SOL    HW212519   1.856   2.845   4.033
 3995SOL     OW12520   2.752   3.533   4.043
 3995SOL    HW112521   2.669   3.503   4.007
 3995SOL    HW212522   2.729   3.575   4.126
 3996SOL     OW12523   2.094   2.481   5.708
 3996SOL    HW112524   2.004   2.485   5.743
 3996SOL    HW212525   2.083   2.458   5.616
 3997SOL     OW12526   2.087   2.142   6.577
 3997SOL    HW112527   2.115   2.107   6.662
 3997SOL    HW212528   1.997   2.110   6.567
 3998SOL     OW12529   1.866   2.244   6.225
 3998SOL    HW112530   1.783   2.269   6.266
 3998SOL    HW212531   1.844   2.165   6.175
 3999SOL     OW12532   2.426   3.149   6.762
 3999SOL    HW112533   2.340   3.156   6.721
 3999SOL    HW212534   2.444   3.236   6.797
 4000SOL     OW12535   3.422   3.373   6.293
 4000SOL    HW112536   3.380   3.355   6.376
 4000SOL    HW212537   3.351   3.379   6.230
 4001SOL     OW12538   3.016   2.540   6.304
 4001SOL    HW112539   3.044   2.630   6.288
 4001SOL    HW212540   2.941   2.549   6.363
 4002SOL     OW12541   3.628   2.467   5.815
 4002SOL    HW112542   3.608   2.459   5.722
 4002SOL    HW212543   3.593   2.387   5.854
 4003SOL     OW12544   2.638   3.026   6.633
 4003SOL    HW112545   2.557   3.041   6.681
 4003SOL    HW212546   2.654   3.107   6.586
 4004SOL     OW12547   2.573   3.015   7.394
 4004SOL    HW112548   2.623   3.092   7.421
 4004SOL    HW212549   2.491   3.050   7.358
 4005SOL     OW12550   2.191   3.290   6.653
 4005SOL    HW112551   2.120   3.250   6.602
 4005SOL    HW212552   2.242   3.339   6.589
 4006SOL     OW12553   3.323   3.361   6.941
 4006SOL    HW112554   3.372   3.442   6.951
 4006SOL    HW212555   3.259   3.363   7.012
 4007SOL     OW12556   2.310   2.267   7.089
 4007SOL    HW112557   2.388   2.211   7.082
 4007SOL    HW212558   2.237   2.205   7.094
 4008SOL     OW12559   3.474   2.310   6.326
 4008SOL    HW112560   3.397   2.331   6.273
 4008SOL    HW212561   3.487   2.386   6.382
 4009SOL     OW12562   2.081   3.577   6.058
 4009SOL    HW112563   2.103   3.653   6.112
 4009SOL    HW212564   2.154   3.569   5.997
 4010SOL     OW12565   2.997   3.202   7.278
 4010SOL    HW112566   3.035   3.199   7.366
 4010SOL    HW212567   2.947   3.120   7.271
 4011SOL     OW12568   2.091   3.303   6.120
 4011SOL    HW112569   2.074   3.398   6.125
 4011SOL    HW212570   2.032   3.266   6.186
 4012SOL     OW12571   2.114   2.951   6.473
 4012SOL    HW112572   2.112   2.867   6.518
 4012SOL    HW212573   2.061   3.009   6.528
 4013SOL     OW12574   2.473   3.655   7.015
 4013SOL    HW112575   2.392   3.636   7.062
 4013SOL    HW212576   2.496   3.744   7.041
 4014SOL     OW12577   2.430   2.863   5.712
 4014SOL    HW112578   2.477   2.919   5.650
 4014SOL    HW212579   2.487   2.857   5.788
 4015SOL     OW12580   3.458   1.985   7.054
 4015SOL    HW112581   3.465   2.066   7.003
 4015SOL    HW212582   3.443   2.014   7.144
 4016SOL     OW12583   1.977   2.513   6.147
 4016SOL    HW112584   1.944   2.425   6.168
 4016SOL    HW212585   1.968   2.563   6.228
 4017SOL     OW12586   3.704   3.621   5.921
 4017SOL    HW112587   3.769   3.593   5.986
 4017SOL    HW212588   3.728   3.711   5.902
 4018SOL     OW12589   1.894   3.457   5.710
 4018SOL    HW112590   1.877   3.365   5.729
 4018SOL    HW212591   1.870   3.504   5.789
 4019SOL     OW12592   3.551   2.780   6.226
 4019SOL    HW112593   3.635   2.739   6.207
 4019SOL    HW212594   3.531   2.830   6.148
 4020SOL     OW12595   3.508   2.969   6.015
 4020SOL    HW112596   3.594   2.974   5.973
 4020SOL    HW212597   3.514   3.030   6.088
 4021SOL     OW12598   1.974   2.603   7.172
 4021SOL    HW112599   2.066   2.626   7.185
 4021SOL    HW212600   1.927   2.686   7.180
 4022SOL     OW12601   2.479   3.247   6.321
 4022SOL    HW112602   2.434   3.163   6.332
 4022SOL    HW212603   2.459   3.273   6.231
 4023SOL     OW12604   3.151   3.099   7.011
 4023SOL    HW112605   3.184   3.032   6.950
 4023SOL    HW212606   3.210   3.093   7.087
 4024SOL     OW12607   2.675   1.857   6.096
 4024SOL    HW112608   2.719   1.939   6.074
 4024SOL    HW212609   2.582   1.880   6.103
 4025SOL     OW12610   2.043   2.834   6.855
 4025SOL    HW112611   2.127   2.789   6.846
 4025SOL    HW212612   1.981   2.778   6.809
 4026SOL     OW12613   3.394   2.856   5.784
 4026SOL    HW112614   3.328   2.795   5.817
 4026SOL    HW212615   3.435   2.891   5.863
 4027SOL     OW12616   3.048   3.669   7.208
 4027SOL    HW112617   3.058   3.726   7.132
 4027SOL    HW212618   3.063   3.581   7.173
 4028SOL     OW12619   2.193   2.110   7.398
 4028SOL    HW112620   2.238   2.193   7.410
 4028SOL    HW212621   2.104   2.126   7.429
 4029SOL     OW12622   3.329   3.282   6.539
 4029SOL    HW112623   3.261   3.297   6.604
 4029SOL    HW212624   3.317   3.191   6.512
 4030SOL     OW12625   3.520   3.601   6.164
 4030SOL    HW112626   3.501   3.572   6.075
 4030SOL    HW212627   3.495   3.528   6.220
 4031SOL     OW12628   3.143   2.213   6.518
 4031SOL    HW112629   3.053   2.181   6.527
 4031SOL    HW212630   3.193   2.160   6.581
 4032SOL     OW12631   3.443   3.532   5.895
 4032SOL    HW112632   3.533   3.564   5.888
 4032SOL    HW212633   3.416   3.515   5.805
 4033SOL     OW12634   3.257   2.337   7.261
 4033SOL    HW112635   3.256   2.381   7.346
 4033SOL    HW212636   3.317   2.263   7.274
 4034SOL     OW12637   2.853   2.271   6.834
 4034SOL    HW112638   2.766   2.291   6.870
 4034SOL    HW212639   2.836   2.241   6.745
 4035SOL     OW12640   1.950   2.682   6.363
 4035SOL    HW112641   2.030   2.676   6.413
 4035SOL    HW212642   1.906   2.761   6.396
 4036SOL     OW12643   1.989   3.712   7.165
 4036SOL    HW112644   1.989   3.690   7.258
 4036SOL    HW212645   1.898   3.699   7.138
 4037SOL     OW12646   2.747   2.192   5.733
 4037SOL    HW112647   2.799   2.254   5.681
 4037SOL    HW212648   2.793   2.108   5.722
 4038SOL     OW12649   3.572   2.438   7.415
 4038SOL    HW112650   3.533   2.511   7.368
 4038SOL    HW212651   3.598   2.376   7.347
 4039SOL     OW12652   3.236   3.000   6.124
 4039SOL    HW112653   3.318   2.992   6.076
 4039SOL    HW212654   3.187   3.067   6.077
 4040SOL     OW12655   2.410   2.038   6.475
 4040SOL    HW112656   2.411   2.064   6.567
 4040SOL    HW212657   2.411   2.121   6.427
 4041SOL     OW12658   2.866   3.305   6.058
 4041SOL    HW112659   2.830   3.378   6.009
 4041SOL    HW212660   2.850   3.328   6.150
 4042SOL     OW12661   2.217   3.671   6.448
 4042SOL    HW112662   2.260   3.586   6.456
 4042SOL    HW212663   2.286   3.734   6.467
 4043SOL     OW12664   3.661   2.918   6.454
 4043SOL    HW112665   3.606   2.901   6.378
 4043SOL    HW212666   3.599   2.924   6.527
 4044SOL     OW12667   3.089   3.400   7.098
 4044SOL    HW112668   3.076   3.328   7.160
 4044SOL    HW212669   3.026   3.383   7.029
 4045SOL     OW12670   2.176   2.825   5.836
 4045SOL    HW112671   2.256   2.847   5.789
 4045SOL    HW212672   2.150   2.739   5.802
 4046SOL     OW12673   3.337   2.609   6.313
 4046SOL    HW112674   3.331   2.562   6.396
 4046SOL    HW212675   3.417   2.661   6.321
 4047SOL     OW12676   2.327   3.125   7.324
 4047SOL    HW112677   2.300   3.132   7.232
 4047SOL    HW212678   2.246   3.124   7.373
 4048SOL     OW12679   2.984   3.640   5.817
 4048SOL    HW112680   2.910   3.598   5.862
 4048SOL    HW212681   3.007   3.578   5.747
 4049SOL     OW12682   2.063   2.144   7.087
 4049SOL    HW112683   1.979   2.190   7.081
 4049SOL    HW212684   2.046   2.071   7.147
 4050SOL     OW12685   3.490   3.241   5.674
 4050SOL    HW112686   3.450   3.327   5.659
 4050SOL    HW212687   3.421   3.178   5.654
 4051SOL     OW12688   2.328   3.599   5.907
 4051SOL    HW112689   2.370   3.657   5.971
 4051SOL    HW212690   2.400   3.569   5.851
 4052SOL     OW12691   3.263   1.969   6.019
 4052SOL    HW112692   3.253   1.944   5.927
 4052SOL    HW212693   3.358   1.975   6.032
 4053SOL     OW12694   2.117   3.653   6.818
 4053SOL    HW112695   2.170   3.588   6.864
 4053SOL    HW212696   2.109   3.618   6.729
 4054SOL     OW12697   2.799   3.563   6.484
 4054SOL    HW112698   2.872   3.508   6.513
 4054SOL    HW212699   2.755   3.511   6.416
 4055SOL     OW12700   2.250   2.553   6.060
 4055SOL    HW112701   2.276   2.462   6.079
 4055SOL    HW212702   2.157   2.555   6.082
 4056SOL     OW12703   3.397   2.087   7.312
 4056SOL    HW112704   3.406   2.108   7.405
 4056SOL    HW212705   3.327   2.022   7.308
 4057SOL     OW12706   2.482   1.975   5.704
 4057SOL    HW112707   2.569   1.934   5.703
 4057SOL    HW212708   2.444   1.952   5.619
 4058SOL     OW12709   2.618   2.114   7.333
 4058SOL    HW112710   2.702   2.069   7.340
 4058SOL    HW212711   2.598   2.142   7.422
 4059SOL     OW12712   2.739   3.387   6.780
 4059SOL    HW112713   2.721   3.350   6.694
 4059SOL    HW212714   2.805   3.329   6.819
 4060SOL     OW12715   3.216   2.448   7.012
 4060SOL    HW112716   3.241   2.418   7.099
 4060SOL    HW212717   3.248   2.538   7.008
 4061SOL     OW12718   2.677   3.272   6.522
 4061SOL    HW112719   2.761   3.252   6.480
 4061SOL    HW212720   2.613   3.263   6.452
 4062SOL     OW12721   2.783   2.355   6.489
 4062SOL    HW112722   2.764   2.339   6.396
 4062SOL    HW212723   2.825   2.274   6.519
 4063SOL     OW12724   2.411   1.926   6.088
 4063SOL    HW112725   2.330   1.926   6.139
 4063SOL    HW212726   2.405   2.005   6.033
 4064SOL     OW12727   3.289   3.060   5.626
 4064SOL    HW112728   3.320   2.985   5.677
 4064SOL    HW212729   3.204   3.081   5.664
 4065SOL     OW12730   2.154   1.910   5.771
 4065SOL    HW112731   2.212   1.970   5.725
 4065SOL    HW212732   2.214   1.846   5.812
 4066SOL     OW12733   2.809   2.092   6.051
 4066SOL    HW112734   2.768   2.164   6.003
 4066SOL    HW212735   2.902   2.111   6.048
 4067SOL     OW12736   2.950   2.522   7.054
 4067SOL    HW112737   2.898   2.444   7.036
 4067SOL    HW212738   3.040   2.495   7.038
 4068SOL     OW12739   3.089   3.428   6.377
 4068SOL    HW112740   3.103   3.498   6.313
 4068SOL    HW212741   3.153   3.446   6.446
 4069SOL     OW12742   2.329   3.018   6.320
 4069SOL    HW112743   2.259   2.995   6.381
 4069SOL    HW212744   2.296   2.993   6.234
 4070SOL     OW12745   3.131   3.656   6.194
 4070SOL    HW112746   3.177   3.717   6.137
 4070SOL    HW212747   3.064   3.709   6.238
 4071SOL     OW12748   2.907   2.394   5.609
 4071SOL    HW112749   2.842   2.464   5.613
 4071SOL    HW212750   2.964   2.409   5.684
 4072SOL     OW12751   1.942   2.417   6.976
 4072SOL    HW112752   2.035   2.415   6.953
 4072SOL    HW212753   1.935   2.487   7.041
 4073SOL     OW12754   2.418   2.075   6.746
 4073SOL    HW112755   2.460   2.000   6.789
 4073SOL    HW212756   2.328   2.074   6.779
 4074SOL     OW12757   2.733   2.292   6.239
 4074SOL    HW112758   2.710   2.359   6.175
 4074SOL    HW212759   2.756   2.216   6.186
 4075SOL     OW12760   2.877   1.915   6.338
 4075SOL    HW112761   2.820   1.909   6.261
 4075SOL    HW212762   2.854   1.839   6.391
 4076SOL     OW12763   3.301   3.025   6.444
 4076SOL    HW112764   3.231   2.960   6.442
 4076SOL    HW212765   3.326   3.036   6.352
 4077SOL     OW12766   3.329   2.467   6.561
 4077SOL    HW112767   3.277   2.387   6.565
 4077SOL    HW212768   3.388   2.461   6.636
 4078SOL     OW12769   3.707   2.678   5.968
 4078SOL    HW112770   3.764   2.627   6.027
 4078SOL    HW212771   3.679   2.615   5.902
 4079SOL     OW12772   2.355   3.277   5.744
 4079SOL    HW112773   2.278   3.250   5.795
 4079SOL    HW212774   2.340   3.239   5.657
 4080SOL     OW12775   3.531   3.126   6.232
 4080SOL    HW112776   3.626   3.129   6.245
 4080SOL    HW212777   3.501   3.214   6.253
 4081SOL     OW12778   3.257   2.434   5.658
 4081SOL    HW112779   3.197   2.412   5.729
 4081SOL    HW212780   3.342   2.401   5.688
 4082SOL     OW12781   2.386   2.130   5.907
 4082SOL    HW112782   2.424   2.076   5.838
 4082SOL    HW212783   2.367   2.213   5.865
 4083SOL     OW12784   3.614   3.101   7.158
 4083SOL    HW112785   3.702   3.062   7.155
 4083SOL    HW212786   3.629   3.191   7.188
 4084SOL     OW12787   2.924   3.221   6.921
 4084SOL    HW112788   2.847   3.188   6.968
 4084SOL    HW212789   2.998   3.176   6.962
 4085SOL     OW12790   3.470   3.488   7.239
 4085SOL    HW112791   3.465   3.522   7.149
 4085SOL    HW212792   3.553   3.440   7.241
 4086SOL     OW12793   2.991   3.065   6.690
 4086SOL    HW112794   2.927   3.089   6.757
 4086SOL    HW212795   2.953   3.095   6.608
 4087SOL     OW12796   3.491   2.961   6.664
 4087SOL    HW112797   3.487   3.022   6.736
 4087SOL    HW212798   3.412   2.978   6.613
 4088SOL     OW12799   2.780   1.957   6.982
 4088SOL    HW112800   2.804   1.940   6.890
 4088SOL    HW212801   2.858   1.998   7.019
 4089SOL     OW12802   2.848   2.963   7.308
 4089SOL    HW112803   2.756   2.986   7.324
 4089SOL    HW212804   2.846   2.913   7.226
 4090SOL     OW12805   2.262   2.676   6.852
 4090SOL    HW112806   2.357   2.680   6.864
 4090SOL    HW212807   2.240   2.583   6.863
 4091SOL     OW12808   3.129   2.238   6.860
 4091SOL    HW112809   3.164   2.315   6.905
 4091SOL    HW212810   3.038   2.261   6.841
 4092SOL     OW12811   1.933   3.435   6.939
 4092SOL    HW112812   1.904   3.508   6.884
 4092SOL    HW212813   2.029   3.438   6.933
 4093SOL     OW12814   2.217   2.968   6.074
 4093SOL    HW112815   2.211   3.042   6.014
 4093SOL    HW212816   2.208   2.891   6.018
 4094SOL     OW12817   2.412   2.389   6.461
 4094SOL    HW112818   2.413   2.407   6.367
 4094SOL    HW212819   2.504   2.395   6.487
 4095SOL     OW12820   3.110   3.210   5.977
 4095SOL    HW112821   3.165   3.282   6.006
 4095SOL    HW212822   3.022   3.232   6.010
 4096SOL     OW12823   3.143   3.319   6.731
 4096SOL    HW112824   3.196   3.321   6.811
 4096SOL    HW212825   3.082   3.246   6.744
 4097SOL     OW12826   3.441   2.486   6.064
 4097SOL    HW112827   3.397   2.540   6.129
 4097SOL    HW212828   3.489   2.548   6.009
 4098SOL     OW12829   2.209   3.389   6.901
 4098SOL    HW112830   2.196   3.347   6.816
 4098SOL    HW212831   2.304   3.401   6.908
 4099SOL     OW12832   2.251   2.599   7.193
 4099SOL    HW112833   2.298   2.650   7.128
 4099SOL    HW212834   2.287   2.510   7.184
 4100SOL     OW12835   3.464   2.641   7.268
 4100SOL    HW112836   3.377   2.681   7.261
 4100SOL    HW212837   3.515   2.683   7.200
 4101SOL     OW12838   2.862   1.986   7.344
 4101SOL    HW112839   2.916   2.059   7.314
 4101SOL    HW212840   2.910   1.908   7.316
 4102SOL     OW12841   2.358   1.900   7.335
 4102SOL    HW112842   2.316   1.847   7.267
 4102SOL    HW212843   2.301   1.976   7.345
 4103SOL     OW12844   3.225   2.721   6.617
 4103SOL    HW112845   3.146   2.711   6.564
 4103SOL    HW212846   3.267   2.635   6.615
 4104SOL     OW12847   3.063   2.390   5.854
 4104SOL    HW112848   3.067   2.307   5.903
 4104SOL    HW212849   3.060   2.457   5.922
 4105SOL     OW12850   2.160   2.061   6.833
 4105SOL    HW112851   2.123   2.093   6.916
 4105SOL    HW212852   2.141   1.967   6.834
 4106SOL     OW12853   1.906   3.173   6.862
 4106SOL    HW112854   1.940   3.119   6.933
 4106SOL    HW212855   1.915   3.263   6.895
 4107SOL     OW12856   3.598   2.821   7.438
 4107SOL    HW112857   3.550   2.760   7.382
 4107SOL    HW212858   3.539   2.836   7.513
 4108SOL     OW12859   2.165   1.927   6.209
 4108SOL    HW112860   2.145   2.018   6.233
 4108SOL    HW212861   2.172   1.882   6.293
 4109SOL     OW12862   3.478   2.236   5.953
 4109SOL    HW112863   3.506   2.172   6.018
 4109SOL    HW212864   3.455   2.314   6.004
 4110SOL     OW12865   2.844   3.428   7.302
 4110SOL    HW112866   2.829   3.472   7.219
 4110SOL    HW212867   2.887   3.345   7.278
 4111SOL     OW12868   3.717   3.368   7.191
 4111SOL    HW112869   3.735   3.394   7.101
 4111SOL    HW212870   3.798   3.386   7.238
 4112SOL     OW12871   2.210   2.782   7.397
 4112SOL    HW112872   2.291   2.803   7.444
 4112SOL    HW212873   2.235   2.711   7.337
 4113SOL     OW12874   3.390   2.136   5.713
 4113SOL    HW112875   3.326   2.069   5.740
 4113SOL    HW212876   3.424   2.171   5.796
 4114SOL     OW12877   3.153   2.687   5.615
 4114SOL    HW112878   3.196   2.601   5.618
 4114SOL    HW212879   3.185   2.726   5.534
 4115SOL     OW12880   2.925   3.201   6.436
 4115SOL    HW112881   2.931   3.129   6.373
 4115SOL    HW212882   2.989   3.266   6.405
 4116SOL     OW12883   2.168   2.673   6.537
 4116SOL    HW112884   2.258   2.704   6.541
 4116SOL    HW212885   2.171   2.585   6.573
 4117SOL     OW12886   2.189   2.387   6.606
 4117SOL    HW112887   2.153   2.300   6.588
 4117SOL    HW212888   2.269   2.392   6.553
 4118SOL     OW12889   3.000   2.231   7.264
 4118SOL    HW112890   2.952   2.284   7.328
 4118SOL    HW212891   3.086   2.274   7.258
 4119SOL     OW12892   3.024   2.062   7.054
 4119SOL    HW112893   3.013   2.123   7.126
 4119SOL    HW212894   3.062   2.114   6.983
 4120SOL     OW12895   1.867   3.183   5.781
 4120SOL    HW112896   1.780   3.197   5.743
 4120SOL    HW212897   1.865   3.093   5.815
 4121SOL     OW12898   1.952   3.649   6.524
 4121SOL    HW112899   1.922   3.570   6.480
 4121SOL    HW212900   2.042   3.661   6.493
 4122SOL     OW12901   2.358   3.435   6.490
 4122SOL    HW112902   2.427   3.497   6.516
 4122SOL    HW212903   2.403   3.370   6.436
 4123SOL     OW12904   1.897   2.406   6.703
 4123SOL    HW112905   1.978   2.395   6.653
 4123SOL    HW212906   1.924   2.410   6.794
 4124SOL     OW12907   2.053   2.380   7.313
 4124SOL    HW112908   2.103   2.338   7.244
 4124SOL    HW212909   2.009   2.453   7.269
 4125SOL     OW12910   3.238   2.801   7.245
 4125SOL    HW112911   3.260   2.894   7.243
 4125SOL    HW212912   3.235   2.775   7.153
 4126SOL     OW12913   2.703   2.327   5.960
 4126SOL    HW112914   2.706   2.287   5.873
 4126SOL    HW212915   2.630   2.389   5.956
 4127SOL     OW12916   3.504   2.464   6.771
 4127SOL    HW112917   3.492   2.406   6.847
 4127SOL    HW212918   3.591   2.443   6.738
 4128SOL     OW12919   2.104   3.413   7.313
 4128SOL    HW112920   2.083   3.477   7.381
 4128SOL    HW212921   2.108   3.329   7.359
 4129SOL     OW12922   2.537   2.298   6.849
 4129SOL    HW112923   2.498   2.219   6.812
 4129SOL    HW212924   2.564   2.350   6.773
 4130SOL     OW12925   2.788   3.542   7.055
 4130SOL    HW112926   2.765   3.505   6.970
 4130SOL    HW212927   2.783   3.637   7.041
 4131SOL     OW12928   2.330   2.365   5.784
 4131SOL    HW112929   2.380   2.446   5.791
 4131SOL    HW212930   2.240   2.394   5.767
 4132SOL     OW12931   2.006   3.004   7.059
 4132SOL    HW112932   2.008   2.951   7.139
 4132SOL    HW212933   2.021   2.941   6.989
 4133SOL     OW12934   3.189   2.910   6.810
 4133SOL    HW112935   3.212   2.847   6.742
 4133SOL    HW212936   3.120   2.963   6.770
 4134SOL     OW12937   3.177   2.709   5.888
 4134SOL    HW112938   3.094   2.730   5.933
 4134SOL    HW212939   3.153   2.704   5.796
 4135SOL     OW12940   3.633   3.606   6.736
 4135SOL    HW112941   3.694   3.632   6.666
 4135SOL    HW212942   3.610   3.516   6.714
 4136SOL     OW12943   3.103   3.595   6.698
 4136SOL    HW112944   3.185   3.615   6.654
 4136SOL    HW212945   3.108   3.502   6.718
 4137SOL     OW12946   1.945   3.129   6.598
 4137SOL    HW112947   1.932   3.142   6.692
 4137SOL    HW212948   1.873   3.073   6.570
 4138SOL     OW12949   2.539   3.527   7.314
 4138SOL    HW112950   2.488   3.607   7.310
 4138SOL    HW212951   2.606   3.538   7.246
 4139SOL     OW12952   3.581   2.008   6.095
 4139SOL    HW112953   3.654   1.994   6.035
 4139SOL    HW212954   3.565   1.923   6.135
 4140SOL     OW12955   3.252   3.430   6.070
 4140SOL    HW112956   3.313   3.463   6.004
 4140SOL    HW212957   3.204   3.507   6.099
 4141SOL     OW12958   1.997   3.659   7.430
 4141SOL    HW112959   1.947   3.594   7.479
 4141SOL    HW212960   2.046   3.707   7.497
 4142SOL     OW12961   3.131   2.787   6.256
 4142SOL    HW112962   3.204   2.726   6.265
 4142SOL    HW212963   3.167   2.860   6.205
 4143SOL     OW12964   2.689   3.141   7.023
 4143SOL    HW112965   2.645   3.184   7.095
 4143SOL    HW212966   2.619   3.117   6.962
 4144SOL     OW12967   2.533   3.482   5.741
 4144SOL    HW112968   2.543   3.494   5.647
 4144SOL    HW212969   2.478   3.404   5.749
 4145SOL     OW12970   3.489   3.589   6.977
 4145SOL    HW112971   3.538   3.596   6.895
 4145SOL    HW212972   3.475   3.679   7.005
 4146SOL     OW12973   3.703   2.035   6.553
 4146SOL    HW112974   3.731   1.948   6.526
 4146SOL    HW212975   3.616   2.045   6.513
 4147SOL     OW12976   2.124   2.180   6.303
 4147SOL    HW112977   2.037   2.213   6.279
 4147SOL    HW212978   2.119   2.169   6.398
 4148SOL     OW12979   3.069   3.468   5.617
 4148SOL    HW112980   3.060   3.376   5.644
 4148SOL    HW212981   3.004   3.480   5.549
 4149SOL     OW12982   3.354   3.486   5.628
 4149SOL    HW112983   3.259   3.481   5.615
 4149SOL    HW212984   3.391   3.493   5.540
 4150SOL     OW12985   2.229   3.166   7.080
 4150SOL    HW112986   2.219   3.241   7.022
 4150SOL    HW212987   2.152   3.112   7.062
 4151SOL     OW12988   3.474   3.145   6.867
 4151SOL    HW112989   3.531   3.134   6.942
 4151SOL    HW212990   3.412   3.214   6.894
 4152SOL     OW12991   2.913   2.970   6.289
 4152SOL    HW112992   2.839   2.923   6.328
 4152SOL    HW212993   2.977   2.901   6.269
 4153SOL     OW12994   2.887   2.100   6.552
 4153SOL    HW112995   2.882   2.051   6.470
 4153SOL    HW212996   2.880   2.033   6.620
 4154SOL     OW12997   2.463   3.353   6.067
 4154SOL    HW112998   2.508   3.307   5.996
 4154SOL    HW212999   2.393   3.401   6.023
 4155SOL     OW13000   3.584   2.254   6.967
 4155SOL    HW113001   3.656   2.317   6.965
 4155SOL    HW213002   3.614   2.182   6.910
 4156SOL     OW13003   2.122   3.207   5.874
 4156SOL    HW113004   2.029   3.205   5.851
 4156SOL    HW213005   2.123   3.244   5.962
 4157SOL     OW13006   1.973   2.882   7.304
 4157SOL    HW113007   1.897   2.861   7.358
 4157SOL    HW213008   2.047   2.847   7.352
 4158SOL     OW13009   2.533   2.054   7.081
 4158SOL    HW113010   2.618   2.039   7.041
 4158SOL    HW213011   2.553   2.080   7.171
 4159SOL     OW13012   1.939   2.196   5.622
 4159SOL    HW113013   1.852   2.176   5.587
 4159SOL    HW213014   1.969   2.271   5.570
 4160SOL     OW13015   3.293   2.721   6.987
 4160SOL    HW113016   3.243   2.781   6.932
 4160SOL    HW213017   3.382   2.724   6.952
 4161SOL     OW13018   1.931   2.018   5.896
 4161SOL    HW113019   1.916   2.098   5.844
 4161SOL    HW213020   2.015   1.985   5.866
 4162SOL     OW13021   3.041   3.201   5.703
 4162SOL    HW113022   2.951   3.172   5.705
 4162SOL    HW213023   3.069   3.202   5.795
 4163SOL     OW13024   3.346   3.638   6.564
 4163SOL    HW113025   3.370   3.698   6.494
 4163SOL    HW213026   3.429   3.620   6.609
 4164SOL     OW13027   3.334   3.061   7.219
 4164SOL    HW113028   3.321   3.075   7.312
 4164SOL    HW213029   3.427   3.077   7.205
 4165SOL     OW13030   2.241   3.602   7.150
 4165SOL    HW113031   2.156   3.643   7.137
 4165SOL    HW213032   2.221   3.518   7.191
 4166SOL     OW13033   3.532   2.743   6.841
 4166SOL    HW113034   3.525   2.658   6.799
 4166SOL    HW213035   3.522   2.807   6.770
 4167SOL     OW13036   3.081   2.181   6.042
 4167SOL    HW113037   3.143   2.109   6.034
 4167SOL    HW213038   3.109   2.228   6.120
 4168SOL     OW13039   3.624   2.223   7.237
 4168SOL    HW113040   3.608   2.239   7.144
 4168SOL    HW213041   3.552   2.167   7.266
 4169SOL     OW13042   3.608   2.795   7.098
 4169SOL    HW113043   3.603   2.890   7.112
 4169SOL    HW213044   3.592   2.784   7.005
 4170SOL     OW13045   2.731   3.234   5.621
 4170SOL    HW113046   2.689   3.264   5.702
 4170SOL    HW213047   2.747   3.314   5.572
 4171SOL     OW13048   2.522   3.654   6.530
 4171SOL    HW113049   2.503   3.745   6.507
 4171SOL    HW213050   2.617   3.646   6.524
 4172SOL     OW13051   2.952   2.858   5.677
 4172SOL    HW113052   2.922   2.902   5.598
 4172SOL    HW213053   3.022   2.800   5.647
 4173SOL     OW13054   3.716   3.416   6.430
 4173SOL    HW113055   3.638   3.405   6.377
 4173SOL    HW213056   3.707   3.351   6.500
 4174SOL     OW13057   2.087   3.165   7.443
 4174SOL    HW113058   2.019   3.105   7.413
 4174SOL    HW213059   2.069   3.178   7.536
 4175SOL     OW13060   1.946   3.095   6.252
 4175SOL    HW113061   1.953   3.047   6.334
 4175SOL    HW213062   2.015   3.058   6.197
 4176SOL     OW13063   2.540   3.265   7.212
 4176SOL    HW113064   2.460   3.223   7.244
 4176SOL    HW213065   2.538   3.353   7.250
 4177SOL     OW13066   3.676   2.046   6.824
 4177SOL    HW113067   3.684   1.952   6.838
 4177SOL    HW213068   3.685   2.057   6.729
 4178SOL     OW13069   2.306   2.294   6.127
 4178SOL    HW113070   2.326   2.229   6.058
 4178SOL    HW213071   2.243   2.249   6.184
 4179SOL     OW13072   3.563   3.351   6.682
 4179SOL    HW113073   3.481   3.329   6.637
 4179SOL    HW213074   3.573   3.283   6.748
 4180SOL     OW13075   2.198   2.414   6.882
 4180SOL    HW113076   2.252   2.355   6.934
 4180SOL    HW213077   2.209   2.384   6.792
 4181SOL     OW13078   2.690   3.440   6.261
 4181SOL    HW113079   2.673   3.493   6.183
 4181SOL    HW213080   2.614   3.383   6.268
 4182SOL     OW13081   3.295   2.086   6.704
 4182SOL    HW113082   3.320   2.007   6.751
 4182SOL    HW213083   3.242   2.136   6.767
 4183SOL     OW13084   2.871   1.880   6.728
 4183SOL    HW113085   2.817   1.811   6.688
 4183SOL    HW213086   2.959   1.842   6.731
 4184SOL     OW13087   2.636   3.204   5.899
 4184SOL    HW113088   2.608   3.113   5.894
 4184SOL    HW213089   2.717   3.201   5.950
 4185SOL     OW13090   2.480   3.421   6.869
 4185SOL    HW113091   2.485   3.503   6.919
 4185SOL    HW213092   2.569   3.410   6.834
 4186SOL     OW13093   3.214   1.916   5.751
 4186SOL    HW113094   3.243   1.852   5.686
 4186SOL    HW213095   3.127   1.886   5.778
 4187SOL     OW13096   3.166   2.316   6.267
 4187SOL    HW113097   3.116   2.397   6.275
 4187SOL    HW213098   3.160   2.275   6.353
 4188SOL     OW13099   3.449   2.064   6.464
 4188SOL    HW113100   3.388   2.084   6.535
 4188SOL    HW213101   3.448   2.142   6.409
 4189SOL     OW13102   1.906   2.933   5.892
 4189SOL    HW113103   1.999   2.923   5.872
 4189SOL    HW213104   1.877   2.844   5.915
 4190SOL     OW13105   2.747   3.515   5.928
 4190SOL    HW113106   2.674   3.498   5.868
 4190SOL    HW213107   2.718   3.590   5.980
 4191SOL     OW13108   2.093   2.479   7.570
 4191SOL    HW113109   2.005   2.491   7.604
 4191SOL    HW213110   2.081   2.456   7.478
 4192SOL     OW13111   3.628   2.461   7.680
 4192SOL    HW113112   3.609   2.457   7.586
 4192SOL    HW213113   3.588   2.382   7.716
 4193SOL     OW13114   2.082   3.581   7.919
 4193SOL    HW113115   2.112   3.621   8.000
 4193SOL    HW213116   2.161   3.578   7.864
 4194SOL     OW13117   2.078   3.301   7.989
 4194SOL    HW113118   2.062   3.395   7.990
 4194SOL    HW213119   2.023   3.266   8.059
 4195SOL     OW13120   2.430   2.858   7.567
 4195SOL    HW113121   2.481   2.913   7.507
 4195SOL    HW213122   2.467   2.877   7.653
 4196SOL     OW13123   3.699   3.621   7.797
 4196SOL    HW113124   3.770   3.590   7.854
 4196SOL    HW213125   3.725   3.710   7.772
 4197SOL     OW13126   1.892   3.461   7.577
 4197SOL    HW113127   1.877   3.368   7.593
 4197SOL    HW213128   1.865   3.503   7.659
 4198SOL     OW13129   3.544   2.728   8.036
 4198SOL    HW113130   3.625   2.739   0.006
 4198SOL    HW213131   3.532   2.811   7.990
 4199SOL     OW13132   3.517   2.959   7.878
 4199SOL    HW113133   3.603   2.986   7.847
 4199SOL    HW213134   3.488   3.032   7.933
 4200SOL     OW13135   2.665   1.858   7.942
 4200SOL    HW113136   2.713   1.939   7.922
 4200SOL    HW213137   2.573   1.885   7.947
 4201SOL     OW13138   3.395   2.855   7.649
 4201SOL    HW113139   3.328   2.795   7.681
 4201SOL    HW213140   3.437   2.890   7.728
 4202SOL     OW13141   3.436   3.533   7.757
 4202SOL    HW113142   3.527   3.562   7.765
 4202SOL    HW213143   3.424   3.520   7.663
 4203SOL     OW13144   1.923   2.722   0.091
 4203SOL    HW113145   1.994   2.665   0.120
 4203SOL    HW213146   1.915   2.788   0.159
 4204SOL     OW13147   2.746   2.204   7.641
 4204SOL    HW113148   2.787   2.273   7.589
 4204SOL    HW213149   2.786   2.123   7.608
 4205SOL     OW13150   2.177   2.824   7.695
 4205SOL    HW113151   2.259   2.838   7.648
 4205SOL    HW213152   2.148   2.737   7.668
 4206SOL     OW13153   2.986   3.637   7.682
 4206SOL    HW113154   2.909   3.598   7.723
 4206SOL    HW213155   3.009   3.577   7.611
 4207SOL     OW13156   3.490   3.243   7.534
 4207SOL    HW113157   3.448   3.327   7.520
 4207SOL    HW213158   3.422   3.178   7.517
 4208SOL     OW13159   2.328   3.601   7.769
 4208SOL    HW113160   2.377   3.652   7.833
 4208SOL    HW213161   2.395   3.564   7.711
 4209SOL     OW13162   3.278   1.994   7.864
 4209SOL    HW113163   3.265   1.959   7.776
 4209SOL    HW213164   3.373   1.991   7.877
 4210SOL     OW13165   2.240   2.548   7.900
 4210SOL    HW113166   2.248   2.456   7.926
 4210SOL    HW213167   2.169   2.582   7.955
 4211SOL     OW13168   2.482   1.975   7.568
 4211SOL    HW113169   2.567   1.932   7.569
 4211SOL    HW213170   2.445   1.953   7.483
 4212SOL     OW13171   2.395   1.936   7.959
 4212SOL    HW113172   2.308   1.937   7.999
 4212SOL    HW213173   2.393   2.007   7.894
 4213SOL     OW13174   3.290   3.060   7.490
 4213SOL    HW113175   3.320   2.985   7.541
 4213SOL    HW213176   3.204   3.081   7.525
 4214SOL     OW13177   2.155   1.911   7.633
 4214SOL    HW113178   2.214   1.970   7.585
 4214SOL    HW213179   2.213   1.845   7.671
 4215SOL     OW13180   2.802   2.092   7.907
 4215SOL    HW113181   2.764   2.147   7.838
 4215SOL    HW213182   2.892   2.121   7.914
 4216SOL     OW13183   2.288   3.046   0.091
 4216SOL    HW113184   2.210   3.043   0.146
 4216SOL    HW213185   2.259   3.014   0.005
 4217SOL     OW13186   3.153   3.674   8.014
 4217SOL    HW113187   3.188   3.743   7.958
 4217SOL    HW213188   3.068   3.707   8.043
 4218SOL     OW13189   2.906   2.383   7.474
 4218SOL    HW113190   2.863   2.467   7.464
 4218SOL    HW213191   2.969   2.397   7.545
 4219SOL     OW13192   3.734   2.678   7.802
 4219SOL    HW113193   3.728   2.650   7.893
 4219SOL    HW213194   3.693   2.608   7.752
 4220SOL     OW13195   2.350   3.278   7.605
 4220SOL    HW113196   2.276   3.249   7.657
 4220SOL    HW213197   2.336   3.239   7.519
 4221SOL     OW13198   3.256   2.432   7.518
 4221SOL    HW113199   3.195   2.413   7.589
 4221SOL    HW213200   3.340   2.399   7.549
 4222SOL     OW13201   2.386   2.131   7.772
 4222SOL    HW113202   2.426   2.077   7.704
 4222SOL    HW213203   2.368   2.215   7.729
 4223SOL     OW13204   2.571   2.943   7.821
 4223SOL    HW113205   2.517   2.947   7.901
 4223SOL    HW213206   2.599   2.852   7.817
 4224SOL     OW13207   2.231   2.963   7.925
 4224SOL    HW113208   2.207   3.040   7.873
 4224SOL    HW213209   2.216   2.889   7.866
 4225SOL     OW13210   3.087   3.217   7.822
 4225SOL    HW113211   3.149   3.286   7.846
 4225SOL    HW213212   3.045   3.193   7.904
 4226SOL     OW13213   3.450   2.490   7.922
 4226SOL    HW113214   3.439   2.552   7.995
 4226SOL    HW213215   3.487   2.542   7.851
 4227SOL     OW13216   3.065   2.388   7.714
 4227SOL    HW113217   3.064   2.307   7.766
 4227SOL    HW213218   3.062   2.458   7.779
 4228SOL     OW13219   3.481   2.241   7.815
 4228SOL    HW113220   3.502   2.174   7.880
 4228SOL    HW213221   3.456   2.318   7.866
 4229SOL     OW13222   3.392   2.136   7.575
 4229SOL    HW113223   3.326   2.072   7.601
 4229SOL    HW213224   3.424   2.172   7.658
 4230SOL     OW13225   3.158   2.689   7.482
 4230SOL    HW113226   3.196   2.602   7.481
 4230SOL    HW213227   3.185   2.729   7.399
 4231SOL     OW13228   1.867   3.186   7.640
 4231SOL    HW113229   1.780   3.199   7.603
 4231SOL    HW213230   1.867   3.097   7.674
 4232SOL     OW13231   2.330   2.364   7.644
 4232SOL    HW113232   2.383   2.441   7.662
 4232SOL    HW213233   2.242   2.398   7.629
 4233SOL     OW13234   3.167   2.704   7.755
 4233SOL    HW113235   3.080   2.729   7.787
 4233SOL    HW213236   3.157   2.700   7.659
 4234SOL     OW13237   3.575   2.009   7.948
 4234SOL    HW113238   3.651   2.001   7.891
 4234SOL    HW213239   3.577   1.930   8.002
 4235SOL     OW13240   3.226   3.439   7.896
 4235SOL    HW113241   3.301   3.459   7.840
 4235SOL    HW213242   3.194   3.524   7.927
 4236SOL     OW13243   2.528   3.483   7.603
 4236SOL    HW113244   2.542   3.493   7.509
 4236SOL    HW213245   2.477   3.402   7.612
 4237SOL     OW13246   3.071   3.469   7.478
 4237SOL    HW113247   3.060   3.378   7.506
 4237SOL    HW213248   3.004   3.481   7.410
 4238SOL     OW13249   3.355   3.489   7.489
 4238SOL    HW113250   3.261   3.481   7.477
 4238SOL    HW213251   3.390   3.494   7.400
 4239SOL     OW13252   2.472   3.372   7.935
 4239SOL    HW113253   2.515   3.310   7.876
 4239SOL    HW213254   2.394   3.400   7.888
 4240SOL     OW13255   2.120   3.208   7.740
 4240SOL    HW113256   2.028   3.206   7.715
 4240SOL    HW213257   2.119   3.244   7.829
 4241SOL     OW13258   1.939   2.195   7.484
 4241SOL    HW113259   1.852   2.176   7.448
 4241SOL    HW213260   1.969   2.271   7.435
 4242SOL     OW13261   1.932   2.019   7.758
 4242SOL    HW113262   1.916   2.095   7.702
 4242SOL    HW213263   2.015   1.984   7.726
 4243SOL     OW13264   3.038   3.203   7.556
 4243SOL    HW113265   2.950   3.167   7.557
 4243SOL    HW213266   3.063   3.207   7.648
 4244SOL     OW13267   3.075   2.181   7.901
 4244SOL    HW113268   3.150   2.121   7.892
 4244SOL    HW213269   3.092   2.228   7.983
 4245SOL     OW13270   2.723   3.229   7.480
 4245SOL    HW113271   2.688   3.256   7.565
 4245SOL    HW213272   2.745   3.311   7.435
 4246SOL     OW13273   2.963   2.876   7.546
 4246SOL    HW113274   2.924   2.907   7.464
 4246SOL    HW213275   3.022   2.806   7.519
 4247SOL     OW13276   2.253   2.285   7.984
 4247SOL    HW113277   2.300   2.235   7.917
 4247SOL    HW213278   2.297   2.263   8.065
 4248SOL     OW13279   2.632   3.206   7.757
 4248SOL    HW113280   2.602   3.115   7.763
 4248SOL    HW213281   2.714   3.208   7.805
 4249SOL     OW13282   3.214   1.915   7.610
 4249SOL    HW113283   3.243   1.849   7.547
 4249SOL    HW213284   3.128   1.885   7.638
 4250SOL     OW13285   1.914   2.941   7.750
 4250SOL    HW113286   2.007   2.929   7.733
 4250SOL    HW213287   1.881   2.852   7.765
 4251SOL     OW13288   2.755   3.514   7.781
 4251SOL    HW113289   2.679   3.489   7.729
 4251SOL    HW213290   2.721   3.576   7.845
 4252SOL     OW13291   2.081   4.347   0.122
 4252SOL    HW113292   2.001   4.313   0.161
 4252SOL    HW213293   2.103   4.285   0.053
 4253SOL     OW13294   2.087   4.005   0.992
 4253SOL    HW113295   2.115   3.971   1.076
 4253SOL    HW213296   1.997   3.973   0.982
 4254SOL     OW13297   1.866   4.107   0.638
 4254SOL    HW113298   1.783   4.133   0.679
 4254SOL    HW213299   1.845   4.027   0.590
 4255SOL     OW13300   2.428   5.006   1.179
 4255SOL    HW113301   2.343   5.004   1.135
 4255SOL    HW213302   2.440   5.097   1.205
 4256SOL     OW13303   3.418   5.233   0.688
 4256SOL    HW113304   3.395   5.230   0.780
 4256SOL    HW213305   3.340   5.269   0.645
 4257SOL     OW13306   2.992   4.422   0.701
 4257SOL    HW113307   3.041   4.503   0.687
 4257SOL    HW213308   2.946   4.437   0.784
 4258SOL     OW13309   3.632   4.324   0.233
 4258SOL    HW113310   3.593   4.326   0.145
 4258SOL    HW213311   3.592   4.249   0.275
 4259SOL     OW13312   2.618   4.868   1.038
 4259SOL    HW113313   2.550   4.900   1.098
 4259SOL    HW213314   2.648   4.946   0.993
 4260SOL     OW13315   2.729   4.498   1.822
 4260SOL    HW113316   2.715   4.570   1.884
 4260SOL    HW213317   2.752   4.542   1.740
 4261SOL     OW13318   2.546   4.725   0.651
 4261SOL    HW113319   2.612   4.715   0.720
 4261SOL    HW213320   2.478   4.779   0.690
 4262SOL     OW13321   2.571   4.872   1.811
 4262SOL    HW113322   2.618   4.952   1.836
 4262SOL    HW213323   2.487   4.904   1.777
 4263SOL     OW13324   2.199   5.151   1.060
 4263SOL    HW113325   2.122   5.107   1.025
 4263SOL    HW213326   2.238   5.194   0.984
 4264SOL     OW13327   3.317   5.220   1.347
 4264SOL    HW113328   3.371   5.293   1.379
 4264SOL    HW213329   3.250   5.210   1.415
 4265SOL     OW13330   2.311   4.122   1.487
 4265SOL    HW113331   2.386   4.063   1.493
 4265SOL    HW213332   2.235   4.066   1.500
 4266SOL     OW13333   3.474   4.172   0.741
 4266SOL    HW113334   3.399   4.194   0.686
 4266SOL    HW213335   3.489   4.249   0.795
 4267SOL     OW13336   2.995   5.072   1.701
 4267SOL    HW113337   3.026   5.073   1.792
 4267SOL    HW213338   2.942   4.993   1.694
 4268SOL     OW13339   2.069   5.155   0.515
 4268SOL    HW113340   2.098   5.237   0.556
 4268SOL    HW213341   2.018   5.111   0.583
 4269SOL     OW13342   2.120   4.811   0.892
 4269SOL    HW113343   2.117   4.724   0.931
 4269SOL    HW213344   2.062   4.864   0.947
 4270SOL     OW13345   2.491   4.685   0.132
 4270SOL    HW113346   2.439   4.761   0.107
 4270SOL    HW213347   2.540   4.713   0.209
 4271SOL     OW13348   3.458   3.847   1.468
 4271SOL    HW113349   3.466   3.928   1.417
 4271SOL    HW213350   3.444   3.877   1.558
 4272SOL     OW13351   1.977   4.374   0.562
 4272SOL    HW113352   1.947   4.286   0.583
 4272SOL    HW213353   1.968   4.423   0.644
 4273SOL     OW13354   1.839   0.020   0.095
 4273SOL    HW113355   1.855   5.229   0.122
 4273SOL    HW213356   1.869   0.073   0.169
 4274SOL     OW13357   3.549   4.641   0.643
 4274SOL    HW113358   3.632   4.600   0.621
 4274SOL    HW213359   3.527   4.694   0.565
 4275SOL     OW13360   3.508   4.829   0.434
 4275SOL    HW113361   3.590   4.841   0.386
 4275SOL    HW213362   3.514   4.891   0.507
 4276SOL     OW13363   1.985   4.466   1.586
 4276SOL    HW113364   2.077   4.492   1.594
 4276SOL    HW213365   1.936   4.549   1.594
 4277SOL     OW13366   2.484   5.098   0.738
 4277SOL    HW113367   2.429   5.020   0.735
 4277SOL    HW213368   2.466   5.143   0.655
 4278SOL     OW13369   3.151   4.954   1.426
 4278SOL    HW113370   3.185   4.889   1.365
 4278SOL    HW213371   3.211   4.952   1.500
 4279SOL     OW13372   2.678   3.726   0.510
 4279SOL    HW113373   2.717   3.811   0.489
 4279SOL    HW213374   2.584   3.745   0.518
 4280SOL     OW13375   2.052   4.690   1.270
 4280SOL    HW113376   2.137   4.647   1.256
 4280SOL    HW213377   1.989   4.635   1.223
 4281SOL     OW13378   3.371   4.734   0.210
 4281SOL    HW113379   3.311   4.667   0.243
 4281SOL    HW213380   3.424   4.757   0.287
 4282SOL     OW13381   2.195   3.974   1.812
 4282SOL    HW113382   2.240   4.057   1.828
 4282SOL    HW213383   2.106   3.988   1.843
 4283SOL     OW13384   3.339   5.146   0.962
 4283SOL    HW113385   3.265   5.159   1.023
 4283SOL    HW213386   3.326   5.058   0.928
 4284SOL     OW13387   2.460   4.438   0.282
 4284SOL    HW113388   2.479   4.515   0.229
 4284SOL    HW213389   2.396   4.468   0.347
 4285SOL     OW13390   3.141   4.076   0.932
 4285SOL    HW113391   3.051   4.043   0.941
 4285SOL    HW213392   3.192   4.023   0.994
 4286SOL     OW13393   2.654   4.342   1.451
 4286SOL    HW113394   2.628   4.318   1.540
 4286SOL    HW213395   2.614   4.275   1.396
 4287SOL     OW13396   3.255   4.198   1.678
 4287SOL    HW113397   3.258   4.243   1.762
 4287SOL    HW213398   3.317   4.125   1.687
 4288SOL     OW13399   2.817   4.612   1.583
 4288SOL    HW113400   2.871   4.542   1.547
 4288SOL    HW213401   2.769   4.646   1.507
 4289SOL     OW13402   2.854   4.137   1.239
 4289SOL    HW113403   2.769   4.158   1.276
 4289SOL    HW213404   2.835   4.090   1.157
 4290SOL     OW13405   2.914   4.422   0.427
 4290SOL    HW113406   2.930   4.416   0.522
 4290SOL    HW213407   2.832   4.376   0.413
 4291SOL     OW13408   1.951   4.545   0.776
 4291SOL    HW113409   2.031   4.538   0.827
 4291SOL    HW213410   1.906   4.622   0.811
 4292SOL     OW13411   2.747   4.081   0.201
 4292SOL    HW113412   2.792   4.131   0.133
 4292SOL    HW213413   2.747   3.991   0.170
 4293SOL     OW13414   3.570   4.298   1.828
 4293SOL    HW113415   3.533   4.372   1.780
 4293SOL    HW213416   3.598   4.237   1.760
 4294SOL     OW13417   3.238   4.863   0.540
 4294SOL    HW113418   3.319   4.850   0.489
 4294SOL    HW213419   3.187   4.926   0.488
 4295SOL     OW13420   2.412   3.906   0.893
 4295SOL    HW113421   2.414   3.935   0.984
 4295SOL    HW213422   2.414   3.987   0.842
 4296SOL     OW13423   2.879   5.165   0.469
 4296SOL    HW113424   2.804   5.224   0.467
 4296SOL    HW213425   2.900   5.156   0.562
 4297SOL     OW13426   3.662   4.780   0.867
 4297SOL    HW113427   3.604   4.763   0.792
 4297SOL    HW213428   3.603   4.788   0.942
 4298SOL     OW13429   3.112   5.239   1.524
 4298SOL    HW113430   3.076   5.173   1.583
 4298SOL    HW213431   3.041   5.260   1.464
 4299SOL     OW13432   2.189   4.665   0.254
 4299SOL    HW113433   2.258   4.707   0.203
 4299SOL    HW213434   2.189   4.574   0.225
 4300SOL     OW13435   3.340   4.465   0.727
 4300SOL    HW113436   3.332   4.423   0.812
 4300SOL    HW213437   3.417   4.522   0.735
 4301SOL     OW13438   2.326   4.988   1.741
 4301SOL    HW113439   2.300   4.990   1.649
 4301SOL    HW213440   2.244   4.986   1.789
 4302SOL     OW13441   3.020   0.158   0.237
 4302SOL    HW113442   2.936   0.177   0.280
 4302SOL    HW213443   2.997   0.139   0.146
 4303SOL     OW13444   2.063   4.005   1.501
 4303SOL    HW113445   1.981   4.055   1.497
 4303SOL    HW213446   2.045   3.935   1.564
 4304SOL     OW13447   3.492   5.094   0.077
 4304SOL    HW113448   3.453   5.180   0.093
 4304SOL    HW213449   3.417   5.037   0.062
 4305SOL     OW13450   3.269   3.835   0.444
 4305SOL    HW113451   3.260   3.814   0.351
 4305SOL    HW213452   3.364   3.842   0.458
 4306SOL     OW13453   2.248   4.421   0.477
 4306SOL    HW113454   2.273   4.329   0.488
 4306SOL    HW213455   2.155   4.424   0.499
 4307SOL     OW13456   3.397   3.949   1.725
 4307SOL    HW113457   3.407   3.970   1.818
 4307SOL    HW213458   3.328   3.883   1.722
 4308SOL     OW13459   2.491   3.835   0.136
 4308SOL    HW113460   2.586   3.823   0.143
 4308SOL    HW213461   2.471   3.815   0.045
 4309SOL     OW13462   2.628   4.001   1.754
 4309SOL    HW113463   2.704   3.943   1.755
 4309SOL    HW213464   2.580   3.981   1.834
 4310SOL     OW13465   3.202   4.313   1.432
 4310SOL    HW113466   3.233   4.282   1.517
 4310SOL    HW213467   3.239   4.401   1.424
 4311SOL     OW13468   2.674   5.119   0.936
 4311SOL    HW113469   2.755   5.106   0.886
 4311SOL    HW213470   2.606   5.126   0.869
 4312SOL     OW13471   2.789   4.233   0.903
 4312SOL    HW113472   2.766   4.225   0.810
 4312SOL    HW213473   2.821   4.146   0.927
 4313SOL     OW13474   2.412   3.787   0.505
 4313SOL    HW113475   2.331   3.786   0.557
 4313SOL    HW213476   2.405   3.866   0.451
 4314SOL     OW13477   3.288   4.925   0.035
 4314SOL    HW113478   3.316   4.851   0.089
 4314SOL    HW213479   3.201   4.948   0.070
 4315SOL     OW13480   2.172   3.780   0.169
 4315SOL    HW113481   2.238   3.848   0.185
 4315SOL    HW213482   2.209   3.702   0.212
 4316SOL     OW13483   2.802   3.971   0.459
 4316SOL    HW113484   2.774   4.012   0.377
 4316SOL    HW213485   2.896   3.986   0.463
 4317SOL     OW13486   2.942   4.405   1.460
 4317SOL    HW113487   2.873   4.338   1.464
 4317SOL    HW213488   3.023   4.355   1.453
 4318SOL     OW13489   3.124   5.266   0.781
 4318SOL    HW113490   3.087   0.047   0.747
 4318SOL    HW213491   3.169   5.291   0.861
 4319SOL     OW13492   2.327   4.873   0.731
 4319SOL    HW113493   2.259   4.852   0.795
 4319SOL    HW213494   2.286   4.855   0.646
 4320SOL     OW13495   2.893   4.252   0.031
 4320SOL    HW113496   2.851   4.333   0.001
 4320SOL    HW213497   2.956   4.281   0.098
 4321SOL     OW13498   1.941   4.279   1.392
 4321SOL    HW113499   2.033   4.277   1.365
 4321SOL    HW213500   1.936   4.349   1.457
 4322SOL     OW13501   2.421   3.951   1.166
 4322SOL    HW113502   2.463   3.874   1.205
 4322SOL    HW213503   2.330   3.948   1.196
 4323SOL     OW13504   2.728   4.182   0.639
 4323SOL    HW113505   2.687   4.238   0.573
 4323SOL    HW213506   2.751   4.102   0.592
 4324SOL     OW13507   2.878   3.777   0.750
 4324SOL    HW113508   2.819   3.771   0.676
 4324SOL    HW213509   2.855   3.702   0.805
 4325SOL     OW13510   3.300   4.889   0.859
 4325SOL    HW113511   3.232   4.822   0.855
 4325SOL    HW213512   3.324   4.904   0.767
 4326SOL     OW13513   3.328   4.329   0.977
 4326SOL    HW113514   3.277   4.248   0.980
 4326SOL    HW213515   3.388   4.323   1.051
 4327SOL     OW13516   3.710   4.539   0.388
 4327SOL    HW113517   3.763   4.486   0.448
 4327SOL    HW213518   3.679   4.477   0.322
 4328SOL     OW13519   2.328   5.161   0.155
 4328SOL    HW113520   2.281   5.104   0.216
 4328SOL    HW213521   2.367   5.100   0.092
 4329SOL     OW13522   3.532   4.988   0.648
 4329SOL    HW113523   3.626   4.995   0.666
 4329SOL    HW213524   3.497   5.075   0.664
 4330SOL     OW13525   3.261   4.303   0.087
 4330SOL    HW113526   3.198   4.284   0.157
 4330SOL    HW213527   3.316   4.225   0.082
 4331SOL     OW13528   2.379   3.987   0.324
 4331SOL    HW113529   2.429   3.935   0.261
 4331SOL    HW213530   2.367   4.072   0.280
 4332SOL     OW13531   3.613   4.960   1.576
 4332SOL    HW113532   3.699   4.918   1.575
 4332SOL    HW213533   3.632   5.053   1.588
 4333SOL     OW13534   2.926   5.074   1.331
 4333SOL    HW113535   2.848   5.048   1.379
 4333SOL    HW213536   2.999   5.035   1.379
 4334SOL     OW13537   2.988   4.925   1.107
 4334SOL    HW113538   2.938   4.967   1.177
 4334SOL    HW213539   2.944   4.952   1.027
 4335SOL     OW13540   3.491   4.822   1.077
 4335SOL    HW113541   3.486   4.884   1.150
 4335SOL    HW213542   3.413   4.841   1.024
 4336SOL     OW13543   2.780   3.821   1.396
 4336SOL    HW113544   2.803   3.802   1.305
 4336SOL    HW213545   2.859   3.860   1.433
 4337SOL     OW13546   2.846   4.839   1.725
 4337SOL    HW113547   2.754   4.855   1.744
 4337SOL    HW213548   2.846   4.762   1.668
 4338SOL     OW13549   2.572   4.783   0.381
 4338SOL    HW113550   2.556   4.766   0.474
 4338SOL    HW213551   2.651   4.734   0.361
 4339SOL     OW13552   2.281   4.539   1.251
 4339SOL    HW113553   2.349   4.548   1.318
 4339SOL    HW213554   2.245   4.451   1.266
 4340SOL     OW13555   3.127   4.101   1.275
 4340SOL    HW113556   3.160   4.178   1.321
 4340SOL    HW213557   3.037   4.123   1.252
 4341SOL     OW13558   2.205   4.832   0.490
 4341SOL    HW113559   2.208   4.904   0.428
 4341SOL    HW213560   2.215   4.753   0.437
 4342SOL     OW13561   2.414   4.260   0.860
 4342SOL    HW113562   2.430   4.319   0.785
 4342SOL    HW213563   2.479   4.287   0.925
 4343SOL     OW13564   3.119   5.072   0.386
 4343SOL    HW113565   3.173   5.147   0.411
 4343SOL    HW213566   3.030   5.097   0.413
 4344SOL     OW13567   3.131   5.182   1.142
 4344SOL    HW113568   3.191   5.196   1.215
 4344SOL    HW213569   3.087   5.099   1.162
 4345SOL     OW13570   3.444   4.347   0.482
 4345SOL    HW113571   3.395   4.398   0.546
 4345SOL    HW213572   3.480   4.413   0.422
 4346SOL     OW13573   2.210   5.236   1.314
 4346SOL    HW113574   2.199   5.201   1.226
 4346SOL    HW213575   2.304   5.256   1.320
 4347SOL     OW13576   2.276   4.469   1.602
 4347SOL    HW113577   2.338   4.513   1.544
 4347SOL    HW213578   2.316   4.383   1.618
 4348SOL     OW13579   3.463   4.503   1.682
 4348SOL    HW113580   3.377   4.544   1.675
 4348SOL    HW213581   3.516   4.544   1.614
 4349SOL     OW13582   2.858   3.847   1.755
 4349SOL    HW113583   2.914   3.920   1.727
 4349SOL    HW213584   2.906   3.769   1.730
 4350SOL     OW13585   2.360   3.764   1.748
 4350SOL    HW113586   2.316   3.710   1.682
 4350SOL    HW213587   2.301   3.839   1.760
 4351SOL     OW13588   2.445   4.596   1.031
 4351SOL    HW113589   2.476   4.687   1.030
 4351SOL    HW213590   2.389   4.591   1.108
 4352SOL     OW13591   3.219   4.582   1.029
 4352SOL    HW113592   3.136   4.572   0.982
 4352SOL    HW213593   3.260   4.495   1.023
 4353SOL     OW13594   3.066   4.252   0.271
 4353SOL    HW113595   3.073   4.173   0.325
 4353SOL    HW213596   3.023   4.316   0.328
 4354SOL     OW13597   2.161   3.922   1.247
 4354SOL    HW113598   2.124   3.955   1.329
 4354SOL    HW213599   2.142   3.828   1.247
 4355SOL     OW13600   1.915   5.046   1.284
 4355SOL    HW113601   1.939   4.982   1.351
 4355SOL    HW213602   1.950   5.129   1.318
 4356SOL     OW13603   2.586   4.355   1.057
 4356SOL    HW113604   2.661   4.339   1.000
 4356SOL    HW213605   2.558   4.444   1.036
 4357SOL     OW13606   3.597   4.684   1.852
 4357SOL    HW113607   3.551   4.622   1.795
 4357SOL    HW213608   3.537   4.697   1.926
 4358SOL     OW13609   2.164   3.788   0.623
 4358SOL    HW113610   2.146   3.879   0.647
 4358SOL    HW213611   2.172   3.743   0.707
 4359SOL     OW13612   3.483   4.099   0.369
 4359SOL    HW113613   3.507   4.034   0.436
 4359SOL    HW213614   3.457   4.176   0.420
 4360SOL     OW13615   2.889   4.483   0.961
 4360SOL    HW113616   2.886   4.500   1.055
 4360SOL    HW213617   2.863   4.391   0.952
 4361SOL     OW13618   3.716   5.214   1.585
 4361SOL    HW113619   3.711   5.289   1.526
 4361SOL    HW213620   3.785   5.236   1.647
 4362SOL     OW13621   2.215   4.640   1.808
 4362SOL    HW113622   2.297   4.659   1.854
 4362SOL    HW213623   2.240   4.578   1.740
 4363SOL     OW13624   3.380   4.025   0.126
 4363SOL    HW113625   3.331   3.944   0.143
 4363SOL    HW213626   3.420   4.046   0.211
 4364SOL     OW13627   3.157   4.548   0.020
 4364SOL    HW113628   3.195   4.462   0.038
 4364SOL    HW213629   3.217   4.587   8.036
 4365SOL     OW13630   2.920   5.079   0.827
 4365SOL    HW113631   2.925   4.994   0.783
 4365SOL    HW213632   3.006   5.119   0.814
 4366SOL     OW13633   2.171   4.533   0.947
 4366SOL    HW113634   2.264   4.554   0.941
 4366SOL    HW213635   2.169   4.443   0.980
 4367SOL     OW13636   2.193   4.250   1.012
 4367SOL    HW113637   2.158   4.162   0.997
 4367SOL    HW213638   2.270   4.256   0.955
 4368SOL     OW13639   2.996   4.100   1.682
 4368SOL    HW113640   2.948   4.155   1.744
 4368SOL    HW213641   3.084   4.138   1.678
 4369SOL     OW13642   3.023   3.927   1.470
 4369SOL    HW113643   3.012   3.989   1.542
 4369SOL    HW213644   3.062   3.977   1.399
 4370SOL     OW13645   1.873   5.044   0.178
 4370SOL    HW113646   1.785   5.057   0.144
 4370SOL    HW213647   1.871   4.958   0.219
 4371SOL     OW13648   2.844   4.516   1.227
 4371SOL    HW113649   2.901   4.493   1.301
 4371SOL    HW213650   2.759   4.478   1.250
 4372SOL     OW13651   1.898   4.269   1.116
 4372SOL    HW113652   1.979   4.255   1.067
 4372SOL    HW213653   1.926   4.272   1.208
 4373SOL     OW13654   2.053   4.243   1.727
 4373SOL    HW113655   2.110   4.205   1.661
 4373SOL    HW213656   2.011   4.317   1.683
 4374SOL     OW13657   3.239   4.663   1.658
 4374SOL    HW113658   3.259   4.756   1.656
 4374SOL    HW213659   3.236   4.636   1.566
 4375SOL     OW13660   2.681   4.293   0.368
 4375SOL    HW113661   2.690   4.222   0.304
 4375SOL    HW213662   2.605   4.343   0.337
 4376SOL     OW13663   3.504   4.325   1.186
 4376SOL    HW113664   3.494   4.266   1.261
 4376SOL    HW213665   3.591   4.305   1.151
 4377SOL     OW13666   2.068   5.277   1.745
 4377SOL    HW113667   2.053   0.029   1.824
 4377SOL    HW213668   2.080   5.187   1.777
 4378SOL     OW13669   2.563   4.174   1.259
 4378SOL    HW113670   2.510   4.101   1.229
 4378SOL    HW213671   2.559   4.237   1.187
 4379SOL     OW13672   2.330   4.215   0.179
 4379SOL    HW113673   2.397   4.281   0.198
 4379SOL    HW213674   2.247   4.261   0.190
 4380SOL     OW13675   2.007   4.863   1.471
 4380SOL    HW113676   2.009   4.812   1.552
 4380SOL    HW213677   2.025   4.799   1.402
 4381SOL     OW13678   3.189   4.769   1.222
 4381SOL    HW113679   3.212   4.707   1.153
 4381SOL    HW213680   3.118   4.821   1.185
 4382SOL     OW13681   3.169   4.573   0.307
 4382SOL    HW113682   3.092   4.545   0.357
 4382SOL    HW213683   3.144   4.562   0.216
 4383SOL     OW13684   1.955   4.987   1.021
 4383SOL    HW113685   1.934   5.004   1.113
 4383SOL    HW213686   1.875   4.948   0.985
 4384SOL     OW13687   2.614   0.038   1.709
 4384SOL    HW113688   2.522   0.060   1.720
 4384SOL    HW213689   2.634   0.062   1.618
 4385SOL     OW13690   2.767   3.815   0.133
 4385SOL    HW113691   2.784   3.798   0.041
 4385SOL    HW213692   2.832   3.762   0.180
 4386SOL     OW13693   3.581   3.869   0.510
 4386SOL    HW113694   3.653   3.853   0.449
 4386SOL    HW213695   3.566   3.784   0.551
 4387SOL     OW13696   3.139   4.649   0.672
 4387SOL    HW113697   3.213   4.588   0.678
 4387SOL    HW213698   3.173   4.721   0.619
 4388SOL     OW13699   2.681   4.993   1.421
 4388SOL    HW113700   2.651   5.029   1.505
 4388SOL    HW213701   2.606   5.004   1.362
 4389SOL     OW13702   3.703   3.897   0.967
 4389SOL    HW113703   3.731   3.810   0.940
 4389SOL    HW213704   3.616   3.907   0.927
 4390SOL     OW13705   2.124   4.040   0.717
 4390SOL    HW113706   2.038   4.075   0.694
 4390SOL    HW213707   2.121   4.032   0.813
 4391SOL     OW13708   3.003   0.019   0.003
 4391SOL    HW113709   3.017   5.229   0.033
 4391SOL    HW213710   3.006   0.014   7.988
 4392SOL     OW13711   2.687   4.728   1.370
 4392SOL    HW113712   2.733   4.721   1.287
 4392SOL    HW213713   2.690   4.821   1.393
 4393SOL     OW13714   2.781   4.639   0.299
 4393SOL    HW113715   2.836   4.665   0.225
 4393SOL    HW213716   2.829   4.566   0.339
 4394SOL     OW13717   2.227   5.026   1.496
 4394SOL    HW113718   2.216   5.100   1.437
 4394SOL    HW213719   2.152   4.970   1.479
 4395SOL     OW13720   3.474   5.004   1.282
 4395SOL    HW113721   3.531   4.998   1.359
 4395SOL    HW213722   3.412   5.073   1.304
 4396SOL     OW13723   2.916   4.833   0.713
 4396SOL    HW113724   2.844   4.782   0.748
 4396SOL    HW213725   2.977   4.769   0.677
 4397SOL     OW13726   2.883   3.964   0.966
 4397SOL    HW113727   2.879   3.916   0.883
 4397SOL    HW213728   2.878   3.896   1.033
 4398SOL     OW13729   3.584   4.116   1.380
 4398SOL    HW113730   3.656   4.179   1.379
 4398SOL    HW213731   3.614   4.045   1.324
 4399SOL     OW13732   2.126   5.027   0.289
 4399SOL    HW113733   2.045   5.044   0.241
 4399SOL    HW213734   2.117   5.078   0.369
 4400SOL     OW13735   1.974   4.746   1.719
 4400SOL    HW113736   1.898   4.722   1.772
 4400SOL    HW213737   2.049   4.708   1.765
 4401SOL     OW13738   2.536   3.920   1.499
 4401SOL    HW113739   2.620   3.900   1.458
 4401SOL    HW213740   2.559   3.952   1.587
 4402SOL     OW13741   1.919   4.087   0.039
 4402SOL    HW113742   1.844   4.033   0.015
 4402SOL    HW213743   1.968   4.098   8.037
 4403SOL     OW13744   3.292   4.582   1.400
 4403SOL    HW113745   3.243   4.643   1.344
 4403SOL    HW213746   3.381   4.584   1.366
 4404SOL     OW13747   1.933   3.878   0.305
 4404SOL    HW113748   1.918   3.963   0.263
 4404SOL    HW213749   2.017   3.849   0.270
 4405SOL     OW13750   3.044   5.063   0.112
 4405SOL    HW113751   2.949   5.049   0.109
 4405SOL    HW213752   3.067   5.059   0.205
 4406SOL     OW13753   2.481   4.555   1.433
 4406SOL    HW113754   2.538   4.630   1.418
 4406SOL    HW213755   2.542   4.481   1.442
 4407SOL     OW13756   2.580   4.288   1.704
 4407SOL    HW113757   2.620   4.351   1.764
 4407SOL    HW213758   2.607   4.202   1.737
 4408SOL     OW13759   3.336   4.923   1.631
 4408SOL    HW113760   3.322   4.935   1.725
 4408SOL    HW213761   3.429   4.937   1.618
 4409SOL     OW13762   3.532   4.605   1.255
 4409SOL    HW113763   3.525   4.520   1.212
 4409SOL    HW213764   3.521   4.669   1.184
 4410SOL     OW13765   3.079   4.041   0.460
 4410SOL    HW113766   3.144   3.972   0.453
 4410SOL    HW213767   3.107   4.092   0.536
 4411SOL     OW13768   2.450   4.461   0.669
 4411SOL    HW113769   2.490   4.547   0.656
 4411SOL    HW213770   2.382   4.456   0.603
 4412SOL     OW13771   3.624   4.085   1.650
 4412SOL    HW113772   3.607   4.101   1.557
 4412SOL    HW213773   3.553   4.029   1.679
 4413SOL     OW13774   3.607   4.657   1.512
 4413SOL    HW113775   3.603   4.752   1.525
 4413SOL    HW213776   3.591   4.645   1.418
 4414SOL     OW13777   2.771   5.096   0.037
 4414SOL    HW113778   2.711   5.078   0.109
 4414SOL    HW213779   2.725   5.160   8.062
 4415SOL     OW13780   2.729   4.691   0.856
 4415SOL    HW113781   2.780   4.620   0.896
 4415SOL    HW213782   2.695   4.741   0.930
 4416SOL     OW13783   2.942   4.702   0.088
 4416SOL    HW113784   2.921   4.757   0.012
 4416SOL    HW213785   3.018   4.652   0.061
 4417SOL     OW13786   2.085   5.024   1.852
 4417SOL    HW113787   2.017   4.961   1.827
 4417SOL    HW213788   2.074   5.035   1.947
 4418SOL     OW13789   1.949   4.954   0.670
 4418SOL    HW113790   1.946   4.902   0.750
 4418SOL    HW213791   2.017   4.913   0.617
 4419SOL     OW13792   2.532   5.107   1.608
 4419SOL    HW113793   2.457   5.073   1.656
 4419SOL    HW213794   2.564   5.180   1.662
 4420SOL     OW13795   3.674   3.908   1.238
 4420SOL    HW113796   3.685   3.814   1.252
 4420SOL    HW213797   3.684   3.919   1.143
 4421SOL     OW13798   2.287   4.160   0.523
 4421SOL    HW113799   2.320   4.089   0.469
 4421SOL    HW213800   2.242   4.116   0.596
 4422SOL     OW13801   3.569   5.224   1.119
 4422SOL    HW113802   3.495   5.207   1.060
 4422SOL    HW213803   3.575   5.144   1.172
 4423SOL     OW13804   2.192   4.279   1.292
 4423SOL    HW113805   2.247   4.224   1.347
 4423SOL    HW213806   2.211   4.251   1.202
 4424SOL     OW13807   3.294   3.949   1.118
 4424SOL    HW113808   3.319   3.870   1.165
 4424SOL    HW213809   3.242   3.999   1.181
 4425SOL     OW13810   2.871   3.743   1.142
 4425SOL    HW113811   2.816   3.675   1.103
 4425SOL    HW213812   2.959   3.705   1.144
 4426SOL     OW13813   2.656   5.039   0.282
 4426SOL    HW113814   2.603   4.964   0.308
 4426SOL    HW213815   2.715   5.053   0.356
 4427SOL     OW13816   2.484   5.299   1.291
 4427SOL    HW113817   2.491   0.054   1.369
 4427SOL    HW213818   2.574   5.279   1.267
 4428SOL     OW13819   3.218   3.778   0.185
 4428SOL    HW113820   3.239   3.731   0.104
 4428SOL    HW213821   3.132   3.745   0.210
 4429SOL     OW13822   3.158   4.185   0.681
 4429SOL    HW113823   3.106   4.265   0.688
 4429SOL    HW213824   3.154   4.146   0.768
 4430SOL     OW13825   3.448   3.926   0.878
 4430SOL    HW113826   3.388   3.946   0.949
 4430SOL    HW213827   3.448   4.004   0.823
 4431SOL     OW13828   1.903   4.791   0.304
 4431SOL    HW113829   1.999   4.794   0.308
 4431SOL    HW213830   1.880   4.707   0.343
 4432SOL     OW13831   2.091   4.347   1.985
 4432SOL    HW113832   2.002   4.346   2.020
 4432SOL    HW213833   2.082   4.322   1.893
 4433SOL     OW13834   2.087   4.005   2.853
 4433SOL    HW113835   2.115   3.973   2.939
 4433SOL    HW213836   1.997   3.973   2.844
 4434SOL     OW13837   1.866   4.107   2.500
 4434SOL    HW113838   1.783   4.132   2.541
 4434SOL    HW213839   1.845   4.027   2.451
 4435SOL     OW13840   2.428   5.006   3.041
 4435SOL    HW113841   2.343   5.003   2.998
 4435SOL    HW213842   2.439   5.097   3.067
 4436SOL     OW13843   3.417   5.232   2.551
 4436SOL    HW113844   3.397   5.229   2.644
 4436SOL    HW213845   3.338   5.268   2.511
 4437SOL     OW13846   2.992   4.422   2.563
 4437SOL    HW113847   3.041   4.503   2.549
 4437SOL    HW213848   2.945   4.436   2.645
 4438SOL     OW13849   3.629   4.329   2.091
 4438SOL    HW113850   3.608   4.322   1.997
 4438SOL    HW213851   3.593   4.250   2.130
 4439SOL     OW13852   2.618   4.868   2.901
 4439SOL    HW113853   2.551   4.900   2.961
 4439SOL    HW213854   2.648   4.947   2.855
 4440SOL     OW13855   2.729   4.498   3.684
 4440SOL    HW113856   2.715   4.570   3.746
 4440SOL    HW213857   2.752   4.542   3.602
 4441SOL     OW13858   2.548   4.727   2.510
 4441SOL    HW113859   2.613   4.715   2.579
 4441SOL    HW213860   2.479   4.779   2.549
 4442SOL     OW13861   2.571   4.872   3.673
 4442SOL    HW113862   2.618   4.952   3.698
 4442SOL    HW213863   2.487   4.904   3.639
 4443SOL     OW13864   2.199   5.151   2.922
 4443SOL    HW113865   2.122   5.106   2.887
 4443SOL    HW213866   2.238   5.193   2.846
 4444SOL     OW13867   3.317   5.221   3.209
 4444SOL    HW113868   3.371   5.293   3.241
 4444SOL    HW213869   3.250   5.210   3.277
 4445SOL     OW13870   2.311   4.122   3.349
 4445SOL    HW113871   2.386   4.062   3.355
 4445SOL    HW213872   2.234   4.066   3.363
 4446SOL     OW13873   3.474   4.172   2.602
 4446SOL    HW113874   3.399   4.195   2.547
 4446SOL    HW213875   3.489   4.250   2.656
 4447SOL     OW13876   2.995   5.072   3.563
 4447SOL    HW113877   3.026   5.073   3.654
 4447SOL    HW213878   2.942   4.993   3.556
 4448SOL     OW13879   2.072   5.156   2.382
 4448SOL    HW113880   2.098   5.238   2.424
 4448SOL    HW213881   2.020   5.110   2.449
 4449SOL     OW13882   2.120   4.811   2.754
 4449SOL    HW113883   2.118   4.724   2.793
 4449SOL    HW213884   2.063   4.864   2.809
 4450SOL     OW13885   2.447   4.705   1.996
 4450SOL    HW113886   2.494   4.754   1.928
 4450SOL    HW213887   2.486   4.735   2.078
 4451SOL     OW13888   3.456   3.846   3.331
 4451SOL    HW113889   3.467   3.926   3.278
 4451SOL    HW213890   3.444   3.878   3.420
 4452SOL     OW13891   1.977   4.377   2.421
 4452SOL    HW113892   1.948   4.288   2.442
 4452SOL    HW213893   1.969   4.425   2.504
 4453SOL     OW13894   1.848   0.014   1.960
 4453SOL    HW113895   1.864   5.224   1.991
 4453SOL    HW213896   1.870   0.069   2.035
 4454SOL     OW13897   3.550   4.642   2.502
 4454SOL    HW113898   3.634   4.600   2.482
 4454SOL    HW213899   3.529   4.692   2.424
 4455SOL     OW13900   3.508   4.831   2.292
 4455SOL    HW113901   3.593   4.836   2.249
 4455SOL    HW213902   3.514   4.892   2.365
 4456SOL     OW13903   1.985   4.466   3.448
 4456SOL    HW113904   2.077   4.492   3.455
 4456SOL    HW213905   1.937   4.549   3.456
 4457SOL     OW13906   2.484   5.098   2.599
 4457SOL    HW113907   2.430   5.019   2.598
 4457SOL    HW213908   2.465   5.141   2.516
 4458SOL     OW13909   3.151   4.954   3.287
 4458SOL    HW113910   3.185   4.889   3.227
 4458SOL    HW213911   3.211   4.952   3.362
 4459SOL     OW13912   2.676   3.724   2.369
 4459SOL    HW113913   2.717   3.808   2.351
 4459SOL    HW213914   2.583   3.744   2.379
 4460SOL     OW13915   2.052   4.690   3.132
 4460SOL    HW113916   2.137   4.647   3.117
 4460SOL    HW213917   1.989   4.635   3.086
 4461SOL     OW13918   3.393   4.719   2.059
 4461SOL    HW113919   3.323   4.661   2.091
 4461SOL    HW213920   3.434   4.753   2.139
 4462SOL     OW13921   2.194   3.977   3.674
 4462SOL    HW113922   2.239   4.059   3.692
 4462SOL    HW213923   2.105   3.990   3.705
 4463SOL     OW13924   3.338   5.147   2.824
 4463SOL    HW113925   3.266   5.159   2.885
 4463SOL    HW213926   3.326   5.058   2.790
 4464SOL     OW13927   2.458   4.445   2.128
 4464SOL    HW113928   2.464   4.526   2.078
 4464SOL    HW213929   2.393   4.463   2.196
 4465SOL     OW13930   3.141   4.077   2.795
 4465SOL    HW113931   3.051   4.043   2.803
 4465SOL    HW213932   3.192   4.024   2.855
 4466SOL     OW13933   2.654   4.342   3.313
 4466SOL    HW113934   2.628   4.318   3.402
 4466SOL    HW213935   2.614   4.275   3.257
 4467SOL     OW13936   3.255   4.198   3.540
 4467SOL    HW113937   3.257   4.243   3.625
 4467SOL    HW213938   3.318   4.126   3.549
 4468SOL     OW13939   2.817   4.612   3.445
 4468SOL    HW113940   2.871   4.542   3.409
 4468SOL    HW213941   2.769   4.645   3.369
 4469SOL     OW13942   2.855   4.136   3.101
 4469SOL    HW113943   2.769   4.157   3.138
 4469SOL    HW213944   2.835   4.090   3.019
 4470SOL     OW13945   2.913   4.422   2.288
 4470SOL    HW113946   2.929   4.415   2.382
 4470SOL    HW213947   2.830   4.376   2.274
 4471SOL     OW13948   1.950   4.545   2.638
 4471SOL    HW113949   2.031   4.538   2.689
 4471SOL    HW213950   1.907   4.623   2.673
 4472SOL     OW13951   2.755   4.072   2.056
 4472SOL    HW113952   2.795   4.135   1.996
 4472SOL    HW213953   2.772   3.987   2.017
 4473SOL     OW13954   3.570   4.298   3.690
 4473SOL    HW113955   3.533   4.372   3.642
 4473SOL    HW213956   3.599   4.238   3.622
 4474SOL     OW13957   3.239   4.864   2.401
 4474SOL    HW113958   3.320   4.850   2.353
 4474SOL    HW213959   3.189   4.925   2.347
 4475SOL     OW13960   2.412   3.906   2.755
 4475SOL    HW113961   2.414   3.935   2.846
 4475SOL    HW213962   2.413   3.988   2.705
 4476SOL     OW13963   2.884   5.170   2.332
 4476SOL    HW113964   2.806   5.226   2.327
 4476SOL    HW213965   2.899   5.159   2.426
 4477SOL     OW13966   3.662   4.781   2.729
 4477SOL    HW113967   3.605   4.763   2.653
 4477SOL    HW213968   3.602   4.788   2.803
 4478SOL     OW13969   3.112   5.239   3.386
 4478SOL    HW113970   3.076   5.173   3.445
 4478SOL    HW213971   3.041   5.260   3.326
 4479SOL     OW13972   2.182   4.680   2.112
 4479SOL    HW113973   2.264   4.700   2.067
 4479SOL    HW213974   2.152   4.599   2.073
 4480SOL     OW13975   3.340   4.466   2.589
 4480SOL    HW113976   3.332   4.423   2.674
 4480SOL    HW213977   3.418   4.522   2.597
 4481SOL     OW13978   2.327   4.988   3.603
 4481SOL    HW113979   2.300   4.990   3.511
 4481SOL    HW213980   2.244   4.986   3.651
 4482SOL     OW13981   2.933   0.180   2.068
 4482SOL    HW113982   2.939   0.104   2.126
 4482SOL    HW213983   2.963   0.148   1.983
 4483SOL     OW13984   2.062   4.006   3.364
 4483SOL    HW113985   1.980   4.053   3.360
 4483SOL    HW213986   2.045   3.933   3.424
 4484SOL     OW13987   3.484   5.100   1.970
 4484SOL    HW113988   3.483   5.177   1.912
 4484SOL    HW213989   3.416   5.043   1.936
 4485SOL     OW13990   3.263   3.831   2.295
 4485SOL    HW113991   3.253   3.807   2.203
 4485SOL    HW213992   3.358   3.838   2.308
 4486SOL     OW13993   2.255   4.419   2.338
 4486SOL    HW113994   2.275   4.327   2.350
 4486SOL    HW213995   2.161   4.425   2.356
 4487SOL     OW13996   3.398   3.950   3.588
 4487SOL    HW113997   3.408   3.971   3.681
 4487SOL    HW213998   3.328   3.884   3.585
 4488SOL     OW13999   2.496   3.846   1.968
 4488SOL    HW114000   2.567   3.782   1.979
 4488SOL    HW214001   2.448   3.815   1.892
 4489SOL     OW14002   2.627   4.001   3.617
 4489SOL    HW114003   2.704   3.943   3.618
 4489SOL    HW214004   2.577   3.976   3.694
 4490SOL     OW14005   3.202   4.312   3.294
 4490SOL    HW114006   3.233   4.282   3.379
 4490SOL    HW214007   3.238   4.401   3.286
 4491SOL     OW14008   2.675   5.120   2.797
 4491SOL    HW114009   2.755   5.106   2.747
 4491SOL    HW214010   2.606   5.126   2.731
 4492SOL     OW14011   2.790   4.233   2.765
 4492SOL    HW114012   2.766   4.225   2.673
 4492SOL    HW214013   2.821   4.146   2.790
 4493SOL     OW14014   2.411   3.787   2.364
 4493SOL    HW114015   2.330   3.788   2.416
 4493SOL    HW214016   2.405   3.866   2.309
 4494SOL     OW14017   3.290   4.924   1.900
 4494SOL    HW114018   3.320   4.848   1.951
 4494SOL    HW214019   3.202   4.941   1.934
 4495SOL     OW14020   2.154   3.771   2.047
 4495SOL    HW114021   2.213   3.836   2.007
 4495SOL    HW214022   2.212   3.708   2.088
 4496SOL     OW14023   2.800   3.970   2.322
 4496SOL    HW114024   2.774   4.012   2.240
 4496SOL    HW214025   2.895   3.984   2.327
 4497SOL     OW14026   2.942   4.405   3.322
 4497SOL    HW114027   2.873   4.339   3.326
 4497SOL    HW214028   3.023   4.355   3.315
 4498SOL     OW14029   3.126   5.267   2.641
 4498SOL    HW114030   3.084   0.049   2.613
 4498SOL    HW214031   3.170   5.289   2.722
 4499SOL     OW14032   2.328   4.872   2.593
 4499SOL    HW114033   2.259   4.852   2.656
 4499SOL    HW214034   2.287   4.854   2.508
 4500SOL     OW14035   2.885   4.266   1.885
 4500SOL    HW114036   2.843   4.349   1.865
 4500SOL    HW214037   2.951   4.287   1.951
 4501SOL     OW14038   1.941   4.279   3.254
 4501SOL    HW114039   2.033   4.277   3.227
 4501SOL    HW214040   1.936   4.349   3.319
 4502SOL     OW14041   2.422   3.951   3.027
 4502SOL    HW114042   2.462   3.874   3.066
 4502SOL    HW214043   2.331   3.950   3.058
 4503SOL     OW14044   2.729   4.183   2.502
 4503SOL    HW114045   2.684   4.238   2.437
 4503SOL    HW214046   2.751   4.103   2.454
 4504SOL     OW14047   2.879   3.779   2.612
 4504SOL    HW114048   2.820   3.772   2.537
 4504SOL    HW214049   2.857   3.704   2.667
 4505SOL     OW14050   3.299   4.890   2.721
 4505SOL    HW114051   3.233   4.821   2.717
 4505SOL    HW214052   3.325   4.903   2.630
 4506SOL     OW14053   3.328   4.329   2.839
 4506SOL    HW114054   3.278   4.248   2.842
 4506SOL    HW214055   3.388   4.323   2.913
 4507SOL     OW14056   3.707   4.540   2.245
 4507SOL    HW114057   3.764   4.489   2.303
 4507SOL    HW214058   3.679   4.477   2.178
 4508SOL     OW14059   2.342   5.147   2.015
 4508SOL    HW114060   2.281   5.096   2.067
 4508SOL    HW214061   2.345   5.103   1.930
 4509SOL     OW14062   3.531   4.987   2.509
 4509SOL    HW114063   3.625   4.993   2.526
 4509SOL    HW214064   3.498   5.075   2.525
 4510SOL     OW14065   3.256   4.296   1.933
 4510SOL    HW114066   3.195   4.276   2.005
 4510SOL    HW214067   3.341   4.264   1.964
 4511SOL     OW14068   2.387   3.987   2.180
 4511SOL    HW114069   2.432   3.939   2.110
 4511SOL    HW214070   2.365   4.071   2.141
 4512SOL     OW14071   3.613   4.960   3.438
 4512SOL    HW114072   3.699   4.918   3.437
 4512SOL    HW214073   3.632   5.053   3.450
 4513SOL     OW14074   2.926   5.074   3.193
 4513SOL    HW114075   2.848   5.049   3.241
 4513SOL    HW214076   2.999   5.035   3.241
 4514SOL     OW14077   2.988   4.925   2.970
 4514SOL    HW114078   2.938   4.967   3.040
 4514SOL    HW214079   2.943   4.951   2.889
 4515SOL     OW14080   3.491   4.822   2.939
 4515SOL    HW114081   3.486   4.884   3.012
 4515SOL    HW214082   3.412   4.841   2.887
 4516SOL     OW14083   2.779   3.845   3.250
 4516SOL    HW114084   2.803   3.817   3.162
 4516SOL    HW214085   2.861   3.879   3.286
 4517SOL     OW14086   2.846   4.839   3.587
 4517SOL    HW114087   2.754   4.854   3.606
 4517SOL    HW214088   2.846   4.762   3.530
 4518SOL     OW14089   2.567   4.783   2.234
 4518SOL    HW114090   2.555   4.767   2.327
 4518SOL    HW214091   2.644   4.732   2.211
 4519SOL     OW14092   2.281   4.539   3.113
 4519SOL    HW114093   2.349   4.548   3.180
 4519SOL    HW214094   2.246   4.451   3.127
 4520SOL     OW14095   3.127   4.099   3.139
 4520SOL    HW114096   3.160   4.177   3.184
 4520SOL    HW214097   3.037   4.122   3.115
 4521SOL     OW14098   2.209   4.832   2.351
 4521SOL    HW114099   2.212   4.905   2.289
 4521SOL    HW214100   2.208   4.754   2.296
 4522SOL     OW14101   2.414   4.261   2.722
 4522SOL    HW114102   2.430   4.319   2.647
 4522SOL    HW214103   2.480   4.287   2.787
 4523SOL     OW14104   3.121   5.077   2.248
 4523SOL    HW114105   3.178   5.144   2.286
 4523SOL    HW214106   3.033   5.100   2.277
 4524SOL     OW14107   3.131   5.182   3.004
 4524SOL    HW114108   3.191   5.196   3.077
 4524SOL    HW214109   3.087   5.099   3.023
 4525SOL     OW14110   3.444   4.347   2.341
 4525SOL    HW114111   3.397   4.400   2.405
 4525SOL    HW214112   3.489   4.409   2.285
 4526SOL     OW14113   2.210   5.236   3.176
 4526SOL    HW114114   2.199   5.201   3.088
 4526SOL    HW214115   2.303   5.257   3.182
 4527SOL     OW14116   2.276   4.469   3.464
 4527SOL    HW114117   2.338   4.513   3.406
 4527SOL    HW214118   2.315   4.383   3.480
 4528SOL     OW14119   3.463   4.503   3.544
 4528SOL    HW114120   3.377   4.544   3.537
 4528SOL    HW214121   3.516   4.544   3.476
 4529SOL     OW14122   2.858   3.850   3.615
 4529SOL    HW114123   2.915   3.923   3.591
 4529SOL    HW214124   2.907   3.772   3.590
 4530SOL     OW14125   2.358   3.769   3.607
 4530SOL    HW114126   2.313   3.715   3.542
 4530SOL    HW214127   2.298   3.843   3.621
 4531SOL     OW14128   2.445   4.596   2.893
 4531SOL    HW114129   2.475   4.687   2.892
 4531SOL    HW214130   2.389   4.591   2.970
 4532SOL     OW14131   3.219   4.582   2.890
 4532SOL    HW114132   3.136   4.572   2.844
 4532SOL    HW214133   3.260   4.496   2.885
 4533SOL     OW14134   3.067   4.252   2.129
 4533SOL    HW114135   3.075   4.174   2.183
 4533SOL    HW214136   3.024   4.317   2.185
 4534SOL     OW14137   2.162   3.930   3.110
 4534SOL    HW114138   2.125   3.960   3.192
 4534SOL    HW214139   2.142   3.836   3.107
 4535SOL     OW14140   1.915   5.046   3.147
 4535SOL    HW114141   1.939   4.982   3.213
 4535SOL    HW214142   1.950   5.129   3.179
 4536SOL     OW14143   2.586   4.355   2.920
 4536SOL    HW114144   2.661   4.339   2.862
 4536SOL    HW214145   2.558   4.444   2.898
 4537SOL     OW14146   3.596   4.684   3.714
 4537SOL    HW114147   3.551   4.622   3.657
 4537SOL    HW214148   3.537   4.697   3.788
 4538SOL     OW14149   2.165   3.788   2.485
 4538SOL    HW114150   2.146   3.879   2.508
 4538SOL    HW214151   2.173   3.743   2.569
 4539SOL     OW14152   3.478   4.098   2.229
 4539SOL    HW114153   3.506   4.034   2.295
 4539SOL    HW214154   3.456   4.176   2.279
 4540SOL     OW14155   2.890   4.483   2.823
 4540SOL    HW114156   2.886   4.501   2.917
 4540SOL    HW214157   2.863   4.391   2.814
 4541SOL     OW14158   3.716   5.214   3.447
 4541SOL    HW114159   3.711   5.289   3.388
 4541SOL    HW214160   3.785   5.236   3.509
 4542SOL     OW14161   2.215   4.641   3.670
 4542SOL    HW114162   2.297   4.659   3.716
 4542SOL    HW214163   2.239   4.578   3.602
 4543SOL     OW14164   3.391   3.997   1.989
 4543SOL    HW114165   3.326   3.932   2.016
 4543SOL    HW214166   3.424   4.033   2.072
 4544SOL     OW14167   3.154   4.550   1.893
 4544SOL    HW114168   3.197   4.465   1.896
 4544SOL    HW214169   3.185   4.589   1.811
 4545SOL     OW14170   2.919   5.079   2.687
 4545SOL    HW114171   2.925   4.994   2.644
 4545SOL    HW214172   3.006   5.118   2.675
 4546SOL     OW14173   2.171   4.533   2.809
 4546SOL    HW114174   2.264   4.554   2.803
 4546SOL    HW214175   2.168   4.443   2.842
 4547SOL     OW14176   2.193   4.250   2.874
 4547SOL    HW114177   2.158   4.162   2.859
 4547SOL    HW214178   2.270   4.256   2.817
 4548SOL     OW14179   2.997   4.099   3.545
 4548SOL    HW114180   2.948   4.154   3.606
 4548SOL    HW214181   3.084   4.138   3.541
 4549SOL     OW14182   3.028   3.924   3.337
 4549SOL    HW114183   3.015   3.989   3.406
 4549SOL    HW214184   3.067   3.973   3.265
 4550SOL     OW14185   1.868   5.041   2.052
 4550SOL    HW114186   1.778   5.058   2.026
 4550SOL    HW214187   1.866   4.953   2.090
 4551SOL     OW14188   2.844   4.516   3.089
 4551SOL    HW114189   2.901   4.494   3.163
 4551SOL    HW214190   2.759   4.478   3.111
 4552SOL     OW14191   1.898   4.269   2.978
 4552SOL    HW114192   1.978   4.255   2.929
 4552SOL    HW214193   1.926   4.272   3.070
 4553SOL     OW14194   2.053   4.244   3.590
 4553SOL    HW114195   2.108   4.203   3.523
 4553SOL    HW214196   2.011   4.317   3.545
 4554SOL     OW14197   3.239   4.663   3.520
 4554SOL    HW114198   3.259   4.756   3.518
 4554SOL    HW214199   3.236   4.636   3.428
 4555SOL     OW14200   2.678   4.293   2.222
 4555SOL    HW114201   2.682   4.219   2.162
 4555SOL    HW214202   2.604   4.345   2.191
 4556SOL     OW14203   3.504   4.325   3.048
 4556SOL    HW114204   3.494   4.266   3.123
 4556SOL    HW214205   3.591   4.305   3.013
 4557SOL     OW14206   2.068   5.277   3.607
 4557SOL    HW114207   2.053   0.029   3.686
 4557SOL    HW214208   2.080   5.187   3.639
 4558SOL     OW14209   2.563   4.174   3.122
 4558SOL    HW114210   2.510   4.100   3.092
 4558SOL    HW214211   2.560   4.237   3.050
 4559SOL     OW14212   2.326   4.216   2.049
 4559SOL    HW114213   2.385   4.289   2.071
 4559SOL    HW214214   2.241   4.257   2.036
 4560SOL     OW14215   2.007   4.863   3.333
 4560SOL    HW114216   2.009   4.812   3.414
 4560SOL    HW214217   2.025   4.799   3.263
 4561SOL     OW14218   3.189   4.769   3.084
 4561SOL    HW114219   3.212   4.707   3.016
 4561SOL    HW214220   3.118   4.821   3.047
 4562SOL     OW14221   3.173   4.581   2.168
 4562SOL    HW114222   3.097   4.550   2.218
 4562SOL    HW214223   3.148   4.567   2.077
 4563SOL     OW14224   1.956   4.987   2.883
 4563SOL    HW114225   1.934   5.004   2.975
 4563SOL    HW214226   1.876   4.948   2.847
 4564SOL     OW14227   2.614   0.038   3.571
 4564SOL    HW114228   2.522   0.060   3.582
 4564SOL    HW214229   2.633   0.062   3.480
 4565SOL     OW14230   3.581   3.871   2.371
 4565SOL    HW114231   3.654   3.856   2.311
 4565SOL    HW214232   3.566   3.785   2.412
 4566SOL     OW14233   3.139   4.650   2.533
 4566SOL    HW114234   3.212   4.588   2.541
 4566SOL    HW214235   3.173   4.721   2.480
 4567SOL     OW14236   2.681   4.993   3.283
 4567SOL    HW114237   2.651   5.029   3.366
 4567SOL    HW214238   2.605   5.003   3.224
 4568SOL     OW14239   3.703   3.897   2.829
 4568SOL    HW114240   3.732   3.810   2.802
 4568SOL    HW214241   3.616   3.907   2.789
 4569SOL     OW14242   2.124   4.040   2.579
 4569SOL    HW114243   2.038   4.075   2.555
 4569SOL    HW214244   2.121   4.032   2.674
 4570SOL     OW14245   2.687   4.728   3.233
 4570SOL    HW114246   2.733   4.721   3.149
 4570SOL    HW214247   2.690   4.821   3.255
 4571SOL     OW14248   2.778   4.635   2.153
 4571SOL    HW114249   2.839   4.668   2.086
 4571SOL    HW214250   2.826   4.565   2.197
 4572SOL     OW14251   2.227   5.026   3.358
 4572SOL    HW114252   2.216   5.100   3.299
 4572SOL    HW214253   2.152   4.970   3.341
 4573SOL     OW14254   3.474   5.004   3.144
 4573SOL    HW114255   3.531   4.997   3.221
 4573SOL    HW214256   3.412   5.073   3.167
 4574SOL     OW14257   2.916   4.833   2.573
 4574SOL    HW114258   2.844   4.782   2.610
 4574SOL    HW214259   2.978   4.768   2.541
 4575SOL     OW14260   2.883   3.963   2.828
 4575SOL    HW114261   2.879   3.916   2.745
 4575SOL    HW214262   2.878   3.895   2.895
 4576SOL     OW14263   3.584   4.116   3.243
 4576SOL    HW114264   3.656   4.179   3.241
 4576SOL    HW214265   3.614   4.045   3.186
 4577SOL     OW14266   2.120   5.052   2.144
 4577SOL    HW114267   2.028   5.054   2.118
 4577SOL    HW214268   2.121   5.095   2.230
 4578SOL     OW14269   1.974   4.746   3.581
 4578SOL    HW114270   1.898   4.723   3.634
 4578SOL    HW214271   2.049   4.709   3.627
 4579SOL     OW14272   2.534   3.918   3.361
 4579SOL    HW114273   2.618   3.906   3.317
 4579SOL    HW214274   2.557   3.949   3.448
 4580SOL     OW14275   1.940   4.058   1.897
 4580SOL    HW114276   1.853   4.038   1.863
 4580SOL    HW214277   1.970   4.133   1.845
 4581SOL     OW14278   3.292   4.582   3.262
 4581SOL    HW114279   3.243   4.643   3.206
 4581SOL    HW214280   3.381   4.584   3.228
 4582SOL     OW14281   1.930   3.880   2.172
 4582SOL    HW114282   1.916   3.960   2.121
 4582SOL    HW214283   2.015   3.848   2.142
 4583SOL     OW14284   3.044   5.064   1.982
 4583SOL    HW114285   2.953   5.035   1.983
 4583SOL    HW214286   3.072   5.056   2.074
 4584SOL     OW14287   2.481   4.554   3.295
 4584SOL    HW114288   2.538   4.630   3.280
 4584SOL    HW214289   2.541   4.481   3.304
 4585SOL     OW14290   2.581   4.287   3.566
 4585SOL    HW114291   2.620   4.349   3.627
 4585SOL    HW214292   2.606   4.201   3.599
 4586SOL     OW14293   3.335   4.923   3.493
 4586SOL    HW114294   3.322   4.935   3.587
 4586SOL    HW214295   3.429   4.937   3.480
 4587SOL     OW14296   3.531   4.605   3.117
 4587SOL    HW114297   3.525   4.520   3.074
 4587SOL    HW214298   3.522   4.669   3.046
 4588SOL     OW14299   3.079   4.043   2.320
 4588SOL    HW114300   3.142   3.971   2.311
 4588SOL    HW214301   3.108   4.092   2.397
 4589SOL     OW14302   2.452   4.462   2.532
 4589SOL    HW114303   2.491   4.548   2.517
 4589SOL    HW214304   2.384   4.454   2.465
 4590SOL     OW14305   3.625   4.086   3.512
 4590SOL    HW114306   3.608   4.101   3.419
 4590SOL    HW214307   3.553   4.029   3.541
 4591SOL     OW14308   3.607   4.657   3.374
 4591SOL    HW114309   3.603   4.752   3.387
 4591SOL    HW214310   3.591   4.645   3.280
 4592SOL     OW14311   2.711   5.094   1.882
 4592SOL    HW114312   2.692   5.095   1.975
 4592SOL    HW214313   2.727   5.186   1.860
 4593SOL     OW14314   2.730   4.692   2.717
 4593SOL    HW114315   2.779   4.620   2.757
 4593SOL    HW214316   2.695   4.741   2.792
 4594SOL     OW14317   2.942   4.713   1.952
 4594SOL    HW114318   2.919   4.763   1.873
 4594SOL    HW214319   3.016   4.659   1.925
 4595SOL     OW14320   2.085   5.024   3.714
 4595SOL    HW114321   2.017   4.961   3.689
 4595SOL    HW214322   2.073   5.035   3.809
 4596SOL     OW14323   1.948   4.956   2.532
 4596SOL    HW114324   1.947   4.903   2.612
 4596SOL    HW214325   2.012   4.912   2.475
 4597SOL     OW14326   2.532   5.107   3.470
 4597SOL    HW114327   2.457   5.073   3.518
 4597SOL    HW214328   2.564   5.180   3.524
 4598SOL     OW14329   3.673   3.907   3.100
 4598SOL    HW114330   3.686   3.814   3.114
 4598SOL    HW214331   3.683   3.919   3.005
 4599SOL     OW14332   2.291   4.158   2.388
 4599SOL    HW114333   2.321   4.087   2.331
 4599SOL    HW214334   2.243   4.114   2.458
 4600SOL     OW14335   3.569   5.224   2.981
 4600SOL    HW114336   3.495   5.207   2.922
 4600SOL    HW214337   3.576   5.144   3.034
 4601SOL     OW14338   2.192   4.279   3.154
 4601SOL    HW114339   2.247   4.224   3.209
 4601SOL    HW214340   2.211   4.250   3.064
 4602SOL     OW14341   3.294   3.950   2.980
 4602SOL    HW114342   3.320   3.870   3.026
 4602SOL    HW214343   3.242   3.998   3.044
 4603SOL     OW14344   2.870   3.742   3.006
 4603SOL    HW114345   2.814   3.672   2.975
 4603SOL    HW214346   2.958   3.704   3.006
 4604SOL     OW14347   2.665   5.047   2.146
 4604SOL    HW114348   2.604   4.976   2.165
 4604SOL    HW214349   2.720   5.053   2.224
 4605SOL     OW14350   2.484   5.299   3.153
 4605SOL    HW114351   2.491   0.054   3.231
 4605SOL    HW214352   2.574   5.279   3.129
 4606SOL     OW14353   3.214   3.778   2.027
 4606SOL    HW114354   3.242   3.714   1.962
 4606SOL    HW214355   3.127   3.748   2.054
 4607SOL     OW14356   3.158   4.185   2.543
 4607SOL    HW114357   3.105   4.264   2.550
 4607SOL    HW214358   3.154   4.145   2.630
 4608SOL     OW14359   3.449   3.926   2.740
 4608SOL    HW114360   3.388   3.947   2.811
 4608SOL    HW214361   3.448   4.004   2.684
 4609SOL     OW14362   1.904   4.794   2.169
 4609SOL    HW114363   1.998   4.788   2.152
 4609SOL    HW214364   1.877   4.705   2.191
 4610SOL     OW14365   2.091   4.348   3.847
 4610SOL    HW114366   2.002   4.346   3.882
 4610SOL    HW214367   2.082   4.322   3.755
 4611SOL     OW14368   2.086   4.005   4.716
 4611SOL    HW114369   2.114   3.971   4.801
 4611SOL    HW214370   1.997   3.973   4.706
 4612SOL     OW14371   1.866   4.106   4.362
 4612SOL    HW114372   1.783   4.131   4.403
 4612SOL    HW214373   1.846   4.027   4.312
 4613SOL     OW14374   2.428   5.006   4.903
 4613SOL    HW114375   2.343   5.003   4.859
 4613SOL    HW214376   2.439   5.097   4.929
 4614SOL     OW14377   3.417   5.232   4.413
 4614SOL    HW114378   3.398   5.229   4.506
 4614SOL    HW214379   3.338   5.267   4.373
 4615SOL     OW14380   2.992   4.422   4.425
 4615SOL    HW114381   3.041   4.503   4.411
 4615SOL    HW214382   2.945   4.437   4.507
 4616SOL     OW14383   3.628   4.329   3.953
 4616SOL    HW114384   3.608   4.321   3.860
 4616SOL    HW214385   3.593   4.249   3.992
 4617SOL     OW14386   2.618   4.868   4.763
 4617SOL    HW114387   2.551   4.900   4.823
 4617SOL    HW214388   2.648   4.947   4.717
 4618SOL     OW14389   2.729   4.498   5.546
 4618SOL    HW114390   2.715   4.570   5.608
 4618SOL    HW214391   2.752   4.542   5.464
 4619SOL     OW14392   2.548   4.727   4.372
 4619SOL    HW114393   2.613   4.716   4.441
 4619SOL    HW214394   2.479   4.779   4.411
 4620SOL     OW14395   2.571   4.872   5.535
 4620SOL    HW114396   2.618   4.952   5.560
 4620SOL    HW214397   2.487   4.904   5.501
 4621SOL     OW14398   2.199   5.151   4.784
 4621SOL    HW114399   2.122   5.106   4.749
 4621SOL    HW214400   2.238   5.194   4.708
 4622SOL     OW14401   3.317   5.221   5.071
 4622SOL    HW114402   3.371   5.293   5.103
 4622SOL    HW214403   3.250   5.210   5.139
 4623SOL     OW14404   2.311   4.122   5.211
 4623SOL    HW114405   2.386   4.063   5.217
 4623SOL    HW214406   2.235   4.066   5.224
 4624SOL     OW14407   3.474   4.172   4.464
 4624SOL    HW114408   3.399   4.195   4.409
 4624SOL    HW214409   3.489   4.250   4.517
 4625SOL     OW14410   2.995   5.072   5.425
 4625SOL    HW114411   3.026   5.073   5.516
 4625SOL    HW214412   2.942   4.993   5.418
 4626SOL     OW14413   2.072   5.156   4.244
 4626SOL    HW114414   2.098   5.238   4.286
 4626SOL    HW214415   2.020   5.110   4.311
 4627SOL     OW14416   2.120   4.811   4.616
 4627SOL    HW114417   2.118   4.724   4.655
 4627SOL    HW214418   2.062   4.864   4.671
 4628SOL     OW14419   2.447   4.705   3.858
 4628SOL    HW114420   2.494   4.754   3.790
 4628SOL    HW214421   2.486   4.735   3.940
 4629SOL     OW14422   3.457   3.847   5.192
 4629SOL    HW114423   3.466   3.927   5.140
 4629SOL    HW214424   3.444   3.878   5.282
 4630SOL     OW14425   1.977   4.377   4.283
 4630SOL    HW114426   1.948   4.288   4.304
 4630SOL    HW214427   1.969   4.425   4.366
 4631SOL     OW14428   1.849   0.014   3.822
 4631SOL    HW114429   1.864   5.224   3.852
 4631SOL    HW214430   1.870   0.069   3.897
 4632SOL     OW14431   3.551   4.642   4.364
 4632SOL    HW114432   3.634   4.600   4.344
 4632SOL    HW214433   3.529   4.693   4.286
 4633SOL     OW14434   3.508   4.831   4.154
 4633SOL    HW114435   3.593   4.835   4.111
 4633SOL    HW214436   3.514   4.892   4.227
 4634SOL     OW14437   1.985   4.466   5.310
 4634SOL    HW114438   2.077   4.492   5.318
 4634SOL    HW214439   1.936   4.549   5.318
 4635SOL     OW14440   2.484   5.098   4.461
 4635SOL    HW114441   2.430   5.019   4.460
 4635SOL    HW214442   2.465   5.141   4.378
 4636SOL     OW14443   3.151   4.954   5.150
 4636SOL    HW114444   3.185   4.889   5.089
 4636SOL    HW214445   3.210   4.952   5.224
 4637SOL     OW14446   2.683   3.729   4.247
 4637SOL    HW114447   2.718   3.812   4.216
 4637SOL    HW214448   2.588   3.742   4.249
 4638SOL     OW14449   2.052   4.690   4.994
 4638SOL    HW114450   2.137   4.647   4.980
 4638SOL    HW214451   1.989   4.635   4.947
 4639SOL     OW14452   3.393   4.719   3.921
 4639SOL    HW114453   3.323   4.661   3.953
 4639SOL    HW214454   3.434   4.753   4.001
 4640SOL     OW14455   2.195   3.974   5.535
 4640SOL    HW114456   2.240   4.057   5.552
 4640SOL    HW214457   2.106   3.988   5.566
 4641SOL     OW14458   3.338   5.147   4.686
 4641SOL    HW114459   3.266   5.159   4.747
 4641SOL    HW214460   3.326   5.058   4.652
 4642SOL     OW14461   2.458   4.445   3.990
 4642SOL    HW114462   2.464   4.526   3.940
 4642SOL    HW214463   2.393   4.463   4.058
 4643SOL     OW14464   3.141   4.077   4.656
 4643SOL    HW114465   3.052   4.044   4.665
 4643SOL    HW214466   3.192   4.024   4.718
 4644SOL     OW14467   2.654   4.341   5.175
 4644SOL    HW114468   2.628   4.318   5.264
 4644SOL    HW214469   2.614   4.275   5.120
 4645SOL     OW14470   3.255   4.198   5.402
 4645SOL    HW114471   3.258   4.243   5.486
 4645SOL    HW214472   3.317   4.125   5.411
 4646SOL     OW14473   2.817   4.612   5.307
 4646SOL    HW114474   2.871   4.542   5.271
 4646SOL    HW214475   2.769   4.646   5.231
 4647SOL     OW14476   2.854   4.136   4.963
 4647SOL    HW114477   2.768   4.158   4.999
 4647SOL    HW214478   2.834   4.093   4.879
 4648SOL     OW14479   2.913   4.422   4.150
 4648SOL    HW114480   2.929   4.415   4.244
 4648SOL    HW214481   2.831   4.376   4.135
 4649SOL     OW14482   1.950   4.545   4.500
 4649SOL    HW114483   2.031   4.538   4.551
 4649SOL    HW214484   1.907   4.622   4.535
 4650SOL     OW14485   2.755   4.073   3.921
 4650SOL    HW114486   2.796   4.132   3.858
 4650SOL    HW214487   2.761   3.987   3.880
 4651SOL     OW14488   3.570   4.298   5.552
 4651SOL    HW114489   3.533   4.372   5.504
 4651SOL    HW214490   3.598   4.237   5.484
 4652SOL     OW14491   3.239   4.864   4.263
 4652SOL    HW114492   3.320   4.850   4.215
 4652SOL    HW214493   3.189   4.925   4.209
 4653SOL     OW14494   2.402   3.905   4.618
 4653SOL    HW114495   2.410   3.937   4.708
 4653SOL    HW214496   2.410   3.983   4.564
 4654SOL     OW14497   2.884   5.170   4.194
 4654SOL    HW114498   2.806   5.225   4.189
 4654SOL    HW214499   2.899   5.159   4.288
 4655SOL     OW14500   3.662   4.781   4.590
 4655SOL    HW114501   3.605   4.763   4.515
 4655SOL    HW214502   3.602   4.788   4.665
 4656SOL     OW14503   3.112   5.239   5.248
 4656SOL    HW114504   3.076   5.173   5.307
 4656SOL    HW214505   3.041   5.260   5.188
 4657SOL     OW14506   2.182   4.680   3.974
 4657SOL    HW114507   2.264   4.699   3.929
 4657SOL    HW214508   2.151   4.598   3.935
 4658SOL     OW14509   3.340   4.467   4.451
 4658SOL    HW114510   3.332   4.423   4.536
 4658SOL    HW214511   3.418   4.522   4.460
 4659SOL     OW14512   2.326   4.988   5.464
 4659SOL    HW114513   2.300   4.990   5.373
 4659SOL    HW214514   2.244   4.986   5.513
 4660SOL     OW14515   2.933   0.180   3.930
 4660SOL    HW114516   2.940   0.105   3.989
 4660SOL    HW214517   2.963   0.148   3.845
 4661SOL     OW14518   2.063   4.006   5.225
 4661SOL    HW114519   1.981   4.055   5.220
 4661SOL    HW214520   2.045   3.936   5.288
 4662SOL     OW14521   3.484   5.101   3.832
 4662SOL    HW114522   3.482   5.177   3.774
 4662SOL    HW214523   3.416   5.043   3.798
 4663SOL     OW14524   3.267   3.840   4.153
 4663SOL    HW114525   3.256   3.811   4.063
 4663SOL    HW214526   3.361   3.839   4.167
 4664SOL     OW14527   2.255   4.419   4.201
 4664SOL    HW114528   2.276   4.326   4.211
 4664SOL    HW214529   2.161   4.425   4.218
 4665SOL     OW14530   3.398   3.949   5.449
 4665SOL    HW114531   3.407   3.970   5.542
 4665SOL    HW214532   3.328   3.883   5.446
 4666SOL     OW14533   2.500   3.849   3.826
 4666SOL    HW114534   2.561   3.778   3.847
 4666SOL    HW214535   2.448   3.817   3.753
 4667SOL     OW14536   2.628   4.001   5.478
 4667SOL    HW114537   2.704   3.943   5.480
 4667SOL    HW214538   2.580   3.981   5.558
 4668SOL     OW14539   3.202   4.313   5.156
 4668SOL    HW114540   3.233   4.282   5.241
 4668SOL    HW214541   3.239   4.401   5.148
 4669SOL     OW14542   2.675   5.120   4.659
 4669SOL    HW114543   2.755   5.106   4.609
 4669SOL    HW214544   2.606   5.126   4.593
 4670SOL     OW14545   2.790   4.233   4.627
 4670SOL    HW114546   2.766   4.226   4.534
 4670SOL    HW214547   2.822   4.146   4.651
 4671SOL     OW14548   2.414   3.788   4.228
 4671SOL    HW114549   2.332   3.788   4.278
 4671SOL    HW214550   2.408   3.864   4.171
 4672SOL     OW14551   3.290   4.924   3.762
 4672SOL    HW114552   3.320   4.848   3.813
 4672SOL    HW214553   3.202   4.941   3.796
 4673SOL     OW14554   2.152   3.776   3.906
 4673SOL    HW114555   2.212   3.840   3.868
 4673SOL    HW214556   2.209   3.713   3.950
 4674SOL     OW14557   2.801   3.974   4.185
 4674SOL    HW114558   2.774   4.012   4.101
 4674SOL    HW214559   2.896   3.986   4.186
 4675SOL     OW14560   2.942   4.405   5.184
 4675SOL    HW114561   2.874   4.338   5.188
 4675SOL    HW214562   3.023   4.355   5.177
 4676SOL     OW14563   3.126   5.267   4.502
 4676SOL    HW114564   3.084   0.049   4.475
 4676SOL    HW214565   3.170   5.289   4.584
 4677SOL     OW14566   2.328   4.872   4.455
 4677SOL    HW114567   2.259   4.852   4.518
 4677SOL    HW214568   2.287   4.854   4.370
 4678SOL     OW14569   2.886   4.266   3.746
 4678SOL    HW114570   2.843   4.349   3.726
 4678SOL    HW214571   2.951   4.287   3.813
 4679SOL     OW14572   1.941   4.279   5.116
 4679SOL    HW114573   2.033   4.277   5.089
 4679SOL    HW214574   1.936   4.349   5.181
 4680SOL     OW14575   2.421   3.952   4.890
 4680SOL    HW114576   2.462   3.874   4.929
 4680SOL    HW214577   2.330   3.949   4.920
 4681SOL     OW14578   2.729   4.183   4.364
 4681SOL    HW114579   2.684   4.238   4.299
 4681SOL    HW214580   2.751   4.103   4.316
 4682SOL     OW14581   2.850   3.766   4.488
 4682SOL    HW114582   2.804   3.769   4.404
 4682SOL    HW214583   2.874   3.674   4.499
 4683SOL     OW14584   3.299   4.890   4.583
 4683SOL    HW114585   3.233   4.821   4.579
 4683SOL    HW214586   3.325   4.903   4.491
 4684SOL     OW14587   3.328   4.329   4.701
 4684SOL    HW114588   3.278   4.248   4.704
 4684SOL    HW214589   3.388   4.323   4.775
 4685SOL     OW14590   3.707   4.540   4.107
 4685SOL    HW114591   3.764   4.489   4.165
 4685SOL    HW214592   3.679   4.477   4.040
 4686SOL     OW14593   2.342   5.148   3.876
 4686SOL    HW114594   2.281   5.096   3.929
 4686SOL    HW214595   2.345   5.103   3.792
 4687SOL     OW14596   3.531   4.987   4.371
 4687SOL    HW114597   3.625   4.993   4.388
 4687SOL    HW214598   3.498   5.075   4.387
 4688SOL     OW14599   3.256   4.296   3.795
 4688SOL    HW114600   3.195   4.276   3.866
 4688SOL    HW214601   3.340   4.264   3.827
 4689SOL     OW14602   2.388   3.986   4.041
 4689SOL    HW114603   2.433   3.939   3.972
 4689SOL    HW214604   2.365   4.071   4.003
 4690SOL     OW14605   3.613   4.960   5.300
 4690SOL    HW114606   3.699   4.918   5.299
 4690SOL    HW214607   3.632   5.053   5.312
 4691SOL     OW14608   2.926   5.074   5.055
 4691SOL    HW114609   2.848   5.049   5.103
 4691SOL    HW214610   2.999   5.035   5.103
 4692SOL     OW14611   2.988   4.925   4.831
 4692SOL    HW114612   2.938   4.967   4.902
 4692SOL    HW214613   2.943   4.951   4.751
 4693SOL     OW14614   3.491   4.822   4.801
 4693SOL    HW114615   3.486   4.884   4.874
 4693SOL    HW214616   3.412   4.841   4.749
 4694SOL     OW14617   2.782   3.822   5.122
 4694SOL    HW114618   2.805   3.809   5.030
 4694SOL    HW214619   2.860   3.862   5.161
 4695SOL     OW14620   2.846   4.839   5.449
 4695SOL    HW114621   2.754   4.855   5.468
 4695SOL    HW214622   2.846   4.762   5.392
 4696SOL     OW14623   2.567   4.783   4.096
 4696SOL    HW114624   2.555   4.767   4.189
 4696SOL    HW214625   2.644   4.732   4.072
 4697SOL     OW14626   2.281   4.539   4.976
 4697SOL    HW114627   2.349   4.548   5.042
 4697SOL    HW214628   2.245   4.451   4.990
 4698SOL     OW14629   3.127   4.100   5.000
 4698SOL    HW114630   3.160   4.178   5.045
 4698SOL    HW214631   3.037   4.123   4.977
 4699SOL     OW14632   2.209   4.832   4.213
 4699SOL    HW114633   2.212   4.905   4.151
 4699SOL    HW214634   2.208   4.754   4.158
 4700SOL     OW14635   2.414   4.261   4.585
 4700SOL    HW114636   2.429   4.319   4.510
 4700SOL    HW214637   2.480   4.288   4.649
 4701SOL     OW14638   3.121   5.077   4.109
 4701SOL    HW114639   3.178   5.144   4.148
 4701SOL    HW214640   3.033   5.100   4.139
 4702SOL     OW14641   3.132   5.182   4.866
 4702SOL    HW114642   3.191   5.196   4.939
 4702SOL    HW214643   3.087   5.099   4.886
 4703SOL     OW14644   3.443   4.347   4.203
 4703SOL    HW114645   3.397   4.401   4.267
 4703SOL    HW214646   3.489   4.409   4.147
 4704SOL     OW14647   2.210   5.236   5.038
 4704SOL    HW114648   2.199   5.201   4.950
 4704SOL    HW214649   2.303   5.257   5.044
 4705SOL     OW14650   2.276   4.469   5.326
 4705SOL    HW114651   2.338   4.513   5.268
 4705SOL    HW214652   2.316   4.383   5.342
 4706SOL     OW14653   3.463   4.503   5.406
 4706SOL    HW114654   3.377   4.544   5.399
 4706SOL    HW214655   3.516   4.544   5.338
 4707SOL     OW14656   2.858   3.847   5.478
 4707SOL    HW114657   2.914   3.920   5.452
 4707SOL    HW214658   2.907   3.769   5.453
 4708SOL     OW14659   2.360   3.764   5.471
 4708SOL    HW114660   2.317   3.710   5.405
 4708SOL    HW214661   2.301   3.839   5.483
 4709SOL     OW14662   2.446   4.596   4.756
 4709SOL    HW114663   2.475   4.687   4.753
 4709SOL    HW214664   2.389   4.591   4.832
 4710SOL     OW14665   3.219   4.582   4.752
 4710SOL    HW114666   3.136   4.572   4.706
 4710SOL    HW214667   3.260   4.496   4.747
 4711SOL     OW14668   3.067   4.253   3.991
 4711SOL    HW114669   3.074   4.174   4.045
 4711SOL    HW214670   3.023   4.317   4.047
 4712SOL     OW14671   2.161   3.923   4.971
 4712SOL    HW114672   2.123   3.956   5.053
 4712SOL    HW214673   2.142   3.829   4.972
 4713SOL     OW14674   1.915   5.046   5.009
 4713SOL    HW114675   1.939   4.982   5.075
 4713SOL    HW214676   1.950   5.129   5.041
 4714SOL     OW14677   2.586   4.355   4.782
 4714SOL    HW114678   2.661   4.339   4.724
 4714SOL    HW214679   2.558   4.444   4.761
 4715SOL     OW14680   3.597   4.684   5.576
 4715SOL    HW114681   3.551   4.622   5.519
 4715SOL    HW214682   3.537   4.697   5.650
 4716SOL     OW14683   2.167   3.792   4.349
 4716SOL    HW114684   2.148   3.883   4.372
 4716SOL    HW214685   2.171   3.746   4.433
 4717SOL     OW14686   3.480   4.099   4.090
 4717SOL    HW114687   3.506   4.034   4.156
 4717SOL    HW214688   3.456   4.177   4.141
 4718SOL     OW14689   2.889   4.483   4.685
 4718SOL    HW114690   2.886   4.501   4.779
 4718SOL    HW214691   2.863   4.392   4.676
 4719SOL     OW14692   3.716   5.214   5.309
 4719SOL    HW114693   3.711   5.289   5.250
 4719SOL    HW214694   3.785   5.236   5.371
 4720SOL     OW14695   2.215   4.640   5.532
 4720SOL    HW114696   2.297   4.659   5.578
 4720SOL    HW214697   2.240   4.578   5.464
 4721SOL     OW14698   3.391   3.997   3.851
 4721SOL    HW114699   3.326   3.933   3.878
 4721SOL    HW214700   3.425   4.033   3.934
 4722SOL     OW14701   3.154   4.550   3.755
 4722SOL    HW114702   3.197   4.465   3.759
 4722SOL    HW214703   3.185   4.589   3.673
 4723SOL     OW14704   2.920   5.079   4.549
 4723SOL    HW114705   2.925   4.994   4.506
 4723SOL    HW214706   3.006   5.118   4.537
 4724SOL     OW14707   2.171   4.533   4.671
 4724SOL    HW114708   2.264   4.554   4.664
 4724SOL    HW214709   2.169   4.443   4.704
 4725SOL     OW14710   2.193   4.250   4.737
 4725SOL    HW114711   2.158   4.162   4.721
 4725SOL    HW214712   2.270   4.255   4.679
 4726SOL     OW14713   2.996   4.100   5.407
 4726SOL    HW114714   2.949   4.155   5.469
 4726SOL    HW214715   3.084   4.138   5.403
 4727SOL     OW14716   3.023   3.927   5.195
 4727SOL    HW114717   3.013   3.990   5.266
 4727SOL    HW214718   3.063   3.977   5.124
 4728SOL     OW14719   1.868   5.041   3.914
 4728SOL    HW114720   1.778   5.058   3.888
 4728SOL    HW214721   1.866   4.953   3.952
 4729SOL     OW14722   2.845   4.516   4.951
 4729SOL    HW114723   2.901   4.493   5.025
 4729SOL    HW214724   2.759   4.479   4.973
 4730SOL     OW14725   1.898   4.268   4.841
 4730SOL    HW114726   1.978   4.255   4.791
 4730SOL    HW214727   1.926   4.272   4.932
 4731SOL     OW14728   2.053   4.243   5.451
 4731SOL    HW114729   2.110   4.205   5.385
 4731SOL    HW214730   2.011   4.317   5.408
 4732SOL     OW14731   3.239   4.663   5.382
 4732SOL    HW114732   3.259   4.756   5.380
 4732SOL    HW214733   3.236   4.636   5.290
 4733SOL     OW14734   2.678   4.294   4.085
 4733SOL    HW114735   2.683   4.219   4.025
 4733SOL    HW214736   2.604   4.345   4.052
 4734SOL     OW14737   3.504   4.325   4.910
 4734SOL    HW114738   3.494   4.266   4.984
 4734SOL    HW214739   3.591   4.306   4.875
 4735SOL     OW14740   2.068   5.277   5.469
 4735SOL    HW114741   2.054   0.029   5.548
 4735SOL    HW214742   2.080   5.187   5.502
 4736SOL     OW14743   2.564   4.174   4.983
 4736SOL    HW114744   2.510   4.101   4.953
 4736SOL    HW214745   2.560   4.238   4.912
 4737SOL     OW14746   2.326   4.216   3.911
 4737SOL    HW114747   2.384   4.289   3.932
 4737SOL    HW214748   2.240   4.258   3.898
 4738SOL     OW14749   2.007   4.863   5.195
 4738SOL    HW114750   2.009   4.812   5.276
 4738SOL    HW214751   2.025   4.799   5.126
 4739SOL     OW14752   3.189   4.769   4.946
 4739SOL    HW114753   3.212   4.707   4.878
 4739SOL    HW214754   3.118   4.821   4.909
 4740SOL     OW14755   3.172   4.582   4.030
 4740SOL    HW114756   3.097   4.549   4.080
 4740SOL    HW214757   3.148   4.567   3.939
 4741SOL     OW14758   1.956   4.987   4.745
 4741SOL    HW114759   1.934   5.004   4.837
 4741SOL    HW214760   1.876   4.948   4.709
 4742SOL     OW14761   2.614   0.038   5.433
 4742SOL    HW114762   2.522   0.060   5.445
 4742SOL    HW214763   2.634   0.063   5.343
 4743SOL     OW14764   3.581   3.870   4.233
 4743SOL    HW114765   3.654   3.856   4.173
 4743SOL    HW214766   3.566   3.785   4.273
 4744SOL     OW14767   3.139   4.650   4.396
 4744SOL    HW114768   3.212   4.588   4.403
 4744SOL    HW214769   3.173   4.721   4.342
 4745SOL     OW14770   2.681   4.993   5.145
 4745SOL    HW114771   2.651   5.029   5.228
 4745SOL    HW214772   2.606   5.003   5.086
 4746SOL     OW14773   3.703   3.897   4.691
 4746SOL    HW114774   3.732   3.810   4.664
 4746SOL    HW214775   3.617   3.908   4.651
 4747SOL     OW14776   2.124   4.042   4.442
 4747SOL    HW114777   2.038   4.077   4.417
 4747SOL    HW214778   2.120   4.034   4.538
 4748SOL     OW14779   2.687   4.728   5.094
 4748SOL    HW114780   2.733   4.721   5.011
 4748SOL    HW214781   2.690   4.821   5.117
 4749SOL     OW14782   2.778   4.636   4.015
 4749SOL    HW114783   2.839   4.668   3.948
 4749SOL    HW214784   2.826   4.565   4.059
 4750SOL     OW14785   2.227   5.026   5.220
 4750SOL    HW114786   2.216   5.100   5.161
 4750SOL    HW214787   2.152   4.970   5.203
 4751SOL     OW14788   3.474   5.004   5.006
 4751SOL    HW114789   3.531   4.998   5.083
 4751SOL    HW214790   3.412   5.073   5.029
 4752SOL     OW14791   2.916   4.833   4.435
 4752SOL    HW114792   2.844   4.782   4.472
 4752SOL    HW214793   2.978   4.768   4.402
 4753SOL     OW14794   2.882   3.966   4.689
 4753SOL    HW114795   2.869   3.916   4.609
 4753SOL    HW214796   2.879   3.900   4.759
 4754SOL     OW14797   3.584   4.116   5.104
 4754SOL    HW114798   3.656   4.179   5.103
 4754SOL    HW214799   3.614   4.045   5.048
 4755SOL     OW14800   2.120   5.052   4.006
 4755SOL    HW114801   2.028   5.054   3.980
 4755SOL    HW214802   2.121   5.095   4.092
 4756SOL     OW14803   1.974   4.746   5.443
 4756SOL    HW114804   1.898   4.722   5.496
 4756SOL    HW214805   2.049   4.709   5.489
 4757SOL     OW14806   2.536   3.922   5.224
 4757SOL    HW114807   2.621   3.903   5.183
 4757SOL    HW214808   2.559   3.953   5.311
 4758SOL     OW14809   1.940   4.059   3.760
 4758SOL    HW114810   1.853   4.038   3.725
 4758SOL    HW214811   1.969   4.133   3.708
 4759SOL     OW14812   3.292   4.582   5.124
 4759SOL    HW114813   3.243   4.643   5.068
 4759SOL    HW214814   3.381   4.584   5.090
 4760SOL     OW14815   1.930   3.881   4.034
 4760SOL    HW114816   1.917   3.961   3.982
 4760SOL    HW214817   2.015   3.848   4.005
 4761SOL     OW14818   3.044   5.064   3.844
 4761SOL    HW114819   2.953   5.034   3.845
 4761SOL    HW214820   3.072   5.056   3.936
 4762SOL     OW14821   2.481   4.555   5.157
 4762SOL    HW114822   2.538   4.630   5.142
 4762SOL    HW214823   2.542   4.481   5.166
 4763SOL     OW14824   2.580   4.288   5.428
 4763SOL    HW114825   2.620   4.351   5.488
 4763SOL    HW214826   2.608   4.202   5.461
 4764SOL     OW14827   3.336   4.923   5.355
 4764SOL    HW114828   3.322   4.935   5.449
 4764SOL    HW214829   3.429   4.937   5.342
 4765SOL     OW14830   3.532   4.605   4.979
 4765SOL    HW114831   3.525   4.520   4.936
 4765SOL    HW214832   3.522   4.669   4.908
 4766SOL     OW14833   3.079   4.044   4.182
 4766SOL    HW114834   3.143   3.974   4.171
 4766SOL    HW214835   3.108   4.093   4.259
 4767SOL     OW14836   2.451   4.462   4.394
 4767SOL    HW114837   2.491   4.548   4.379
 4767SOL    HW214838   2.384   4.454   4.327
 4768SOL     OW14839   3.625   4.086   5.375
 4768SOL    HW114840   3.608   4.101   5.282
 4768SOL    HW214841   3.553   4.029   5.403
 4769SOL     OW14842   3.607   4.657   5.236
 4769SOL    HW114843   3.603   4.752   5.249
 4769SOL    HW214844   3.591   4.645   5.142
 4770SOL     OW14845   2.711   5.095   3.744
 4770SOL    HW114846   2.692   5.095   3.837
 4770SOL    HW214847   2.727   5.186   3.722
 4771SOL     OW14848   2.730   4.692   4.579
 4771SOL    HW114849   2.779   4.620   4.619
 4771SOL    HW214850   2.695   4.741   4.654
 4772SOL     OW14851   2.943   4.714   3.814
 4772SOL    HW114852   2.919   4.763   3.735
 4772SOL    HW214853   3.016   4.659   3.787
 4773SOL     OW14854   2.085   5.024   5.576
 4773SOL    HW114855   2.017   4.961   5.551
 4773SOL    HW214856   2.074   5.035   5.671
 4774SOL     OW14857   1.948   4.956   4.394
 4774SOL    HW114858   1.947   4.903   4.474
 4774SOL    HW214859   2.011   4.912   4.337
 4775SOL     OW14860   2.532   5.107   5.332
 4775SOL    HW114861   2.457   5.073   5.380
 4775SOL    HW214862   2.564   5.180   5.385
 4776SOL     OW14863   3.674   3.908   4.962
 4776SOL    HW114864   3.685   3.814   4.975
 4776SOL    HW214865   3.684   3.920   4.867
 4777SOL     OW14866   2.292   4.158   4.249
 4777SOL    HW114867   2.321   4.087   4.192
 4777SOL    HW214868   2.243   4.114   4.319
 4778SOL     OW14869   3.569   5.224   4.843
 4778SOL    HW114870   3.495   5.207   4.784
 4778SOL    HW214871   3.576   5.144   4.896
 4779SOL     OW14872   2.192   4.279   5.016
 4779SOL    HW114873   2.247   4.224   5.071
 4779SOL    HW214874   2.211   4.251   4.926
 4780SOL     OW14875   3.294   3.950   4.841
 4780SOL    HW114876   3.318   3.869   4.885
 4780SOL    HW214877   3.242   3.998   4.906
 4781SOL     OW14878   2.871   3.749   4.869
 4781SOL    HW114879   2.814   3.676   4.847
 4781SOL    HW214880   2.960   3.713   4.864
 4782SOL     OW14881   2.665   5.047   4.008
 4782SOL    HW114882   2.605   4.975   4.027
 4782SOL    HW214883   2.720   5.053   4.086
 4783SOL     OW14884   2.484   5.299   5.015
 4783SOL    HW114885   2.491   0.054   5.093
 4783SOL    HW214886   2.574   5.279   4.991
 4784SOL     OW14887   3.215   3.780   3.888
 4784SOL    HW114888   3.243   3.713   3.825
 4784SOL    HW214889   3.128   3.751   3.917
 4785SOL     OW14890   3.159   4.185   4.405
 4785SOL    HW114891   3.105   4.264   4.412
 4785SOL    HW214892   3.155   4.146   4.492
 4786SOL     OW14893   3.449   3.927   4.601
 4786SOL    HW114894   3.388   3.946   4.672
 4786SOL    HW214895   3.448   4.005   4.546
 4787SOL     OW14896   1.904   4.794   4.031
 4787SOL    HW114897   1.998   4.787   4.014
 4787SOL    HW214898   1.877   4.705   4.053
 4788SOL     OW14899   2.091   4.347   5.709
 4788SOL    HW114900   2.002   4.346   5.744
 4788SOL    HW214901   2.082   4.322   5.617
 4789SOL     OW14902   2.086   4.006   6.578
 4789SOL    HW114903   2.115   3.971   6.662
 4789SOL    HW214904   1.997   3.973   6.568
 4790SOL     OW14905   1.866   4.107   6.224
 4790SOL    HW114906   1.783   4.132   6.265
 4790SOL    HW214907   1.845   4.027   6.175
 4791SOL     OW14908   2.428   5.006   6.765
 4791SOL    HW114909   2.343   5.003   6.721
 4791SOL    HW214910   2.439   5.097   6.791
 4792SOL     OW14911   3.417   5.232   6.275
 4792SOL    HW114912   3.397   5.229   6.368
 4792SOL    HW214913   3.338   5.268   6.235
 4793SOL     OW14914   2.992   4.422   6.287
 4793SOL    HW114915   3.041   4.503   6.273
 4793SOL    HW214916   2.945   4.436   6.369
 4794SOL     OW14917   3.629   4.329   5.815
 4794SOL    HW114918   3.608   4.322   5.721
 4794SOL    HW214919   3.593   4.250   5.854
 4795SOL     OW14920   2.618   4.868   6.625
 4795SOL    HW114921   2.551   4.900   6.685
 4795SOL    HW214922   2.648   4.947   6.579
 4796SOL     OW14923   2.728   4.500   7.406
 4796SOL    HW114924   2.712   4.575   7.464
 4796SOL    HW214925   2.754   4.540   7.323
 4797SOL     OW14926   2.548   4.727   6.234
 4797SOL    HW114927   2.613   4.715   6.303
 4797SOL    HW214928   2.479   4.779   6.273
 4798SOL     OW14929   2.570   4.873   7.397
 4798SOL    HW114930   2.619   4.952   7.421
 4798SOL    HW214931   2.487   4.905   7.362
 4799SOL     OW14932   2.199   5.151   6.646
 4799SOL    HW114933   2.122   5.106   6.611
 4799SOL    HW214934   2.238   5.194   6.570
 4800SOL     OW14935   3.317   5.221   6.933
 4800SOL    HW114936   3.371   5.293   6.965
 4800SOL    HW214937   3.250   5.210   7.001
 4801SOL     OW14938   2.311   4.123   7.074
 4801SOL    HW114939   2.386   4.064   7.079
 4801SOL    HW214940   2.235   4.066   7.086
 4802SOL     OW14941   3.474   4.172   6.326
 4802SOL    HW114942   3.399   4.195   6.272
 4802SOL    HW214943   3.489   4.249   6.380
 4803SOL     OW14944   2.995   5.072   7.286
 4803SOL    HW114945   3.027   5.071   7.376
 4803SOL    HW214946   2.941   4.993   7.279
 4804SOL     OW14947   2.072   5.156   6.106
 4804SOL    HW114948   2.098   5.238   6.148
 4804SOL    HW214949   2.020   5.110   6.173
 4805SOL     OW14950   2.120   4.811   6.478
 4805SOL    HW114951   2.118   4.724   6.517
 4805SOL    HW214952   2.062   4.864   6.533
 4806SOL     OW14953   2.447   4.705   5.720
 4806SOL    HW114954   2.494   4.754   5.652
 4806SOL    HW214955   2.486   4.735   5.802
 4807SOL     OW14956   3.458   3.847   7.054
 4807SOL    HW114957   3.465   3.928   7.003
 4807SOL    HW214958   3.443   3.877   7.144
 4808SOL     OW14959   1.977   4.377   6.145
 4808SOL    HW114960   1.948   4.288   6.166
 4808SOL    HW214961   1.969   4.425   6.228
 4809SOL     OW14962   1.848   0.013   5.684
 4809SOL    HW114963   1.864   5.224   5.715
 4809SOL    HW214964   1.870   0.069   5.759
 4810SOL     OW14965   3.551   4.642   6.226
 4810SOL    HW114966   3.634   4.600   6.206
 4810SOL    HW214967   3.529   4.693   6.148
 4811SOL     OW14968   3.508   4.831   6.016
 4811SOL    HW114969   3.593   4.836   5.973
 4811SOL    HW214970   3.514   4.892   6.089
 4812SOL     OW14971   1.985   4.466   7.172
 4812SOL    HW114972   2.077   4.492   7.179
 4812SOL    HW214973   1.936   4.548   7.180
 4813SOL     OW14974   2.484   5.098   6.323
 4813SOL    HW114975   2.430   5.019   6.321
 4813SOL    HW214976   2.465   5.141   6.240
 4814SOL     OW14977   3.151   4.954   7.012
 4814SOL    HW114978   3.185   4.889   6.951
 4814SOL    HW214979   3.210   4.951   7.086
 4815SOL     OW14980   2.676   3.724   6.092
 4815SOL    HW114981   2.717   3.809   6.074
 4815SOL    HW214982   2.583   3.744   6.103
 4816SOL     OW14983   2.052   4.690   6.856
 4816SOL    HW114984   2.137   4.647   6.842
 4816SOL    HW214985   1.989   4.635   6.809
 4817SOL     OW14986   3.393   4.719   5.783
 4817SOL    HW114987   3.323   4.661   5.815
 4817SOL    HW214988   3.434   4.753   5.863
 4818SOL     OW14989   2.195   3.973   7.399
 4818SOL    HW114990   2.239   4.056   7.412
 4818SOL    HW214991   2.105   3.988   7.429
 4819SOL     OW14992   3.338   5.147   6.548
 4819SOL    HW114993   3.266   5.159   6.609
 4819SOL    HW214994   3.326   5.058   6.514
 4820SOL     OW14995   2.458   4.445   5.852
 4820SOL    HW114996   2.464   4.526   5.802
 4820SOL    HW214997   2.393   4.463   5.920
 4821SOL     OW14998   3.141   4.077   6.518
 4821SOL    HW114999   3.052   4.043   6.527
 4821SOL    HW215000   3.192   4.024   6.580
 4822SOL     OW15001   2.653   4.342   7.037
 4822SOL    HW115002   2.627   4.318   7.126
 4822SOL    HW215003   2.614   4.275   6.982
 4823SOL     OW15004   3.256   4.198   7.263
 4823SOL    HW115005   3.258   4.242   7.348
 4823SOL    HW215006   3.316   4.124   7.273
 4824SOL     OW15007   2.817   4.612   7.168
 4824SOL    HW115008   2.872   4.542   7.133
 4824SOL    HW215009   2.769   4.645   7.093
 4825SOL     OW15010   2.854   4.137   6.824
 4825SOL    HW115011   2.769   4.158   6.862
 4825SOL    HW215012   2.835   4.090   6.744
 4826SOL     OW15013   2.913   4.422   6.012
 4826SOL    HW115014   2.929   4.415   6.106
 4826SOL    HW215015   2.830   4.376   5.998
 4827SOL     OW15016   1.950   4.545   6.362
 4827SOL    HW115017   2.031   4.538   6.413
 4827SOL    HW215018   1.907   4.623   6.397
 4828SOL     OW15019   2.755   4.072   5.780
 4828SOL    HW115020   2.795   4.135   5.720
 4828SOL    HW215021   2.772   3.987   5.741
 4829SOL     OW15022   3.571   4.299   7.415
 4829SOL    HW115023   3.533   4.373   7.368
 4829SOL    HW215024   3.598   4.238   7.347
 4830SOL     OW15025   3.239   4.864   6.125
 4830SOL    HW115026   3.320   4.850   6.077
 4830SOL    HW215027   3.189   4.925   6.072
 4831SOL     OW15028   2.412   3.906   6.479
 4831SOL    HW115029   2.414   3.935   6.570
 4831SOL    HW215030   2.413   3.988   6.428
 4832SOL     OW15031   2.884   5.170   6.056
 4832SOL    HW115032   2.806   5.225   6.051
 4832SOL    HW215033   2.899   5.159   6.150
 4833SOL     OW15034   3.662   4.781   6.452
 4833SOL    HW115035   3.605   4.763   6.377
 4833SOL    HW215036   3.602   4.788   6.527
 4834SOL     OW15037   3.113   5.239   7.110
 4834SOL    HW115038   3.076   5.173   7.168
 4834SOL    HW215039   3.041   5.261   7.050
 4835SOL     OW15040   2.182   4.680   5.836
 4835SOL    HW115041   2.264   4.700   5.791
 4835SOL    HW215042   2.152   4.599   5.797
 4836SOL     OW15043   3.340   4.466   6.313
 4836SOL    HW115044   3.332   4.423   6.398
 4836SOL    HW215045   3.418   4.522   6.321
 4837SOL     OW15046   2.325   4.988   7.328
 4837SOL    HW115047   2.299   4.990   7.236
 4837SOL    HW215048   2.243   4.987   7.377
 4838SOL     OW15049   2.933   0.180   5.792
 4838SOL    HW115050   2.939   0.105   5.850
 4838SOL    HW215051   2.962   0.147   5.707
 4839SOL     OW15052   2.063   4.005   7.088
 4839SOL    HW115053   1.980   4.053   7.082
 4839SOL    HW215054   2.045   3.932   7.147
 4840SOL     OW15055   3.485   5.100   5.694
 4840SOL    HW115056   3.482   5.177   5.636
 4840SOL    HW215057   3.416   5.043   5.660
 4841SOL     OW15058   3.263   3.831   6.019
 4841SOL    HW115059   3.253   3.807   5.927
 4841SOL    HW215060   3.358   3.839   6.032
 4842SOL     OW15061   2.255   4.419   6.062
 4842SOL    HW115062   2.275   4.327   6.074
 4842SOL    HW215063   2.161   4.425   6.080
 4843SOL     OW15064   3.397   3.949   7.311
 4843SOL    HW115065   3.406   3.970   7.404
 4843SOL    HW215066   3.328   3.882   7.309
 4844SOL     OW15067   2.496   3.846   5.691
 4844SOL    HW115068   2.566   3.782   5.704
 4844SOL    HW215069   2.448   3.815   5.615
 4845SOL     OW15070   2.627   4.000   7.340
 4845SOL    HW115071   2.704   3.943   7.341
 4845SOL    HW215072   2.584   3.985   7.423
 4846SOL     OW15073   3.202   4.313   7.018
 4846SOL    HW115074   3.233   4.281   7.103
 4846SOL    HW215075   3.239   4.401   7.010
 4847SOL     OW15076   2.674   5.120   6.521
 4847SOL    HW115077   2.755   5.106   6.472
 4847SOL    HW215078   2.606   5.126   6.455
 4848SOL     OW15079   2.790   4.233   6.489
 4848SOL    HW115080   2.766   4.225   6.397
 4848SOL    HW215081   2.821   4.146   6.514
 4849SOL     OW15082   2.411   3.787   6.088
 4849SOL    HW115083   2.331   3.788   6.140
 4849SOL    HW215084   2.404   3.866   6.034
 4850SOL     OW15085   3.290   4.924   5.624
 4850SOL    HW115086   3.320   4.848   5.675
 4850SOL    HW215087   3.202   4.941   5.658
 4851SOL     OW15088   2.154   3.772   5.771
 4851SOL    HW115089   2.213   3.836   5.732
 4851SOL    HW215090   2.212   3.708   5.813
 4852SOL     OW15091   2.800   3.971   6.046
 4852SOL    HW115092   2.774   4.012   5.964
 4852SOL    HW215093   2.895   3.984   6.051
 4853SOL     OW15094   2.942   4.405   7.045
 4853SOL    HW115095   2.874   4.338   7.051
 4853SOL    HW215096   3.023   4.355   7.039
 4854SOL     OW15097   3.126   5.267   6.365
 4854SOL    HW115098   3.084   0.049   6.337
 4854SOL    HW215099   3.170   5.289   6.446
 4855SOL     OW15100   2.328   4.872   6.317
 4855SOL    HW115101   2.259   4.852   6.380
 4855SOL    HW215102   2.287   4.854   6.232
 4856SOL     OW15103   2.885   4.266   5.609
 4856SOL    HW115104   2.843   4.349   5.589
 4856SOL    HW215105   2.951   4.287   5.675
 4857SOL     OW15106   1.941   4.279   6.978
 4857SOL    HW115107   2.033   4.277   6.951
 4857SOL    HW215108   1.936   4.349   7.043
 4858SOL     OW15109   2.421   3.951   6.752
 4858SOL    HW115110   2.463   3.874   6.791
 4858SOL    HW215111   2.331   3.947   6.782
 4859SOL     OW15112   2.729   4.183   6.226
 4859SOL    HW115113   2.684   4.238   6.161
 4859SOL    HW215114   2.751   4.103   6.178
 4860SOL     OW15115   2.878   3.777   6.337
 4860SOL    HW115116   2.819   3.770   6.262
 4860SOL    HW215117   2.856   3.702   6.392
 4861SOL     OW15118   3.299   4.890   6.445
 4861SOL    HW115119   3.233   4.821   6.441
 4861SOL    HW215120   3.325   4.903   6.354
 4862SOL     OW15121   3.328   4.329   6.563
 4862SOL    HW115122   3.278   4.248   6.566
 4862SOL    HW215123   3.388   4.323   6.637
 4863SOL     OW15124   3.707   4.540   5.969
 4863SOL    HW115125   3.764   4.488   6.027
 4863SOL    HW215126   3.679   4.477   5.902
 4864SOL     OW15127   2.342   5.147   5.739
 4864SOL    HW115128   2.281   5.095   5.791
 4864SOL    HW215129   2.345   5.104   5.654
 4865SOL     OW15130   3.531   4.987   6.233
 4865SOL    HW115131   3.625   4.993   6.250
 4865SOL    HW215132   3.498   5.075   6.249
 4866SOL     OW15133   3.256   4.296   5.657
 4866SOL    HW115134   3.195   4.276   5.729
 4866SOL    HW215135   3.341   4.264   5.688
 4867SOL     OW15136   2.387   3.987   5.904
 4867SOL    HW115137   2.432   3.939   5.834
 4867SOL    HW215138   2.365   4.071   5.865
 4868SOL     OW15139   3.613   4.959   7.161
 4868SOL    HW115140   3.699   4.918   7.161
 4868SOL    HW215141   3.631   5.052   7.174
 4869SOL     OW15142   2.927   5.074   6.916
 4869SOL    HW115143   2.848   5.049   6.965
 4869SOL    HW215144   2.999   5.035   6.965
 4870SOL     OW15145   2.988   4.925   6.693
 4870SOL    HW115146   2.938   4.967   6.764
 4870SOL    HW215147   2.943   4.951   6.613
 4871SOL     OW15148   3.491   4.822   6.663
 4871SOL    HW115149   3.486   4.884   6.736
 4871SOL    HW215150   3.412   4.841   6.611
 4872SOL     OW15151   2.780   3.822   6.982
 4872SOL    HW115152   2.803   3.802   6.891
 4872SOL    HW215153   2.859   3.860   7.019
 4873SOL     OW15154   2.846   4.838   7.313
 4873SOL    HW115155   2.754   4.855   7.329
 4873SOL    HW215156   2.847   4.762   7.255
 4874SOL     OW15157   2.567   4.782   5.958
 4874SOL    HW115158   2.555   4.767   6.051
 4874SOL    HW215159   2.644   4.732   5.935
 4875SOL     OW15160   2.281   4.539   6.838
 4875SOL    HW115161   2.349   4.548   6.904
 4875SOL    HW215162   2.246   4.451   6.851
 4876SOL     OW15163   3.127   4.101   6.861
 4876SOL    HW115164   3.160   4.178   6.907
 4876SOL    HW215165   3.037   4.123   6.838
 4877SOL     OW15166   2.209   4.832   6.075
 4877SOL    HW115167   2.212   4.905   6.013
 4877SOL    HW215168   2.208   4.754   6.020
 4878SOL     OW15169   2.414   4.261   6.446
 4878SOL    HW115170   2.430   4.319   6.372
 4878SOL    HW215171   2.480   4.287   6.511
 4879SOL     OW15172   3.121   5.077   5.972
 4879SOL    HW115173   3.178   5.144   6.010
 4879SOL    HW215174   3.033   5.100   6.001
 4880SOL     OW15175   3.132   5.182   6.728
 4880SOL    HW115176   3.191   5.196   6.801
 4880SOL    HW215177   3.087   5.099   6.748
 4881SOL     OW15178   3.444   4.347   6.065
 4881SOL    HW115179   3.397   4.400   6.129
 4881SOL    HW215180   3.489   4.410   6.009
 4882SOL     OW15181   2.210   5.236   6.901
 4882SOL    HW115182   2.199   5.201   6.812
 4882SOL    HW215183   2.303   5.257   6.906
 4883SOL     OW15184   2.276   4.469   7.188
 4883SOL    HW115185   2.338   4.513   7.130
 4883SOL    HW215186   2.315   4.383   7.203
 4884SOL     OW15187   3.463   4.503   7.268
 4884SOL    HW115188   3.377   4.544   7.261
 4884SOL    HW215189   3.516   4.545   7.200
 4885SOL     OW15190   2.858   3.848   7.340
 4885SOL    HW115191   2.915   3.919   7.312
 4885SOL    HW215192   2.906   3.768   7.316
 4886SOL     OW15193   2.360   3.764   7.334
 4886SOL    HW115194   2.317   3.710   7.268
 4886SOL    HW215195   2.301   3.839   7.345
 4887SOL     OW15196   2.445   4.596   6.617
 4887SOL    HW115197   2.475   4.687   6.616
 4887SOL    HW215198   2.389   4.591   6.694
 4888SOL     OW15199   3.219   4.582   6.614
 4888SOL    HW115200   3.136   4.572   6.568
 4888SOL    HW215201   3.260   4.496   6.609
 4889SOL     OW15202   3.067   4.252   5.853
 4889SOL    HW115203   3.075   4.174   5.907
 4889SOL    HW215204   3.024   4.317   5.909
 4890SOL     OW15205   2.161   3.922   6.832
 4890SOL    HW115206   2.124   3.955   6.915
 4890SOL    HW215207   2.142   3.828   6.833
 4891SOL     OW15208   1.914   5.046   6.871
 4891SOL    HW115209   1.939   4.982   6.937
 4891SOL    HW215210   1.950   5.129   6.903
 4892SOL     OW15211   2.586   4.355   6.644
 4892SOL    HW115212   2.661   4.339   6.586
 4892SOL    HW215213   2.558   4.444   6.622
 4893SOL     OW15214   3.597   4.684   7.438
 4893SOL    HW115215   3.550   4.622   7.382
 4893SOL    HW215216   3.539   4.698   7.513
 4894SOL     OW15217   2.165   3.788   6.209
 4894SOL    HW115218   2.146   3.879   6.233
 4894SOL    HW215219   2.173   3.743   6.293
 4895SOL     OW15220   3.478   4.098   5.953
 4895SOL    HW115221   3.506   4.034   6.019
 4895SOL    HW215222   3.456   4.176   6.003
 4896SOL     OW15223   2.890   4.483   6.547
 4896SOL    HW115224   2.886   4.501   6.641
 4896SOL    HW215225   2.863   4.391   6.539
 4897SOL     OW15226   3.716   5.213   7.169
 4897SOL    HW115227   3.710   5.289   7.111
 4897SOL    HW215228   3.786   5.235   7.231
 4898SOL     OW15229   2.216   4.639   7.395
 4898SOL    HW115230   2.298   4.658   7.440
 4898SOL    HW215231   2.239   4.577   7.326
 4899SOL     OW15232   3.391   3.997   5.713
 4899SOL    HW115233   3.326   3.932   5.740
 4899SOL    HW215234   3.424   4.033   5.796
 4900SOL     OW15235   3.154   4.550   5.617
 4900SOL    HW115236   3.197   4.465   5.620
 4900SOL    HW215237   3.185   4.589   5.535
 4901SOL     OW15238   2.919   5.079   6.411
 4901SOL    HW115239   2.925   4.994   6.368
 4901SOL    HW215240   3.006   5.118   6.399
 4902SOL     OW15241   2.171   4.533   6.533
 4902SOL    HW115242   2.264   4.554   6.527
 4902SOL    HW215243   2.168   4.443   6.566
 4903SOL     OW15244   2.193   4.250   6.598
 4903SOL    HW115245   2.158   4.163   6.583
 4903SOL    HW215246   2.270   4.256   6.541
 4904SOL     OW15247   2.997   4.100   7.267
 4904SOL    HW115248   2.949   4.155   7.329
 4904SOL    HW215249   3.084   4.138   7.263
 4905SOL     OW15250   3.023   3.927   7.055
 4905SOL    HW115251   3.012   3.989   7.127
 4905SOL    HW215252   3.062   3.978   6.985
 4906SOL     OW15253   1.868   5.041   5.776
 4906SOL    HW115254   1.778   5.058   5.750
 4906SOL    HW215255   1.866   4.952   5.814
 4907SOL     OW15256   2.844   4.516   6.813
 4907SOL    HW115257   2.901   4.493   6.887
 4907SOL    HW215258   2.759   4.477   6.835
 4908SOL     OW15259   1.898   4.269   6.702
 4908SOL    HW115260   1.978   4.255   6.653
 4908SOL    HW215261   1.926   4.272   6.794
 4909SOL     OW15262   2.054   4.243   7.314
 4909SOL    HW115263   2.109   4.203   7.246
 4909SOL    HW215264   2.012   4.317   7.270
 4910SOL     OW15265   3.238   4.663   7.245
 4910SOL    HW115266   3.259   4.756   7.242
 4910SOL    HW215267   3.235   4.636   7.153
 4911SOL     OW15268   2.678   4.293   5.946
 4911SOL    HW115269   2.682   4.219   5.886
 4911SOL    HW215270   2.604   4.345   5.915
 4912SOL     OW15271   3.504   4.325   6.772
 4912SOL    HW115272   3.494   4.266   6.846
 4912SOL    HW215273   3.591   4.306   6.738
 4913SOL     OW15274   2.069   5.276   7.329
 4913SOL    HW115275   2.038   0.025   7.405
 4913SOL    HW215276   2.082   5.187   7.363
 4914SOL     OW15277   2.563   4.175   6.846
 4914SOL    HW115278   2.510   4.100   6.816
 4914SOL    HW215279   2.559   4.237   6.773
 4915SOL     OW15280   2.326   4.216   5.773
 4915SOL    HW115281   2.385   4.289   5.794
 4915SOL    HW215282   2.241   4.257   5.760
 4916SOL     OW15283   2.007   4.863   7.057
 4916SOL    HW115284   2.009   4.812   7.138
 4916SOL    HW215285   2.024   4.799   6.988
 4917SOL     OW15286   3.189   4.769   6.808
 4917SOL    HW115287   3.212   4.707   6.740
 4917SOL    HW215288   3.118   4.821   6.771
 4918SOL     OW15289   3.173   4.581   5.892
 4918SOL    HW115290   3.097   4.550   5.942
 4918SOL    HW215291   3.148   4.567   5.801
 4919SOL     OW15292   1.956   4.987   6.607
 4919SOL    HW115293   1.934   5.004   6.699
 4919SOL    HW215294   1.876   4.948   6.571
 4920SOL     OW15295   2.614   0.036   7.296
 4920SOL    HW115296   2.522   0.060   7.307
 4920SOL    HW215297   2.635   0.063   7.207
 4921SOL     OW15298   3.581   3.870   6.095
 4921SOL    HW115299   3.654   3.856   6.035
 4921SOL    HW215300   3.566   3.785   6.136
 4922SOL     OW15301   3.139   4.650   6.257
 4922SOL    HW115302   3.212   4.588   6.265
 4922SOL    HW215303   3.173   4.721   6.204
 4923SOL     OW15304   2.681   4.993   7.007
 4923SOL    HW115305   2.651   5.029   7.090
 4923SOL    HW215306   2.606   5.003   6.948
 4924SOL     OW15307   3.703   3.897   6.553
 4924SOL    HW115308   3.731   3.810   6.526
 4924SOL    HW215309   3.616   3.907   6.513
 4925SOL     OW15310   2.124   4.040   6.303
 4925SOL    HW115311   2.038   4.075   6.279
 4925SOL    HW215312   2.121   4.032   6.398
 4926SOL     OW15313   2.686   4.728   6.957
 4926SOL    HW115314   2.733   4.720   6.873
 4926SOL    HW215315   2.690   4.821   6.978
 4927SOL     OW15316   2.778   4.635   5.877
 4927SOL    HW115317   2.839   4.668   5.810
 4927SOL    HW215318   2.826   4.565   5.921
 4928SOL     OW15319   2.227   5.026   7.083
 4928SOL    HW115320   2.216   5.100   7.023
 4928SOL    HW215321   2.152   4.970   7.065
 4929SOL     OW15322   3.474   5.004   6.868
 4929SOL    HW115323   3.531   4.997   6.945
 4929SOL    HW215324   3.412   5.073   6.891
 4930SOL     OW15325   2.916   4.833   6.297
 4930SOL    HW115326   2.844   4.782   6.334
 4930SOL    HW215327   2.978   4.768   6.265
 4931SOL     OW15328   2.883   3.964   6.552
 4931SOL    HW115329   2.879   3.916   6.469
 4931SOL    HW215330   2.878   3.896   6.619
 4932SOL     OW15331   3.584   4.116   6.967
 4932SOL    HW115332   3.656   4.179   6.965
 4932SOL    HW215333   3.614   4.045   6.910
 4933SOL     OW15334   2.120   5.052   5.868
 4933SOL    HW115335   2.028   5.054   5.842
 4933SOL    HW215336   2.121   5.095   5.954
 4934SOL     OW15337   1.975   4.747   7.305
 4934SOL    HW115338   1.898   4.723   7.357
 4934SOL    HW215339   2.049   4.708   7.352
 4935SOL     OW15340   2.536   3.921   7.085
 4935SOL    HW115341   2.620   3.900   7.044
 4935SOL    HW215342   2.559   3.951   7.173
 4936SOL     OW15343   1.941   4.057   5.621
 4936SOL    HW115344   1.853   4.038   5.587
 4936SOL    HW215345   1.970   4.132   5.569
 4937SOL     OW15346   3.292   4.582   6.987
 4937SOL    HW115347   3.243   4.643   6.931
 4937SOL    HW215348   3.381   4.584   6.952
 4938SOL     OW15349   1.930   3.880   5.896
 4938SOL    HW115350   1.916   3.960   5.845
 4938SOL    HW215351   2.015   3.847   5.866
 4939SOL     OW15352   3.044   5.063   5.706
 4939SOL    HW115353   2.953   5.035   5.707
 4939SOL    HW215354   3.072   5.056   5.798
 4940SOL     OW15355   2.481   4.555   7.019
 4940SOL    HW115356   2.538   4.630   7.004
 4940SOL    HW215357   2.541   4.481   7.028
 4941SOL     OW15358   2.580   4.287   7.290
 4941SOL    HW115359   2.620   4.349   7.351
 4941SOL    HW215360   2.607   4.201   7.322
 4942SOL     OW15361   3.335   4.923   7.218
 4942SOL    HW115362   3.322   4.936   7.312
 4942SOL    HW215363   3.429   4.937   7.204
 4943SOL     OW15364   3.531   4.605   6.841
 4943SOL    HW115365   3.525   4.520   6.798
 4943SOL    HW215366   3.522   4.669   6.770
 4944SOL     OW15367   3.079   4.043   6.044
 4944SOL    HW115368   3.142   3.972   6.035
 4944SOL    HW215369   3.108   4.092   6.121
 4945SOL     OW15370   2.452   4.462   6.256
 4945SOL    HW115371   2.491   4.548   6.241
 4945SOL    HW215372   2.384   4.454   6.189
 4946SOL     OW15373   3.624   4.086   7.237
 4946SOL    HW115374   3.607   4.101   7.144
 4946SOL    HW215375   3.552   4.029   7.265
 4947SOL     OW15376   3.607   4.657   7.098
 4947SOL    HW115377   3.602   4.752   7.111
 4947SOL    HW215378   3.592   4.645   7.004
 4948SOL     OW15379   2.711   5.094   5.606
 4948SOL    HW115380   2.692   5.095   5.699
 4948SOL    HW215381   2.727   5.186   5.584
 4949SOL     OW15382   2.730   4.692   6.441
 4949SOL    HW115383   2.779   4.620   6.481
 4949SOL    HW215384   2.695   4.741   6.516
 4950SOL     OW15385   2.942   4.713   5.676
 4950SOL    HW115386   2.919   4.763   5.597
 4950SOL    HW215387   3.016   4.659   5.649
 4951SOL     OW15388   2.084   5.023   7.441
 4951SOL    HW115389   2.019   4.960   7.411
 4951SOL    HW215390   2.063   5.036   7.534
 4952SOL     OW15391   1.948   4.955   6.256
 4952SOL    HW115392   1.947   4.903   6.336
 4952SOL    HW215393   2.012   4.912   6.199
 4953SOL     OW15394   2.532   5.106   7.194
 4953SOL    HW115395   2.456   5.073   7.242
 4953SOL    HW215396   2.564   5.179   7.247
 4954SOL     OW15397   3.675   3.909   6.824
 4954SOL    HW115398   3.684   3.814   6.838
 4954SOL    HW215399   3.684   3.919   6.729
 4955SOL     OW15400   2.291   4.158   6.112
 4955SOL    HW115401   2.321   4.087   6.055
 4955SOL    HW215402   2.243   4.114   6.182
 4956SOL     OW15403   3.569   5.224   6.705
 4956SOL    HW115404   3.495   5.207   6.646
 4956SOL    HW215405   3.575   5.144   6.758
 4957SOL     OW15406   2.192   4.279   6.878
 4957SOL    HW115407   2.248   4.224   6.933
 4957SOL    HW215408   2.211   4.251   6.788
 4958SOL     OW15409   3.294   3.949   6.704
 4958SOL    HW115410   3.318   3.869   6.750
 4958SOL    HW215411   3.242   3.999   6.767
 4959SOL     OW15412   2.871   3.743   6.728
 4959SOL    HW115413   2.816   3.675   6.690
 4959SOL    HW215414   2.959   3.705   6.730
 4960SOL     OW15415   2.665   5.047   5.870
 4960SOL    HW115416   2.604   4.976   5.889
 4960SOL    HW215417   2.720   5.053   5.948
 4961SOL     OW15418   2.484   5.299   6.877
 4961SOL    HW115419   2.491   0.054   6.955
 4961SOL    HW215420   2.574   5.279   6.853
 4962SOL     OW15421   3.214   3.778   5.751
 4962SOL    HW115422   3.242   3.714   5.686
 4962SOL    HW215423   3.127   3.748   5.778
 4963SOL     OW15424   3.158   4.185   6.267
 4963SOL    HW115425   3.105   4.264   6.274
 4963SOL    HW215426   3.154   4.145   6.354
 4964SOL     OW15427   3.449   3.926   6.464
 4964SOL    HW115428   3.388   3.946   6.535
 4964SOL    HW215429   3.448   4.004   6.409
 4965SOL     OW15430   1.904   4.794   5.893
 4965SOL    HW115431   1.998   4.788   5.876
 4965SOL    HW215432   1.877   4.705   5.915
 4966SOL     OW15433   2.090   4.344   7.572
 4966SOL    HW115434   2.000   4.350   7.602
 4966SOL    HW215435   2.083   4.320   7.479
 4967SOL     OW15436   3.629   4.322   7.679
 4967SOL    HW115437   3.609   4.318   7.586
 4967SOL    HW215438   3.588   4.244   7.716
 4968SOL     OW15439   2.139   0.125   7.957
 4968SOL    HW115440   2.115   0.211   7.992
 4968SOL    HW215441   2.145   0.139   7.863
 4969SOL     OW15442   2.079   5.156   7.990
 4969SOL    HW115443   2.092   5.251   7.997
 4969SOL    HW215444   2.021   5.135   8.063
 4970SOL     OW15445   2.447   4.705   7.579
 4970SOL    HW115446   2.493   4.754   7.511
 4970SOL    HW215447   2.486   4.736   7.661
 4971SOL     OW15448   1.861   0.010   7.538
 4971SOL    HW115449   1.865   5.221   7.574
 4971SOL    HW215450   1.861   0.067   7.615
 4972SOL     OW15451   3.544   4.591   8.034
 4972SOL    HW115452   3.624   4.602   0.006
 4972SOL    HW215453   3.533   4.675   7.990
 4973SOL     OW15454   3.518   4.825   7.876
 4973SOL    HW115455   3.606   4.844   7.844
 4973SOL    HW215456   3.498   4.896   7.937
 4974SOL     OW15457   2.664   3.719   7.940
 4974SOL    HW115458   2.713   3.799   7.922
 4974SOL    HW215459   2.573   3.747   7.947
 4975SOL     OW15460   3.394   4.721   7.648
 4975SOL    HW115461   3.328   4.660   7.682
 4975SOL    HW215462   3.438   4.754   7.726
 4976SOL     OW15463   2.453   4.448   7.708
 4976SOL    HW115464   2.457   4.530   7.659
 4976SOL    HW215465   2.393   4.467   7.781
 4977SOL     OW15466   1.922   4.587   0.089
 4977SOL    HW115467   1.987   4.522   0.117
 4977SOL    HW215468   1.918   4.649   0.161
 4978SOL     OW15469   2.744   4.071   7.638
 4978SOL    HW115470   2.789   4.131   7.578
 4978SOL    HW215471   2.777   3.984   7.613
 4979SOL     OW15472   2.185   4.680   7.697
 4979SOL    HW115473   2.265   4.697   7.648
 4979SOL    HW215474   2.149   4.601   7.657
 4980SOL     OW15475   2.952   0.189   7.646
 4980SOL    HW115476   2.923   0.124   7.710
 4980SOL    HW215477   2.951   0.142   7.562
 4981SOL     OW15478   3.489   5.099   7.550
 4981SOL    HW115479   3.473   5.180   7.501
 4981SOL    HW215480   3.419   5.041   7.522
 4982SOL     OW15481   3.278   3.856   7.863
 4982SOL    HW115482   3.265   3.821   7.775
 4982SOL    HW215483   3.372   3.853   7.877
 4983SOL     OW15484   2.253   4.422   7.918
 4983SOL    HW115485   2.257   4.327   7.926
 4983SOL    HW215486   2.162   4.444   7.937
 4984SOL     OW15487   2.491   3.844   7.559
 4984SOL    HW115488   2.565   3.784   7.569
 4984SOL    HW215489   2.447   3.813   7.480
 4985SOL     OW15490   2.394   3.797   7.959
 4985SOL    HW115491   2.309   3.801   8.001
 4985SOL    HW215492   2.393   3.869   7.895
 4986SOL     OW15493   3.290   4.925   7.488
 4986SOL    HW115494   3.320   4.850   7.539
 4986SOL    HW215495   3.202   4.943   7.521
 4987SOL     OW15496   2.154   3.773   7.633
 4987SOL    HW115497   2.213   3.834   7.587
 4987SOL    HW215498   2.213   3.708   7.672
 4988SOL     OW15499   2.806   3.950   7.910
 4988SOL    HW115500   2.762   4.015   7.854
 4988SOL    HW215501   2.897   3.980   7.914
 4989SOL     OW15502   2.303   4.874   0.099
 4989SOL    HW115503   2.227   4.910   0.146
 4989SOL    HW215504   2.271   4.860   0.010
 4990SOL     OW15505   2.887   4.266   7.467
 4990SOL    HW115506   2.842   4.349   7.450
 4990SOL    HW215507   2.948   4.286   7.538
 4991SOL     OW15508   3.733   4.540   7.801
 4991SOL    HW115509   3.729   4.512   7.893
 4991SOL    HW215510   3.693   4.469   7.752
 4992SOL     OW15511   2.335   5.151   7.601
 4992SOL    HW115512   2.278   5.098   7.656
 4992SOL    HW215513   2.342   5.101   7.519
 4993SOL     OW15514   3.256   4.296   7.519
 4993SOL    HW115515   3.195   4.276   7.590
 4993SOL    HW215516   3.340   4.262   7.550
 4994SOL     OW15517   2.388   3.990   7.770
 4994SOL    HW115518   2.432   3.940   7.701
 4994SOL    HW215519   2.365   4.073   7.729
 4995SOL     OW15520   2.570   4.783   7.812
 4995SOL    HW115521   2.547   4.770   7.904
 4995SOL    HW215522   2.651   4.733   7.800
 4996SOL     OW15523   2.227   4.826   7.927
 4996SOL    HW115524   2.205   4.905   7.878
 4996SOL    HW215525   2.214   4.755   7.864
 4997SOL     OW15526   3.087   5.114   7.831
 4997SOL    HW115527   3.173   5.125   7.873
 4997SOL    HW215528   3.037   5.060   7.893
 4998SOL     OW15529   3.450   4.352   7.921
 4998SOL    HW115530   3.436   4.411   7.995
 4998SOL    HW215531   3.489   4.407   7.853
 4999SOL     OW15532   3.066   4.250   7.715
 4999SOL    HW115533   3.068   4.167   7.762
 4999SOL    HW215534   3.039   4.314   7.781
 5000SOL     OW15535   3.481   4.103   7.814
 5000SOL    HW115536   3.502   4.036   7.879
 5000SOL    HW215537   3.456   4.180   7.866
 5001SOL     OW15538   3.391   3.999   7.575
 5001SOL    HW115539   3.326   3.933   7.601
 5001SOL    HW215540   3.424   4.034   7.658
 5002SOL     OW15541   3.156   4.551   7.481
 5002SOL    HW115542   3.197   4.465   7.483
 5002SOL    HW215543   3.186   4.591   7.399
 5003SOL     OW15544   1.870   5.045   7.640
 5003SOL    HW115545   1.780   5.058   7.611
 5003SOL    HW215546   1.871   4.956   7.675
 5004SOL     OW15547   2.701   4.324   7.761
 5004SOL    HW115548   2.693   4.233   7.734
 5004SOL    HW215549   2.611   4.357   7.761
 5005SOL     OW15550   2.323   4.217   7.642
 5005SOL    HW115551   2.382   4.291   7.656
 5005SOL    HW215552   2.239   4.258   7.623
 5006SOL     OW15553   3.172   4.578   7.755
 5006SOL    HW115554   3.084   4.579   7.794
 5006SOL    HW215555   3.156   4.566   7.661
 5007SOL     OW15556   3.574   3.870   7.947
 5007SOL    HW115557   3.651   3.863   7.891
 5007SOL    HW215558   3.576   3.793   8.003
 5008SOL     OW15559   2.791   4.634   7.758
 5008SOL    HW115560   2.843   4.659   7.682
 5008SOL    HW215561   2.783   4.539   7.751
 5009SOL     OW15562   2.120   5.058   7.745
 5009SOL    HW115563   2.029   5.060   7.717
 5009SOL    HW215564   2.119   5.097   7.833
 5010SOL     OW15565   1.939   4.058   7.484
 5010SOL    HW115566   1.853   4.037   7.447
 5010SOL    HW215567   1.970   4.133   7.433
 5011SOL     OW15568   1.932   3.881   7.758
 5011SOL    HW115569   1.916   3.957   7.702
 5011SOL    HW215570   2.015   3.845   7.727
 5012SOL     OW15571   3.043   5.058   7.564
 5012SOL    HW115572   2.951   5.033   7.562
 5012SOL    HW215573   3.062   5.074   7.657
 5013SOL     OW15574   3.077   4.042   7.903
 5013SOL    HW115575   3.150   3.981   7.892
 5013SOL    HW215576   3.098   4.089   7.984
 5014SOL     OW15577   2.487   4.458   8.056
 5014SOL    HW115578   2.493   4.541   0.024
 5014SOL    HW215579   2.400   4.459   8.016
 5015SOL     OW15580   2.713   5.094   7.466
 5015SOL    HW115581   2.695   5.094   7.560
 5015SOL    HW215582   2.725   5.186   7.444
 5016SOL     OW15583   2.936   4.704   7.539
 5016SOL    HW115584   2.915   4.759   7.463
 5016SOL    HW215585   3.013   4.654   7.511
 5017SOL     OW15586   2.249   4.151   7.983
 5017SOL    HW115587   2.299   4.099   7.919
 5017SOL    HW215588   2.300   4.145   8.064
 5018SOL     OW15589   2.667   5.048   7.730
 5018SOL    HW115590   2.611   4.972   7.749
 5018SOL    HW215591   2.687   5.085   7.816
 5019SOL     OW15592   3.214   3.776   7.610
 5019SOL    HW115593   3.243   3.710   7.547
 5019SOL    HW215594   3.128   3.747   7.638
 5020SOL     OW15595   1.912   4.801   7.751
 5020SOL    HW115596   2.007   4.793   7.738
 5020SOL    HW215597   1.882   4.712   7.765
 5021SOL     OW15598   3.941   0.624   0.121
 5021SOL    HW115599   3.862   0.589   0.162
 5021SOL    HW215600   3.966   0.557   0.057
 5022SOL     OW15601   3.942   0.285   0.993
 5022SOL    HW115602   3.971   0.249   1.077
 5022SOL    HW215603   3.857   0.243   0.978
 5023SOL     OW15604   3.728   0.386   0.638
 5023SOL    HW115605   3.643   0.408   0.678
 5023SOL    HW215606   3.710   0.308   0.586
 5024SOL     OW15607   4.291   1.288   1.175
 5024SOL    HW115608   4.203   1.291   1.137
 5024SOL    HW215609   4.306   1.376   1.208
 5025SOL     OW15610   5.283   1.547   0.707
 5025SOL    HW115611   5.248   1.494   0.778
 5025SOL    HW215612   5.225   1.531   0.633
 5026SOL     OW15613   4.859   0.699   0.701
 5026SOL    HW115614   4.909   0.780   0.691
 5026SOL    HW215615   4.809   0.711   0.782
 5027SOL     OW15616   4.479   1.142   1.041
 5027SOL    HW115617   4.410   1.177   1.098
 5027SOL    HW215618   4.514   1.219   0.996
 5028SOL     OW15619   4.592   0.777   1.823
 5028SOL    HW115620   4.574   0.849   1.884
 5028SOL    HW215621   4.614   0.819   1.741
 5029SOL     OW15622   4.409   1.002   0.649
 5029SOL    HW115623   4.474   0.991   0.718
 5029SOL    HW215624   4.340   1.055   0.690
 5030SOL     OW15625   4.435   1.151   1.813
 5030SOL    HW115626   4.482   1.230   1.840
 5030SOL    HW215627   4.352   1.184   1.777
 5031SOL     OW15628   4.054   1.426   1.068
 5031SOL    HW115629   3.982   1.388   1.018
 5031SOL    HW215630   4.104   1.476   1.003
 5032SOL     OW15631   5.161   1.480   1.352
 5032SOL    HW115632   5.205   1.561   1.377
 5032SOL    HW215633   5.105   1.459   1.426
 5033SOL     OW15634   4.168   0.398   1.486
 5033SOL    HW115635   4.244   0.340   1.485
 5033SOL    HW215636   4.093   0.341   1.501
 5034SOL     OW15637   3.944   1.715   0.471
 5034SOL    HW115638   3.965   1.790   0.525
 5034SOL    HW215639   4.019   1.706   0.412
 5035SOL     OW15640   4.860   1.340   1.694
 5035SOL    HW115641   4.898   1.336   1.781
 5035SOL    HW215642   4.807   1.260   1.687
 5036SOL     OW15643   3.950   1.441   0.529
 5036SOL    HW115644   3.937   1.535   0.534
 5036SOL    HW215645   3.892   1.405   0.596
 5037SOL     OW15646   3.981   1.090   0.891
 5037SOL    HW115647   3.978   1.003   0.932
 5037SOL    HW215648   3.923   1.144   0.945
 5038SOL     OW15649   4.333   1.793   1.427
 5038SOL    HW115650   4.252   1.774   1.475
 5038SOL    HW215651   4.358   1.881   1.453
 5039SOL     OW15652   4.353   0.960   0.134
 5039SOL    HW115653   4.301   1.037   0.108
 5039SOL    HW215654   4.404   0.990   0.209
 5040SOL     OW15655   5.250   0.145   1.479
 5040SOL    HW115656   5.299   0.225   1.460
 5040SOL    HW215657   5.276   0.122   1.569
 5041SOL     OW15658   3.839   0.651   0.562
 5041SOL    HW115659   3.810   0.562   0.583
 5041SOL    HW215660   3.831   0.699   0.644
 5042SOL     OW15661   3.753   1.596   0.111
 5042SOL    HW115662   3.740   1.507   0.145
 5042SOL    HW215663   3.737   1.653   0.186
 5043SOL     OW15664   0.114   0.946   0.594
 5043SOL    HW115665   0.201   0.907   0.592
 5043SOL    HW215666   0.117   1.014   0.526
 5044SOL     OW15667   3.847   0.744   1.584
 5044SOL    HW115668   3.939   0.769   1.593
 5044SOL    HW215669   3.798   0.826   1.593
 5045SOL     OW15670   4.337   1.386   0.735
 5045SOL    HW115671   4.291   1.303   0.744
 5045SOL    HW215672   4.321   1.412   0.644
 5046SOL     OW15673   5.007   1.237   1.425
 5046SOL    HW115674   5.040   1.170   1.365
 5046SOL    HW215675   5.062   1.228   1.502
 5047SOL     OW15676   4.535   0.027   0.528
 5047SOL    HW115677   4.565   0.113   0.499
 5047SOL    HW215678   4.440   0.031   0.522
 5048SOL     OW15679   3.914   0.966   1.271
 5048SOL    HW115680   3.999   0.924   1.256
 5048SOL    HW215681   3.852   0.911   1.224
 5049SOL     OW15682   4.897   1.807   1.623
 5049SOL    HW115683   4.918   1.866   1.551
 5049SOL    HW215684   4.919   1.720   1.591
 5050SOL     OW15685   4.050   0.266   1.811
 5050SOL    HW115686   4.103   0.341   1.839
 5050SOL    HW215687   3.964   0.281   1.850
 5051SOL     OW15688   5.169   1.435   0.936
 5051SOL    HW115689   5.106   1.441   1.008
 5051SOL    HW215690   5.162   1.344   0.907
 5052SOL     OW15691   4.322   0.715   0.282
 5052SOL    HW115692   4.339   0.793   0.230
 5052SOL    HW215693   4.256   0.743   0.346
 5053SOL     OW15694   4.996   0.329   0.919
 5053SOL    HW115695   4.906   0.305   0.943
 5053SOL    HW215696   5.049   0.301   0.994
 5054SOL     OW15697   4.517   0.618   1.450
 5054SOL    HW115698   4.490   0.596   1.539
 5054SOL    HW215699   4.476   0.552   1.395
 5055SOL     OW15700   5.117   0.487   1.679
 5055SOL    HW115701   5.118   0.521   1.769
 5055SOL    HW215702   5.182   0.417   1.679
 5056SOL     OW15703   4.679   0.888   1.582
 5056SOL    HW115704   4.731   0.816   1.547
 5056SOL    HW215705   4.630   0.922   1.507
 5057SOL     OW15706   4.718   0.422   1.231
 5057SOL    HW115707   4.633   0.436   1.273
 5057SOL    HW215708   4.698   0.367   1.155
 5058SOL     OW15709   4.777   0.698   0.427
 5058SOL    HW115710   4.792   0.691   0.521
 5058SOL    HW215711   4.694   0.652   0.413
 5059SOL     OW15712   3.813   0.821   0.776
 5059SOL    HW115713   3.894   0.814   0.827
 5059SOL    HW215714   3.770   0.899   0.811
 5060SOL     OW15715   3.851   1.848   1.578
 5060SOL    HW115716   3.851   1.827   1.671
 5060SOL    HW215717   3.759   1.839   1.552
 5061SOL     OW15718   4.606   0.360   0.200
 5061SOL    HW115719   4.654   0.401   0.128
 5061SOL    HW215720   4.589   0.271   0.169
 5062SOL     OW15721   5.095   1.148   0.549
 5062SOL    HW115722   5.178   1.141   0.501
 5062SOL    HW215723   5.041   1.206   0.495
 5063SOL     OW15724   4.248   0.202   0.883
 5063SOL    HW115725   4.271   0.216   0.974
 5063SOL    HW215726   4.272   0.283   0.838
 5064SOL     OW15727   4.730   1.445   0.473
 5064SOL    HW115728   4.690   1.516   0.423
 5064SOL    HW215729   4.711   1.466   0.565
 5065SOL     OW15730   4.079   1.809   0.862
 5065SOL    HW115731   4.122   1.724   0.870
 5065SOL    HW215732   4.147   1.873   0.880
 5066SOL     OW15733   4.940   1.542   1.519
 5066SOL    HW115734   4.927   1.469   1.579
 5066SOL    HW215735   4.883   1.522   1.445
 5067SOL     OW15736   4.050   0.943   0.255
 5067SOL    HW115737   4.119   0.984   0.203
 5067SOL    HW215738   4.049   0.851   0.226
 5068SOL     OW15739   4.190   1.265   1.738
 5068SOL    HW115740   4.163   1.269   1.646
 5068SOL    HW215741   4.108   1.263   1.787
 5069SOL     OW15742   4.825   1.774   0.225
 5069SOL    HW115743   4.769   1.734   0.292
 5069SOL    HW215744   4.840   1.704   0.162
 5070SOL     OW15745   3.921   0.278   1.503
 5070SOL    HW115746   3.842   0.331   1.499
 5070SOL    HW215747   3.913   0.229   1.585
 5071SOL     OW15748   4.188   1.738   0.323
 5071SOL    HW115749   4.231   1.796   0.386
 5071SOL    HW215750   4.259   1.711   0.264
 5072SOL     OW15751   5.100   0.114   0.443
 5072SOL    HW115752   5.092   0.073   0.357
 5072SOL    HW215753   5.194   0.129   0.454
 5073SOL     OW15754   3.979   1.791   1.232
 5073SOL    HW115755   4.031   1.726   1.278
 5073SOL    HW215756   3.971   1.757   1.143
 5074SOL     OW15757   4.662   1.698   0.899
 5074SOL    HW115758   4.742   1.648   0.916
 5074SOL    HW215759   4.618   1.649   0.830
 5075SOL     OW15760   4.110   0.698   0.476
 5075SOL    HW115761   4.135   0.606   0.487
 5075SOL    HW215762   4.017   0.701   0.499
 5076SOL     OW15763   4.348   0.137   0.123
 5076SOL    HW115764   4.438   0.109   0.134
 5076SOL    HW215765   4.320   0.098   0.040
 5077SOL     OW15766   4.508   0.311   1.767
 5077SOL    HW115767   4.571   0.239   1.766
 5077SOL    HW215768   4.459   0.299   1.848
 5078SOL     OW15769   4.599   1.521   1.194
 5078SOL    HW115770   4.585   1.486   1.106
 5078SOL    HW215771   4.670   1.468   1.230
 5079SOL     OW15772   5.060   0.592   1.431
 5079SOL    HW115773   5.090   0.561   1.517
 5079SOL    HW215774   5.099   0.679   1.421
 5080SOL     OW15775   4.538   1.395   0.939
 5080SOL    HW115776   4.623   1.383   0.896
 5080SOL    HW215777   4.475   1.396   0.868
 5081SOL     OW15778   4.651   0.511   0.902
 5081SOL    HW115779   4.628   0.501   0.810
 5081SOL    HW215780   4.682   0.424   0.929
 5082SOL     OW15781   4.266   0.062   0.511
 5082SOL    HW115782   4.179   0.059   0.552
 5082SOL    HW215783   4.260   0.131   0.446
 5083SOL     OW15784   5.140   1.172   0.043
 5083SOL    HW115785   5.138   1.100   0.107
 5083SOL    HW215786   5.056   1.216   0.055
 5084SOL     OW15787   4.024   0.069   0.205
 5084SOL    HW115788   4.081   0.139   0.173
 5084SOL    HW215789   4.077   5.290   0.197
 5085SOL     OW15790   4.667   0.257   0.453
 5085SOL    HW115791   4.640   0.303   0.373
 5085SOL    HW215792   4.759   0.281   0.464
 5086SOL     OW15793   4.802   0.681   1.461
 5086SOL    HW115794   4.733   0.615   1.462
 5086SOL    HW215795   4.883   0.631   1.450
 5087SOL     OW15796   4.940   1.572   0.796
 5087SOL    HW115797   4.963   1.637   0.730
 5087SOL    HW215798   5.022   1.557   0.844
 5088SOL     OW15799   4.192   1.150   0.734
 5088SOL    HW115800   4.123   1.130   0.797
 5088SOL    HW215801   4.151   1.134   0.648
 5089SOL     OW15802   4.992   1.794   0.605
 5089SOL    HW115803   5.037   1.857   0.548
 5089SOL    HW215804   4.927   1.846   0.652
 5090SOL     OW15805   4.765   0.532   0.023
 5090SOL    HW115806   4.709   0.608   0.004
 5090SOL    HW215807   4.813   0.557   0.101
 5091SOL     OW15808   3.803   0.553   1.393
 5091SOL    HW115809   3.894   0.553   1.365
 5091SOL    HW215810   3.797   0.624   1.457
 5092SOL     OW15811   4.280   0.238   1.158
 5092SOL    HW115812   4.312   0.153   1.187
 5092SOL    HW215813   4.188   0.239   1.185
 5093SOL     OW15814   4.592   0.461   0.639
 5093SOL    HW115815   4.548   0.514   0.573
 5093SOL    HW215816   4.613   0.379   0.594
 5094SOL     OW15817   4.696   0.064   0.764
 5094SOL    HW115818   4.634   0.054   0.692
 5094SOL    HW215819   4.716   5.274   0.791
 5095SOL     OW15820   5.157   1.176   0.850
 5095SOL    HW115821   5.102   1.099   0.864
 5095SOL    HW215822   5.167   1.182   0.754
 5096SOL     OW15823   4.207   1.439   0.172
 5096SOL    HW115824   4.134   1.397   0.219
 5096SOL    HW215825   4.213   1.391   0.090
 5097SOL     OW15826   5.124   0.574   0.084
 5097SOL    HW115827   5.049   0.557   0.141
 5097SOL    HW215828   5.200   0.547   0.135
 5098SOL     OW15829   4.247   0.268   0.329
 5098SOL    HW115830   4.287   0.213   0.262
 5098SOL    HW215831   4.231   0.351   0.284
 5099SOL     OW15832   4.780   1.354   1.334
 5099SOL    HW115833   4.705   1.323   1.384
 5099SOL    HW215834   4.856   1.311   1.374
 5100SOL     OW15835   0.006   1.604   1.616
 5100SOL    HW115836   0.040   1.609   1.527
 5100SOL    HW215837   0.083   1.584   1.670
 5101SOL     OW15838   4.853   1.204   1.107
 5101SOL    HW115839   4.791   1.239   1.170
 5101SOL    HW215840   4.820   1.232   1.022
 5102SOL     OW15841   4.624   0.105   1.387
 5102SOL    HW115842   4.657   0.070   1.304
 5102SOL    HW215843   4.700   0.148   1.427
 5103SOL     OW15844   4.709   1.113   1.725
 5103SOL    HW115845   4.617   1.130   1.745
 5103SOL    HW215846   4.706   1.036   1.668
 5104SOL     OW15847   4.439   1.063   0.380
 5104SOL    HW115848   4.420   1.045   0.472
 5104SOL    HW215849   4.516   1.011   0.360
 5105SOL     OW15850   4.143   0.815   1.251
 5105SOL    HW115851   4.211   0.824   1.318
 5105SOL    HW215852   4.107   0.727   1.265
 5106SOL     OW15853   4.991   0.380   1.270
 5106SOL    HW115854   5.024   0.458   1.314
 5106SOL    HW215855   4.901   0.402   1.248
 5107SOL     OW15856   3.795   1.573   1.353
 5107SOL    HW115857   3.765   1.646   1.298
 5107SOL    HW215858   3.890   1.576   1.347
 5108SOL     OW15859   4.069   1.110   0.491
 5108SOL    HW115860   4.075   1.183   0.429
 5108SOL    HW215861   4.076   1.031   0.437
 5109SOL     OW15862   4.277   0.538   0.861
 5109SOL    HW115863   4.293   0.596   0.786
 5109SOL    HW215864   4.343   0.563   0.925
 5110SOL     OW15865   4.971   1.347   0.392
 5110SOL    HW115866   5.026   1.419   0.419
 5110SOL    HW215867   4.884   1.369   0.424
 5111SOL     OW15868   4.994   1.456   1.139
 5111SOL    HW115869   5.049   1.458   1.218
 5111SOL    HW215870   4.941   1.378   1.149
 5112SOL     OW15871   4.071   1.527   1.315
 5112SOL    HW115872   4.058   1.484   1.230
 5112SOL    HW215873   4.165   1.539   1.322
 5113SOL     OW15874   4.138   0.744   1.602
 5113SOL    HW115875   4.200   0.789   1.544
 5113SOL    HW215876   4.179   0.660   1.619
 5114SOL     OW15877   4.754   0.118   1.757
 5114SOL    HW115878   4.796   0.199   1.730
 5114SOL    HW215879   4.794   0.050   1.702
 5115SOL     OW15880   4.203   0.058   1.737
 5115SOL    HW115881   4.145   5.293   1.697
 5115SOL    HW215882   4.146   0.131   1.759
 5116SOL     OW15883   4.307   0.873   1.031
 5116SOL    HW115884   4.338   0.964   1.031
 5116SOL    HW215885   4.251   0.867   1.108
 5117SOL     OW15886   5.085   0.856   1.039
 5117SOL    HW115887   5.010   0.840   0.982
 5117SOL    HW215888   5.140   0.778   1.030
 5118SOL     OW15889   4.928   0.531   0.267
 5118SOL    HW115890   4.932   0.448   0.315
 5118SOL    HW215891   4.884   0.591   0.327
 5119SOL     OW15892   4.020   0.203   1.248
 5119SOL    HW115893   3.981   0.243   1.326
 5119SOL    HW215894   4.020   0.109   1.265
 5120SOL     OW15895   3.770   1.311   1.276
 5120SOL    HW115896   3.803   1.256   1.347
 5120SOL    HW215897   3.777   1.400   1.309
 5121SOL     OW15898   4.450   0.632   1.059
 5121SOL    HW115899   4.523   0.614   1.001
 5121SOL    HW215900   4.421   0.720   1.036
 5122SOL     OW15901   4.026   0.071   0.652
 5122SOL    HW115902   4.009   0.165   0.658
 5122SOL    HW215903   4.071   0.049   0.733
 5123SOL     OW15904   0.038   0.408   0.361
 5123SOL    HW115905   0.061   0.347   0.430
 5123SOL    HW215906   0.004   0.485   0.407
 5124SOL     OW15907   4.751   0.759   0.960
 5124SOL    HW115908   4.749   0.777   1.054
 5124SOL    HW215909   4.725   0.667   0.952
 5125SOL     OW15910   4.698   1.561   1.714
 5125SOL    HW115911   4.686   1.609   1.631
 5125SOL    HW215912   4.746   1.482   1.690
 5126SOL     OW15913   4.077   0.916   1.808
 5126SOL    HW115914   4.159   0.935   1.854
 5126SOL    HW215915   4.101   0.853   1.740
 5127SOL     OW15916   5.031   0.831   0.028
 5127SOL    HW115917   5.059   0.741   0.043
 5127SOL    HW215918   5.057   0.850   8.017
 5128SOL     OW15919   4.789   1.334   0.856
 5128SOL    HW115920   4.793   1.262   0.793
 5128SOL    HW215921   4.847   1.401   0.819
 5129SOL     OW15922   4.033   0.809   0.947
 5129SOL    HW115923   4.126   0.830   0.941
 5129SOL    HW215924   4.031   0.719   0.979
 5130SOL     OW15925   4.056   0.526   1.012
 5130SOL    HW115926   4.020   0.439   0.997
 5130SOL    HW215927   4.132   0.531   0.955
 5131SOL     OW15928   4.862   0.377   1.690
 5131SOL    HW115929   4.812   0.431   1.751
 5131SOL    HW215930   4.946   0.422   1.682
 5132SOL     OW15931   4.847   0.234   1.459
 5132SOL    HW115932   4.858   0.283   1.540
 5132SOL    HW215933   4.911   0.270   1.398
 5133SOL     OW15934   3.736   1.324   0.190
 5133SOL    HW115935   3.649   1.338   0.152
 5133SOL    HW215936   3.733   1.234   0.222
 5134SOL     OW15937   3.814   1.787   0.938
 5134SOL    HW115938   3.784   1.708   0.894
 5134SOL    HW215939   3.904   1.799   0.907
 5135SOL     OW15940   4.220   1.574   0.905
 5135SOL    HW115941   4.289   1.636   0.930
 5135SOL    HW215942   4.265   1.510   0.849
 5136SOL     OW15943   4.707   0.794   1.227
 5136SOL    HW115944   4.762   0.769   1.301
 5136SOL    HW215945   4.622   0.753   1.246
 5137SOL     OW15946   3.759   0.544   1.117
 5137SOL    HW115947   3.839   0.529   1.066
 5137SOL    HW215948   3.789   0.548   1.208
 5138SOL     OW15949   3.911   0.522   1.727
 5138SOL    HW115950   3.974   0.486   1.665
 5138SOL    HW215951   3.871   0.596   1.681
 5139SOL     OW15952   5.113   0.938   1.666
 5139SOL    HW115953   5.121   1.032   1.654
 5139SOL    HW215954   5.115   0.902   1.577
 5140SOL     OW15955   4.543   0.571   0.366
 5140SOL    HW115956   4.549   0.499   0.303
 5140SOL    HW215957   4.466   0.620   0.337
 5141SOL     OW15958   3.967   1.551   1.727
 5141SOL    HW115959   3.944   1.615   1.795
 5141SOL    HW215960   3.969   1.467   1.774
 5142SOL     OW15961   4.422   0.452   1.261
 5142SOL    HW115962   4.372   0.378   1.227
 5142SOL    HW215963   4.422   0.516   1.189
 5143SOL     OW15964   4.645   1.680   1.469
 5143SOL    HW115965   4.623   1.647   1.381
 5143SOL    HW215966   4.646   1.775   1.459
 5144SOL     OW15967   4.192   0.492   0.177
 5144SOL    HW115968   4.259   0.557   0.197
 5144SOL    HW215969   4.109   0.538   0.193
 5145SOL     OW15970   3.870   1.141   1.472
 5145SOL    HW115971   3.872   1.089   1.553
 5145SOL    HW215972   3.887   1.077   1.403
 5146SOL     OW15973   5.053   1.049   1.224
 5146SOL    HW115974   5.074   0.984   1.158
 5146SOL    HW215975   4.982   1.101   1.186
 5147SOL     OW15976   5.024   0.869   0.319
 5147SOL    HW115977   4.946   0.825   0.354
 5147SOL    HW215978   5.022   0.851   0.225
 5148SOL     OW15979   4.960   1.731   1.122
 5148SOL    HW115980   5.045   1.752   1.083
 5148SOL    HW215981   4.960   1.636   1.131
 5149SOL     OW15982   3.808   1.267   1.012
 5149SOL    HW115983   3.793   1.279   1.106
 5149SOL    HW215984   3.735   1.212   0.983
 5150SOL     OW15985   4.401   1.665   1.729
 5150SOL    HW115986   4.349   1.745   1.722
 5150SOL    HW215987   4.470   1.676   1.663
 5151SOL     OW15988   4.614   0.084   0.142
 5151SOL    HW115989   4.661   0.074   0.059
 5151SOL    HW215990   4.629   0.002   0.188
 5152SOL     OW15991   5.108   1.571   0.478
 5152SOL    HW115992   5.162   1.614   0.412
 5152SOL    HW215993   5.060   1.642   0.519
 5153SOL     OW15994   3.860   1.797   1.843
 5153SOL    HW115995   3.809   1.731   1.891
 5153SOL    HW215996   3.908   1.844   1.911
 5154SOL     OW15997   5.017   0.920   0.673
 5154SOL    HW115998   5.093   0.865   0.658
 5154SOL    HW215999   5.035   1.000   0.624
 5155SOL     OW16000   4.538   1.273   1.430
 5155SOL    HW116001   4.510   1.313   1.513
 5155SOL    HW216002   4.469   1.296   1.368
 5156SOL     OW16003   4.400   1.621   0.157
 5156SOL    HW116004   4.407   1.627   0.061
 5156SOL    HW216005   4.339   1.548   0.171
 5157SOL     OW16006   3.986   0.329   0.719
 5157SOL    HW116007   3.898   0.360   0.698
 5157SOL    HW216008   3.984   0.317   0.814
 5158SOL     OW16009   4.860   1.579   0.045
 5158SOL    HW116010   4.900   1.494   0.061
 5158SOL    HW216011   4.899   1.609   8.043
 5159SOL     OW16012   4.547   1.006   1.373
 5159SOL    HW116013   4.592   1.000   1.288
 5159SOL    HW216014   4.547   1.099   1.394
 5160SOL     OW16015   4.643   0.914   0.300
 5160SOL    HW116016   4.697   0.938   0.224
 5160SOL    HW216017   4.690   0.841   0.340
 5161SOL     OW16018   4.093   1.303   1.492
 5161SOL    HW116019   4.080   1.380   1.437
 5161SOL    HW216020   4.016   1.248   1.476
 5162SOL     OW16021   4.776   1.107   0.707
 5162SOL    HW116022   4.705   1.056   0.747
 5162SOL    HW216023   4.833   1.042   0.668
 5163SOL     OW16024   4.737   0.242   0.971
 5163SOL    HW116025   4.719   0.197   0.889
 5163SOL    HW216026   4.733   0.174   1.038
 5164SOL     OW16027   4.327   1.487   0.480
 5164SOL    HW116028   4.371   1.437   0.411
 5164SOL    HW216029   4.258   1.535   0.434
 5165SOL     OW16030   3.991   1.320   0.293
 5165SOL    HW116031   3.905   1.331   0.253
 5165SOL    HW216032   3.984   1.365   0.377
 5166SOL     OW16033   3.837   1.022   1.719
 5166SOL    HW116034   3.760   0.999   1.772
 5166SOL    HW216035   3.911   0.984   1.766
 5167SOL     OW16036   4.396   0.213   1.490
 5167SOL    HW116037   4.478   0.192   1.446
 5167SOL    HW216038   4.422   0.261   1.568
 5168SOL     OW16039   3.793   0.361   0.033
 5168SOL    HW116040   3.721   0.299   0.024
 5168SOL    HW216041   3.806   0.397   8.026
 5169SOL     OW16042   5.163   0.860   1.404
 5169SOL    HW116043   5.110   0.915   1.347
 5169SOL    HW216044   5.252   0.869   1.369
 5170SOL     OW16045   3.792   0.165   0.314
 5170SOL    HW116046   3.799   0.253   0.276
 5170SOL    HW216047   3.877   0.124   0.296
 5171SOL     OW16048   4.914   1.315   0.120
 5171SOL    HW116049   4.818   1.313   0.114
 5171SOL    HW216050   4.932   1.321   0.213
 5172SOL     OW16051   4.343   0.831   1.433
 5172SOL    HW116052   4.399   0.907   1.418
 5172SOL    HW216053   4.404   0.757   1.441
 5173SOL     OW16054   4.440   0.571   1.703
 5173SOL    HW116055   4.480   0.633   1.763
 5173SOL    HW216056   4.469   0.485   1.733
 5174SOL     OW16057   5.182   1.204   1.632
 5174SOL    HW116058   5.173   1.217   1.727
 5174SOL    HW216059   5.276   1.212   1.616
 5175SOL     OW16060   4.103   1.739   1.565
 5175SOL    HW116061   4.018   1.781   1.551
 5175SOL    HW216062   4.083   1.656   1.606
 5176SOL     OW16063   4.935   0.332   0.472
 5176SOL    HW116064   4.989   0.254   0.457
 5176SOL    HW216065   4.974   0.373   0.549
 5177SOL     OW16066   4.312   0.738   0.669
 5177SOL    HW116067   4.352   0.823   0.654
 5177SOL    HW216068   4.244   0.731   0.603
 5178SOL     OW16069   4.620   1.369   0.033
 5178SOL    HW116070   4.556   1.363   0.104
 5178SOL    HW216071   4.616   1.460   0.004
 5179SOL     OW16072   4.384   1.791   0.944
 5179SOL    HW116073   4.365   1.882   0.921
 5179SOL    HW216074   4.479   1.784   0.938
 5180SOL     OW16075   4.592   0.967   0.855
 5180SOL    HW116076   4.641   0.895   0.894
 5180SOL    HW216077   4.557   1.015   0.930
 5181SOL     OW16078   4.801   0.974   0.086
 5181SOL    HW116079   4.789   1.037   0.015
 5181SOL    HW216080   4.883   0.929   0.065
 5182SOL     OW16081   3.949   1.303   1.856
 5182SOL    HW116082   3.882   1.241   1.826
 5182SOL    HW216083   3.931   1.315   1.949
 5183SOL     OW16084   3.809   1.233   0.665
 5183SOL    HW116085   3.812   1.184   0.747
 5183SOL    HW216086   3.881   1.196   0.612
 5184SOL     OW16087   4.405   1.402   1.628
 5184SOL    HW116088   4.325   1.360   1.659
 5184SOL    HW216089   4.401   1.491   1.664
 5185SOL     OW16090   4.150   0.438   0.523
 5185SOL    HW116091   4.186   0.366   0.472
 5185SOL    HW216092   4.106   0.396   0.597
 5186SOL     OW16093   0.094   1.522   1.100
 5186SOL    HW116094   0.027   1.497   1.036
 5186SOL    HW216095   0.102   1.445   1.157
 5187SOL     OW16096   4.053   0.556   1.290
 5187SOL    HW116097   4.109   0.501   1.346
 5187SOL    HW216098   4.073   0.528   1.201
 5188SOL     OW16099   4.551   1.578   0.677
 5188SOL    HW116100   4.540   1.631   0.598
 5188SOL    HW216101   4.474   1.521   0.680
 5189SOL     OW16102   5.150   0.216   1.120
 5189SOL    HW116103   5.158   0.133   1.168
 5189SOL    HW216104   5.104   0.274   1.181
 5190SOL     OW16105   4.725   0.020   1.140
 5190SOL    HW116106   4.674   5.252   1.096
 5190SOL    HW216107   4.812   5.283   1.151
 5191SOL     OW16108   4.494   1.328   0.309
 5191SOL    HW116109   4.462   1.238   0.323
 5191SOL    HW216110   4.576   1.332   0.357
 5192SOL     OW16111   4.344   1.556   1.285
 5192SOL    HW116112   4.346   1.639   1.334
 5192SOL    HW216113   4.431   1.549   1.247
 5193SOL     OW16114   5.074   5.294   0.203
 5193SOL    HW116115   5.138   0.008   0.133
 5193SOL    HW216116   5.003   0.055   0.182
 5194SOL     OW16117   5.033   0.465   0.691
 5194SOL    HW116118   4.974   0.541   0.693
 5194SOL    HW216119   5.019   0.421   0.774
 5195SOL     OW16120   5.295   0.214   0.883
 5195SOL    HW116121   5.237   0.215   0.958
 5195SOL    HW216122   5.275   0.295   0.836
 5196SOL     OW16123   3.767   1.067   0.304
 5196SOL    HW116124   3.863   1.066   0.307
 5196SOL    HW216125   3.741   0.984   0.344
 5197SOL     OW16126   4.604   1.652   0.350
 5197SOL    HW116127   4.537   1.636   0.284
 5197SOL    HW216128   4.573   1.729   0.398
 5198SOL     OW16129   3.952   0.626   1.985
 5198SOL    HW116130   3.863   0.622   2.020
 5198SOL    HW216131   3.943   0.599   1.893
 5199SOL     OW16132   3.942   0.284   2.855
 5199SOL    HW116133   3.971   0.249   2.939
 5199SOL    HW216134   3.857   0.243   2.839
 5200SOL     OW16135   3.728   0.386   2.500
 5200SOL    HW116136   3.643   0.407   2.540
 5200SOL    HW216137   3.711   0.309   2.447
 5201SOL     OW16138   4.291   1.288   3.037
 5201SOL    HW116139   4.203   1.291   2.999
 5201SOL    HW216140   4.306   1.376   3.070
 5202SOL     OW16141   5.285   1.535   2.568
 5202SOL    HW116142   5.246   1.493   2.644
 5202SOL    HW216143   5.220   1.527   2.499
 5203SOL     OW16144   4.860   0.698   2.563
 5203SOL    HW116145   4.909   0.780   2.553
 5203SOL    HW216146   4.809   0.710   2.643
 5204SOL     OW16147   4.479   1.142   2.903
 5204SOL    HW116148   4.410   1.177   2.960
 5204SOL    HW216149   4.514   1.219   2.858
 5205SOL     OW16150   4.592   0.777   3.685
 5205SOL    HW116151   4.575   0.849   3.746
 5205SOL    HW216152   4.614   0.819   3.603
 5206SOL     OW16153   4.411   1.003   2.509
 5206SOL    HW116154   4.475   0.991   2.579
 5206SOL    HW216155   4.341   1.055   2.549
 5207SOL     OW16156   4.435   1.151   3.675
 5207SOL    HW116157   4.482   1.230   3.702
 5207SOL    HW216158   4.352   1.184   3.639
 5208SOL     OW16159   4.054   1.425   2.930
 5208SOL    HW116160   3.982   1.388   2.880
 5208SOL    HW216161   4.104   1.476   2.866
 5209SOL     OW16162   5.161   1.481   3.213
 5209SOL    HW116163   5.206   1.561   3.238
 5209SOL    HW216164   5.105   1.460   3.289
 5210SOL     OW16165   4.168   0.398   3.348
 5210SOL    HW116166   4.244   0.340   3.347
 5210SOL    HW216167   4.093   0.341   3.363
 5211SOL     OW16168   3.943   1.714   2.334
 5211SOL    HW116169   3.965   1.790   2.388
 5211SOL    HW216170   4.016   1.706   2.273
 5212SOL     OW16171   4.860   1.340   3.556
 5212SOL    HW116172   4.898   1.336   3.643
 5212SOL    HW216173   4.807   1.260   3.549
 5213SOL     OW16174   3.954   1.441   2.397
 5213SOL    HW116175   3.937   1.535   2.401
 5213SOL    HW216176   3.894   1.403   2.461
 5214SOL     OW16177   3.982   1.090   2.753
 5214SOL    HW116178   3.978   1.004   2.794
 5214SOL    HW216179   3.924   1.144   2.807
 5215SOL     OW16180   4.333   1.792   3.289
 5215SOL    HW116181   4.252   1.774   3.337
 5215SOL    HW216182   4.358   1.881   3.315
 5216SOL     OW16183   4.310   0.982   1.996
 5216SOL    HW116184   4.355   1.031   1.928
 5216SOL    HW216185   4.349   1.012   2.078
 5217SOL     OW16186   5.251   0.143   3.341
 5217SOL    HW116187   5.298   0.224   3.322
 5217SOL    HW216188   5.275   0.123   3.431
 5218SOL     OW16189   3.839   0.654   2.421
 5218SOL    HW116190   3.811   0.564   2.442
 5218SOL    HW216191   3.831   0.701   2.504
 5219SOL     OW16192   3.756   1.595   1.986
 5219SOL    HW116193   3.739   1.503   2.006
 5219SOL    HW216194   3.732   1.642   2.066
 5220SOL     OW16195   0.112   0.940   2.438
 5220SOL    HW116196   0.200   0.904   2.453
 5220SOL    HW216197   0.128   1.025   2.397
 5221SOL     OW16198   3.847   0.744   3.446
 5221SOL    HW116199   3.939   0.769   3.455
 5221SOL    HW216200   3.798   0.826   3.455
 5222SOL     OW16201   4.337   1.386   2.597
 5222SOL    HW116202   4.291   1.302   2.607
 5222SOL    HW216203   4.321   1.412   2.507
 5223SOL     OW16204   5.007   1.236   3.287
 5223SOL    HW116205   5.040   1.170   3.227
 5223SOL    HW216206   5.062   1.228   3.365
 5224SOL     OW16207   4.535   0.027   2.391
 5224SOL    HW116208   4.563   0.114   2.365
 5224SOL    HW216209   4.439   0.029   2.384
 5225SOL     OW16210   3.914   0.966   3.133
 5225SOL    HW116211   3.999   0.924   3.118
 5225SOL    HW216212   3.852   0.911   3.086
 5226SOL     OW16213   4.897   1.807   3.486
 5226SOL    HW116214   4.918   1.866   3.413
 5226SOL    HW216215   4.919   1.720   3.453
 5227SOL     OW16216   4.050   0.266   3.672
 5227SOL    HW116217   4.103   0.341   3.702
 5227SOL    HW216218   3.964   0.281   3.712
 5228SOL     OW16219   5.169   1.435   2.798
 5228SOL    HW116220   5.106   1.442   2.871
 5228SOL    HW216221   5.162   1.344   2.770
 5229SOL     OW16222   4.319   0.722   2.128
 5229SOL    HW116223   4.323   0.803   2.078
 5229SOL    HW216224   4.253   0.739   2.196
 5230SOL     OW16225   4.996   0.329   2.780
 5230SOL    HW116226   4.907   0.305   2.804
 5230SOL    HW216227   5.049   0.301   2.855
 5231SOL     OW16228   4.518   0.618   3.312
 5231SOL    HW116229   4.490   0.596   3.401
 5231SOL    HW216230   4.476   0.552   3.257
 5232SOL     OW16231   5.117   0.487   3.542
 5232SOL    HW116232   5.118   0.521   3.631
 5232SOL    HW216233   5.183   0.418   3.541
 5233SOL     OW16234   4.679   0.888   3.444
 5233SOL    HW116235   4.731   0.816   3.409
 5233SOL    HW216236   4.630   0.922   3.369
 5234SOL     OW16237   4.718   0.422   3.093
 5234SOL    HW116238   4.633   0.437   3.135
 5234SOL    HW216239   4.698   0.367   3.017
 5235SOL     OW16240   4.775   0.698   2.287
 5235SOL    HW116241   4.790   0.691   2.382
 5235SOL    HW216242   4.692   0.652   2.273
 5236SOL     OW16243   3.812   0.821   2.639
 5236SOL    HW116244   3.893   0.813   2.689
 5236SOL    HW216245   3.769   0.899   2.673
 5237SOL     OW16246   3.851   1.846   3.439
 5237SOL    HW116247   3.851   1.826   3.533
 5237SOL    HW216248   3.759   1.841   3.414
 5238SOL     OW16249   4.599   0.362   2.052
 5238SOL    HW116250   4.635   0.419   1.984
 5238SOL    HW216251   4.651   0.282   2.048
 5239SOL     OW16252   5.093   1.147   2.410
 5239SOL    HW116253   5.180   1.148   2.371
 5239SOL    HW216254   5.041   1.206   2.355
 5240SOL     OW16255   4.249   0.202   2.744
 5240SOL    HW116256   4.272   0.217   2.836
 5240SOL    HW216257   4.272   0.284   2.701
 5241SOL     OW16258   4.730   1.443   2.334
 5241SOL    HW116259   4.692   1.516   2.285
 5241SOL    HW216260   4.712   1.465   2.426
 5242SOL     OW16261   4.078   1.809   2.724
 5242SOL    HW116262   4.122   1.724   2.732
 5242SOL    HW216263   4.147   1.873   2.742
 5243SOL     OW16264   4.940   1.542   3.381
 5243SOL    HW116265   4.927   1.469   3.441
 5243SOL    HW216266   4.883   1.523   3.307
 5244SOL     OW16267   4.044   0.957   2.112
 5244SOL    HW116268   4.126   0.976   2.066
 5244SOL    HW216269   4.013   0.875   2.074
 5245SOL     OW16270   4.190   1.264   3.600
 5245SOL    HW116271   4.163   1.269   3.508
 5245SOL    HW216272   4.108   1.263   3.649
 5246SOL     OW16273   4.832   1.775   2.099
 5246SOL    HW116274   4.760   1.730   2.143
 5246SOL    HW216275   4.857   1.715   2.028
 5247SOL     OW16276   3.921   0.278   3.365
 5247SOL    HW116277   3.842   0.331   3.361
 5247SOL    HW216278   3.914   0.229   3.447
 5248SOL     OW16279   4.190   1.737   2.183
 5248SOL    HW116280   4.232   1.794   2.247
 5248SOL    HW216281   4.261   1.706   2.127
 5249SOL     OW16282   5.098   0.099   2.282
 5249SOL    HW116283   5.084   0.082   2.189
 5249SOL    HW216284   5.192   0.118   2.289
 5250SOL     OW16285   3.978   1.791   3.094
 5250SOL    HW116286   4.031   1.726   3.140
 5250SOL    HW216287   3.971   1.757   3.005
 5251SOL     OW16288   4.662   1.698   2.761
 5251SOL    HW116289   4.741   1.648   2.779
 5251SOL    HW216290   4.617   1.649   2.692
 5252SOL     OW16291   4.117   0.696   2.338
 5252SOL    HW116292   4.138   0.603   2.349
 5252SOL    HW216293   4.023   0.702   2.356
 5253SOL     OW16294   4.346   0.133   1.969
 5253SOL    HW116295   4.418   0.073   1.989
 5253SOL    HW216296   4.297   0.091   1.899
 5254SOL     OW16297   4.508   0.311   3.629
 5254SOL    HW116298   4.571   0.239   3.628
 5254SOL    HW216299   4.459   0.299   3.710
 5255SOL     OW16300   4.599   1.521   3.056
 5255SOL    HW116301   4.584   1.486   2.968
 5255SOL    HW216302   4.670   1.468   3.092
 5256SOL     OW16303   5.060   0.592   3.293
 5256SOL    HW116304   5.090   0.561   3.379
 5256SOL    HW216305   5.099   0.678   3.283
 5257SOL     OW16306   4.538   1.395   2.801
 5257SOL    HW116307   4.623   1.383   2.758
 5257SOL    HW216308   4.474   1.396   2.730
 5258SOL     OW16309   4.651   0.511   2.765
 5258SOL    HW116310   4.628   0.501   2.672
 5258SOL    HW216311   4.682   0.424   2.791
 5259SOL     OW16312   4.266   0.062   2.371
 5259SOL    HW116313   4.180   0.061   2.413
 5259SOL    HW216314   4.259   0.132   2.305
 5260SOL     OW16315   5.136   1.180   1.906
 5260SOL    HW116316   5.145   1.102   1.960
 5260SOL    HW216317   5.049   1.214   1.926
 5261SOL     OW16318   4.026   0.062   2.053
 5261SOL    HW116319   4.085   0.131   2.022
 5261SOL    HW216320   4.082   5.285   2.063
 5262SOL     OW16321   4.661   0.262   2.325
 5262SOL    HW116322   4.632   0.296   2.240
 5262SOL    HW216323   4.756   0.276   2.325
 5263SOL     OW16324   4.802   0.681   3.323
 5263SOL    HW116325   4.733   0.615   3.325
 5263SOL    HW216326   4.883   0.631   3.312
 5264SOL     OW16327   4.940   1.571   2.656
 5264SOL    HW116328   4.962   1.638   2.591
 5264SOL    HW216329   5.021   1.560   2.707
 5265SOL     OW16330   4.193   1.149   2.595
 5265SOL    HW116331   4.123   1.130   2.659
 5265SOL    HW216332   4.153   1.133   2.510
 5266SOL     OW16333   4.996   1.794   2.467
 5266SOL    HW116334   5.038   1.855   2.407
 5266SOL    HW216335   4.929   1.846   2.512
 5267SOL     OW16336   4.753   0.550   1.881
 5267SOL    HW116337   4.705   0.632   1.864
 5267SOL    HW216338   4.807   0.570   1.958
 5268SOL     OW16339   3.803   0.553   3.255
 5268SOL    HW116340   3.894   0.553   3.227
 5268SOL    HW216341   3.798   0.624   3.319
 5269SOL     OW16342   4.279   0.238   3.020
 5269SOL    HW116343   4.312   0.153   3.049
 5269SOL    HW216344   4.188   0.239   3.046
 5270SOL     OW16345   4.592   0.464   2.502
 5270SOL    HW116346   4.544   0.516   2.439
 5270SOL    HW216347   4.613   0.383   2.456
 5271SOL     OW16348   4.699   0.063   2.625
 5271SOL    HW116349   4.635   0.055   2.555
 5271SOL    HW216350   4.714   5.273   2.655
 5272SOL     OW16351   5.157   1.176   2.713
 5272SOL    HW116352   5.101   1.099   2.726
 5272SOL    HW216353   5.168   1.181   2.618
 5273SOL     OW16354   4.215   1.418   2.018
 5273SOL    HW116355   4.140   1.389   2.071
 5273SOL    HW216356   4.200   1.379   1.932
 5274SOL     OW16357   5.128   0.559   1.943
 5274SOL    HW116358   5.052   0.551   2.001
 5274SOL    HW216359   5.202   0.531   1.998
 5275SOL     OW16360   4.248   0.265   2.184
 5275SOL    HW116361   4.291   0.215   2.115
 5275SOL    HW216362   4.227   0.349   2.143
 5276SOL     OW16363   4.781   1.354   3.195
 5276SOL    HW116364   4.705   1.323   3.246
 5276SOL    HW216365   4.856   1.311   3.236
 5277SOL     OW16366   0.006   1.604   3.478
 5277SOL    HW116367   0.040   1.609   3.389
 5277SOL    HW216368   0.083   1.584   3.532
 5278SOL     OW16369   4.853   1.203   2.968
 5278SOL    HW116370   4.791   1.239   3.032
 5278SOL    HW216371   4.819   1.232   2.884
 5279SOL     OW16372   4.624   0.105   3.249
 5279SOL    HW116373   4.658   0.070   3.166
 5279SOL    HW216374   4.700   0.148   3.289
 5280SOL     OW16375   4.709   1.113   3.587
 5280SOL    HW116376   4.617   1.130   3.607
 5280SOL    HW216377   4.706   1.036   3.530
 5281SOL     OW16378   4.433   1.062   2.233
 5281SOL    HW116379   4.418   1.045   2.326
 5281SOL    HW216380   4.508   1.008   2.210
 5282SOL     OW16381   4.143   0.815   3.113
 5282SOL    HW116382   4.211   0.824   3.180
 5282SOL    HW216383   4.107   0.727   3.127
 5283SOL     OW16384   4.991   0.380   3.132
 5283SOL    HW116385   5.024   0.458   3.176
 5283SOL    HW216386   4.901   0.402   3.110
 5284SOL     OW16387   3.795   1.573   3.214
 5284SOL    HW116388   3.765   1.647   3.161
 5284SOL    HW216389   3.890   1.576   3.210
 5285SOL     OW16390   4.073   1.109   2.353
 5285SOL    HW116391   4.078   1.183   2.291
 5285SOL    HW216392   4.070   1.031   2.297
 5286SOL     OW16393   4.277   0.538   2.723
 5286SOL    HW116394   4.293   0.596   2.648
 5286SOL    HW216395   4.343   0.564   2.787
 5287SOL     OW16396   4.972   1.349   2.249
 5287SOL    HW116397   5.026   1.422   2.280
 5287SOL    HW216398   4.884   1.369   2.283
 5288SOL     OW16399   4.994   1.456   3.001
 5288SOL    HW116400   5.049   1.458   3.080
 5288SOL    HW216401   4.940   1.378   3.012
 5289SOL     OW16402   4.071   1.527   3.177
 5289SOL    HW116403   4.058   1.484   3.092
 5289SOL    HW216404   4.165   1.539   3.184
 5290SOL     OW16405   4.138   0.744   3.464
 5290SOL    HW116406   4.200   0.789   3.406
 5290SOL    HW216407   4.179   0.660   3.481
 5291SOL     OW16408   4.754   0.118   3.619
 5291SOL    HW116409   4.796   0.199   3.592
 5291SOL    HW216410   4.793   0.050   3.564
 5292SOL     OW16411   4.203   0.058   3.599
 5292SOL    HW116412   4.145   5.293   3.560
 5292SOL    HW216413   4.146   0.131   3.621
 5293SOL     OW16414   4.308   0.873   2.893
 5293SOL    HW116415   4.338   0.964   2.893
 5293SOL    HW216416   4.251   0.867   2.970
 5294SOL     OW16417   5.086   0.857   2.899
 5294SOL    HW116418   5.008   0.839   2.845
 5294SOL    HW216419   5.138   0.777   2.893
 5295SOL     OW16420   4.929   0.531   2.128
 5295SOL    HW116421   4.933   0.451   2.179
 5295SOL    HW216422   4.885   0.594   2.185
 5296SOL     OW16423   4.020   0.204   3.110
 5296SOL    HW116424   3.981   0.243   3.188
 5296SOL    HW216425   4.020   0.109   3.127
 5297SOL     OW16426   3.768   1.311   3.139
 5297SOL    HW116427   3.802   1.256   3.209
 5297SOL    HW216428   3.777   1.400   3.171
 5298SOL     OW16429   4.450   0.632   2.922
 5298SOL    HW116430   4.523   0.615   2.863
 5298SOL    HW216431   4.421   0.720   2.898
 5299SOL     OW16432   4.027   0.072   2.514
 5299SOL    HW116433   4.009   0.166   2.521
 5299SOL    HW216434   4.071   0.050   2.596
 5300SOL     OW16435   0.029   0.408   2.227
 5300SOL    HW116436   0.059   0.346   2.293
 5300SOL    HW216437   0.006   0.486   2.276
 5301SOL     OW16438   4.752   0.759   2.822
 5301SOL    HW116439   4.749   0.777   2.916
 5301SOL    HW216440   4.725   0.667   2.814
 5302SOL     OW16441   4.698   1.561   3.576
 5302SOL    HW116442   4.686   1.609   3.494
 5302SOL    HW216443   4.746   1.482   3.551
 5303SOL     OW16444   4.077   0.917   3.670
 5303SOL    HW116445   4.159   0.935   3.716
 5303SOL    HW216446   4.101   0.853   3.602
 5304SOL     OW16447   5.028   0.829   1.899
 5304SOL    HW116448   5.063   0.740   1.899
 5304SOL    HW216449   5.054   0.865   1.814
 5305SOL     OW16450   4.789   1.334   2.717
 5305SOL    HW116451   4.793   1.262   2.654
 5305SOL    HW216452   4.847   1.401   2.681
 5306SOL     OW16453   4.033   0.809   2.810
 5306SOL    HW116454   4.126   0.830   2.802
 5306SOL    HW216455   4.031   0.719   2.841
 5307SOL     OW16456   4.056   0.526   2.874
 5307SOL    HW116457   4.020   0.439   2.859
 5307SOL    HW216458   4.133   0.531   2.817
 5308SOL     OW16459   4.861   0.377   3.552
 5308SOL    HW116460   4.811   0.431   3.613
 5308SOL    HW216461   4.946   0.422   3.544
 5309SOL     OW16462   4.847   0.233   3.321
 5309SOL    HW116463   4.858   0.283   3.401
 5309SOL    HW216464   4.911   0.270   3.260
 5310SOL     OW16465   3.729   1.321   2.057
 5310SOL    HW116466   3.642   1.335   2.019
 5310SOL    HW216467   3.726   1.232   2.091
 5311SOL     OW16468   3.814   1.787   2.800
 5311SOL    HW116469   3.784   1.707   2.756
 5311SOL    HW216470   3.904   1.799   2.769
 5312SOL     OW16471   4.221   1.574   2.768
 5312SOL    HW116472   4.289   1.636   2.792
 5312SOL    HW216473   4.265   1.510   2.711
 5313SOL     OW16474   4.707   0.793   3.089
 5313SOL    HW116475   4.762   0.769   3.163
 5313SOL    HW216476   4.622   0.753   3.108
 5314SOL     OW16477   3.759   0.544   2.979
 5314SOL    HW116478   3.839   0.529   2.928
 5314SOL    HW216479   3.789   0.548   3.070
 5315SOL     OW16480   3.911   0.522   3.589
 5315SOL    HW116481   3.974   0.486   3.527
 5315SOL    HW216482   3.871   0.596   3.543
 5316SOL     OW16483   5.113   0.938   3.528
 5316SOL    HW116484   5.121   1.032   3.516
 5316SOL    HW216485   5.115   0.902   3.439
 5317SOL     OW16486   4.539   0.573   2.222
 5317SOL    HW116487   4.541   0.498   2.164
 5317SOL    HW216488   4.464   0.625   2.192
 5318SOL     OW16489   3.967   1.551   3.589
 5318SOL    HW116490   3.945   1.616   3.656
 5318SOL    HW216491   3.969   1.468   3.636
 5319SOL     OW16492   4.422   0.452   3.123
 5319SOL    HW116493   4.372   0.378   3.089
 5319SOL    HW216494   4.422   0.516   3.051
 5320SOL     OW16495   4.645   1.680   3.330
 5320SOL    HW116496   4.623   1.647   3.243
 5320SOL    HW216497   4.646   1.775   3.321
 5321SOL     OW16498   4.187   0.493   2.045
 5321SOL    HW116499   4.247   0.564   2.069
 5321SOL    HW216500   4.102   0.535   2.036
 5322SOL     OW16501   3.869   1.141   3.334
 5322SOL    HW116502   3.872   1.089   3.415
 5322SOL    HW216503   3.887   1.077   3.265
 5323SOL     OW16504   5.054   1.049   3.086
 5323SOL    HW116505   5.075   0.984   3.019
 5323SOL    HW216506   4.982   1.100   3.048
 5324SOL     OW16507   5.036   0.858   2.178
 5324SOL    HW116508   4.953   0.827   2.216
 5324SOL    HW216509   5.023   0.851   2.084
 5325SOL     OW16510   4.959   1.731   2.983
 5325SOL    HW116511   5.045   1.752   2.946
 5325SOL    HW216512   4.960   1.636   2.993
 5326SOL     OW16513   3.808   1.267   2.874
 5326SOL    HW116514   3.793   1.279   2.968
 5326SOL    HW216515   3.735   1.211   2.845
 5327SOL     OW16516   4.401   1.665   3.591
 5327SOL    HW116517   4.349   1.745   3.585
 5327SOL    HW216518   4.470   1.676   3.525
 5328SOL     OW16519   5.111   1.570   2.343
 5328SOL    HW116520   5.181   1.611   2.291
 5328SOL    HW216521   5.061   1.644   2.378
 5329SOL     OW16522   3.860   1.796   3.705
 5329SOL    HW116523   3.810   1.731   3.754
 5329SOL    HW216524   3.908   1.845   3.772
 5330SOL     OW16525   5.016   0.920   2.534
 5330SOL    HW116526   5.094   0.865   2.521
 5330SOL    HW216527   5.035   1.000   2.486
 5331SOL     OW16528   4.538   1.273   3.292
 5331SOL    HW116529   4.510   1.313   3.375
 5331SOL    HW216530   4.469   1.296   3.230
 5332SOL     OW16531   4.395   1.620   2.017
 5332SOL    HW116532   4.406   1.632   1.923
 5332SOL    HW216533   4.340   1.542   2.025
 5333SOL     OW16534   3.986   0.329   2.581
 5333SOL    HW116535   3.898   0.360   2.559
 5333SOL    HW216536   3.984   0.317   2.676
 5334SOL     OW16537   4.908   1.609   1.904
 5334SOL    HW116538   4.920   1.514   1.914
 5334SOL    HW216539   4.854   1.618   1.825
 5335SOL     OW16540   4.548   1.006   3.235
 5335SOL    HW116541   4.591   1.001   3.150
 5335SOL    HW216542   4.547   1.099   3.256
 5336SOL     OW16543   4.641   0.912   2.152
 5336SOL    HW116544   4.702   0.943   2.086
 5336SOL    HW216545   4.687   0.840   2.196
 5337SOL     OW16546   4.093   1.303   3.354
 5337SOL    HW116547   4.080   1.380   3.299
 5337SOL    HW216548   4.016   1.248   3.337
 5338SOL     OW16549   4.776   1.107   2.569
 5338SOL    HW116550   4.705   1.057   2.609
 5338SOL    HW216551   4.834   1.040   2.531
 5339SOL     OW16552   4.738   0.242   2.833
 5339SOL    HW116553   4.719   0.197   2.751
 5339SOL    HW216554   4.733   0.174   2.900
 5340SOL     OW16555   4.327   1.488   2.344
 5340SOL    HW116556   4.371   1.438   2.275
 5340SOL    HW216557   4.258   1.536   2.297
 5341SOL     OW16558   3.983   1.345   2.150
 5341SOL    HW116559   3.890   1.343   2.128
 5341SOL    HW216560   3.986   1.382   2.239
 5342SOL     OW16561   3.837   1.022   3.581
 5342SOL    HW116562   3.760   0.999   3.634
 5342SOL    HW216563   3.911   0.984   3.628
 5343SOL     OW16564   4.396   0.213   3.352
 5343SOL    HW116565   4.479   0.192   3.308
 5343SOL    HW216566   4.422   0.261   3.430
 5344SOL     OW16567   3.801   0.340   1.904
 5344SOL    HW116568   3.718   0.306   1.870
 5344SOL    HW216569   3.822   0.413   1.846
 5345SOL     OW16570   5.163   0.860   3.265
 5345SOL    HW116571   5.110   0.916   3.209
 5345SOL    HW216572   5.252   0.869   3.232
 5346SOL     OW16573   3.796   0.167   2.177
 5346SOL    HW116574   3.797   0.250   2.129
 5346SOL    HW216575   3.881   0.127   2.158
 5347SOL     OW16576   4.907   1.329   1.976
 5347SOL    HW116577   4.813   1.311   1.977
 5347SOL    HW216578   4.931   1.336   2.068
 5348SOL     OW16579   4.343   0.831   3.295
 5348SOL    HW116580   4.399   0.907   3.280
 5348SOL    HW216581   4.404   0.757   3.303
 5349SOL     OW16582   4.440   0.571   3.565
 5349SOL    HW116583   4.480   0.633   3.625
 5349SOL    HW216584   4.469   0.485   3.595
 5350SOL     OW16585   5.182   1.204   3.494
 5350SOL    HW116586   5.173   1.217   3.588
 5350SOL    HW216587   5.276   1.212   3.478
 5351SOL     OW16588   4.103   1.739   3.426
 5351SOL    HW116589   4.018   1.781   3.412
 5351SOL    HW216590   4.083   1.656   3.468
 5352SOL     OW16591   4.941   0.323   2.323
 5352SOL    HW116592   4.997   0.246   2.316
 5352SOL    HW216593   4.972   0.368   2.402
 5353SOL     OW16594   4.314   0.738   2.532
 5353SOL    HW116595   4.353   0.824   2.515
 5353SOL    HW216596   4.246   0.729   2.465
 5354SOL     OW16597   4.591   1.366   1.897
 5354SOL    HW116598   4.549   1.396   1.978
 5354SOL    HW216599   4.606   1.446   1.847
 5355SOL     OW16600   4.384   1.791   2.806
 5355SOL    HW116601   4.364   1.882   2.783
 5355SOL    HW216602   4.479   1.785   2.800
 5356SOL     OW16603   4.592   0.967   2.717
 5356SOL    HW116604   4.641   0.895   2.757
 5356SOL    HW216605   4.557   1.016   2.792
 5357SOL     OW16606   4.807   0.988   1.952
 5357SOL    HW116607   4.782   1.037   1.874
 5357SOL    HW216608   4.881   0.934   1.924
 5358SOL     OW16609   3.949   1.303   3.718
 5358SOL    HW116610   3.882   1.241   3.689
 5358SOL    HW216611   3.932   1.314   3.811
 5359SOL     OW16612   3.808   1.234   2.527
 5359SOL    HW116613   3.813   1.185   2.609
 5359SOL    HW216614   3.876   1.195   2.472
 5360SOL     OW16615   4.405   1.402   3.491
 5360SOL    HW116616   4.325   1.360   3.521
 5360SOL    HW216617   4.401   1.491   3.526
 5361SOL     OW16618   4.154   0.436   2.386
 5361SOL    HW116619   4.186   0.363   2.332
 5361SOL    HW216620   4.107   0.393   2.458
 5362SOL     OW16621   0.095   1.520   2.961
 5362SOL    HW116622   0.028   1.497   2.898
 5362SOL    HW216623   0.101   1.445   3.019
 5363SOL     OW16624   4.053   0.556   3.152
 5363SOL    HW116625   4.109   0.501   3.208
 5363SOL    HW216626   4.073   0.528   3.063
 5364SOL     OW16627   4.552   1.577   2.539
 5364SOL    HW116628   4.540   1.631   2.461
 5364SOL    HW216629   4.475   1.521   2.541
 5365SOL     OW16630   5.150   0.216   2.982
 5365SOL    HW116631   5.159   0.133   3.030
 5365SOL    HW216632   5.104   0.274   3.043
 5366SOL     OW16633   4.725   0.020   3.001
 5366SOL    HW116634   4.674   5.251   2.959
 5366SOL    HW216635   4.812   5.282   3.013
 5367SOL     OW16636   4.495   1.333   2.177
 5367SOL    HW116637   4.464   1.242   2.183
 5367SOL    HW216638   4.577   1.333   2.225
 5368SOL     OW16639   4.344   1.556   3.147
 5368SOL    HW116640   4.346   1.639   3.196
 5368SOL    HW216641   4.431   1.549   3.109
 5369SOL     OW16642   5.035   0.034   2.021
 5369SOL    HW116643   5.117   0.027   1.972
 5369SOL    HW216644   4.984   5.258   1.994
 5370SOL     OW16645   5.028   0.461   2.547
 5370SOL    HW116646   4.972   0.538   2.552
 5370SOL    HW216647   5.016   0.418   2.632
 5371SOL     OW16648   5.295   0.214   2.745
 5371SOL    HW116649   5.237   0.215   2.821
 5371SOL    HW216650   5.276   0.295   2.698
 5372SOL     OW16651   3.767   1.071   2.168
 5372SOL    HW116652   3.861   1.063   2.150
 5372SOL    HW216653   3.739   0.982   2.191
 5373SOL     OW16654   4.604   1.650   2.208
 5373SOL    HW116655   4.533   1.635   2.145
 5373SOL    HW216656   4.577   1.727   2.257
 5374SOL     OW16657   3.952   0.626   3.847
 5374SOL    HW116658   3.863   0.621   3.882
 5374SOL    HW216659   3.943   0.599   3.755
 5375SOL     OW16660   3.942   0.284   4.717
 5375SOL    HW116661   3.971   0.249   4.801
 5375SOL    HW216662   3.857   0.243   4.701
 5376SOL     OW16663   3.728   0.386   4.362
 5376SOL    HW116664   3.643   0.407   4.402
 5376SOL    HW216665   3.711   0.309   4.309
 5377SOL     OW16666   4.291   1.288   4.899
 5377SOL    HW116667   4.203   1.291   4.861
 5377SOL    HW216668   4.306   1.376   4.932
 5378SOL     OW16669   5.286   1.535   4.430
 5378SOL    HW116670   5.246   1.493   4.506
 5378SOL    HW216671   5.220   1.527   4.361
 5379SOL     OW16672   4.859   0.698   4.425
 5379SOL    HW116673   4.909   0.780   4.415
 5379SOL    HW216674   4.810   0.710   4.505
 5380SOL     OW16675   4.479   1.142   4.765
 5380SOL    HW116676   4.410   1.177   4.822
 5380SOL    HW216677   4.514   1.219   4.720
 5381SOL     OW16678   4.592   0.777   5.547
 5381SOL    HW116679   4.574   0.848   5.608
 5381SOL    HW216680   4.614   0.820   5.465
 5382SOL     OW16681   4.411   1.003   4.371
 5382SOL    HW116682   4.475   0.991   4.441
 5382SOL    HW216683   4.341   1.055   4.411
 5383SOL     OW16684   4.435   1.151   5.537
 5383SOL    HW116685   4.482   1.230   5.564
 5383SOL    HW216686   4.352   1.184   5.501
 5384SOL     OW16687   4.054   1.426   4.792
 5384SOL    HW116688   3.982   1.387   4.742
 5384SOL    HW216689   4.105   1.476   4.727
 5385SOL     OW16690   5.161   1.481   5.075
 5385SOL    HW116691   5.206   1.561   5.100
 5385SOL    HW216692   5.105   1.460   5.151
 5386SOL     OW16693   4.168   0.398   5.210
 5386SOL    HW116694   4.244   0.339   5.209
 5386SOL    HW216695   4.093   0.341   5.225
 5387SOL     OW16696   3.943   1.714   4.195
 5387SOL    HW116697   3.965   1.790   4.249
 5387SOL    HW216698   4.016   1.706   4.134
 5388SOL     OW16699   4.860   1.340   5.418
 5388SOL    HW116700   4.898   1.336   5.505
 5388SOL    HW216701   4.807   1.260   5.411
 5389SOL     OW16702   3.954   1.441   4.258
 5389SOL    HW116703   3.937   1.535   4.263
 5389SOL    HW216704   3.894   1.403   4.323
 5390SOL     OW16705   3.981   1.090   4.615
 5390SOL    HW116706   3.979   1.004   4.656
 5390SOL    HW216707   3.923   1.144   4.669
 5391SOL     OW16708   4.333   1.793   5.150
 5391SOL    HW116709   4.252   1.774   5.199
 5391SOL    HW216710   4.358   1.881   5.177
 5392SOL     OW16711   4.310   0.982   3.858
 5392SOL    HW116712   4.355   1.031   3.790
 5392SOL    HW216713   4.349   1.012   3.940
 5393SOL     OW16714   5.251   0.143   5.203
 5393SOL    HW116715   5.298   0.224   5.184
 5393SOL    HW216716   5.275   0.123   5.293
 5394SOL     OW16717   3.838   0.654   4.283
 5394SOL    HW116718   3.811   0.564   4.304
 5394SOL    HW216719   3.831   0.701   4.366
 5395SOL     OW16720   3.754   1.596   3.849
 5395SOL    HW116721   3.739   1.503   3.869
 5395SOL    HW216722   3.732   1.642   3.930
 5396SOL     OW16723   0.112   0.940   4.299
 5396SOL    HW116724   0.200   0.904   4.315
 5396SOL    HW216725   0.128   1.026   4.260
 5397SOL     OW16726   3.847   0.744   5.308
 5397SOL    HW116727   3.938   0.770   5.317
 5397SOL    HW216728   3.798   0.826   5.317
 5398SOL     OW16729   4.337   1.386   4.459
 5398SOL    HW116730   4.291   1.302   4.468
 5398SOL    HW216731   4.321   1.412   4.369
 5399SOL     OW16732   5.007   1.237   5.149
 5399SOL    HW116733   5.040   1.170   5.089
 5399SOL    HW216734   5.062   1.228   5.227
 5400SOL     OW16735   4.535   0.027   4.253
 5400SOL    HW116736   4.563   0.114   4.227
 5400SOL    HW216737   4.439   0.029   4.246
 5401SOL     OW16738   3.914   0.967   4.995
 5401SOL    HW116739   3.999   0.924   4.980
 5401SOL    HW216740   3.852   0.911   4.948
 5402SOL     OW16741   4.897   1.807   5.347
 5402SOL    HW116742   4.918   1.866   5.275
 5402SOL    HW216743   4.919   1.720   5.315
 5403SOL     OW16744   4.050   0.266   5.535
 5403SOL    HW116745   4.102   0.341   5.564
 5403SOL    HW216746   3.964   0.281   5.574
 5404SOL     OW16747   5.168   1.435   4.660
 5404SOL    HW116748   5.106   1.442   4.733
 5404SOL    HW216749   5.162   1.344   4.632
 5405SOL     OW16750   4.319   0.722   3.990
 5405SOL    HW116751   4.323   0.803   3.940
 5405SOL    HW216752   4.253   0.739   4.058
 5406SOL     OW16753   4.996   0.329   4.642
 5406SOL    HW116754   4.907   0.305   4.666
 5406SOL    HW216755   5.049   0.301   4.717
 5407SOL     OW16756   4.518   0.618   5.174
 5407SOL    HW116757   4.490   0.596   5.263
 5407SOL    HW216758   4.476   0.552   5.119
 5408SOL     OW16759   5.117   0.487   5.404
 5408SOL    HW116760   5.118   0.521   5.493
 5408SOL    HW216761   5.183   0.418   5.403
 5409SOL     OW16762   4.679   0.888   5.306
 5409SOL    HW116763   4.731   0.816   5.271
 5409SOL    HW216764   4.630   0.922   5.231
 5410SOL     OW16765   4.718   0.422   4.955
 5410SOL    HW116766   4.633   0.437   4.997
 5410SOL    HW216767   4.698   0.367   4.880
 5411SOL     OW16768   4.775   0.698   4.149
 5411SOL    HW116769   4.790   0.691   4.244
 5411SOL    HW216770   4.692   0.652   4.135
 5412SOL     OW16771   3.812   0.821   4.501
 5412SOL    HW116772   3.893   0.813   4.551
 5412SOL    HW216773   3.770   0.899   4.536
 5413SOL     OW16774   3.850   1.847   5.302
 5413SOL    HW116775   3.851   1.827   5.395
 5413SOL    HW216776   3.758   1.839   5.276
 5414SOL     OW16777   4.599   0.362   3.914
 5414SOL    HW116778   4.635   0.419   3.846
 5414SOL    HW216779   4.651   0.282   3.910
 5415SOL     OW16780   5.092   1.147   4.272
 5415SOL    HW116781   5.180   1.148   4.233
 5415SOL    HW216782   5.041   1.206   4.216
 5416SOL     OW16783   4.249   0.202   4.606
 5416SOL    HW116784   4.272   0.217   4.698
 5416SOL    HW216785   4.272   0.284   4.563
 5417SOL     OW16786   4.730   1.443   4.196
 5417SOL    HW116787   4.692   1.516   4.147
 5417SOL    HW216788   4.712   1.465   4.288
 5418SOL     OW16789   4.078   1.809   4.587
 5418SOL    HW116790   4.122   1.724   4.594
 5418SOL    HW216791   4.147   1.873   4.605
 5419SOL     OW16792   4.940   1.542   5.243
 5419SOL    HW116793   4.927   1.469   5.303
 5419SOL    HW216794   4.883   1.523   5.169
 5420SOL     OW16795   4.044   0.957   3.974
 5420SOL    HW116796   4.126   0.976   3.928
 5420SOL    HW216797   4.013   0.875   3.936
 5421SOL     OW16798   4.190   1.264   5.462
 5421SOL    HW116799   4.163   1.269   5.370
 5421SOL    HW216800   4.108   1.262   5.511
 5422SOL     OW16801   4.832   1.775   3.961
 5422SOL    HW116802   4.760   1.730   4.005
 5422SOL    HW216803   4.857   1.715   3.890
 5423SOL     OW16804   3.921   0.278   5.227
 5423SOL    HW116805   3.842   0.331   5.223
 5423SOL    HW216806   3.913   0.229   5.309
 5424SOL     OW16807   4.190   1.736   4.045
 5424SOL    HW116808   4.232   1.794   4.109
 5424SOL    HW216809   4.261   1.706   3.989
 5425SOL     OW16810   5.098   0.099   4.144
 5425SOL    HW116811   5.084   0.082   4.051
 5425SOL    HW216812   5.192   0.118   4.151
 5426SOL     OW16813   3.978   1.791   4.956
 5426SOL    HW116814   4.031   1.727   5.004
 5426SOL    HW216815   3.973   1.756   4.867
 5427SOL     OW16816   4.662   1.698   4.623
 5427SOL    HW116817   4.741   1.648   4.641
 5427SOL    HW216818   4.617   1.649   4.554
 5428SOL     OW16819   4.117   0.696   4.200
 5428SOL    HW116820   4.138   0.603   4.211
 5428SOL    HW216821   4.023   0.702   4.218
 5429SOL     OW16822   4.346   0.133   3.831
 5429SOL    HW116823   4.418   0.073   3.851
 5429SOL    HW216824   4.297   0.091   3.761
 5430SOL     OW16825   4.508   0.311   5.491
 5430SOL    HW116826   4.571   0.239   5.490
 5430SOL    HW216827   4.459   0.299   5.572
 5431SOL     OW16828   4.599   1.521   4.918
 5431SOL    HW116829   4.584   1.486   4.830
 5431SOL    HW216830   4.670   1.468   4.954
 5432SOL     OW16831   5.060   0.592   5.155
 5432SOL    HW116832   5.090   0.561   5.241
 5432SOL    HW216833   5.099   0.678   5.145
 5433SOL     OW16834   4.538   1.395   4.663
 5433SOL    HW116835   4.623   1.383   4.620
 5433SOL    HW216836   4.475   1.396   4.592
 5434SOL     OW16837   4.651   0.511   4.627
 5434SOL    HW116838   4.628   0.501   4.534
 5434SOL    HW216839   4.682   0.424   4.653
 5435SOL     OW16840   4.266   0.062   4.232
 5435SOL    HW116841   4.180   0.061   4.275
 5435SOL    HW216842   4.259   0.132   4.167
 5436SOL     OW16843   5.136   1.180   3.768
 5436SOL    HW116844   5.145   1.102   3.823
 5436SOL    HW216845   5.049   1.214   3.788
 5437SOL     OW16846   4.026   0.062   3.915
 5437SOL    HW116847   4.085   0.131   3.885
 5437SOL    HW216848   4.081   5.285   3.925
 5438SOL     OW16849   4.661   0.262   4.187
 5438SOL    HW116850   4.632   0.296   4.102
 5438SOL    HW216851   4.756   0.276   4.187
 5439SOL     OW16852   4.802   0.681   5.185
 5439SOL    HW116853   4.733   0.615   5.187
 5439SOL    HW216854   4.883   0.631   5.174
 5440SOL     OW16855   4.940   1.571   4.518
 5440SOL    HW116856   4.962   1.638   4.453
 5440SOL    HW216857   5.020   1.560   4.569
 5441SOL     OW16858   4.193   1.149   4.457
 5441SOL    HW116859   4.123   1.130   4.521
 5441SOL    HW216860   4.153   1.133   4.372
 5442SOL     OW16861   4.996   1.794   4.329
 5442SOL    HW116862   5.038   1.855   4.269
 5442SOL    HW216863   4.929   1.846   4.374
 5443SOL     OW16864   4.753   0.550   3.743
 5443SOL    HW116865   4.705   0.632   3.726
 5443SOL    HW216866   4.807   0.570   3.820
 5444SOL     OW16867   3.803   0.553   5.117
 5444SOL    HW116868   3.894   0.553   5.089
 5444SOL    HW216869   3.797   0.624   5.181
 5445SOL     OW16870   4.279   0.238   4.882
 5445SOL    HW116871   4.312   0.153   4.911
 5445SOL    HW216872   4.188   0.239   4.909
 5446SOL     OW16873   4.592   0.464   4.364
 5446SOL    HW116874   4.544   0.516   4.301
 5446SOL    HW216875   4.613   0.383   4.318
 5447SOL     OW16876   4.699   0.063   4.487
 5447SOL    HW116877   4.635   0.055   4.417
 5447SOL    HW216878   4.714   5.273   4.517
 5448SOL     OW16879   5.157   1.176   4.575
 5448SOL    HW116880   5.101   1.099   4.588
 5448SOL    HW216881   5.169   1.181   4.480
 5449SOL     OW16882   4.215   1.418   3.880
 5449SOL    HW116883   4.140   1.389   3.932
 5449SOL    HW216884   4.200   1.379   3.794
 5450SOL     OW16885   5.128   0.559   3.805
 5450SOL    HW116886   5.051   0.551   3.863
 5450SOL    HW216887   5.202   0.532   3.860
 5451SOL     OW16888   4.248   0.265   4.046
 5451SOL    HW116889   4.291   0.215   3.977
 5451SOL    HW216890   4.227   0.349   4.005
 5452SOL     OW16891   4.781   1.354   5.057
 5452SOL    HW116892   4.705   1.323   5.108
 5452SOL    HW216893   4.856   1.311   5.098
 5453SOL     OW16894   0.006   1.604   5.340
 5453SOL    HW116895   0.040   1.609   5.251
 5453SOL    HW216896   0.083   1.584   5.394
 5454SOL     OW16897   4.853   1.203   4.830
 5454SOL    HW116898   4.791   1.239   4.894
 5454SOL    HW216899   4.819   1.232   4.746
 5455SOL     OW16900   4.624   0.105   5.111
 5455SOL    HW116901   4.658   0.070   5.028
 5455SOL    HW216902   4.700   0.148   5.151
 5456SOL     OW16903   4.709   1.113   5.449
 5456SOL    HW116904   4.617   1.130   5.469
 5456SOL    HW216905   4.706   1.036   5.392
 5457SOL     OW16906   4.432   1.062   4.095
 5457SOL    HW116907   4.418   1.045   4.188
 5457SOL    HW216908   4.508   1.008   4.072
 5458SOL     OW16909   4.143   0.815   4.975
 5458SOL    HW116910   4.211   0.824   5.042
 5458SOL    HW216911   4.107   0.727   4.989
 5459SOL     OW16912   4.991   0.380   4.994
 5459SOL    HW116913   5.024   0.458   5.038
 5459SOL    HW216914   4.901   0.402   4.972
 5460SOL     OW16915   3.795   1.573   5.077
 5460SOL    HW116916   3.765   1.647   5.024
 5460SOL    HW216917   3.890   1.576   5.072
 5461SOL     OW16918   4.072   1.109   4.215
 5461SOL    HW116919   4.078   1.182   4.153
 5461SOL    HW216920   4.070   1.031   4.159
 5462SOL     OW16921   4.277   0.538   4.584
 5462SOL    HW116922   4.293   0.596   4.510
 5462SOL    HW216923   4.343   0.564   4.649
 5463SOL     OW16924   4.972   1.349   4.111
 5463SOL    HW116925   5.026   1.422   4.142
 5463SOL    HW216926   4.884   1.369   4.145
 5464SOL     OW16927   4.994   1.456   4.863
 5464SOL    HW116928   5.049   1.458   4.942
 5464SOL    HW216929   4.940   1.378   4.874
 5465SOL     OW16930   4.071   1.527   5.039
 5465SOL    HW116931   4.058   1.485   4.954
 5465SOL    HW216932   4.165   1.539   5.047
 5466SOL     OW16933   4.138   0.745   5.326
 5466SOL    HW116934   4.200   0.789   5.268
 5466SOL    HW216935   4.179   0.660   5.343
 5467SOL     OW16936   4.754   0.118   5.481
 5467SOL    HW116937   4.796   0.199   5.454
 5467SOL    HW216938   4.794   0.050   5.426
 5468SOL     OW16939   4.203   0.058   5.461
 5468SOL    HW116940   4.144   5.293   5.422
 5468SOL    HW216941   4.147   0.131   5.483
 5469SOL     OW16942   4.308   0.873   4.755
 5469SOL    HW116943   4.338   0.964   4.755
 5469SOL    HW216944   4.251   0.867   4.832
 5470SOL     OW16945   5.086   0.857   4.761
 5470SOL    HW116946   5.008   0.839   4.707
 5470SOL    HW216947   5.138   0.777   4.755
 5471SOL     OW16948   4.929   0.531   3.990
 5471SOL    HW116949   4.933   0.451   4.041
 5471SOL    HW216950   4.885   0.594   4.047
 5472SOL     OW16951   4.020   0.204   4.972
 5472SOL    HW116952   3.981   0.243   5.050
 5472SOL    HW216953   4.020   0.110   4.989
 5473SOL     OW16954   3.770   1.311   5.000
 5473SOL    HW116955   3.803   1.256   5.071
 5473SOL    HW216956   3.777   1.400   5.033
 5474SOL     OW16957   4.449   0.632   4.783
 5474SOL    HW116958   4.523   0.615   4.725
 5474SOL    HW216959   4.421   0.720   4.760
 5475SOL     OW16960   4.027   0.072   4.376
 5475SOL    HW116961   4.010   0.166   4.383
 5475SOL    HW216962   4.071   0.049   4.458
 5476SOL     OW16963   0.028   0.408   4.089
 5476SOL    HW116964   0.059   0.345   4.155
 5476SOL    HW216965   0.006   0.486   4.138
 5477SOL     OW16966   4.752   0.759   4.684
 5477SOL    HW116967   4.749   0.777   4.778
 5477SOL    HW216968   4.725   0.667   4.676
 5478SOL     OW16969   4.698   1.561   5.438
 5478SOL    HW116970   4.687   1.609   5.355
 5478SOL    HW216971   4.746   1.482   5.414
 5479SOL     OW16972   4.077   0.916   5.532
 5479SOL    HW116973   4.159   0.935   5.578
 5479SOL    HW216974   4.101   0.853   5.464
 5480SOL     OW16975   5.028   0.829   3.761
 5480SOL    HW116976   5.063   0.740   3.761
 5480SOL    HW216977   5.054   0.865   3.676
 5481SOL     OW16978   4.789   1.334   4.579
 5481SOL    HW116979   4.793   1.262   4.516
 5481SOL    HW216980   4.847   1.401   4.543
 5482SOL     OW16981   4.033   0.809   4.671
 5482SOL    HW116982   4.126   0.830   4.664
 5482SOL    HW216983   4.031   0.719   4.703
 5483SOL     OW16984   4.056   0.526   4.736
 5483SOL    HW116985   4.020   0.439   4.721
 5483SOL    HW216986   4.133   0.531   4.679
 5484SOL     OW16987   4.861   0.377   5.414
 5484SOL    HW116988   4.811   0.431   5.475
 5484SOL    HW216989   4.946   0.422   5.406
 5485SOL     OW16990   4.847   0.233   5.183
 5485SOL    HW116991   4.858   0.283   5.263
 5485SOL    HW216992   4.911   0.270   5.122
 5486SOL     OW16993   3.729   1.322   3.920
 5486SOL    HW116994   3.642   1.335   3.882
 5486SOL    HW216995   3.726   1.232   3.953
 5487SOL     OW16996   3.813   1.789   4.660
 5487SOL    HW116997   3.784   1.708   4.617
 5487SOL    HW216998   3.904   1.800   4.631
 5488SOL     OW16999   4.220   1.574   4.629
 5488SOL    HW117000   4.289   1.636   4.654
 5488SOL    HW217001   4.264   1.510   4.573
 5489SOL     OW17002   4.707   0.793   4.951
 5489SOL    HW117003   4.762   0.769   5.025
 5489SOL    HW217004   4.622   0.753   4.970
 5490SOL     OW17005   3.759   0.544   4.841
 5490SOL    HW117006   3.839   0.529   4.790
 5490SOL    HW217007   3.789   0.548   4.932
 5491SOL     OW17008   3.911   0.522   5.451
 5491SOL    HW117009   3.974   0.486   5.389
 5491SOL    HW217010   3.871   0.596   5.405
 5492SOL     OW17011   5.113   0.938   5.390
 5492SOL    HW117012   5.121   1.032   5.378
 5492SOL    HW217013   5.115   0.902   5.301
 5493SOL     OW17014   4.539   0.573   4.084
 5493SOL    HW117015   4.541   0.498   4.026
 5493SOL    HW217016   4.464   0.625   4.054
 5494SOL     OW17017   3.967   1.551   5.452
 5494SOL    HW117018   3.944   1.615   5.519
 5494SOL    HW217019   3.969   1.467   5.498
 5495SOL     OW17020   4.422   0.452   4.985
 5495SOL    HW117021   4.372   0.378   4.951
 5495SOL    HW217022   4.422   0.516   4.913
 5496SOL     OW17023   4.645   1.680   5.193
 5496SOL    HW117024   4.623   1.647   5.105
 5496SOL    HW217025   4.646   1.775   5.183
 5497SOL     OW17026   4.187   0.493   3.907
 5497SOL    HW117027   4.247   0.564   3.930
 5497SOL    HW217028   4.102   0.536   3.898
 5498SOL     OW17029   3.870   1.140   5.196
 5498SOL    HW117030   3.872   1.089   5.277
 5498SOL    HW217031   3.887   1.077   5.127
 5499SOL     OW17032   5.054   1.049   4.948
 5499SOL    HW117033   5.075   0.984   4.881
 5499SOL    HW217034   4.982   1.100   4.910
 5500SOL     OW17035   5.035   0.858   4.040
 5500SOL    HW117036   4.953   0.827   4.078
 5500SOL    HW217037   5.023   0.851   3.946
 5501SOL     OW17038   4.959   1.731   4.845
 5501SOL    HW117039   5.045   1.752   4.809
 5501SOL    HW217040   4.960   1.636   4.855
 5502SOL     OW17041   3.807   1.268   4.736
 5502SOL    HW117042   3.793   1.280   4.829
 5502SOL    HW217043   3.735   1.212   4.708
 5503SOL     OW17044   4.401   1.665   5.453
 5503SOL    HW117045   4.349   1.745   5.446
 5503SOL    HW217046   4.470   1.676   5.387
 5504SOL     OW17047   5.111   1.570   4.205
 5504SOL    HW117048   5.181   1.611   4.153
 5504SOL    HW217049   5.061   1.644   4.240
 5505SOL     OW17050   3.860   1.797   5.567
 5505SOL    HW117051   3.810   1.731   5.615
 5505SOL    HW217052   3.908   1.844   5.635
 5506SOL     OW17053   5.016   0.920   4.396
 5506SOL    HW117054   5.094   0.865   4.383
 5506SOL    HW217055   5.035   1.000   4.348
 5507SOL     OW17056   4.538   1.273   5.154
 5507SOL    HW117057   4.510   1.313   5.237
 5507SOL    HW217058   4.469   1.296   5.092
 5508SOL     OW17059   4.395   1.620   3.879
 5508SOL    HW117060   4.406   1.632   3.785
 5508SOL    HW217061   4.340   1.542   3.887
 5509SOL     OW17062   3.986   0.329   4.443
 5509SOL    HW117063   3.898   0.360   4.421
 5509SOL    HW217064   3.984   0.317   4.538
 5510SOL     OW17065   4.908   1.609   3.766
 5510SOL    HW117066   4.920   1.514   3.776
 5510SOL    HW217067   4.854   1.618   3.687
 5511SOL     OW17068   4.548   1.006   5.097
 5511SOL    HW117069   4.591   1.001   5.012
 5511SOL    HW217070   4.547   1.099   5.118
 5512SOL     OW17071   4.640   0.912   4.014
 5512SOL    HW117072   4.702   0.943   3.948
 5512SOL    HW217073   4.687   0.840   4.058
 5513SOL     OW17074   4.093   1.303   5.216
 5513SOL    HW117075   4.080   1.380   5.161
 5513SOL    HW217076   4.016   1.248   5.200
 5514SOL     OW17077   4.776   1.107   4.431
 5514SOL    HW117078   4.705   1.057   4.471
 5514SOL    HW217079   4.834   1.040   4.393
 5515SOL     OW17080   4.738   0.242   4.695
 5515SOL    HW117081   4.719   0.197   4.613
 5515SOL    HW217082   4.733   0.174   4.762
 5516SOL     OW17083   4.326   1.488   4.206
 5516SOL    HW117084   4.371   1.438   4.137
 5516SOL    HW217085   4.258   1.536   4.159
 5517SOL     OW17086   3.983   1.345   4.012
 5517SOL    HW117087   3.890   1.343   3.990
 5517SOL    HW217088   3.986   1.382   4.100
 5518SOL     OW17089   3.837   1.022   5.443
 5518SOL    HW117090   3.760   0.999   5.496
 5518SOL    HW217091   3.911   0.984   5.490
 5519SOL     OW17092   4.396   0.213   5.214
 5519SOL    HW117093   4.479   0.192   5.170
 5519SOL    HW217094   4.422   0.261   5.292
 5520SOL     OW17095   3.801   0.340   3.766
 5520SOL    HW117096   3.718   0.305   3.732
 5520SOL    HW217097   3.822   0.413   3.708
 5521SOL     OW17098   5.163   0.860   5.127
 5521SOL    HW117099   5.110   0.916   5.071
 5521SOL    HW217100   5.252   0.870   5.094
 5522SOL     OW17101   3.796   0.167   4.039
 5522SOL    HW117102   3.797   0.250   3.991
 5522SOL    HW217103   3.881   0.126   4.020
 5523SOL     OW17104   4.907   1.329   3.838
 5523SOL    HW117105   4.813   1.311   3.839
 5523SOL    HW217106   4.931   1.336   3.930
 5524SOL     OW17107   4.343   0.831   5.157
 5524SOL    HW117108   4.399   0.907   5.142
 5524SOL    HW217109   4.404   0.757   5.165
 5525SOL     OW17110   4.440   0.571   5.427
 5525SOL    HW117111   4.480   0.633   5.487
 5525SOL    HW217112   4.469   0.485   5.457
 5526SOL     OW17113   5.182   1.204   5.356
 5526SOL    HW117114   5.173   1.217   5.450
 5526SOL    HW217115   5.276   1.212   5.340
 5527SOL     OW17116   4.103   1.739   5.289
 5527SOL    HW117117   4.018   1.781   5.275
 5527SOL    HW217118   4.083   1.656   5.330
 5528SOL     OW17119   4.941   0.323   4.185
 5528SOL    HW117120   4.997   0.246   4.178
 5528SOL    HW217121   4.972   0.369   4.264
 5529SOL     OW17122   4.314   0.738   4.394
 5529SOL    HW117123   4.353   0.824   4.377
 5529SOL    HW217124   4.246   0.729   4.327
 5530SOL     OW17125   4.591   1.366   3.759
 5530SOL    HW117126   4.549   1.397   3.840
 5530SOL    HW217127   4.606   1.446   3.709
 5531SOL     OW17128   4.384   1.791   4.668
 5531SOL    HW117129   4.364   1.882   4.645
 5531SOL    HW217130   4.479   1.785   4.662
 5532SOL     OW17131   4.592   0.967   4.579
 5532SOL    HW117132   4.641   0.895   4.619
 5532SOL    HW217133   4.557   1.016   4.654
 5533SOL     OW17134   4.807   0.988   3.814
 5533SOL    HW117135   4.782   1.037   3.736
 5533SOL    HW217136   4.881   0.934   3.786
 5534SOL     OW17137   3.949   1.303   5.580
 5534SOL    HW117138   3.882   1.242   5.550
 5534SOL    HW217139   3.931   1.315   5.673
 5535SOL     OW17140   3.808   1.234   4.389
 5535SOL    HW117141   3.813   1.185   4.471
 5535SOL    HW217142   3.876   1.195   4.334
 5536SOL     OW17143   4.405   1.402   5.352
 5536SOL    HW117144   4.325   1.360   5.383
 5536SOL    HW217145   4.401   1.491   5.388
 5537SOL     OW17146   4.154   0.436   4.248
 5537SOL    HW117147   4.186   0.363   4.194
 5537SOL    HW217148   4.107   0.393   4.320
 5538SOL     OW17149   0.095   1.520   4.823
 5538SOL    HW117150   0.027   1.497   4.760
 5538SOL    HW217151   0.102   1.445   4.881
 5539SOL     OW17152   4.053   0.556   5.014
 5539SOL    HW117153   4.108   0.501   5.070
 5539SOL    HW217154   4.073   0.528   4.925
 5540SOL     OW17155   4.552   1.577   4.401
 5540SOL    HW117156   4.540   1.631   4.323
 5540SOL    HW217157   4.474   1.521   4.403
 5541SOL     OW17158   5.150   0.216   4.844
 5541SOL    HW117159   5.159   0.133   4.892
 5541SOL    HW217160   5.104   0.274   4.905
 5542SOL     OW17161   4.725   0.020   4.863
 5542SOL    HW117162   4.674   5.251   4.821
 5542SOL    HW217163   4.812   5.282   4.875
 5543SOL     OW17164   4.494   1.333   4.039
 5543SOL    HW117165   4.464   1.242   4.046
 5543SOL    HW217166   4.577   1.333   4.087
 5544SOL     OW17167   4.344   1.556   5.009
 5544SOL    HW117168   4.346   1.639   5.058
 5544SOL    HW217169   4.431   1.549   4.971
 5545SOL     OW17170   5.035   0.034   3.883
 5545SOL    HW117171   5.117   0.027   3.835
 5545SOL    HW217172   4.984   5.258   3.856
 5546SOL     OW17173   5.028   0.461   4.409
 5546SOL    HW117174   4.972   0.538   4.414
 5546SOL    HW217175   5.016   0.418   4.494
 5547SOL     OW17176   5.295   0.214   4.607
 5547SOL    HW117177   5.237   0.215   4.683
 5547SOL    HW217178   5.276   0.295   4.561
 5548SOL     OW17179   3.767   1.071   4.030
 5548SOL    HW117180   3.861   1.063   4.013
 5548SOL    HW217181   3.739   0.982   4.053
 5549SOL     OW17182   4.604   1.650   4.070
 5549SOL    HW117183   4.533   1.635   4.007
 5549SOL    HW217184   4.577   1.727   4.119
 5550SOL     OW17185   3.952   0.626   5.709
 5550SOL    HW117186   3.864   0.622   5.745
 5550SOL    HW217187   3.942   0.599   5.618
 5551SOL     OW17188   3.942   0.284   6.579
 5551SOL    HW117189   3.971   0.249   6.663
 5551SOL    HW217190   3.857   0.243   6.563
 5552SOL     OW17191   3.728   0.386   6.224
 5552SOL    HW117192   3.643   0.407   6.264
 5552SOL    HW217193   3.710   0.309   6.171
 5553SOL     OW17194   4.291   1.288   6.761
 5553SOL    HW117195   4.203   1.291   6.723
 5553SOL    HW217196   4.306   1.376   6.794
 5554SOL     OW17197   5.286   1.535   6.292
 5554SOL    HW117198   5.246   1.493   6.368
 5554SOL    HW217199   5.220   1.527   6.223
 5555SOL     OW17200   4.860   0.698   6.287
 5555SOL    HW117201   4.909   0.780   6.277
 5555SOL    HW217202   4.810   0.710   6.367
 5556SOL     OW17203   4.479   1.142   6.627
 5556SOL    HW117204   4.410   1.177   6.684
 5556SOL    HW217205   4.514   1.219   6.582
 5557SOL     OW17206   4.592   0.778   7.408
 5557SOL    HW117207   4.569   0.853   7.463
 5557SOL    HW217208   4.616   0.817   7.324
 5558SOL     OW17209   4.411   1.003   6.233
 5558SOL    HW117210   4.475   0.991   6.303
 5558SOL    HW217211   4.341   1.055   6.273
 5559SOL     OW17212   4.435   1.151   7.398
 5559SOL    HW117213   4.482   1.230   7.425
 5559SOL    HW217214   4.352   1.184   7.362
 5560SOL     OW17215   4.055   1.425   6.654
 5560SOL    HW117216   3.982   1.388   6.604
 5560SOL    HW217217   4.104   1.476   6.589
 5561SOL     OW17218   5.161   1.480   6.938
 5561SOL    HW117219   5.206   1.561   6.963
 5561SOL    HW217220   5.104   1.460   7.012
 5562SOL     OW17221   4.168   0.398   7.074
 5562SOL    HW117222   4.244   0.340   7.072
 5562SOL    HW217223   4.093   0.341   7.087
 5563SOL     OW17224   3.943   1.714   6.058
 5563SOL    HW117225   3.965   1.790   6.112
 5563SOL    HW217226   4.016   1.706   5.997
 5564SOL     OW17227   4.859   1.339   7.278
 5564SOL    HW117228   4.898   1.337   7.365
 5564SOL    HW217229   4.807   1.259   7.273
 5565SOL     OW17230   3.954   1.441   6.121
 5565SOL    HW117231   3.937   1.535   6.125
 5565SOL    HW217232   3.894   1.403   6.185
 5566SOL     OW17233   3.982   1.090   6.477
 5566SOL    HW117234   3.978   1.004   6.518
 5566SOL    HW217235   3.924   1.144   6.531
 5567SOL     OW17236   4.333   1.793   7.012
 5567SOL    HW117237   4.253   1.774   7.061
 5567SOL    HW217238   4.358   1.881   7.039
 5568SOL     OW17239   4.310   0.981   5.720
 5568SOL    HW117240   4.355   1.031   5.652
 5568SOL    HW217241   4.349   1.012   5.802
 5569SOL     OW17242   5.251   0.144   7.064
 5569SOL    HW117243   5.296   0.225   7.045
 5569SOL    HW217244   5.275   0.124   7.155
 5570SOL     OW17245   3.839   0.653   6.145
 5570SOL    HW117246   3.811   0.564   6.167
 5570SOL    HW217247   3.831   0.701   6.228
 5571SOL     OW17248   3.756   1.595   5.710
 5571SOL    HW117249   3.738   1.503   5.729
 5571SOL    HW217250   3.732   1.642   5.789
 5572SOL     OW17251   0.113   0.940   6.161
 5572SOL    HW117252   0.200   0.904   6.177
 5572SOL    HW217253   0.128   1.026   6.122
 5573SOL     OW17254   3.846   0.743   7.171
 5573SOL    HW117255   3.938   0.770   7.179
 5573SOL    HW217256   3.797   0.825   7.179
 5574SOL     OW17257   4.337   1.385   6.321
 5574SOL    HW117258   4.291   1.302   6.331
 5574SOL    HW217259   4.321   1.412   6.231
 5575SOL     OW17260   5.007   1.236   7.010
 5575SOL    HW117261   5.040   1.170   6.950
 5575SOL    HW217262   5.062   1.229   7.088
 5576SOL     OW17263   4.535   0.027   6.115
 5576SOL    HW117264   4.563   0.114   6.089
 5576SOL    HW217265   4.439   0.029   6.108
 5577SOL     OW17266   3.914   0.966   6.858
 5577SOL    HW117267   3.999   0.924   6.842
 5577SOL    HW217268   3.851   0.912   6.810
 5578SOL     OW17269   4.898   1.808   7.209
 5578SOL    HW117270   4.918   1.866   7.136
 5578SOL    HW217271   4.920   1.720   7.177
 5579SOL     OW17272   4.049   0.263   7.402
 5579SOL    HW117273   4.101   0.340   7.425
 5579SOL    HW217274   3.962   0.282   7.438
 5580SOL     OW17275   5.169   1.435   6.522
 5580SOL    HW117276   5.106   1.442   6.595
 5580SOL    HW217277   5.162   1.344   6.494
 5581SOL     OW17278   4.319   0.722   5.852
 5581SOL    HW117279   4.323   0.803   5.802
 5581SOL    HW217280   4.253   0.739   5.920
 5582SOL     OW17281   4.997   0.329   6.504
 5582SOL    HW117282   4.907   0.305   6.528
 5582SOL    HW217283   5.049   0.301   6.579
 5583SOL     OW17284   4.518   0.618   7.036
 5583SOL    HW117285   4.490   0.596   7.125
 5583SOL    HW217286   4.476   0.552   6.981
 5584SOL     OW17287   5.117   0.488   7.265
 5584SOL    HW117288   5.118   0.522   7.354
 5584SOL    HW217289   5.181   0.417   7.267
 5585SOL     OW17290   4.679   0.888   7.168
 5585SOL    HW117291   4.732   0.816   7.132
 5585SOL    HW217292   4.631   0.922   7.093
 5586SOL     OW17293   4.718   0.422   6.817
 5586SOL    HW117294   4.633   0.437   6.859
 5586SOL    HW217295   4.698   0.367   6.741
 5587SOL     OW17296   4.775   0.697   6.011
 5587SOL    HW117297   4.790   0.691   6.106
 5587SOL    HW217298   4.692   0.652   5.997
 5588SOL     OW17299   3.812   0.821   6.363
 5588SOL    HW117300   3.893   0.814   6.413
 5588SOL    HW217301   3.769   0.899   6.397
 5589SOL     OW17302   3.851   1.849   7.164
 5589SOL    HW117303   3.851   1.827   7.258
 5589SOL    HW217304   3.759   1.839   7.138
 5590SOL     OW17305   4.599   0.362   5.776
 5590SOL    HW117306   4.635   0.419   5.708
 5590SOL    HW217307   4.651   0.282   5.772
 5591SOL     OW17308   5.092   1.147   6.133
 5591SOL    HW117309   5.180   1.148   6.095
 5591SOL    HW217310   5.041   1.206   6.078
 5592SOL     OW17311   4.250   0.202   6.468
 5592SOL    HW117312   4.272   0.217   6.560
 5592SOL    HW217313   4.272   0.284   6.425
 5593SOL     OW17314   4.730   1.443   6.058
 5593SOL    HW117315   4.692   1.516   6.009
 5593SOL    HW217316   4.712   1.465   6.150
 5594SOL     OW17317   4.078   1.809   6.448
 5594SOL    HW117318   4.122   1.724   6.456
 5594SOL    HW217319   4.147   1.873   6.466
 5595SOL     OW17320   4.941   1.542   7.104
 5595SOL    HW117321   4.927   1.469   7.165
 5595SOL    HW217322   4.882   1.523   7.031
 5596SOL     OW17323   4.044   0.957   5.836
 5596SOL    HW117324   4.126   0.976   5.790
 5596SOL    HW217325   4.013   0.875   5.798
 5597SOL     OW17326   4.190   1.263   7.323
 5597SOL    HW117327   4.162   1.268   7.232
 5597SOL    HW217328   4.107   1.262   7.373
 5598SOL     OW17329   4.832   1.775   5.823
 5598SOL    HW117330   4.760   1.730   5.867
 5598SOL    HW217331   4.857   1.715   5.752
 5599SOL     OW17332   3.921   0.278   7.088
 5599SOL    HW117333   3.842   0.332   7.083
 5599SOL    HW217334   3.911   0.228   7.169
 5600SOL     OW17335   4.190   1.737   5.907
 5600SOL    HW117336   4.232   1.794   5.971
 5600SOL    HW217337   4.261   1.706   5.851
 5601SOL     OW17338   5.098   0.099   6.006
 5601SOL    HW117339   5.084   0.082   5.913
 5601SOL    HW217340   5.192   0.118   6.013
 5602SOL     OW17341   3.979   1.791   6.818
 5602SOL    HW117342   4.031   1.726   6.864
 5602SOL    HW217343   3.970   1.757   6.729
 5603SOL     OW17344   4.662   1.698   6.485
 5603SOL    HW117345   4.741   1.648   6.503
 5603SOL    HW217346   4.617   1.649   6.416
 5604SOL     OW17347   4.117   0.696   6.062
 5604SOL    HW117348   4.138   0.603   6.073
 5604SOL    HW217349   4.023   0.702   6.080
 5605SOL     OW17350   4.346   0.133   5.693
 5605SOL    HW117351   4.418   0.073   5.713
 5605SOL    HW217352   4.297   0.091   5.623
 5606SOL     OW17353   4.507   0.310   7.350
 5606SOL    HW117354   4.572   0.240   7.351
 5606SOL    HW217355   4.464   0.304   7.435
 5607SOL     OW17356   4.599   1.522   6.779
 5607SOL    HW117357   4.584   1.486   6.692
 5607SOL    HW217358   4.670   1.468   6.816
 5608SOL     OW17359   5.061   0.592   7.017
 5608SOL    HW117360   5.090   0.562   7.102
 5608SOL    HW217361   5.099   0.679   7.007
 5609SOL     OW17362   4.539   1.395   6.525
 5609SOL    HW117363   4.623   1.383   6.482
 5609SOL    HW217364   4.474   1.396   6.454
 5610SOL     OW17365   4.651   0.511   6.489
 5610SOL    HW117366   4.628   0.501   6.396
 5610SOL    HW217367   4.682   0.424   6.515
 5611SOL     OW17368   4.266   0.062   6.094
 5611SOL    HW117369   4.180   0.061   6.137
 5611SOL    HW217370   4.259   0.132   6.029
 5612SOL     OW17371   5.136   1.180   5.630
 5612SOL    HW117372   5.145   1.102   5.685
 5612SOL    HW217373   5.049   1.214   5.650
 5613SOL     OW17374   4.026   0.062   5.777
 5613SOL    HW117375   4.085   0.131   5.747
 5613SOL    HW217376   4.082   5.285   5.787
 5614SOL     OW17377   4.661   0.262   6.049
 5614SOL    HW117378   4.632   0.296   5.964
 5614SOL    HW217379   4.756   0.276   6.049
 5615SOL     OW17380   4.802   0.681   7.047
 5615SOL    HW117381   4.733   0.615   7.049
 5615SOL    HW217382   4.883   0.630   7.036
 5616SOL     OW17383   4.940   1.570   6.380
 5616SOL    HW117384   4.962   1.638   6.315
 5616SOL    HW217385   5.021   1.560   6.431
 5617SOL     OW17386   4.193   1.149   6.319
 5617SOL    HW117387   4.124   1.130   6.383
 5617SOL    HW217388   4.153   1.133   6.234
 5618SOL     OW17389   4.996   1.794   6.191
 5618SOL    HW117390   5.038   1.855   6.131
 5618SOL    HW217391   4.929   1.846   6.236
 5619SOL     OW17392   4.753   0.550   5.605
 5619SOL    HW117393   4.705   0.632   5.588
 5619SOL    HW217394   4.806   0.570   5.682
 5620SOL     OW17395   3.803   0.553   6.979
 5620SOL    HW117396   3.894   0.553   6.951
 5620SOL    HW217397   3.797   0.624   7.043
 5621SOL     OW17398   4.280   0.238   6.744
 5621SOL    HW117399   4.312   0.153   6.773
 5621SOL    HW217400   4.188   0.239   6.770
 5622SOL     OW17401   4.593   0.464   6.226
 5622SOL    HW117402   4.543   0.516   6.163
 5622SOL    HW217403   4.613   0.383   6.180
 5623SOL     OW17404   4.699   0.063   6.349
 5623SOL    HW117405   4.635   0.055   6.279
 5623SOL    HW217406   4.713   5.273   6.379
 5624SOL     OW17407   5.157   1.176   6.437
 5624SOL    HW117408   5.101   1.100   6.450
 5624SOL    HW217409   5.168   1.181   6.342
 5625SOL     OW17410   4.215   1.418   5.743
 5625SOL    HW117411   4.140   1.389   5.795
 5625SOL    HW217412   4.200   1.379   5.656
 5626SOL     OW17413   5.128   0.559   5.667
 5626SOL    HW117414   5.051   0.551   5.725
 5626SOL    HW217415   5.202   0.532   5.722
 5627SOL     OW17416   4.248   0.265   5.908
 5627SOL    HW117417   4.291   0.215   5.839
 5627SOL    HW217418   4.227   0.349   5.867
 5628SOL     OW17419   4.780   1.354   6.919
 5628SOL    HW117420   4.705   1.323   6.970
 5628SOL    HW217421   4.856   1.312   6.960
 5629SOL     OW17422   0.007   1.605   7.202
 5629SOL    HW117423   0.040   1.609   7.113
 5629SOL    HW217424   0.083   1.585   7.256
 5630SOL     OW17425   4.853   1.203   6.692
 5630SOL    HW117426   4.792   1.239   6.757
 5630SOL    HW217427   4.819   1.232   6.608
 5631SOL     OW17428   4.624   0.105   6.973
 5631SOL    HW117429   4.658   0.070   6.890
 5631SOL    HW217430   4.700   0.148   7.013
 5632SOL     OW17431   4.709   1.112   7.313
 5632SOL    HW117432   4.617   1.131   7.331
 5632SOL    HW217433   4.706   1.036   7.255
 5633SOL     OW17434   4.433   1.062   5.957
 5633SOL    HW117435   4.418   1.045   6.050
 5633SOL    HW217436   4.508   1.008   5.934
 5634SOL     OW17437   4.143   0.815   6.837
 5634SOL    HW117438   4.211   0.824   6.904
 5634SOL    HW217439   4.107   0.727   6.851
 5635SOL     OW17440   4.991   0.380   6.856
 5635SOL    HW117441   5.024   0.459   6.900
 5635SOL    HW217442   4.901   0.401   6.834
 5636SOL     OW17443   3.794   1.573   6.939
 5636SOL    HW117444   3.765   1.646   6.885
 5636SOL    HW217445   3.890   1.577   6.933
 5637SOL     OW17446   4.073   1.109   6.076
 5637SOL    HW117447   4.078   1.183   6.015
 5637SOL    HW217448   4.070   1.032   6.021
 5638SOL     OW17449   4.277   0.538   6.447
 5638SOL    HW117450   4.293   0.596   6.372
 5638SOL    HW217451   4.343   0.564   6.511
 5639SOL     OW17452   4.972   1.349   5.973
 5639SOL    HW117453   5.026   1.422   6.004
 5639SOL    HW217454   4.884   1.369   6.007
 5640SOL     OW17455   4.995   1.456   6.726
 5640SOL    HW117456   5.049   1.458   6.804
 5640SOL    HW217457   4.940   1.378   6.736
 5641SOL     OW17458   4.071   1.527   6.901
 5641SOL    HW117459   4.058   1.484   6.816
 5641SOL    HW217460   4.165   1.539   6.908
 5642SOL     OW17461   4.138   0.745   7.188
 5642SOL    HW117462   4.200   0.790   7.130
 5642SOL    HW217463   4.179   0.660   7.205
 5643SOL     OW17464   4.750   0.117   7.338
 5643SOL    HW117465   4.796   0.198   7.317
 5643SOL    HW217466   4.794   0.050   7.286
 5644SOL     OW17467   4.203   0.058   7.322
 5644SOL    HW117468   4.144   5.293   7.284
 5644SOL    HW217469   4.146   0.131   7.346
 5645SOL     OW17470   4.308   0.873   6.618
 5645SOL    HW117471   4.337   0.964   6.616
 5645SOL    HW217472   4.251   0.867   6.694
 5646SOL     OW17473   5.086   0.857   6.623
 5646SOL    HW117474   5.008   0.839   6.569
 5646SOL    HW217475   5.138   0.777   6.617
 5647SOL     OW17476   4.929   0.531   5.852
 5647SOL    HW117477   4.933   0.451   5.903
 5647SOL    HW217478   4.885   0.594   5.909
 5648SOL     OW17479   4.020   0.204   6.833
 5648SOL    HW117480   3.981   0.243   6.911
 5648SOL    HW217481   4.020   0.109   6.851
 5649SOL     OW17482   3.770   1.311   6.862
 5649SOL    HW117483   3.803   1.256   6.934
 5649SOL    HW217484   3.777   1.400   6.895
 5650SOL     OW17485   4.450   0.632   6.646
 5650SOL    HW117486   4.523   0.615   6.587
 5650SOL    HW217487   4.421   0.720   6.623
 5651SOL     OW17488   4.027   0.072   6.238
 5651SOL    HW117489   4.009   0.166   6.245
 5651SOL    HW217490   4.070   0.050   6.320
 5652SOL     OW17491   0.028   0.408   5.951
 5652SOL    HW117492   0.059   0.346   6.017
 5652SOL    HW217493   0.006   0.486   6.000
 5653SOL     OW17494   4.752   0.759   6.546
 5653SOL    HW117495   4.749   0.777   6.640
 5653SOL    HW217496   4.725   0.667   6.538
 5654SOL     OW17497   4.699   1.562   7.300
 5654SOL    HW117498   4.687   1.609   7.218
 5654SOL    HW217499   4.746   1.482   7.275
 5655SOL     OW17500   4.077   0.914   7.396
 5655SOL    HW117501   4.161   0.935   7.439
 5655SOL    HW217502   4.101   0.852   7.327
 5656SOL     OW17503   5.028   0.829   5.623
 5656SOL    HW117504   5.063   0.740   5.623
 5656SOL    HW217505   5.054   0.865   5.538
 5657SOL     OW17506   4.789   1.334   6.441
 5657SOL    HW117507   4.793   1.262   6.378
 5657SOL    HW217508   4.847   1.401   6.405
 5658SOL     OW17509   4.033   0.809   6.534
 5658SOL    HW117510   4.126   0.830   6.526
 5658SOL    HW217511   4.031   0.719   6.565
 5659SOL     OW17512   4.056   0.526   6.599
 5659SOL    HW117513   4.020   0.439   6.583
 5659SOL    HW217514   4.133   0.530   6.541
 5660SOL     OW17515   4.862   0.377   7.275
 5660SOL    HW117516   4.812   0.431   7.336
 5660SOL    HW217517   4.946   0.422   7.266
 5661SOL     OW17518   4.848   0.232   7.044
 5661SOL    HW117519   4.858   0.283   7.125
 5661SOL    HW217520   4.911   0.271   6.984
 5662SOL     OW17521   3.729   1.321   5.781
 5662SOL    HW117522   3.642   1.335   5.743
 5662SOL    HW217523   3.726   1.232   5.815
 5663SOL     OW17524   3.814   1.787   6.524
 5663SOL    HW117525   3.784   1.707   6.480
 5663SOL    HW217526   3.904   1.799   6.493
 5664SOL     OW17527   4.220   1.574   6.492
 5664SOL    HW117528   4.289   1.636   6.516
 5664SOL    HW217529   4.265   1.510   6.435
 5665SOL     OW17530   4.707   0.793   6.813
 5665SOL    HW117531   4.762   0.769   6.887
 5665SOL    HW217532   4.622   0.754   6.832
 5666SOL     OW17533   3.759   0.543   6.703
 5666SOL    HW117534   3.839   0.529   6.652
 5666SOL    HW217535   3.789   0.548   6.794
 5667SOL     OW17536   3.912   0.521   7.313
 5667SOL    HW117537   3.974   0.486   7.249
 5667SOL    HW217538   3.871   0.595   7.268
 5668SOL     OW17539   5.111   0.937   7.253
 5668SOL    HW117540   5.120   1.032   7.241
 5668SOL    HW217541   5.114   0.902   7.164
 5669SOL     OW17542   4.539   0.573   5.946
 5669SOL    HW117543   4.541   0.498   5.888
 5669SOL    HW217544   4.464   0.625   5.916
 5670SOL     OW17545   3.967   1.551   7.314
 5670SOL    HW117546   3.945   1.616   7.381
 5670SOL    HW217547   3.969   1.468   7.360
 5671SOL     OW17548   4.422   0.452   6.847
 5671SOL    HW117549   4.372   0.378   6.813
 5671SOL    HW217550   4.422   0.516   6.775
 5672SOL     OW17551   4.646   1.680   7.054
 5672SOL    HW117552   4.623   1.648   6.967
 5672SOL    HW217553   4.646   1.775   7.045
 5673SOL     OW17554   4.187   0.493   5.769
 5673SOL    HW117555   4.247   0.564   5.793
 5673SOL    HW217556   4.102   0.535   5.760
 5674SOL     OW17557   3.870   1.140   7.059
 5674SOL    HW117558   3.872   1.089   7.139
 5674SOL    HW217559   3.887   1.077   6.989
 5675SOL     OW17560   5.054   1.049   6.810
 5675SOL    HW117561   5.075   0.984   6.743
 5675SOL    HW217562   4.982   1.100   6.773
 5676SOL     OW17563   5.036   0.858   5.902
 5676SOL    HW117564   4.953   0.827   5.940
 5676SOL    HW217565   5.023   0.851   5.808
 5677SOL     OW17566   4.960   1.731   6.707
 5677SOL    HW117567   5.046   1.752   6.670
 5677SOL    HW217568   4.960   1.636   6.717
 5678SOL     OW17569   3.808   1.267   6.598
 5678SOL    HW117570   3.794   1.279   6.692
 5678SOL    HW217571   3.735   1.212   6.570
 5679SOL     OW17572   4.400   1.664   7.313
 5679SOL    HW117573   4.350   1.745   7.309
 5679SOL    HW217574   4.470   1.676   7.248
 5680SOL     OW17575   5.111   1.570   6.067
 5680SOL    HW117576   5.181   1.611   6.015
 5680SOL    HW217577   5.061   1.644   6.102
 5681SOL     OW17578   3.860   1.796   7.430
 5681SOL    HW117579   3.809   1.731   7.479
 5681SOL    HW217580   3.908   1.845   7.497
 5682SOL     OW17581   5.016   0.920   6.258
 5682SOL    HW117582   5.094   0.865   6.245
 5682SOL    HW217583   5.035   1.000   6.210
 5683SOL     OW17584   4.538   1.273   7.016
 5683SOL    HW117585   4.509   1.313   7.099
 5683SOL    HW217586   4.469   1.296   6.954
 5684SOL     OW17587   4.395   1.620   5.741
 5684SOL    HW117588   4.406   1.632   5.647
 5684SOL    HW217589   4.340   1.542   5.749
 5685SOL     OW17590   3.986   0.329   6.305
 5685SOL    HW117591   3.898   0.360   6.283
 5685SOL    HW217592   3.984   0.317   6.400
 5686SOL     OW17593   4.908   1.609   5.628
 5686SOL    HW117594   4.920   1.515   5.638
 5686SOL    HW217595   4.854   1.618   5.549
 5687SOL     OW17596   4.548   1.006   6.959
 5687SOL    HW117597   4.591   1.001   6.874
 5687SOL    HW217598   4.547   1.099   6.980
 5688SOL     OW17599   4.641   0.912   5.876
 5688SOL    HW117600   4.702   0.943   5.810
 5688SOL    HW217601   4.687   0.840   5.920
 5689SOL     OW17602   4.093   1.303   7.078
 5689SOL    HW117603   4.080   1.380   7.023
 5689SOL    HW217604   4.016   1.248   7.061
 5690SOL     OW17605   4.776   1.107   6.293
 5690SOL    HW117606   4.705   1.057   6.333
 5690SOL    HW217607   4.834   1.040   6.255
 5691SOL     OW17608   4.738   0.242   6.557
 5691SOL    HW117609   4.719   0.197   6.475
 5691SOL    HW217610   4.733   0.174   6.624
 5692SOL     OW17611   4.327   1.488   6.068
 5692SOL    HW117612   4.371   1.438   5.999
 5692SOL    HW217613   4.257   1.535   6.022
 5693SOL     OW17614   3.983   1.345   5.874
 5693SOL    HW117615   3.890   1.343   5.852
 5693SOL    HW217616   3.985   1.382   5.963
 5694SOL     OW17617   3.837   1.021   7.305
 5694SOL    HW117618   3.760   0.999   7.358
 5694SOL    HW217619   3.911   0.983   7.353
 5695SOL     OW17620   4.396   0.213   7.076
 5695SOL    HW117621   4.479   0.192   7.033
 5695SOL    HW217622   4.422   0.260   7.155
 5696SOL     OW17623   3.801   0.339   5.627
 5696SOL    HW117624   3.718   0.306   5.594
 5696SOL    HW217625   3.822   0.413   5.570
 5697SOL     OW17626   5.163   0.860   6.989
 5697SOL    HW117627   5.110   0.916   6.933
 5697SOL    HW217628   5.252   0.870   6.956
 5698SOL     OW17629   3.796   0.167   5.901
 5698SOL    HW117630   3.797   0.250   5.853
 5698SOL    HW217631   3.881   0.126   5.881
 5699SOL     OW17632   4.907   1.329   5.700
 5699SOL    HW117633   4.813   1.311   5.701
 5699SOL    HW217634   4.931   1.336   5.792
 5700SOL     OW17635   4.343   0.831   7.019
 5700SOL    HW117636   4.399   0.907   7.004
 5700SOL    HW217637   4.404   0.757   7.027
 5701SOL     OW17638   4.439   0.572   7.289
 5701SOL    HW117639   4.480   0.632   7.350
 5701SOL    HW217640   4.468   0.485   7.318
 5702SOL     OW17641   5.182   1.203   7.217
 5702SOL    HW117642   5.172   1.215   7.311
 5702SOL    HW217643   5.276   1.213   7.201
 5703SOL     OW17644   4.103   1.740   7.150
 5703SOL    HW117645   4.018   1.781   7.137
 5703SOL    HW217646   4.083   1.656   7.192
 5704SOL     OW17647   4.941   0.323   6.047
 5704SOL    HW117648   4.997   0.246   6.040
 5704SOL    HW217649   4.972   0.369   6.126
 5705SOL     OW17650   4.314   0.738   6.256
 5705SOL    HW117651   4.353   0.824   6.239
 5705SOL    HW217652   4.246   0.729   6.189
 5706SOL     OW17653   4.591   1.366   5.621
 5706SOL    HW117654   4.549   1.396   5.702
 5706SOL    HW217655   4.606   1.446   5.571
 5707SOL     OW17656   4.384   1.791   6.530
 5707SOL    HW117657   4.364   1.882   6.507
 5707SOL    HW217658   4.479   1.785   6.524
 5708SOL     OW17659   4.592   0.967   6.441
 5708SOL    HW117660   4.641   0.895   6.481
 5708SOL    HW217661   4.556   1.016   6.516
 5709SOL     OW17662   4.807   0.988   5.676
 5709SOL    HW117663   4.782   1.037   5.598
 5709SOL    HW217664   4.881   0.934   5.648
 5710SOL     OW17665   3.949   1.303   7.443
 5710SOL    HW117666   3.882   1.243   7.412
 5710SOL    HW217667   3.929   1.317   7.535
 5711SOL     OW17668   3.808   1.234   6.251
 5711SOL    HW117669   3.813   1.185   6.333
 5711SOL    HW217670   3.876   1.195   6.196
 5712SOL     OW17671   4.405   1.401   7.214
 5712SOL    HW117672   4.324   1.360   7.245
 5712SOL    HW217673   4.401   1.490   7.250
 5713SOL     OW17674   4.154   0.436   6.110
 5713SOL    HW117675   4.186   0.363   6.057
 5713SOL    HW217676   4.107   0.393   6.182
 5714SOL     OW17677   0.095   1.520   6.686
 5714SOL    HW117678   0.027   1.497   6.622
 5714SOL    HW217679   0.101   1.445   6.744
 5715SOL     OW17680   4.053   0.556   6.877
 5715SOL    HW117681   4.109   0.501   6.931
 5715SOL    HW217682   4.073   0.529   6.787
 5716SOL     OW17683   4.552   1.577   6.263
 5716SOL    HW117684   4.540   1.631   6.185
 5716SOL    HW217685   4.475   1.521   6.265
 5717SOL     OW17686   5.150   0.216   6.706
 5717SOL    HW117687   5.158   0.133   6.754
 5717SOL    HW217688   5.104   0.274   6.767
 5718SOL     OW17689   4.725   0.020   6.725
 5718SOL    HW117690   4.674   5.251   6.683
 5718SOL    HW217691   4.812   5.282   6.737
 5719SOL     OW17692   4.495   1.333   5.901
 5719SOL    HW117693   4.464   1.242   5.907
 5719SOL    HW217694   4.577   1.333   5.950
 5720SOL     OW17695   4.344   1.556   6.871
 5720SOL    HW117696   4.346   1.638   6.920
 5720SOL    HW217697   4.431   1.549   6.833
 5721SOL     OW17698   5.035   0.034   5.745
 5721SOL    HW117699   5.117   0.027   5.697
 5721SOL    HW217700   4.984   5.258   5.718
 5722SOL     OW17701   5.028   0.461   6.271
 5722SOL    HW117702   4.972   0.538   6.276
 5722SOL    HW217703   5.016   0.418   6.356
 5723SOL     OW17704   5.295   0.214   6.469
 5723SOL    HW117705   5.237   0.215   6.545
 5723SOL    HW217706   5.276   0.295   6.422
 5724SOL     OW17707   3.768   1.071   5.892
 5724SOL    HW117708   3.861   1.062   5.874
 5724SOL    HW217709   3.739   0.982   5.915
 5725SOL     OW17710   4.604   1.650   5.932
 5725SOL    HW117711   4.533   1.635   5.869
 5725SOL    HW217712   4.577   1.727   5.981
 5726SOL     OW17713   3.951   0.620   7.572
 5726SOL    HW117714   3.861   0.628   7.604
 5726SOL    HW217715   3.942   0.597   7.479
 5727SOL     OW17716   3.945   1.718   7.919
 5727SOL    HW117717   3.974   1.759   8.000
 5727SOL    HW217718   4.023   1.715   7.864
 5728SOL     OW17719   3.941   1.438   7.991
 5728SOL    HW117720   3.926   1.533   7.990
 5728SOL    HW217721   3.881   1.405   8.058
 5729SOL     OW17722   4.311   0.982   7.579
 5729SOL    HW117723   4.354   1.033   7.511
 5729SOL    HW217724   4.349   1.014   7.661
 5730SOL     OW17725   3.754   1.599   7.578
 5730SOL    HW117726   3.738   1.506   7.593
 5730SOL    HW217727   3.727   1.641   7.659
 5731SOL     OW17728   0.118   0.925   8.015
 5731SOL    HW117729   0.211   0.917   8.035
 5731SOL    HW217730   0.104   1.018   7.999
 5732SOL     OW17731   4.534   5.289   7.946
 5732SOL    HW117732   4.576   0.074   7.930
 5732SOL    HW217733   4.440   0.008   7.942
 5733SOL     OW17734   4.315   0.725   7.709
 5733SOL    HW117735   4.317   0.807   7.659
 5733SOL    HW217736   4.254   0.742   7.781
 5734SOL     OW17737   3.785   0.864   0.089
 5734SOL    HW117738   3.848   0.797   0.116
 5734SOL    HW217739   3.780   0.924   0.163
 5735SOL     OW17740   4.590   0.357   7.634
 5735SOL    HW117741   4.631   0.417   7.571
 5735SOL    HW217742   4.649   0.282   7.637
 5736SOL     OW17743   4.047   0.956   7.698
 5736SOL    HW117744   4.126   0.973   7.647
 5736SOL    HW217745   4.010   0.878   7.658
 5737SOL     OW17746   4.837   1.776   7.684
 5737SOL    HW117747   4.763   1.733   7.727
 5737SOL    HW217748   4.861   1.716   7.614
 5738SOL     OW17749   4.191   1.738   7.769
 5738SOL    HW117750   4.239   1.791   7.833
 5738SOL    HW217751   4.258   1.702   7.711
 5739SOL     OW17752   5.114   0.113   7.872
 5739SOL    HW117753   5.086   0.089   7.784
 5739SOL    HW217754   5.209   0.100   7.871
 5740SOL     OW17755   4.115   0.695   7.918
 5740SOL    HW117756   4.120   0.600   7.927
 5740SOL    HW217757   4.025   0.717   7.940
 5741SOL     OW17758   4.341   0.132   7.560
 5741SOL    HW117759   4.420   0.079   7.574
 5741SOL    HW217760   4.297   0.088   7.487
 5742SOL     OW17761   4.271   0.064   7.952
 5742SOL    HW117762   4.179   0.047   7.973
 5742SOL    HW217763   4.269   0.136   7.889
 5743SOL     OW17764   5.136   1.179   7.488
 5743SOL    HW117765   5.152   1.109   7.552
 5743SOL    HW217766   5.050   1.212   7.511
 5744SOL     OW17767   4.029   0.073   7.660
 5744SOL    HW117768   4.080   0.130   7.603
 5744SOL    HW217769   4.077   5.290   7.660
 5745SOL     OW17770   4.673   0.230   7.911
 5745SOL    HW117771   4.620   0.293   7.863
 5745SOL    HW217772   4.759   0.272   7.919
 5746SOL     OW17773   4.164   1.149   0.100
 5746SOL    HW117774   4.089   1.187   0.145
 5746SOL    HW217775   4.133   1.136   0.010
 5747SOL     OW17776   5.008   1.805   8.012
 5747SOL    HW117777   5.048   1.871   7.955
 5747SOL    HW217778   4.937   1.851   8.056
 5748SOL     OW17779   4.756   0.552   7.464
 5748SOL    HW117780   4.705   0.632   7.449
 5748SOL    HW217781   4.802   0.568   7.546
 5749SOL     OW17782   4.212   1.416   7.604
 5749SOL    HW117783   4.138   1.387   7.658
 5749SOL    HW217784   4.196   1.378   7.518
 5750SOL     OW17785   5.127   0.559   7.530
 5750SOL    HW117786   5.051   0.551   7.587
 5750SOL    HW217787   5.199   0.523   7.582
 5751SOL     OW17788   4.249   0.272   7.773
 5751SOL    HW117789   4.289   0.218   7.705
 5751SOL    HW217790   4.228   0.354   7.730
 5752SOL     OW17791   4.437   1.062   7.811
 5752SOL    HW117792   4.410   1.048   7.902
 5752SOL    HW217793   4.516   1.009   7.801
 5753SOL     OW17794   4.090   1.103   7.927
 5753SOL    HW117795   4.070   1.182   7.876
 5753SOL    HW217796   4.076   1.031   7.865
 5754SOL     OW17797   4.958   1.358   7.819
 5754SOL    HW117798   5.016   1.429   7.847
 5754SOL    HW217799   4.903   1.339   7.895
 5755SOL     OW17800   0.027   0.639   7.936
 5755SOL    HW117801   5.275   0.677   8.007
 5755SOL    HW217802   0.048   0.712   7.879
 5756SOL     OW17803   4.928   0.530   7.715
 5756SOL    HW117804   4.931   0.444   7.758
 5756SOL    HW217805   4.894   0.589   7.782
 5757SOL     OW17806   0.028   0.405   7.803
 5757SOL    HW117807   0.031   0.340   7.872
 5757SOL    HW217808   0.022   0.489   7.848
 5758SOL     OW17809   5.035   0.832   7.490
 5758SOL    HW117810   5.063   0.741   7.486
 5758SOL    HW217811   5.057   0.868   7.405
 5759SOL     OW17812   3.730   1.324   7.640
 5759SOL    HW117813   3.643   1.337   7.603
 5759SOL    HW217814   3.729   1.235   7.674
 5760SOL     OW17815   4.563   0.604   7.761
 5760SOL    HW117816   4.553   0.512   7.734
 5760SOL    HW217817   4.474   0.638   7.763
 5761SOL     OW17818   4.185   0.495   7.637
 5761SOL    HW117819   4.245   0.567   7.654
 5761SOL    HW217820   4.100   0.537   7.622
 5762SOL     OW17821   5.032   0.847   7.774
 5762SOL    HW117822   4.939   0.861   7.791
 5762SOL    HW217823   5.039   0.846   7.678
 5763SOL     OW17824   5.103   1.573   7.907
 5763SOL    HW117825   5.198   1.584   7.907
 5763SOL    HW217826   5.070   1.654   7.945
 5764SOL     OW17827   4.390   1.620   7.603
 5764SOL    HW117828   4.403   1.631   7.509
 5764SOL    HW217829   4.338   1.540   7.611
 5765SOL     OW17830   4.911   1.611   7.486
 5765SOL    HW117831   4.920   1.516   7.501
 5765SOL    HW217832   4.852   1.618   7.412
 5766SOL     OW17833   4.655   0.908   7.759
 5766SOL    HW117834   4.705   0.933   7.681
 5766SOL    HW217835   4.643   0.814   7.751
 5767SOL     OW17836   4.329   1.507   7.936
 5767SOL    HW117837   4.374   1.446   7.877
 5767SOL    HW217838   4.256   1.540   7.884
 5768SOL     OW17839   3.982   1.346   7.742
 5768SOL    HW117840   3.890   1.344   7.716
 5768SOL    HW217841   3.981   1.382   7.830
 5769SOL     OW17842   3.798   0.338   7.490
 5769SOL    HW117843   3.716   0.307   7.453
 5769SOL    HW217844   3.822   0.413   7.435
 5770SOL     OW17845   3.788   0.182   7.745
 5770SOL    HW117846   3.785   0.258   7.686
 5770SOL    HW217847   3.868   0.136   7.721
 5771SOL     OW17848   4.905   1.329   7.555
 5771SOL    HW117849   4.810   1.315   7.555
 5771SOL    HW217850   4.927   1.341   7.647
 5772SOL     OW17851   5.268   1.743   0.322
 5772SOL    HW117852   5.271   1.829   0.281
 5772SOL    HW217853   0.042   1.742   0.383
 5773SOL     OW17854   4.943   0.325   7.909
 5773SOL    HW117855   5.006   0.253   7.906
 5773SOL    HW217856   4.954   0.363   7.996
 5774SOL     OW17857   4.351   0.737   8.054
 5774SOL    HW117858   4.355   0.818   0.024
 5774SOL    HW217859   4.263   0.735   8.016
 5775SOL     OW17860   4.591   1.366   7.483
 5775SOL    HW117861   4.551   1.394   7.565
 5775SOL    HW217862   4.606   1.447   7.435
 5776SOL     OW17863   4.802   0.978   7.540
 5776SOL    HW117864   4.778   1.033   7.465
 5776SOL    HW217865   4.880   0.931   7.512
 5777SOL     OW17866   4.113   0.421   7.984
 5777SOL    HW117867   4.165   0.369   7.923
 5777SOL    HW217868   4.162   0.418   8.066
 5778SOL     OW17869   4.490   1.335   7.759
 5778SOL    HW117870   4.459   1.244   7.762
 5778SOL    HW217871   4.568   1.336   7.814
 5779SOL     OW17872   5.036   0.039   7.612
 5779SOL    HW117873   5.115   0.029   7.558
 5779SOL    HW217874   4.986   5.259   7.595
 5780SOL     OW17875   3.775   1.078   7.750
 5780SOL    HW117876   3.869   1.068   7.736
 5780SOL    HW217877   3.743   0.990   7.765
 5781SOL     OW17878   4.613   1.647   7.783
 5781SOL    HW117879   4.537   1.627   7.729
 5781SOL    HW217880   4.582   1.711   7.846
 5782SOL     OW17881   3.944   2.485   0.123
 5782SOL    HW117882   3.863   2.450   0.161
 5782SOL    HW217883   3.966   2.424   0.052
 5783SOL     OW17884   3.949   2.143   0.992
 5783SOL    HW117885   3.977   2.109   1.076
 5783SOL    HW217886   3.859   2.111   0.982
 5784SOL     OW17887   3.728   2.245   0.638
 5784SOL    HW117888   3.646   2.271   0.679
 5784SOL    HW217889   3.707   2.165   0.590
 5785SOL     OW17890   4.291   3.150   1.175
 5785SOL    HW117891   4.203   3.154   1.137
 5785SOL    HW217892   4.307   3.238   1.208
 5786SOL     OW17893   5.283   3.409   0.707
 5786SOL    HW117894   5.247   3.356   0.778
 5786SOL    HW217895   5.225   3.392   0.633
 5787SOL     OW17896   4.859   2.561   0.700
 5787SOL    HW117897   4.909   2.642   0.690
 5787SOL    HW217898   4.810   2.574   0.782
 5788SOL     OW17899   4.479   3.004   1.041
 5788SOL    HW117900   4.410   3.039   1.097
 5788SOL    HW217901   4.514   3.081   0.996
 5789SOL     OW17902   4.592   2.636   1.822
 5789SOL    HW117903   4.575   2.707   1.884
 5789SOL    HW217904   4.614   2.680   1.740
 5790SOL     OW17905   4.408   2.863   0.650
 5790SOL    HW117906   4.474   2.853   0.719
 5790SOL    HW217907   4.340   2.916   0.690
 5791SOL     OW17908   4.435   3.013   1.813
 5791SOL    HW117909   4.482   3.091   1.840
 5791SOL    HW217910   4.352   3.046   1.777
 5792SOL     OW17911   4.055   3.287   1.068
 5792SOL    HW117912   3.982   3.250   1.018
 5792SOL    HW217913   4.105   3.338   1.004
 5793SOL     OW17914   5.161   3.343   1.352
 5793SOL    HW117915   5.206   3.423   1.376
 5793SOL    HW217916   5.105   3.322   1.427
 5794SOL     OW17917   4.173   2.260   1.487
 5794SOL    HW117918   4.248   2.201   1.493
 5794SOL    HW217919   4.097   2.204   1.500
 5795SOL     OW17920   3.944   3.576   0.471
 5795SOL    HW117921   3.965   3.652   0.526
 5795SOL    HW217922   4.019   3.568   0.412
 5796SOL     OW17923   4.860   3.202   1.694
 5796SOL    HW117924   4.899   3.198   1.781
 5796SOL    HW217925   4.807   3.122   1.688
 5797SOL     OW17926   3.950   3.302   0.529
 5797SOL    HW117927   3.938   3.397   0.533
 5797SOL    HW217928   3.891   3.268   0.597
 5798SOL     OW17929   3.981   2.952   0.890
 5798SOL    HW117930   3.978   2.866   0.932
 5798SOL    HW217931   3.924   3.006   0.945
 5799SOL     OW17932   4.333   3.655   1.426
 5799SOL    HW117933   4.252   3.637   1.475
 5799SOL    HW217934   4.358   3.743   1.453
 5800SOL     OW17935   4.354   2.822   0.133
 5800SOL    HW117936   4.301   2.898   0.108
 5800SOL    HW217937   4.404   2.852   0.209
 5801SOL     OW17938   3.839   2.512   0.562
 5801SOL    HW117939   3.809   2.424   0.583
 5801SOL    HW217940   3.831   2.561   0.644
 5802SOL     OW17941   3.753   3.458   0.111
 5802SOL    HW117942   3.740   3.369   0.146
 5802SOL    HW217943   3.737   3.516   0.185
 5803SOL     OW17944   0.115   2.808   0.594
 5803SOL    HW117945   0.203   2.772   0.591
 5803SOL    HW217946   0.112   2.873   0.524
 5804SOL     OW17947   3.847   2.605   1.586
 5804SOL    HW117948   3.939   2.630   1.593
 5804SOL    HW217949   3.799   2.687   1.594
 5805SOL     OW17950   4.337   3.248   0.735
 5805SOL    HW117951   4.291   3.164   0.744
 5805SOL    HW217952   4.321   3.274   0.644
 5806SOL     OW17953   5.007   3.099   1.425
 5806SOL    HW117954   5.040   3.032   1.365
 5806SOL    HW217955   5.062   3.091   1.503
 5807SOL     OW17956   4.540   1.864   0.511
 5807SOL    HW117957   4.579   1.949   0.489
 5807SOL    HW217958   4.446   1.883   0.519
 5808SOL     OW17959   3.914   2.828   1.271
 5808SOL    HW117960   3.999   2.786   1.256
 5808SOL    HW217961   3.852   2.773   1.225
 5809SOL     OW17962   4.896   3.669   1.623
 5809SOL    HW117963   4.918   3.728   1.551
 5809SOL    HW217964   4.919   3.582   1.591
 5810SOL     OW17965   4.057   2.112   1.812
 5810SOL    HW117966   4.102   2.195   1.828
 5810SOL    HW217967   3.968   2.126   1.843
 5811SOL     OW17968   5.169   3.297   0.936
 5811SOL    HW117969   5.106   3.303   1.008
 5811SOL    HW217970   5.162   3.206   0.907
 5812SOL     OW17971   4.322   2.576   0.283
 5812SOL    HW117972   4.340   2.653   0.229
 5812SOL    HW217973   4.257   2.605   0.346
 5813SOL     OW17974   4.996   2.199   0.919
 5813SOL    HW117975   4.907   2.169   0.941
 5813SOL    HW217976   5.051   2.164   0.990
 5814SOL     OW17977   4.515   2.480   1.451
 5814SOL    HW117978   4.489   2.456   1.540
 5814SOL    HW217979   4.475   2.413   1.395
 5815SOL     OW17980   5.115   2.342   1.680
 5815SOL    HW117981   5.116   2.380   1.768
 5815SOL    HW217982   5.190   2.283   1.678
 5816SOL     OW17983   4.678   2.750   1.582
 5816SOL    HW117984   4.731   2.678   1.547
 5816SOL    HW217985   4.630   2.784   1.507
 5817SOL     OW17986   4.715   2.275   1.238
 5817SOL    HW117987   4.629   2.296   1.274
 5817SOL    HW217988   4.696   2.228   1.157
 5818SOL     OW17989   4.777   2.559   0.426
 5818SOL    HW117990   4.792   2.555   0.520
 5818SOL    HW217991   4.694   2.514   0.413
 5819SOL     OW17992   3.813   2.684   0.776
 5819SOL    HW117993   3.894   2.676   0.827
 5819SOL    HW217994   3.769   2.761   0.811
 5820SOL     OW17995   3.851   3.709   1.578
 5820SOL    HW117996   3.851   3.689   1.671
 5820SOL    HW217997   3.759   3.702   1.552
 5821SOL     OW17998   4.609   2.219   0.200
 5821SOL    HW117999   4.654   2.268   0.131
 5821SOL    HW218000   4.610   2.128   0.170
 5822SOL     OW18001   5.095   3.009   0.549
 5822SOL    HW118002   5.178   3.002   0.501
 5822SOL    HW218003   5.042   3.068   0.495
 5823SOL     OW18004   4.273   2.044   0.893
 5823SOL    HW118005   4.276   2.072   0.984
 5823SOL    HW218006   4.276   2.125   0.843
 5824SOL     OW18007   4.729   3.306   0.473
 5824SOL    HW118008   4.690   3.378   0.423
 5824SOL    HW218009   4.711   3.328   0.565
 5825SOL     OW18010   4.078   3.671   0.862
 5825SOL    HW118011   4.122   3.586   0.870
 5825SOL    HW218012   4.147   3.735   0.880
 5826SOL     OW18013   4.940   3.404   1.519
 5826SOL    HW118014   4.927   3.331   1.579
 5826SOL    HW218015   4.883   3.384   1.445
 5827SOL     OW18016   4.050   2.803   0.255
 5827SOL    HW118017   4.117   2.847   0.203
 5827SOL    HW218018   4.052   2.712   0.225
 5828SOL     OW18019   4.190   3.126   1.738
 5828SOL    HW118020   4.163   3.131   1.646
 5828SOL    HW218021   4.108   3.125   1.787
 5829SOL     OW18022   4.825   3.636   0.225
 5829SOL    HW118023   4.770   3.596   0.292
 5829SOL    HW218024   4.840   3.565   0.162
 5830SOL     OW18025   3.925   2.143   1.501
 5830SOL    HW118026   3.843   2.192   1.497
 5830SOL    HW218027   3.907   2.073   1.564
 5831SOL     OW18028   4.189   3.599   0.323
 5831SOL    HW118029   4.231   3.658   0.386
 5831SOL    HW218030   4.259   3.573   0.264
 5832SOL     OW18031   5.117   1.987   0.439
 5832SOL    HW118032   5.100   1.969   0.346
 5832SOL    HW218033   5.212   1.994   0.445
 5833SOL     OW18034   3.978   3.653   1.232
 5833SOL    HW118035   4.031   3.588   1.278
 5833SOL    HW218036   3.971   3.619   1.143
 5834SOL     OW18037   4.662   3.560   0.899
 5834SOL    HW118038   4.742   3.511   0.916
 5834SOL    HW218039   4.618   3.511   0.830
 5835SOL     OW18040   4.110   2.559   0.477
 5835SOL    HW118041   4.134   2.467   0.488
 5835SOL    HW218042   4.017   2.562   0.499
 5836SOL     OW18043   4.354   1.973   0.136
 5836SOL    HW118044   4.449   1.961   0.142
 5836SOL    HW218045   4.333   1.953   0.044
 5837SOL     OW18046   4.490   2.141   1.754
 5837SOL    HW118047   4.566   2.083   1.755
 5837SOL    HW218048   4.441   2.117   1.834
 5838SOL     OW18049   4.599   3.383   1.194
 5838SOL    HW118050   4.585   3.348   1.106
 5838SOL    HW218051   4.670   3.330   1.230
 5839SOL     OW18052   5.058   2.453   1.432
 5839SOL    HW118053   5.090   2.421   1.516
 5839SOL    HW218054   5.100   2.538   1.421
 5840SOL     OW18055   4.538   3.256   0.939
 5840SOL    HW118056   4.623   3.245   0.896
 5840SOL    HW218057   4.475   3.259   0.868
 5841SOL     OW18058   4.651   2.371   0.902
 5841SOL    HW118059   4.628   2.362   0.810
 5841SOL    HW218060   4.683   2.284   0.927
 5842SOL     OW18061   4.273   1.925   0.505
 5842SOL    HW118062   4.193   1.924   0.557
 5842SOL    HW218063   4.267   2.004   0.451
 5843SOL     OW18064   5.140   3.035   0.044
 5843SOL    HW118065   5.138   2.962   0.106
 5843SOL    HW218066   5.056   3.078   0.056
 5844SOL     OW18067   4.035   1.918   0.169
 5844SOL    HW118068   4.100   1.986   0.185
 5844SOL    HW218069   4.071   1.840   0.212
 5845SOL     OW18070   4.662   2.109   0.459
 5845SOL    HW118071   4.634   2.150   0.377
 5845SOL    HW218072   4.756   2.126   0.463
 5846SOL     OW18073   4.801   2.543   1.461
 5846SOL    HW118074   4.734   2.475   1.463
 5846SOL    HW218075   4.883   2.495   1.451
 5847SOL     OW18076   4.940   3.434   0.796
 5847SOL    HW118077   4.963   3.499   0.730
 5847SOL    HW218078   5.021   3.420   0.844
 5848SOL     OW18079   4.192   3.012   0.733
 5848SOL    HW118080   4.123   2.992   0.797
 5848SOL    HW218081   4.151   2.996   0.648
 5849SOL     OW18082   4.992   3.656   0.605
 5849SOL    HW118083   5.037   3.719   0.548
 5849SOL    HW218084   4.927   3.708   0.652
 5850SOL     OW18085   4.758   2.392   0.029
 5850SOL    HW118086   4.711   2.471   0.003
 5850SOL    HW218087   4.818   2.421   0.098
 5851SOL     OW18088   3.803   2.417   1.392
 5851SOL    HW118089   3.895   2.415   1.365
 5851SOL    HW218090   3.798   2.487   1.457
 5852SOL     OW18091   4.283   2.089   1.166
 5852SOL    HW118092   4.325   2.013   1.206
 5852SOL    HW218093   4.192   2.085   1.196
 5853SOL     OW18094   4.591   2.321   0.639
 5853SOL    HW118095   4.549   2.376   0.573
 5853SOL    HW218096   4.613   2.240   0.591
 5854SOL     OW18097   4.739   1.915   0.751
 5854SOL    HW118098   4.680   1.908   0.676
 5854SOL    HW218099   4.717   1.839   0.806
 5855SOL     OW18100   5.157   3.038   0.850
 5855SOL    HW118101   5.102   2.961   0.863
 5855SOL    HW218102   5.168   3.044   0.755
 5856SOL     OW18103   4.207   3.301   0.172
 5856SOL    HW118104   4.134   3.259   0.219
 5856SOL    HW218105   4.212   3.254   0.089
 5857SOL     OW18106   5.127   2.446   0.076
 5857SOL    HW118107   5.067   2.421   0.147
 5857SOL    HW218108   5.194   2.379   0.077
 5858SOL     OW18109   4.241   2.125   0.323
 5858SOL    HW118110   4.291   2.073   0.261
 5858SOL    HW218111   4.229   2.210   0.280
 5859SOL     OW18112   4.780   3.216   1.333
 5859SOL    HW118113   4.705   3.185   1.384
 5859SOL    HW218114   4.856   3.173   1.374
 5860SOL     OW18115   0.006   3.466   1.616
 5860SOL    HW118116   0.040   3.471   1.527
 5860SOL    HW218117   0.083   3.446   1.670
 5861SOL     OW18118   4.853   3.065   1.106
 5861SOL    HW118119   4.791   3.101   1.170
 5861SOL    HW218120   4.819   3.095   1.022
 5862SOL     OW18121   4.642   1.960   1.396
 5862SOL    HW118122   4.664   1.941   1.305
 5862SOL    HW218123   4.721   1.999   1.433
 5863SOL     OW18124   4.709   2.975   1.725
 5863SOL    HW118125   4.617   2.993   1.745
 5863SOL    HW218126   4.706   2.898   1.668
 5864SOL     OW18127   4.439   2.925   0.380
 5864SOL    HW118128   4.421   2.907   0.473
 5864SOL    HW218129   4.516   2.873   0.360
 5865SOL     OW18130   4.142   2.677   1.251
 5865SOL    HW118131   4.211   2.686   1.318
 5865SOL    HW218132   4.107   2.589   1.266
 5866SOL     OW18133   4.989   2.237   1.276
 5866SOL    HW118134   5.023   2.316   1.317
 5866SOL    HW218135   4.899   2.260   1.252
 5867SOL     OW18136   3.795   3.435   1.352
 5867SOL    HW118137   3.765   3.509   1.299
 5867SOL    HW218138   3.890   3.438   1.348
 5868SOL     OW18139   4.068   2.972   0.491
 5868SOL    HW118140   4.075   3.045   0.430
 5868SOL    HW218141   4.077   2.893   0.437
 5869SOL     OW18142   4.276   2.398   0.860
 5869SOL    HW118143   4.292   2.457   0.785
 5869SOL    HW218144   4.341   2.425   0.925
 5870SOL     OW18145   4.971   3.209   0.392
 5870SOL    HW118146   5.026   3.281   0.419
 5870SOL    HW218147   4.883   3.232   0.424
 5871SOL     OW18148   4.994   3.318   1.140
 5871SOL    HW118149   5.049   3.320   1.218
 5871SOL    HW218150   4.941   3.240   1.150
 5872SOL     OW18151   4.071   3.389   1.315
 5872SOL    HW118152   4.058   3.346   1.230
 5872SOL    HW218153   4.165   3.401   1.322
 5873SOL     OW18154   4.138   2.607   1.602
 5873SOL    HW118155   4.200   2.651   1.544
 5873SOL    HW218156   4.178   2.521   1.618
 5874SOL     OW18157   4.718   1.987   1.755
 5874SOL    HW118158   4.775   2.059   1.729
 5874SOL    HW218159   4.765   1.908   1.730
 5875SOL     OW18160   4.222   1.903   1.748
 5875SOL    HW118161   4.179   1.848   1.682
 5875SOL    HW218162   4.163   1.977   1.760
 5876SOL     OW18163   4.307   2.735   1.031
 5876SOL    HW118164   4.338   2.825   1.031
 5876SOL    HW218165   4.251   2.729   1.109
 5877SOL     OW18166   5.085   2.718   1.039
 5877SOL    HW118167   5.010   2.702   0.982
 5877SOL    HW218168   5.139   2.640   1.031
 5878SOL     OW18169   4.933   2.393   0.269
 5878SOL    HW118170   4.935   2.313   0.321
 5878SOL    HW218171   4.886   2.456   0.324
 5879SOL     OW18172   4.023   2.060   1.247
 5879SOL    HW118173   3.986   2.093   1.329
 5879SOL    HW218174   4.004   1.967   1.247
 5880SOL     OW18175   3.770   3.173   1.276
 5880SOL    HW118176   3.803   3.118   1.348
 5880SOL    HW218177   3.777   3.262   1.309
 5881SOL     OW18178   4.447   2.493   1.057
 5881SOL    HW118179   4.523   2.477   1.000
 5881SOL    HW218180   4.420   2.582   1.036
 5882SOL     OW18181   4.026   1.927   0.623
 5882SOL    HW118182   4.008   2.017   0.647
 5882SOL    HW218183   4.034   1.881   0.707
 5883SOL     OW18184   0.047   2.239   0.357
 5883SOL    HW118185   0.062   2.182   0.432
 5883SOL    HW218186   0.017   2.322   0.395
 5884SOL     OW18187   4.751   2.621   0.960
 5884SOL    HW118188   4.749   2.639   1.054
 5884SOL    HW218189   4.725   2.529   0.952
 5885SOL     OW18190   4.697   3.423   1.714
 5885SOL    HW118191   4.686   3.471   1.632
 5885SOL    HW218192   4.746   3.344   1.690
 5886SOL     OW18193   4.077   2.777   1.809
 5886SOL    HW118194   4.159   2.797   1.854
 5886SOL    HW218195   4.101   2.715   1.740
 5887SOL     OW18196   5.030   2.696   0.027
 5887SOL    HW118197   5.062   2.608   0.045
 5887SOL    HW218198   5.059   2.714   8.018
 5888SOL     OW18199   4.789   3.196   0.856
 5888SOL    HW118200   4.793   3.124   0.793
 5888SOL    HW218201   4.847   3.263   0.820
 5889SOL     OW18202   4.033   2.671   0.947
 5889SOL    HW118203   4.126   2.693   0.941
 5889SOL    HW218204   4.031   2.581   0.980
 5890SOL     OW18205   4.055   2.388   1.012
 5890SOL    HW118206   4.020   2.300   0.997
 5890SOL    HW218207   4.132   2.394   0.955
 5891SOL     OW18208   4.856   2.238   1.681
 5891SOL    HW118209   4.809   2.293   1.743
 5891SOL    HW218210   4.944   2.277   1.676
 5892SOL     OW18211   4.885   2.064   1.469
 5892SOL    HW118212   4.874   2.126   1.541
 5892SOL    HW218213   4.924   2.116   1.398
 5893SOL     OW18214   3.735   3.186   0.190
 5893SOL    HW118215   3.648   3.200   0.152
 5893SOL    HW218216   3.733   3.095   0.222
 5894SOL     OW18217   3.814   3.649   0.938
 5894SOL    HW118218   3.784   3.569   0.894
 5894SOL    HW218219   3.904   3.662   0.907
 5895SOL     OW18220   4.220   3.436   0.906
 5895SOL    HW118221   4.289   3.498   0.930
 5895SOL    HW218222   4.265   3.372   0.849
 5896SOL     OW18223   4.706   2.654   1.227
 5896SOL    HW118224   4.762   2.631   1.301
 5896SOL    HW218225   4.621   2.617   1.248
 5897SOL     OW18226   3.760   2.406   1.117
 5897SOL    HW118227   3.841   2.393   1.067
 5897SOL    HW218228   3.788   2.410   1.208
 5898SOL     OW18229   3.915   2.381   1.727
 5898SOL    HW118230   3.972   2.343   1.661
 5898SOL    HW218231   3.873   2.455   1.683
 5899SOL     OW18232   5.112   2.800   1.666
 5899SOL    HW118233   5.121   2.895   1.654
 5899SOL    HW218234   5.115   2.764   1.577
 5900SOL     OW18235   4.543   2.431   0.367
 5900SOL    HW118236   4.551   2.360   0.304
 5900SOL    HW218237   4.467   2.481   0.337
 5901SOL     OW18238   3.967   3.413   1.727
 5901SOL    HW118239   3.945   3.478   1.795
 5901SOL    HW218240   3.969   3.330   1.774
 5902SOL     OW18241   4.424   2.312   1.259
 5902SOL    HW118242   4.372   2.238   1.229
 5902SOL    HW218243   4.421   2.375   1.187
 5903SOL     OW18244   4.644   3.542   1.469
 5903SOL    HW118245   4.623   3.509   1.381
 5903SOL    HW218246   4.646   3.637   1.459
 5904SOL     OW18247   4.192   2.353   0.179
 5904SOL    HW118248   4.259   2.419   0.198
 5904SOL    HW218249   4.109   2.398   0.189
 5905SOL     OW18250   3.870   3.002   1.472
 5905SOL    HW118251   3.872   2.951   1.553
 5905SOL    HW218252   3.887   2.939   1.403
 5906SOL     OW18253   5.053   2.911   1.224
 5906SOL    HW118254   5.075   2.846   1.158
 5906SOL    HW218255   4.982   2.962   1.186
 5907SOL     OW18256   5.023   2.732   0.319
 5907SOL    HW118257   4.946   2.687   0.353
 5907SOL    HW218258   5.024   2.712   0.226
 5908SOL     OW18259   4.960   3.593   1.121
 5908SOL    HW118260   5.045   3.614   1.084
 5908SOL    HW218261   4.960   3.498   1.131
 5909SOL     OW18262   3.808   3.129   1.012
 5909SOL    HW118263   3.794   3.142   1.106
 5909SOL    HW218264   3.735   3.074   0.984
 5910SOL     OW18265   4.401   3.527   1.728
 5910SOL    HW118266   4.349   3.607   1.722
 5910SOL    HW218267   4.470   3.538   1.663
 5911SOL     OW18268   4.630   1.953   0.133
 5911SOL    HW118269   4.647   1.936   0.041
 5911SOL    HW218270   4.693   1.899   0.180
 5912SOL     OW18271   0.081   2.012   0.522
 5912SOL    HW118272   0.172   2.005   0.494
 5912SOL    HW218273   0.071   1.943   0.588
 5913SOL     OW18274   5.108   3.433   0.478
 5913SOL    HW118275   5.162   3.475   0.412
 5913SOL    HW218276   5.060   3.505   0.519
 5914SOL     OW18277   3.860   3.659   1.843
 5914SOL    HW118278   3.809   3.593   1.891
 5914SOL    HW218279   3.908   3.706   1.911
 5915SOL     OW18280   5.017   2.781   0.672
 5915SOL    HW118281   5.094   2.727   0.658
 5915SOL    HW218282   5.034   2.862   0.624
 5916SOL     OW18283   4.538   3.135   1.430
 5916SOL    HW118284   4.510   3.174   1.513
 5916SOL    HW218285   4.469   3.158   1.368
 5917SOL     OW18286   4.400   3.483   0.157
 5917SOL    HW118287   4.407   3.489   0.061
 5917SOL    HW218288   4.340   3.410   0.171
 5918SOL     OW18289   3.986   2.178   0.717
 5918SOL    HW118290   3.900   2.214   0.694
 5918SOL    HW218291   3.983   2.170   0.813
 5919SOL     OW18292   4.860   3.441   0.045
 5919SOL    HW118293   4.900   3.356   0.060
 5919SOL    HW218294   4.899   3.472   8.043
 5920SOL     OW18295   4.548   2.868   1.372
 5920SOL    HW118296   4.592   2.864   1.288
 5920SOL    HW218297   4.547   2.961   1.394
 5921SOL     OW18298   4.643   2.776   0.300
 5921SOL    HW118299   4.696   2.800   0.223
 5921SOL    HW218300   4.691   2.703   0.340
 5922SOL     OW18301   4.093   3.165   1.492
 5922SOL    HW118302   4.080   3.242   1.437
 5922SOL    HW218303   4.016   3.110   1.475
 5923SOL     OW18304   4.776   2.969   0.707
 5923SOL    HW118305   4.705   2.918   0.747
 5923SOL    HW218306   4.833   2.904   0.667
 5924SOL     OW18307   4.739   2.101   0.968
 5924SOL    HW118308   4.737   2.054   0.885
 5924SOL    HW218309   4.736   2.032   1.035
 5925SOL     OW18310   4.326   3.348   0.480
 5925SOL    HW118311   4.371   3.299   0.411
 5925SOL    HW218312   4.258   3.398   0.434
 5926SOL     OW18313   3.991   3.181   0.293
 5926SOL    HW118314   3.905   3.193   0.253
 5926SOL    HW218315   3.984   3.227   0.377
 5927SOL     OW18316   3.837   2.884   1.719
 5927SOL    HW118317   3.761   2.861   1.772
 5927SOL    HW218318   3.911   2.846   1.766
 5928SOL     OW18319   4.398   2.058   1.499
 5928SOL    HW118320   4.482   2.038   1.458
 5928SOL    HW218321   4.421   2.090   1.587
 5929SOL     OW18322   3.780   2.225   0.039
 5929SOL    HW118323   3.706   2.170   0.014
 5929SOL    HW218324   3.830   2.237   8.038
 5930SOL     OW18325   5.163   2.722   1.404
 5930SOL    HW118326   5.111   2.779   1.347
 5930SOL    HW218327   5.252   2.728   1.369
 5931SOL     OW18328   3.795   2.016   0.305
 5931SOL    HW118329   3.780   2.100   0.262
 5931SOL    HW218330   3.879   1.987   0.270
 5932SOL     OW18331   4.913   3.176   0.120
 5932SOL    HW118332   4.818   3.176   0.114
 5932SOL    HW218333   4.932   3.182   0.213
 5933SOL     OW18334   4.343   2.693   1.433
 5933SOL    HW118335   4.399   2.769   1.418
 5933SOL    HW218336   4.403   2.619   1.442
 5934SOL     OW18337   4.441   2.425   1.704
 5934SOL    HW118338   4.482   2.487   1.765
 5934SOL    HW218339   4.468   2.339   1.736
 5935SOL     OW18340   5.182   3.066   1.632
 5935SOL    HW118341   5.173   3.079   1.727
 5935SOL    HW218342   5.276   3.073   1.616
 5936SOL     OW18343   4.103   3.601   1.564
 5936SOL    HW118344   4.018   3.643   1.551
 5936SOL    HW218345   4.083   3.518   1.606
 5937SOL     OW18346   4.933   2.187   0.461
 5937SOL    HW118347   4.996   2.115   0.450
 5937SOL    HW218348   4.963   2.233   0.539
 5938SOL     OW18349   4.312   2.599   0.669
 5938SOL    HW118350   4.353   2.685   0.655
 5938SOL    HW218351   4.244   2.594   0.602
 5939SOL     OW18352   4.620   3.231   0.033
 5939SOL    HW118353   4.555   3.226   0.104
 5939SOL    HW218354   4.617   3.322   0.004
 5940SOL     OW18355   4.384   3.653   0.944
 5940SOL    HW118356   4.365   3.744   0.921
 5940SOL    HW218357   4.479   3.647   0.938
 5941SOL     OW18358   4.591   2.829   0.855
 5941SOL    HW118359   4.642   2.757   0.895
 5941SOL    HW218360   4.557   2.878   0.930
 5942SOL     OW18361   4.799   2.835   0.085
 5942SOL    HW118362   4.790   2.900   0.016
 5942SOL    HW218363   4.882   2.791   0.066
 5943SOL     OW18364   3.949   3.165   1.856
 5943SOL    HW118365   3.881   3.104   1.827
 5943SOL    HW218366   3.932   3.177   1.949
 5944SOL     OW18367   3.808   3.093   0.664
 5944SOL    HW118368   3.814   3.046   0.747
 5944SOL    HW218369   3.881   3.059   0.612
 5945SOL     OW18370   4.405   3.264   1.628
 5945SOL    HW118371   4.325   3.222   1.660
 5945SOL    HW218372   4.401   3.353   1.664
 5946SOL     OW18373   4.149   2.298   0.523
 5946SOL    HW118374   4.182   2.227   0.469
 5946SOL    HW218375   4.104   2.254   0.596
 5947SOL     OW18376   0.094   3.384   1.100
 5947SOL    HW118377   0.027   3.359   1.036
 5947SOL    HW218378   0.102   3.307   1.157
 5948SOL     OW18379   4.054   2.417   1.292
 5948SOL    HW118380   4.109   2.362   1.347
 5948SOL    HW218381   4.074   2.389   1.202
 5949SOL     OW18382   4.551   3.440   0.677
 5949SOL    HW118383   4.540   3.493   0.599
 5949SOL    HW218384   4.474   3.383   0.679
 5950SOL     OW18385   5.148   2.081   1.115
 5950SOL    HW118386   5.192   2.015   1.169
 5950SOL    HW218387   5.102   2.136   1.177
 5951SOL     OW18388   4.730   1.880   1.142
 5951SOL    HW118389   4.677   1.812   1.101
 5951SOL    HW218390   4.818   1.843   1.147
 5952SOL     OW18391   4.494   3.190   0.309
 5952SOL    HW118392   4.463   3.100   0.323
 5952SOL    HW218393   4.576   3.195   0.357
 5953SOL     OW18394   4.344   3.418   1.285
 5953SOL    HW118395   4.346   3.501   1.334
 5953SOL    HW218396   4.431   3.410   1.248
 5954SOL     OW18397   5.051   1.923   0.186
 5954SOL    HW118398   5.093   1.874   0.115
 5954SOL    HW218399   4.973   1.872   0.208
 5955SOL     OW18400   5.028   2.323   0.684
 5955SOL    HW118401   4.973   2.401   0.688
 5955SOL    HW218402   5.016   2.281   0.769
 5956SOL     OW18403   0.000   2.087   0.877
 5956SOL    HW118404   5.237   2.073   0.948
 5956SOL    HW218405   5.274   2.171   0.839
 5957SOL     OW18406   3.766   2.928   0.303
 5957SOL    HW118407   3.862   2.929   0.307
 5957SOL    HW218408   3.741   2.845   0.344
 5958SOL     OW18409   4.604   3.514   0.350
 5958SOL    HW118410   4.537   3.498   0.283
 5958SOL    HW218411   4.573   3.591   0.398
 5959SOL     OW18412   3.953   2.485   1.985
 5959SOL    HW118413   3.864   2.484   2.019
 5959SOL    HW218414   3.944   2.460   1.893
 5960SOL     OW18415   3.950   2.142   2.853
 5960SOL    HW118416   3.977   2.109   2.938
 5960SOL    HW218417   3.859   2.112   2.844
 5961SOL     OW18418   3.728   2.245   2.500
 5961SOL    HW118419   3.646   2.270   2.541
 5961SOL    HW218420   3.707   2.165   2.451
 5962SOL     OW18421   4.291   3.150   3.037
 5962SOL    HW118422   4.203   3.152   3.000
 5962SOL    HW218423   4.306   3.238   3.070
 5963SOL     OW18424   5.285   3.397   2.568
 5963SOL    HW118425   5.246   3.355   2.644
 5963SOL    HW218426   5.220   3.389   2.499
 5964SOL     OW18427   4.858   2.561   2.562
 5964SOL    HW118428   4.909   2.642   2.552
 5964SOL    HW218429   4.810   2.573   2.643
 5965SOL     OW18430   4.480   3.004   2.903
 5965SOL    HW118431   4.410   3.039   2.959
 5965SOL    HW218432   4.514   3.082   2.858
 5966SOL     OW18433   4.593   2.636   3.685
 5966SOL    HW118434   4.574   2.707   3.746
 5966SOL    HW218435   4.614   2.679   3.602
 5967SOL     OW18436   4.410   2.864   2.509
 5967SOL    HW118437   4.475   2.853   2.579
 5967SOL    HW218438   4.340   2.916   2.549
 5968SOL     OW18439   4.435   3.013   3.675
 5968SOL    HW118440   4.482   3.092   3.701
 5968SOL    HW218441   4.352   3.046   3.639
 5969SOL     OW18442   4.055   3.288   2.930
 5969SOL    HW118443   3.982   3.250   2.881
 5969SOL    HW218444   4.104   3.338   2.865
 5970SOL     OW18445   5.161   3.343   3.213
 5970SOL    HW118446   5.206   3.423   3.239
 5970SOL    HW218447   5.105   3.322   3.289
 5971SOL     OW18448   4.173   2.260   3.349
 5971SOL    HW118449   4.248   2.201   3.355
 5971SOL    HW218450   4.097   2.203   3.362
 5972SOL     OW18451   3.943   3.576   2.334
 5972SOL    HW118452   3.965   3.652   2.388
 5972SOL    HW218453   4.017   3.568   2.273
 5973SOL     OW18454   4.860   3.202   3.556
 5973SOL    HW118455   4.899   3.198   3.643
 5973SOL    HW218456   4.807   3.122   3.549
 5974SOL     OW18457   3.954   3.303   2.397
 5974SOL    HW118458   3.937   3.397   2.401
 5974SOL    HW218459   3.893   3.266   2.461
 5975SOL     OW18460   3.982   2.952   2.753
 5975SOL    HW118461   3.977   2.866   2.794
 5975SOL    HW218462   3.924   3.007   2.805
 5976SOL     OW18463   4.333   3.654   3.289
 5976SOL    HW118464   4.253   3.636   3.337
 5976SOL    HW218465   4.358   3.743   3.316
 5977SOL     OW18466   4.310   2.843   1.996
 5977SOL    HW118467   4.355   2.893   1.928
 5977SOL    HW218468   4.349   2.874   2.078
 5978SOL     OW18469   3.839   2.515   2.421
 5978SOL    HW118470   3.810   2.426   2.443
 5978SOL    HW218471   3.831   2.564   2.504
 5979SOL     OW18472   3.756   3.457   1.986
 5979SOL    HW118473   3.739   3.365   2.006
 5979SOL    HW218474   3.732   3.504   2.066
 5980SOL     OW18475   0.111   2.802   2.437
 5980SOL    HW118476   0.198   2.765   2.453
 5980SOL    HW218477   0.129   2.887   2.397
 5981SOL     OW18478   3.843   2.600   3.454
 5981SOL    HW118479   3.931   2.637   3.459
 5981SOL    HW218480   3.786   2.675   3.440
 5982SOL     OW18481   4.338   3.247   2.597
 5982SOL    HW118482   4.291   3.164   2.607
 5982SOL    HW218483   4.321   3.274   2.507
 5983SOL     OW18484   5.007   3.099   3.287
 5983SOL    HW118485   5.040   3.032   3.227
 5983SOL    HW218486   5.062   3.091   3.365
 5984SOL     OW18487   4.538   1.862   2.371
 5984SOL    HW118488   4.579   1.947   2.351
 5984SOL    HW218489   4.445   1.882   2.380
 5985SOL     OW18490   3.914   2.829   3.135
 5985SOL    HW118491   3.994   2.782   3.114
 5985SOL    HW218492   3.845   2.778   3.093
 5986SOL     OW18493   4.897   3.670   3.485
 5986SOL    HW118494   4.918   3.728   3.413
 5986SOL    HW218495   4.919   3.582   3.453
 5987SOL     OW18496   4.058   2.111   3.674
 5987SOL    HW118497   4.101   2.195   3.689
 5987SOL    HW218498   3.968   2.125   3.703
 5988SOL     OW18499   5.168   3.297   2.798
 5988SOL    HW118500   5.106   3.304   2.871
 5988SOL    HW218501   5.162   3.206   2.770
 5989SOL     OW18502   4.320   2.583   2.128
 5989SOL    HW118503   4.325   2.665   2.078
 5989SOL    HW218504   4.255   2.601   2.196
 5990SOL     OW18505   4.996   2.199   2.781
 5990SOL    HW118506   4.907   2.169   2.803
 5990SOL    HW218507   5.050   2.164   2.852
 5991SOL     OW18508   4.515   2.480   3.313
 5991SOL    HW118509   4.489   2.456   3.402
 5991SOL    HW218510   4.475   2.413   3.257
 5992SOL     OW18511   5.115   2.342   3.542
 5992SOL    HW118512   5.116   2.380   3.630
 5992SOL    HW218513   5.190   2.283   3.540
 5993SOL     OW18514   4.678   2.750   3.444
 5993SOL    HW118515   4.731   2.678   3.409
 5993SOL    HW218516   4.630   2.784   3.369
 5994SOL     OW18517   4.715   2.275   3.100
 5994SOL    HW118518   4.629   2.296   3.137
 5994SOL    HW218519   4.696   2.228   3.019
 5995SOL     OW18520   4.775   2.560   2.287
 5995SOL    HW118521   4.790   2.554   2.382
 5995SOL    HW218522   4.692   2.514   2.274
 5996SOL     OW18523   3.812   2.684   2.638
 5996SOL    HW118524   3.893   2.676   2.688
 5996SOL    HW218525   3.768   2.761   2.674
 5997SOL     OW18526   3.852   3.713   3.441
 5997SOL    HW118527   3.852   3.690   3.534
 5997SOL    HW218528   3.761   3.700   3.413
 5998SOL     OW18529   4.617   2.209   2.056
 5998SOL    HW118530   4.657   2.271   1.994
 5998SOL    HW218531   4.632   2.123   2.018
 5999SOL     OW18532   5.092   3.009   2.410
 5999SOL    HW118533   5.180   3.009   2.371
 5999SOL    HW218534   5.042   3.068   2.354
 6000SOL     OW18535   4.274   2.044   2.755
 6000SOL    HW118536   4.276   2.072   2.846
 6000SOL    HW218537   4.275   2.125   2.704
 6001SOL     OW18538   4.730   3.305   2.334
 6001SOL    HW118539   4.692   3.378   2.285
 6001SOL    HW218540   4.712   3.327   2.426
 6002SOL     OW18541   4.078   3.671   2.724
 6002SOL    HW118542   4.122   3.586   2.732
 6002SOL    HW218543   4.147   3.735   2.743
 6003SOL     OW18544   4.940   3.404   3.381
 6003SOL    HW118545   4.927   3.331   3.441
 6003SOL    HW218546   4.883   3.385   3.307
 6004SOL     OW18547   4.044   2.819   2.112
 6004SOL    HW118548   4.126   2.839   2.067
 6004SOL    HW218549   4.013   2.738   2.073
 6005SOL     OW18550   4.190   3.126   3.599
 6005SOL    HW118551   4.163   3.131   3.508
 6005SOL    HW218552   4.108   3.125   3.649
 6006SOL     OW18553   4.832   3.637   2.098
 6006SOL    HW118554   4.760   3.592   2.143
 6006SOL    HW218555   4.857   3.577   2.028
 6007SOL     OW18556   3.925   2.143   3.362
 6007SOL    HW118557   3.845   2.196   3.358
 6007SOL    HW218558   3.906   2.076   3.427
 6008SOL     OW18559   4.190   3.599   2.183
 6008SOL    HW118560   4.232   3.656   2.247
 6008SOL    HW218561   4.261   3.568   2.127
 6009SOL     OW18562   5.121   1.969   2.286
 6009SOL    HW118563   5.101   1.951   2.194
 6009SOL    HW218564   5.215   1.985   2.288
 6010SOL     OW18565   3.979   3.654   3.093
 6010SOL    HW118566   4.029   3.587   3.141
 6010SOL    HW218567   3.971   3.618   3.005
 6011SOL     OW18568   4.662   3.560   2.761
 6011SOL    HW118569   4.741   3.510   2.779
 6011SOL    HW218570   4.618   3.511   2.692
 6012SOL     OW18571   4.117   2.557   2.338
 6012SOL    HW118572   4.137   2.465   2.349
 6012SOL    HW218573   4.023   2.564   2.356
 6013SOL     OW18574   4.359   1.984   1.967
 6013SOL    HW118575   4.429   1.920   1.979
 6013SOL    HW218576   4.310   1.953   1.891
 6014SOL     OW18577   4.490   2.140   3.616
 6014SOL    HW118578   4.566   2.082   3.617
 6014SOL    HW218579   4.441   2.118   3.696
 6015SOL     OW18580   4.600   3.384   3.056
 6015SOL    HW118581   4.584   3.348   2.968
 6015SOL    HW218582   4.670   3.330   3.092
 6016SOL     OW18583   5.058   2.453   3.294
 6016SOL    HW118584   5.090   2.421   3.378
 6016SOL    HW218585   5.100   2.538   3.283
 6017SOL     OW18586   4.539   3.257   2.802
 6017SOL    HW118587   4.623   3.246   2.758
 6017SOL    HW218588   4.475   3.258   2.730
 6018SOL     OW18589   4.652   2.371   2.765
 6018SOL    HW118590   4.628   2.362   2.672
 6018SOL    HW218591   4.683   2.284   2.790
 6019SOL     OW18592   4.273   1.925   2.364
 6019SOL    HW118593   4.192   1.926   2.416
 6019SOL    HW218594   4.267   2.003   2.309
 6020SOL     OW18595   5.136   3.042   1.906
 6020SOL    HW118596   5.146   2.964   1.960
 6020SOL    HW218597   5.049   3.076   1.926
 6021SOL     OW18598   4.016   1.910   2.047
 6021SOL    HW118599   4.075   1.974   2.007
 6021SOL    HW218600   4.074   1.846   2.088
 6022SOL     OW18601   4.661   2.108   2.322
 6022SOL    HW118602   4.634   2.149   2.239
 6022SOL    HW218603   4.756   2.121   2.325
 6023SOL     OW18604   4.801   2.543   3.323
 6023SOL    HW118605   4.733   2.476   3.325
 6023SOL    HW218606   4.883   2.495   3.313
 6024SOL     OW18607   4.940   3.432   2.656
 6024SOL    HW118608   4.962   3.500   2.591
 6024SOL    HW218609   5.020   3.421   2.707
 6025SOL     OW18610   4.193   3.011   2.595
 6025SOL    HW118611   4.124   2.992   2.659
 6025SOL    HW218612   4.152   2.995   2.510
 6026SOL     OW18613   4.996   3.656   2.467
 6026SOL    HW118614   5.038   3.717   2.407
 6026SOL    HW218615   4.929   3.708   2.512
 6027SOL     OW18616   4.748   2.405   1.884
 6027SOL    HW118617   4.704   2.488   1.864
 6027SOL    HW218618   4.809   2.427   1.954
 6028SOL     OW18619   3.804   2.417   3.254
 6028SOL    HW118620   3.895   2.416   3.227
 6028SOL    HW218621   3.799   2.486   3.321
 6029SOL     OW18622   4.283   2.089   3.028
 6029SOL    HW118623   4.325   2.013   3.068
 6029SOL    HW218624   4.192   2.086   3.058
 6030SOL     OW18625   4.593   2.321   2.501
 6030SOL    HW118626   4.546   2.376   2.438
 6030SOL    HW218627   4.613   2.241   2.453
 6031SOL     OW18628   4.739   1.915   2.614
 6031SOL    HW118629   4.681   1.908   2.538
 6031SOL    HW218630   4.717   1.839   2.668
 6032SOL     OW18631   5.157   3.038   2.713
 6032SOL    HW118632   5.101   2.962   2.726
 6032SOL    HW218633   5.168   3.043   2.618
 6033SOL     OW18634   4.215   3.280   2.019
 6033SOL    HW118635   4.140   3.251   2.071
 6033SOL    HW218636   4.200   3.241   1.932
 6034SOL     OW18637   5.127   2.424   1.942
 6034SOL    HW118638   5.054   2.414   2.003
 6034SOL    HW218639   5.202   2.386   1.988
 6035SOL     OW18640   4.250   2.125   2.180
 6035SOL    HW118641   4.294   2.077   2.110
 6035SOL    HW218642   4.227   2.209   2.141
 6036SOL     OW18643   4.780   3.216   3.195
 6036SOL    HW118644   4.705   3.185   3.246
 6036SOL    HW218645   4.856   3.173   3.236
 6037SOL     OW18646   0.006   3.466   3.478
 6037SOL    HW118647   0.040   3.471   3.389
 6037SOL    HW218648   0.083   3.446   3.532
 6038SOL     OW18649   4.853   3.065   2.968
 6038SOL    HW118650   4.791   3.101   3.033
 6038SOL    HW218651   4.819   3.095   2.884
 6039SOL     OW18652   4.642   1.960   3.258
 6039SOL    HW118653   4.664   1.941   3.167
 6039SOL    HW218654   4.721   1.998   3.295
 6040SOL     OW18655   4.708   2.975   3.587
 6040SOL    HW118656   4.617   2.993   3.607
 6040SOL    HW218657   4.706   2.898   3.530
 6041SOL     OW18658   4.432   2.923   2.233
 6041SOL    HW118659   4.418   2.907   2.326
 6041SOL    HW218660   4.508   2.870   2.210
 6042SOL     OW18661   4.142   2.675   3.112
 6042SOL    HW118662   4.210   2.686   3.179
 6042SOL    HW218663   4.107   2.588   3.128
 6043SOL     OW18664   4.988   2.237   3.138
 6043SOL    HW118665   5.023   2.316   3.180
 6043SOL    HW218666   4.899   2.260   3.114
 6044SOL     OW18667   3.793   3.437   3.217
 6044SOL    HW118668   3.765   3.508   3.158
 6044SOL    HW218669   3.889   3.436   3.210
 6045SOL     OW18670   4.073   2.971   2.352
 6045SOL    HW118671   4.078   3.045   2.292
 6045SOL    HW218672   4.070   2.894   2.296
 6046SOL     OW18673   4.277   2.398   2.722
 6046SOL    HW118674   4.292   2.457   2.647
 6046SOL    HW218675   4.341   2.425   2.787
 6047SOL     OW18676   4.972   3.211   2.249
 6047SOL    HW118677   5.026   3.284   2.280
 6047SOL    HW218678   4.884   3.231   2.283
 6048SOL     OW18679   4.994   3.318   3.001
 6048SOL    HW118680   5.049   3.320   3.080
 6048SOL    HW218681   4.940   3.240   3.012
 6049SOL     OW18682   4.069   3.390   3.177
 6049SOL    HW118683   4.056   3.346   3.093
 6049SOL    HW218684   4.164   3.402   3.184
 6050SOL     OW18685   4.139   2.608   3.464
 6050SOL    HW118686   4.201   2.652   3.405
 6050SOL    HW218687   4.178   2.521   3.479
 6051SOL     OW18688   4.718   1.987   3.618
 6051SOL    HW118689   4.775   2.059   3.591
 6051SOL    HW218690   4.766   1.908   3.592
 6052SOL     OW18691   4.222   1.902   3.610
 6052SOL    HW118692   4.179   1.848   3.544
 6052SOL    HW218693   4.163   1.977   3.622
 6053SOL     OW18694   4.308   2.734   2.894
 6053SOL    HW118695   4.336   2.826   2.892
 6053SOL    HW218696   4.250   2.728   2.970
 6054SOL     OW18697   5.086   2.719   2.899
 6054SOL    HW118698   5.009   2.701   2.845
 6054SOL    HW218699   5.138   2.639   2.894
 6055SOL     OW18700   4.928   2.393   2.127
 6055SOL    HW118701   4.935   2.313   2.179
 6055SOL    HW218702   4.885   2.456   2.184
 6056SOL     OW18703   4.023   2.060   3.109
 6056SOL    HW118704   3.985   2.093   3.190
 6056SOL    HW218705   4.003   1.966   3.109
 6057SOL     OW18706   3.794   3.174   3.133
 6057SOL    HW118707   3.813   3.118   3.209
 6057SOL    HW218708   3.781   3.261   3.171
 6058SOL     OW18709   4.447   2.493   2.920
 6058SOL    HW118710   4.522   2.477   2.862
 6058SOL    HW218711   4.419   2.582   2.899
 6059SOL     OW18712   4.027   1.926   2.485
 6059SOL    HW118713   4.008   2.017   2.508
 6059SOL    HW218714   4.034   1.881   2.569
 6060SOL     OW18715   0.035   2.256   2.221
 6060SOL    HW118716   0.054   2.181   2.278
 6060SOL    HW218717   0.018   2.328   2.281
 6061SOL     OW18718   4.751   2.621   2.822
 6061SOL    HW118719   4.749   2.638   2.916
 6061SOL    HW218720   4.725   2.529   2.814
 6062SOL     OW18721   4.698   3.424   3.576
 6062SOL    HW118722   4.687   3.471   3.493
 6062SOL    HW218723   4.746   3.344   3.552
 6063SOL     OW18724   4.080   2.775   3.673
 6063SOL    HW118725   4.163   2.794   3.716
 6063SOL    HW218726   4.103   2.713   3.604
 6064SOL     OW18727   5.027   2.691   1.899
 6064SOL    HW118728   5.065   2.603   1.901
 6064SOL    HW218729   5.054   2.727   1.814
 6065SOL     OW18730   4.789   3.196   2.717
 6065SOL    HW118731   4.793   3.124   2.654
 6065SOL    HW218732   4.847   3.263   2.681
 6066SOL     OW18733   4.033   2.670   2.808
 6066SOL    HW118734   4.126   2.692   2.802
 6066SOL    HW218735   4.031   2.581   2.843
 6067SOL     OW18736   4.055   2.387   2.875
 6067SOL    HW118737   4.020   2.300   2.859
 6067SOL    HW218738   4.132   2.393   2.817
 6068SOL     OW18739   4.856   2.238   3.543
 6068SOL    HW118740   4.809   2.293   3.605
 6068SOL    HW218741   4.943   2.277   3.538
 6069SOL     OW18742   4.885   2.064   3.331
 6069SOL    HW118743   4.874   2.126   3.403
 6069SOL    HW218744   4.924   2.116   3.260
 6070SOL     OW18745   3.729   3.183   2.057
 6070SOL    HW118746   3.642   3.197   2.019
 6070SOL    HW218747   3.726   3.094   2.091
 6071SOL     OW18748   3.814   3.649   2.800
 6071SOL    HW118749   3.784   3.570   2.756
 6071SOL    HW218750   3.904   3.662   2.769
 6072SOL     OW18751   4.220   3.436   2.767
 6072SOL    HW118752   4.289   3.498   2.791
 6072SOL    HW218753   4.265   3.372   2.711
 6073SOL     OW18754   4.707   2.654   3.088
 6073SOL    HW118755   4.762   2.631   3.163
 6073SOL    HW218756   4.621   2.618   3.110
 6074SOL     OW18757   3.761   2.398   2.980
 6074SOL    HW118758   3.843   2.393   2.930
 6074SOL    HW218759   3.789   2.411   3.071
 6075SOL     OW18760   3.920   2.379   3.590
 6075SOL    HW118761   3.977   2.343   3.522
 6075SOL    HW218762   3.878   2.455   3.548
 6076SOL     OW18763   5.112   2.800   3.528
 6076SOL    HW118764   5.121   2.894   3.516
 6076SOL    HW218765   5.115   2.764   3.440
 6077SOL     OW18766   4.540   2.431   2.221
 6077SOL    HW118767   4.543   2.356   2.162
 6077SOL    HW218768   4.466   2.483   2.190
 6078SOL     OW18769   3.967   3.413   3.589
 6078SOL    HW118770   3.944   3.477   3.657
 6078SOL    HW218771   3.969   3.329   3.635
 6079SOL     OW18772   4.425   2.312   3.121
 6079SOL    HW118773   4.372   2.238   3.091
 6079SOL    HW218774   4.421   2.375   3.049
 6080SOL     OW18775   4.645   3.542   3.330
 6080SOL    HW118776   4.623   3.509   3.243
 6080SOL    HW218777   4.646   3.637   3.321
 6081SOL     OW18778   4.188   2.354   2.049
 6081SOL    HW118779   4.247   2.427   2.071
 6081SOL    HW218780   4.103   2.395   2.036
 6082SOL     OW18781   3.873   3.003   3.336
 6082SOL    HW118782   3.877   2.951   3.416
 6082SOL    HW218783   3.889   2.939   3.266
 6083SOL     OW18784   5.054   2.911   3.086
 6083SOL    HW118785   5.075   2.847   3.019
 6083SOL    HW218786   4.982   2.962   3.048
 6084SOL     OW18787   5.034   2.722   2.178
 6084SOL    HW118788   4.953   2.689   2.215
 6084SOL    HW218789   5.023   2.713   2.084
 6085SOL     OW18790   4.959   3.593   2.983
 6085SOL    HW118791   5.045   3.614   2.947
 6085SOL    HW218792   4.960   3.498   2.993
 6086SOL     OW18793   3.808   3.131   2.870
 6086SOL    HW118794   3.801   3.144   2.964
 6086SOL    HW218795   3.734   3.075   2.847
 6087SOL     OW18796   4.401   3.527   3.591
 6087SOL    HW118797   4.349   3.607   3.584
 6087SOL    HW218798   4.470   3.538   3.525
 6088SOL     OW18799   0.081   2.022   2.392
 6088SOL    HW118800   0.165   2.008   2.349
 6088SOL    HW218801   0.067   1.942   2.443
 6089SOL     OW18802   5.111   3.432   2.342
 6089SOL    HW118803   5.181   3.473   2.292
 6089SOL    HW218804   5.061   3.506   2.378
 6090SOL     OW18805   3.859   3.659   3.705
 6090SOL    HW118806   3.809   3.593   3.753
 6090SOL    HW218807   3.908   3.706   3.773
 6091SOL     OW18808   5.016   2.781   2.534
 6091SOL    HW118809   5.094   2.727   2.521
 6091SOL    HW218810   5.035   2.862   2.485
 6092SOL     OW18811   4.538   3.135   3.292
 6092SOL    HW118812   4.510   3.175   3.375
 6092SOL    HW218813   4.468   3.158   3.230
 6093SOL     OW18814   4.395   3.482   2.017
 6093SOL    HW118815   4.406   3.494   1.923
 6093SOL    HW218816   4.340   3.404   2.025
 6094SOL     OW18817   3.986   2.178   2.579
 6094SOL    HW118818   3.901   2.214   2.555
 6094SOL    HW218819   3.983   2.170   2.674
 6095SOL     OW18820   4.908   3.471   1.904
 6095SOL    HW118821   4.920   3.377   1.914
 6095SOL    HW218822   4.854   3.480   1.825
 6096SOL     OW18823   4.548   2.868   3.235
 6096SOL    HW118824   4.591   2.864   3.149
 6096SOL    HW218825   4.547   2.961   3.256
 6097SOL     OW18826   4.640   2.773   2.152
 6097SOL    HW118827   4.702   2.805   2.086
 6097SOL    HW218828   4.687   2.702   2.197
 6098SOL     OW18829   4.094   3.166   3.353
 6098SOL    HW118830   4.079   3.242   3.298
 6098SOL    HW218831   4.018   3.109   3.337
 6099SOL     OW18832   4.776   2.969   2.568
 6099SOL    HW118833   4.705   2.919   2.609
 6099SOL    HW218834   4.834   2.902   2.532
 6100SOL     OW18835   4.739   2.101   2.830
 6100SOL    HW118836   4.737   2.054   2.747
 6100SOL    HW218837   4.736   2.033   2.897
 6101SOL     OW18838   4.327   3.350   2.344
 6101SOL    HW118839   4.371   3.300   2.275
 6101SOL    HW218840   4.258   3.398   2.298
 6102SOL     OW18841   3.983   3.207   2.150
 6102SOL    HW118842   3.890   3.205   2.128
 6102SOL    HW218843   3.986   3.244   2.239
 6103SOL     OW18844   3.849   2.896   3.586
 6103SOL    HW118845   3.771   2.867   3.633
 6103SOL    HW218846   3.921   2.850   3.629
 6104SOL     OW18847   4.398   2.058   3.361
 6104SOL    HW118848   4.482   2.038   3.320
 6104SOL    HW218849   4.421   2.090   3.449
 6105SOL     OW18850   3.802   2.196   1.897
 6105SOL    HW118851   3.715   2.176   1.862
 6105SOL    HW218852   3.832   2.271   1.846
 6106SOL     OW18853   5.162   2.722   3.266
 6106SOL    HW118854   5.111   2.779   3.209
 6106SOL    HW218855   5.252   2.729   3.232
 6107SOL     OW18856   3.792   2.018   2.172
 6107SOL    HW118857   3.778   2.098   2.121
 6107SOL    HW218858   3.877   1.985   2.142
 6108SOL     OW18859   4.907   3.191   1.976
 6108SOL    HW118860   4.813   3.173   1.977
 6108SOL    HW218861   4.931   3.198   2.068
 6109SOL     OW18862   4.343   2.693   3.295
 6109SOL    HW118863   4.399   2.769   3.280
 6109SOL    HW218864   4.404   2.619   3.303
 6110SOL     OW18865   4.442   2.425   3.566
 6110SOL    HW118866   4.482   2.487   3.627
 6110SOL    HW218867   4.468   2.339   3.598
 6111SOL     OW18868   5.182   3.066   3.494
 6111SOL    HW118869   5.173   3.079   3.589
 6111SOL    HW218870   5.276   3.073   3.478
 6112SOL     OW18871   4.103   3.601   3.427
 6112SOL    HW118872   4.018   3.643   3.413
 6112SOL    HW218873   4.083   3.517   3.468
 6113SOL     OW18874   4.940   2.182   2.318
 6113SOL    HW118875   5.002   2.110   2.305
 6113SOL    HW218876   4.970   2.226   2.397
 6114SOL     OW18877   4.315   2.599   2.531
 6114SOL    HW118878   4.353   2.686   2.516
 6114SOL    HW218879   4.246   2.592   2.464
 6115SOL     OW18880   4.590   3.228   1.897
 6115SOL    HW118881   4.549   3.258   1.978
 6115SOL    HW218882   4.606   3.308   1.847
 6116SOL     OW18883   4.384   3.653   2.806
 6116SOL    HW118884   4.365   3.744   2.783
 6116SOL    HW218885   4.479   3.647   2.800
 6117SOL     OW18886   4.592   2.829   2.717
 6117SOL    HW118887   4.642   2.758   2.757
 6117SOL    HW218888   4.556   2.878   2.792
 6118SOL     OW18889   4.806   2.849   1.952
 6118SOL    HW118890   4.782   2.899   1.874
 6118SOL    HW218891   4.881   2.796   1.925
 6119SOL     OW18892   3.949   3.165   3.717
 6119SOL    HW118893   3.886   3.100   3.686
 6119SOL    HW218894   3.929   3.175   3.810
 6120SOL     OW18895   3.806   3.094   2.526
 6120SOL    HW118896   3.813   3.049   2.610
 6120SOL    HW218897   3.876   3.056   2.473
 6121SOL     OW18898   4.405   3.264   3.491
 6121SOL    HW118899   4.325   3.222   3.521
 6121SOL    HW218900   4.401   3.353   3.526
 6122SOL     OW18901   4.153   2.296   2.387
 6122SOL    HW118902   4.183   2.225   2.331
 6122SOL    HW218903   4.105   2.252   2.458
 6123SOL     OW18904   0.095   3.382   2.961
 6123SOL    HW118905   0.028   3.359   2.898
 6123SOL    HW218906   0.101   3.307   3.020
 6124SOL     OW18907   4.054   2.417   3.154
 6124SOL    HW118908   4.110   2.362   3.209
 6124SOL    HW218909   4.073   2.389   3.064
 6125SOL     OW18910   4.552   3.439   2.539
 6125SOL    HW118911   4.540   3.493   2.461
 6125SOL    HW218912   4.475   3.383   2.542
 6126SOL     OW18913   5.147   2.081   2.977
 6126SOL    HW118914   5.193   2.016   3.031
 6126SOL    HW218915   5.101   2.136   3.040
 6127SOL     OW18916   4.730   1.881   3.004
 6127SOL    HW118917   4.677   1.812   2.963
 6127SOL    HW218918   4.818   1.843   3.009
 6128SOL     OW18919   4.495   3.195   2.177
 6128SOL    HW118920   4.464   3.104   2.183
 6128SOL    HW218921   4.577   3.196   2.226
 6129SOL     OW18922   4.344   3.418   3.147
 6129SOL    HW118923   4.346   3.500   3.196
 6129SOL    HW218924   4.431   3.411   3.109
 6130SOL     OW18925   5.058   1.908   2.029
 6130SOL    HW118926   5.081   1.867   1.946
 6130SOL    HW218927   4.973   1.870   2.051
 6131SOL     OW18928   5.028   2.320   2.544
 6131SOL    HW118929   4.973   2.399   2.548
 6131SOL    HW218930   5.017   2.279   2.630
 6132SOL     OW18931   0.002   2.087   2.742
 6132SOL    HW118932   5.236   2.075   2.811
 6132SOL    HW218933   5.275   2.168   2.697
 6133SOL     OW18934   3.767   2.933   2.168
 6133SOL    HW118935   3.861   2.925   2.151
 6133SOL    HW218936   3.739   2.844   2.190
 6134SOL     OW18937   4.604   3.512   2.208
 6134SOL    HW118938   4.533   3.497   2.145
 6134SOL    HW218939   4.577   3.589   2.257
 6135SOL     OW18940   3.954   2.482   3.849
 6135SOL    HW118941   3.865   2.485   3.884
 6135SOL    HW218942   3.943   2.459   3.757
 6136SOL     OW18943   3.948   2.142   4.715
 6136SOL    HW118944   3.977   2.109   4.800
 6136SOL    HW218945   3.858   2.111   4.706
 6137SOL     OW18946   3.740   2.244   4.361
 6137SOL    HW118947   3.663   2.268   4.413
 6137SOL    HW218948   3.710   2.172   4.306
 6138SOL     OW18949   4.291   3.149   4.899
 6138SOL    HW118950   4.204   3.153   4.860
 6138SOL    HW218951   4.306   3.238   4.932
 6139SOL     OW18952   5.285   3.398   4.430
 6139SOL    HW118953   5.246   3.355   4.506
 6139SOL    HW218954   5.220   3.389   4.361
 6140SOL     OW18955   4.858   2.561   4.424
 6140SOL    HW118956   4.909   2.642   4.414
 6140SOL    HW218957   4.810   2.573   4.505
 6141SOL     OW18958   4.479   3.004   4.765
 6141SOL    HW118959   4.410   3.039   4.822
 6141SOL    HW218960   4.514   3.081   4.720
 6142SOL     OW18961   4.592   2.636   5.546
 6142SOL    HW118962   4.576   2.708   5.608
 6142SOL    HW218963   4.614   2.679   5.464
 6143SOL     OW18964   4.411   2.864   4.371
 6143SOL    HW118965   4.475   2.853   4.441
 6143SOL    HW218966   4.341   2.916   4.410
 6144SOL     OW18967   4.434   3.013   5.537
 6144SOL    HW118968   4.482   3.091   5.564
 6144SOL    HW218969   4.352   3.046   5.501
 6145SOL     OW18970   4.054   3.288   4.792
 6145SOL    HW118971   3.982   3.249   4.742
 6145SOL    HW218972   4.104   3.338   4.728
 6146SOL     OW18973   5.161   3.343   5.075
 6146SOL    HW118974   5.206   3.423   5.100
 6146SOL    HW218975   5.106   3.322   5.151
 6147SOL     OW18976   4.173   2.260   5.211
 6147SOL    HW118977   4.248   2.201   5.217
 6147SOL    HW218978   4.097   2.204   5.224
 6148SOL     OW18979   3.943   3.577   4.196
 6148SOL    HW118980   3.965   3.653   4.250
 6148SOL    HW218981   4.016   3.568   4.135
 6149SOL     OW18982   4.860   3.202   5.418
 6149SOL    HW118983   4.899   3.198   5.505
 6149SOL    HW218984   4.807   3.122   5.411
 6150SOL     OW18985   3.957   3.304   4.259
 6150SOL    HW118986   3.937   3.398   4.263
 6150SOL    HW218987   3.897   3.264   4.322
 6151SOL     OW18988   3.986   2.953   4.619
 6151SOL    HW118989   3.979   2.866   4.658
 6151SOL    HW218990   3.925   3.007   4.668
 6152SOL     OW18991   4.333   3.655   5.151
 6152SOL    HW118992   4.252   3.637   5.199
 6152SOL    HW218993   4.358   3.743   5.177
 6153SOL     OW18994   4.311   2.843   3.858
 6153SOL    HW118995   4.356   2.893   3.790
 6153SOL    HW218996   4.350   2.874   3.940
 6154SOL     OW18997   3.842   2.515   4.283
 6154SOL    HW118998   3.816   2.425   4.302
 6154SOL    HW218999   3.838   2.560   4.367
 6155SOL     OW19000   3.753   3.457   3.847
 6155SOL    HW119001   3.740   3.364   3.869
 6155SOL    HW219002   3.732   3.504   3.927
 6156SOL     OW19003   0.112   2.803   4.300
 6156SOL    HW119004   0.198   2.765   4.315
 6156SOL    HW219005   0.129   2.887   4.258
 6157SOL     OW19006   3.847   2.604   5.310
 6157SOL    HW119007   3.939   2.629   5.317
 6157SOL    HW219008   3.799   2.687   5.318
 6158SOL     OW19009   4.337   3.248   4.459
 6158SOL    HW119010   4.291   3.164   4.468
 6158SOL    HW219011   4.321   3.274   4.369
 6159SOL     OW19012   5.007   3.099   5.149
 6159SOL    HW119013   5.040   3.032   5.089
 6159SOL    HW219014   5.062   3.091   5.227
 6160SOL     OW19015   4.538   1.862   4.233
 6160SOL    HW119016   4.579   1.947   4.213
 6160SOL    HW219017   4.445   1.882   4.242
 6161SOL     OW19018   3.913   2.827   4.995
 6161SOL    HW119019   3.999   2.786   4.980
 6161SOL    HW219020   3.852   2.773   4.946
 6162SOL     OW19021   4.896   3.669   5.347
 6162SOL    HW119022   4.918   3.728   5.275
 6162SOL    HW219023   4.919   3.582   5.315
 6163SOL     OW19024   4.057   2.112   5.536
 6163SOL    HW119025   4.102   2.195   5.552
 6163SOL    HW219026   3.968   2.126   5.567
 6164SOL     OW19027   5.168   3.297   4.660
 6164SOL    HW119028   5.106   3.304   4.732
 6164SOL    HW219029   5.162   3.206   4.632
 6165SOL     OW19030   4.320   2.583   3.990
 6165SOL    HW119031   4.325   2.665   3.940
 6165SOL    HW219032   4.254   2.601   4.058
 6166SOL     OW19033   4.996   2.199   4.643
 6166SOL    HW119034   4.907   2.169   4.665
 6166SOL    HW219035   5.050   2.164   4.714
 6167SOL     OW19036   4.515   2.480   5.175
 6167SOL    HW119037   4.489   2.456   5.264
 6167SOL    HW219038   4.475   2.413   5.119
 6168SOL     OW19039   5.115   2.342   5.404
 6168SOL    HW119040   5.116   2.380   5.492
 6168SOL    HW219041   5.191   2.284   5.402
 6169SOL     OW19042   4.678   2.750   5.306
 6169SOL    HW119043   4.731   2.678   5.271
 6169SOL    HW219044   4.630   2.784   5.231
 6170SOL     OW19045   4.715   2.275   4.962
 6170SOL    HW119046   4.629   2.296   4.998
 6170SOL    HW219047   4.696   2.228   4.881
 6171SOL     OW19048   4.775   2.560   4.149
 6171SOL    HW119049   4.790   2.554   4.244
 6171SOL    HW219050   4.692   2.514   4.136
 6172SOL     OW19051   3.825   2.667   4.505
 6172SOL    HW119052   3.903   2.673   4.560
 6172SOL    HW219053   3.775   2.746   4.527
 6173SOL     OW19054   3.851   3.709   5.302
 6173SOL    HW119055   3.851   3.689   5.395
 6173SOL    HW219056   3.759   3.702   5.276
 6174SOL     OW19057   4.617   2.209   3.918
 6174SOL    HW119058   4.657   2.271   3.856
 6174SOL    HW219059   4.633   2.123   3.880
 6175SOL     OW19060   5.092   3.009   4.272
 6175SOL    HW119061   5.180   3.009   4.233
 6175SOL    HW219062   5.041   3.068   4.216
 6176SOL     OW19063   4.273   2.043   4.617
 6176SOL    HW119064   4.276   2.073   4.708
 6176SOL    HW219065   4.275   2.124   4.566
 6177SOL     OW19066   4.730   3.305   4.196
 6177SOL    HW119067   4.692   3.377   4.147
 6177SOL    HW219068   4.712   3.327   4.288
 6178SOL     OW19069   4.079   3.671   4.587
 6178SOL    HW119070   4.122   3.586   4.594
 6178SOL    HW219071   4.147   3.735   4.604
 6179SOL     OW19072   4.940   3.404   5.244
 6179SOL    HW119073   4.927   3.331   5.303
 6179SOL    HW219074   4.883   3.385   5.169
 6180SOL     OW19075   4.046   2.820   3.975
 6180SOL    HW119076   4.127   2.837   3.927
 6180SOL    HW219077   4.013   2.739   3.937
 6181SOL     OW19078   4.190   3.126   5.462
 6181SOL    HW119079   4.163   3.131   5.370
 6181SOL    HW219080   4.108   3.125   5.511
 6182SOL     OW19081   4.832   3.637   3.961
 6182SOL    HW119082   4.760   3.592   4.005
 6182SOL    HW219083   4.857   3.577   3.890
 6183SOL     OW19084   3.925   2.143   5.224
 6183SOL    HW119085   3.843   2.193   5.220
 6183SOL    HW219086   3.907   2.074   5.288
 6184SOL     OW19087   4.190   3.599   4.045
 6184SOL    HW119088   4.232   3.656   4.109
 6184SOL    HW219089   4.261   3.568   3.989
 6185SOL     OW19090   5.121   1.969   4.148
 6185SOL    HW119091   5.101   1.951   4.056
 6185SOL    HW219092   5.215   1.985   4.150
 6186SOL     OW19093   3.978   3.653   4.956
 6186SOL    HW119094   4.032   3.588   5.001
 6186SOL    HW219095   3.970   3.619   4.867
 6187SOL     OW19096   4.662   3.560   4.623
 6187SOL    HW119097   4.742   3.510   4.640
 6187SOL    HW219098   4.618   3.511   4.554
 6188SOL     OW19099   4.118   2.558   4.200
 6188SOL    HW119100   4.138   2.465   4.211
 6188SOL    HW219101   4.024   2.565   4.216
 6189SOL     OW19102   4.359   1.984   3.830
 6189SOL    HW119103   4.429   1.920   3.841
 6189SOL    HW219104   4.310   1.953   3.754
 6190SOL     OW19105   4.490   2.141   5.478
 6190SOL    HW119106   4.566   2.083   5.479
 6190SOL    HW219107   4.441   2.117   5.558
 6191SOL     OW19108   4.599   3.383   4.918
 6191SOL    HW119109   4.584   3.348   4.830
 6191SOL    HW219110   4.670   3.329   4.954
 6192SOL     OW19111   5.057   2.453   5.156
 6192SOL    HW119112   5.090   2.421   5.240
 6192SOL    HW219113   5.100   2.538   5.145
 6193SOL     OW19114   4.538   3.256   4.663
 6193SOL    HW119115   4.623   3.245   4.620
 6193SOL    HW219116   4.474   3.258   4.592
 6194SOL     OW19117   4.651   2.371   4.627
 6194SOL    HW119118   4.628   2.362   4.534
 6194SOL    HW219119   4.683   2.284   4.652
 6195SOL     OW19120   4.273   1.925   4.226
 6195SOL    HW119121   4.192   1.926   4.277
 6195SOL    HW219122   4.267   2.003   4.171
 6196SOL     OW19123   5.136   3.043   3.768
 6196SOL    HW119124   5.145   2.964   3.822
 6196SOL    HW219125   5.049   3.076   3.788
 6197SOL     OW19126   4.015   1.909   3.909
 6197SOL    HW119127   4.072   1.974   3.868
 6197SOL    HW219128   4.074   1.847   3.950
 6198SOL     OW19129   4.661   2.108   4.184
 6198SOL    HW119130   4.634   2.149   4.101
 6198SOL    HW219131   4.756   2.121   4.187
 6199SOL     OW19132   4.801   2.543   5.185
 6199SOL    HW119133   4.734   2.475   5.187
 6199SOL    HW219134   4.883   2.495   5.175
 6200SOL     OW19135   4.940   3.433   4.518
 6200SOL    HW119136   4.962   3.500   4.453
 6200SOL    HW219137   5.021   3.421   4.569
 6201SOL     OW19138   4.194   3.011   4.457
 6201SOL    HW119139   4.125   2.992   4.521
 6201SOL    HW219140   4.153   2.995   4.372
 6202SOL     OW19141   4.996   3.656   4.329
 6202SOL    HW119142   5.038   3.717   4.269
 6202SOL    HW219143   4.929   3.708   4.374
 6203SOL     OW19144   4.748   2.405   3.746
 6203SOL    HW119145   4.704   2.488   3.726
 6203SOL    HW219146   4.809   2.428   3.816
 6204SOL     OW19147   3.802   2.416   5.116
 6204SOL    HW119148   3.894   2.415   5.088
 6204SOL    HW219149   3.798   2.486   5.180
 6205SOL     OW19150   4.283   2.089   4.890
 6205SOL    HW119151   4.325   2.013   4.930
 6205SOL    HW219152   4.192   2.085   4.920
 6206SOL     OW19153   4.592   2.321   4.363
 6206SOL    HW119154   4.546   2.376   4.300
 6206SOL    HW219155   4.613   2.241   4.315
 6207SOL     OW19156   4.739   1.915   4.476
 6207SOL    HW119157   4.681   1.908   4.400
 6207SOL    HW219158   4.717   1.839   4.530
 6208SOL     OW19159   5.157   3.038   4.575
 6208SOL    HW119160   5.101   2.961   4.588
 6208SOL    HW219161   5.169   3.043   4.480
 6209SOL     OW19162   4.215   3.280   3.880
 6209SOL    HW119163   4.140   3.251   3.932
 6209SOL    HW219164   4.200   3.241   3.794
 6210SOL     OW19165   5.127   2.424   3.804
 6210SOL    HW119166   5.054   2.414   3.865
 6210SOL    HW219167   5.202   2.386   3.850
 6211SOL     OW19168   4.250   2.125   4.042
 6211SOL    HW119169   4.294   2.077   3.972
 6211SOL    HW219170   4.227   2.209   4.003
 6212SOL     OW19171   4.781   3.216   5.057
 6212SOL    HW119172   4.705   3.185   5.108
 6212SOL    HW219173   4.856   3.173   5.098
 6213SOL     OW19174   0.006   3.466   5.340
 6213SOL    HW119175   0.040   3.471   5.251
 6213SOL    HW219176   0.083   3.446   5.394
 6214SOL     OW19177   4.853   3.065   4.830
 6214SOL    HW119178   4.791   3.101   4.894
 6214SOL    HW219179   4.819   3.095   4.746
 6215SOL     OW19180   4.642   1.960   5.120
 6215SOL    HW119181   4.664   1.941   5.029
 6215SOL    HW219182   4.721   1.999   5.157
 6216SOL     OW19183   4.709   2.975   5.449
 6216SOL    HW119184   4.617   2.993   5.469
 6216SOL    HW219185   4.706   2.898   5.392
 6217SOL     OW19186   4.433   2.924   4.095
 6217SOL    HW119187   4.418   2.907   4.188
 6217SOL    HW219188   4.509   2.870   4.072
 6218SOL     OW19189   4.143   2.677   4.976
 6218SOL    HW119190   4.211   2.686   5.042
 6218SOL    HW219191   4.108   2.589   4.990
 6219SOL     OW19192   4.988   2.237   5.001
 6219SOL    HW119193   5.023   2.316   5.042
 6219SOL    HW219194   4.899   2.260   4.976
 6220SOL     OW19195   3.795   3.434   5.076
 6220SOL    HW119196   3.766   3.508   5.022
 6220SOL    HW219197   3.891   3.438   5.071
 6221SOL     OW19198   4.074   2.971   4.215
 6221SOL    HW119199   4.076   3.045   4.154
 6221SOL    HW219200   4.071   2.894   4.159
 6222SOL     OW19201   4.276   2.399   4.584
 6222SOL    HW119202   4.291   2.457   4.510
 6222SOL    HW219203   4.342   2.425   4.649
 6223SOL     OW19204   4.972   3.211   4.111
 6223SOL    HW119205   5.026   3.284   4.142
 6223SOL    HW219206   4.884   3.231   4.145
 6224SOL     OW19207   4.994   3.318   4.863
 6224SOL    HW119208   5.049   3.320   4.942
 6224SOL    HW219209   4.940   3.240   4.874
 6225SOL     OW19210   4.071   3.388   5.039
 6225SOL    HW119211   4.059   3.347   4.954
 6225SOL    HW219212   4.166   3.401   5.047
 6226SOL     OW19213   4.138   2.606   5.326
 6226SOL    HW119214   4.200   2.651   5.268
 6226SOL    HW219215   4.178   2.521   5.342
 6227SOL     OW19216   4.718   1.987   5.479
 6227SOL    HW119217   4.775   2.059   5.453
 6227SOL    HW219218   4.765   1.908   5.454
 6228SOL     OW19219   4.222   1.903   5.472
 6228SOL    HW119220   4.179   1.848   5.406
 6228SOL    HW219221   4.163   1.977   5.484
 6229SOL     OW19222   4.309   2.734   4.757
 6229SOL    HW119223   4.338   2.826   4.754
 6229SOL    HW219224   4.251   2.730   4.833
 6230SOL     OW19225   5.086   2.719   4.761
 6230SOL    HW119226   5.009   2.701   4.707
 6230SOL    HW219227   5.138   2.639   4.756
 6231SOL     OW19228   4.928   2.393   3.989
 6231SOL    HW119229   4.935   2.313   4.041
 6231SOL    HW219230   4.885   2.456   4.046
 6232SOL     OW19231   4.022   2.060   4.970
 6232SOL    HW119232   3.986   2.093   5.052
 6232SOL    HW219233   4.003   1.966   4.971
 6233SOL     OW19234   3.757   3.172   5.003
 6233SOL    HW119235   3.798   3.118   5.071
 6233SOL    HW219236   3.773   3.262   5.032
 6234SOL     OW19237   4.448   2.493   4.782
 6234SOL    HW119238   4.523   2.477   4.724
 6234SOL    HW219239   4.420   2.582   4.761
 6235SOL     OW19240   4.026   1.925   4.347
 6235SOL    HW119241   4.010   2.016   4.370
 6235SOL    HW219242   4.035   1.880   4.432
 6236SOL     OW19243   0.035   2.256   4.083
 6236SOL    HW119244   0.054   2.181   4.140
 6236SOL    HW219245   0.018   2.328   4.144
 6237SOL     OW19246   4.751   2.621   4.684
 6237SOL    HW119247   4.749   2.639   4.778
 6237SOL    HW219248   4.725   2.529   4.676
 6238SOL     OW19249   4.697   3.423   5.438
 6238SOL    HW119250   4.686   3.471   5.356
 6238SOL    HW219251   4.746   3.344   5.414
 6239SOL     OW19252   4.077   2.778   5.533
 6239SOL    HW119253   4.159   2.797   5.578
 6239SOL    HW219254   4.101   2.715   5.464
 6240SOL     OW19255   5.027   2.691   3.761
 6240SOL    HW119256   5.065   2.603   3.763
 6240SOL    HW219257   5.054   2.726   3.676
 6241SOL     OW19258   4.789   3.196   4.580
 6241SOL    HW119259   4.793   3.124   4.516
 6241SOL    HW219260   4.847   3.263   4.543
 6242SOL     OW19261   4.036   2.672   4.676
 6242SOL    HW119262   4.129   2.693   4.668
 6242SOL    HW219263   4.035   2.582   4.707
 6243SOL     OW19264   4.055   2.388   4.737
 6243SOL    HW119265   4.020   2.300   4.721
 6243SOL    HW219266   4.131   2.393   4.679
 6244SOL     OW19267   4.856   2.238   5.405
 6244SOL    HW119268   4.809   2.293   5.467
 6244SOL    HW219269   4.944   2.277   5.400
 6245SOL     OW19270   4.885   2.064   5.193
 6245SOL    HW119271   4.874   2.126   5.265
 6245SOL    HW219272   4.924   2.116   5.122
 6246SOL     OW19273   3.727   3.185   3.918
 6246SOL    HW119274   3.641   3.194   3.879
 6246SOL    HW219275   3.731   3.094   3.948
 6247SOL     OW19276   3.815   3.650   4.663
 6247SOL    HW119277   3.784   3.570   4.619
 6247SOL    HW219278   3.904   3.662   4.631
 6248SOL     OW19279   4.221   3.436   4.630
 6248SOL    HW119280   4.289   3.498   4.654
 6248SOL    HW219281   4.264   3.372   4.573
 6249SOL     OW19282   4.707   2.654   4.950
 6249SOL    HW119283   4.762   2.631   5.025
 6249SOL    HW219284   4.621   2.617   4.972
 6250SOL     OW19285   3.759   2.399   4.840
 6250SOL    HW119286   3.842   2.395   4.791
 6250SOL    HW219287   3.785   2.408   4.931
 6251SOL     OW19288   3.915   2.381   5.451
 6251SOL    HW119289   3.972   2.343   5.385
 6251SOL    HW219290   3.873   2.455   5.407
 6252SOL     OW19291   5.112   2.800   5.390
 6252SOL    HW119292   5.121   2.895   5.378
 6252SOL    HW219293   5.115   2.764   5.302
 6253SOL     OW19294   4.540   2.431   4.083
 6253SOL    HW119295   4.543   2.357   4.024
 6253SOL    HW219296   4.466   2.484   4.053
 6254SOL     OW19297   3.967   3.413   5.451
 6254SOL    HW119298   3.945   3.478   5.519
 6254SOL    HW219299   3.969   3.330   5.498
 6255SOL     OW19300   4.424   2.312   4.983
 6255SOL    HW119301   4.372   2.238   4.953
 6255SOL    HW219302   4.421   2.375   4.911
 6256SOL     OW19303   4.644   3.542   5.193
 6256SOL    HW119304   4.623   3.509   5.105
 6256SOL    HW219305   4.646   3.637   5.183
 6257SOL     OW19306   4.189   2.354   3.912
 6257SOL    HW119307   4.246   2.428   3.933
 6257SOL    HW219308   4.103   2.394   3.898
 6258SOL     OW19309   3.869   3.003   5.195
 6258SOL    HW119310   3.873   2.952   5.276
 6258SOL    HW219311   3.887   2.939   5.126
 6259SOL     OW19312   5.054   2.911   4.948
 6259SOL    HW119313   5.075   2.846   4.881
 6259SOL    HW219314   4.982   2.962   4.910
 6260SOL     OW19315   5.035   2.721   4.040
 6260SOL    HW119316   4.953   2.689   4.077
 6260SOL    HW219317   5.023   2.713   3.946
 6261SOL     OW19318   4.959   3.593   4.845
 6261SOL    HW119319   5.045   3.614   4.808
 6261SOL    HW219320   4.960   3.498   4.855
 6262SOL     OW19321   3.808   3.131   4.737
 6262SOL    HW119322   3.789   3.140   4.831
 6262SOL    HW219323   3.740   3.072   4.705
 6263SOL     OW19324   4.401   3.527   5.453
 6263SOL    HW119325   4.349   3.607   5.446
 6263SOL    HW219326   4.470   3.538   5.387
 6264SOL     OW19327   0.081   2.022   4.254
 6264SOL    HW119328   0.165   2.009   4.211
 6264SOL    HW219329   0.067   1.943   4.306
 6265SOL     OW19330   5.111   3.432   4.205
 6265SOL    HW119331   5.181   3.473   4.153
 6265SOL    HW219332   5.061   3.506   4.240
 6266SOL     OW19333   3.860   3.659   5.567
 6266SOL    HW119334   3.809   3.593   5.616
 6266SOL    HW219335   3.908   3.706   5.635
 6267SOL     OW19336   5.016   2.781   4.396
 6267SOL    HW119337   5.094   2.727   4.383
 6267SOL    HW219338   5.035   2.862   4.347
 6268SOL     OW19339   4.538   3.135   5.154
 6268SOL    HW119340   4.510   3.175   5.237
 6268SOL    HW219341   4.469   3.158   5.092
 6269SOL     OW19342   4.395   3.482   3.879
 6269SOL    HW119343   4.406   3.494   3.785
 6269SOL    HW219344   4.340   3.404   3.887
 6270SOL     OW19345   3.992   2.176   4.442
 6270SOL    HW119346   3.908   2.212   4.415
 6270SOL    HW219347   3.987   2.169   4.537
 6271SOL     OW19348   4.908   3.471   3.766
 6271SOL    HW119349   4.920   3.377   3.776
 6271SOL    HW219350   4.854   3.480   3.688
 6272SOL     OW19351   4.548   2.868   5.096
 6272SOL    HW119352   4.591   2.864   5.011
 6272SOL    HW219353   4.547   2.961   5.118
 6273SOL     OW19354   4.641   2.773   4.014
 6273SOL    HW119355   4.702   2.805   3.948
 6273SOL    HW219356   4.688   2.702   4.059
 6274SOL     OW19357   4.092   3.165   5.216
 6274SOL    HW119358   4.080   3.242   5.161
 6274SOL    HW219359   4.016   3.110   5.199
 6275SOL     OW19360   4.776   2.969   4.431
 6275SOL    HW119361   4.705   2.919   4.471
 6275SOL    HW219362   4.834   2.903   4.393
 6276SOL     OW19363   4.739   2.101   4.692
 6276SOL    HW119364   4.737   2.054   4.609
 6276SOL    HW219365   4.736   2.033   4.759
 6277SOL     OW19366   4.327   3.351   4.206
 6277SOL    HW119367   4.371   3.300   4.137
 6277SOL    HW219368   4.257   3.397   4.160
 6278SOL     OW19369   3.983   3.208   4.012
 6278SOL    HW119370   3.890   3.204   3.990
 6278SOL    HW219371   3.986   3.245   4.100
 6279SOL     OW19372   3.837   2.884   5.443
 6279SOL    HW119373   3.761   2.861   5.496
 6279SOL    HW219374   3.911   2.846   5.490
 6280SOL     OW19375   4.398   2.058   5.223
 6280SOL    HW119376   4.482   2.038   5.182
 6280SOL    HW219377   4.421   2.090   5.311
 6281SOL     OW19378   3.805   2.191   3.757
 6281SOL    HW119379   3.713   2.180   3.731
 6281SOL    HW219380   3.834   2.269   3.709
 6282SOL     OW19381   5.162   2.722   5.128
 6282SOL    HW119382   5.111   2.779   5.071
 6282SOL    HW219383   5.252   2.728   5.094
 6283SOL     OW19384   3.790   2.019   4.035
 6283SOL    HW119385   3.775   2.100   3.987
 6283SOL    HW219386   3.875   1.987   4.004
 6284SOL     OW19387   4.906   3.191   3.838
 6284SOL    HW119388   4.812   3.173   3.839
 6284SOL    HW219389   4.930   3.198   3.930
 6285SOL     OW19390   4.343   2.693   5.158
 6285SOL    HW119391   4.399   2.769   5.142
 6285SOL    HW219392   4.404   2.619   5.166
 6286SOL     OW19393   4.441   2.425   5.428
 6286SOL    HW119394   4.482   2.487   5.489
 6286SOL    HW219395   4.468   2.339   5.460
 6287SOL     OW19396   5.182   3.066   5.356
 6287SOL    HW119397   5.173   3.079   5.451
 6287SOL    HW219398   5.276   3.073   5.340
 6288SOL     OW19399   4.103   3.601   5.289
 6288SOL    HW119400   4.018   3.643   5.274
 6288SOL    HW219401   4.083   3.518   5.330
 6289SOL     OW19402   4.940   2.182   4.180
 6289SOL    HW119403   5.002   2.110   4.167
 6289SOL    HW219404   4.970   2.226   4.259
 6290SOL     OW19405   4.314   2.600   4.394
 6290SOL    HW119406   4.353   2.686   4.378
 6290SOL    HW219407   4.247   2.592   4.327
 6291SOL     OW19408   4.591   3.228   3.759
 6291SOL    HW119409   4.549   3.258   3.840
 6291SOL    HW219410   4.606   3.308   3.709
 6292SOL     OW19411   4.384   3.653   4.668
 6292SOL    HW119412   4.365   3.744   4.645
 6292SOL    HW219413   4.479   3.647   4.662
 6293SOL     OW19414   4.592   2.829   4.579
 6293SOL    HW119415   4.642   2.758   4.619
 6293SOL    HW219416   4.557   2.878   4.654
 6294SOL     OW19417   4.806   2.850   3.814
 6294SOL    HW119418   4.782   2.899   3.736
 6294SOL    HW219419   4.881   2.796   3.787
 6295SOL     OW19420   3.949   3.165   5.580
 6295SOL    HW119421   3.881   3.104   5.551
 6295SOL    HW219422   3.932   3.177   5.673
 6296SOL     OW19423   3.811   3.100   4.389
 6296SOL    HW119424   3.806   3.046   4.468
 6296SOL    HW219425   3.877   3.056   4.334
 6297SOL     OW19426   4.405   3.264   5.352
 6297SOL    HW119427   4.325   3.222   5.384
 6297SOL    HW219428   4.401   3.353   5.388
 6298SOL     OW19429   4.154   2.296   4.249
 6298SOL    HW119430   4.184   2.226   4.191
 6298SOL    HW219431   4.108   2.251   4.320
 6299SOL     OW19432   0.095   3.383   4.824
 6299SOL    HW119433   0.027   3.359   4.760
 6299SOL    HW219434   0.102   3.307   4.881
 6300SOL     OW19435   4.054   2.417   5.016
 6300SOL    HW119436   4.109   2.362   5.071
 6300SOL    HW219437   4.073   2.389   4.926
 6301SOL     OW19438   4.552   3.439   4.401
 6301SOL    HW119439   4.540   3.493   4.323
 6301SOL    HW219440   4.475   3.383   4.403
 6302SOL     OW19441   5.147   2.081   4.839
 6302SOL    HW119442   5.193   2.016   4.893
 6302SOL    HW219443   5.101   2.136   4.902
 6303SOL     OW19444   4.730   1.880   4.866
 6303SOL    HW119445   4.677   1.812   4.825
 6303SOL    HW219446   4.818   1.843   4.871
 6304SOL     OW19447   4.495   3.195   4.039
 6304SOL    HW119448   4.464   3.104   4.045
 6304SOL    HW219449   4.577   3.195   4.087
 6305SOL     OW19450   4.344   3.418   5.009
 6305SOL    HW119451   4.346   3.501   5.058
 6305SOL    HW219452   4.431   3.411   4.971
 6306SOL     OW19453   5.058   1.908   3.891
 6306SOL    HW119454   5.081   1.867   3.808
 6306SOL    HW219455   4.973   1.870   3.913
 6307SOL     OW19456   5.028   2.320   4.406
 6307SOL    HW119457   4.973   2.399   4.410
 6307SOL    HW219458   5.017   2.279   4.492
 6308SOL     OW19459   0.002   2.087   4.604
 6308SOL    HW119460   5.236   2.075   4.673
 6308SOL    HW219461   5.276   2.167   4.559
 6309SOL     OW19462   3.786   2.934   4.019
 6309SOL    HW119463   3.879   2.918   4.004
 6309SOL    HW219464   3.750   2.849   4.043
 6310SOL     OW19465   4.604   3.512   4.070
 6310SOL    HW119466   4.533   3.497   4.007
 6310SOL    HW219467   4.576   3.589   4.119
 6311SOL     OW19468   3.953   2.485   5.709
 6311SOL    HW119469   3.864   2.484   5.743
 6311SOL    HW219470   3.944   2.460   5.617
 6312SOL     OW19471   3.949   2.143   6.578
 6312SOL    HW119472   3.977   2.109   6.662
 6312SOL    HW219473   3.859   2.111   6.568
 6313SOL     OW19474   3.728   2.245   6.224
 6313SOL    HW119475   3.645   2.270   6.265
 6313SOL    HW219476   3.707   2.165   6.175
 6314SOL     OW19477   4.291   3.150   6.761
 6314SOL    HW119478   4.203   3.153   6.723
 6314SOL    HW219479   4.306   3.238   6.794
 6315SOL     OW19480   5.285   3.398   6.292
 6315SOL    HW119481   5.246   3.355   6.368
 6315SOL    HW219482   5.220   3.389   6.223
 6316SOL     OW19483   4.858   2.561   6.286
 6316SOL    HW119484   4.909   2.642   6.276
 6316SOL    HW219485   4.810   2.573   6.367
 6317SOL     OW19486   4.479   3.004   6.627
 6317SOL    HW119487   4.410   3.039   6.683
 6317SOL    HW219488   4.514   3.081   6.582
 6318SOL     OW19489   4.592   2.638   7.407
 6318SOL    HW119490   4.570   2.712   7.463
 6318SOL    HW219491   4.616   2.677   7.323
 6319SOL     OW19492   4.410   2.864   6.233
 6319SOL    HW119493   4.475   2.853   6.303
 6319SOL    HW219494   4.341   2.916   6.273
 6320SOL     OW19495   4.434   3.013   7.398
 6320SOL    HW119496   4.482   3.092   7.425
 6320SOL    HW219497   4.352   3.047   7.362
 6321SOL     OW19498   4.055   3.287   6.654
 6321SOL    HW119499   3.982   3.250   6.604
 6321SOL    HW219500   4.104   3.338   6.589
 6322SOL     OW19501   5.161   3.342   6.938
 6322SOL    HW119502   5.205   3.423   6.963
 6322SOL    HW219503   5.105   3.322   7.012
 6323SOL     OW19504   4.173   2.260   7.074
 6323SOL    HW119505   4.248   2.201   7.079
 6323SOL    HW219506   4.097   2.204   7.086
 6324SOL     OW19507   3.943   3.576   6.058
 6324SOL    HW119508   3.965   3.652   6.112
 6324SOL    HW219509   4.017   3.568   5.997
 6325SOL     OW19510   4.859   3.201   7.278
 6325SOL    HW119511   4.899   3.199   7.365
 6325SOL    HW219512   4.807   3.121   7.273
 6326SOL     OW19513   3.954   3.303   6.121
 6326SOL    HW119514   3.937   3.397   6.124
 6326SOL    HW219515   3.893   3.266   6.185
 6327SOL     OW19516   3.981   2.952   6.477
 6327SOL    HW119517   3.978   2.866   6.518
 6327SOL    HW219518   3.924   3.006   6.531
 6328SOL     OW19519   4.333   3.655   7.012
 6328SOL    HW119520   4.253   3.636   7.061
 6328SOL    HW219521   4.358   3.743   7.039
 6329SOL     OW19522   4.310   2.843   5.720
 6329SOL    HW119523   4.355   2.893   5.652
 6329SOL    HW219524   4.349   2.874   5.802
 6330SOL     OW19525   3.839   2.515   6.145
 6330SOL    HW119526   3.810   2.426   6.167
 6330SOL    HW219527   3.831   2.563   6.228
 6331SOL     OW19528   3.756   3.457   5.710
 6331SOL    HW119529   3.739   3.365   5.730
 6331SOL    HW219530   3.732   3.504   5.790
 6332SOL     OW19531   0.112   2.803   6.162
 6332SOL    HW119532   0.198   2.765   6.177
 6332SOL    HW219533   0.129   2.887   6.120
 6333SOL     OW19534   3.846   2.604   7.172
 6333SOL    HW119535   3.938   2.631   7.179
 6333SOL    HW219536   3.797   2.686   7.179
 6334SOL     OW19537   4.337   3.247   6.321
 6334SOL    HW119538   4.291   3.164   6.331
 6334SOL    HW219539   4.321   3.274   6.231
 6335SOL     OW19540   5.007   3.099   7.010
 6335SOL    HW119541   5.040   3.032   6.950
 6335SOL    HW219542   5.062   3.091   7.088
 6336SOL     OW19543   4.538   1.862   6.095
 6336SOL    HW119544   4.579   1.947   6.075
 6336SOL    HW219545   4.445   1.882   6.104
 6337SOL     OW19546   3.914   2.828   6.857
 6337SOL    HW119547   3.999   2.786   6.842
 6337SOL    HW219548   3.851   2.773   6.811
 6338SOL     OW19549   4.897   3.670   7.209
 6338SOL    HW119550   4.918   3.728   7.136
 6338SOL    HW219551   4.919   3.582   7.177
 6339SOL     OW19552   4.057   2.111   7.399
 6339SOL    HW119553   4.101   2.195   7.412
 6339SOL    HW219554   3.967   2.126   7.429
 6340SOL     OW19555   5.168   3.297   6.522
 6340SOL    HW119556   5.106   3.304   6.595
 6340SOL    HW219557   5.162   3.206   6.494
 6341SOL     OW19558   4.320   2.583   5.852
 6341SOL    HW119559   4.325   2.665   5.802
 6341SOL    HW219560   4.255   2.601   5.920
 6342SOL     OW19561   4.996   2.199   6.505
 6342SOL    HW119562   4.907   2.169   6.527
 6342SOL    HW219563   5.050   2.164   6.576
 6343SOL     OW19564   4.515   2.480   7.037
 6343SOL    HW119565   4.489   2.456   7.126
 6343SOL    HW219566   4.475   2.413   6.981
 6344SOL     OW19567   5.115   2.343   7.266
 6344SOL    HW119568   5.116   2.380   7.354
 6344SOL    HW219569   5.191   2.284   7.263
 6345SOL     OW19570   4.678   2.750   7.168
 6345SOL    HW119571   4.731   2.679   7.132
 6345SOL    HW219572   4.630   2.784   7.093
 6346SOL     OW19573   4.715   2.275   6.824
 6346SOL    HW119574   4.629   2.296   6.861
 6346SOL    HW219575   4.696   2.228   6.743
 6347SOL     OW19576   4.775   2.560   6.011
 6347SOL    HW119577   4.790   2.554   6.106
 6347SOL    HW219578   4.692   2.514   5.998
 6348SOL     OW19579   3.812   2.683   6.362
 6348SOL    HW119580   3.893   2.676   6.413
 6348SOL    HW219581   3.769   2.761   6.397
 6349SOL     OW19582   3.850   3.711   7.165
 6349SOL    HW119583   3.851   3.690   7.258
 6349SOL    HW219584   3.759   3.700   7.138
 6350SOL     OW19585   4.617   2.210   5.780
 6350SOL    HW119586   4.657   2.271   5.718
 6350SOL    HW219587   4.632   2.123   5.742
 6351SOL     OW19588   5.092   3.009   6.134
 6351SOL    HW119589   5.180   3.009   6.095
 6351SOL    HW219590   5.042   3.068   6.078
 6352SOL     OW19591   4.274   2.044   6.479
 6352SOL    HW119592   4.276   2.072   6.570
 6352SOL    HW219593   4.275   2.125   6.428
 6353SOL     OW19594   4.730   3.305   6.058
 6353SOL    HW119595   4.692   3.377   6.009
 6353SOL    HW219596   4.712   3.327   6.150
 6354SOL     OW19597   4.078   3.671   6.448
 6354SOL    HW119598   4.122   3.586   6.456
 6354SOL    HW219599   4.147   3.735   6.466
 6355SOL     OW19600   4.940   3.404   7.105
 6355SOL    HW119601   4.927   3.331   7.165
 6355SOL    HW219602   4.882   3.385   7.031
 6356SOL     OW19603   4.044   2.819   5.836
 6356SOL    HW119604   4.126   2.838   5.791
 6356SOL    HW219605   4.013   2.738   5.797
 6357SOL     OW19606   4.189   3.125   7.323
 6357SOL    HW119607   4.162   3.130   7.232
 6357SOL    HW219608   4.107   3.124   7.373
 6358SOL     OW19609   4.832   3.637   5.823
 6358SOL    HW119610   4.760   3.592   5.867
 6358SOL    HW219611   4.857   3.577   5.752
 6359SOL     OW19612   3.925   2.143   7.088
 6359SOL    HW119613   3.842   2.192   7.081
 6359SOL    HW219614   3.906   2.072   7.148
 6360SOL     OW19615   4.190   3.599   5.907
 6360SOL    HW119616   4.232   3.656   5.971
 6360SOL    HW219617   4.261   3.568   5.851
 6361SOL     OW19618   5.121   1.969   6.010
 6361SOL    HW119619   5.101   1.951   5.918
 6361SOL    HW219620   5.215   1.985   6.012
 6362SOL     OW19621   3.979   3.653   6.818
 6362SOL    HW119622   4.031   3.588   6.864
 6362SOL    HW219623   3.970   3.619   6.729
 6363SOL     OW19624   4.662   3.560   6.485
 6363SOL    HW119625   4.742   3.510   6.503
 6363SOL    HW219626   4.618   3.511   6.416
 6364SOL     OW19627   4.117   2.557   6.062
 6364SOL    HW119628   4.137   2.464   6.073
 6364SOL    HW219629   4.023   2.563   6.080
 6365SOL     OW19630   4.359   1.985   5.691
 6365SOL    HW119631   4.429   1.920   5.703
 6365SOL    HW219632   4.310   1.953   5.615
 6366SOL     OW19633   4.489   2.139   7.340
 6366SOL    HW119634   4.566   2.082   7.341
 6366SOL    HW219635   4.445   2.122   7.423
 6367SOL     OW19636   4.599   3.383   6.780
 6367SOL    HW119637   4.585   3.348   6.692
 6367SOL    HW219638   4.670   3.330   6.816
 6368SOL     OW19639   5.058   2.454   7.018
 6368SOL    HW119640   5.090   2.422   7.102
 6368SOL    HW219641   5.100   2.539   7.007
 6369SOL     OW19642   4.538   3.257   6.525
 6369SOL    HW119643   4.623   3.245   6.482
 6369SOL    HW219644   4.475   3.258   6.454
 6370SOL     OW19645   4.651   2.371   6.489
 6370SOL    HW119646   4.628   2.362   6.396
 6370SOL    HW219647   4.683   2.284   6.514
 6371SOL     OW19648   4.273   1.925   6.088
 6371SOL    HW119649   4.192   1.926   6.140
 6371SOL    HW219650   4.267   2.003   6.033
 6372SOL     OW19651   5.136   3.043   5.630
 6372SOL    HW119652   5.146   2.964   5.684
 6372SOL    HW219653   5.049   3.076   5.650
 6373SOL     OW19654   4.016   1.910   5.770
 6373SOL    HW119655   4.075   1.974   5.731
 6373SOL    HW219656   4.074   1.846   5.812
 6374SOL     OW19657   4.661   2.108   6.046
 6374SOL    HW119658   4.634   2.149   5.963
 6374SOL    HW219659   4.756   2.121   6.049
 6375SOL     OW19660   4.801   2.543   7.047
 6375SOL    HW119661   4.734   2.475   7.049
 6375SOL    HW219662   4.883   2.495   7.037
 6376SOL     OW19663   4.940   3.433   6.380
 6376SOL    HW119664   4.962   3.500   6.315
 6376SOL    HW219665   5.021   3.421   6.431
 6377SOL     OW19666   4.193   3.011   6.319
 6377SOL    HW119667   4.124   2.992   6.383
 6377SOL    HW219668   4.153   2.995   6.234
 6378SOL     OW19669   4.996   3.656   6.191
 6378SOL    HW119670   5.038   3.717   6.131
 6378SOL    HW219671   4.929   3.708   6.236
 6379SOL     OW19672   4.748   2.405   5.608
 6379SOL    HW119673   4.704   2.488   5.588
 6379SOL    HW219674   4.809   2.427   5.678
 6380SOL     OW19675   3.803   2.417   6.978
 6380SOL    HW119676   3.895   2.415   6.951
 6380SOL    HW219677   3.798   2.486   7.043
 6381SOL     OW19678   4.283   2.089   6.752
 6381SOL    HW119679   4.325   2.013   6.792
 6381SOL    HW219680   4.192   2.085   6.782
 6382SOL     OW19681   4.593   2.321   6.225
 6382SOL    HW119682   4.546   2.376   6.162
 6382SOL    HW219683   4.613   2.241   6.177
 6383SOL     OW19684   4.739   1.915   6.338
 6383SOL    HW119685   4.681   1.908   6.262
 6383SOL    HW219686   4.717   1.839   6.392
 6384SOL     OW19687   5.157   3.038   6.437
 6384SOL    HW119688   5.101   2.961   6.450
 6384SOL    HW219689   5.169   3.043   6.342
 6385SOL     OW19690   4.215   3.280   5.743
 6385SOL    HW119691   4.140   3.251   5.795
 6385SOL    HW219692   4.200   3.241   5.656
 6386SOL     OW19693   5.127   2.424   5.666
 6386SOL    HW119694   5.055   2.414   5.728
 6386SOL    HW219695   5.202   2.386   5.711
 6387SOL     OW19696   4.250   2.125   5.904
 6387SOL    HW119697   4.294   2.077   5.834
 6387SOL    HW219698   4.227   2.209   5.865
 6388SOL     OW19699   4.780   3.216   6.919
 6388SOL    HW119700   4.705   3.185   6.970
 6388SOL    HW219701   4.856   3.173   6.960
 6389SOL     OW19702   0.007   3.467   7.202
 6389SOL    HW119703   0.040   3.472   7.113
 6389SOL    HW219704   0.083   3.447   7.256
 6390SOL     OW19705   4.853   3.065   6.692
 6390SOL    HW119706   4.792   3.101   6.757
 6390SOL    HW219707   4.819   3.095   6.608
 6391SOL     OW19708   4.642   1.960   6.982
 6391SOL    HW119709   4.664   1.941   6.891
 6391SOL    HW219710   4.721   1.998   7.019
 6392SOL     OW19711   4.709   2.974   7.313
 6392SOL    HW119712   4.617   2.993   7.331
 6392SOL    HW219713   4.706   2.898   7.255
 6393SOL     OW19714   4.432   2.923   5.957
 6393SOL    HW119715   4.419   2.907   6.050
 6393SOL    HW219716   4.508   2.870   5.934
 6394SOL     OW19717   4.143   2.677   6.837
 6394SOL    HW119718   4.211   2.686   6.903
 6394SOL    HW219719   4.108   2.589   6.851
 6395SOL     OW19720   4.988   2.237   6.862
 6395SOL    HW119721   5.023   2.317   6.903
 6395SOL    HW219722   4.899   2.261   6.838
 6396SOL     OW19723   3.794   3.435   6.939
 6396SOL    HW119724   3.765   3.508   6.885
 6396SOL    HW219725   3.890   3.439   6.933
 6397SOL     OW19726   4.073   2.971   6.076
 6397SOL    HW119727   4.078   3.045   6.016
 6397SOL    HW219728   4.070   2.894   6.020
 6398SOL     OW19729   4.277   2.399   6.446
 6398SOL    HW119730   4.292   2.457   6.371
 6398SOL    HW219731   4.342   2.425   6.511
 6399SOL     OW19732   4.972   3.211   5.973
 6399SOL    HW119733   5.026   3.284   6.004
 6399SOL    HW219734   4.884   3.231   6.007
 6400SOL     OW19735   4.994   3.318   6.726
 6400SOL    HW119736   5.049   3.320   6.804
 6400SOL    HW219737   4.940   3.240   6.736
 6401SOL     OW19738   4.071   3.389   6.901
 6401SOL    HW119739   4.058   3.346   6.816
 6401SOL    HW219740   4.165   3.401   6.908
 6402SOL     OW19741   4.138   2.607   7.188
 6402SOL    HW119742   4.200   2.652   7.130
 6402SOL    HW219743   4.177   2.521   7.203
 6403SOL     OW19744   4.718   1.987   7.341
 6403SOL    HW119745   4.775   2.059   7.313
 6403SOL    HW219746   4.766   1.908   7.316
 6404SOL     OW19747   4.222   1.902   7.334
 6404SOL    HW119748   4.179   1.848   7.268
 6404SOL    HW219749   4.163   1.977   7.346
 6405SOL     OW19750   4.307   2.735   6.617
 6405SOL    HW119751   4.337   2.826   6.616
 6405SOL    HW219752   4.251   2.729   6.694
 6406SOL     OW19753   5.086   2.719   6.623
 6406SOL    HW119754   5.009   2.701   6.569
 6406SOL    HW219755   5.138   2.639   6.618
 6407SOL     OW19756   4.928   2.393   5.851
 6407SOL    HW119757   4.935   2.313   5.903
 6407SOL    HW219758   4.885   2.456   5.908
 6408SOL     OW19759   4.023   2.060   6.833
 6408SOL    HW119760   3.985   2.093   6.914
 6408SOL    HW219761   4.004   1.967   6.833
 6409SOL     OW19762   3.772   3.173   6.862
 6409SOL    HW119763   3.803   3.118   6.934
 6409SOL    HW219764   3.777   3.262   6.895
 6410SOL     OW19765   4.448   2.493   6.644
 6410SOL    HW119766   4.523   2.477   6.586
 6410SOL    HW219767   4.420   2.582   6.623
 6411SOL     OW19768   4.027   1.926   6.209
 6411SOL    HW119769   4.007   2.017   6.232
 6411SOL    HW219770   4.034   1.881   6.293
 6412SOL     OW19771   0.035   2.256   5.945
 6412SOL    HW119772   0.054   2.181   6.002
 6412SOL    HW219773   0.018   2.328   6.006
 6413SOL     OW19774   4.751   2.621   6.546
 6413SOL    HW119775   4.749   2.639   6.640
 6413SOL    HW219776   4.725   2.529   6.538
 6414SOL     OW19777   4.698   3.423   7.300
 6414SOL    HW119778   4.687   3.471   7.218
 6414SOL    HW219779   4.746   3.344   7.275
 6415SOL     OW19780   4.077   2.776   7.397
 6415SOL    HW119781   4.161   2.797   7.438
 6415SOL    HW219782   4.100   2.714   7.327
 6416SOL     OW19783   5.027   2.691   5.623
 6416SOL    HW119784   5.065   2.603   5.625
 6416SOL    HW219785   5.054   2.727   5.538
 6417SOL     OW19786   4.789   3.196   6.441
 6417SOL    HW119787   4.793   3.124   6.378
 6417SOL    HW219788   4.847   3.263   6.405
 6418SOL     OW19789   4.033   2.671   6.533
 6418SOL    HW119790   4.126   2.692   6.527
 6418SOL    HW219791   4.031   2.581   6.566
 6419SOL     OW19792   4.055   2.388   6.598
 6419SOL    HW119793   4.020   2.300   6.583
 6419SOL    HW219794   4.132   2.393   6.541
 6420SOL     OW19795   4.857   2.238   7.266
 6420SOL    HW119796   4.809   2.293   7.328
 6420SOL    HW219797   4.944   2.278   7.261
 6421SOL     OW19798   4.885   2.064   7.054
 6421SOL    HW119799   4.874   2.126   7.126
 6421SOL    HW219800   4.924   2.116   6.984
 6422SOL     OW19801   3.729   3.183   5.781
 6422SOL    HW119802   3.642   3.197   5.743
 6422SOL    HW219803   3.726   3.094   5.815
 6423SOL     OW19804   3.814   3.649   6.524
 6423SOL    HW119805   3.784   3.569   6.480
 6423SOL    HW219806   3.904   3.661   6.493
 6424SOL     OW19807   4.220   3.436   6.491
 6424SOL    HW119808   4.289   3.498   6.516
 6424SOL    HW219809   4.265   3.372   6.435
 6425SOL     OW19810   4.707   2.654   6.812
 6425SOL    HW119811   4.762   2.631   6.887
 6425SOL    HW219812   4.621   2.617   6.834
 6426SOL     OW19813   3.759   2.406   6.703
 6426SOL    HW119814   3.840   2.393   6.653
 6426SOL    HW219815   3.788   2.410   6.794
 6427SOL     OW19816   3.917   2.381   7.313
 6427SOL    HW119817   3.971   2.342   7.245
 6427SOL    HW219818   3.873   2.455   7.270
 6428SOL     OW19819   5.111   2.800   7.253
 6428SOL    HW119820   5.119   2.894   7.241
 6428SOL    HW219821   5.115   2.764   7.164
 6429SOL     OW19822   4.540   2.431   5.945
 6429SOL    HW119823   4.543   2.356   5.886
 6429SOL    HW219824   4.466   2.483   5.914
 6430SOL     OW19825   3.967   3.413   7.314
 6430SOL    HW119826   3.945   3.478   7.381
 6430SOL    HW219827   3.969   3.330   7.360
 6431SOL     OW19828   4.425   2.312   6.845
 6431SOL    HW119829   4.372   2.238   6.815
 6431SOL    HW219830   4.421   2.375   6.773
 6432SOL     OW19831   4.645   3.542   7.054
 6432SOL    HW119832   4.623   3.510   6.967
 6432SOL    HW219833   4.646   3.637   7.045
 6433SOL     OW19834   4.188   2.354   5.773
 6433SOL    HW119835   4.247   2.427   5.795
 6433SOL    HW219836   4.103   2.395   5.760
 6434SOL     OW19837   3.870   3.002   7.059
 6434SOL    HW119838   3.872   2.951   7.139
 6434SOL    HW219839   3.887   2.939   6.989
 6435SOL     OW19840   5.054   2.911   6.810
 6435SOL    HW119841   5.075   2.846   6.743
 6435SOL    HW219842   4.982   2.962   6.772
 6436SOL     OW19843   5.034   2.722   5.902
 6436SOL    HW119844   4.953   2.689   5.939
 6436SOL    HW219845   5.023   2.713   5.808
 6437SOL     OW19846   4.960   3.593   6.707
 6437SOL    HW119847   5.045   3.614   6.670
 6437SOL    HW219848   4.960   3.498   6.717
 6438SOL     OW19849   3.808   3.129   6.598
 6438SOL    HW119850   3.794   3.142   6.692
 6438SOL    HW219851   3.735   3.074   6.570
 6439SOL     OW19852   4.400   3.526   7.313
 6439SOL    HW119853   4.350   3.607   7.309
 6439SOL    HW219854   4.470   3.538   7.249
 6440SOL     OW19855   0.081   2.022   6.116
 6440SOL    HW119856   0.165   2.009   6.072
 6440SOL    HW219857   0.067   1.942   6.167
 6441SOL     OW19858   5.111   3.432   6.066
 6441SOL    HW119859   5.181   3.473   6.016
 6441SOL    HW219860   5.061   3.506   6.102
 6442SOL     OW19861   3.860   3.658   7.430
 6442SOL    HW119862   3.809   3.593   7.479
 6442SOL    HW219863   3.908   3.707   7.497
 6443SOL     OW19864   5.016   2.781   6.258
 6443SOL    HW119865   5.094   2.727   6.245
 6443SOL    HW219866   5.035   2.862   6.209
 6444SOL     OW19867   4.538   3.135   7.016
 6444SOL    HW119868   4.510   3.175   7.099
 6444SOL    HW219869   4.469   3.158   6.954
 6445SOL     OW19870   4.395   3.482   5.741
 6445SOL    HW119871   4.406   3.494   5.647
 6445SOL    HW219872   4.340   3.404   5.749
 6446SOL     OW19873   3.986   2.178   6.303
 6446SOL    HW119874   3.900   2.213   6.279
 6446SOL    HW219875   3.983   2.170   6.398
 6447SOL     OW19876   4.908   3.471   5.628
 6447SOL    HW119877   4.920   3.377   5.638
 6447SOL    HW219878   4.854   3.480   5.549
 6448SOL     OW19879   4.548   2.868   6.959
 6448SOL    HW119880   4.591   2.864   6.873
 6448SOL    HW219881   4.547   2.961   6.980
 6449SOL     OW19882   4.640   2.773   5.876
 6449SOL    HW119883   4.702   2.805   5.810
 6449SOL    HW219884   4.687   2.702   5.921
 6450SOL     OW19885   4.093   3.165   7.078
 6450SOL    HW119886   4.080   3.242   7.023
 6450SOL    HW219887   4.016   3.110   7.061
 6451SOL     OW19888   4.776   2.969   6.293
 6451SOL    HW119889   4.705   2.919   6.333
 6451SOL    HW219890   4.834   2.902   6.255
 6452SOL     OW19891   4.739   2.101   6.554
 6452SOL    HW119892   4.737   2.054   6.471
 6452SOL    HW219893   4.736   2.033   6.621
 6453SOL     OW19894   4.326   3.350   6.068
 6453SOL    HW119895   4.371   3.300   5.999
 6453SOL    HW219896   4.258   3.398   6.021
 6454SOL     OW19897   3.983   3.207   5.874
 6454SOL    HW119898   3.890   3.205   5.852
 6454SOL    HW219899   3.986   3.244   5.963
 6455SOL     OW19900   3.837   2.884   7.306
 6455SOL    HW119901   3.760   2.861   7.358
 6455SOL    HW219902   3.911   2.846   7.354
 6456SOL     OW19903   4.398   2.058   7.085
 6456SOL    HW119904   4.482   2.038   7.044
 6456SOL    HW219905   4.421   2.089   7.173
 6457SOL     OW19906   3.802   2.196   5.621
 6457SOL    HW119907   3.715   2.176   5.587
 6457SOL    HW219908   3.832   2.271   5.570
 6458SOL     OW19909   5.163   2.722   6.990
 6458SOL    HW119910   5.111   2.779   6.933
 6458SOL    HW219911   5.252   2.729   6.956
 6459SOL     OW19912   3.792   2.018   5.896
 6459SOL    HW119913   3.778   2.098   5.845
 6459SOL    HW219914   3.877   1.985   5.866
 6460SOL     OW19915   4.907   3.191   5.700
 6460SOL    HW119916   4.813   3.173   5.701
 6460SOL    HW219917   4.931   3.198   5.792
 6461SOL     OW19918   4.343   2.693   7.019
 6461SOL    HW119919   4.399   2.769   7.004
 6461SOL    HW219920   4.403   2.619   7.027
 6462SOL     OW19921   4.442   2.425   7.290
 6462SOL    HW119922   4.482   2.486   7.352
 6462SOL    HW219923   4.468   2.338   7.322
 6463SOL     OW19924   5.182   3.065   7.217
 6463SOL    HW119925   5.172   3.077   7.311
 6463SOL    HW219926   5.276   3.073   7.202
 6464SOL     OW19927   4.103   3.602   7.150
 6464SOL    HW119928   4.018   3.643   7.137
 6464SOL    HW219929   4.083   3.518   7.192
 6465SOL     OW19930   4.940   2.182   6.042
 6465SOL    HW119931   5.002   2.110   6.029
 6465SOL    HW219932   4.970   2.226   6.121
 6466SOL     OW19933   4.315   2.599   6.255
 6466SOL    HW119934   4.353   2.686   6.240
 6466SOL    HW219935   4.246   2.592   6.188
 6467SOL     OW19936   4.590   3.228   5.621
 6467SOL    HW119937   4.549   3.259   5.702
 6467SOL    HW219938   4.607   3.308   5.571
 6468SOL     OW19939   4.384   3.653   6.530
 6468SOL    HW119940   4.365   3.744   6.507
 6468SOL    HW219941   4.479   3.647   6.524
 6469SOL     OW19942   4.592   2.829   6.441
 6469SOL    HW119943   4.642   2.758   6.481
 6469SOL    HW219944   4.557   2.878   6.516
 6470SOL     OW19945   4.806   2.849   5.676
 6470SOL    HW119946   4.782   2.899   5.598
 6470SOL    HW219947   4.881   2.796   5.649
 6471SOL     OW19948   3.949   3.165   7.443
 6471SOL    HW119949   3.882   3.104   7.411
 6471SOL    HW219950   3.928   3.179   7.535
 6472SOL     OW19951   3.807   3.095   6.251
 6472SOL    HW119952   3.813   3.047   6.333
 6472SOL    HW219953   3.876   3.057   6.196
 6473SOL     OW19954   4.405   3.263   7.214
 6473SOL    HW119955   4.324   3.222   7.245
 6473SOL    HW219956   4.401   3.352   7.249
 6474SOL     OW19957   4.153   2.296   6.112
 6474SOL    HW119958   4.183   2.225   6.055
 6474SOL    HW219959   4.105   2.252   6.182
 6475SOL     OW19960   0.095   3.383   6.686
 6475SOL    HW119961   0.027   3.359   6.622
 6475SOL    HW219962   0.102   3.307   6.744
 6476SOL     OW19963   4.054   2.417   6.878
 6476SOL    HW119964   4.110   2.362   6.933
 6476SOL    HW219965   4.073   2.389   6.788
 6477SOL     OW19966   4.552   3.439   6.263
 6477SOL    HW119967   4.540   3.493   6.185
 6477SOL    HW219968   4.474   3.383   6.265
 6478SOL     OW19969   5.147   2.081   6.701
 6478SOL    HW119970   5.192   2.016   6.755
 6478SOL    HW219971   5.101   2.136   6.764
 6479SOL     OW19972   4.730   1.881   6.728
 6479SOL    HW119973   4.677   1.812   6.688
 6479SOL    HW219974   4.818   1.843   6.733
 6480SOL     OW19975   4.495   3.195   5.901
 6480SOL    HW119976   4.464   3.104   5.907
 6480SOL    HW219977   4.577   3.196   5.950
 6481SOL     OW19978   4.344   3.418   6.871
 6481SOL    HW119979   4.346   3.501   6.920
 6481SOL    HW219980   4.431   3.411   6.833
 6482SOL     OW19981   5.058   1.908   5.753
 6482SOL    HW119982   5.082   1.867   5.670
 6482SOL    HW219983   4.973   1.870   5.775
 6483SOL     OW19984   5.028   2.320   6.268
 6483SOL    HW119985   4.973   2.399   6.272
 6483SOL    HW219986   5.017   2.279   6.354
 6484SOL     OW19987   0.002   2.087   6.466
 6484SOL    HW119988   5.236   2.075   6.535
 6484SOL    HW219989   5.276   2.167   6.421
 6485SOL     OW19990   3.767   2.933   5.892
 6485SOL    HW119991   3.861   2.925   5.875
 6485SOL    HW219992   3.739   2.844   5.915
 6486SOL     OW19993   4.604   3.512   5.932
 6486SOL    HW119994   4.533   3.497   5.869
 6486SOL    HW219995   4.577   3.589   5.981
 6487SOL     OW19996   3.953   2.481   7.572
 6487SOL    HW119997   3.862   2.489   7.602
 6487SOL    HW219998   3.945   2.458   7.479
 6488SOL     OW19999   3.945   3.579   7.919
 6488SOL    HW120000   3.973   3.621   8.000
 6488SOL    HW220001   4.023   3.577   7.864
 6489SOL     OW20002   3.941   3.300   7.991
 6489SOL    HW120003   3.927   3.395   7.989
 6489SOL    HW220004   3.881   3.268   8.058
 6490SOL     OW20005   4.311   2.843   7.579
 6490SOL    HW120006   4.355   2.894   7.510
 6490SOL    HW220007   4.349   2.876   7.661
 6491SOL     OW20008   3.754   3.461   7.578
 6491SOL    HW120009   3.738   3.368   7.593
 6491SOL    HW220010   3.727   3.504   7.659
 6492SOL     OW20011   0.117   2.789   8.016
 6492SOL    HW120012   0.210   2.779   8.035
 6492SOL    HW220013   0.105   2.882   8.000
 6493SOL     OW20014   4.525   1.856   7.938
 6493SOL    HW120015   4.575   1.937   7.922
 6493SOL    HW220016   4.434   1.885   7.947
 6494SOL     OW20017   4.315   2.587   7.709
 6494SOL    HW120018   4.318   2.669   7.659
 6494SOL    HW220019   4.254   2.605   7.780
 6495SOL     OW20020   3.784   2.724   0.090
 6495SOL    HW120021   3.850   2.660   0.119
 6495SOL    HW220022   3.780   2.788   0.161
 6496SOL     OW20023   4.607   2.207   7.639
 6496SOL    HW120024   4.650   2.266   7.577
 6496SOL    HW220025   4.638   2.120   7.614
 6497SOL     OW20026   4.047   2.817   7.698
 6497SOL    HW120027   4.127   2.836   7.647
 6497SOL    HW220028   4.010   2.740   7.656
 6498SOL     OW20029   4.837   3.638   7.684
 6498SOL    HW120030   4.763   3.595   7.728
 6498SOL    HW220031   4.861   3.578   7.614
 6499SOL     OW20032   4.191   3.600   7.770
 6499SOL    HW120033   4.239   3.653   7.833
 6499SOL    HW220034   4.258   3.564   7.711
 6500SOL     OW20035   5.132   1.988   7.857
 6500SOL    HW120036   5.096   1.964   7.771
 6500SOL    HW220037   5.227   1.988   7.843
 6501SOL     OW20038   4.116   2.560   7.918
 6501SOL    HW120039   4.119   2.465   7.926
 6501SOL    HW220040   4.024   2.583   7.933
 6502SOL     OW20041   4.354   1.982   7.559
 6502SOL    HW120042   4.428   1.923   7.569
 6502SOL    HW220043   4.309   1.951   7.480
 6503SOL     OW20044   4.256   1.936   7.959
 6503SOL    HW120045   4.170   1.940   8.002
 6503SOL    HW220046   4.254   2.007   7.895
 6504SOL     OW20047   5.137   3.041   7.488
 6504SOL    HW120048   5.153   2.971   7.551
 6504SOL    HW220049   5.050   3.074   7.511
 6505SOL     OW20050   4.016   1.911   7.633
 6505SOL    HW120051   4.075   1.972   7.587
 6505SOL    HW220052   4.075   1.846   7.672
 6506SOL     OW20053   4.666   2.089   7.910
 6506SOL    HW120054   4.624   2.152   7.853
 6506SOL    HW220055   4.758   2.116   7.913
 6507SOL     OW20056   4.163   3.009   0.100
 6507SOL    HW120057   4.089   3.051   0.145
 6507SOL    HW220058   4.133   2.998   0.010
 6508SOL     OW20059   5.008   3.667   8.012
 6508SOL    HW120060   5.047   3.732   7.955
 6508SOL    HW220061   4.937   3.713   8.057
 6509SOL     OW20062   4.751   2.407   7.465
 6509SOL    HW120063   4.704   2.488   7.449
 6509SOL    HW220064   4.805   2.426   7.543
 6510SOL     OW20065   4.212   3.278   7.604
 6510SOL    HW120066   4.138   3.249   7.658
 6510SOL    HW220067   4.196   3.240   7.518
 6511SOL     OW20068   5.128   2.423   7.530
 6511SOL    HW120069   5.053   2.414   7.589
 6511SOL    HW220070   5.201   2.383   7.577
 6512SOL     OW20071   4.250   2.128   7.770
 6512SOL    HW120072   4.294   2.078   7.701
 6512SOL    HW220073   4.227   2.211   7.729
 6513SOL     OW20074   4.437   2.924   7.811
 6513SOL    HW120075   4.411   2.911   7.902
 6513SOL    HW220076   4.516   2.871   7.801
 6514SOL     OW20077   4.089   2.965   7.927
 6514SOL    HW120078   4.070   3.044   7.877
 6514SOL    HW220079   4.076   2.893   7.865
 6515SOL     OW20080   4.958   3.220   7.819
 6515SOL    HW120081   5.016   3.291   7.847
 6515SOL    HW220082   4.904   3.201   7.895
 6516SOL     OW20083   0.037   2.510   7.925
 6516SOL    HW120084   5.279   2.528   7.999
 6516SOL    HW220085   0.038   2.592   7.874
 6517SOL     OW20086   4.927   2.391   7.713
 6517SOL    HW120087   4.931   2.307   7.759
 6517SOL    HW220088   4.897   2.454   7.779
 6518SOL     OW20089   0.025   2.264   7.806
 6518SOL    HW120090   0.038   2.196   7.872
 6518SOL    HW220091   0.023   2.346   7.857
 6519SOL     OW20092   5.034   2.694   7.490
 6519SOL    HW120093   5.065   2.603   7.487
 6519SOL    HW220094   5.057   2.730   7.405
 6520SOL     OW20095   3.730   3.186   7.640
 6520SOL    HW120096   3.643   3.199   7.603
 6520SOL    HW220097   3.729   3.097   7.674
 6521SOL     OW20098   4.564   2.463   7.759
 6521SOL    HW120099   4.556   2.371   7.734
 6521SOL    HW220100   4.474   2.496   7.760
 6522SOL     OW20101   4.186   2.355   7.642
 6522SOL    HW120102   4.245   2.430   7.657
 6522SOL    HW220103   4.101   2.395   7.623
 6523SOL     OW20104   5.032   2.709   7.773
 6523SOL    HW120105   4.939   2.725   7.791
 6523SOL    HW220106   5.038   2.707   7.677
 6524SOL     OW20107   0.181   2.004   7.990
 6524SOL    HW120108   0.157   1.987   7.899
 6524SOL    HW220109   0.138   1.935   8.040
 6525SOL     OW20110   5.103   3.435   7.907
 6525SOL    HW120111   5.198   3.445   7.907
 6525SOL    HW220112   5.070   3.516   7.945
 6526SOL     OW20113   4.390   3.482   7.604
 6526SOL    HW120114   4.403   3.493   7.509
 6526SOL    HW220115   4.338   3.402   7.611
 6527SOL     OW20116   4.911   3.473   7.487
 6527SOL    HW120117   4.920   3.378   7.501
 6527SOL    HW220118   4.852   3.480   7.412
 6528SOL     OW20119   4.655   2.770   7.758
 6528SOL    HW120120   4.705   2.795   7.681
 6528SOL    HW220121   4.643   2.676   7.750
 6529SOL     OW20122   4.328   3.368   7.936
 6529SOL    HW120123   4.374   3.308   7.878
 6529SOL    HW220124   4.256   3.402   7.883
 6530SOL     OW20125   3.982   3.208   7.742
 6530SOL    HW120126   3.890   3.206   7.716
 6530SOL    HW220127   3.981   3.244   7.830
 6531SOL     OW20128   3.801   2.195   7.483
 6531SOL    HW120129   3.715   2.176   7.447
 6531SOL    HW220130   3.832   2.271   7.433
 6532SOL     OW20131   3.794   2.019   7.758
 6532SOL    HW120132   3.777   2.095   7.702
 6532SOL    HW220133   3.877   1.984   7.726
 6533SOL     OW20134   4.905   3.191   7.555
 6533SOL    HW120135   4.810   3.177   7.555
 6533SOL    HW220136   4.927   3.203   7.648
 6534SOL     OW20137   5.268   3.605   0.322
 6534SOL    HW120138   5.271   3.691   0.281
 6534SOL    HW220139   0.041   3.604   0.383
 6535SOL     OW20140   4.938   2.182   7.901
 6535SOL    HW120141   5.010   2.119   7.890
 6535SOL    HW220142   4.956   2.225   7.985
 6536SOL     OW20143   4.350   2.596   8.057
 6536SOL    HW120144   4.355   2.679   0.024
 6536SOL    HW220145   4.263   2.597   8.016
 6537SOL     OW20146   4.591   3.228   7.483
 6537SOL    HW120147   4.551   3.257   7.565
 6537SOL    HW220148   4.607   3.309   7.434
 6538SOL     OW20149   4.801   2.840   7.540
 6538SOL    HW120150   4.778   2.895   7.465
 6538SOL    HW220151   4.880   2.793   7.512
 6539SOL     OW20152   4.111   2.288   7.983
 6539SOL    HW120153   4.161   2.237   7.919
 6539SOL    HW220154   4.162   2.282   8.064
 6540SOL     OW20155   4.489   3.197   7.760
 6540SOL    HW120156   4.459   3.106   7.763
 6540SOL    HW220157   4.568   3.199   7.814
 6541SOL     OW20158   5.061   1.906   7.610
 6541SOL    HW120159   5.082   1.862   7.528
 6541SOL    HW220160   4.977   1.869   7.638
 6542SOL     OW20161   3.775   2.940   7.750
 6542SOL    HW120162   3.869   2.930   7.736
 6542SOL    HW220163   3.743   2.852   7.766
 6543SOL     OW20164   4.613   3.509   7.783
 6543SOL    HW120165   4.537   3.489   7.729
 6543SOL    HW220166   4.582   3.573   7.846
 6544SOL     OW20167   3.943   4.347   0.122
 6544SOL    HW120168   3.863   4.313   0.161
 6544SOL    HW220169   3.965   4.285   0.052
 6545SOL     OW20170   3.949   4.005   0.992
 6545SOL    HW120171   3.977   3.971   1.076
 6545SOL    HW220172   3.859   3.973   0.982
 6546SOL     OW20173   3.728   4.107   0.638
 6546SOL    HW120174   3.645   4.133   0.679
 6546SOL    HW220175   3.707   4.027   0.590
 6547SOL     OW20176   4.290   5.005   1.179
 6547SOL    HW120177   4.205   5.005   1.135
 6547SOL    HW220178   4.303   5.097   1.205
 6548SOL     OW20179   5.276   5.233   0.692
 6548SOL    HW120180   5.264   5.216   0.785
 6548SOL    HW220181   5.188   5.229   0.656
 6549SOL     OW20182   4.858   4.423   0.700
 6549SOL    HW120183   4.909   4.504   0.690
 6549SOL    HW220184   4.810   4.436   0.782
 6550SOL     OW20185   4.479   4.867   1.038
 6550SOL    HW120186   4.412   4.899   1.098
 6550SOL    HW220187   4.510   4.946   0.992
 6551SOL     OW20188   4.592   4.498   1.822
 6551SOL    HW120189   4.575   4.570   1.883
 6551SOL    HW220190   4.614   4.542   1.740
 6552SOL     OW20191   4.408   4.725   0.651
 6552SOL    HW120192   4.474   4.715   0.720
 6552SOL    HW220193   4.340   4.780   0.691
 6553SOL     OW20194   4.433   4.873   1.813
 6553SOL    HW120195   4.481   4.953   1.836
 6553SOL    HW220196   4.350   4.905   1.777
 6554SOL     OW20197   4.061   5.151   1.060
 6554SOL    HW120198   3.984   5.107   1.024
 6554SOL    HW220199   4.101   5.194   0.985
 6555SOL     OW20200   5.128   5.238   1.341
 6555SOL    HW120201   5.149   0.008   1.403
 6555SOL    HW220202   5.109   5.162   1.396
 6556SOL     OW20203   4.173   4.122   1.487
 6556SOL    HW120204   4.248   4.063   1.493
 6556SOL    HW220205   4.097   4.066   1.500
 6557SOL     OW20206   4.865   5.051   1.700
 6557SOL    HW120207   4.886   5.065   1.792
 6557SOL    HW220208   4.803   4.978   1.701
 6558SOL     OW20209   3.931   5.155   0.515
 6558SOL    HW120210   3.960   5.237   0.556
 6558SOL    HW220211   3.880   5.112   0.583
 6559SOL     OW20212   3.981   4.811   0.891
 6559SOL    HW120213   3.979   4.724   0.931
 6559SOL    HW220214   3.924   4.864   0.947
 6560SOL     OW20215   4.353   4.685   0.132
 6560SOL    HW120216   4.301   4.761   0.107
 6560SOL    HW220217   4.403   4.713   0.209
 6561SOL     OW20218   3.839   4.374   0.562
 6561SOL    HW120219   3.809   4.286   0.583
 6561SOL    HW220220   3.831   4.423   0.644
 6562SOL     OW20221   3.701   0.020   0.095
 6562SOL    HW120222   3.717   5.229   0.122
 6562SOL    HW220223   3.731   0.073   0.169
 6563SOL     OW20224   0.115   4.655   0.583
 6563SOL    HW120225   0.208   4.634   0.589
 6563SOL    HW220226   0.113   4.744   0.546
 6564SOL     OW20227   3.847   4.466   1.586
 6564SOL    HW120228   3.939   4.492   1.593
 6564SOL    HW220229   3.799   4.549   1.594
 6565SOL     OW20230   4.345   5.099   0.737
 6565SOL    HW120231   4.291   5.020   0.735
 6565SOL    HW220232   4.328   5.142   0.654
 6566SOL     OW20233   5.020   4.971   1.420
 6566SOL    HW120234   5.048   4.899   1.363
 6566SOL    HW220235   5.067   4.956   1.502
 6567SOL     OW20236   4.539   3.726   0.511
 6567SOL    HW120237   4.579   3.811   0.489
 6567SOL    HW220238   4.446   3.745   0.519
 6568SOL     OW20239   3.914   4.690   1.270
 6568SOL    HW120240   3.999   4.647   1.256
 6568SOL    HW220241   3.852   4.635   1.223
 6569SOL     OW20242   4.057   3.974   1.811
 6569SOL    HW120243   4.102   4.057   1.828
 6569SOL    HW220244   3.968   3.988   1.843
 6570SOL     OW20245   5.178   5.153   0.951
 6570SOL    HW120246   5.110   5.163   1.017
 6570SOL    HW220247   5.164   5.066   0.914
 6571SOL     OW20248   0.050   0.163   0.563
 6571SOL    HW120249   0.091   0.122   0.487
 6571SOL    HW220250   0.038   0.092   0.626
 6572SOL     OW20251   4.322   4.438   0.282
 6572SOL    HW120252   4.341   4.516   0.230
 6572SOL    HW220253   4.258   4.467   0.347
 6573SOL     OW20254   4.996   4.060   0.919
 6573SOL    HW120255   4.907   4.031   0.941
 6573SOL    HW220256   5.051   4.026   0.990
 6574SOL     OW20257   4.514   4.342   1.451
 6574SOL    HW120258   4.489   4.318   1.540
 6574SOL    HW220259   4.475   4.274   1.395
 6575SOL     OW20260   5.115   4.204   1.680
 6575SOL    HW120261   5.116   4.242   1.768
 6575SOL    HW220262   5.191   4.146   1.678
 6576SOL     OW20263   4.677   4.612   1.582
 6576SOL    HW120264   4.731   4.541   1.547
 6576SOL    HW220265   4.630   4.646   1.506
 6577SOL     OW20266   4.715   4.137   1.238
 6577SOL    HW120267   4.629   4.158   1.274
 6577SOL    HW220268   4.696   4.090   1.157
 6578SOL     OW20269   4.777   4.422   0.426
 6578SOL    HW120270   4.792   4.417   0.520
 6578SOL    HW220271   4.693   4.376   0.413
 6579SOL     OW20272   3.813   4.545   0.776
 6579SOL    HW120273   3.893   4.538   0.827
 6579SOL    HW220274   3.768   4.622   0.811
 6580SOL     OW20275   4.609   4.081   0.200
 6580SOL    HW120276   4.654   4.129   0.131
 6580SOL    HW220277   4.610   3.990   0.170
 6581SOL     OW20278   5.092   4.869   0.547
 6581SOL    HW120279   5.180   4.865   0.510
 6581SOL    HW220280   5.044   4.928   0.489
 6582SOL     OW20281   4.273   3.906   0.893
 6582SOL    HW120282   4.276   3.934   0.984
 6582SOL    HW220283   4.276   3.987   0.843
 6583SOL     OW20284   4.741   5.165   0.468
 6583SOL    HW120285   4.665   5.224   0.469
 6583SOL    HW220286   4.766   5.157   0.560
 6584SOL     OW20287   4.937   5.262   1.556
 6584SOL    HW120288   4.915   5.178   1.598
 6584SOL    HW220289   4.902   5.255   1.468
 6585SOL     OW20290   4.051   4.665   0.254
 6585SOL    HW120291   4.120   4.707   0.203
 6585SOL    HW220292   4.052   4.574   0.225
 6586SOL     OW20293   4.188   4.987   1.741
 6586SOL    HW120294   4.162   4.990   1.649
 6586SOL    HW220295   4.106   4.986   1.790
 6587SOL     OW20296   4.875   0.190   0.217
 6587SOL    HW120297   4.799   0.181   0.276
 6587SOL    HW220298   4.846   0.150   0.135
 6588SOL     OW20299   3.925   4.005   1.501
 6588SOL    HW120300   3.843   4.055   1.497
 6588SOL    HW220301   3.907   3.935   1.564
 6589SOL     OW20302   5.116   3.849   0.439
 6589SOL    HW120303   5.100   3.831   0.346
 6589SOL    HW220304   5.212   3.857   0.446
 6590SOL     OW20305   4.110   4.421   0.477
 6590SOL    HW120306   4.134   4.329   0.488
 6590SOL    HW220307   4.017   4.425   0.499
 6591SOL     OW20308   4.354   3.835   0.136
 6591SOL    HW120309   4.449   3.823   0.142
 6591SOL    HW220310   4.334   3.815   0.044
 6592SOL     OW20311   4.490   4.002   1.754
 6592SOL    HW120312   4.566   3.945   1.755
 6592SOL    HW220313   4.442   3.980   1.834
 6593SOL     OW20314   5.057   4.316   1.432
 6593SOL    HW120315   5.090   4.284   1.516
 6593SOL    HW220316   5.100   4.400   1.420
 6594SOL     OW20317   4.536   5.119   0.936
 6594SOL    HW120318   4.617   5.107   0.888
 6594SOL    HW220319   4.468   5.126   0.869
 6595SOL     OW20320   4.651   4.233   0.903
 6595SOL    HW120321   4.627   4.224   0.810
 6595SOL    HW220322   4.683   4.146   0.927
 6596SOL     OW20323   4.273   3.787   0.505
 6596SOL    HW120324   4.193   3.786   0.557
 6596SOL    HW220325   4.267   3.866   0.451
 6597SOL     OW20326   5.128   4.895   0.031
 6597SOL    HW120327   5.146   4.832   0.100
 6597SOL    HW220328   5.047   4.937   0.058
 6598SOL     OW20329   4.035   3.779   0.169
 6598SOL    HW120330   4.099   3.848   0.185
 6598SOL    HW220331   4.071   3.702   0.211
 6599SOL     OW20332   4.662   3.971   0.459
 6599SOL    HW120333   4.634   4.012   0.377
 6599SOL    HW220334   4.756   3.988   0.463
 6600SOL     OW20335   4.801   4.405   1.461
 6600SOL    HW120336   4.734   4.337   1.463
 6600SOL    HW220337   4.884   4.358   1.451
 6601SOL     OW20338   4.981   5.265   0.773
 6601SOL    HW120339   4.954   0.053   0.746
 6601SOL    HW220340   5.037   5.280   0.849
 6602SOL     OW20341   4.189   4.873   0.731
 6602SOL    HW120342   4.121   4.852   0.795
 6602SOL    HW220343   4.148   4.855   0.646
 6603SOL     OW20344   4.758   4.254   0.029
 6603SOL    HW120345   4.712   4.334   0.003
 6603SOL    HW220346   4.818   4.283   0.098
 6604SOL     OW20347   3.803   4.279   1.392
 6604SOL    HW120348   3.895   4.277   1.365
 6604SOL    HW220349   3.798   4.349   1.457
 6605SOL     OW20350   4.283   3.951   1.166
 6605SOL    HW120351   4.325   3.875   1.206
 6605SOL    HW220352   4.192   3.947   1.196
 6606SOL     OW20353   4.591   4.182   0.639
 6606SOL    HW120354   4.549   4.238   0.574
 6606SOL    HW220355   4.613   4.102   0.591
 6607SOL     OW20356   4.739   3.776   0.751
 6607SOL    HW120357   4.680   3.770   0.676
 6607SOL    HW220358   4.717   3.701   0.806
 6608SOL     OW20359   5.152   4.902   0.849
 6608SOL    HW120360   5.100   4.822   0.859
 6608SOL    HW220361   5.172   4.907   0.756
 6609SOL     OW20362   4.190   5.161   0.155
 6609SOL    HW120363   4.143   5.104   0.216
 6609SOL    HW220364   4.229   5.100   0.092
 6610SOL     OW20365   5.125   4.307   0.075
 6610SOL    HW120366   5.067   4.283   0.147
 6610SOL    HW220367   5.195   4.241   0.077
 6611SOL     OW20368   4.241   3.987   0.323
 6611SOL    HW120369   4.292   3.935   0.261
 6611SOL    HW220370   4.229   4.072   0.280
 6612SOL     OW20371   4.786   5.073   1.330
 6612SOL    HW120372   4.709   5.049   1.380
 6612SOL    HW220373   4.860   5.036   1.379
 6613SOL     OW20374   4.848   4.923   1.109
 6613SOL    HW120375   4.797   4.966   1.177
 6613SOL    HW220376   4.807   4.951   1.027
 6614SOL     OW20377   4.642   3.822   1.396
 6614SOL    HW120378   4.664   3.803   1.305
 6614SOL    HW220379   4.721   3.861   1.433
 6615SOL     OW20380   4.705   4.833   1.730
 6615SOL    HW120381   4.613   4.852   1.746
 6615SOL    HW220382   4.704   4.759   1.670
 6616SOL     OW20383   4.434   4.783   0.381
 6616SOL    HW120384   4.418   4.767   0.474
 6616SOL    HW220385   4.513   4.734   0.361
 6617SOL     OW20386   4.142   4.539   1.252
 6617SOL    HW120387   4.211   4.548   1.318
 6617SOL    HW220388   4.108   4.451   1.266
 6618SOL     OW20389   4.989   4.099   1.276
 6618SOL    HW120390   5.024   4.178   1.317
 6618SOL    HW220391   4.899   4.122   1.252
 6619SOL     OW20392   4.066   4.832   0.490
 6619SOL    HW120393   4.070   4.904   0.428
 6619SOL    HW220394   4.076   4.753   0.437
 6620SOL     OW20395   4.276   4.260   0.860
 6620SOL    HW120396   4.292   4.319   0.785
 6620SOL    HW220397   4.341   4.287   0.925
 6621SOL     OW20398   4.981   5.069   0.385
 6621SOL    HW120399   5.032   5.150   0.387
 6621SOL    HW220400   4.893   5.095   0.413
 6622SOL     OW20401   4.978   5.181   1.131
 6622SOL    HW120402   5.033   5.204   1.206
 6622SOL    HW220403   4.940   5.096   1.154
 6623SOL     OW20404   4.072   5.236   1.314
 6623SOL    HW120405   4.061   5.201   1.226
 6623SOL    HW220406   4.166   5.256   1.321
 6624SOL     OW20407   4.138   4.469   1.602
 6624SOL    HW120408   4.200   4.513   1.544
 6624SOL    HW220409   4.178   4.383   1.618
 6625SOL     OW20410   4.718   3.849   1.756
 6625SOL    HW120411   4.775   3.921   1.729
 6625SOL    HW220412   4.765   3.770   1.730
 6626SOL     OW20413   4.222   3.765   1.748
 6626SOL    HW120414   4.179   3.710   1.682
 6626SOL    HW220415   4.163   3.839   1.760
 6627SOL     OW20416   4.306   4.597   1.031
 6627SOL    HW120417   4.339   4.687   1.030
 6627SOL    HW220418   4.251   4.592   1.109
 6628SOL     OW20419   5.085   4.580   1.038
 6628SOL    HW120420   5.010   4.563   0.981
 6628SOL    HW220421   5.139   4.501   1.030
 6629SOL     OW20422   4.932   4.255   0.269
 6629SOL    HW120423   4.935   4.175   0.321
 6629SOL    HW220424   4.886   4.318   0.324
 6630SOL     OW20425   4.023   3.922   1.247
 6630SOL    HW120426   3.986   3.955   1.329
 6630SOL    HW220427   4.003   3.829   1.247
 6631SOL     OW20428   3.777   5.047   1.284
 6631SOL    HW120429   3.801   4.982   1.351
 6631SOL    HW220430   3.812   5.129   1.317
 6632SOL     OW20431   4.447   4.354   1.057
 6632SOL    HW120432   4.523   4.338   1.001
 6632SOL    HW220433   4.420   4.444   1.036
 6633SOL     OW20434   4.026   3.788   0.623
 6633SOL    HW120435   4.008   3.879   0.647
 6633SOL    HW220436   4.034   3.743   0.707
 6634SOL     OW20437   0.046   4.101   0.357
 6634SOL    HW120438   0.061   4.045   0.433
 6634SOL    HW220439   0.019   4.185   0.394
 6635SOL     OW20440   4.750   4.483   0.960
 6635SOL    HW120441   4.749   4.501   1.054
 6635SOL    HW220442   4.725   4.391   0.953
 6636SOL     OW20443   4.077   4.640   1.809
 6636SOL    HW120444   4.159   4.659   1.854
 6636SOL    HW220445   4.102   4.577   1.740
 6637SOL     OW20446   5.028   4.556   0.026
 6637SOL    HW120447   5.061   4.468   0.044
 6637SOL    HW220448   5.060   4.577   8.019
 6638SOL     OW20449   4.781   5.079   0.828
 6638SOL    HW120450   4.788   4.994   0.784
 6638SOL    HW220451   4.866   5.120   0.813
 6639SOL     OW20452   4.033   4.533   0.947
 6639SOL    HW120453   4.126   4.554   0.942
 6639SOL    HW220454   4.031   4.443   0.980
 6640SOL     OW20455   4.055   4.250   1.012
 6640SOL    HW120456   4.020   4.162   0.997
 6640SOL    HW220457   4.132   4.256   0.955
 6641SOL     OW20458   4.856   4.100   1.681
 6641SOL    HW120459   4.809   4.155   1.743
 6641SOL    HW220460   4.943   4.139   1.676
 6642SOL     OW20461   4.885   3.926   1.469
 6642SOL    HW120462   4.874   3.988   1.541
 6642SOL    HW220463   4.924   3.978   1.398
 6643SOL     OW20464   3.735   5.044   0.178
 6643SOL    HW120465   3.647   5.057   0.144
 6643SOL    HW220466   3.733   4.958   0.219
 6644SOL     OW20467   4.706   4.516   1.226
 6644SOL    HW120468   4.763   4.494   1.300
 6644SOL    HW220469   4.621   4.478   1.250
 6645SOL     OW20470   3.760   4.268   1.116
 6645SOL    HW120471   3.841   4.255   1.067
 6645SOL    HW220472   3.788   4.272   1.208
 6646SOL     OW20473   3.915   4.243   1.727
 6646SOL    HW120474   3.972   4.205   1.661
 6646SOL    HW220475   3.873   4.317   1.683
 6647SOL     OW20476   5.113   4.662   1.666
 6647SOL    HW120477   5.120   4.756   1.654
 6647SOL    HW220478   5.115   4.626   1.577
 6648SOL     OW20479   4.542   4.293   0.367
 6648SOL    HW120480   4.551   4.222   0.304
 6648SOL    HW220481   4.467   4.343   0.337
 6649SOL     OW20482   3.929   5.277   1.745
 6649SOL    HW120483   3.916   0.029   1.824
 6649SOL    HW220484   3.941   5.187   1.778
 6650SOL     OW20485   4.424   4.174   1.259
 6650SOL    HW120486   4.372   4.100   1.229
 6650SOL    HW220487   4.421   4.237   1.187
 6651SOL     OW20488   4.192   4.215   0.178
 6651SOL    HW120489   4.258   4.281   0.198
 6651SOL    HW220490   4.109   4.260   0.190
 6652SOL     OW20491   3.869   4.863   1.471
 6652SOL    HW120492   3.871   4.812   1.552
 6652SOL    HW220493   3.886   4.799   1.401
 6653SOL     OW20494   5.050   4.770   1.227
 6653SOL    HW120495   5.074   4.708   1.159
 6653SOL    HW220496   4.979   4.822   1.188
 6654SOL     OW20497   5.022   4.595   0.319
 6654SOL    HW120498   4.945   4.548   0.352
 6654SOL    HW220499   5.024   4.574   0.226
 6655SOL     OW20500   3.817   4.987   1.021
 6655SOL    HW120501   3.796   5.004   1.113
 6655SOL    HW220502   3.737   4.948   0.986
 6656SOL     OW20503   4.470   0.033   1.713
 6656SOL    HW120504   4.378   0.060   1.716
 6656SOL    HW220505   4.501   0.065   1.629
 6657SOL     OW20506   4.629   3.815   0.133
 6657SOL    HW120507   4.648   3.798   0.041
 6657SOL    HW220508   4.693   3.761   0.180
 6658SOL     OW20509   0.081   3.874   0.522
 6658SOL    HW120510   0.172   3.867   0.494
 6658SOL    HW220511   0.071   3.805   0.588
 6659SOL     OW20512   5.017   4.642   0.673
 6659SOL    HW120513   5.095   4.588   0.658
 6659SOL    HW220514   5.034   4.723   0.623
 6660SOL     OW20515   4.543   4.992   1.422
 6660SOL    HW120516   4.513   5.029   1.505
 6660SOL    HW220517   4.468   5.004   1.362
 6661SOL     OW20518   3.986   4.040   0.717
 6661SOL    HW120519   3.900   4.076   0.694
 6661SOL    HW220520   3.983   4.032   0.813
 6662SOL     OW20521   4.857   0.019   0.006
 6662SOL    HW120522   4.882   5.232   0.034
 6662SOL    HW220523   4.867   0.018   7.991
 6663SOL     OW20524   4.549   4.728   1.370
 6663SOL    HW120525   4.596   4.721   1.287
 6663SOL    HW220526   4.552   4.821   1.392
 6664SOL     OW20527   4.643   4.638   0.300
 6664SOL    HW120528   4.696   4.665   0.225
 6664SOL    HW220529   4.691   4.566   0.340
 6665SOL     OW20530   4.089   5.026   1.497
 6665SOL    HW120531   4.078   5.100   1.437
 6665SOL    HW220532   4.013   4.970   1.479
 6666SOL     OW20533   4.777   4.834   0.712
 6666SOL    HW120534   4.706   4.781   0.750
 6666SOL    HW220535   4.835   4.770   0.671
 6667SOL     OW20536   4.739   3.963   0.968
 6667SOL    HW120537   4.738   3.916   0.885
 6667SOL    HW220538   4.736   3.894   1.035
 6668SOL     OW20539   3.988   5.027   0.288
 6668SOL    HW120540   3.907   5.044   0.241
 6668SOL    HW220541   3.979   5.078   0.369
 6669SOL     OW20542   3.836   4.745   1.718
 6669SOL    HW120543   3.760   4.722   1.772
 6669SOL    HW220544   3.911   4.708   1.765
 6670SOL     OW20545   4.398   3.920   1.499
 6670SOL    HW120546   4.482   3.900   1.458
 6670SOL    HW220547   4.421   3.952   1.587
 6671SOL     OW20548   3.781   4.086   0.039
 6671SOL    HW120549   3.706   4.033   0.015
 6671SOL    HW220550   3.829   4.098   8.037
 6672SOL     OW20551   5.164   4.584   1.404
 6672SOL    HW120552   5.111   4.641   1.348
 6672SOL    HW220553   5.252   4.591   1.368
 6673SOL     OW20554   3.795   3.878   0.305
 6673SOL    HW120555   3.779   3.962   0.263
 6673SOL    HW220556   3.879   3.849   0.270
 6674SOL     OW20557   4.906   5.052   0.107
 6674SOL    HW120558   4.811   5.047   0.106
 6674SOL    HW220559   4.928   5.060   0.200
 6675SOL     OW20560   4.343   4.555   1.433
 6675SOL    HW120561   4.399   4.631   1.417
 6675SOL    HW220562   4.403   4.481   1.442
 6676SOL     OW20563   4.441   4.287   1.704
 6676SOL    HW120564   4.482   4.350   1.765
 6676SOL    HW220565   4.468   4.201   1.736
 6677SOL     OW20566   5.184   4.928   1.633
 6677SOL    HW120567   5.173   4.939   1.727
 6677SOL    HW220568   5.278   4.932   1.618
 6678SOL     OW20569   4.933   4.049   0.461
 6678SOL    HW120570   4.996   3.977   0.450
 6678SOL    HW220571   4.963   4.095   0.539
 6679SOL     OW20572   4.312   4.461   0.669
 6679SOL    HW120573   4.352   4.547   0.656
 6679SOL    HW220574   4.244   4.456   0.602
 6680SOL     OW20575   4.635   5.096   0.038
 6680SOL    HW120576   4.574   5.078   0.110
 6680SOL    HW220577   4.588   5.159   8.063
 6681SOL     OW20578   4.592   4.691   0.855
 6681SOL    HW120579   4.642   4.620   0.895
 6681SOL    HW220580   4.558   4.741   0.930
 6682SOL     OW20581   4.801   4.700   0.087
 6682SOL    HW120582   4.787   4.758   0.012
 6682SOL    HW220583   4.883   4.654   0.068
 6683SOL     OW20584   3.947   5.024   1.853
 6683SOL    HW120585   3.878   4.962   1.828
 6683SOL    HW220586   3.936   5.035   1.947
 6684SOL     OW20587   3.811   4.954   0.669
 6684SOL    HW120588   3.809   4.902   0.750
 6684SOL    HW220589   3.879   4.914   0.616
 6685SOL     OW20590   4.394   5.104   1.609
 6685SOL    HW120591   4.318   5.073   1.657
 6685SOL    HW220592   4.425   5.180   1.659
 6686SOL     OW20593   4.148   4.160   0.523
 6686SOL    HW120594   4.182   4.089   0.469
 6686SOL    HW220595   4.104   4.116   0.596
 6687SOL     OW20596   0.123   5.229   1.051
 6687SOL    HW120597   0.038   5.205   1.012
 6687SOL    HW220598   0.106   5.235   1.145
 6688SOL     OW20599   4.054   4.279   1.292
 6688SOL    HW120600   4.109   4.224   1.347
 6688SOL    HW220601   4.074   4.251   1.202
 6689SOL     OW20602   5.148   3.942   1.115
 6689SOL    HW120603   5.193   3.878   1.169
 6689SOL    HW220604   5.102   3.998   1.177
 6690SOL     OW20605   4.730   3.742   1.142
 6690SOL    HW120606   4.677   3.674   1.101
 6690SOL    HW220607   4.818   3.705   1.147
 6691SOL     OW20608   4.518   5.039   0.282
 6691SOL    HW120609   4.465   4.964   0.308
 6691SOL    HW220610   4.578   5.054   0.356
 6692SOL     OW20611   4.346   5.299   1.291
 6692SOL    HW120612   4.353   0.053   1.370
 6692SOL    HW220613   4.437   5.280   1.267
 6693SOL     OW20614   5.051   3.785   0.186
 6693SOL    HW120615   5.093   3.736   0.116
 6693SOL    HW220616   4.973   3.734   0.208
 6694SOL     OW20617   5.028   4.185   0.683
 6694SOL    HW120618   4.973   4.263   0.688
 6694SOL    HW220619   5.016   4.143   0.768
 6695SOL     OW20620   0.000   3.949   0.878
 6695SOL    HW120621   5.237   3.935   0.948
 6695SOL    HW220622   5.275   4.033   0.839
 6696SOL     OW20623   3.765   4.791   0.304
 6696SOL    HW120624   3.861   4.794   0.308
 6696SOL    HW220625   3.742   4.707   0.343
 6697SOL     OW20626   3.953   4.347   1.985
 6697SOL    HW120627   3.864   4.346   2.019
 6697SOL    HW220628   3.944   4.322   1.893
 6698SOL     OW20629   3.949   4.005   2.854
 6698SOL    HW120630   3.977   3.971   2.938
 6698SOL    HW220631   3.859   3.973   2.844
 6699SOL     OW20632   3.728   4.107   2.500
 6699SOL    HW120633   3.645   4.132   2.541
 6699SOL    HW220634   3.707   4.027   2.451
 6700SOL     OW20635   4.290   5.005   3.041
 6700SOL    HW120636   4.205   5.004   2.997
 6700SOL    HW220637   4.302   5.097   3.067
 6701SOL     OW20638   5.275   5.232   2.555
 6701SOL    HW120639   5.266   5.216   2.649
 6701SOL    HW220640   5.185   5.231   2.522
 6702SOL     OW20641   4.858   4.423   2.562
 6702SOL    HW120642   4.909   4.504   2.552
 6702SOL    HW220643   4.810   4.435   2.643
 6703SOL     OW20644   4.480   4.868   2.900
 6703SOL    HW120645   4.412   4.899   2.960
 6703SOL    HW220646   4.510   4.946   2.854
 6704SOL     OW20647   4.592   4.498   3.685
 6704SOL    HW120648   4.575   4.570   3.745
 6704SOL    HW220649   4.614   4.542   3.602
 6705SOL     OW20650   4.410   4.726   2.510
 6705SOL    HW120651   4.475   4.716   2.580
 6705SOL    HW220652   4.341   4.779   2.549
 6706SOL     OW20653   4.433   4.873   3.675
 6706SOL    HW120654   4.481   4.953   3.698
 6706SOL    HW220655   4.350   4.905   3.639
 6707SOL     OW20656   4.061   5.151   2.922
 6707SOL    HW120657   3.984   5.106   2.886
 6707SOL    HW220658   4.101   5.194   2.846
 6708SOL     OW20659   5.130   5.237   3.203
 6708SOL    HW120660   5.149   0.007   3.265
 6708SOL    HW220661   5.108   5.162   3.258
 6709SOL     OW20662   4.173   4.122   3.349
 6709SOL    HW120663   4.248   4.063   3.355
 6709SOL    HW220664   4.097   4.066   3.362
 6710SOL     OW20665   4.864   5.052   3.562
 6710SOL    HW120666   4.886   5.065   3.654
 6710SOL    HW220667   4.803   4.978   3.563
 6711SOL     OW20668   3.934   5.156   2.382
 6711SOL    HW120669   3.960   5.238   2.424
 6711SOL    HW220670   3.882   5.110   2.449
 6712SOL     OW20671   3.982   4.811   2.754
 6712SOL    HW120672   3.980   4.724   2.793
 6712SOL    HW220673   3.924   4.864   2.809
 6713SOL     OW20674   4.309   4.705   1.996
 6713SOL    HW120675   4.356   4.755   1.928
 6713SOL    HW220676   4.348   4.735   2.078
 6714SOL     OW20677   3.839   4.377   2.421
 6714SOL    HW120678   3.810   4.288   2.443
 6714SOL    HW220679   3.831   4.425   2.504
 6715SOL     OW20680   3.710   0.014   1.961
 6715SOL    HW120681   3.726   5.224   1.991
 6715SOL    HW220682   3.732   0.069   2.036
 6716SOL     OW20683   0.112   4.658   2.428
 6716SOL    HW120684   0.199   4.626   2.452
 6716SOL    HW220685   0.127   4.749   2.402
 6717SOL     OW20686   3.847   4.466   3.448
 6717SOL    HW120687   3.939   4.492   3.455
 6717SOL    HW220688   3.799   4.549   3.456
 6718SOL     OW20689   4.346   5.098   2.599
 6718SOL    HW120690   4.292   5.019   2.597
 6718SOL    HW220691   4.327   5.141   2.515
 6719SOL     OW20692   5.021   4.971   3.282
 6719SOL    HW120693   5.048   4.899   3.225
 6719SOL    HW220694   5.067   4.956   3.364
 6720SOL     OW20695   4.538   3.724   2.370
 6720SOL    HW120696   4.579   3.809   2.351
 6720SOL    HW220697   4.445   3.744   2.380
 6721SOL     OW20698   3.914   4.690   3.132
 6721SOL    HW120699   3.999   4.647   3.118
 6721SOL    HW220700   3.852   4.635   3.085
 6722SOL     OW20701   4.057   3.974   3.674
 6722SOL    HW120702   4.102   4.057   3.690
 6722SOL    HW220703   3.968   3.988   3.705
 6723SOL     OW20704   5.178   5.153   2.813
 6723SOL    HW120705   5.110   5.162   2.880
 6723SOL    HW220706   5.164   5.066   2.777
 6724SOL     OW20707   0.045   0.164   2.427
 6724SOL    HW120708   0.086   0.124   2.350
 6724SOL    HW220709   0.034   0.091   2.488
 6725SOL     OW20710   4.320   4.445   2.128
 6725SOL    HW120711   4.326   4.527   2.078
 6725SOL    HW220712   4.255   4.463   2.196
 6726SOL     OW20713   4.996   4.061   2.781
 6726SOL    HW120714   4.907   4.031   2.803
 6726SOL    HW220715   5.050   4.026   2.852
 6727SOL     OW20716   4.514   4.342   3.313
 6727SOL    HW120717   4.489   4.318   3.402
 6727SOL    HW220718   4.475   4.275   3.257
 6728SOL     OW20719   5.115   4.204   3.542
 6728SOL    HW120720   5.116   4.242   3.630
 6728SOL    HW220721   5.190   4.146   3.540
 6729SOL     OW20722   4.678   4.612   3.444
 6729SOL    HW120723   4.731   4.540   3.409
 6729SOL    HW220724   4.630   4.646   3.368
 6730SOL     OW20725   4.715   4.137   3.100
 6730SOL    HW120726   4.629   4.158   3.136
 6730SOL    HW220727   4.696   4.090   3.019
 6731SOL     OW20728   4.775   4.422   2.287
 6731SOL    HW120729   4.791   4.416   2.381
 6731SOL    HW220730   4.692   4.376   2.274
 6732SOL     OW20731   3.812   4.545   2.638
 6732SOL    HW120732   3.893   4.538   2.689
 6732SOL    HW220733   3.769   4.623   2.673
 6733SOL     OW20734   4.617   4.071   2.056
 6733SOL    HW120735   4.657   4.133   1.994
 6733SOL    HW220736   4.633   3.985   2.018
 6734SOL     OW20737   5.092   4.868   2.408
 6734SOL    HW120738   5.182   4.868   2.375
 6734SOL    HW220739   5.046   4.928   2.350
 6735SOL     OW20740   4.274   3.906   2.755
 6735SOL    HW120741   4.276   3.934   2.846
 6735SOL    HW220742   4.275   3.987   2.704
 6736SOL     OW20743   4.745   5.168   2.332
 6736SOL    HW120744   4.668   5.224   2.325
 6736SOL    HW220745   4.761   5.160   2.426
 6737SOL     OW20746   4.939   5.261   3.417
 6737SOL    HW120747   4.915   5.178   3.460
 6737SOL    HW220748   4.901   5.254   3.330
 6738SOL     OW20749   4.044   4.680   2.112
 6738SOL    HW120750   4.126   4.700   2.067
 6738SOL    HW220751   4.014   4.599   2.072
 6739SOL     OW20752   4.188   4.987   3.603
 6739SOL    HW120753   4.162   4.990   3.511
 6739SOL    HW220754   4.106   4.986   3.652
 6740SOL     OW20755   4.790   0.173   2.073
 6740SOL    HW120756   4.803   0.117   2.150
 6740SOL    HW220757   4.866   0.156   2.018
 6741SOL     OW20758   3.925   4.005   3.363
 6741SOL    HW120759   3.843   4.054   3.360
 6741SOL    HW220760   3.907   3.934   3.425
 6742SOL     OW20761   5.121   3.831   2.286
 6742SOL    HW120762   5.101   3.813   2.194
 6742SOL    HW220763   5.215   3.847   2.288
 6743SOL     OW20764   4.117   4.419   2.338
 6743SOL    HW120765   4.137   4.326   2.350
 6743SOL    HW220766   4.023   4.425   2.355
 6744SOL     OW20767   4.359   3.846   1.967
 6744SOL    HW120768   4.429   3.782   1.979
 6744SOL    HW220769   4.310   3.815   1.891
 6745SOL     OW20770   4.490   4.003   3.617
 6745SOL    HW120771   4.566   3.945   3.617
 6745SOL    HW220772   4.441   3.979   3.696
 6746SOL     OW20773   5.058   4.316   3.294
 6746SOL    HW120774   5.090   4.284   3.378
 6746SOL    HW220775   5.100   4.400   3.283
 6747SOL     OW20776   4.536   5.119   2.798
 6747SOL    HW120777   4.617   5.106   2.748
 6747SOL    HW220778   4.468   5.126   2.731
 6748SOL     OW20779   4.651   4.233   2.765
 6748SOL    HW120780   4.628   4.224   2.672
 6748SOL    HW220781   4.683   4.146   2.790
 6749SOL     OW20782   4.273   3.787   2.364
 6749SOL    HW120783   4.192   3.788   2.416
 6749SOL    HW220784   4.267   3.865   2.309
 6750SOL     OW20785   5.136   4.904   1.905
 6750SOL    HW120786   5.143   4.825   1.959
 6750SOL    HW220787   5.047   4.936   1.921
 6751SOL     OW20788   4.016   3.771   2.046
 6751SOL    HW120789   4.075   3.836   2.007
 6751SOL    HW220790   4.074   3.708   2.088
 6752SOL     OW20791   4.661   3.970   2.322
 6752SOL    HW120792   4.635   4.011   2.239
 6752SOL    HW220793   4.756   3.983   2.325
 6753SOL     OW20794   4.801   4.405   3.323
 6753SOL    HW120795   4.734   4.337   3.325
 6753SOL    HW220796   4.884   4.358   3.313
 6754SOL     OW20797   4.984   5.266   2.633
 6754SOL    HW120798   4.948   0.052   2.612
 6754SOL    HW220799   5.038   5.279   2.711
 6755SOL     OW20800   4.190   4.872   2.592
 6755SOL    HW120801   4.121   4.852   2.656
 6755SOL    HW220802   4.149   4.854   2.507
 6756SOL     OW20803   4.748   4.267   1.884
 6756SOL    HW120804   4.704   4.350   1.864
 6756SOL    HW220805   4.809   4.289   1.954
 6757SOL     OW20806   3.803   4.279   3.254
 6757SOL    HW120807   3.895   4.277   3.227
 6757SOL    HW220808   3.798   4.349   3.319
 6758SOL     OW20809   4.283   3.951   3.028
 6758SOL    HW120810   4.325   3.874   3.068
 6758SOL    HW220811   4.192   3.947   3.058
 6759SOL     OW20812   4.592   4.183   2.501
 6759SOL    HW120813   4.546   4.238   2.438
 6759SOL    HW220814   4.613   4.103   2.453
 6760SOL     OW20815   4.739   3.777   2.614
 6760SOL    HW120816   4.681   3.770   2.538
 6760SOL    HW220817   4.717   3.701   2.668
 6761SOL     OW20818   5.152   4.901   2.712
 6761SOL    HW120819   5.100   4.822   2.723
 6761SOL    HW220820   5.169   4.906   2.618
 6762SOL     OW20821   4.204   5.147   2.016
 6762SOL    HW120822   4.142   5.094   2.067
 6762SOL    HW220823   4.207   5.104   1.930
 6763SOL     OW20824   5.127   4.286   1.942
 6763SOL    HW120825   5.055   4.276   2.003
 6763SOL    HW220826   5.202   4.248   1.988
 6764SOL     OW20827   4.249   3.987   2.180
 6764SOL    HW120828   4.294   3.939   2.110
 6764SOL    HW220829   4.227   4.071   2.141
 6765SOL     OW20830   4.787   5.074   3.192
 6765SOL    HW120831   4.709   5.049   3.242
 6765SOL    HW220832   4.860   5.036   3.241
 6766SOL     OW20833   4.848   4.923   2.971
 6766SOL    HW120834   4.798   4.965   3.040
 6766SOL    HW220835   4.805   4.950   2.889
 6767SOL     OW20836   4.642   3.822   3.258
 6767SOL    HW120837   4.664   3.803   3.167
 6767SOL    HW220838   4.721   3.861   3.295
 6768SOL     OW20839   4.705   4.833   3.592
 6768SOL    HW120840   4.613   4.852   3.608
 6768SOL    HW220841   4.704   4.759   3.532
 6769SOL     OW20842   4.428   4.782   2.234
 6769SOL    HW120843   4.416   4.766   2.328
 6769SOL    HW220844   4.506   4.732   2.211
 6770SOL     OW20845   4.143   4.539   3.113
 6770SOL    HW120846   4.211   4.548   3.180
 6770SOL    HW220847   4.108   4.451   3.127
 6771SOL     OW20848   4.988   4.099   3.139
 6771SOL    HW120849   5.023   4.178   3.180
 6771SOL    HW220850   4.899   4.123   3.114
 6772SOL     OW20851   4.071   4.832   2.351
 6772SOL    HW120852   4.074   4.906   2.289
 6772SOL    HW220853   4.070   4.754   2.296
 6773SOL     OW20854   4.276   4.261   2.722
 6773SOL    HW120855   4.292   4.319   2.647
 6773SOL    HW220856   4.342   4.287   2.787
 6774SOL     OW20857   4.985   5.077   2.249
 6774SOL    HW120858   5.037   5.153   2.276
 6774SOL    HW220859   4.896   5.099   2.277
 6775SOL     OW20860   4.978   5.181   2.993
 6775SOL    HW120861   5.033   5.204   3.068
 6775SOL    HW220862   4.940   5.097   3.016
 6776SOL     OW20863   4.072   5.236   3.176
 6776SOL    HW120864   4.061   5.201   3.088
 6776SOL    HW220865   4.166   5.257   3.183
 6777SOL     OW20866   4.138   4.469   3.464
 6777SOL    HW120867   4.200   4.513   3.406
 6777SOL    HW220868   4.178   4.383   3.480
 6778SOL     OW20869   4.718   3.849   3.618
 6778SOL    HW120870   4.775   3.921   3.591
 6778SOL    HW220871   4.765   3.770   3.592
 6779SOL     OW20872   4.222   3.765   3.610
 6779SOL    HW120873   4.179   3.710   3.544
 6779SOL    HW220874   4.163   3.839   3.622
 6780SOL     OW20875   4.307   4.596   2.893
 6780SOL    HW120876   4.338   4.687   2.892
 6780SOL    HW220877   4.251   4.591   2.970
 6781SOL     OW20878   5.086   4.581   2.897
 6781SOL    HW120879   5.009   4.562   2.845
 6781SOL    HW220880   5.138   4.501   2.894
 6782SOL     OW20881   4.928   4.255   2.127
 6782SOL    HW120882   4.935   4.175   2.179
 6782SOL    HW220883   4.885   4.318   2.184
 6783SOL     OW20884   4.023   3.922   3.109
 6783SOL    HW120885   3.986   3.955   3.191
 6783SOL    HW220886   4.004   3.829   3.109
 6784SOL     OW20887   3.776   5.047   3.147
 6784SOL    HW120888   3.801   4.982   3.213
 6784SOL    HW220889   3.813   5.129   3.179
 6785SOL     OW20890   4.448   4.355   2.920
 6785SOL    HW120891   4.523   4.339   2.863
 6785SOL    HW220892   4.420   4.444   2.898
 6786SOL     OW20893   4.027   3.788   2.485
 6786SOL    HW120894   4.007   3.879   2.508
 6786SOL    HW220895   4.034   3.743   2.569
 6787SOL     OW20896   0.034   4.118   2.221
 6787SOL    HW120897   0.054   4.043   2.278
 6787SOL    HW220898   0.019   4.190   2.281
 6788SOL     OW20899   4.751   4.483   2.822
 6788SOL    HW120900   4.749   4.501   2.916
 6788SOL    HW220901   4.725   4.391   2.815
 6789SOL     OW20902   4.077   4.640   3.670
 6789SOL    HW120903   4.159   4.659   3.716
 6789SOL    HW220904   4.101   4.577   3.602
 6790SOL     OW20905   5.027   4.553   1.898
 6790SOL    HW120906   5.065   4.465   1.900
 6790SOL    HW220907   5.054   4.588   1.814
 6791SOL     OW20908   4.781   5.079   2.688
 6791SOL    HW120909   4.787   4.994   2.645
 6791SOL    HW220910   4.866   5.120   2.674
 6792SOL     OW20911   4.033   4.533   2.809
 6792SOL    HW120912   4.126   4.554   2.803
 6792SOL    HW220913   4.031   4.443   2.842
 6793SOL     OW20914   4.055   4.250   2.874
 6793SOL    HW120915   4.020   4.162   2.859
 6793SOL    HW220916   4.132   4.256   2.817
 6794SOL     OW20917   4.856   4.100   3.543
 6794SOL    HW120918   4.809   4.155   3.605
 6794SOL    HW220919   4.943   4.139   3.538
 6795SOL     OW20920   4.885   3.926   3.331
 6795SOL    HW120921   4.874   3.988   3.403
 6795SOL    HW220922   4.924   3.978   3.260
 6796SOL     OW20923   3.730   5.041   2.052
 6796SOL    HW120924   3.640   5.058   2.026
 6796SOL    HW220925   3.728   4.953   2.090
 6797SOL     OW20926   4.706   4.516   3.088
 6797SOL    HW120927   4.762   4.494   3.162
 6797SOL    HW220928   4.621   4.478   3.111
 6798SOL     OW20929   3.760   4.268   2.979
 6798SOL    HW120930   3.840   4.255   2.929
 6798SOL    HW220931   3.788   4.272   3.070
 6799SOL     OW20932   3.915   4.243   3.589
 6799SOL    HW120933   3.972   4.205   3.523
 6799SOL    HW220934   3.873   4.317   3.545
 6800SOL     OW20935   5.113   4.662   3.528
 6800SOL    HW120936   5.120   4.757   3.516
 6800SOL    HW220937   5.115   4.626   3.439
 6801SOL     OW20938   4.540   4.293   2.221
 6801SOL    HW120939   4.543   4.218   2.162
 6801SOL    HW220940   4.466   4.346   2.190
 6802SOL     OW20941   3.929   5.277   3.607
 6802SOL    HW120942   3.916   0.029   3.686
 6802SOL    HW220943   3.941   5.187   3.640
 6803SOL     OW20944   4.424   4.174   3.121
 6803SOL    HW120945   4.372   4.100   3.091
 6803SOL    HW220946   4.421   4.237   3.049
 6804SOL     OW20947   4.188   4.216   2.049
 6804SOL    HW120948   4.246   4.289   2.071
 6804SOL    HW220949   4.103   4.257   2.036
 6805SOL     OW20950   3.869   4.863   3.333
 6805SOL    HW120951   3.871   4.812   3.414
 6805SOL    HW220952   3.887   4.799   3.263
 6806SOL     OW20953   5.050   4.770   3.089
 6806SOL    HW120954   5.075   4.708   3.020
 6806SOL    HW220955   4.980   4.822   3.050
 6807SOL     OW20956   5.034   4.584   2.178
 6807SOL    HW120957   4.952   4.550   2.215
 6807SOL    HW220958   5.023   4.575   2.084
 6808SOL     OW20959   3.817   4.987   2.884
 6808SOL    HW120960   3.796   5.004   2.975
 6808SOL    HW220961   3.738   4.948   2.847
 6809SOL     OW20962   4.470   0.033   3.575
 6809SOL    HW120963   4.378   0.060   3.578
 6809SOL    HW220964   4.501   0.065   3.490
 6810SOL     OW20965   0.081   3.884   2.392
 6810SOL    HW120966   0.165   3.871   2.349
 6810SOL    HW220967   0.067   3.804   2.444
 6811SOL     OW20968   5.016   4.643   2.535
 6811SOL    HW120969   5.094   4.588   2.522
 6811SOL    HW220970   5.035   4.723   2.485
 6812SOL     OW20971   4.543   4.993   3.283
 6812SOL    HW120972   4.513   5.029   3.367
 6812SOL    HW220973   4.468   5.004   3.224
 6813SOL     OW20974   3.986   4.040   2.579
 6813SOL    HW120975   3.900   4.075   2.555
 6813SOL    HW220976   3.983   4.032   2.674
 6814SOL     OW20977   4.549   4.728   3.232
 6814SOL    HW120978   4.595   4.721   3.149
 6814SOL    HW220979   4.552   4.821   3.254
 6815SOL     OW20980   4.640   4.636   2.153
 6815SOL    HW120981   4.702   4.668   2.087
 6815SOL    HW220982   4.687   4.565   2.197
 6816SOL     OW20983   4.089   5.026   3.359
 6816SOL    HW120984   4.078   5.100   3.299
 6816SOL    HW220985   4.013   4.970   3.341
 6817SOL     OW20986   4.778   4.833   2.574
 6817SOL    HW120987   4.706   4.783   2.612
 6817SOL    HW220988   4.835   4.768   2.535
 6818SOL     OW20989   4.739   3.963   2.830
 6818SOL    HW120990   4.737   3.916   2.747
 6818SOL    HW220991   4.736   3.895   2.897
 6819SOL     OW20992   3.982   5.052   2.145
 6819SOL    HW120993   3.890   5.054   2.118
 6819SOL    HW220994   3.983   5.095   2.230
 6820SOL     OW20995   3.836   4.746   3.580
 6820SOL    HW120996   3.760   4.722   3.634
 6820SOL    HW220997   3.911   4.708   3.627
 6821SOL     OW20998   4.398   3.920   3.361
 6821SOL    HW120999   4.482   3.900   3.320
 6821SOL    HW221000   4.421   3.952   3.449
 6822SOL     OW21001   3.802   4.058   1.897
 6822SOL    HW121002   3.715   4.038   1.863
 6822SOL    HW221003   3.832   4.133   1.845
 6823SOL     OW21004   5.163   4.584   3.266
 6823SOL    HW121005   5.111   4.641   3.210
 6823SOL    HW221006   5.252   4.591   3.231
 6824SOL     OW21007   3.792   3.880   2.172
 6824SOL    HW121008   3.778   3.960   2.121
 6824SOL    HW221009   3.877   3.847   2.142
 6825SOL     OW21010   4.909   5.059   1.983
 6825SOL    HW121011   4.815   5.041   1.982
 6825SOL    HW221012   4.933   5.055   2.075
 6826SOL     OW21013   4.343   4.555   3.295
 6826SOL    HW121014   4.399   4.630   3.280
 6826SOL    HW221015   4.403   4.481   3.304
 6827SOL     OW21016   4.442   4.287   3.566
 6827SOL    HW121017   4.482   4.349   3.627
 6827SOL    HW221018   4.468   4.201   3.598
 6828SOL     OW21019   5.184   4.928   3.495
 6828SOL    HW121020   5.173   4.939   3.589
 6828SOL    HW221021   5.279   4.931   3.481
 6829SOL     OW21022   4.940   4.044   2.318
 6829SOL    HW121023   5.002   3.972   2.305
 6829SOL    HW221024   4.970   4.088   2.397
 6830SOL     OW21025   4.314   4.461   2.531
 6830SOL    HW121026   4.353   4.548   2.517
 6830SOL    HW221027   4.246   4.454   2.464
 6831SOL     OW21028   4.580   5.095   1.882
 6831SOL    HW121029   4.557   5.098   1.974
 6831SOL    HW221030   4.589   5.186   1.856
 6832SOL     OW21031   4.592   4.691   2.717
 6832SOL    HW121032   4.642   4.620   2.757
 6832SOL    HW221033   4.557   4.741   2.792
 6833SOL     OW21034   4.808   4.712   1.954
 6833SOL    HW121035   4.781   4.760   1.876
 6833SOL    HW221036   4.882   4.658   1.925
 6834SOL     OW21037   3.947   5.024   3.715
 6834SOL    HW121038   3.879   4.961   3.690
 6834SOL    HW221039   3.936   5.035   3.809
 6835SOL     OW21040   3.810   4.955   2.532
 6835SOL    HW121041   3.810   4.903   2.612
 6835SOL    HW221042   3.874   4.912   2.475
 6836SOL     OW21043   4.394   5.104   3.470
 6836SOL    HW121044   4.318   5.073   3.519
 6836SOL    HW221045   4.425   5.180   3.521
 6837SOL     OW21046   4.153   4.158   2.388
 6837SOL    HW121047   4.183   4.087   2.331
 6837SOL    HW221048   4.105   4.114   2.458
 6838SOL     OW21049   0.123   5.229   2.912
 6838SOL    HW121050   0.038   5.204   2.875
 6838SOL    HW221051   0.107   5.238   3.005
 6839SOL     OW21052   4.054   4.279   3.154
 6839SOL    HW121053   4.109   4.224   3.209
 6839SOL    HW221054   4.073   4.251   3.064
 6840SOL     OW21055   5.147   3.942   2.977
 6840SOL    HW121056   5.193   3.878   3.031
 6840SOL    HW221057   5.101   3.998   3.040
 6841SOL     OW21058   4.730   3.743   3.004
 6841SOL    HW121059   4.676   3.674   2.964
 6841SOL    HW221060   4.818   3.705   3.009
 6842SOL     OW21061   4.526   5.046   2.146
 6842SOL    HW121062   4.466   4.975   2.166
 6842SOL    HW221063   4.581   5.054   2.224
 6843SOL     OW21064   4.346   5.299   3.153
 6843SOL    HW121065   4.353   0.054   3.232
 6843SOL    HW221066   4.437   5.280   3.130
 6844SOL     OW21067   5.058   3.770   2.029
 6844SOL    HW121068   5.082   3.729   1.946
 6844SOL    HW221069   4.973   3.732   2.051
 6845SOL     OW21070   5.028   4.182   2.544
 6845SOL    HW121071   4.973   4.261   2.548
 6845SOL    HW221072   5.017   4.141   2.630
 6846SOL     OW21073   0.002   3.949   2.742
 6846SOL    HW121074   5.236   3.937   2.811
 6846SOL    HW221075   5.276   4.029   2.697
 6847SOL     OW21076   3.766   4.794   2.169
 6847SOL    HW121077   3.860   4.788   2.152
 6847SOL    HW221078   3.740   4.705   2.191
 6848SOL     OW21079   3.953   4.347   3.847
 6848SOL    HW121080   3.864   4.346   3.881
 6848SOL    HW221081   3.944   4.322   3.755
 6849SOL     OW21082   3.949   4.005   4.716
 6849SOL    HW121083   3.977   3.971   4.800
 6849SOL    HW221084   3.859   3.973   4.706
 6850SOL     OW21085   3.728   4.107   4.362
 6850SOL    HW121086   3.645   4.131   4.403
 6850SOL    HW221087   3.707   4.027   4.313
 6851SOL     OW21088   4.290   5.005   4.903
 6851SOL    HW121089   4.205   5.004   4.859
 6851SOL    HW221090   4.302   5.097   4.929
 6852SOL     OW21091   5.275   5.232   4.417
 6852SOL    HW121092   5.266   5.216   4.511
 6852SOL    HW221093   5.185   5.231   4.384
 6853SOL     OW21094   4.858   4.423   4.424
 6853SOL    HW121095   4.909   4.504   4.414
 6853SOL    HW221096   4.810   4.435   4.505
 6854SOL     OW21097   4.480   4.868   4.762
 6854SOL    HW121098   4.412   4.899   4.822
 6854SOL    HW221099   4.510   4.946   4.716
 6855SOL     OW21100   4.592   4.498   5.546
 6855SOL    HW121101   4.575   4.570   5.607
 6855SOL    HW221102   4.614   4.542   5.464
 6856SOL     OW21103   4.410   4.726   4.372
 6856SOL    HW121104   4.475   4.716   4.442
 6856SOL    HW221105   4.341   4.779   4.411
 6857SOL     OW21106   4.433   4.873   5.537
 6857SOL    HW121107   4.481   4.953   5.560
 6857SOL    HW221108   4.350   4.905   5.501
 6858SOL     OW21109   4.061   5.151   4.784
 6858SOL    HW121110   3.984   5.106   4.749
 6858SOL    HW221111   4.101   5.194   4.708
 6859SOL     OW21112   5.130   5.237   5.065
 6859SOL    HW121113   5.149   0.007   5.127
 6859SOL    HW221114   5.108   5.162   5.120
 6860SOL     OW21115   4.173   4.122   5.212
 6860SOL    HW121116   4.248   4.063   5.217
 6860SOL    HW221117   4.097   4.066   5.224
 6861SOL     OW21118   4.864   5.052   5.424
 6861SOL    HW121119   4.886   5.065   5.516
 6861SOL    HW221120   4.803   4.978   5.425
 6862SOL     OW21121   3.934   5.156   4.244
 6862SOL    HW121122   3.960   5.238   4.286
 6862SOL    HW221123   3.882   5.110   4.311
 6863SOL     OW21124   3.982   4.811   4.616
 6863SOL    HW121125   3.980   4.724   4.655
 6863SOL    HW221126   3.925   4.864   4.671
 6864SOL     OW21127   4.309   4.705   3.858
 6864SOL    HW121128   4.356   4.755   3.790
 6864SOL    HW221129   4.348   4.735   3.940
 6865SOL     OW21130   3.839   4.377   4.283
 6865SOL    HW121131   3.810   4.288   4.304
 6865SOL    HW221132   3.831   4.425   4.366
 6866SOL     OW21133   3.710   0.014   3.823
 6866SOL    HW121134   3.726   5.224   3.852
 6866SOL    HW221135   3.732   0.069   3.898
 6867SOL     OW21136   0.112   4.658   4.290
 6867SOL    HW121137   0.199   4.625   4.314
 6867SOL    HW221138   0.127   4.749   4.264
 6868SOL     OW21139   3.847   4.466   5.310
 6868SOL    HW121140   3.939   4.492   5.317
 6868SOL    HW221141   3.799   4.549   5.318
 6869SOL     OW21142   4.346   5.098   4.461
 6869SOL    HW121143   4.292   5.019   4.459
 6869SOL    HW221144   4.327   5.141   4.377
 6870SOL     OW21145   5.021   4.971   5.144
 6870SOL    HW121146   5.048   4.899   5.087
 6870SOL    HW221147   5.067   4.956   5.226
 6871SOL     OW21148   4.538   3.724   4.233
 6871SOL    HW121149   4.579   3.809   4.213
 6871SOL    HW221150   4.445   3.744   4.242
 6872SOL     OW21151   3.914   4.690   4.994
 6872SOL    HW121152   3.999   4.647   4.980
 6872SOL    HW221153   3.852   4.635   4.947
 6873SOL     OW21154   4.057   3.974   5.536
 6873SOL    HW121155   4.102   4.057   5.552
 6873SOL    HW221156   3.968   3.988   5.567
 6874SOL     OW21157   5.178   5.153   4.675
 6874SOL    HW121158   5.110   5.162   4.742
 6874SOL    HW221159   5.164   5.066   4.639
 6875SOL     OW21160   0.044   0.163   4.289
 6875SOL    HW121161   0.087   0.124   4.212
 6875SOL    HW221162   0.034   0.091   4.350
 6876SOL     OW21163   4.320   4.445   3.990
 6876SOL    HW121164   4.326   4.527   3.940
 6876SOL    HW221165   4.255   4.463   4.058
 6877SOL     OW21166   4.996   4.061   4.643
 6877SOL    HW121167   4.907   4.031   4.665
 6877SOL    HW221168   5.050   4.026   4.714
 6878SOL     OW21169   4.514   4.342   5.175
 6878SOL    HW121170   4.489   4.318   5.264
 6878SOL    HW221171   4.475   4.275   5.119
 6879SOL     OW21172   5.115   4.204   5.404
 6879SOL    HW121173   5.116   4.242   5.492
 6879SOL    HW221174   5.191   4.146   5.402
 6880SOL     OW21175   4.678   4.612   5.306
 6880SOL    HW121176   4.731   4.540   5.271
 6880SOL    HW221177   4.630   4.646   5.230
 6881SOL     OW21178   4.715   4.137   4.962
 6881SOL    HW121179   4.629   4.158   4.998
 6881SOL    HW221180   4.696   4.090   4.881
 6882SOL     OW21181   4.775   4.422   4.149
 6882SOL    HW121182   4.790   4.416   4.243
 6882SOL    HW221183   4.692   4.376   4.136
 6883SOL     OW21184   3.812   4.545   4.500
 6883SOL    HW121185   3.893   4.538   4.551
 6883SOL    HW221186   3.769   4.623   4.535
 6884SOL     OW21187   4.617   4.072   3.918
 6884SOL    HW121188   4.657   4.133   3.856
 6884SOL    HW221189   4.632   3.985   3.880
 6885SOL     OW21190   5.092   4.868   4.270
 6885SOL    HW121191   5.182   4.868   4.237
 6885SOL    HW221192   5.046   4.928   4.212
 6886SOL     OW21193   4.274   3.905   4.617
 6886SOL    HW121194   4.276   3.935   4.708
 6886SOL    HW221195   4.275   3.986   4.566
 6887SOL     OW21196   4.745   5.168   4.194
 6887SOL    HW121197   4.668   5.224   4.187
 6887SOL    HW221198   4.761   5.160   4.288
 6888SOL     OW21199   4.939   5.261   5.279
 6888SOL    HW121200   4.915   5.178   5.322
 6888SOL    HW221201   4.901   5.254   5.192
 6889SOL     OW21202   4.044   4.680   3.974
 6889SOL    HW121203   4.126   4.700   3.929
 6889SOL    HW221204   4.014   4.599   3.934
 6890SOL     OW21205   4.188   4.987   5.465
 6890SOL    HW121206   4.162   4.990   5.373
 6890SOL    HW221207   4.106   4.986   5.514
 6891SOL     OW21208   4.790   0.173   3.935
 6891SOL    HW121209   4.803   0.117   4.012
 6891SOL    HW221210   4.867   0.156   3.880
 6892SOL     OW21211   3.925   4.005   5.225
 6892SOL    HW121212   3.843   4.055   5.220
 6892SOL    HW221213   3.907   3.935   5.288
 6893SOL     OW21214   5.121   3.831   4.148
 6893SOL    HW121215   5.101   3.813   4.056
 6893SOL    HW221216   5.215   3.847   4.150
 6894SOL     OW21217   4.117   4.419   4.200
 6894SOL    HW121218   4.138   4.326   4.212
 6894SOL    HW221219   4.023   4.425   4.217
 6895SOL     OW21220   4.359   3.847   3.829
 6895SOL    HW121221   4.429   3.782   3.841
 6895SOL    HW221222   4.310   3.815   3.753
 6896SOL     OW21223   4.490   4.003   5.478
 6896SOL    HW121224   4.566   3.945   5.479
 6896SOL    HW221225   4.442   3.980   5.558
 6897SOL     OW21226   5.058   4.316   5.156
 6897SOL    HW121227   5.090   4.284   5.240
 6897SOL    HW221228   5.100   4.400   5.145
 6898SOL     OW21229   4.536   5.119   4.660
 6898SOL    HW121230   4.617   5.106   4.610
 6898SOL    HW221231   4.468   5.126   4.593
 6899SOL     OW21232   4.651   4.233   4.627
 6899SOL    HW121233   4.628   4.224   4.534
 6899SOL    HW221234   4.683   4.146   4.652
 6900SOL     OW21235   4.273   3.787   4.226
 6900SOL    HW121236   4.192   3.788   4.278
 6900SOL    HW221237   4.267   3.865   4.171
 6901SOL     OW21238   5.136   4.904   3.767
 6901SOL    HW121239   5.143   4.825   3.821
 6901SOL    HW221240   5.047   4.936   3.783
 6902SOL     OW21241   4.016   3.771   3.908
 6902SOL    HW121242   4.074   3.836   3.869
 6902SOL    HW221243   4.074   3.708   3.950
 6903SOL     OW21244   4.661   3.971   4.184
 6903SOL    HW121245   4.635   4.011   4.101
 6903SOL    HW221246   4.756   3.983   4.187
 6904SOL     OW21247   4.801   4.405   5.185
 6904SOL    HW121248   4.734   4.337   5.187
 6904SOL    HW221249   4.884   4.358   5.175
 6905SOL     OW21250   4.984   5.266   4.495
 6905SOL    HW121251   4.948   0.052   4.475
 6905SOL    HW221252   5.038   5.279   4.573
 6906SOL     OW21253   4.190   4.872   4.454
 6906SOL    HW121254   4.121   4.852   4.518
 6906SOL    HW221255   4.149   4.854   4.369
 6907SOL     OW21256   4.748   4.267   3.746
 6907SOL    HW121257   4.704   4.350   3.726
 6907SOL    HW221258   4.809   4.289   3.816
 6908SOL     OW21259   3.803   4.278   5.116
 6908SOL    HW121260   3.895   4.277   5.089
 6908SOL    HW221261   3.798   4.349   5.181
 6909SOL     OW21262   4.283   3.951   4.890
 6909SOL    HW121263   4.325   3.875   4.929
 6909SOL    HW221264   4.192   3.947   4.920
 6910SOL     OW21265   4.592   4.183   4.363
 6910SOL    HW121266   4.546   4.238   4.300
 6910SOL    HW221267   4.613   4.103   4.315
 6911SOL     OW21268   4.739   3.777   4.476
 6911SOL    HW121269   4.681   3.770   4.400
 6911SOL    HW221270   4.717   3.701   4.530
 6912SOL     OW21271   5.152   4.901   4.574
 6912SOL    HW121272   5.100   4.822   4.585
 6912SOL    HW221273   5.169   4.906   4.480
 6913SOL     OW21274   4.204   5.147   3.877
 6913SOL    HW121275   4.142   5.094   3.929
 6913SOL    HW221276   4.207   5.103   3.792
 6914SOL     OW21277   5.127   4.286   3.804
 6914SOL    HW121278   5.055   4.276   3.865
 6914SOL    HW221279   5.202   4.248   3.849
 6915SOL     OW21280   4.250   3.987   4.042
 6915SOL    HW121281   4.294   3.939   3.972
 6915SOL    HW221282   4.227   4.071   4.003
 6916SOL     OW21283   4.787   5.074   5.054
 6916SOL    HW121284   4.709   5.049   5.104
 6916SOL    HW221285   4.860   5.036   5.103
 6917SOL     OW21286   4.848   4.923   4.833
 6917SOL    HW121287   4.798   4.965   4.902
 6917SOL    HW221288   4.805   4.950   4.751
 6918SOL     OW21289   4.642   3.822   5.120
 6918SOL    HW121290   4.664   3.803   5.029
 6918SOL    HW221291   4.721   3.861   5.157
 6919SOL     OW21292   4.706   4.833   5.454
 6919SOL    HW121293   4.613   4.852   5.470
 6919SOL    HW221294   4.704   4.759   5.394
 6920SOL     OW21295   4.428   4.782   4.096
 6920SOL    HW121296   4.416   4.766   4.189
 6920SOL    HW221297   4.506   4.732   4.073
 6921SOL     OW21298   4.143   4.539   4.975
 6921SOL    HW121299   4.211   4.548   5.042
 6921SOL    HW221300   4.108   4.451   4.989
 6922SOL     OW21301   4.988   4.099   5.001
 6922SOL    HW121302   5.023   4.178   5.042
 6922SOL    HW221303   4.899   4.123   4.976
 6923SOL     OW21304   4.071   4.832   4.213
 6923SOL    HW121305   4.074   4.905   4.151
 6923SOL    HW221306   4.070   4.754   4.158
 6924SOL     OW21307   4.277   4.261   4.584
 6924SOL    HW121308   4.292   4.319   4.509
 6924SOL    HW221309   4.342   4.287   4.649
 6925SOL     OW21310   4.985   5.077   4.111
 6925SOL    HW121311   5.037   5.152   4.138
 6925SOL    HW221312   4.896   5.099   4.139
 6926SOL     OW21313   4.978   5.181   4.855
 6926SOL    HW121314   5.033   5.204   4.930
 6926SOL    HW221315   4.940   5.097   4.878
 6927SOL     OW21316   4.072   5.236   5.038
 6927SOL    HW121317   4.061   5.201   4.950
 6927SOL    HW221318   4.166   5.257   5.044
 6928SOL     OW21319   4.138   4.469   5.326
 6928SOL    HW121320   4.200   4.513   5.268
 6928SOL    HW221321   4.178   4.383   5.342
 6929SOL     OW21322   4.718   3.849   5.480
 6929SOL    HW121323   4.775   3.921   5.453
 6929SOL    HW221324   4.765   3.770   5.454
 6930SOL     OW21325   4.222   3.765   5.472
 6930SOL    HW121326   4.179   3.710   5.406
 6930SOL    HW221327   4.163   3.839   5.484
 6931SOL     OW21328   4.307   4.596   4.755
 6931SOL    HW121329   4.338   4.687   4.754
 6931SOL    HW221330   4.251   4.591   4.832
 6932SOL     OW21331   5.086   4.581   4.759
 6932SOL    HW121332   5.009   4.562   4.707
 6932SOL    HW221333   5.138   4.501   4.756
 6933SOL     OW21334   4.928   4.255   3.989
 6933SOL    HW121335   4.935   4.175   4.041
 6933SOL    HW221336   4.884   4.318   4.046
 6934SOL     OW21337   4.023   3.922   4.971
 6934SOL    HW121338   3.986   3.955   5.053
 6934SOL    HW221339   4.003   3.828   4.971
 6935SOL     OW21340   3.776   5.047   5.009
 6935SOL    HW121341   3.801   4.982   5.075
 6935SOL    HW221342   3.812   5.129   5.041
 6936SOL     OW21343   4.448   4.355   4.782
 6936SOL    HW121344   4.523   4.339   4.725
 6936SOL    HW221345   4.420   4.444   4.761
 6937SOL     OW21346   4.027   3.789   4.347
 6937SOL    HW121347   4.008   3.879   4.370
 6937SOL    HW221348   4.034   3.743   4.431
 6938SOL     OW21349   0.035   4.118   4.083
 6938SOL    HW121350   0.054   4.043   4.140
 6938SOL    HW221351   0.019   4.190   4.144
 6939SOL     OW21352   4.751   4.483   4.684
 6939SOL    HW121353   4.749   4.501   4.778
 6939SOL    HW221354   4.725   4.391   4.676
 6940SOL     OW21355   4.077   4.640   5.533
 6940SOL    HW121356   4.159   4.659   5.578
 6940SOL    HW221357   4.101   4.577   5.464
 6941SOL     OW21358   5.027   4.553   3.761
 6941SOL    HW121359   5.065   4.465   3.763
 6941SOL    HW221360   5.054   4.588   3.676
 6942SOL     OW21361   4.781   5.079   4.550
 6942SOL    HW121362   4.787   4.994   4.507
 6942SOL    HW221363   4.866   5.120   4.536
 6943SOL     OW21364   4.033   4.533   4.671
 6943SOL    HW121365   4.126   4.554   4.665
 6943SOL    HW221366   4.031   4.443   4.704
 6944SOL     OW21367   4.055   4.250   4.736
 6944SOL    HW121368   4.020   4.162   4.721
 6944SOL    HW221369   4.132   4.256   4.679
 6945SOL     OW21370   4.856   4.100   5.405
 6945SOL    HW121371   4.809   4.155   5.467
 6945SOL    HW221372   4.943   4.139   5.400
 6946SOL     OW21373   4.885   3.926   5.193
 6946SOL    HW121374   4.874   3.988   5.265
 6946SOL    HW221375   4.924   3.978   5.122
 6947SOL     OW21376   3.730   5.041   3.914
 6947SOL    HW121377   3.640   5.058   3.888
 6947SOL    HW221378   3.728   4.953   3.952
 6948SOL     OW21379   4.706   4.516   4.950
 6948SOL    HW121380   4.762   4.494   5.024
 6948SOL    HW221381   4.621   4.478   4.972
 6949SOL     OW21382   3.760   4.269   4.841
 6949SOL    HW121383   3.840   4.255   4.791
 6949SOL    HW221384   3.788   4.272   4.932
 6950SOL     OW21385   3.915   4.243   5.451
 6950SOL    HW121386   3.972   4.205   5.384
 6950SOL    HW221387   3.873   4.317   5.407
 6951SOL     OW21388   5.113   4.662   5.390
 6951SOL    HW121389   5.120   4.757   5.378
 6951SOL    HW221390   5.115   4.626   5.301
 6952SOL     OW21391   4.540   4.293   4.083
 6952SOL    HW121392   4.543   4.218   4.024
 6952SOL    HW221393   4.466   4.345   4.052
 6953SOL     OW21394   3.929   5.277   5.469
 6953SOL    HW121395   3.915   0.029   5.548
 6953SOL    HW221396   3.941   5.187   5.502
 6954SOL     OW21397   4.424   4.174   4.983
 6954SOL    HW121398   4.372   4.100   4.953
 6954SOL    HW221399   4.421   4.237   4.911
 6955SOL     OW21400   4.188   4.217   3.911
 6955SOL    HW121401   4.246   4.289   3.933
 6955SOL    HW221402   4.103   4.257   3.898
 6956SOL     OW21403   3.869   4.863   5.195
 6956SOL    HW121404   3.871   4.812   5.276
 6956SOL    HW221405   3.886   4.799   5.125
 6957SOL     OW21406   5.050   4.770   4.951
 6957SOL    HW121407   5.075   4.708   4.882
 6957SOL    HW221408   4.980   4.822   4.912
 6958SOL     OW21409   5.033   4.585   4.040
 6958SOL    HW121410   4.952   4.550   4.077
 6958SOL    HW221411   5.023   4.575   3.946
 6959SOL     OW21412   3.818   4.987   4.746
 6959SOL    HW121413   3.796   5.004   4.837
 6959SOL    HW221414   3.738   4.948   4.709
 6960SOL     OW21415   4.470   0.033   5.437
 6960SOL    HW121416   4.378   0.060   5.440
 6960SOL    HW221417   4.501   0.065   5.352
 6961SOL     OW21418   0.081   3.884   4.254
 6961SOL    HW121419   0.165   3.870   4.210
 6961SOL    HW221420   0.067   3.804   4.306
 6962SOL     OW21421   5.016   4.643   4.397
 6962SOL    HW121422   5.094   4.588   4.384
 6962SOL    HW221423   5.035   4.723   4.347
 6963SOL     OW21424   4.543   4.993   5.145
 6963SOL    HW121425   4.513   5.029   5.229
 6963SOL    HW221426   4.468   5.004   5.086
 6964SOL     OW21427   3.986   4.040   4.441
 6964SOL    HW121428   3.900   4.075   4.417
 6964SOL    HW221429   3.983   4.032   4.536
 6965SOL     OW21430   4.549   4.728   5.094
 6965SOL    HW121431   4.595   4.721   5.011
 6965SOL    HW221432   4.552   4.821   5.116
 6966SOL     OW21433   4.640   4.636   4.014
 6966SOL    HW121434   4.702   4.668   3.949
 6966SOL    HW221435   4.687   4.565   4.059
 6967SOL     OW21436   4.089   5.026   5.221
 6967SOL    HW121437   4.078   5.100   5.161
 6967SOL    HW221438   4.013   4.970   5.203
 6968SOL     OW21439   4.778   4.833   4.436
 6968SOL    HW121440   4.706   4.783   4.474
 6968SOL    HW221441   4.835   4.768   4.397
 6969SOL     OW21442   4.739   3.963   4.692
 6969SOL    HW121443   4.737   3.916   4.609
 6969SOL    HW221444   4.736   3.894   4.759
 6970SOL     OW21445   3.982   5.052   4.007
 6970SOL    HW121446   3.890   5.054   3.980
 6970SOL    HW221447   3.983   5.095   4.092
 6971SOL     OW21448   3.836   4.746   5.442
 6971SOL    HW121449   3.760   4.722   5.496
 6971SOL    HW221450   3.911   4.708   5.489
 6972SOL     OW21451   4.398   3.920   5.224
 6972SOL    HW121452   4.482   3.900   5.182
 6972SOL    HW221453   4.421   3.952   5.311
 6973SOL     OW21454   3.802   4.058   3.759
 6973SOL    HW121455   3.715   4.038   3.725
 6973SOL    HW221456   3.832   4.133   3.707
 6974SOL     OW21457   5.163   4.584   5.128
 6974SOL    HW121458   5.111   4.641   5.072
 6974SOL    HW221459   5.252   4.591   5.093
 6975SOL     OW21460   3.792   3.881   4.034
 6975SOL    HW121461   3.778   3.960   3.983
 6975SOL    HW221462   3.877   3.848   4.004
 6976SOL     OW21463   4.909   5.059   3.845
 6976SOL    HW121464   4.815   5.041   3.844
 6976SOL    HW221465   4.933   5.055   3.937
 6977SOL     OW21466   4.343   4.555   5.157
 6977SOL    HW121467   4.399   4.631   5.142
 6977SOL    HW221468   4.403   4.481   5.166
 6978SOL     OW21469   4.441   4.287   5.428
 6978SOL    HW121470   4.482   4.349   5.489
 6978SOL    HW221471   4.468   4.201   5.460
 6979SOL     OW21472   5.184   4.928   5.357
 6979SOL    HW121473   5.173   4.939   5.451
 6979SOL    HW221474   5.279   4.931   5.343
 6980SOL     OW21475   4.940   4.044   4.180
 6980SOL    HW121476   5.002   3.972   4.167
 6980SOL    HW221477   4.970   4.088   4.259
 6981SOL     OW21478   4.314   4.462   4.393
 6981SOL    HW121479   4.353   4.548   4.379
 6981SOL    HW221480   4.246   4.454   4.326
 6982SOL     OW21481   4.580   5.095   3.744
 6982SOL    HW121482   4.557   5.098   3.836
 6982SOL    HW221483   4.589   5.187   3.718
 6983SOL     OW21484   4.592   4.692   4.579
 6983SOL    HW121485   4.642   4.620   4.619
 6983SOL    HW221486   4.557   4.741   4.654
 6984SOL     OW21487   4.808   4.713   3.816
 6984SOL    HW121488   4.781   4.760   3.738
 6984SOL    HW221489   4.882   4.658   3.787
 6985SOL     OW21490   3.947   5.024   5.577
 6985SOL    HW121491   3.879   4.961   5.552
 6985SOL    HW221492   3.936   5.035   5.671
 6986SOL     OW21493   3.810   4.955   4.394
 6986SOL    HW121494   3.809   4.903   4.474
 6986SOL    HW221495   3.874   4.912   4.337
 6987SOL     OW21496   4.394   5.104   5.333
 6987SOL    HW121497   4.318   5.073   5.381
 6987SOL    HW221498   4.425   5.180   5.383
 6988SOL     OW21499   4.154   4.158   4.250
 6988SOL    HW121500   4.183   4.087   4.192
 6988SOL    HW221501   4.105   4.114   4.320
 6989SOL     OW21502   0.123   5.229   4.774
 6989SOL    HW121503   0.038   5.204   4.737
 6989SOL    HW221504   0.107   5.238   4.867
 6990SOL     OW21505   4.054   4.279   5.016
 6990SOL    HW121506   4.110   4.224   5.071
 6990SOL    HW221507   4.073   4.251   4.926
 6991SOL     OW21508   5.147   3.942   4.839
 6991SOL    HW121509   5.193   3.878   4.893
 6991SOL    HW221510   5.101   3.998   4.902
 6992SOL     OW21511   4.730   3.742   4.866
 6992SOL    HW121512   4.677   3.674   4.825
 6992SOL    HW221513   4.818   3.705   4.871
 6993SOL     OW21514   4.526   5.046   4.008
 6993SOL    HW121515   4.466   4.975   4.028
 6993SOL    HW221516   4.581   5.054   4.086
 6994SOL     OW21517   4.346   5.299   5.015
 6994SOL    HW121518   4.353   0.054   5.094
 6994SOL    HW221519   4.437   5.280   4.992
 6995SOL     OW21520   5.058   3.770   3.891
 6995SOL    HW121521   5.082   3.729   3.808
 6995SOL    HW221522   4.973   3.732   3.913
 6996SOL     OW21523   5.028   4.182   4.406
 6996SOL    HW121524   4.973   4.261   4.410
 6996SOL    HW221525   5.017   4.141   4.492
 6997SOL     OW21526   0.002   3.949   4.604
 6997SOL    HW121527   5.236   3.937   4.673
 6997SOL    HW221528   5.276   4.029   4.559
 6998SOL     OW21529   3.766   4.794   4.031
 6998SOL    HW121530   3.860   4.788   4.014
 6998SOL    HW221531   3.740   4.705   4.053
 6999SOL     OW21532   3.953   4.347   5.709
 6999SOL    HW121533   3.864   4.346   5.743
 6999SOL    HW221534   3.944   4.322   5.617
 7000SOL     OW21535   3.949   4.005   6.578
 7000SOL    HW121536   3.977   3.971   6.662
 7000SOL    HW221537   3.859   3.973   6.568
 7001SOL     OW21538   3.728   4.107   6.224
 7001SOL    HW121539   3.645   4.132   6.265
 7001SOL    HW221540   3.707   4.027   6.175
 7002SOL     OW21541   4.290   5.005   6.765
 7002SOL    HW121542   4.205   5.004   6.721
 7002SOL    HW221543   4.302   5.097   6.791
 7003SOL     OW21544   5.275   5.232   6.279
 7003SOL    HW121545   5.266   5.216   6.373
 7003SOL    HW221546   5.185   5.231   6.246
 7004SOL     OW21547   4.858   4.423   6.286
 7004SOL    HW121548   4.909   4.504   6.276
 7004SOL    HW221549   4.810   4.435   6.367
 7005SOL     OW21550   4.480   4.868   6.624
 7005SOL    HW121551   4.412   4.899   6.684
 7005SOL    HW221552   4.510   4.946   6.579
 7006SOL     OW21553   4.592   4.500   7.407
 7006SOL    HW121554   4.569   4.575   7.463
 7006SOL    HW221555   4.616   4.539   7.323
 7007SOL     OW21556   4.410   4.726   6.234
 7007SOL    HW121557   4.475   4.716   6.304
 7007SOL    HW221558   4.341   4.779   6.273
 7008SOL     OW21559   4.433   4.874   7.399
 7008SOL    HW121560   4.482   4.953   7.421
 7008SOL    HW221561   4.350   4.906   7.362
 7009SOL     OW21562   4.061   5.151   6.646
 7009SOL    HW121563   3.984   5.106   6.611
 7009SOL    HW221564   4.100   5.194   6.570
 7010SOL     OW21565   5.130   5.236   6.927
 7010SOL    HW121566   5.149   0.007   6.988
 7010SOL    HW221567   5.107   5.162   6.982
 7011SOL     OW21568   4.173   4.122   7.074
 7011SOL    HW121569   4.248   4.063   7.079
 7011SOL    HW221570   4.097   4.066   7.086
 7012SOL     OW21571   4.864   5.051   7.285
 7012SOL    HW121572   4.888   5.064   7.376
 7012SOL    HW221573   4.803   4.977   7.286
 7013SOL     OW21574   3.934   5.156   6.106
 7013SOL    HW121575   3.960   5.238   6.148
 7013SOL    HW221576   3.882   5.110   6.173
 7014SOL     OW21577   3.982   4.811   6.478
 7014SOL    HW121578   3.980   4.724   6.517
 7014SOL    HW221579   3.925   4.864   6.533
 7015SOL     OW21580   4.310   4.705   5.720
 7015SOL    HW121581   4.356   4.755   5.652
 7015SOL    HW221582   4.348   4.735   5.802
 7016SOL     OW21583   3.839   4.377   6.145
 7016SOL    HW121584   3.810   4.288   6.167
 7016SOL    HW221585   3.831   4.425   6.228
 7017SOL     OW21586   3.710   0.014   5.684
 7017SOL    HW121587   3.726   5.224   5.715
 7017SOL    HW221588   3.732   0.069   5.759
 7018SOL     OW21589   0.112   4.658   6.153
 7018SOL    HW121590   0.199   4.626   6.175
 7018SOL    HW221591   0.126   4.749   6.126
 7019SOL     OW21592   3.847   4.466   7.172
 7019SOL    HW121593   3.939   4.492   7.179
 7019SOL    HW221594   3.798   4.548   7.179
 7020SOL     OW21595   4.346   5.098   6.323
 7020SOL    HW121596   4.292   5.019   6.321
 7020SOL    HW221597   4.327   5.141   6.240
 7021SOL     OW21598   5.020   4.971   7.006
 7021SOL    HW121599   5.048   4.899   6.949
 7021SOL    HW221600   5.067   4.956   7.088
 7022SOL     OW21601   4.538   3.724   6.095
 7022SOL    HW121602   4.579   3.809   6.075
 7022SOL    HW221603   4.445   3.744   6.104
 7023SOL     OW21604   3.914   4.690   6.856
 7023SOL    HW121605   3.999   4.647   6.842
 7023SOL    HW221606   3.851   4.635   6.809
 7024SOL     OW21607   4.057   3.973   7.399
 7024SOL    HW121608   4.101   4.057   7.412
 7024SOL    HW221609   3.967   3.988   7.429
 7025SOL     OW21610   5.178   5.153   6.537
 7025SOL    HW121611   5.110   5.162   6.604
 7025SOL    HW221612   5.164   5.066   6.500
 7026SOL     OW21613   0.045   0.164   6.151
 7026SOL    HW121614   0.086   0.124   6.074
 7026SOL    HW221615   0.034   0.091   6.212
 7027SOL     OW21616   4.320   4.445   5.852
 7027SOL    HW121617   4.326   4.527   5.802
 7027SOL    HW221618   4.255   4.463   5.920
 7028SOL     OW21619   4.996   4.061   6.505
 7028SOL    HW121620   4.907   4.031   6.527
 7028SOL    HW221621   5.050   4.026   6.576
 7029SOL     OW21622   4.514   4.342   7.037
 7029SOL    HW121623   4.489   4.317   7.126
 7029SOL    HW221624   4.475   4.275   6.981
 7030SOL     OW21625   5.115   4.205   7.266
 7030SOL    HW121626   5.116   4.242   7.355
 7030SOL    HW221627   5.191   4.146   7.263
 7031SOL     OW21628   4.678   4.612   7.168
 7031SOL    HW121629   4.731   4.540   7.132
 7031SOL    HW221630   4.630   4.646   7.092
 7032SOL     OW21631   4.715   4.137   6.824
 7032SOL    HW121632   4.629   4.157   6.860
 7032SOL    HW221633   4.697   4.090   6.743
 7033SOL     OW21634   4.775   4.422   6.011
 7033SOL    HW121635   4.790   4.416   6.105
 7033SOL    HW221636   4.692   4.376   5.998
 7034SOL     OW21637   3.812   4.545   6.362
 7034SOL    HW121638   3.893   4.538   6.413
 7034SOL    HW221639   3.768   4.622   6.397
 7035SOL     OW21640   4.617   4.071   5.780
 7035SOL    HW121641   4.657   4.133   5.718
 7035SOL    HW221642   4.633   3.985   5.742
 7036SOL     OW21643   5.092   4.868   6.132
 7036SOL    HW121644   5.182   4.868   6.099
 7036SOL    HW221645   5.046   4.928   6.074
 7037SOL     OW21646   4.274   3.905   6.479
 7037SOL    HW121647   4.276   3.934   6.570
 7037SOL    HW221648   4.275   3.987   6.428
 7038SOL     OW21649   4.745   5.168   6.056
 7038SOL    HW121650   4.668   5.224   6.049
 7038SOL    HW221651   4.761   5.160   6.150
 7039SOL     OW21652   4.940   5.260   7.141
 7039SOL    HW121653   4.916   5.178   7.183
 7039SOL    HW221654   4.901   5.256   7.054
 7040SOL     OW21655   4.044   4.680   5.836
 7040SOL    HW121656   4.126   4.700   5.791
 7040SOL    HW221657   4.014   4.599   5.796
 7041SOL     OW21658   4.187   4.987   7.328
 7041SOL    HW121659   4.160   4.990   7.236
 7041SOL    HW221660   4.105   4.986   7.377
 7042SOL     OW21661   4.790   0.173   5.797
 7042SOL    HW121662   4.803   0.117   5.874
 7042SOL    HW221663   4.867   0.156   5.742
 7043SOL     OW21664   3.925   4.005   7.088
 7043SOL    HW121665   3.843   4.053   7.082
 7043SOL    HW221666   3.906   3.933   7.148
 7044SOL     OW21667   5.121   3.831   6.010
 7044SOL    HW121668   5.101   3.813   5.918
 7044SOL    HW221669   5.215   3.847   6.012
 7045SOL     OW21670   4.117   4.419   6.062
 7045SOL    HW121671   4.137   4.326   6.074
 7045SOL    HW221672   4.023   4.425   6.079
 7046SOL     OW21673   4.359   3.846   5.691
 7046SOL    HW121674   4.429   3.782   5.703
 7046SOL    HW221675   4.310   3.815   5.615
 7047SOL     OW21676   4.489   4.001   7.340
 7047SOL    HW121677   4.566   3.944   7.341
 7047SOL    HW221678   4.445   3.984   7.423
 7048SOL     OW21679   5.058   4.316   7.018
 7048SOL    HW121680   5.090   4.284   7.102
 7048SOL    HW221681   5.100   4.401   7.006
 7049SOL     OW21682   4.536   5.119   6.522
 7049SOL    HW121683   4.617   5.106   6.472
 7049SOL    HW221684   4.468   5.126   6.455
 7050SOL     OW21685   4.651   4.233   6.489
 7050SOL    HW121686   4.628   4.224   6.396
 7050SOL    HW221687   4.683   4.146   6.514
 7051SOL     OW21688   4.273   3.787   6.088
 7051SOL    HW121689   4.192   3.788   6.140
 7051SOL    HW221690   4.267   3.865   6.033
 7052SOL     OW21691   5.136   4.904   5.629
 7052SOL    HW121692   5.143   4.825   5.683
 7052SOL    HW221693   5.047   4.936   5.645
 7053SOL     OW21694   4.016   3.771   5.771
 7053SOL    HW121695   4.074   3.836   5.731
 7053SOL    HW221696   4.074   3.708   5.812
 7054SOL     OW21697   4.661   3.970   6.046
 7054SOL    HW121698   4.635   4.011   5.963
 7054SOL    HW221699   4.756   3.983   6.049
 7055SOL     OW21700   4.801   4.405   7.047
 7055SOL    HW121701   4.734   4.337   7.049
 7055SOL    HW221702   4.884   4.357   7.037
 7056SOL     OW21703   4.984   5.266   6.357
 7056SOL    HW121704   4.948   0.052   6.336
 7056SOL    HW221705   5.038   5.280   6.435
 7057SOL     OW21706   4.190   4.872   6.316
 7057SOL    HW121707   4.121   4.852   6.380
 7057SOL    HW221708   4.149   4.854   6.232
 7058SOL     OW21709   4.748   4.267   5.608
 7058SOL    HW121710   4.704   4.350   5.588
 7058SOL    HW221711   4.809   4.289   5.678
 7059SOL     OW21712   3.803   4.279   6.978
 7059SOL    HW121713   3.895   4.277   6.951
 7059SOL    HW221714   3.798   4.349   7.043
 7060SOL     OW21715   4.283   3.951   6.752
 7060SOL    HW121716   4.325   3.875   6.792
 7060SOL    HW221717   4.192   3.947   6.782
 7061SOL     OW21718   4.592   4.183   6.225
 7061SOL    HW121719   4.546   4.238   6.162
 7061SOL    HW221720   4.613   4.103   6.177
 7062SOL     OW21721   4.739   3.777   6.338
 7062SOL    HW121722   4.681   3.770   6.262
 7062SOL    HW221723   4.717   3.701   6.392
 7063SOL     OW21724   5.152   4.901   6.436
 7063SOL    HW121725   5.100   4.822   6.446
 7063SOL    HW221726   5.170   4.906   6.342
 7064SOL     OW21727   4.204   5.147   5.740
 7064SOL    HW121728   4.142   5.094   5.791
 7064SOL    HW221729   4.207   5.104   5.654
 7065SOL     OW21730   5.127   4.286   5.666
 7065SOL    HW121731   5.055   4.276   5.728
 7065SOL    HW221732   5.203   4.248   5.711
 7066SOL     OW21733   4.249   3.987   5.904
 7066SOL    HW121734   4.294   3.939   5.834
 7066SOL    HW221735   4.227   4.071   5.865
 7067SOL     OW21736   4.786   5.074   6.916
 7067SOL    HW121737   4.709   5.049   6.966
 7067SOL    HW221738   4.859   5.036   6.965
 7068SOL     OW21739   4.848   4.923   6.695
 7068SOL    HW121740   4.797   4.965   6.764
 7068SOL    HW221741   4.805   4.950   6.613
 7069SOL     OW21742   4.641   3.822   6.982
 7069SOL    HW121743   4.664   3.803   6.891
 7069SOL    HW221744   4.721   3.860   7.019
 7070SOL     OW21745   4.706   4.832   7.318
 7070SOL    HW121746   4.614   4.853   7.332
 7070SOL    HW221747   4.705   4.758   7.257
 7071SOL     OW21748   4.428   4.782   5.958
 7071SOL    HW121749   4.416   4.766   6.051
 7071SOL    HW221750   4.506   4.732   5.935
 7072SOL     OW21751   4.143   4.539   6.837
 7072SOL    HW121752   4.211   4.548   6.904
 7072SOL    HW221753   4.108   4.451   6.851
 7073SOL     OW21754   4.988   4.099   6.862
 7073SOL    HW121755   5.023   4.179   6.903
 7073SOL    HW221756   4.899   4.123   6.838
 7074SOL     OW21757   4.071   4.832   6.075
 7074SOL    HW121758   4.074   4.906   6.013
 7074SOL    HW221759   4.070   4.754   6.019
 7075SOL     OW21760   4.276   4.261   6.446
 7075SOL    HW121761   4.292   4.319   6.371
 7075SOL    HW221762   4.342   4.287   6.511
 7076SOL     OW21763   4.985   5.077   5.973
 7076SOL    HW121764   5.037   5.153   6.000
 7076SOL    HW221765   4.896   5.099   6.001
 7077SOL     OW21766   4.978   5.181   6.717
 7077SOL    HW121767   5.033   5.204   6.792
 7077SOL    HW221768   4.940   5.097   6.740
 7078SOL     OW21769   4.072   5.236   6.901
 7078SOL    HW121770   4.061   5.201   6.812
 7078SOL    HW221771   4.166   5.257   6.906
 7079SOL     OW21772   4.138   4.469   7.188
 7079SOL    HW121773   4.200   4.513   7.130
 7079SOL    HW221774   4.177   4.383   7.203
 7080SOL     OW21775   4.718   3.849   7.341
 7080SOL    HW121776   4.775   3.921   7.313
 7080SOL    HW221777   4.765   3.770   7.316
 7081SOL     OW21778   4.222   3.764   7.334
 7081SOL    HW121779   4.179   3.710   7.268
 7081SOL    HW221780   4.163   3.839   7.346
 7082SOL     OW21781   4.307   4.596   6.617
 7082SOL    HW121782   4.337   4.687   6.615
 7082SOL    HW221783   4.251   4.591   6.694
 7083SOL     OW21784   5.086   4.581   6.622
 7083SOL    HW121785   5.009   4.562   6.568
 7083SOL    HW221786   5.138   4.500   6.617
 7084SOL     OW21787   4.928   4.255   5.851
 7084SOL    HW121788   4.935   4.175   5.903
 7084SOL    HW221789   4.885   4.318   5.908
 7085SOL     OW21790   4.023   3.922   6.833
 7085SOL    HW121791   3.986   3.955   6.915
 7085SOL    HW221792   4.004   3.829   6.833
 7086SOL     OW21793   3.777   5.046   6.870
 7086SOL    HW121794   3.801   4.982   6.937
 7086SOL    HW221795   3.812   5.129   6.903
 7087SOL     OW21796   4.448   4.355   6.644
 7087SOL    HW121797   4.523   4.339   6.586
 7087SOL    HW221798   4.420   4.444   6.622
 7088SOL     OW21799   4.027   3.788   6.209
 7088SOL    HW121800   4.007   3.879   6.232
 7088SOL    HW221801   4.034   3.743   6.293
 7089SOL     OW21802   0.034   4.118   5.945
 7089SOL    HW121803   0.054   4.043   6.002
 7089SOL    HW221804   0.019   4.190   6.006
 7090SOL     OW21805   4.751   4.483   6.546
 7090SOL    HW121806   4.749   4.501   6.640
 7090SOL    HW221807   4.725   4.391   6.539
 7091SOL     OW21808   4.077   4.639   7.396
 7091SOL    HW121809   4.160   4.659   7.439
 7091SOL    HW221810   4.101   4.577   7.327
 7092SOL     OW21811   5.027   4.553   5.623
 7092SOL    HW121812   5.065   4.465   5.625
 7092SOL    HW221813   5.054   4.588   5.538
 7093SOL     OW21814   4.781   5.079   6.412
 7093SOL    HW121815   4.787   4.994   6.369
 7093SOL    HW221816   4.866   5.120   6.398
 7094SOL     OW21817   4.033   4.533   6.533
 7094SOL    HW121818   4.126   4.554   6.527
 7094SOL    HW221819   4.031   4.443   6.566
 7095SOL     OW21820   4.055   4.250   6.598
 7095SOL    HW121821   4.020   4.162   6.583
 7095SOL    HW221822   4.132   4.256   6.541
 7096SOL     OW21823   4.857   4.100   7.266
 7096SOL    HW121824   4.809   4.155   7.328
 7096SOL    HW221825   4.944   4.140   7.261
 7097SOL     OW21826   4.885   3.926   7.054
 7097SOL    HW121827   4.874   3.988   7.126
 7097SOL    HW221828   4.924   3.978   6.984
 7098SOL     OW21829   3.730   5.041   5.776
 7098SOL    HW121830   3.640   5.058   5.750
 7098SOL    HW221831   3.728   4.953   5.814
 7099SOL     OW21832   4.706   4.516   6.813
 7099SOL    HW121833   4.762   4.493   6.887
 7099SOL    HW221834   4.621   4.477   6.834
 7100SOL     OW21835   3.760   4.269   6.702
 7100SOL    HW121836   3.840   4.255   6.653
 7100SOL    HW221837   3.788   4.272   6.794
 7101SOL     OW21838   3.916   4.243   7.313
 7101SOL    HW121839   3.971   4.203   7.246
 7101SOL    HW221840   3.874   4.317   7.270
 7102SOL     OW21841   5.112   4.662   7.253
 7102SOL    HW121842   5.119   4.757   7.240
 7102SOL    HW221843   5.115   4.626   7.164
 7103SOL     OW21844   4.540   4.293   5.945
 7103SOL    HW121845   4.543   4.218   5.886
 7103SOL    HW221846   4.466   4.346   5.914
 7104SOL     OW21847   3.930   5.275   7.329
 7104SOL    HW121848   3.900   0.025   7.405
 7104SOL    HW221849   3.943   5.187   7.363
 7105SOL     OW21850   4.424   4.174   6.845
 7105SOL    HW121851   4.372   4.100   6.815
 7105SOL    HW221852   4.421   4.237   6.773
 7106SOL     OW21853   4.188   4.216   5.773
 7106SOL    HW121854   4.246   4.289   5.795
 7106SOL    HW221855   4.103   4.257   5.760
 7107SOL     OW21856   3.869   4.863   7.057
 7107SOL    HW121857   3.871   4.812   7.138
 7107SOL    HW221858   3.886   4.799   6.988
 7108SOL     OW21859   5.050   4.770   6.813
 7108SOL    HW121860   5.075   4.708   6.744
 7108SOL    HW221861   4.980   4.822   6.774
 7109SOL     OW21862   5.033   4.584   5.902
 7109SOL    HW121863   4.952   4.550   5.939
 7109SOL    HW221864   5.023   4.575   5.808
 7110SOL     OW21865   3.818   4.987   6.607
 7110SOL    HW121866   3.796   5.004   6.699
 7110SOL    HW221867   3.738   4.948   6.571
 7111SOL     OW21868   4.469   0.031   7.301
 7111SOL    HW121869   4.377   0.059   7.302
 7111SOL    HW221870   4.503   0.066   7.218
 7112SOL     OW21871   0.081   3.884   6.116
 7112SOL    HW121872   0.165   3.871   6.072
 7112SOL    HW221873   0.067   3.804   6.167
 7113SOL     OW21874   5.016   4.643   6.259
 7113SOL    HW121875   5.094   4.588   6.246
 7113SOL    HW221876   5.035   4.723   6.209
 7114SOL     OW21877   4.543   4.993   7.007
 7114SOL    HW121878   4.512   5.029   7.091
 7114SOL    HW221879   4.468   5.004   6.948
 7115SOL     OW21880   3.986   4.040   6.303
 7115SOL    HW121881   3.900   4.075   6.279
 7115SOL    HW221882   3.983   4.032   6.398
 7116SOL     OW21883   4.549   4.728   6.957
 7116SOL    HW121884   4.595   4.721   6.873
 7116SOL    HW221885   4.552   4.821   6.978
 7117SOL     OW21886   4.640   4.636   5.877
 7117SOL    HW121887   4.702   4.668   5.811
 7117SOL    HW221888   4.687   4.565   5.921
 7118SOL     OW21889   4.089   5.026   7.083
 7118SOL    HW121890   4.079   5.100   7.023
 7118SOL    HW221891   4.013   4.970   7.065
 7119SOL     OW21892   4.778   4.833   6.298
 7119SOL    HW121893   4.706   4.783   6.336
 7119SOL    HW221894   4.835   4.768   6.259
 7120SOL     OW21895   4.739   3.963   6.554
 7120SOL    HW121896   4.737   3.916   6.471
 7120SOL    HW221897   4.736   3.894   6.621
 7121SOL     OW21898   3.982   5.052   5.869
 7121SOL    HW121899   3.890   5.054   5.842
 7121SOL    HW221900   3.983   5.095   5.954
 7122SOL     OW21901   3.837   4.746   7.305
 7122SOL    HW121902   3.760   4.723   7.357
 7122SOL    HW221903   3.911   4.708   7.352
 7123SOL     OW21904   4.398   3.920   7.085
 7123SOL    HW121905   4.482   3.900   7.044
 7123SOL    HW221906   4.421   3.951   7.173
 7124SOL     OW21907   3.802   4.058   5.621
 7124SOL    HW121908   3.715   4.038   5.587
 7124SOL    HW221909   3.832   4.133   5.570
 7125SOL     OW21910   5.164   4.584   6.990
 7125SOL    HW121911   5.111   4.641   6.934
 7125SOL    HW221912   5.252   4.591   6.954
 7126SOL     OW21913   3.792   3.880   5.896
 7126SOL    HW121914   3.778   3.960   5.845
 7126SOL    HW221915   3.877   3.847   5.866
 7127SOL     OW21916   4.909   5.059   5.707
 7127SOL    HW121917   4.815   5.041   5.706
 7127SOL    HW221918   4.933   5.055   5.799
 7128SOL     OW21919   4.343   4.555   7.020
 7128SOL    HW121920   4.399   4.630   7.003
 7128SOL    HW221921   4.403   4.481   7.028
 7129SOL     OW21922   4.442   4.287   7.290
 7129SOL    HW121923   4.482   4.348   7.352
 7129SOL    HW221924   4.468   4.200   7.322
 7130SOL     OW21925   5.184   4.927   7.218
 7130SOL    HW121926   5.173   4.939   7.312
 7130SOL    HW221927   5.278   4.931   7.204
 7131SOL     OW21928   4.940   4.044   6.042
 7131SOL    HW121929   5.002   3.972   6.029
 7131SOL    HW221930   4.970   4.088   6.121
 7132SOL     OW21931   4.314   4.462   6.255
 7132SOL    HW121932   4.353   4.548   6.241
 7132SOL    HW221933   4.246   4.454   6.188
 7133SOL     OW21934   4.580   5.095   5.606
 7133SOL    HW121935   4.557   5.098   5.698
 7133SOL    HW221936   4.589   5.187   5.580
 7134SOL     OW21937   4.592   4.692   6.441
 7134SOL    HW121938   4.642   4.620   6.481
 7134SOL    HW221939   4.557   4.741   6.516
 7135SOL     OW21940   4.808   4.712   5.678
 7135SOL    HW121941   4.781   4.760   5.600
 7135SOL    HW221942   4.882   4.658   5.649
 7136SOL     OW21943   3.946   5.023   7.442
 7136SOL    HW121944   3.880   4.960   7.411
 7136SOL    HW221945   3.925   5.037   7.534
 7137SOL     OW21946   3.810   4.955   6.256
 7137SOL    HW121947   3.809   4.903   6.336
 7137SOL    HW221948   3.874   4.912   6.199
 7138SOL     OW21949   4.394   5.103   7.195
 7138SOL    HW121950   4.317   5.073   7.243
 7138SOL    HW221951   4.425   5.179   7.244
 7139SOL     OW21952   4.154   4.158   6.112
 7139SOL    HW121953   4.183   4.087   6.054
 7139SOL    HW221954   4.105   4.114   6.182
 7140SOL     OW21955   0.123   5.229   6.636
 7140SOL    HW121956   0.038   5.204   6.599
 7140SOL    HW221957   0.107   5.237   6.730
 7141SOL     OW21958   4.054   4.279   6.878
 7141SOL    HW121959   4.110   4.224   6.933
 7141SOL    HW221960   4.073   4.251   6.788
 7142SOL     OW21961   5.147   3.943   6.701
 7142SOL    HW121962   5.192   3.878   6.755
 7142SOL    HW221963   5.101   3.998   6.764
 7143SOL     OW21964   4.730   3.743   6.728
 7143SOL    HW121965   4.677   3.674   6.688
 7143SOL    HW221966   4.818   3.705   6.733
 7144SOL     OW21967   4.526   5.046   5.870
 7144SOL    HW121968   4.466   4.975   5.890
 7144SOL    HW221969   4.581   5.054   5.948
 7145SOL     OW21970   4.346   5.299   6.878
 7145SOL    HW121971   4.353   0.054   6.956
 7145SOL    HW221972   4.437   5.280   6.854
 7146SOL     OW21973   5.058   3.770   5.753
 7146SOL    HW121974   5.082   3.729   5.670
 7146SOL    HW221975   4.973   3.732   5.775
 7147SOL     OW21976   5.028   4.182   6.268
 7147SOL    HW121977   4.973   4.261   6.272
 7147SOL    HW221978   5.017   4.141   6.354
 7148SOL     OW21979   0.002   3.949   6.466
 7148SOL    HW121980   5.236   3.938   6.535
 7148SOL    HW221981   5.276   4.029   6.421
 7149SOL     OW21982   3.766   4.794   5.893
 7149SOL    HW121983   3.860   4.788   5.876
 7149SOL    HW221984   3.740   4.705   5.915
 7150SOL     OW21985   3.953   4.343   7.572
 7150SOL    HW121986   3.862   4.350   7.602
 7150SOL    HW221987   3.945   4.320   7.479
 7151SOL     OW21988   4.001   0.125   7.958
 7151SOL    HW121989   3.975   0.211   7.992
 7151SOL    HW221990   4.006   0.139   7.863
 7152SOL     OW21991   3.941   5.156   7.990
 7152SOL    HW121992   3.954   5.251   7.997
 7152SOL    HW221993   3.883   5.135   8.063
 7153SOL     OW21994   4.310   4.705   7.579
 7153SOL    HW121995   4.355   4.756   7.511
 7153SOL    HW221996   4.348   4.736   7.661
 7154SOL     OW21997   3.723   0.010   7.538
 7154SOL    HW121998   3.727   5.221   7.573
 7154SOL    HW221999   3.723   0.067   7.615
 7155SOL     OW22000   0.118   4.650   8.013
 7155SOL    HW122001   0.210   4.639   8.039
 7155SOL    HW222002   0.109   4.744   7.998
 7156SOL     OW22003   4.525   3.718   7.938
 7156SOL    HW122004   4.575   3.798   7.922
 7156SOL    HW222005   4.434   3.747   7.947
 7157SOL     OW22006   4.315   4.449   7.709
 7157SOL    HW122007   4.318   4.531   7.659
 7157SOL    HW222008   4.255   4.467   7.781
 7158SOL     OW22009   3.784   4.587   0.089
 7158SOL    HW122010   3.849   4.522   0.118
 7158SOL    HW222011   3.780   4.650   0.161
 7159SOL     OW22012   4.607   4.069   7.639
 7159SOL    HW122013   4.650   4.128   7.577
 7159SOL    HW222014   4.638   3.982   7.615
 7160SOL     OW22015   4.047   4.680   7.697
 7160SOL    HW122016   4.127   4.697   7.648
 7160SOL    HW222017   4.010   4.601   7.656
 7161SOL     OW22018   4.795   0.183   7.648
 7161SOL    HW122019   4.791   0.139   7.733
 7161SOL    HW222020   4.877   0.152   7.609
 7162SOL     OW22021   5.132   3.850   7.857
 7162SOL    HW122022   5.096   3.826   7.771
 7162SOL    HW222023   5.227   3.850   7.843
 7163SOL     OW22024   4.115   4.422   7.918
 7163SOL    HW122025   4.119   4.327   7.926
 7163SOL    HW222026   4.024   4.444   7.936
 7164SOL     OW22027   4.354   3.844   7.559
 7164SOL    HW122028   4.428   3.785   7.569
 7164SOL    HW222029   4.309   3.813   7.480
 7165SOL     OW22030   4.256   3.798   7.959
 7165SOL    HW122031   4.171   3.802   8.002
 7165SOL    HW222032   4.254   3.869   7.895
 7166SOL     OW22033   5.137   4.906   7.490
 7166SOL    HW122034   5.149   4.830   7.547
 7166SOL    HW222035   5.049   4.937   7.508
 7167SOL     OW22036   4.017   3.773   7.633
 7167SOL    HW122037   4.075   3.834   7.587
 7167SOL    HW222038   4.075   3.708   7.672
 7168SOL     OW22039   4.666   3.950   7.910
 7168SOL    HW122040   4.624   4.014   7.853
 7168SOL    HW222041   4.758   3.978   7.913
 7169SOL     OW22042   4.164   4.874   0.099
 7169SOL    HW122043   4.089   4.910   0.146
 7169SOL    HW222044   4.133   4.860   0.010
 7170SOL     OW22045   4.751   4.269   7.465
 7170SOL    HW122046   4.704   4.350   7.449
 7170SOL    HW222047   4.805   4.288   7.543
 7171SOL     OW22048   4.196   5.150   7.602
 7171SOL    HW122049   4.139   5.097   7.656
 7171SOL    HW222050   4.204   5.101   7.519
 7172SOL     OW22051   5.128   4.285   7.530
 7172SOL    HW122052   5.053   4.276   7.589
 7172SOL    HW222053   5.201   4.245   7.577
 7173SOL     OW22054   4.250   3.990   7.770
 7173SOL    HW122055   4.294   3.940   7.701
 7173SOL    HW222056   4.227   4.073   7.729
 7174SOL     OW22057   4.432   4.782   7.812
 7174SOL    HW122058   4.409   4.770   7.904
 7174SOL    HW222059   4.513   4.733   7.801
 7175SOL     OW22060   4.089   4.826   7.927
 7175SOL    HW122061   4.067   4.905   7.878
 7175SOL    HW222062   4.076   4.755   7.864
 7176SOL     OW22063   4.954   5.103   7.832
 7176SOL    HW122064   5.034   5.128   7.878
 7176SOL    HW222065   4.901   5.058   7.898
 7177SOL     OW22066   0.036   4.372   7.924
 7177SOL    HW122067   5.280   4.390   7.999
 7177SOL    HW222068   0.040   4.456   7.877
 7178SOL     OW22069   4.926   4.254   7.713
 7178SOL    HW122070   4.932   4.169   7.759
 7178SOL    HW222071   4.895   4.315   7.780
 7179SOL     OW22072   0.025   4.126   7.806
 7179SOL    HW122073   0.037   4.058   7.872
 7179SOL    HW222074   0.023   4.208   7.857
 7180SOL     OW22075   5.034   4.556   7.490
 7180SOL    HW122076   5.065   4.465   7.487
 7180SOL    HW222077   5.057   4.591   7.404
 7181SOL     OW22078   3.732   5.045   7.640
 7181SOL    HW122079   3.642   5.058   7.610
 7181SOL    HW222080   3.733   4.956   7.675
 7182SOL     OW22081   4.564   4.325   7.758
 7182SOL    HW122082   4.556   4.233   7.734
 7182SOL    HW222083   4.475   4.358   7.760
 7183SOL     OW22084   4.186   4.217   7.642
 7183SOL    HW122085   4.244   4.291   7.657
 7183SOL    HW222086   4.101   4.257   7.623
 7184SOL     OW22087   5.033   4.574   7.772
 7184SOL    HW122088   4.939   4.584   7.791
 7184SOL    HW222089   5.037   4.571   7.676
 7185SOL     OW22090   0.181   3.866   7.990
 7185SOL    HW122091   0.157   3.849   7.899
 7185SOL    HW222092   0.138   3.797   8.040
 7186SOL     OW22093   4.655   4.633   7.760
 7186SOL    HW122094   4.706   4.659   7.682
 7186SOL    HW222095   4.644   4.539   7.751
 7187SOL     OW22096   3.982   5.057   7.746
 7187SOL    HW122097   3.890   5.060   7.717
 7187SOL    HW222098   3.981   5.097   7.833
 7188SOL     OW22099   3.802   4.057   7.483
 7188SOL    HW122100   3.715   4.038   7.447
 7188SOL    HW222101   3.832   4.133   7.433
 7189SOL     OW22102   3.794   3.881   7.758
 7189SOL    HW122103   3.777   3.957   7.703
 7189SOL    HW222104   3.877   3.846   7.726
 7190SOL     OW22105   4.908   5.055   7.567
 7190SOL    HW122106   4.813   5.040   7.560
 7190SOL    HW222107   4.923   5.067   7.661
 7191SOL     OW22108   4.938   4.044   7.901
 7191SOL    HW122109   5.010   3.981   7.890
 7191SOL    HW222110   4.956   4.087   7.984
 7192SOL     OW22111   4.350   4.459   8.055
 7192SOL    HW122112   4.355   4.541   0.024
 7192SOL    HW222113   4.263   4.459   8.016
 7193SOL     OW22114   4.583   5.094   7.466
 7193SOL    HW122115   4.560   5.097   7.559
 7193SOL    HW222116   4.588   5.186   7.440
 7194SOL     OW22117   4.804   4.703   7.542
 7194SOL    HW122118   4.777   4.756   7.466
 7194SOL    HW222119   4.880   4.654   7.512
 7195SOL     OW22120   4.111   4.150   7.983
 7195SOL    HW122121   4.162   4.099   7.919
 7195SOL    HW222122   4.161   4.145   8.064
 7196SOL     OW22123   4.529   5.047   7.730
 7196SOL    HW122124   4.472   4.972   7.750
 7196SOL    HW222125   4.548   5.086   7.815
 7197SOL     OW22126   5.061   3.769   7.610
 7197SOL    HW122127   5.082   3.724   7.528
 7197SOL    HW222128   4.977   3.732   7.638
 7198SOL     OW22129   3.774   4.801   7.751
 7198SOL    HW122130   3.869   4.793   7.738
 7198SOL    HW222131   3.744   4.711   7.765
   5.30000   5.30000   8.08000
