Built with Packmol
22188
    1LIG      O    1   1.977   1.970   0.066
    1LIG      C    2   2.042   2.020   0.217
    1LIG     C1    3   1.971   1.967   0.377
    1LIG     O1    4   2.035   2.017   0.530
    1LIG     C2    5   1.970   1.968   0.681
    1LIG     C3    6   2.041   2.023   0.838
    1LIG     O2    7   1.977   1.975   0.990
    1LIG     C4    8   2.040   2.025   1.142
    1LIG     C5    9   1.968   1.970   1.300
    1LIG     O3   10   2.031   2.020   1.452
    1LIG     C6   11   1.966   1.971   1.603
    1LIG     C7   12   2.038   2.027   1.760
    1LIG     O4   13   1.974   1.979   1.913
    1LIG     C8   14   2.038   2.029   2.065
    1LIG     C9   15   1.965   1.973   2.221
    1LIG     O5   16   2.029   2.023   2.373
    1LIG    C10   17   1.965   1.974   2.525
    1LIG    C11   18   2.037   2.030   2.682
    1LIG     O6   19   1.973   1.981   2.833
    1LIG    C12   20   2.036   2.030   2.985
    1LIG    C13   21   1.963   1.975   3.142
    1LIG     O7   22   2.027   2.024   3.294
    1LIG    C14   23   1.963   1.975   3.446
    1LIG    C15   24   2.035   2.030   3.604
    1LIG     O8   25   1.971   1.981   3.757
    1LIG    C16   26   2.035   2.031   3.908
    1LIG    C17   27   1.964   1.976   4.066
    1LIG     O9   28   2.027   2.025   4.219
    1LIG    C18   29   1.962   1.976   4.369
    1LIG    C19   30   2.034   2.031   4.526
    1LIG    O10   31   1.971   1.982   4.678
    1LIG    C20   32   2.035   2.032   4.830
    1LIG    C21   33   1.962   1.976   4.986
    1LIG    O11   34   2.026   2.025   5.138
    1LIG    C22   35   1.962   1.976   5.290
    1LIG    C23   36   2.034   2.032   5.447
    1LIG    O12   37   1.970   1.983   5.598
    1LIG    C24   38   2.034   2.032   5.751
    1LIG    C25   39   1.962   1.977   5.909
    1LIG    O13   40   2.025   2.026   6.061
    1LIG    C26   41   1.961   1.977   6.212
    1LIG    C27   42   2.033   2.032   6.369
    1LIG    O14   43   1.969   1.983   6.521
    1LIG    C28   44   2.034   2.032   6.673
    1LIG    C29   45   1.962   1.976   6.831
    1LIG    O15   46   2.026   2.025   6.983
    1LIG    C30   47   1.962   1.976   7.134
    1LIG    C31   48   2.034   2.031   7.291
    1LIG    O16   49   1.970   1.982   7.442
    1LIG    C32   50   2.034   2.031   7.594
    1LIG    C33   51   1.962   1.976   7.752
    1LIG    O17   52   2.026   2.025   7.904
    1LIG    C34   53   1.962   1.975   8.056
    1LIG    C35   54   2.034   2.030   8.213
    1LIG    O18   55   1.970   1.981   8.365
    1LIG    C36   56   2.034   2.030   8.516
    1LIG    C37   57   1.963   1.975   8.674
    1LIG    O19   58   2.027   2.024   8.827
    1LIG    C38   59   1.963   1.974   8.978
    1LIG    C39   60   2.034   2.029   9.136
    1LIG    O20   61   1.971   1.980   9.288
    1LIG    C40   62   2.035   2.029   9.439
    1LIG    C41   63   1.964   1.974   9.597
    1LIG    O21   64   2.027   2.023   9.749
    1LIG    C42   65   1.963   1.973   9.900
    1LIG    C43   66   2.035   2.028  10.057
    1LIG    O22   67   1.972   1.979  10.209
    1LIG    C44   68   2.036   2.028  10.361
    1LIG    C45   69   1.964   1.972  10.518
    1LIG    O23   70   2.028   2.021  10.670
    1LIG    C46   71   1.964   1.972  10.822
    1LIG    C47   72   2.037   2.028  10.979
    1LIG    O24   73   1.973   1.978  11.130
    1LIG    C48   74   2.036   2.027  11.282
    1LIG    C49   75   1.964   1.971  11.439
    1LIG    O25   76   2.028   2.020  11.591
    1LIG    C50   77   1.965   1.971  11.743
    1LIG    C51   78   2.037   2.027  11.900
    1LIG    O26   79   1.974   1.977  12.051
    1LIG    C52   80   2.037   2.026  12.204
    1LIG    C53   81   1.965   1.969  12.360
    1LIG    O27   82   2.029   2.019  12.512
    1LIG    C54   83   1.966   1.969  12.664
    1LIG    C55   84   2.038   2.025  12.822
    1LIG    O28   85   1.974   1.975  12.974
    1LIG    C56   86   2.038   2.024  13.127
    1LIG    C57   87   1.967   1.968  13.285
    1LIG    O29   88   2.031   2.017  13.438
    1LIG    C58   89   1.967   1.967  13.589
    1LIG    C59   90   2.038   2.022  13.747
    1LIG      H   91   2.039   2.130   0.214
    1LIG     H1   92   2.147   1.989   0.215
    1LIG     H2   93   1.974   1.858   0.377
    1LIG     H3   94   1.866   1.998   0.375
    1LIG     H4   95   1.973   1.858   0.683
    1LIG     H5   96   1.865   1.999   0.682
    1LIG     H6   97   2.039   2.133   0.836
    1LIG     H7   98   2.147   1.992   0.837
    1LIG     H8   99   2.038   2.134   1.143
    1LIG     H9  100   2.145   1.994   1.145
    1LIG    H10  101   1.971   1.861   1.299
    1LIG    H11  102   1.863   2.001   1.297
    1LIG    H12  103   1.969   1.862   1.606
    1LIG    H13  104   1.861   2.002   1.604
    1LIG    H14  105   2.035   2.137   1.758
    1LIG    H15  106   2.143   1.996   1.759
    1LIG    H16  107   2.035   2.138   2.066
    1LIG    H17  108   2.143   1.998   2.067
    1LIG    H18  109   1.968   1.864   2.219
    1LIG    H19  110   1.860   2.004   2.219
    1LIG    H20  111   1.967   1.864   2.527
    1LIG    H21  112   1.859   2.005   2.527
    1LIG    H22  113   2.034   2.139   2.679
    1LIG    H23  114   2.142   1.999   2.680
    1LIG    H24  115   2.033   2.139   2.987
    1LIG    H25  116   2.141   1.999   2.988
    1LIG    H26  117   1.966   1.865   3.141
    1LIG    H27  118   1.858   2.006   3.140
    1LIG    H28  119   1.966   1.865   3.448
    1LIG    H29  120   1.858   2.006   3.448
    1LIG    H30  121   2.032   2.140   3.602
    1LIG    H31  122   2.140   1.999   3.603
    1LIG    H32  123   2.032   2.141   3.909
    1LIG    H33  124   2.140   2.000   3.910
    1LIG    H34  125   1.966   1.867   4.064
    1LIG    H35  126   1.858   2.007   4.064
    1LIG    H36  127   1.965   1.866   4.371
    1LIG    H37  128   1.857   2.007   4.371
    1LIG    H38  129   2.031   2.141   4.524
    1LIG    H39  130   2.139   2.000   4.524
    1LIG    H40  131   2.032   2.141   4.832
    1LIG    H41  132   2.140   2.001   4.832
    1LIG    H42  133   1.965   1.867   4.985
    1LIG    H43  134   1.857   2.007   4.984
    1LIG    H44  135   1.965   1.867   5.292
    1LIG    H45  136   1.857   2.007   5.292
    1LIG    H46  137   2.031   2.142   5.445
    1LIG    H47  138   2.140   2.001   5.445
    1LIG    H48  139   2.031   2.141   5.753
    1LIG    H49  140   2.139   2.001   5.753
    1LIG    H50  141   1.965   1.867   5.907
    1LIG    H51  142   1.857   2.008   5.907
    1LIG    H52  143   1.964   1.867   6.214
    1LIG    H53  144   1.856   2.008   6.214
    1LIG    H54  145   2.030   2.142   6.368
    1LIG    H55  146   2.138   2.001   6.367
    1LIG    H56  147   2.031   2.141   6.675
    1LIG    H57  148   2.139   2.001   6.675
    1LIG    H58  149   1.965   1.867   6.829
    1LIG    H59  150   1.857   2.007   6.830
    1LIG    H60  151   1.965   1.866   7.136
    1LIG    H61  152   1.857   2.007   7.136
    1LIG    H62  153   2.031   2.141   7.289
    1LIG    H63  154   2.139   2.000   7.289
    1LIG    H64  155   2.031   2.140   7.596
    1LIG    H65  156   2.139   2.000   7.596
    1LIG    H66  157   1.965   1.866   7.750
    1LIG    H67  158   1.857   2.007   7.751
    1LIG    H68  159   1.965   1.866   8.057
    1LIG    H69  160   1.857   2.006   8.057
    1LIG    H70  161   2.031   2.140   8.212
    1LIG    H71  162   2.139   2.000   8.211
    1LIG    H72  163   2.031   2.140   8.518
    1LIG    H73  164   2.140   2.000   8.518
    1LIG    H74  165   1.966   1.866   8.673
    1LIG    H75  166   1.858   2.006   8.673
    1LIG    H76  167   1.966   1.865   8.979
    1LIG    H77  168   1.858   2.005   8.979
    1LIG    H78  169   2.031   2.138   9.134
    1LIG    H79  170   2.140   1.998   9.134
    1LIG    H80  171   2.032   2.139   9.441
    1LIG    H81  172   2.140   1.999   9.440
    1LIG    H82  173   1.967   1.864   9.595
    1LIG    H83  174   1.858   2.004   9.595
    1LIG    H84  175   1.967   1.863   9.902
    1LIG    H85  176   1.858   2.003   9.902
    1LIG    H86  177   2.032   2.138  10.055
    1LIG    H87  178   2.141   1.998  10.055
    1LIG    H88  179   2.033   2.138  10.363
    1LIG    H89  180   2.141   1.998  10.363
    1LIG    H90  181   1.967   1.863  10.516
    1LIG    H91  182   1.859   2.003  10.516
    1LIG    H92  183   1.968   1.862  10.824
    1LIG    H93  184   1.859   2.002  10.824
    1LIG    H94  185   2.033   2.137  10.977
    1LIG    H95  186   2.142   1.997  10.977
    1LIG    H96  187   2.033   2.136  11.285
    1LIG    H97  188   2.141   1.996  11.284
    1LIG    H98  189   1.968   1.861  11.437
    1LIG    H99  190   1.859   2.001  11.438
    1LIG   H100  191   1.968   1.861  11.745
    1LIG   H101  192   1.860   2.001  11.746
    1LIG   H102  193   2.034   2.136  11.898
    1LIG   H103  194   2.142   1.996  11.898
    1LIG   H104  195   2.034   2.135  12.206
    1LIG   H105  196   2.142   1.995  12.206
    1LIG   H106  197   1.969   1.860  12.358
    1LIG   H107  198   1.860   2.000  12.359
    1LIG   H108  199   1.970   1.860  12.666
    1LIG   H109  200   1.861   2.000  12.666
    1LIG   H110  201   2.034   2.134  12.821
    1LIG   H111  202   2.143   1.994  12.820
    1LIG   H112  203   2.035   2.134  13.128
    1LIG   H113  204   2.144   1.994  13.128
    1LIG   H114  205   1.971   1.859  13.283
    1LIG   H115  206   1.862   1.999  13.284
    1LIG   H116  207   1.971   1.857  13.589
    1LIG   H117  208   1.862   1.999  13.590
    1LIG   H118  209   2.143   1.992  13.747
    1LIG   H119  210   1.991   1.985  13.866
    1MOL     C1  211   1.479   1.547   6.846
    1MOL     H1  212   1.457   1.440   6.836
    1MOL     O1  213   1.433   1.580   6.976
    1MOL     C2  214   1.453   1.718   7.012
    1MOL     H2  215   1.559   1.745   6.998
    1MOL     C3  216   1.422   1.731   7.160
    1MOL     H3  217   1.455   1.830   7.195
    1MOL     H4  218   1.478   1.654   7.215
    1MOL     O2  219   1.282   1.716   7.182
    1MOL     C4  220   1.247   1.733   7.318
    1MOL     C5  221   1.397   1.628   6.743
    1MOL     H5  222   1.294   1.592   6.751
    1MOL     O3  223   1.443   1.613   6.610
    1MOL     C6  224   1.413   1.489   6.550
    1MOL     C7  225   1.396   1.779   6.773
    1MOL     H6  226   1.494   1.821   6.749
    1MOL     O4  227   1.294   1.839   6.695
    1MOL     C8  228   1.341   1.930   6.597
    1MOL     C9  229   1.366   1.807   6.921
    1MOL     H7  230   1.261   1.783   6.940
    1MOL     O5  231   1.391   1.946   6.943
    1MOL    C10  232   1.305   2.015   7.032
    1MOL     H8  233   1.227   1.948   7.067
    1MOL     O6  234   1.374   2.055   7.149
    1MOL    C11  235   1.485   2.143   7.125
    1MOL     H9  236   1.555   2.095   7.055
    1MOL    C12  237   1.558   2.162   7.257
    1MOL    H10  238   1.654   2.210   7.238
    1MOL    H11  239   1.576   2.063   7.302
    1MOL     O7  240   1.480   2.242   7.344
    1MOL    C13  241   1.546   2.270   7.465
    1MOL    C14  242   1.245   2.139   6.963
    1MOL    H12  243   1.170   2.180   7.032
    1MOL     O8  244   1.185   2.111   6.838
    1MOL    C15  245   1.061   2.044   6.845
    1MOL    C16  246   1.349   2.249   6.938
    1MOL    H13  247   1.415   2.216   6.857
    1MOL     O9  248   1.283   2.369   6.904
    1MOL    C17  249   1.297   2.409   6.769
    1MOL    C18  250   1.435   2.275   7.062
    1MOL    H14  251   1.374   2.327   7.136
    1MOL    O10  252   1.544   2.357   7.021
    1MOL    C19  253   1.585   2.462   7.106
    1MOL    H15  254   1.518   2.469   7.192
    1MOL    O11  255   1.713   2.436   7.163
    1MOL    C20  256   1.818   2.422   7.068
    1MOL    H16  257   1.792   2.343   6.995
    1MOL    C21  258   1.941   2.373   7.143
    1MOL    H17  259   2.017   2.341   7.070
    1MOL    H18  260   1.912   2.286   7.203
    1MOL    O12  261   1.991   2.476   7.227
    1MOL    C22  262   2.092   2.430   7.314
    1MOL    C23  263   1.591   2.595   7.028
    1MOL    H19  264   1.613   2.674   7.102
    1MOL    O13  265   1.472   2.625   6.959
    1MOL    C24  266   1.364   2.666   7.042
    1MOL    C25  267   1.705   2.595   6.926
    1MOL    H20  268   1.682   2.523   6.846
    1MOL    O14  269   1.719   2.726   6.871
    1MOL    C26  270   1.663   2.742   6.741
    1MOL    C27  271   1.838   2.554   6.991
    1MOL    H21  272   1.872   2.631   7.061
    1MOL    O15  273   1.938   2.530   6.891
    1MOL    C28  274   2.010   2.644   6.848
    1MOL    H22  275   1.944   2.730   6.844
    1MOL    O16  276   2.113   2.681   6.938
    1MOL    C29  277   2.213   2.581   6.961
    1MOL    H23  278   2.167   2.491   7.004
    1MOL    C30  279   2.307   2.639   7.066
    1MOL    H24  280   2.371   2.559   7.107
    1MOL    H25  281   2.245   2.680   7.147
    1MOL    O17  282   2.388   2.740   7.008
    1MOL    C31  283   2.472   2.802   7.103
    1MOL    C32  284   2.070   2.614   6.710
    1MOL    H26  285   2.119   2.706   6.676
    1MOL    O18  286   1.966   2.577   6.621
    1MOL    C33  287   1.980   2.629   6.490
    1MOL    C34  288   2.178   2.505   6.721
    1MOL    H27  289   2.129   2.411   6.749
    1MOL    O19  290   2.241   2.492   6.594
    1MOL    C35  291   2.256   2.358   6.548
    1MOL    C36  292   2.282   2.542   6.828
    1MOL    H28  293   2.339   2.628   6.791
    1MOL    O20  294   2.369   2.429   6.844
    1MOL    C37  295   2.503   2.455   6.879
    1MOL    H29  296   2.521   2.563   6.881
    1MOL    O21  297   2.532   2.412   7.011
    1MOL    C38  298   2.515   2.271   7.032
    1MOL    H30  299   2.413   2.243   7.003
    1MOL    C39  300   2.528   2.246   7.182
    1MOL    H31  301   2.495   2.144   7.204
    1MOL    H32  302   2.463   2.317   7.236
    1MOL    O22  303   2.663   2.263   7.221
    1MOL    C40  304   2.684   2.230   7.357
    1MOL    C41  305   2.600   2.385   6.781
    1MOL    H33  306   2.701   2.423   6.804
    1MOL    O23  307   2.569   2.410   6.645
    1MOL    C42  308   2.601   2.540   6.598
    1MOL    C43  309   2.604   2.233   6.799
    1MOL    H34  310   2.511   2.190   6.759
    1MOL    O24  311   2.716   2.182   6.729
    1MOL    C44  312   2.685   2.102   6.616
    1MOL    C45  313   2.616   2.194   6.946
    1MOL    H35  314   2.717   2.219   6.981
    1MOL    O25  315   2.595   2.052   6.954
    1MOL    C46  316   2.677   1.979   7.044
    1MOL    H36  317   2.752   2.045   7.088
    1MOL    O26  318   2.603   1.930   7.154
    1MOL    C47  319   2.497   1.840   7.121
    1MOL    H37  320   2.428   1.888   7.050
    1MOL    C48  321   2.419   1.811   7.249
    1MOL    H38  322   2.324   1.763   7.224
    1MOL    H39  323   2.397   1.908   7.298
    1MOL    O27  324   2.496   1.729   7.334
    1MOL    C49  325   2.423   1.689   7.449
    1MOL    C50  326   2.743   1.860   6.971
    1MOL    H40  327   2.816   1.817   7.041
    1MOL    O28  328   2.809   1.897   6.851
    1MOL    C51  329   2.931   1.967   6.869
    1MOL    C52  330   2.643   1.750   6.935
    1MOL    H41  331   2.578   1.786   6.854
    1MOL    O29  332   2.714   1.634   6.894
    1MOL    C53  333   2.709   1.608   6.755
    1MOL    C54  334   2.556   1.714   7.055
    1MOL    H42  335   2.618   1.663   7.130
    1MOL    O30  336   2.453   1.625   7.010
    1MOL    C55  337   2.429   1.508   7.084
    1MOL    H43  338   2.509   1.493   7.157
    1MOL    O31  339   2.311   1.515   7.161
    1MOL    C56  340   2.189   1.534   7.087
    1MOL    H44  341   2.193   1.629   7.032
    1MOL    C57  342   2.078   1.539   7.190
    1MOL    H45  343   2.093   1.457   7.263
    1MOL    H46  344   1.981   1.523   7.142
    1MOL    O32  345   2.081   1.665   7.256
    1MOL    C58  346   1.980   1.676   7.354
    1MOL    C59  347   2.419   1.386   6.989
    1MOL    H47  348   2.408   1.297   7.054
    1MOL    O33  349   2.531   1.369   6.905
    1MOL    C60  350   2.648   1.322   6.970
    1MOL    C61  351   2.294   1.394   6.901
    1MOL    H48  352   2.305   1.478   6.831
    1MOL    O34  353   2.274   1.272   6.831
    1MOL    C62  354   2.326   1.269   6.699
    1MOL    C63  355   2.168   1.419   6.986
    1MOL    H49  356   2.145   1.327   7.041
    1MOL    O35  357   2.058   1.454   6.901
    1MOL    C64  358   1.975   1.347   6.862
    1MOL    H50  359   2.032   1.254   6.863
    1MOL    O36  360   1.869   1.326   6.954
    1MOL    C65  361   1.774   1.432   6.966
    1MOL    H51  362   1.824   1.525   6.995
    1MOL    C66  363   1.679   1.391   7.078
    1MOL    H52  364   1.654   1.284   7.065
    1MOL    H53  365   1.587   1.449   7.075
    1MOL    O37  366   1.746   1.411   7.202
    1MOL    C67  367   1.673   1.359   7.311
    1MOL    C68  368   1.917   1.371   6.722
    1MOL    H54  369   1.867   1.278   6.694
    1MOL    O38  370   2.022   1.400   6.630
    1MOL    C69  371   2.010   1.332   6.506
    1MOL    C70  372   1.812   1.483   6.723
    1MOL    H55  373   1.862   1.578   6.746
    1MOL    O39  374   1.752   1.489   6.594
    1MOL    C71  375   1.759   1.616   6.532
    1MOL    C72  376   1.705   1.456   6.830
    1MOL    H56  377   1.648   1.367   6.801
    1MOL    O40  378   1.617   1.570   6.831
    1MOL    H57  379   1.138   1.719   7.324
    1MOL    H58  380   1.296   1.658   7.382
    1MOL    H59  381   1.273   1.833   7.354
    1MOL    H60  382   1.731   1.380   7.401
    1MOL    H61  383   1.574   1.407   7.321
    1MOL    H62  384   1.658   1.251   7.303
    1MOL    H63  385   1.985   1.778   7.394
    1MOL    H64  386   1.880   1.658   7.311
    1MOL    H65  387   1.996   1.605   7.436
    1MOL    H66  388   2.488   1.622   7.506
    1MOL    H67  389   2.397   1.775   7.512
    1MOL    H68  390   2.332   1.635   7.421
    1MOL    H69  391   2.790   2.246   7.379
    1MOL    H70  392   2.624   2.294   7.424
    1MOL    H71  393   2.658   2.125   7.377
    1MOL    H72  394   2.530   2.878   7.050
    1MOL    H73  395   2.414   2.851   7.183
    1MOL    H74  396   2.541   2.730   7.150
    1MOL    H75  397   2.124   2.516   7.374
    1MOL    H76  398   2.054   2.351   7.381
    1MOL    H77  399   2.179   2.390   7.260
    1MOL    H78  400   1.479   2.332   7.525
    1MOL    H79  401   1.569   2.178   7.521
    1MOL    H80  402   1.640   2.325   7.448
    1MOL    H81  403   1.239   2.501   6.757
    1MOL    H82  404   1.402   2.431   6.745
    1MOL    H83  405   1.258   2.333   6.700
    1MOL    H84  406   1.020   2.043   6.744
    1MOL    H85  407   1.071   1.940   6.879
    1MOL    H86  408   0.990   2.096   6.911
    1MOL    H87  409   1.252   1.968   6.544
    1MOL    H88  410   1.392   2.016   6.643
    1MOL    H89  411   1.407   1.881   6.524
    1MOL    H90  412   1.434   1.499   6.444
    1MOL    H91  413   1.475   1.407   6.590
    1MOL    H92  414   1.307   1.463   6.563
    1MOL    H93  415   1.712   1.606   6.433
    1MOL    H94  416   1.703   1.692   6.589
    1MOL    H95  417   1.863   1.648   6.518
    1MOL    H96  418   2.095   1.365   6.445
    1MOL    H97  419   2.016   1.223   6.519
    1MOL    H98  420   1.917   1.357   6.455
    1MOL    H99  421   2.297   1.173   6.657
    1MOL   H100  422   2.283   1.349   6.638
    1MOL   H101  423   2.435   1.278   6.699
    1MOL   H102  424   2.718   1.294   6.892
    1MOL   H103  425   2.695   1.400   7.032
    1MOL   H104  426   2.626   1.234   7.032
    1MOL   H105  427   2.772   1.519   6.738
    1MOL   H106  428   2.607   1.585   6.722
    1MOL   H107  429   2.750   1.692   6.697
    1MOL   H108  430   2.979   1.973   6.771
    1MOL   H109  431   2.916   2.069   6.907
    1MOL   H110  432   2.998   1.912   6.938
    1MOL   H111  433   2.780   2.072   6.572
    1MOL   H112  434   2.630   2.012   6.645
    1MOL   H113  435   2.627   2.159   6.542
    1MOL   H114  436   2.586   2.539   6.490
    1MOL   H115  437   2.535   2.616   6.641
    1MOL   H116  438   2.706   2.565   6.620
    1MOL   H117  439   2.303   2.364   6.450
    1MOL   H118  440   2.319   2.299   6.615
    1MOL   H119  441   2.158   2.309   6.537
    1MOL   H120  442   1.894   2.593   6.433
    1MOL   H121  443   1.979   2.740   6.490
    1MOL   H122  444   2.073   2.595   6.442
    1MOL   H123  445   1.679   2.847   6.713
    1MOL   H124  446   1.713   2.677   6.668
    1MOL   H125  447   1.555   2.721   6.742
    1MOL   H126  448   1.286   2.702   6.975
    1MOL   H127  449   1.323   2.583   7.101
    1MOL   H128  450   1.394   2.748   7.109
    2SOL     OW  451   0.230   0.628   0.113
    2SOL    HW1  452   0.137   0.626   0.150
    2SOL    HW2  453   0.231   0.589   0.021
    3SOL     OW  454   0.225   0.275   0.996
    3SOL    HW1  455   0.260   0.258   1.088
    3SOL    HW2  456   0.137   0.230   0.984
    4SOL     OW  457   0.019   0.368   0.647
    4SOL    HW1  458  -0.063   0.411   0.686
    4SOL    HW2  459  -0.009   0.295   0.584
    5SOL     OW  460   0.569   1.275   1.165
    5SOL    HW1  461   0.476   1.268   1.128
    5SOL    HW2  462   0.580   1.364   1.209
    6SOL     OW  463   1.555   1.511   0.703
    6SOL    HW1  464   1.498   1.495   0.784
    6SOL    HW2  465   1.496   1.521   0.623
    7SOL     OW  466   1.135   0.703   0.717
    7SOL    HW1  467   1.192   0.781   0.692
    7SOL    HW2  468   1.075   0.729   0.793
    8SOL     OW  469   1.755   0.607   0.231
    8SOL    HW1  470   1.743   0.594   0.132
    8SOL    HW2  471   1.725   0.526   0.280
    9SOL     OW  472   0.768   1.144   1.023
    9SOL    HW1  473   0.690   1.161   1.083
    9SOL    HW2  474   0.802   1.231   0.987
   10SOL     OW  475   0.850   0.798   1.823
   10SOL    HW1  476   0.846   0.874   1.888
   10SOL    HW2  477   0.872   0.834   1.732
   11SOL     OW  478   0.685   1.012   0.665
   11SOL    HW1  479   0.754   0.996   0.735
   11SOL    HW2  480   0.612   1.069   0.703
   12SOL     OW  481   0.686   1.161   1.803
   12SOL    HW1  482   0.746   1.240   1.817
   12SOL    HW2  483   0.600   1.192   1.762
   13SOL     OW  484   0.335   1.435   1.061
   13SOL    HW1  485   0.257   1.404   1.008
   13SOL    HW2  486   0.393   1.493   1.004
   14SOL     OW  487   1.460   1.505   1.339
   14SOL    HW1  488   1.484   1.599   1.365
   14SOL    HW2  489   1.444   1.451   1.421
   15SOL     OW  490   0.438   0.392   1.499
   15SOL    HW1  491   0.520   0.336   1.508
   15SOL    HW2  492   0.357   0.334   1.503
   16SOL     OW  493   1.603   0.447   0.737
   16SOL    HW1  494   1.529   0.493   0.687
   16SOL    HW2  495   1.654   0.515   0.790
   17SOL     OW  496   0.231   1.713   0.483
   17SOL    HW1  497   0.265   1.790   0.537
   17SOL    HW2  498   0.275   1.713   0.393
   18SOL     OW  499   1.127   1.341   1.690
   18SOL    HW1  500   1.174   1.341   1.778
   18SOL    HW2  501   1.079   1.254   1.679
   19SOL     OW  502   0.230   1.434   0.538
   19SOL    HW1  503   0.204   1.530   0.538
   19SOL    HW2  504   0.159   1.380   0.583
   20SOL     OW  505   0.240   1.091   0.886
   20SOL    HW1  506   0.254   1.007   0.938
   20SOL    HW2  507   0.185   1.155   0.941
   21SOL     OW  508   0.620   1.786   1.439
   21SOL    HW1  509   0.528   1.769   1.474
   21SOL    HW2  510   0.648   1.878   1.465
   22SOL     OW  511   0.606   0.964   0.123
   22SOL    HW1  512   0.613   1.048   0.069
   22SOL    HW2  513   0.652   0.977   0.211
   23SOL     OW  514   1.594   0.114   1.480
   23SOL    HW1  515   1.576   0.181   1.408
   23SOL    HW2  516   1.591   0.160   1.569
   24SOL     OW  517   0.122   0.643   0.563
   24SOL    HW1  518   0.077   0.555   0.580
   24SOL    HW2  519   0.121   0.697   0.647
   25SOL     OW  520   0.027   1.596   0.117
   25SOL    HW1  521   0.008   1.500   0.138
   25SOL    HW2  522  -0.006   1.654   0.192
   26SOL     OW  523   1.689   0.922   0.612
   26SOL    HW1  524   1.784   0.893   0.620
   26SOL    HW2  525   1.681   0.987   0.537
   27SOL     OW  526   1.641   1.108   0.432
   27SOL    HW1  527   1.727   1.110   0.380
   27SOL    HW2  528   1.655   1.155   0.520
   28SOL     OW  529   0.113   0.737   1.597
   28SOL    HW1  530   0.201   0.724   1.642
   28SOL    HW2  531   0.100   0.834   1.575
   29SOL     OW  532   0.613   1.365   0.726
   29SOL    HW1  533   0.564   1.278   0.735
   29SOL    HW2  534   0.590   1.408   0.639
   30SOL     OW  535   1.293   1.228   1.423
   30SOL    HW1  536   1.330   1.155   1.365
   30SOL    HW2  537   1.345   1.233   1.508
   31SOL     OW  538   0.809   0.004   0.502
   31SOL    HW1  539   0.849   0.095   0.493
   31SOL    HW2  540   0.709   0.012   0.508
   32SOL     OW  541   0.197   0.976   1.264
   32SOL    HW1  542   0.286   0.931   1.250
   32SOL    HW2  543   0.124   0.911   1.245
   33SOL     OW  544   1.525   0.999   0.190
   33SOL    HW1  545   1.462   0.923   0.203
   33SOL    HW2  546   1.573   1.017   0.276
   34SOL     OW  547   1.187   1.792   1.616
   34SOL    HW1  548   1.211   1.852   1.540
   34SOL    HW2  549   1.194   1.697   1.586
   35SOL     OW  550   0.317   0.251   1.801
   35SOL    HW1  551   0.388   0.322   1.807
   35SOL    HW2  552   0.229   0.290   1.829
   36SOL     OW  553   1.466   1.417   0.953
   36SOL    HW1  554   1.407   1.423   1.033
   36SOL    HW2  555   1.451   1.329   0.907
   37SOL     OW  556   1.667   1.714   0.572
   37SOL    HW1  557   1.626   1.691   0.484
   37SOL    HW2  558   1.649   1.640   0.637
   38SOL     OW  559   0.598   0.729   0.270
   38SOL    HW1  560   0.622   0.798   0.202
   38SOL    HW2  561   0.520   0.762   0.324
   39SOL     OW  562   1.281   0.345   0.944
   39SOL    HW1  563   1.195   0.295   0.931
   39SOL    HW2  564   1.343   0.291   1.000
   40SOL     OW  565   1.576   1.662   0.307
   40SOL    HW1  566   1.665   1.708   0.310
   40SOL    HW2  567   1.555   1.638   0.212
   41SOL     OW  568   0.807   0.605   1.465
   41SOL    HW1  569   0.760   0.602   1.554
   41SOL    HW2  570   0.756   0.550   1.399
   42SOL     OW  571   1.394   0.469   1.674
   42SOL    HW1  572   1.374   0.512   1.762
   42SOL    HW2  573   1.472   0.407   1.683
   43SOL     OW  574   0.973   0.890   1.572
   43SOL    HW1  575   1.019   0.806   1.543
   43SOL    HW2  576   0.917   0.924   1.497
   44SOL     OW  577   0.991   0.410   1.242
   44SOL    HW1  578   0.914   0.444   1.296
   44SOL    HW2  579   0.957   0.359   1.163
   45SOL     OW  580   1.041   0.701   0.429
   45SOL    HW1  581   1.067   0.697   0.525
   45SOL    HW2  582   0.956   0.650   0.415
   46SOL     OW  583   0.076   0.811   0.789
   46SOL    HW1  584   0.175   0.799   0.798
   46SOL    HW2  585   0.052   0.906   0.810
   47SOL     OW  586   0.130   1.821   1.571
   47SOL    HW1  587   0.120   1.806   1.670
   47SOL    HW2  588   0.044   1.857   1.535
   48SOL     OW  589   0.865   0.348   0.195
   48SOL    HW1  590   0.924   0.411   0.146
   48SOL    HW2  591   0.884   0.254   0.166
   49SOL     OW  592   1.719   0.585   1.831
   49SOL    HW1  593   1.693   0.674   1.795
   49SOL    HW2  594   1.717   0.517   1.758
   50SOL     OW  595   1.362   1.144   0.545
   50SOL    HW1  596   1.445   1.115   0.497
   50SOL    HW2  597   1.313   1.211   0.489
   51SOL     OW  598   0.550   0.196   0.885
   51SOL    HW1  599   0.545   0.191   0.985
   51SOL    HW2  600   0.552   0.292   0.856
   52SOL     OW  601   1.008   1.456   0.477
   52SOL    HW1  602   0.962   1.528   0.425
   52SOL    HW2  603   1.004   1.476   0.575
   53SOL     OW  604   0.351   1.801   0.853
   53SOL    HW1  605   0.401   1.715   0.859
   53SOL    HW2  606   0.416   1.878   0.850
   54SOL     OW  607   1.795   1.066   0.873
   54SOL    HW1  608   1.733   1.051   0.797
   54SOL    HW2  609   1.743   1.077   0.958
   55SOL     OW  610   1.227   1.550   1.506
   55SOL    HW1  611   1.233   1.473   1.570
   55SOL    HW2  612   1.175   1.524   1.426
   56SOL     OW  613   0.321   0.943   0.242
   56SOL    HW1  614   0.403   0.982   0.200
   56SOL    HW2  615   0.294   0.861   0.193
   57SOL     OW  616   1.458   0.735   0.728
   57SOL    HW1  617   1.453   0.670   0.803
   57SOL    HW2  618   1.538   0.794   0.741
   58SOL     OW  619   0.461   1.266   1.727
   58SOL    HW1  620   0.411   1.267   1.641
   58SOL    HW2  621   0.398   1.248   1.803
   59SOL     OW  622   1.111   1.776   0.237
   59SOL    HW1  623   1.051   1.714   0.287
   59SOL    HW2  624   1.142   1.732   0.152
   60SOL     OW  625   0.202   0.285   1.498
   60SOL    HW1  626   0.122   0.345   1.485
   60SOL    HW2  627   0.192   0.236   1.584
   61SOL     OW  628   1.632   1.377   0.081
   61SOL    HW1  629   1.600   1.471   0.071
   61SOL    HW2  630   1.556   1.314   0.069
   62SOL     OW  631   0.464   1.743   0.323
   62SOL    HW1  632   0.497   1.782   0.409
   62SOL    HW2  633   0.540   1.736   0.258
   63SOL     OW  634   1.400   0.107   0.426
   63SOL    HW1  635   1.376   0.070   0.336
   63SOL    HW2  636   1.499   0.123   0.430
   64SOL     OW  637   0.249   1.785   1.241
   64SOL    HW1  638   0.306   1.720   1.291
   64SOL    HW2  639   0.233   1.752   1.148
   65SOL     OW  640   0.940   1.698   0.904
   65SOL    HW1  641   1.020   1.641   0.925
   65SOL    HW2  642   0.891   1.658   0.827
   66SOL     OW  643   0.382   0.700   0.480
   66SOL    HW1  644   0.427   0.610   0.477
   66SOL    HW2  645   0.288   0.689   0.513
   67SOL     OW  646   1.547   0.222   1.729
   67SOL    HW1  647   1.542   0.259   1.821
   67SOL    HW2  648   1.475   0.153   1.717
   68SOL     OW  649   0.614   0.122   0.117
   68SOL    HW1  650   0.712   0.100   0.124
   68SOL    HW2  651   0.583   0.105   0.024
   69SOL     OW  652   0.781   0.264   1.749
   69SOL    HW1  653   0.848   0.203   1.792
   69SOL    HW2  654   0.708   0.283   1.814
   70SOL     OW  655   0.888   1.514   1.195
   70SOL    HW1  656   0.865   1.489   1.101
   70SOL    HW2  657   0.949   1.445   1.234
   71SOL     OW  658   1.351   0.590   1.433
   71SOL    HW1  659   1.379   0.547   1.518
   71SOL    HW2  660   1.376   0.686   1.434
   72SOL     OW  661   0.803   1.402   0.924
   72SOL    HW1  662   0.893   1.416   0.882
   72SOL    HW2  663   0.732   1.404   0.853
   73SOL     OW  664   0.922   0.503   0.899
   73SOL    HW1  665   0.897   0.494   0.803
   73SOL    HW2  666   0.970   0.421   0.930
   74SOL     OW  667   0.539   0.064   0.512
   74SOL    HW1  668   0.458   0.065   0.570
   74SOL    HW2  669   0.542   0.147   0.457
   75SOL     OW  670   1.434   1.188   0.041
   75SOL    HW1  671   1.466   1.112   0.098
   75SOL    HW2  672   1.342   1.215   0.071
   76SOL     OW  673   0.297   0.035   0.171
   76SOL    HW1  674   0.346   0.119   0.150
   76SOL    HW2  675   0.359  -0.030   0.216
   77SOL     OW  676   0.935   0.236   0.480
   77SOL    HW1  677   0.887   0.277   0.402
   77SOL    HW2  678   1.034   0.234   0.461
   78SOL     OW  679   1.076   0.683   1.464
   78SOL    HW1  680   0.996   0.622   1.467
   78SOL    HW2  681   1.157   0.630   1.440
   79SOL     OW  682   1.227   1.570   0.793
   79SOL    HW1  683   1.248   1.644   0.728
   79SOL    HW2  684   1.295   1.570   0.866
   80SOL     OW  685   0.459   1.152   0.741
   80SOL    HW1  686   0.388   1.125   0.806
   80SOL    HW2  687   0.433   1.124   0.648
   81SOL     OW  688   1.271   1.797   0.591
   81SOL    HW1  689   1.315   1.861   0.527
   81SOL    HW2  690   1.221   1.849   0.661
   82SOL     OW  691   1.032   0.549   0.016
   82SOL    HW1  692   0.991   0.631  -0.023
   82SOL    HW2  693   1.096   0.575   0.089
   83SOL     OW  694   0.078   0.556   1.386
   83SOL    HW1  695   0.170   0.555   1.345
   83SOL    HW2  696   0.072   0.630   1.453
   84SOL     OW  697   0.561   0.222   1.147
   84SOL    HW1  698   0.599   0.138   1.184
   84SOL    HW2  699   0.473   0.241   1.191
   85SOL     OW  700   0.866   0.454   0.642
   85SOL    HW1  701   0.834   0.526   0.580
   85SOL    HW2  702   0.890   0.373   0.589
   86SOL     OW  703   1.017   0.039   0.753
   86SOL    HW1  704   0.945   0.044   0.684
   86SOL    HW2  705   0.993  -0.030   0.822
   87SOL     OW  706   1.429   1.173   0.867
   87SOL    HW1  707   1.374   1.089   0.860
   87SOL    HW2  708   1.455   1.202   0.775
   88SOL     OW  709   1.466   0.590   0.992
   88SOL    HW1  710   1.436   0.495   0.999
   88SOL    HW2  711   1.539   0.606   1.058
   89SOL     OW  712   1.857   0.833   0.377
   89SOL    HW1  713   1.899   0.769   0.441
   89SOL    HW2  714   1.819   0.782   0.299
   90SOL     OW  715   0.488   1.385   0.174
   90SOL    HW1  716   0.401   1.370   0.221
   90SOL    HW2  717   0.471   1.411   0.079
   91SOL     OW  718   1.664   1.280   0.657
   91SOL    HW1  719   1.763   1.288   0.671
   91SOL    HW2  720   1.619   1.364   0.688
   92SOL     OW  721   1.390   0.575   0.078
   92SOL    HW1  722   1.336   0.554   0.159
   92SOL    HW2  723   1.481   0.534   0.087
   93SOL     OW  724   0.527   0.256   0.328
   93SOL    HW1  725   0.554   0.197   0.253
   93SOL    HW2  726   0.527   0.351   0.297
   94SOL     OW  727   1.754   1.223   1.588
   94SOL    HW1  728   1.845   1.184   1.575
   94SOL    HW2  729   1.762   1.319   1.612
   95SOL     OW  730   1.064   1.347   1.340
   95SOL    HW1  731   0.984   1.324   1.395
   95SOL    HW2  732   1.147   1.321   1.389
   96SOL     OW  733   1.592   1.629   1.625
   96SOL    HW1  734   1.619   1.663   1.535
   96SOL    HW2  735   1.671   1.591   1.671
   97SOL     OW  736   1.111   1.195   1.100
   97SOL    HW1  737   1.071   1.239   1.181
   97SOL    HW2  738   1.070   1.232   1.017
   98SOL     OW  739   1.638   1.099   1.079
   98SOL    HW1  740   1.643   1.180   1.138
   98SOL    HW2  741   1.552   1.101   1.028
   99SOL     OW  742   0.915   0.089   1.402
   99SOL    HW1  743   0.940   0.069   1.307
   99SOL    HW2  744   0.987   0.145   1.444
  100SOL     OW  745   0.980   1.116   1.719
  100SOL    HW1  746   0.881   1.122   1.729
  100SOL    HW2  747   1.003   1.036   1.663
  101SOL     OW  748   0.705   1.050   0.368
  101SOL    HW1  749   0.691   1.057   0.467
  101SOL    HW2  750   0.789   0.999   0.350
  102SOL     OW  751   0.410   0.813   1.251
  102SOL    HW1  752   0.496   0.825   1.301
  102SOL    HW2  753   0.368   0.726   1.278
  103SOL     OW  754   1.274   0.386   1.262
  103SOL    HW1  755   1.295   0.460   1.326
  103SOL    HW2  756   1.185   0.403   1.219
  104SOL     OW  757   0.064   1.564   1.331
  104SOL    HW1  758   0.018   1.646   1.297
  104SOL    HW2  759   0.162   1.583   1.340
  105SOL     OW  760   0.367   1.100   0.501
  105SOL    HW1  761   0.360   1.183   0.445
  105SOL    HW2  762   0.371   1.020   0.441
  106SOL     OW  763   0.566   0.537   0.865
  106SOL    HW1  764   0.578   0.603   0.791
  106SOL    HW2  765   0.612   0.571   0.948
  107SOL     OW  766   1.252   1.348   0.388
  107SOL    HW1  767   1.302   1.425   0.428
  107SOL    HW2  768   1.157   1.350   0.420
  108SOL     OW  769   1.272   1.445   1.142
  108SOL    HW1  770   1.319   1.458   1.229
  108SOL    HW2  771   1.206   1.371   1.151
  109SOL     OW  772   1.582   0.639   0.472
  109SOL    HW1  773   1.551   0.700   0.545
  109SOL    HW2  774   1.632   0.691   0.403
  110SOL     OW  775   0.354   1.510   1.329
  110SOL    HW1  776   0.333   1.466   1.242
  110SOL    HW2  777   0.451   1.536   1.332
  111SOL     OW  778   0.402   0.751   1.598
  111SOL    HW1  779   0.470   0.806   1.551
  111SOL    HW2  780   0.442   0.663   1.625
  112SOL     OW  781   1.587   0.779   1.670
  112SOL    HW1  782   1.495   0.817   1.665
  112SOL    HW2  783   1.647   0.826   1.605
  113SOL     OW  784   1.013   0.105   1.770
  113SOL    HW1  785   1.019   0.190   1.718
  113SOL    HW2  786   1.045   0.029   1.713
  114SOL     OW  787   0.504   0.050   1.740
  114SOL    HW1  788   0.462  -0.007   1.670
  114SOL    HW2  789   0.438   0.119   1.772
  115SOL     OW  790   0.573   0.870   1.029
  115SOL    HW1  791   0.617   0.959   1.020
  115SOL    HW2  792   0.510   0.870   1.106
  116SOL     OW  793   1.360   0.862   1.045
  116SOL    HW1  794   1.285   0.862   0.979
  116SOL    HW2  795   1.397   0.770   1.054
  117SOL     OW  796   1.209   0.525   0.275
  117SOL    HW1  797   1.222   0.441   0.329
  117SOL    HW2  798   1.180   0.599   0.335
  118SOL     OW  799   0.307   0.213   1.231
  118SOL    HW1  800   0.284   0.250   1.321
  118SOL    HW2  801   0.277   0.118   1.225
  119SOL     OW  802   0.037   1.310   1.282
  119SOL    HW1  803   0.090   1.261   1.350
  119SOL    HW2  804   0.059   1.408   1.287
  120SOL     OW  805   0.732   0.634   1.064
  120SOL    HW1  806   0.791   0.608   0.988
  120SOL    HW2  807   0.704   0.730   1.053
  121SOL     OW  808   1.728   0.935   1.854
  121SOL    HW1  809   1.682   0.928   1.765
  121SOL    HW2  810   1.666   0.979   1.920
  122SOL     OW  811   0.307   0.063   0.618
  122SOL    HW1  812   0.296   0.157   0.651
  122SOL    HW2  813   0.302   0.000   0.695
  123SOL     OW  814   1.622   0.367   0.374
  123SOL    HW1  815   1.624   0.291   0.438
  123SOL    HW2  816   1.574   0.444   0.414
  124SOL     OW  817   1.023   0.766   0.966
  124SOL    HW1  818   1.038   0.787   1.062
  124SOL    HW2  819   0.993   0.671   0.957
  125SOL     OW  820   0.980   1.573   1.700
  125SOL    HW1  821   0.960   1.617   1.612
  125SOL    HW2  822   1.019   1.482   1.684
  126SOL     OW  823   1.859   1.518   1.605
  126SOL    HW1  824   1.873   1.545   1.510
  126SOL    HW2  825   1.942   1.540   1.658
  127SOL     OW  826   0.350   0.898   1.804
  127SOL    HW1  827   0.426   0.942   1.852
  127SOL    HW2  828   0.385   0.851   1.722
  128SOL     OW  829   1.540   0.274   0.125
  128SOL    HW1  830   1.479   0.199   0.148
  128SOL    HW2  831   1.562   0.326   0.208
  129SOL     OW  832   1.303   0.838   0.042
  129SOL    HW1  833   1.337   0.745   0.057
  129SOL    HW2  834   1.321   0.865  -0.053
  130SOL     OW  835   1.068   1.333   0.849
  130SOL    HW1  836   1.075   1.249   0.794
  130SOL    HW2  837   1.130   1.402   0.813
  131SOL     OW  838   0.319   0.810   0.949
  131SOL    HW1  839   0.412   0.846   0.954
  131SOL    HW2  840   0.313   0.725   1.001
  132SOL     OW  841   0.339   0.509   1.006
  132SOL    HW1  842   0.287   0.426   0.989
  132SOL    HW2  843   0.416   0.514   0.942
  133SOL     OW  844   1.138   0.380   1.678
  133SOL    HW1  845   1.093   0.443   1.742
  133SOL    HW2  846   1.231   0.411   1.661
  134SOL     OW  847   1.160   0.207   1.477
  134SOL    HW1  848   1.160   0.271   1.554
  134SOL    HW2  849   1.188   0.255   1.394
  135SOL     OW  850   0.008   1.326   0.200
  135SOL    HW1  851  -0.085   1.347   0.169
  135SOL    HW2  852   0.018   1.227   0.213
  136SOL     OW  853   0.088   1.801   0.927
  136SOL    HW1  854   0.046   1.715   0.900
  136SOL    HW2  855   0.182   1.804   0.893
  137SOL     OW  856   0.504   1.568   0.910
  137SOL    HW1  857   0.570   1.642   0.919
  137SOL    HW2  858   0.548   1.489   0.868
  138SOL     OW  859   1.002   0.796   1.238
  138SOL    HW1  860   1.043   0.764   1.324
  138SOL    HW2  861   0.906   0.769   1.235
  139SOL     OW  862   0.040   0.544   1.114
  139SOL    HW1  863   0.125   0.511   1.073
  139SOL    HW2  864   0.053   0.559   1.212
  140SOL     OW  865   0.189   0.520   1.722
  140SOL    HW1  866   0.248   0.480   1.652
  140SOL    HW2  867   0.131   0.591   1.681
  141SOL     OW  868   1.369   0.950   1.660
  141SOL    HW1  869   1.408   1.039   1.680
  141SOL    HW2  870   1.379   0.930   1.563
  142SOL     OW  871   0.815   0.572   0.325
  142SOL    HW1  872   0.822   0.483   0.279
  142SOL    HW2  873   0.721   0.606   0.317
  143SOL     OW  874   1.657   0.604   1.206
  143SOL    HW1  875   1.619   0.535   1.268
  143SOL    HW2  876   1.739   0.568   1.162
  144SOL     OW  877   0.252   1.564   1.744
  144SOL    HW1  878   0.222   1.621   1.820
  144SOL    HW2  879   0.245   1.467   1.770
  145SOL     OW  880   0.671   0.464   1.269
  145SOL    HW1  881   0.637   0.375   1.239
  145SOL    HW2  882   0.697   0.518   1.189
  146SOL     OW  883   0.930   1.678   1.465
  146SOL    HW1  884   0.906   1.660   1.370
  146SOL    HW2  885   0.960   1.772   1.475
  147SOL     OW  886   0.473   0.500   0.191
  147SOL    HW1  887   0.534   0.580   0.195
  147SOL    HW2  888   0.378   0.531   0.198
  148SOL     OW  889   0.159   1.137   1.466
  148SOL    HW1  890   0.181   1.076   1.542
  148SOL    HW2  891   0.169   1.088   1.380
  149SOL     OW  892   1.347   1.059   1.234
  149SOL    HW1  893   1.371   0.996   1.160
  149SOL    HW2  894   1.257   1.099   1.216
  150SOL     OW  895   1.302   0.855   0.309
  150SOL    HW1  896   1.216   0.824   0.351
  150SOL    HW2  897   1.298   0.841   0.210
  151SOL     OW  898   1.759   1.747   1.154
  151SOL    HW1  899   1.820   1.777   1.081
  151SOL    HW2  900   1.721   1.658   1.132
  152SOL     OW  901   1.252   1.731   1.128
  152SOL    HW1  902   1.336   1.736   1.074
  152SOL    HW2  903   1.229   1.635   1.146
  153SOL     OW  904   0.083   1.258   1.022
  153SOL    HW1  905   0.078   1.257   1.122
  153SOL    HW2  906   0.000   1.217   0.984
  154SOL     OW  907   0.688   1.662   1.716
  154SOL    HW1  908   0.632   1.743   1.725
  154SOL    HW2  909   0.740   1.666   1.630
  155SOL     OW  910   0.903   0.086   0.133
  155SOL    HW1  911   0.954   0.087   0.047
  155SOL    HW2  912   0.959   0.044   0.204
  156SOL     OW  913   1.726   0.135   0.523
  156SOL    HW1  914   1.799   0.118   0.456
  156SOL    HW2  915   1.695   0.048   0.561
  157SOL     OW  916   1.388   1.573   0.477
  157SOL    HW1  917   1.455   1.585   0.403
  157SOL    HW2  918   1.348   1.662   0.500
  158SOL     OW  919   0.130   1.794   1.851
  158SOL    HW1  920   0.089   1.720   1.904
  158SOL    HW2  921   0.194   1.845   1.909
  159SOL     OW  922   1.280   0.927   0.672
  159SOL    HW1  923   1.340   0.846   0.674
  159SOL    HW2  924   1.320   0.996   0.612
  160SOL     OW  925   0.830   1.273   1.422
  160SOL    HW1  926   0.825   1.306   1.517
  160SOL    HW2  927   0.744   1.292   1.376
  161SOL     OW  928   0.672   1.616   0.154
  161SOL    HW1  929   0.681   1.626   0.055
  161SOL    HW2  930   0.632   1.527   0.175
  162SOL     OW  931   1.650   1.720   1.394
  162SOL    HW1  932   1.703   1.730   1.310
  162SOL    HW2  933   1.623   1.810   1.428
  163SOL     OW  934   1.841   0.175   0.963
  163SOL    HW1  935   1.880   0.090   0.927
  163SOL    HW2  936   1.743   0.177   0.944
  164SOL     OW  937   0.263   0.326   0.720
  164SOL    HW1  938   0.184   0.377   0.686
  164SOL    HW2  939   0.254   0.311   0.818
  165SOL     OW  940   1.194   1.612   0.031
  165SOL    HW1  941   1.200   1.519   0.068
  165SOL    HW2  942   1.135   1.612  -0.049
  166SOL     OW  943   0.822   1.002   1.372
  166SOL    HW1  944   0.862   1.001   1.280
  166SOL    HW2  945   0.832   1.094   1.412
  167SOL     OW  946   0.916   0.910   0.291
  167SOL    HW1  947   0.979   0.948   0.223
  167SOL    HW2  948   0.956   0.827   0.330
  168SOL     OW  949   1.504   1.607   0.044
  168SOL    HW1  950   1.412   1.644   0.051
  168SOL    HW2  951   1.542   1.627  -0.046
  169SOL     OW  952   0.372   1.288   1.490
  169SOL    HW1  953   0.359   1.381   1.456
  169SOL    HW2  954   0.288   1.236   1.477
  170SOL     OW  955   1.614   1.292   1.289
  170SOL    HW1  956   1.674   1.295   1.369
  170SOL    HW2  957   1.539   1.356   1.302
  171SOL     OW  958   1.039   1.098   0.696
  171SOL    HW1  959   0.969   1.051   0.750
  171SOL    HW2  960   1.098   1.030   0.653
  172SOL     OW  961   1.014   0.236   0.971
  172SOL    HW1  962   1.006   0.200   0.878
  172SOL    HW2  963   1.012   0.160   1.036
  173SOL     OW  964   0.590   1.487   0.491
  173SOL    HW1  965   0.632   1.429   0.421
  173SOL    HW2  966   0.546   1.566   0.447
  174SOL     OW  967   1.709   0.385   1.381
  174SOL    HW1  968   1.782   0.454   1.385
  174SOL    HW2  969   1.737   0.310   1.322
  175SOL     OW  970   0.255   1.348   0.290
  175SOL    HW1  971   0.159   1.349   0.263
  175SOL    HW2  972   0.267   1.401   0.374
  176SOL     OW  973   0.105   1.013   1.726
  176SOL    HW1  974   0.028   0.980   1.780
  176SOL    HW2  975   0.190   0.983   1.768
  177SOL     OW  976   0.672   0.203   1.489
  177SOL    HW1  977   0.762   0.187   1.449
  177SOL    HW2  978   0.680   0.208   1.588
  178SOL     OW  979   0.075   0.345   0.033
  178SOL    HW1  980  -0.017   0.317   0.004
  178SOL    HW2  981   0.106   0.422  -0.023
  179SOL     OW  982   1.440   0.856   1.398
  179SOL    HW1  983   1.383   0.908   1.335
  179SOL    HW2  984   1.536   0.868   1.374
  180SOL     OW  985   0.072   0.166   0.318
  180SOL    HW1  986   0.055   0.249   0.264
  180SOL    HW2  987   0.162   0.129   0.296
  181SOL     OW  988   1.183   1.335   0.119
  181SOL    HW1  989   1.084   1.324   0.121
  181SOL    HW2  990   1.217   1.350   0.212
  182SOL     OW  991   0.613   0.842   1.431
  182SOL    HW1  992   0.669   0.923   1.414
  182SOL    HW2  993   0.672   0.762   1.434
  183SOL     OW  994   1.493   1.767   0.959
  183SOL    HW1  995   1.526   1.831   0.890
  183SOL    HW2  996   1.559   1.761   1.034
  184SOL     OW  997   0.716   0.565   1.708
  184SOL    HW1  998   0.735   0.630   1.782
  184SOL    HW2  999   0.776   0.485   1.717
  185SOL     OW 1000   1.450   1.220   1.633
  185SOL    HW1 1001   1.441   1.210   1.732
  185SOL    HW2 1002   1.546   1.213   1.607
  186SOL     OW 1003   0.390   1.741   1.560
  186SOL    HW1 1004   0.299   1.782   1.558
  186SOL    HW2 1005   0.383   1.647   1.592
  187SOL     OW 1006   1.674   0.883   1.254
  187SOL    HW1 1007   1.647   0.794   1.217
  187SOL    HW2 1008   1.675   0.951   1.181
  188SOL     OW 1009   1.225   0.325   0.449
  188SOL    HW1 1010   1.290   0.251   0.438
  188SOL    HW2 1011   1.245   0.375   0.533
  189SOL     OW 1012   0.594   0.745   0.652
  189SOL    HW1 1013   0.644   0.830   0.633
  189SOL    HW2 1014   0.506   0.747   0.604
  190SOL     OW 1015   1.777   0.342   1.642
  190SOL    HW1 1016   1.760   0.373   1.548
  190SOL    HW2 1017   1.693   0.305   1.680
  191SOL     OW 1018   1.730   0.934   1.517
  191SOL    HW1 1019   1.768   1.025   1.532
  191SOL    HW2 1020   1.722   0.917   1.418
  192SOL     OW 1021   0.859   1.374   0.016
  192SOL    HW1 1022   0.813   1.389   0.104
  192SOL    HW2 1023   0.903   1.459  -0.014
  193SOL     OW 1024   0.661   1.790   0.953
  193SOL    HW1 1025   0.615   1.878   0.940
  193SOL    HW2 1026   0.760   1.802   0.946
  194SOL     OW 1027   0.859   0.956   0.861
  194SOL    HW1 1028   0.913   0.887   0.909
  194SOL    HW2 1029   0.827   1.025   0.927
  195SOL     OW 1030   1.083   0.984   0.087
  195SOL    HW1 1031   1.060   1.037   0.005
  195SOL    HW2 1032   1.164   0.928   0.068
  196SOL     OW 1033   1.861   1.569   0.851
  196SOL    HW1 1034   1.790   1.557   0.781
  196SOL    HW2 1035   1.862   1.490   0.911
  197SOL     OW 1036   0.221   1.314   1.844
  197SOL    HW1 1037   0.156   1.241   1.823
  197SOL    HW2 1038   0.225   1.328   1.942
  198SOL     OW 1039   0.079   1.240   0.653
  198SOL    HW1 1040   0.078   1.193   0.741
  198SOL    HW2 1041   0.161   1.212   0.602
  199SOL     OW 1042   0.672   1.391   1.624
  199SOL    HW1 1043   0.594   1.341   1.662
  199SOL    HW2 1044   0.669   1.486   1.655
  200SOL     OW 1045   1.824   0.192   1.227
  200SOL    HW1 1046   1.820   0.102   1.271
  200SOL    HW2 1047   1.827   0.181   1.128
  201SOL     OW 1048   0.428   0.424   0.520
  201SOL    HW1 1049   0.458   0.352   0.458
  201SOL    HW2 1050   0.389   0.384   0.603
  202SOL     OW 1051   1.705   1.487   1.104
  202SOL    HW1 1052   1.612   1.462   1.077
  202SOL    HW2 1053   1.731   1.437   1.186
  203SOL     OW 1054   0.317   0.547   1.280
  203SOL    HW1 1055   0.355   0.488   1.352
  203SOL    HW2 1056   0.357   0.521   1.192
  204SOL     OW 1057   0.812   1.586   0.687
  204SOL    HW1 1058   0.844   1.596   0.593
  204SOL    HW2 1059   0.733   1.524   0.689
  205SOL     OW 1060   1.424   0.214   1.112
  205SOL    HW1 1061   1.476   0.149   1.167
  205SOL    HW2 1062   1.375   0.277   1.173
  206SOL     OW 1063   1.001   0.034   1.154
  206SOL    HW1 1064   0.938  -0.038   1.123
  206SOL    HW2 1065   1.094  -0.002   1.154
  207SOL     OW 1066   0.770   1.330   0.301
  207SOL    HW1 1067   0.724   1.243   0.318
  207SOL    HW2 1068   0.861   1.327   0.342
  208SOL     OW 1069   0.618   1.567   1.284
  208SOL    HW1 1070   0.613   1.649   1.341
  208SOL    HW2 1071   0.707   1.564   1.239
  209SOL     OW 1072   1.352   0.052   0.168
  209SOL    HW1 1073   1.387   0.011   0.084
  209SOL    HW2 1074   1.262   0.014   0.188
  210SOL     OW 1075   1.300   0.453   0.691
  210SOL    HW1 1076   1.241   0.533   0.695
  210SOL    HW2 1077   1.315   0.418   0.784
  211SOL     OW 1078   1.593   0.221   0.882
  211SOL    HW1 1079   1.509   0.220   0.936
  211SOL    HW2 1080   1.595   0.304   0.826
  212SOL     OW 1081   0.039   1.077   0.300
  212SOL    HW1 1082   0.138   1.066   0.291
  212SOL    HW2 1083  -0.001   0.991   0.332
  213SOL     OW 1084   0.875   1.646   0.337
  213SOL    HW1 1085   0.798   1.611   0.283
  213SOL    HW2 1086   0.843   1.717   0.399
  214SOL     OW 1087   0.230   0.628   1.975
  214SOL    HW1 1088   0.137   0.626   2.012
  214SOL    HW2 1089   0.231   0.589   1.883
  215SOL     OW 1090   0.225   0.275   2.858
  215SOL    HW1 1091   0.260   0.258   2.950
  215SOL    HW2 1092   0.137   0.230   2.846
  216SOL     OW 1093   0.019   0.368   2.509
  216SOL    HW1 1094  -0.063   0.411   2.548
  216SOL    HW2 1095  -0.009   0.295   2.446
  217SOL     OW 1096   0.569   1.275   3.027
  217SOL    HW1 1097   0.476   1.268   2.990
  217SOL    HW2 1098   0.580   1.364   3.071
  218SOL     OW 1099   1.555   1.511   2.565
  218SOL    HW1 1100   1.498   1.495   2.646
  218SOL    HW2 1101   1.496   1.521   2.485
  219SOL     OW 1102   1.135   0.703   2.579
  219SOL    HW1 1103   1.192   0.781   2.554
  219SOL    HW2 1104   1.075   0.729   2.655
  220SOL     OW 1105   1.755   0.607   2.093
  220SOL    HW1 1106   1.743   0.594   1.994
  220SOL    HW2 1107   1.725   0.526   2.142
  221SOL     OW 1108   0.768   1.144   2.885
  221SOL    HW1 1109   0.690   1.161   2.945
  221SOL    HW2 1110   0.802   1.231   2.849
  222SOL     OW 1111   0.850   0.798   3.685
  222SOL    HW1 1112   0.846   0.874   3.750
  222SOL    HW2 1113   0.872   0.834   3.594
  223SOL     OW 1114   0.685   1.012   2.527
  223SOL    HW1 1115   0.754   0.996   2.597
  223SOL    HW2 1116   0.612   1.069   2.565
  224SOL     OW 1117   0.686   1.161   3.665
  224SOL    HW1 1118   0.746   1.240   3.679
  224SOL    HW2 1119   0.600   1.192   3.624
  225SOL     OW 1120   0.335   1.435   2.923
  225SOL    HW1 1121   0.257   1.404   2.870
  225SOL    HW2 1122   0.393   1.493   2.866
  226SOL     OW 1123   1.460   1.505   3.201
  226SOL    HW1 1124   1.484   1.599   3.227
  226SOL    HW2 1125   1.444   1.451   3.283
  227SOL     OW 1126   0.438   0.392   3.361
  227SOL    HW1 1127   0.520   0.336   3.370
  227SOL    HW2 1128   0.357   0.334   3.365
  228SOL     OW 1129   1.603   0.447   2.599
  228SOL    HW1 1130   1.529   0.493   2.549
  228SOL    HW2 1131   1.654   0.515   2.652
  229SOL     OW 1132   0.231   1.713   2.345
  229SOL    HW1 1133   0.265   1.790   2.399
  229SOL    HW2 1134   0.275   1.713   2.255
  230SOL     OW 1135   1.127   1.341   3.552
  230SOL    HW1 1136   1.174   1.341   3.640
  230SOL    HW2 1137   1.079   1.254   3.541
  231SOL     OW 1138   0.230   1.434   2.400
  231SOL    HW1 1139   0.204   1.530   2.400
  231SOL    HW2 1140   0.159   1.380   2.445
  232SOL     OW 1141   0.240   1.091   2.748
  232SOL    HW1 1142   0.254   1.007   2.800
  232SOL    HW2 1143   0.185   1.155   2.803
  233SOL     OW 1144   0.620   1.786   3.301
  233SOL    HW1 1145   0.528   1.769   3.336
  233SOL    HW2 1146   0.648   1.878   3.327
  234SOL     OW 1147   0.606   0.964   1.985
  234SOL    HW1 1148   0.613   1.048   1.931
  234SOL    HW2 1149   0.652   0.977   2.073
  235SOL     OW 1150   1.594   0.114   3.342
  235SOL    HW1 1151   1.576   0.181   3.270
  235SOL    HW2 1152   1.591   0.160   3.431
  236SOL     OW 1153   0.122   0.643   2.425
  236SOL    HW1 1154   0.077   0.555   2.442
  236SOL    HW2 1155   0.121   0.697   2.509
  237SOL     OW 1156   0.027   1.596   1.979
  237SOL    HW1 1157   0.008   1.500   2.000
  237SOL    HW2 1158  -0.006   1.654   2.054
  238SOL     OW 1159   1.689   0.922   2.474
  238SOL    HW1 1160   1.784   0.893   2.482
  238SOL    HW2 1161   1.681   0.987   2.399
  239SOL     OW 1162   1.641   1.108   2.294
  239SOL    HW1 1163   1.727   1.110   2.242
  239SOL    HW2 1164   1.655   1.155   2.382
  240SOL     OW 1165   0.113   0.737   3.459
  240SOL    HW1 1166   0.201   0.724   3.504
  240SOL    HW2 1167   0.100   0.834   3.437
  241SOL     OW 1168   0.613   1.365   2.588
  241SOL    HW1 1169   0.564   1.278   2.597
  241SOL    HW2 1170   0.590   1.408   2.501
  242SOL     OW 1171   1.293   1.228   3.285
  242SOL    HW1 1172   1.330   1.155   3.227
  242SOL    HW2 1173   1.345   1.233   3.370
  243SOL     OW 1174   0.809   0.004   2.364
  243SOL    HW1 1175   0.849   0.095   2.355
  243SOL    HW2 1176   0.709   0.012   2.370
  244SOL     OW 1177   0.197   0.976   3.126
  244SOL    HW1 1178   0.286   0.931   3.112
  244SOL    HW2 1179   0.124   0.911   3.107
  245SOL     OW 1180   1.525   0.999   2.052
  245SOL    HW1 1181   1.462   0.923   2.065
  245SOL    HW2 1182   1.573   1.017   2.138
  246SOL     OW 1183   1.187   1.792   3.478
  246SOL    HW1 1184   1.211   1.852   3.402
  246SOL    HW2 1185   1.194   1.697   3.448
  247SOL     OW 1186   0.317   0.251   3.663
  247SOL    HW1 1187   0.388   0.322   3.669
  247SOL    HW2 1188   0.229   0.290   3.691
  248SOL     OW 1189   1.466   1.417   2.815
  248SOL    HW1 1190   1.407   1.423   2.895
  248SOL    HW2 1191   1.451   1.329   2.769
  249SOL     OW 1192   1.667   1.714   2.434
  249SOL    HW1 1193   1.626   1.691   2.346
  249SOL    HW2 1194   1.649   1.640   2.499
  250SOL     OW 1195   0.598   0.729   2.132
  250SOL    HW1 1196   0.622   0.798   2.064
  250SOL    HW2 1197   0.520   0.762   2.186
  251SOL     OW 1198   1.281   0.345   2.806
  251SOL    HW1 1199   1.195   0.295   2.793
  251SOL    HW2 1200   1.343   0.291   2.862
  252SOL     OW 1201   1.576   1.662   2.169
  252SOL    HW1 1202   1.665   1.708   2.172
  252SOL    HW2 1203   1.555   1.638   2.074
  253SOL     OW 1204   0.807   0.605   3.327
  253SOL    HW1 1205   0.760   0.602   3.416
  253SOL    HW2 1206   0.756   0.550   3.261
  254SOL     OW 1207   1.394   0.469   3.536
  254SOL    HW1 1208   1.374   0.512   3.624
  254SOL    HW2 1209   1.472   0.407   3.545
  255SOL     OW 1210   0.973   0.890   3.434
  255SOL    HW1 1211   1.019   0.806   3.405
  255SOL    HW2 1212   0.917   0.924   3.359
  256SOL     OW 1213   0.991   0.410   3.104
  256SOL    HW1 1214   0.914   0.444   3.158
  256SOL    HW2 1215   0.957   0.359   3.025
  257SOL     OW 1216   1.041   0.701   2.291
  257SOL    HW1 1217   1.067   0.697   2.387
  257SOL    HW2 1218   0.956   0.650   2.277
  258SOL     OW 1219   0.076   0.811   2.651
  258SOL    HW1 1220   0.175   0.799   2.660
  258SOL    HW2 1221   0.052   0.906   2.672
  259SOL     OW 1222   0.130   1.821   3.433
  259SOL    HW1 1223   0.120   1.806   3.532
  259SOL    HW2 1224   0.044   1.857   3.397
  260SOL     OW 1225   0.865   0.348   2.057
  260SOL    HW1 1226   0.924   0.411   2.008
  260SOL    HW2 1227   0.884   0.254   2.028
  261SOL     OW 1228   1.719   0.585   3.693
  261SOL    HW1 1229   1.693   0.674   3.657
  261SOL    HW2 1230   1.717   0.517   3.620
  262SOL     OW 1231   1.362   1.144   2.407
  262SOL    HW1 1232   1.445   1.115   2.359
  262SOL    HW2 1233   1.313   1.211   2.351
  263SOL     OW 1234   0.550   0.196   2.747
  263SOL    HW1 1235   0.545   0.191   2.847
  263SOL    HW2 1236   0.552   0.292   2.718
  264SOL     OW 1237   1.008   1.456   2.339
  264SOL    HW1 1238   0.962   1.528   2.287
  264SOL    HW2 1239   1.004   1.476   2.437
  265SOL     OW 1240   0.351   1.801   2.715
  265SOL    HW1 1241   0.401   1.715   2.721
  265SOL    HW2 1242   0.416   1.878   2.712
  266SOL     OW 1243   1.795   1.066   2.735
  266SOL    HW1 1244   1.733   1.051   2.659
  266SOL    HW2 1245   1.743   1.077   2.820
  267SOL     OW 1246   1.227   1.550   3.368
  267SOL    HW1 1247   1.233   1.473   3.432
  267SOL    HW2 1248   1.175   1.524   3.288
  268SOL     OW 1249   0.321   0.943   2.104
  268SOL    HW1 1250   0.403   0.982   2.062
  268SOL    HW2 1251   0.294   0.861   2.055
  269SOL     OW 1252   1.458   0.735   2.590
  269SOL    HW1 1253   1.453   0.670   2.665
  269SOL    HW2 1254   1.538   0.794   2.603
  270SOL     OW 1255   0.461   1.266   3.589
  270SOL    HW1 1256   0.411   1.267   3.503
  270SOL    HW2 1257   0.398   1.248   3.665
  271SOL     OW 1258   1.111   1.776   2.099
  271SOL    HW1 1259   1.051   1.714   2.149
  271SOL    HW2 1260   1.142   1.732   2.014
  272SOL     OW 1261   0.202   0.285   3.360
  272SOL    HW1 1262   0.122   0.345   3.347
  272SOL    HW2 1263   0.192   0.236   3.446
  273SOL     OW 1264   1.632   1.377   1.943
  273SOL    HW1 1265   1.600   1.471   1.933
  273SOL    HW2 1266   1.556   1.314   1.931
  274SOL     OW 1267   0.464   1.743   2.185
  274SOL    HW1 1268   0.497   1.782   2.271
  274SOL    HW2 1269   0.540   1.736   2.120
  275SOL     OW 1270   1.400   0.107   2.288
  275SOL    HW1 1271   1.376   0.070   2.198
  275SOL    HW2 1272   1.499   0.123   2.292
  276SOL     OW 1273   0.249   1.785   3.103
  276SOL    HW1 1274   0.306   1.720   3.153
  276SOL    HW2 1275   0.233   1.752   3.010
  277SOL     OW 1276   0.940   1.698   2.766
  277SOL    HW1 1277   1.020   1.641   2.787
  277SOL    HW2 1278   0.891   1.658   2.689
  278SOL     OW 1279   0.382   0.700   2.342
  278SOL    HW1 1280   0.427   0.610   2.339
  278SOL    HW2 1281   0.288   0.689   2.375
  279SOL     OW 1282   1.547   0.222   3.591
  279SOL    HW1 1283   1.542   0.259   3.683
  279SOL    HW2 1284   1.475   0.153   3.579
  280SOL     OW 1285   0.614   0.122   1.979
  280SOL    HW1 1286   0.712   0.100   1.986
  280SOL    HW2 1287   0.583   0.105   1.886
  281SOL     OW 1288   0.781   0.264   3.611
  281SOL    HW1 1289   0.848   0.203   3.654
  281SOL    HW2 1290   0.708   0.283   3.676
  282SOL     OW 1291   0.888   1.514   3.057
  282SOL    HW1 1292   0.865   1.489   2.963
  282SOL    HW2 1293   0.949   1.445   3.096
  283SOL     OW 1294   1.351   0.590   3.295
  283SOL    HW1 1295   1.379   0.547   3.380
  283SOL    HW2 1296   1.376   0.686   3.296
  284SOL     OW 1297   0.803   1.402   2.786
  284SOL    HW1 1298   0.893   1.416   2.744
  284SOL    HW2 1299   0.732   1.404   2.715
  285SOL     OW 1300   0.922   0.503   2.761
  285SOL    HW1 1301   0.897   0.494   2.665
  285SOL    HW2 1302   0.970   0.421   2.792
  286SOL     OW 1303   0.539   0.064   2.374
  286SOL    HW1 1304   0.458   0.065   2.432
  286SOL    HW2 1305   0.542   0.147   2.319
  287SOL     OW 1306   1.434   1.188   1.903
  287SOL    HW1 1307   1.466   1.112   1.960
  287SOL    HW2 1308   1.342   1.215   1.933
  288SOL     OW 1309   0.297   0.035   2.033
  288SOL    HW1 1310   0.346   0.119   2.012
  288SOL    HW2 1311   0.359  -0.030   2.078
  289SOL     OW 1312   0.935   0.236   2.342
  289SOL    HW1 1313   0.887   0.277   2.264
  289SOL    HW2 1314   1.034   0.234   2.323
  290SOL     OW 1315   1.076   0.683   3.326
  290SOL    HW1 1316   0.996   0.622   3.329
  290SOL    HW2 1317   1.157   0.630   3.302
  291SOL     OW 1318   1.227   1.570   2.655
  291SOL    HW1 1319   1.248   1.644   2.590
  291SOL    HW2 1320   1.295   1.570   2.728
  292SOL     OW 1321   0.459   1.152   2.603
  292SOL    HW1 1322   0.388   1.125   2.668
  292SOL    HW2 1323   0.433   1.124   2.510
  293SOL     OW 1324   1.271   1.797   2.453
  293SOL    HW1 1325   1.315   1.861   2.389
  293SOL    HW2 1326   1.221   1.849   2.523
  294SOL     OW 1327   1.032   0.549   1.878
  294SOL    HW1 1328   0.991   0.631   1.839
  294SOL    HW2 1329   1.096   0.575   1.951
  295SOL     OW 1330   0.078   0.556   3.248
  295SOL    HW1 1331   0.170   0.555   3.207
  295SOL    HW2 1332   0.072   0.630   3.315
  296SOL     OW 1333   0.561   0.222   3.009
  296SOL    HW1 1334   0.599   0.138   3.046
  296SOL    HW2 1335   0.473   0.241   3.053
  297SOL     OW 1336   0.866   0.454   2.504
  297SOL    HW1 1337   0.834   0.526   2.442
  297SOL    HW2 1338   0.890   0.373   2.451
  298SOL     OW 1339   1.017   0.039   2.615
  298SOL    HW1 1340   0.945   0.044   2.546
  298SOL    HW2 1341   0.993  -0.030   2.684
  299SOL     OW 1342   1.429   1.173   2.729
  299SOL    HW1 1343   1.374   1.089   2.722
  299SOL    HW2 1344   1.455   1.202   2.637
  300SOL     OW 1345   1.466   0.590   2.854
  300SOL    HW1 1346   1.436   0.495   2.861
  300SOL    HW2 1347   1.539   0.606   2.920
  301SOL     OW 1348   1.857   0.833   2.239
  301SOL    HW1 1349   1.899   0.769   2.303
  301SOL    HW2 1350   1.819   0.782   2.161
  302SOL     OW 1351   0.488   1.385   2.036
  302SOL    HW1 1352   0.401   1.370   2.083
  302SOL    HW2 1353   0.471   1.411   1.941
  303SOL     OW 1354   1.664   1.280   2.519
  303SOL    HW1 1355   1.763   1.288   2.533
  303SOL    HW2 1356   1.619   1.364   2.550
  304SOL     OW 1357   1.390   0.575   1.940
  304SOL    HW1 1358   1.336   0.554   2.021
  304SOL    HW2 1359   1.481   0.534   1.949
  305SOL     OW 1360   0.527   0.256   2.190
  305SOL    HW1 1361   0.554   0.197   2.115
  305SOL    HW2 1362   0.527   0.351   2.159
  306SOL     OW 1363   1.754   1.223   3.450
  306SOL    HW1 1364   1.845   1.184   3.437
  306SOL    HW2 1365   1.762   1.319   3.474
  307SOL     OW 1366   1.064   1.347   3.202
  307SOL    HW1 1367   0.984   1.324   3.257
  307SOL    HW2 1368   1.147   1.321   3.251
  308SOL     OW 1369   1.592   1.629   3.487
  308SOL    HW1 1370   1.619   1.663   3.397
  308SOL    HW2 1371   1.671   1.591   3.533
  309SOL     OW 1372   1.111   1.195   2.962
  309SOL    HW1 1373   1.071   1.239   3.043
  309SOL    HW2 1374   1.070   1.232   2.879
  310SOL     OW 1375   1.638   1.099   2.941
  310SOL    HW1 1376   1.643   1.180   3.000
  310SOL    HW2 1377   1.552   1.101   2.890
  311SOL     OW 1378   0.915   0.089   3.264
  311SOL    HW1 1379   0.940   0.069   3.169
  311SOL    HW2 1380   0.987   0.145   3.306
  312SOL     OW 1381   0.980   1.116   3.581
  312SOL    HW1 1382   0.881   1.122   3.591
  312SOL    HW2 1383   1.003   1.036   3.525
  313SOL     OW 1384   0.705   1.050   2.230
  313SOL    HW1 1385   0.691   1.057   2.329
  313SOL    HW2 1386   0.789   0.999   2.212
  314SOL     OW 1387   0.410   0.813   3.113
  314SOL    HW1 1388   0.496   0.825   3.163
  314SOL    HW2 1389   0.368   0.726   3.140
  315SOL     OW 1390   1.274   0.386   3.124
  315SOL    HW1 1391   1.295   0.460   3.188
  315SOL    HW2 1392   1.185   0.403   3.081
  316SOL     OW 1393   0.064   1.564   3.193
  316SOL    HW1 1394   0.018   1.646   3.159
  316SOL    HW2 1395   0.162   1.583   3.202
  317SOL     OW 1396   0.367   1.100   2.363
  317SOL    HW1 1397   0.360   1.183   2.307
  317SOL    HW2 1398   0.371   1.020   2.303
  318SOL     OW 1399   0.566   0.537   2.727
  318SOL    HW1 1400   0.578   0.603   2.653
  318SOL    HW2 1401   0.612   0.571   2.810
  319SOL     OW 1402   1.252   1.348   2.250
  319SOL    HW1 1403   1.302   1.425   2.290
  319SOL    HW2 1404   1.157   1.350   2.282
  320SOL     OW 1405   1.272   1.445   3.004
  320SOL    HW1 1406   1.319   1.458   3.091
  320SOL    HW2 1407   1.206   1.371   3.013
  321SOL     OW 1408   1.582   0.639   2.334
  321SOL    HW1 1409   1.551   0.700   2.407
  321SOL    HW2 1410   1.632   0.691   2.265
  322SOL     OW 1411   0.354   1.510   3.191
  322SOL    HW1 1412   0.333   1.466   3.104
  322SOL    HW2 1413   0.451   1.536   3.194
  323SOL     OW 1414   0.402   0.751   3.460
  323SOL    HW1 1415   0.470   0.806   3.413
  323SOL    HW2 1416   0.442   0.663   3.487
  324SOL     OW 1417   1.587   0.779   3.532
  324SOL    HW1 1418   1.495   0.817   3.527
  324SOL    HW2 1419   1.647   0.826   3.467
  325SOL     OW 1420   1.013   0.105   3.632
  325SOL    HW1 1421   1.019   0.190   3.580
  325SOL    HW2 1422   1.045   0.029   3.575
  326SOL     OW 1423   0.504   0.050   3.602
  326SOL    HW1 1424   0.462  -0.007   3.532
  326SOL    HW2 1425   0.438   0.119   3.634
  327SOL     OW 1426   0.573   0.870   2.891
  327SOL    HW1 1427   0.617   0.959   2.882
  327SOL    HW2 1428   0.510   0.870   2.968
  328SOL     OW 1429   1.360   0.862   2.907
  328SOL    HW1 1430   1.285   0.862   2.841
  328SOL    HW2 1431   1.397   0.770   2.916
  329SOL     OW 1432   1.209   0.525   2.137
  329SOL    HW1 1433   1.222   0.441   2.191
  329SOL    HW2 1434   1.180   0.599   2.197
  330SOL     OW 1435   0.307   0.213   3.093
  330SOL    HW1 1436   0.284   0.250   3.183
  330SOL    HW2 1437   0.277   0.118   3.087
  331SOL     OW 1438   0.037   1.310   3.144
  331SOL    HW1 1439   0.090   1.261   3.212
  331SOL    HW2 1440   0.059   1.408   3.149
  332SOL     OW 1441   0.732   0.634   2.926
  332SOL    HW1 1442   0.791   0.608   2.850
  332SOL    HW2 1443   0.704   0.730   2.915
  333SOL     OW 1444   1.728   0.935   3.716
  333SOL    HW1 1445   1.682   0.928   3.627
  333SOL    HW2 1446   1.666   0.979   3.782
  334SOL     OW 1447   0.307   0.063   2.480
  334SOL    HW1 1448   0.296   0.157   2.513
  334SOL    HW2 1449   0.302   0.000   2.557
  335SOL     OW 1450   1.622   0.367   2.236
  335SOL    HW1 1451   1.624   0.291   2.300
  335SOL    HW2 1452   1.574   0.444   2.276
  336SOL     OW 1453   1.023   0.766   2.828
  336SOL    HW1 1454   1.038   0.787   2.924
  336SOL    HW2 1455   0.993   0.671   2.819
  337SOL     OW 1456   0.980   1.573   3.562
  337SOL    HW1 1457   0.960   1.617   3.474
  337SOL    HW2 1458   1.019   1.482   3.546
  338SOL     OW 1459   1.859   1.518   3.467
  338SOL    HW1 1460   1.873   1.545   3.372
  338SOL    HW2 1461   1.942   1.540   3.520
  339SOL     OW 1462   0.350   0.898   3.666
  339SOL    HW1 1463   0.426   0.942   3.714
  339SOL    HW2 1464   0.385   0.851   3.584
  340SOL     OW 1465   1.540   0.274   1.987
  340SOL    HW1 1466   1.479   0.199   2.010
  340SOL    HW2 1467   1.562   0.326   2.070
  341SOL     OW 1468   1.303   0.838   1.904
  341SOL    HW1 1469   1.337   0.745   1.919
  341SOL    HW2 1470   1.321   0.865   1.809
  342SOL     OW 1471   1.068   1.333   2.711
  342SOL    HW1 1472   1.075   1.249   2.656
  342SOL    HW2 1473   1.130   1.402   2.675
  343SOL     OW 1474   0.319   0.810   2.811
  343SOL    HW1 1475   0.412   0.846   2.816
  343SOL    HW2 1476   0.313   0.725   2.863
  344SOL     OW 1477   0.339   0.509   2.868
  344SOL    HW1 1478   0.287   0.426   2.851
  344SOL    HW2 1479   0.416   0.514   2.804
  345SOL     OW 1480   1.138   0.380   3.540
  345SOL    HW1 1481   1.093   0.443   3.604
  345SOL    HW2 1482   1.231   0.411   3.523
  346SOL     OW 1483   1.160   0.207   3.339
  346SOL    HW1 1484   1.160   0.271   3.416
  346SOL    HW2 1485   1.188   0.255   3.256
  347SOL     OW 1486   0.008   1.326   2.062
  347SOL    HW1 1487  -0.085   1.347   2.031
  347SOL    HW2 1488   0.018   1.227   2.075
  348SOL     OW 1489   0.088   1.801   2.789
  348SOL    HW1 1490   0.046   1.715   2.762
  348SOL    HW2 1491   0.182   1.804   2.755
  349SOL     OW 1492   0.504   1.568   2.772
  349SOL    HW1 1493   0.570   1.642   2.781
  349SOL    HW2 1494   0.548   1.489   2.730
  350SOL     OW 1495   1.002   0.796   3.100
  350SOL    HW1 1496   1.043   0.764   3.186
  350SOL    HW2 1497   0.906   0.769   3.097
  351SOL     OW 1498   0.040   0.544   2.976
  351SOL    HW1 1499   0.125   0.511   2.935
  351SOL    HW2 1500   0.053   0.559   3.074
  352SOL     OW 1501   0.189   0.520   3.584
  352SOL    HW1 1502   0.248   0.480   3.514
  352SOL    HW2 1503   0.131   0.591   3.543
  353SOL     OW 1504   1.369   0.950   3.522
  353SOL    HW1 1505   1.408   1.039   3.542
  353SOL    HW2 1506   1.379   0.930   3.425
  354SOL     OW 1507   0.815   0.572   2.187
  354SOL    HW1 1508   0.822   0.483   2.141
  354SOL    HW2 1509   0.721   0.606   2.179
  355SOL     OW 1510   1.657   0.604   3.068
  355SOL    HW1 1511   1.619   0.535   3.130
  355SOL    HW2 1512   1.739   0.568   3.024
  356SOL     OW 1513   0.252   1.564   3.606
  356SOL    HW1 1514   0.222   1.621   3.682
  356SOL    HW2 1515   0.245   1.467   3.632
  357SOL     OW 1516   0.671   0.464   3.131
  357SOL    HW1 1517   0.637   0.375   3.101
  357SOL    HW2 1518   0.697   0.518   3.051
  358SOL     OW 1519   0.930   1.678   3.327
  358SOL    HW1 1520   0.906   1.660   3.232
  358SOL    HW2 1521   0.960   1.772   3.337
  359SOL     OW 1522   0.473   0.500   2.053
  359SOL    HW1 1523   0.534   0.580   2.057
  359SOL    HW2 1524   0.378   0.531   2.060
  360SOL     OW 1525   0.159   1.137   3.328
  360SOL    HW1 1526   0.181   1.076   3.404
  360SOL    HW2 1527   0.169   1.088   3.242
  361SOL     OW 1528   1.347   1.059   3.096
  361SOL    HW1 1529   1.371   0.996   3.022
  361SOL    HW2 1530   1.257   1.099   3.078
  362SOL     OW 1531   1.302   0.855   2.171
  362SOL    HW1 1532   1.216   0.824   2.213
  362SOL    HW2 1533   1.298   0.841   2.072
  363SOL     OW 1534   1.759   1.747   3.016
  363SOL    HW1 1535   1.820   1.777   2.943
  363SOL    HW2 1536   1.721   1.658   2.994
  364SOL     OW 1537   1.252   1.731   2.990
  364SOL    HW1 1538   1.336   1.736   2.936
  364SOL    HW2 1539   1.229   1.635   3.008
  365SOL     OW 1540   0.083   1.258   2.884
  365SOL    HW1 1541   0.078   1.257   2.984
  365SOL    HW2 1542   0.000   1.217   2.846
  366SOL     OW 1543   0.688   1.662   3.578
  366SOL    HW1 1544   0.632   1.743   3.587
  366SOL    HW2 1545   0.740   1.666   3.492
  367SOL     OW 1546   1.726   0.135   2.385
  367SOL    HW1 1547   1.799   0.118   2.318
  367SOL    HW2 1548   1.695   0.048   2.423
  368SOL     OW 1549   1.388   1.573   2.339
  368SOL    HW1 1550   1.455   1.585   2.265
  368SOL    HW2 1551   1.348   1.662   2.362
  369SOL     OW 1552   0.130   1.794   3.713
  369SOL    HW1 1553   0.089   1.720   3.766
  369SOL    HW2 1554   0.194   1.845   3.771
  370SOL     OW 1555   1.280   0.927   2.534
  370SOL    HW1 1556   1.340   0.846   2.536
  370SOL    HW2 1557   1.320   0.996   2.474
  371SOL     OW 1558   0.830   1.273   3.284
  371SOL    HW1 1559   0.825   1.306   3.379
  371SOL    HW2 1560   0.744   1.292   3.238
  372SOL     OW 1561   0.672   1.616   2.016
  372SOL    HW1 1562   0.681   1.626   1.917
  372SOL    HW2 1563   0.632   1.527   2.037
  373SOL     OW 1564   1.650   1.720   3.256
  373SOL    HW1 1565   1.703   1.730   3.172
  373SOL    HW2 1566   1.623   1.810   3.290
  374SOL     OW 1567   1.841   0.175   2.825
  374SOL    HW1 1568   1.880   0.090   2.789
  374SOL    HW2 1569   1.743   0.177   2.806
  375SOL     OW 1570   0.263   0.326   2.582
  375SOL    HW1 1571   0.184   0.377   2.548
  375SOL    HW2 1572   0.254   0.311   2.680
  376SOL     OW 1573   1.194   1.612   1.893
  376SOL    HW1 1574   1.200   1.519   1.930
  376SOL    HW2 1575   1.135   1.612   1.813
  377SOL     OW 1576   0.822   1.002   3.234
  377SOL    HW1 1577   0.862   1.001   3.142
  377SOL    HW2 1578   0.832   1.094   3.274
  378SOL     OW 1579   0.916   0.910   2.153
  378SOL    HW1 1580   0.979   0.948   2.085
  378SOL    HW2 1581   0.956   0.827   2.192
  379SOL     OW 1582   1.504   1.607   1.906
  379SOL    HW1 1583   1.412   1.644   1.913
  379SOL    HW2 1584   1.542   1.627   1.816
  380SOL     OW 1585   0.372   1.288   3.352
  380SOL    HW1 1586   0.359   1.381   3.318
  380SOL    HW2 1587   0.288   1.236   3.339
  381SOL     OW 1588   1.614   1.292   3.151
  381SOL    HW1 1589   1.674   1.295   3.231
  381SOL    HW2 1590   1.539   1.356   3.164
  382SOL     OW 1591   1.039   1.098   2.558
  382SOL    HW1 1592   0.969   1.051   2.612
  382SOL    HW2 1593   1.098   1.030   2.515
  383SOL     OW 1594   1.014   0.236   2.833
  383SOL    HW1 1595   1.006   0.200   2.740
  383SOL    HW2 1596   1.012   0.160   2.898
  384SOL     OW 1597   0.590   1.487   2.353
  384SOL    HW1 1598   0.632   1.429   2.283
  384SOL    HW2 1599   0.546   1.566   2.309
  385SOL     OW 1600   1.709   0.385   3.243
  385SOL    HW1 1601   1.782   0.454   3.247
  385SOL    HW2 1602   1.737   0.310   3.184
  386SOL     OW 1603   0.255   1.348   2.152
  386SOL    HW1 1604   0.159   1.349   2.125
  386SOL    HW2 1605   0.267   1.401   2.236
  387SOL     OW 1606   0.105   1.013   3.588
  387SOL    HW1 1607   0.028   0.980   3.642
  387SOL    HW2 1608   0.190   0.983   3.630
  388SOL     OW 1609   0.672   0.203   3.351
  388SOL    HW1 1610   0.762   0.187   3.311
  388SOL    HW2 1611   0.680   0.208   3.450
  389SOL     OW 1612   0.075   0.345   1.895
  389SOL    HW1 1613  -0.017   0.317   1.866
  389SOL    HW2 1614   0.106   0.422   1.839
  390SOL     OW 1615   1.440   0.856   3.260
  390SOL    HW1 1616   1.383   0.908   3.197
  390SOL    HW2 1617   1.536   0.868   3.236
  391SOL     OW 1618   0.072   0.166   2.180
  391SOL    HW1 1619   0.055   0.249   2.126
  391SOL    HW2 1620   0.162   0.129   2.158
  392SOL     OW 1621   1.183   1.335   1.981
  392SOL    HW1 1622   1.084   1.324   1.983
  392SOL    HW2 1623   1.217   1.350   2.074
  393SOL     OW 1624   0.613   0.842   3.293
  393SOL    HW1 1625   0.669   0.923   3.276
  393SOL    HW2 1626   0.672   0.762   3.296
  394SOL     OW 1627   1.493   1.767   2.821
  394SOL    HW1 1628   1.526   1.831   2.752
  394SOL    HW2 1629   1.559   1.761   2.896
  395SOL     OW 1630   0.716   0.565   3.570
  395SOL    HW1 1631   0.735   0.630   3.644
  395SOL    HW2 1632   0.776   0.485   3.579
  396SOL     OW 1633   1.450   1.220   3.495
  396SOL    HW1 1634   1.441   1.210   3.594
  396SOL    HW2 1635   1.546   1.213   3.469
  397SOL     OW 1636   0.390   1.741   3.422
  397SOL    HW1 1637   0.299   1.782   3.420
  397SOL    HW2 1638   0.383   1.647   3.454
  398SOL     OW 1639   1.674   0.883   3.116
  398SOL    HW1 1640   1.647   0.794   3.079
  398SOL    HW2 1641   1.675   0.951   3.043
  399SOL     OW 1642   1.225   0.325   2.311
  399SOL    HW1 1643   1.290   0.251   2.300
  399SOL    HW2 1644   1.245   0.375   2.395
  400SOL     OW 1645   0.594   0.745   2.514
  400SOL    HW1 1646   0.644   0.830   2.495
  400SOL    HW2 1647   0.506   0.747   2.466
  401SOL     OW 1648   1.777   0.342   3.504
  401SOL    HW1 1649   1.760   0.373   3.410
  401SOL    HW2 1650   1.693   0.305   3.542
  402SOL     OW 1651   1.730   0.934   3.379
  402SOL    HW1 1652   1.768   1.025   3.394
  402SOL    HW2 1653   1.722   0.917   3.280
  403SOL     OW 1654   0.859   1.374   1.878
  403SOL    HW1 1655   0.813   1.389   1.966
  403SOL    HW2 1656   0.903   1.459   1.848
  404SOL     OW 1657   0.661   1.790   2.815
  404SOL    HW1 1658   0.615   1.878   2.802
  404SOL    HW2 1659   0.760   1.802   2.808
  405SOL     OW 1660   0.859   0.956   2.723
  405SOL    HW1 1661   0.913   0.887   2.771
  405SOL    HW2 1662   0.827   1.025   2.789
  406SOL     OW 1663   1.083   0.984   1.949
  406SOL    HW1 1664   1.060   1.037   1.867
  406SOL    HW2 1665   1.164   0.928   1.930
  407SOL     OW 1666   1.861   1.569   2.713
  407SOL    HW1 1667   1.790   1.557   2.643
  407SOL    HW2 1668   1.862   1.490   2.773
  408SOL     OW 1669   0.221   1.314   3.706
  408SOL    HW1 1670   0.156   1.241   3.685
  408SOL    HW2 1671   0.225   1.328   3.804
  409SOL     OW 1672   0.079   1.240   2.515
  409SOL    HW1 1673   0.078   1.193   2.603
  409SOL    HW2 1674   0.161   1.212   2.464
  410SOL     OW 1675   0.672   1.391   3.486
  410SOL    HW1 1676   0.594   1.341   3.524
  410SOL    HW2 1677   0.669   1.486   3.517
  411SOL     OW 1678   1.824   0.192   3.089
  411SOL    HW1 1679   1.820   0.102   3.133
  411SOL    HW2 1680   1.827   0.181   2.990
  412SOL     OW 1681   0.428   0.424   2.382
  412SOL    HW1 1682   0.458   0.352   2.320
  412SOL    HW2 1683   0.389   0.384   2.465
  413SOL     OW 1684   1.705   1.487   2.966
  413SOL    HW1 1685   1.612   1.462   2.939
  413SOL    HW2 1686   1.731   1.437   3.048
  414SOL     OW 1687   0.317   0.547   3.142
  414SOL    HW1 1688   0.355   0.488   3.214
  414SOL    HW2 1689   0.357   0.521   3.054
  415SOL     OW 1690   0.812   1.586   2.549
  415SOL    HW1 1691   0.844   1.596   2.455
  415SOL    HW2 1692   0.733   1.524   2.551
  416SOL     OW 1693   1.424   0.214   2.974
  416SOL    HW1 1694   1.476   0.149   3.029
  416SOL    HW2 1695   1.375   0.277   3.035
  417SOL     OW 1696   1.001   0.034   3.016
  417SOL    HW1 1697   0.938  -0.038   2.985
  417SOL    HW2 1698   1.094  -0.002   3.016
  418SOL     OW 1699   0.770   1.330   2.163
  418SOL    HW1 1700   0.724   1.243   2.180
  418SOL    HW2 1701   0.861   1.327   2.204
  419SOL     OW 1702   0.618   1.567   3.146
  419SOL    HW1 1703   0.613   1.649   3.203
  419SOL    HW2 1704   0.707   1.564   3.101
  420SOL     OW 1705   1.352   0.052   2.030
  420SOL    HW1 1706   1.387   0.011   1.946
  420SOL    HW2 1707   1.262   0.014   2.050
  421SOL     OW 1708   1.300   0.453   2.553
  421SOL    HW1 1709   1.241   0.533   2.557
  421SOL    HW2 1710   1.315   0.418   2.646
  422SOL     OW 1711   1.593   0.221   2.744
  422SOL    HW1 1712   1.509   0.220   2.798
  422SOL    HW2 1713   1.595   0.304   2.688
  423SOL     OW 1714   0.039   1.077   2.162
  423SOL    HW1 1715   0.138   1.066   2.153
  423SOL    HW2 1716  -0.001   0.991   2.194
  424SOL     OW 1717   0.875   1.646   2.199
  424SOL    HW1 1718   0.798   1.611   2.145
  424SOL    HW2 1719   0.843   1.717   2.261
  425SOL     OW 1720   0.230   0.628   3.837
  425SOL    HW1 1721   0.137   0.626   3.874
  425SOL    HW2 1722   0.231   0.589   3.745
  426SOL     OW 1723   0.225   0.275   4.720
  426SOL    HW1 1724   0.260   0.258   4.812
  426SOL    HW2 1725   0.137   0.230   4.708
  427SOL     OW 1726   0.019   0.368   4.371
  427SOL    HW1 1727  -0.063   0.411   4.410
  427SOL    HW2 1728  -0.009   0.295   4.308
  428SOL     OW 1729   0.569   1.275   4.889
  428SOL    HW1 1730   0.476   1.268   4.852
  428SOL    HW2 1731   0.580   1.364   4.933
  429SOL     OW 1732   1.555   1.511   4.427
  429SOL    HW1 1733   1.498   1.495   4.508
  429SOL    HW2 1734   1.496   1.521   4.347
  430SOL     OW 1735   1.135   0.703   4.441
  430SOL    HW1 1736   1.192   0.781   4.416
  430SOL    HW2 1737   1.075   0.729   4.517
  431SOL     OW 1738   1.755   0.607   3.955
  431SOL    HW1 1739   1.743   0.594   3.856
  431SOL    HW2 1740   1.725   0.526   4.004
  432SOL     OW 1741   0.768   1.144   4.747
  432SOL    HW1 1742   0.690   1.161   4.807
  432SOL    HW2 1743   0.802   1.231   4.711
  433SOL     OW 1744   0.850   0.798   5.547
  433SOL    HW1 1745   0.846   0.874   5.612
  433SOL    HW2 1746   0.872   0.834   5.456
  434SOL     OW 1747   0.685   1.012   4.389
  434SOL    HW1 1748   0.754   0.996   4.459
  434SOL    HW2 1749   0.612   1.069   4.427
  435SOL     OW 1750   0.686   1.161   5.527
  435SOL    HW1 1751   0.746   1.240   5.541
  435SOL    HW2 1752   0.600   1.192   5.486
  436SOL     OW 1753   0.335   1.435   4.785
  436SOL    HW1 1754   0.257   1.404   4.732
  436SOL    HW2 1755   0.393   1.493   4.728
  437SOL     OW 1756   1.460   1.505   5.063
  437SOL    HW1 1757   1.484   1.599   5.089
  437SOL    HW2 1758   1.444   1.451   5.145
  438SOL     OW 1759   0.438   0.392   5.223
  438SOL    HW1 1760   0.520   0.336   5.232
  438SOL    HW2 1761   0.357   0.334   5.227
  439SOL     OW 1762   1.603   0.447   4.461
  439SOL    HW1 1763   1.529   0.493   4.411
  439SOL    HW2 1764   1.654   0.515   4.514
  440SOL     OW 1765   0.231   1.713   4.207
  440SOL    HW1 1766   0.265   1.790   4.261
  440SOL    HW2 1767   0.275   1.713   4.117
  441SOL     OW 1768   1.127   1.341   5.414
  441SOL    HW1 1769   1.174   1.341   5.502
  441SOL    HW2 1770   1.079   1.254   5.403
  442SOL     OW 1771   0.230   1.434   4.262
  442SOL    HW1 1772   0.204   1.530   4.262
  442SOL    HW2 1773   0.159   1.380   4.307
  443SOL     OW 1774   0.240   1.091   4.610
  443SOL    HW1 1775   0.254   1.007   4.662
  443SOL    HW2 1776   0.185   1.155   4.665
  444SOL     OW 1777   0.620   1.786   5.163
  444SOL    HW1 1778   0.528   1.769   5.198
  444SOL    HW2 1779   0.648   1.878   5.189
  445SOL     OW 1780   0.606   0.964   3.847
  445SOL    HW1 1781   0.613   1.048   3.793
  445SOL    HW2 1782   0.652   0.977   3.935
  446SOL     OW 1783   1.594   0.114   5.204
  446SOL    HW1 1784   1.576   0.181   5.132
  446SOL    HW2 1785   1.591   0.160   5.293
  447SOL     OW 1786   0.122   0.643   4.287
  447SOL    HW1 1787   0.077   0.555   4.304
  447SOL    HW2 1788   0.121   0.697   4.371
  448SOL     OW 1789   0.027   1.596   3.841
  448SOL    HW1 1790   0.008   1.500   3.862
  448SOL    HW2 1791  -0.006   1.654   3.916
  449SOL     OW 1792   1.689   0.922   4.336
  449SOL    HW1 1793   1.784   0.893   4.344
  449SOL    HW2 1794   1.681   0.987   4.261
  450SOL     OW 1795   1.641   1.108   4.156
  450SOL    HW1 1796   1.727   1.110   4.104
  450SOL    HW2 1797   1.655   1.155   4.244
  451SOL     OW 1798   0.113   0.737   5.321
  451SOL    HW1 1799   0.201   0.724   5.366
  451SOL    HW2 1800   0.100   0.834   5.299
  452SOL     OW 1801   0.613   1.365   4.450
  452SOL    HW1 1802   0.564   1.278   4.459
  452SOL    HW2 1803   0.590   1.408   4.363
  453SOL     OW 1804   1.293   1.228   5.147
  453SOL    HW1 1805   1.330   1.155   5.089
  453SOL    HW2 1806   1.345   1.233   5.232
  454SOL     OW 1807   0.809   0.004   4.226
  454SOL    HW1 1808   0.849   0.095   4.217
  454SOL    HW2 1809   0.709   0.012   4.232
  455SOL     OW 1810   0.197   0.976   4.988
  455SOL    HW1 1811   0.286   0.931   4.974
  455SOL    HW2 1812   0.124   0.911   4.969
  456SOL     OW 1813   1.525   0.999   3.914
  456SOL    HW1 1814   1.462   0.923   3.927
  456SOL    HW2 1815   1.573   1.017   4.000
  457SOL     OW 1816   1.187   1.792   5.340
  457SOL    HW1 1817   1.211   1.852   5.264
  457SOL    HW2 1818   1.194   1.697   5.310
  458SOL     OW 1819   0.317   0.251   5.525
  458SOL    HW1 1820   0.388   0.322   5.531
  458SOL    HW2 1821   0.229   0.290   5.553
  459SOL     OW 1822   1.466   1.417   4.677
  459SOL    HW1 1823   1.407   1.423   4.757
  459SOL    HW2 1824   1.451   1.329   4.631
  460SOL     OW 1825   1.667   1.714   4.296
  460SOL    HW1 1826   1.626   1.691   4.208
  460SOL    HW2 1827   1.649   1.640   4.361
  461SOL     OW 1828   0.598   0.729   3.994
  461SOL    HW1 1829   0.622   0.798   3.926
  461SOL    HW2 1830   0.520   0.762   4.048
  462SOL     OW 1831   1.281   0.345   4.668
  462SOL    HW1 1832   1.195   0.295   4.655
  462SOL    HW2 1833   1.343   0.291   4.724
  463SOL     OW 1834   1.576   1.662   4.031
  463SOL    HW1 1835   1.665   1.708   4.034
  463SOL    HW2 1836   1.555   1.638   3.936
  464SOL     OW 1837   0.807   0.605   5.189
  464SOL    HW1 1838   0.760   0.602   5.278
  464SOL    HW2 1839   0.756   0.550   5.123
  465SOL     OW 1840   1.394   0.469   5.398
  465SOL    HW1 1841   1.374   0.512   5.486
  465SOL    HW2 1842   1.472   0.407   5.407
  466SOL     OW 1843   0.973   0.890   5.296
  466SOL    HW1 1844   1.019   0.806   5.267
  466SOL    HW2 1845   0.917   0.924   5.221
  467SOL     OW 1846   0.991   0.410   4.966
  467SOL    HW1 1847   0.914   0.444   5.020
  467SOL    HW2 1848   0.957   0.359   4.887
  468SOL     OW 1849   1.041   0.701   4.153
  468SOL    HW1 1850   1.067   0.697   4.249
  468SOL    HW2 1851   0.956   0.650   4.139
  469SOL     OW 1852   0.076   0.811   4.513
  469SOL    HW1 1853   0.175   0.799   4.522
  469SOL    HW2 1854   0.052   0.906   4.534
  470SOL     OW 1855   0.130   1.821   5.295
  470SOL    HW1 1856   0.120   1.806   5.394
  470SOL    HW2 1857   0.044   1.857   5.259
  471SOL     OW 1858   0.865   0.348   3.919
  471SOL    HW1 1859   0.924   0.411   3.870
  471SOL    HW2 1860   0.884   0.254   3.890
  472SOL     OW 1861   1.719   0.585   5.555
  472SOL    HW1 1862   1.693   0.674   5.519
  472SOL    HW2 1863   1.717   0.517   5.482
  473SOL     OW 1864   1.362   1.144   4.269
  473SOL    HW1 1865   1.445   1.115   4.221
  473SOL    HW2 1866   1.313   1.211   4.213
  474SOL     OW 1867   0.550   0.196   4.609
  474SOL    HW1 1868   0.545   0.191   4.709
  474SOL    HW2 1869   0.552   0.292   4.580
  475SOL     OW 1870   1.008   1.456   4.201
  475SOL    HW1 1871   0.962   1.528   4.149
  475SOL    HW2 1872   1.004   1.476   4.299
  476SOL     OW 1873   0.351   1.801   4.577
  476SOL    HW1 1874   0.401   1.715   4.583
  476SOL    HW2 1875   0.416   1.878   4.574
  477SOL     OW 1876   1.795   1.066   4.597
  477SOL    HW1 1877   1.733   1.051   4.521
  477SOL    HW2 1878   1.743   1.077   4.682
  478SOL     OW 1879   1.227   1.550   5.230
  478SOL    HW1 1880   1.233   1.473   5.294
  478SOL    HW2 1881   1.175   1.524   5.150
  479SOL     OW 1882   0.321   0.943   3.966
  479SOL    HW1 1883   0.403   0.982   3.924
  479SOL    HW2 1884   0.294   0.861   3.917
  480SOL     OW 1885   1.458   0.735   4.452
  480SOL    HW1 1886   1.453   0.670   4.527
  480SOL    HW2 1887   1.538   0.794   4.465
  481SOL     OW 1888   0.461   1.266   5.451
  481SOL    HW1 1889   0.411   1.267   5.365
  481SOL    HW2 1890   0.398   1.248   5.527
  482SOL     OW 1891   1.111   1.776   3.961
  482SOL    HW1 1892   1.051   1.714   4.011
  482SOL    HW2 1893   1.142   1.732   3.876
  483SOL     OW 1894   0.202   0.285   5.222
  483SOL    HW1 1895   0.122   0.345   5.209
  483SOL    HW2 1896   0.192   0.236   5.308
  484SOL     OW 1897   1.632   1.377   3.805
  484SOL    HW1 1898   1.600   1.471   3.795
  484SOL    HW2 1899   1.556   1.314   3.793
  485SOL     OW 1900   0.464   1.743   4.047
  485SOL    HW1 1901   0.497   1.782   4.133
  485SOL    HW2 1902   0.540   1.736   3.982
  486SOL     OW 1903   1.400   0.107   4.150
  486SOL    HW1 1904   1.376   0.070   4.060
  486SOL    HW2 1905   1.499   0.123   4.154
  487SOL     OW 1906   0.249   1.785   4.965
  487SOL    HW1 1907   0.306   1.720   5.015
  487SOL    HW2 1908   0.233   1.752   4.872
  488SOL     OW 1909   0.940   1.698   4.628
  488SOL    HW1 1910   1.020   1.641   4.649
  488SOL    HW2 1911   0.891   1.658   4.551
  489SOL     OW 1912   0.382   0.700   4.204
  489SOL    HW1 1913   0.427   0.610   4.201
  489SOL    HW2 1914   0.288   0.689   4.237
  490SOL     OW 1915   1.547   0.222   5.453
  490SOL    HW1 1916   1.542   0.259   5.545
  490SOL    HW2 1917   1.475   0.153   5.441
  491SOL     OW 1918   0.614   0.122   3.841
  491SOL    HW1 1919   0.712   0.100   3.848
  491SOL    HW2 1920   0.583   0.105   3.748
  492SOL     OW 1921   0.781   0.264   5.473
  492SOL    HW1 1922   0.848   0.203   5.516
  492SOL    HW2 1923   0.708   0.283   5.538
  493SOL     OW 1924   0.888   1.514   4.919
  493SOL    HW1 1925   0.865   1.489   4.825
  493SOL    HW2 1926   0.949   1.445   4.958
  494SOL     OW 1927   1.351   0.590   5.157
  494SOL    HW1 1928   1.379   0.547   5.242
  494SOL    HW2 1929   1.376   0.686   5.158
  495SOL     OW 1930   0.803   1.402   4.648
  495SOL    HW1 1931   0.893   1.416   4.606
  495SOL    HW2 1932   0.732   1.404   4.577
  496SOL     OW 1933   0.922   0.503   4.623
  496SOL    HW1 1934   0.897   0.494   4.527
  496SOL    HW2 1935   0.970   0.421   4.654
  497SOL     OW 1936   0.539   0.064   4.236
  497SOL    HW1 1937   0.458   0.065   4.294
  497SOL    HW2 1938   0.542   0.147   4.181
  498SOL     OW 1939   1.434   1.188   3.765
  498SOL    HW1 1940   1.466   1.112   3.822
  498SOL    HW2 1941   1.342   1.215   3.795
  499SOL     OW 1942   0.297   0.035   3.895
  499SOL    HW1 1943   0.346   0.119   3.874
  499SOL    HW2 1944   0.359  -0.030   3.940
  500SOL     OW 1945   0.935   0.236   4.204
  500SOL    HW1 1946   0.887   0.277   4.126
  500SOL    HW2 1947   1.034   0.234   4.185
  501SOL     OW 1948   1.076   0.683   5.188
  501SOL    HW1 1949   0.996   0.622   5.191
  501SOL    HW2 1950   1.157   0.630   5.164
  502SOL     OW 1951   1.227   1.570   4.517
  502SOL    HW1 1952   1.248   1.644   4.452
  502SOL    HW2 1953   1.295   1.570   4.590
  503SOL     OW 1954   0.459   1.152   4.465
  503SOL    HW1 1955   0.388   1.125   4.530
  503SOL    HW2 1956   0.433   1.124   4.372
  504SOL     OW 1957   1.271   1.797   4.315
  504SOL    HW1 1958   1.315   1.861   4.251
  504SOL    HW2 1959   1.221   1.849   4.385
  505SOL     OW 1960   1.032   0.549   3.740
  505SOL    HW1 1961   0.991   0.631   3.701
  505SOL    HW2 1962   1.096   0.575   3.813
  506SOL     OW 1963   0.078   0.556   5.110
  506SOL    HW1 1964   0.170   0.555   5.069
  506SOL    HW2 1965   0.072   0.630   5.177
  507SOL     OW 1966   0.561   0.222   4.871
  507SOL    HW1 1967   0.599   0.138   4.908
  507SOL    HW2 1968   0.473   0.241   4.915
  508SOL     OW 1969   0.866   0.454   4.366
  508SOL    HW1 1970   0.834   0.526   4.304
  508SOL    HW2 1971   0.890   0.373   4.313
  509SOL     OW 1972   1.017   0.039   4.477
  509SOL    HW1 1973   0.945   0.044   4.408
  509SOL    HW2 1974   0.993  -0.030   4.546
  510SOL     OW 1975   1.429   1.173   4.591
  510SOL    HW1 1976   1.374   1.089   4.584
  510SOL    HW2 1977   1.455   1.202   4.499
  511SOL     OW 1978   1.466   0.590   4.716
  511SOL    HW1 1979   1.436   0.495   4.723
  511SOL    HW2 1980   1.539   0.606   4.782
  512SOL     OW 1981   1.857   0.833   4.101
  512SOL    HW1 1982   1.899   0.769   4.165
  512SOL    HW2 1983   1.819   0.782   4.023
  513SOL     OW 1984   0.488   1.385   3.898
  513SOL    HW1 1985   0.401   1.370   3.945
  513SOL    HW2 1986   0.471   1.411   3.803
  514SOL     OW 1987   1.664   1.280   4.381
  514SOL    HW1 1988   1.763   1.288   4.395
  514SOL    HW2 1989   1.619   1.364   4.412
  515SOL     OW 1990   1.390   0.575   3.802
  515SOL    HW1 1991   1.336   0.554   3.883
  515SOL    HW2 1992   1.481   0.534   3.811
  516SOL     OW 1993   0.527   0.256   4.052
  516SOL    HW1 1994   0.554   0.197   3.977
  516SOL    HW2 1995   0.527   0.351   4.021
  517SOL     OW 1996   1.754   1.223   5.312
  517SOL    HW1 1997   1.845   1.184   5.299
  517SOL    HW2 1998   1.762   1.319   5.336
  518SOL     OW 1999   1.064   1.347   5.064
  518SOL    HW1 2000   0.984   1.324   5.119
  518SOL    HW2 2001   1.147   1.321   5.113
  519SOL     OW 2002   1.592   1.629   5.349
  519SOL    HW1 2003   1.619   1.663   5.259
  519SOL    HW2 2004   1.671   1.591   5.395
  520SOL     OW 2005   1.111   1.195   4.824
  520SOL    HW1 2006   1.071   1.239   4.905
  520SOL    HW2 2007   1.070   1.232   4.741
  521SOL     OW 2008   1.638   1.099   4.803
  521SOL    HW1 2009   1.643   1.180   4.862
  521SOL    HW2 2010   1.552   1.101   4.752
  522SOL     OW 2011   0.915   0.089   5.126
  522SOL    HW1 2012   0.940   0.069   5.031
  522SOL    HW2 2013   0.987   0.145   5.168
  523SOL     OW 2014   0.980   1.116   5.443
  523SOL    HW1 2015   0.881   1.122   5.453
  523SOL    HW2 2016   1.003   1.036   5.387
  524SOL     OW 2017   0.705   1.050   4.092
  524SOL    HW1 2018   0.691   1.057   4.191
  524SOL    HW2 2019   0.789   0.999   4.074
  525SOL     OW 2020   0.410   0.813   4.975
  525SOL    HW1 2021   0.496   0.825   5.025
  525SOL    HW2 2022   0.368   0.726   5.002
  526SOL     OW 2023   1.274   0.386   4.986
  526SOL    HW1 2024   1.295   0.460   5.050
  526SOL    HW2 2025   1.185   0.403   4.943
  527SOL     OW 2026   0.064   1.564   5.055
  527SOL    HW1 2027   0.018   1.646   5.021
  527SOL    HW2 2028   0.162   1.583   5.064
  528SOL     OW 2029   0.367   1.100   4.225
  528SOL    HW1 2030   0.360   1.183   4.169
  528SOL    HW2 2031   0.371   1.020   4.165
  529SOL     OW 2032   0.566   0.537   4.589
  529SOL    HW1 2033   0.578   0.603   4.515
  529SOL    HW2 2034   0.612   0.571   4.672
  530SOL     OW 2035   1.252   1.348   4.112
  530SOL    HW1 2036   1.302   1.425   4.152
  530SOL    HW2 2037   1.157   1.350   4.144
  531SOL     OW 2038   1.272   1.445   4.866
  531SOL    HW1 2039   1.319   1.458   4.953
  531SOL    HW2 2040   1.206   1.371   4.875
  532SOL     OW 2041   1.582   0.639   4.196
  532SOL    HW1 2042   1.551   0.700   4.269
  532SOL    HW2 2043   1.632   0.691   4.127
  533SOL     OW 2044   0.354   1.510   5.053
  533SOL    HW1 2045   0.333   1.466   4.966
  533SOL    HW2 2046   0.451   1.536   5.056
  534SOL     OW 2047   0.402   0.751   5.322
  534SOL    HW1 2048   0.470   0.806   5.275
  534SOL    HW2 2049   0.442   0.663   5.349
  535SOL     OW 2050   1.587   0.779   5.394
  535SOL    HW1 2051   1.495   0.817   5.389
  535SOL    HW2 2052   1.647   0.826   5.329
  536SOL     OW 2053   1.013   0.105   5.494
  536SOL    HW1 2054   1.019   0.190   5.442
  536SOL    HW2 2055   1.045   0.029   5.437
  537SOL     OW 2056   0.504   0.050   5.464
  537SOL    HW1 2057   0.462  -0.007   5.394
  537SOL    HW2 2058   0.438   0.119   5.496
  538SOL     OW 2059   0.573   0.870   4.753
  538SOL    HW1 2060   0.617   0.959   4.744
  538SOL    HW2 2061   0.510   0.870   4.830
  539SOL     OW 2062   1.360   0.862   4.769
  539SOL    HW1 2063   1.285   0.862   4.703
  539SOL    HW2 2064   1.397   0.770   4.778
  540SOL     OW 2065   1.209   0.525   3.999
  540SOL    HW1 2066   1.222   0.441   4.053
  540SOL    HW2 2067   1.180   0.599   4.059
  541SOL     OW 2068   0.307   0.213   4.955
  541SOL    HW1 2069   0.284   0.250   5.045
  541SOL    HW2 2070   0.277   0.118   4.949
  542SOL     OW 2071   0.037   1.310   5.006
  542SOL    HW1 2072   0.090   1.261   5.074
  542SOL    HW2 2073   0.059   1.408   5.011
  543SOL     OW 2074   0.732   0.634   4.788
  543SOL    HW1 2075   0.791   0.608   4.712
  543SOL    HW2 2076   0.704   0.730   4.777
  544SOL     OW 2077   1.728   0.935   5.578
  544SOL    HW1 2078   1.682   0.928   5.489
  544SOL    HW2 2079   1.666   0.979   5.644
  545SOL     OW 2080   0.307   0.063   4.342
  545SOL    HW1 2081   0.296   0.157   4.375
  545SOL    HW2 2082   0.302   0.000   4.419
  546SOL     OW 2083   1.622   0.367   4.098
  546SOL    HW1 2084   1.624   0.291   4.162
  546SOL    HW2 2085   1.574   0.444   4.138
  547SOL     OW 2086   1.023   0.766   4.690
  547SOL    HW1 2087   1.038   0.787   4.786
  547SOL    HW2 2088   0.993   0.671   4.681
  548SOL     OW 2089   0.980   1.573   5.424
  548SOL    HW1 2090   0.960   1.617   5.336
  548SOL    HW2 2091   1.019   1.482   5.408
  549SOL     OW 2092   1.859   1.518   5.329
  549SOL    HW1 2093   1.873   1.545   5.234
  549SOL    HW2 2094   1.942   1.540   5.382
  550SOL     OW 2095   0.350   0.898   5.528
  550SOL    HW1 2096   0.426   0.942   5.576
  550SOL    HW2 2097   0.385   0.851   5.446
  551SOL     OW 2098   1.540   0.274   3.849
  551SOL    HW1 2099   1.479   0.199   3.872
  551SOL    HW2 2100   1.562   0.326   3.932
  552SOL     OW 2101   1.303   0.838   3.766
  552SOL    HW1 2102   1.337   0.745   3.781
  552SOL    HW2 2103   1.321   0.865   3.671
  553SOL     OW 2104   1.068   1.333   4.573
  553SOL    HW1 2105   1.075   1.249   4.518
  553SOL    HW2 2106   1.130   1.402   4.537
  554SOL     OW 2107   0.319   0.810   4.673
  554SOL    HW1 2108   0.412   0.846   4.678
  554SOL    HW2 2109   0.313   0.725   4.725
  555SOL     OW 2110   0.339   0.509   4.730
  555SOL    HW1 2111   0.287   0.426   4.713
  555SOL    HW2 2112   0.416   0.514   4.666
  556SOL     OW 2113   1.138   0.380   5.402
  556SOL    HW1 2114   1.093   0.443   5.466
  556SOL    HW2 2115   1.231   0.411   5.385
  557SOL     OW 2116   1.160   0.207   5.201
  557SOL    HW1 2117   1.160   0.271   5.278
  557SOL    HW2 2118   1.188   0.255   5.118
  558SOL     OW 2119   0.008   1.326   3.924
  558SOL    HW1 2120  -0.085   1.347   3.893
  558SOL    HW2 2121   0.018   1.227   3.937
  559SOL     OW 2122   0.088   1.801   4.651
  559SOL    HW1 2123   0.046   1.715   4.624
  559SOL    HW2 2124   0.182   1.804   4.617
  560SOL     OW 2125   0.504   1.568   4.634
  560SOL    HW1 2126   0.570   1.642   4.643
  560SOL    HW2 2127   0.548   1.489   4.592
  561SOL     OW 2128   1.002   0.796   4.962
  561SOL    HW1 2129   1.043   0.764   5.048
  561SOL    HW2 2130   0.906   0.769   4.959
  562SOL     OW 2131   0.040   0.544   4.838
  562SOL    HW1 2132   0.125   0.511   4.797
  562SOL    HW2 2133   0.053   0.559   4.936
  563SOL     OW 2134   0.189   0.520   5.446
  563SOL    HW1 2135   0.248   0.480   5.376
  563SOL    HW2 2136   0.131   0.591   5.405
  564SOL     OW 2137   1.369   0.950   5.384
  564SOL    HW1 2138   1.408   1.039   5.404
  564SOL    HW2 2139   1.379   0.930   5.287
  565SOL     OW 2140   0.815   0.572   4.049
  565SOL    HW1 2141   0.822   0.483   4.003
  565SOL    HW2 2142   0.721   0.606   4.041
  566SOL     OW 2143   1.657   0.604   4.930
  566SOL    HW1 2144   1.619   0.535   4.992
  566SOL    HW2 2145   1.739   0.568   4.886
  567SOL     OW 2146   0.252   1.564   5.468
  567SOL    HW1 2147   0.222   1.621   5.544
  567SOL    HW2 2148   0.245   1.467   5.494
  568SOL     OW 2149   0.671   0.464   4.993
  568SOL    HW1 2150   0.637   0.375   4.963
  568SOL    HW2 2151   0.697   0.518   4.913
  569SOL     OW 2152   0.930   1.678   5.189
  569SOL    HW1 2153   0.906   1.660   5.094
  569SOL    HW2 2154   0.960   1.772   5.199
  570SOL     OW 2155   0.473   0.500   3.915
  570SOL    HW1 2156   0.534   0.580   3.919
  570SOL    HW2 2157   0.378   0.531   3.922
  571SOL     OW 2158   0.159   1.137   5.190
  571SOL    HW1 2159   0.181   1.076   5.266
  571SOL    HW2 2160   0.169   1.088   5.104
  572SOL     OW 2161   1.347   1.059   4.958
  572SOL    HW1 2162   1.371   0.996   4.884
  572SOL    HW2 2163   1.257   1.099   4.940
  573SOL     OW 2164   1.302   0.855   4.033
  573SOL    HW1 2165   1.216   0.824   4.075
  573SOL    HW2 2166   1.298   0.841   3.934
  574SOL     OW 2167   1.759   1.747   4.878
  574SOL    HW1 2168   1.820   1.777   4.805
  574SOL    HW2 2169   1.721   1.658   4.856
  575SOL     OW 2170   1.252   1.731   4.852
  575SOL    HW1 2171   1.336   1.736   4.798
  575SOL    HW2 2172   1.229   1.635   4.870
  576SOL     OW 2173   0.083   1.258   4.746
  576SOL    HW1 2174   0.078   1.257   4.846
  576SOL    HW2 2175   0.000   1.217   4.708
  577SOL     OW 2176   0.688   1.662   5.440
  577SOL    HW1 2177   0.632   1.743   5.449
  577SOL    HW2 2178   0.740   1.666   5.354
  578SOL     OW 2179   1.726   0.135   4.247
  578SOL    HW1 2180   1.799   0.118   4.180
  578SOL    HW2 2181   1.695   0.048   4.285
  579SOL     OW 2182   1.388   1.573   4.201
  579SOL    HW1 2183   1.455   1.585   4.127
  579SOL    HW2 2184   1.348   1.662   4.224
  580SOL     OW 2185   0.130   1.794   5.575
  580SOL    HW1 2186   0.089   1.720   5.628
  580SOL    HW2 2187   0.194   1.845   5.633
  581SOL     OW 2188   1.280   0.927   4.396
  581SOL    HW1 2189   1.340   0.846   4.398
  581SOL    HW2 2190   1.320   0.996   4.336
  582SOL     OW 2191   0.830   1.273   5.146
  582SOL    HW1 2192   0.825   1.306   5.241
  582SOL    HW2 2193   0.744   1.292   5.100
  583SOL     OW 2194   0.672   1.616   3.878
  583SOL    HW1 2195   0.681   1.626   3.779
  583SOL    HW2 2196   0.632   1.527   3.899
  584SOL     OW 2197   1.650   1.720   5.118
  584SOL    HW1 2198   1.703   1.730   5.034
  584SOL    HW2 2199   1.623   1.810   5.152
  585SOL     OW 2200   1.841   0.175   4.687
  585SOL    HW1 2201   1.880   0.090   4.651
  585SOL    HW2 2202   1.743   0.177   4.668
  586SOL     OW 2203   0.263   0.326   4.444
  586SOL    HW1 2204   0.184   0.377   4.410
  586SOL    HW2 2205   0.254   0.311   4.542
  587SOL     OW 2206   1.194   1.612   3.755
  587SOL    HW1 2207   1.200   1.519   3.792
  587SOL    HW2 2208   1.135   1.612   3.675
  588SOL     OW 2209   0.822   1.002   5.096
  588SOL    HW1 2210   0.862   1.001   5.004
  588SOL    HW2 2211   0.832   1.094   5.136
  589SOL     OW 2212   0.916   0.910   4.015
  589SOL    HW1 2213   0.979   0.948   3.947
  589SOL    HW2 2214   0.956   0.827   4.054
  590SOL     OW 2215   1.504   1.607   3.768
  590SOL    HW1 2216   1.412   1.644   3.775
  590SOL    HW2 2217   1.542   1.627   3.678
  591SOL     OW 2218   0.372   1.288   5.214
  591SOL    HW1 2219   0.359   1.381   5.180
  591SOL    HW2 2220   0.288   1.236   5.201
  592SOL     OW 2221   1.614   1.292   5.013
  592SOL    HW1 2222   1.674   1.295   5.093
  592SOL    HW2 2223   1.539   1.356   5.026
  593SOL     OW 2224   1.039   1.098   4.420
  593SOL    HW1 2225   0.969   1.051   4.474
  593SOL    HW2 2226   1.098   1.030   4.377
  594SOL     OW 2227   1.014   0.236   4.695
  594SOL    HW1 2228   1.006   0.200   4.602
  594SOL    HW2 2229   1.012   0.160   4.760
  595SOL     OW 2230   0.590   1.487   4.215
  595SOL    HW1 2231   0.632   1.429   4.145
  595SOL    HW2 2232   0.546   1.566   4.171
  596SOL     OW 2233   1.709   0.385   5.105
  596SOL    HW1 2234   1.782   0.454   5.109
  596SOL    HW2 2235   1.737   0.310   5.046
  597SOL     OW 2236   0.255   1.348   4.014
  597SOL    HW1 2237   0.159   1.349   3.987
  597SOL    HW2 2238   0.267   1.401   4.098
  598SOL     OW 2239   0.105   1.013   5.450
  598SOL    HW1 2240   0.028   0.980   5.504
  598SOL    HW2 2241   0.190   0.983   5.492
  599SOL     OW 2242   0.672   0.203   5.213
  599SOL    HW1 2243   0.762   0.187   5.173
  599SOL    HW2 2244   0.680   0.208   5.312
  600SOL     OW 2245   0.075   0.345   3.757
  600SOL    HW1 2246  -0.017   0.317   3.728
  600SOL    HW2 2247   0.106   0.422   3.701
  601SOL     OW 2248   1.440   0.856   5.122
  601SOL    HW1 2249   1.383   0.908   5.059
  601SOL    HW2 2250   1.536   0.868   5.098
  602SOL     OW 2251   0.072   0.166   4.042
  602SOL    HW1 2252   0.055   0.249   3.988
  602SOL    HW2 2253   0.162   0.129   4.020
  603SOL     OW 2254   1.183   1.335   3.843
  603SOL    HW1 2255   1.084   1.324   3.845
  603SOL    HW2 2256   1.217   1.350   3.936
  604SOL     OW 2257   0.613   0.842   5.155
  604SOL    HW1 2258   0.669   0.923   5.138
  604SOL    HW2 2259   0.672   0.762   5.158
  605SOL     OW 2260   1.493   1.767   4.683
  605SOL    HW1 2261   1.526   1.831   4.614
  605SOL    HW2 2262   1.559   1.761   4.758
  606SOL     OW 2263   0.716   0.565   5.432
  606SOL    HW1 2264   0.735   0.630   5.506
  606SOL    HW2 2265   0.776   0.485   5.441
  607SOL     OW 2266   1.450   1.220   5.357
  607SOL    HW1 2267   1.441   1.210   5.456
  607SOL    HW2 2268   1.546   1.213   5.331
  608SOL     OW 2269   0.390   1.741   5.284
  608SOL    HW1 2270   0.299   1.782   5.282
  608SOL    HW2 2271   0.383   1.647   5.316
  609SOL     OW 2272   1.674   0.883   4.978
  609SOL    HW1 2273   1.647   0.794   4.941
  609SOL    HW2 2274   1.675   0.951   4.905
  610SOL     OW 2275   1.225   0.325   4.173
  610SOL    HW1 2276   1.290   0.251   4.162
  610SOL    HW2 2277   1.245   0.375   4.257
  611SOL     OW 2278   0.594   0.745   4.376
  611SOL    HW1 2279   0.644   0.830   4.357
  611SOL    HW2 2280   0.506   0.747   4.328
  612SOL     OW 2281   1.777   0.342   5.366
  612SOL    HW1 2282   1.760   0.373   5.272
  612SOL    HW2 2283   1.693   0.305   5.404
  613SOL     OW 2284   1.730   0.934   5.241
  613SOL    HW1 2285   1.768   1.025   5.256
  613SOL    HW2 2286   1.722   0.917   5.142
  614SOL     OW 2287   0.859   1.374   3.740
  614SOL    HW1 2288   0.813   1.389   3.828
  614SOL    HW2 2289   0.903   1.459   3.710
  615SOL     OW 2290   0.661   1.790   4.677
  615SOL    HW1 2291   0.615   1.878   4.664
  615SOL    HW2 2292   0.760   1.802   4.670
  616SOL     OW 2293   0.859   0.956   4.585
  616SOL    HW1 2294   0.913   0.887   4.633
  616SOL    HW2 2295   0.827   1.025   4.651
  617SOL     OW 2296   1.083   0.984   3.811
  617SOL    HW1 2297   1.060   1.037   3.729
  617SOL    HW2 2298   1.164   0.928   3.792
  618SOL     OW 2299   1.861   1.569   4.575
  618SOL    HW1 2300   1.790   1.557   4.505
  618SOL    HW2 2301   1.862   1.490   4.635
  619SOL     OW 2302   0.221   1.314   5.568
  619SOL    HW1 2303   0.156   1.241   5.547
  619SOL    HW2 2304   0.225   1.328   5.666
  620SOL     OW 2305   0.079   1.240   4.377
  620SOL    HW1 2306   0.078   1.193   4.465
  620SOL    HW2 2307   0.161   1.212   4.326
  621SOL     OW 2308   0.672   1.391   5.348
  621SOL    HW1 2309   0.594   1.341   5.386
  621SOL    HW2 2310   0.669   1.486   5.379
  622SOL     OW 2311   1.824   0.192   4.951
  622SOL    HW1 2312   1.820   0.102   4.995
  622SOL    HW2 2313   1.827   0.181   4.852
  623SOL     OW 2314   0.428   0.424   4.244
  623SOL    HW1 2315   0.458   0.352   4.182
  623SOL    HW2 2316   0.389   0.384   4.327
  624SOL     OW 2317   1.705   1.487   4.828
  624SOL    HW1 2318   1.612   1.462   4.801
  624SOL    HW2 2319   1.731   1.437   4.910
  625SOL     OW 2320   0.317   0.547   5.004
  625SOL    HW1 2321   0.355   0.488   5.076
  625SOL    HW2 2322   0.357   0.521   4.916
  626SOL     OW 2323   0.812   1.586   4.411
  626SOL    HW1 2324   0.844   1.596   4.317
  626SOL    HW2 2325   0.733   1.524   4.413
  627SOL     OW 2326   1.424   0.214   4.836
  627SOL    HW1 2327   1.476   0.149   4.891
  627SOL    HW2 2328   1.375   0.277   4.897
  628SOL     OW 2329   1.001   0.034   4.878
  628SOL    HW1 2330   0.938  -0.038   4.847
  628SOL    HW2 2331   1.094  -0.002   4.878
  629SOL     OW 2332   0.770   1.330   4.025
  629SOL    HW1 2333   0.724   1.243   4.042
  629SOL    HW2 2334   0.861   1.327   4.066
  630SOL     OW 2335   0.618   1.567   5.008
  630SOL    HW1 2336   0.613   1.649   5.065
  630SOL    HW2 2337   0.707   1.564   4.963
  631SOL     OW 2338   1.352   0.052   3.892
  631SOL    HW1 2339   1.387   0.011   3.808
  631SOL    HW2 2340   1.262   0.014   3.912
  632SOL     OW 2341   1.300   0.453   4.415
  632SOL    HW1 2342   1.241   0.533   4.419
  632SOL    HW2 2343   1.315   0.418   4.508
  633SOL     OW 2344   1.593   0.221   4.606
  633SOL    HW1 2345   1.509   0.220   4.660
  633SOL    HW2 2346   1.595   0.304   4.550
  634SOL     OW 2347   0.039   1.077   4.024
  634SOL    HW1 2348   0.138   1.066   4.015
  634SOL    HW2 2349  -0.001   0.991   4.056
  635SOL     OW 2350   0.875   1.646   4.061
  635SOL    HW1 2351   0.798   1.611   4.007
  635SOL    HW2 2352   0.843   1.717   4.123
  636SOL     OW 2353   0.230   0.628   5.699
  636SOL    HW1 2354   0.137   0.626   5.736
  636SOL    HW2 2355   0.231   0.589   5.607
  637SOL     OW 2356   0.225   0.275   6.582
  637SOL    HW1 2357   0.260   0.258   6.674
  637SOL    HW2 2358   0.137   0.230   6.570
  638SOL     OW 2359   0.019   0.368   6.233
  638SOL    HW1 2360  -0.063   0.411   6.272
  638SOL    HW2 2361  -0.009   0.295   6.170
  639SOL     OW 2362   0.569   1.275   6.751
  639SOL    HW1 2363   0.476   1.268   6.714
  639SOL    HW2 2364   0.580   1.364   6.795
  640SOL     OW 2365   1.135   0.703   6.303
  640SOL    HW1 2366   1.192   0.781   6.278
  640SOL    HW2 2367   1.075   0.729   6.379
  641SOL     OW 2368   1.755   0.607   5.817
  641SOL    HW1 2369   1.743   0.594   5.718
  641SOL    HW2 2370   1.725   0.526   5.866
  642SOL     OW 2371   0.768   1.144   6.609
  642SOL    HW1 2372   0.690   1.161   6.669
  642SOL    HW2 2373   0.802   1.231   6.573
  643SOL     OW 2374   0.850   0.798   7.409
  643SOL    HW1 2375   0.846   0.874   7.474
  643SOL    HW2 2376   0.872   0.834   7.318
  644SOL     OW 2377   0.685   1.012   6.251
  644SOL    HW1 2378   0.754   0.996   6.321
  644SOL    HW2 2379   0.612   1.069   6.289
  645SOL     OW 2380   0.686   1.161   7.389
  645SOL    HW1 2381   0.746   1.240   7.403
  645SOL    HW2 2382   0.600   1.192   7.348
  646SOL     OW 2383   0.335   1.435   6.647
  646SOL    HW1 2384   0.257   1.404   6.594
  646SOL    HW2 2385   0.393   1.493   6.590
  647SOL     OW 2386   0.438   0.392   7.085
  647SOL    HW1 2387   0.520   0.336   7.094
  647SOL    HW2 2388   0.357   0.334   7.089
  648SOL     OW 2389   1.603   0.447   6.323
  648SOL    HW1 2390   1.529   0.493   6.273
  648SOL    HW2 2391   1.654   0.515   6.376
  649SOL     OW 2392   0.231   1.713   6.069
  649SOL    HW1 2393   0.265   1.790   6.123
  649SOL    HW2 2394   0.275   1.713   5.979
  650SOL     OW 2395   1.127   1.341   7.276
  650SOL    HW1 2396   1.174   1.341   7.364
  650SOL    HW2 2397   1.079   1.254   7.265
  651SOL     OW 2398   0.230   1.434   6.124
  651SOL    HW1 2399   0.204   1.530   6.124
  651SOL    HW2 2400   0.159   1.380   6.169
  652SOL     OW 2401   0.240   1.091   6.472
  652SOL    HW1 2402   0.254   1.007   6.524
  652SOL    HW2 2403   0.185   1.155   6.527
  653SOL     OW 2404   0.620   1.786   7.025
  653SOL    HW1 2405   0.528   1.769   7.060
  653SOL    HW2 2406   0.648   1.878   7.051
  654SOL     OW 2407   0.606   0.964   5.709
  654SOL    HW1 2408   0.613   1.048   5.655
  654SOL    HW2 2409   0.652   0.977   5.797
  655SOL     OW 2410   1.594   0.114   7.066
  655SOL    HW1 2411   1.576   0.181   6.994
  655SOL    HW2 2412   1.591   0.160   7.155
  656SOL     OW 2413   0.122   0.643   6.149
  656SOL    HW1 2414   0.077   0.555   6.166
  656SOL    HW2 2415   0.121   0.697   6.233
  657SOL     OW 2416   0.027   1.596   5.703
  657SOL    HW1 2417   0.008   1.500   5.724
  657SOL    HW2 2418  -0.006   1.654   5.778
  658SOL     OW 2419   1.689   0.922   6.198
  658SOL    HW1 2420   1.784   0.893   6.206
  658SOL    HW2 2421   1.681   0.987   6.123
  659SOL     OW 2422   1.641   1.108   6.018
  659SOL    HW1 2423   1.727   1.110   5.966
  659SOL    HW2 2424   1.655   1.155   6.106
  660SOL     OW 2425   0.113   0.737   7.183
  660SOL    HW1 2426   0.201   0.724   7.228
  660SOL    HW2 2427   0.100   0.834   7.161
  661SOL     OW 2428   0.613   1.365   6.312
  661SOL    HW1 2429   0.564   1.278   6.321
  661SOL    HW2 2430   0.590   1.408   6.225
  662SOL     OW 2431   1.293   1.228   7.009
  662SOL    HW1 2432   1.330   1.155   6.951
  662SOL    HW2 2433   1.345   1.233   7.094
  663SOL     OW 2434   0.809   0.004   6.088
  663SOL    HW1 2435   0.849   0.095   6.079
  663SOL    HW2 2436   0.709   0.012   6.094
  664SOL     OW 2437   0.197   0.976   6.850
  664SOL    HW1 2438   0.286   0.931   6.836
  664SOL    HW2 2439   0.124   0.911   6.831
  665SOL     OW 2440   1.525   0.999   5.776
  665SOL    HW1 2441   1.462   0.923   5.789
  665SOL    HW2 2442   1.573   1.017   5.862
  666SOL     OW 2443   0.317   0.251   7.387
  666SOL    HW1 2444   0.388   0.322   7.393
  666SOL    HW2 2445   0.229   0.290   7.415
  667SOL     OW 2446   1.667   1.714   6.158
  667SOL    HW1 2447   1.626   1.691   6.070
  667SOL    HW2 2448   1.649   1.640   6.223
  668SOL     OW 2449   0.598   0.729   5.856
  668SOL    HW1 2450   0.622   0.798   5.788
  668SOL    HW2 2451   0.520   0.762   5.910
  669SOL     OW 2452   1.281   0.345   6.530
  669SOL    HW1 2453   1.195   0.295   6.517
  669SOL    HW2 2454   1.343   0.291   6.586
  670SOL     OW 2455   1.576   1.662   5.893
  670SOL    HW1 2456   1.665   1.708   5.896
  670SOL    HW2 2457   1.555   1.638   5.798
  671SOL     OW 2458   0.807   0.605   7.051
  671SOL    HW1 2459   0.760   0.602   7.140
  671SOL    HW2 2460   0.756   0.550   6.985
  672SOL     OW 2461   1.394   0.469   7.260
  672SOL    HW1 2462   1.374   0.512   7.348
  672SOL    HW2 2463   1.472   0.407   7.269
  673SOL     OW 2464   0.973   0.890   7.158
  673SOL    HW1 2465   1.019   0.806   7.129
  673SOL    HW2 2466   0.917   0.924   7.083
  674SOL     OW 2467   0.991   0.410   6.828
  674SOL    HW1 2468   0.914   0.444   6.882
  674SOL    HW2 2469   0.957   0.359   6.749
  675SOL     OW 2470   1.041   0.701   6.015
  675SOL    HW1 2471   1.067   0.697   6.111
  675SOL    HW2 2472   0.956   0.650   6.001
  676SOL     OW 2473   0.076   0.811   6.375
  676SOL    HW1 2474   0.175   0.799   6.384
  676SOL    HW2 2475   0.052   0.906   6.396
  677SOL     OW 2476   0.130   1.821   7.157
  677SOL    HW1 2477   0.120   1.806   7.256
  677SOL    HW2 2478   0.044   1.857   7.121
  678SOL     OW 2479   0.865   0.348   5.781
  678SOL    HW1 2480   0.924   0.411   5.732
  678SOL    HW2 2481   0.884   0.254   5.752
  679SOL     OW 2482   1.719   0.585   7.417
  679SOL    HW1 2483   1.693   0.674   7.381
  679SOL    HW2 2484   1.717   0.517   7.344
  680SOL     OW 2485   1.362   1.144   6.131
  680SOL    HW1 2486   1.445   1.115   6.083
  680SOL    HW2 2487   1.313   1.211   6.075
  681SOL     OW 2488   0.550   0.196   6.471
  681SOL    HW1 2489   0.545   0.191   6.571
  681SOL    HW2 2490   0.552   0.292   6.442
  682SOL     OW 2491   1.008   1.456   6.063
  682SOL    HW1 2492   0.962   1.528   6.011
  682SOL    HW2 2493   1.004   1.476   6.161
  683SOL     OW 2494   0.351   1.801   6.439
  683SOL    HW1 2495   0.401   1.715   6.445
  683SOL    HW2 2496   0.416   1.878   6.436
  684SOL     OW 2497   1.795   1.066   6.459
  684SOL    HW1 2498   1.733   1.051   6.383
  684SOL    HW2 2499   1.743   1.077   6.544
  685SOL     OW 2500   1.227   1.550   7.092
  685SOL    HW1 2501   1.233   1.473   7.156
  685SOL    HW2 2502   1.175   1.524   7.012
  686SOL     OW 2503   0.321   0.943   5.828
  686SOL    HW1 2504   0.403   0.982   5.786
  686SOL    HW2 2505   0.294   0.861   5.779
  687SOL     OW 2506   1.458   0.735   6.314
  687SOL    HW1 2507   1.453   0.670   6.389
  687SOL    HW2 2508   1.538   0.794   6.327
  688SOL     OW 2509   0.461   1.266   7.313
  688SOL    HW1 2510   0.411   1.267   7.227
  688SOL    HW2 2511   0.398   1.248   7.389
  689SOL     OW 2512   1.111   1.776   5.823
  689SOL    HW1 2513   1.051   1.714   5.873
  689SOL    HW2 2514   1.142   1.732   5.738
  690SOL     OW 2515   0.202   0.285   7.084
  690SOL    HW1 2516   0.122   0.345   7.071
  690SOL    HW2 2517   0.192   0.236   7.170
  691SOL     OW 2518   1.632   1.377   5.667
  691SOL    HW1 2519   1.600   1.471   5.657
  691SOL    HW2 2520   1.556   1.314   5.655
  692SOL     OW 2521   0.464   1.743   5.909
  692SOL    HW1 2522   0.497   1.782   5.995
  692SOL    HW2 2523   0.540   1.736   5.844
  693SOL     OW 2524   1.400   0.107   6.012
  693SOL    HW1 2525   1.376   0.070   5.922
  693SOL    HW2 2526   1.499   0.123   6.016
  694SOL     OW 2527   0.249   1.785   6.827
  694SOL    HW1 2528   0.306   1.720   6.877
  694SOL    HW2 2529   0.233   1.752   6.734
  695SOL     OW 2530   0.940   1.698   6.490
  695SOL    HW1 2531   1.020   1.641   6.511
  695SOL    HW2 2532   0.891   1.658   6.413
  696SOL     OW 2533   0.382   0.700   6.066
  696SOL    HW1 2534   0.427   0.610   6.063
  696SOL    HW2 2535   0.288   0.689   6.099
  697SOL     OW 2536   1.547   0.222   7.315
  697SOL    HW1 2537   1.542   0.259   7.407
  697SOL    HW2 2538   1.475   0.153   7.303
  698SOL     OW 2539   0.614   0.122   5.703
  698SOL    HW1 2540   0.712   0.100   5.710
  698SOL    HW2 2541   0.583   0.105   5.610
  699SOL     OW 2542   0.781   0.264   7.335
  699SOL    HW1 2543   0.848   0.203   7.378
  699SOL    HW2 2544   0.708   0.283   7.400
  700SOL     OW 2545   0.888   1.514   6.781
  700SOL    HW1 2546   0.865   1.489   6.687
  700SOL    HW2 2547   0.949   1.445   6.820
  701SOL     OW 2548   1.351   0.590   7.019
  701SOL    HW1 2549   1.379   0.547   7.104
  701SOL    HW2 2550   1.376   0.686   7.020
  702SOL     OW 2551   0.803   1.402   6.510
  702SOL    HW1 2552   0.893   1.416   6.468
  702SOL    HW2 2553   0.732   1.404   6.439
  703SOL     OW 2554   0.922   0.503   6.485
  703SOL    HW1 2555   0.897   0.494   6.389
  703SOL    HW2 2556   0.970   0.421   6.516
  704SOL     OW 2557   0.539   0.064   6.098
  704SOL    HW1 2558   0.458   0.065   6.156
  704SOL    HW2 2559   0.542   0.147   6.043
  705SOL     OW 2560   1.434   1.188   5.627
  705SOL    HW1 2561   1.466   1.112   5.684
  705SOL    HW2 2562   1.342   1.215   5.657
  706SOL     OW 2563   0.297   0.035   5.757
  706SOL    HW1 2564   0.346   0.119   5.736
  706SOL    HW2 2565   0.359  -0.030   5.802
  707SOL     OW 2566   0.935   0.236   6.066
  707SOL    HW1 2567   0.887   0.277   5.988
  707SOL    HW2 2568   1.034   0.234   6.047
  708SOL     OW 2569   1.076   0.683   7.050
  708SOL    HW1 2570   0.996   0.622   7.053
  708SOL    HW2 2571   1.157   0.630   7.026
  709SOL     OW 2572   1.227   1.570   6.379
  709SOL    HW1 2573   1.248   1.644   6.314
  709SOL    HW2 2574   1.295   1.570   6.452
  710SOL     OW 2575   0.459   1.152   6.327
  710SOL    HW1 2576   0.388   1.125   6.392
  710SOL    HW2 2577   0.433   1.124   6.234
  711SOL     OW 2578   1.271   1.797   6.177
  711SOL    HW1 2579   1.315   1.861   6.113
  711SOL    HW2 2580   1.221   1.849   6.247
  712SOL     OW 2581   1.032   0.549   5.602
  712SOL    HW1 2582   0.991   0.631   5.563
  712SOL    HW2 2583   1.096   0.575   5.675
  713SOL     OW 2584   0.078   0.556   6.972
  713SOL    HW1 2585   0.170   0.555   6.931
  713SOL    HW2 2586   0.072   0.630   7.039
  714SOL     OW 2587   0.561   0.222   6.733
  714SOL    HW1 2588   0.599   0.138   6.770
  714SOL    HW2 2589   0.473   0.241   6.777
  715SOL     OW 2590   0.866   0.454   6.228
  715SOL    HW1 2591   0.834   0.526   6.166
  715SOL    HW2 2592   0.890   0.373   6.175
  716SOL     OW 2593   1.017   0.039   6.339
  716SOL    HW1 2594   0.945   0.044   6.270
  716SOL    HW2 2595   0.993  -0.030   6.408
  717SOL     OW 2596   1.429   1.173   6.453
  717SOL    HW1 2597   1.374   1.089   6.446
  717SOL    HW2 2598   1.455   1.202   6.361
  718SOL     OW 2599   1.466   0.590   6.578
  718SOL    HW1 2600   1.436   0.495   6.585
  718SOL    HW2 2601   1.539   0.606   6.644
  719SOL     OW 2602   1.857   0.833   5.963
  719SOL    HW1 2603   1.899   0.769   6.027
  719SOL    HW2 2604   1.819   0.782   5.885
  720SOL     OW 2605   0.488   1.385   5.760
  720SOL    HW1 2606   0.401   1.370   5.807
  720SOL    HW2 2607   0.471   1.411   5.665
  721SOL     OW 2608   1.664   1.280   6.243
  721SOL    HW1 2609   1.763   1.288   6.257
  721SOL    HW2 2610   1.619   1.364   6.274
  722SOL     OW 2611   1.390   0.575   5.664
  722SOL    HW1 2612   1.336   0.554   5.745
  722SOL    HW2 2613   1.481   0.534   5.673
  723SOL     OW 2614   0.527   0.256   5.914
  723SOL    HW1 2615   0.554   0.197   5.839
  723SOL    HW2 2616   0.527   0.351   5.883
  724SOL     OW 2617   1.064   1.347   6.926
  724SOL    HW1 2618   0.984   1.324   6.981
  724SOL    HW2 2619   1.147   1.321   6.975
  725SOL     OW 2620   1.111   1.195   6.686
  725SOL    HW1 2621   1.071   1.239   6.767
  725SOL    HW2 2622   1.070   1.232   6.603
  726SOL     OW 2623   1.638   1.099   6.665
  726SOL    HW1 2624   1.643   1.180   6.724
  726SOL    HW2 2625   1.552   1.101   6.614
  727SOL     OW 2626   0.915   0.089   6.988
  727SOL    HW1 2627   0.940   0.069   6.893
  727SOL    HW2 2628   0.987   0.145   7.030
  728SOL     OW 2629   0.980   1.116   7.305
  728SOL    HW1 2630   0.881   1.122   7.315
  728SOL    HW2 2631   1.003   1.036   7.249
  729SOL     OW 2632   0.705   1.050   5.954
  729SOL    HW1 2633   0.691   1.057   6.053
  729SOL    HW2 2634   0.789   0.999   5.936
  730SOL     OW 2635   0.410   0.813   6.837
  730SOL    HW1 2636   0.496   0.825   6.887
  730SOL    HW2 2637   0.368   0.726   6.864
  731SOL     OW 2638   1.274   0.386   6.848
  731SOL    HW1 2639   1.295   0.460   6.912
  731SOL    HW2 2640   1.185   0.403   6.805
  732SOL     OW 2641   0.064   1.564   6.917
  732SOL    HW1 2642   0.018   1.646   6.883
  732SOL    HW2 2643   0.162   1.583   6.926
  733SOL     OW 2644   0.367   1.100   6.087
  733SOL    HW1 2645   0.360   1.183   6.031
  733SOL    HW2 2646   0.371   1.020   6.027
  734SOL     OW 2647   0.566   0.537   6.451
  734SOL    HW1 2648   0.578   0.603   6.377
  734SOL    HW2 2649   0.612   0.571   6.534
  735SOL     OW 2650   1.252   1.348   5.974
  735SOL    HW1 2651   1.302   1.425   6.014
  735SOL    HW2 2652   1.157   1.350   6.006
  736SOL     OW 2653   1.582   0.639   6.058
  736SOL    HW1 2654   1.551   0.700   6.131
  736SOL    HW2 2655   1.632   0.691   5.989
  737SOL     OW 2656   0.354   1.510   6.915
  737SOL    HW1 2657   0.333   1.466   6.828
  737SOL    HW2 2658   0.451   1.536   6.918
  738SOL     OW 2659   0.402   0.751   7.184
  738SOL    HW1 2660   0.470   0.806   7.137
  738SOL    HW2 2661   0.442   0.663   7.211
  739SOL     OW 2662   1.587   0.779   7.256
  739SOL    HW1 2663   1.495   0.817   7.251
  739SOL    HW2 2664   1.647   0.826   7.191
  740SOL     OW 2665   1.013   0.105   7.356
  740SOL    HW1 2666   1.019   0.190   7.304
  740SOL    HW2 2667   1.045   0.029   7.299
  741SOL     OW 2668   0.504   0.050   7.326
  741SOL    HW1 2669   0.462  -0.007   7.256
  741SOL    HW2 2670   0.438   0.119   7.358
  742SOL     OW 2671   0.573   0.870   6.615
  742SOL    HW1 2672   0.617   0.959   6.606
  742SOL    HW2 2673   0.510   0.870   6.692
  743SOL     OW 2674   1.360   0.862   6.631
  743SOL    HW1 2675   1.285   0.862   6.565
  743SOL    HW2 2676   1.397   0.770   6.640
  744SOL     OW 2677   1.209   0.525   5.861
  744SOL    HW1 2678   1.222   0.441   5.915
  744SOL    HW2 2679   1.180   0.599   5.921
  745SOL     OW 2680   0.307   0.213   6.817
  745SOL    HW1 2681   0.284   0.250   6.907
  745SOL    HW2 2682   0.277   0.118   6.811
  746SOL     OW 2683   0.037   1.310   6.868
  746SOL    HW1 2684   0.090   1.261   6.936
  746SOL    HW2 2685   0.059   1.408   6.873
  747SOL     OW 2686   0.732   0.634   6.650
  747SOL    HW1 2687   0.791   0.608   6.574
  747SOL    HW2 2688   0.704   0.730   6.639
  748SOL     OW 2689   1.728   0.935   7.440
  748SOL    HW1 2690   1.682   0.928   7.351
  748SOL    HW2 2691   1.666   0.979   7.506
  749SOL     OW 2692   0.307   0.063   6.204
  749SOL    HW1 2693   0.296   0.157   6.237
  749SOL    HW2 2694   0.302   0.000   6.281
  750SOL     OW 2695   1.622   0.367   5.960
  750SOL    HW1 2696   1.624   0.291   6.024
  750SOL    HW2 2697   1.574   0.444   6.000
  751SOL     OW 2698   1.023   0.766   6.552
  751SOL    HW1 2699   1.038   0.787   6.648
  751SOL    HW2 2700   0.993   0.671   6.543
  752SOL     OW 2701   0.980   1.573   7.286
  752SOL    HW1 2702   0.960   1.617   7.198
  752SOL    HW2 2703   1.019   1.482   7.270
  753SOL     OW 2704   0.350   0.898   7.390
  753SOL    HW1 2705   0.426   0.942   7.438
  753SOL    HW2 2706   0.385   0.851   7.308
  754SOL     OW 2707   1.540   0.274   5.711
  754SOL    HW1 2708   1.479   0.199   5.734
  754SOL    HW2 2709   1.562   0.326   5.794
  755SOL     OW 2710   1.303   0.838   5.628
  755SOL    HW1 2711   1.337   0.745   5.643
  755SOL    HW2 2712   1.321   0.865   5.533
  756SOL     OW 2713   1.068   1.333   6.435
  756SOL    HW1 2714   1.075   1.249   6.380
  756SOL    HW2 2715   1.130   1.402   6.399
  757SOL     OW 2716   0.319   0.810   6.535
  757SOL    HW1 2717   0.412   0.846   6.540
  757SOL    HW2 2718   0.313   0.725   6.587
  758SOL     OW 2719   0.339   0.509   6.592
  758SOL    HW1 2720   0.287   0.426   6.575
  758SOL    HW2 2721   0.416   0.514   6.528
  759SOL     OW 2722   1.138   0.380   7.264
  759SOL    HW1 2723   1.093   0.443   7.328
  759SOL    HW2 2724   1.231   0.411   7.247
  760SOL     OW 2725   1.160   0.207   7.063
  760SOL    HW1 2726   1.160   0.271   7.140
  760SOL    HW2 2727   1.188   0.255   6.980
  761SOL     OW 2728   0.008   1.326   5.786
  761SOL    HW1 2729  -0.085   1.347   5.755
  761SOL    HW2 2730   0.018   1.227   5.799
  762SOL     OW 2731   0.088   1.801   6.513
  762SOL    HW1 2732   0.046   1.715   6.486
  762SOL    HW2 2733   0.182   1.804   6.479
  763SOL     OW 2734   0.504   1.568   6.496
  763SOL    HW1 2735   0.570   1.642   6.505
  763SOL    HW2 2736   0.548   1.489   6.454
  764SOL     OW 2737   1.002   0.796   6.824
  764SOL    HW1 2738   1.043   0.764   6.910
  764SOL    HW2 2739   0.906   0.769   6.821
  765SOL     OW 2740   0.040   0.544   6.700
  765SOL    HW1 2741   0.125   0.511   6.659
  765SOL    HW2 2742   0.053   0.559   6.798
  766SOL     OW 2743   0.189   0.520   7.308
  766SOL    HW1 2744   0.248   0.480   7.238
  766SOL    HW2 2745   0.131   0.591   7.267
  767SOL     OW 2746   1.369   0.950   7.246
  767SOL    HW1 2747   1.408   1.039   7.266
  767SOL    HW2 2748   1.379   0.930   7.149
  768SOL     OW 2749   0.815   0.572   5.911
  768SOL    HW1 2750   0.822   0.483   5.865
  768SOL    HW2 2751   0.721   0.606   5.903
  769SOL     OW 2752   1.657   0.604   6.792
  769SOL    HW1 2753   1.619   0.535   6.854
  769SOL    HW2 2754   1.739   0.568   6.748
  770SOL     OW 2755   0.252   1.564   7.330
  770SOL    HW1 2756   0.222   1.621   7.406
  770SOL    HW2 2757   0.245   1.467   7.356
  771SOL     OW 2758   0.671   0.464   6.855
  771SOL    HW1 2759   0.637   0.375   6.825
  771SOL    HW2 2760   0.697   0.518   6.775
  772SOL     OW 2761   0.930   1.678   7.051
  772SOL    HW1 2762   0.906   1.660   6.956
  772SOL    HW2 2763   0.960   1.772   7.061
  773SOL     OW 2764   0.473   0.500   5.777
  773SOL    HW1 2765   0.534   0.580   5.781
  773SOL    HW2 2766   0.378   0.531   5.784
  774SOL     OW 2767   0.159   1.137   7.052
  774SOL    HW1 2768   0.181   1.076   7.128
  774SOL    HW2 2769   0.169   1.088   6.966
  775SOL     OW 2770   1.347   1.059   6.820
  775SOL    HW1 2771   1.371   0.996   6.746
  775SOL    HW2 2772   1.257   1.099   6.802
  776SOL     OW 2773   1.302   0.855   5.895
  776SOL    HW1 2774   1.216   0.824   5.937
  776SOL    HW2 2775   1.298   0.841   5.796
  777SOL     OW 2776   0.083   1.258   6.608
  777SOL    HW1 2777   0.078   1.257   6.708
  777SOL    HW2 2778   0.000   1.217   6.570
  778SOL     OW 2779   0.688   1.662   7.302
  778SOL    HW1 2780   0.632   1.743   7.311
  778SOL    HW2 2781   0.740   1.666   7.216
  779SOL     OW 2782   1.726   0.135   6.109
  779SOL    HW1 2783   1.799   0.118   6.042
  779SOL    HW2 2784   1.695   0.048   6.147
  780SOL     OW 2785   1.388   1.573   6.063
  780SOL    HW1 2786   1.455   1.585   5.989
  780SOL    HW2 2787   1.348   1.662   6.086
  781SOL     OW 2788   0.130   1.794   7.437
  781SOL    HW1 2789   0.089   1.720   7.490
  781SOL    HW2 2790   0.194   1.845   7.495
  782SOL     OW 2791   1.280   0.927   6.258
  782SOL    HW1 2792   1.340   0.846   6.260
  782SOL    HW2 2793   1.320   0.996   6.198
  783SOL     OW 2794   0.830   1.273   7.008
  783SOL    HW1 2795   0.825   1.306   7.103
  783SOL    HW2 2796   0.744   1.292   6.962
  784SOL     OW 2797   0.672   1.616   5.740
  784SOL    HW1 2798   0.681   1.626   5.641
  784SOL    HW2 2799   0.632   1.527   5.761
  785SOL     OW 2800   1.841   0.175   6.549
  785SOL    HW1 2801   1.880   0.090   6.513
  785SOL    HW2 2802   1.743   0.177   6.530
  786SOL     OW 2803   0.263   0.326   6.306
  786SOL    HW1 2804   0.184   0.377   6.272
  786SOL    HW2 2805   0.254   0.311   6.404
  787SOL     OW 2806   1.194   1.612   5.617
  787SOL    HW1 2807   1.200   1.519   5.654
  787SOL    HW2 2808   1.135   1.612   5.537
  788SOL     OW 2809   0.822   1.002   6.958
  788SOL    HW1 2810   0.862   1.001   6.866
  788SOL    HW2 2811   0.832   1.094   6.998
  789SOL     OW 2812   0.916   0.910   5.877
  789SOL    HW1 2813   0.979   0.948   5.809
  789SOL    HW2 2814   0.956   0.827   5.916
  790SOL     OW 2815   1.504   1.607   5.630
  790SOL    HW1 2816   1.412   1.644   5.637
  790SOL    HW2 2817   1.542   1.627   5.540
  791SOL     OW 2818   0.372   1.288   7.076
  791SOL    HW1 2819   0.359   1.381   7.042
  791SOL    HW2 2820   0.288   1.236   7.063
  792SOL     OW 2821   1.039   1.098   6.282
  792SOL    HW1 2822   0.969   1.051   6.336
  792SOL    HW2 2823   1.098   1.030   6.239
  793SOL     OW 2824   1.014   0.236   6.557
  793SOL    HW1 2825   1.006   0.200   6.464
  793SOL    HW2 2826   1.012   0.160   6.622
  794SOL     OW 2827   0.590   1.487   6.077
  794SOL    HW1 2828   0.632   1.429   6.007
  794SOL    HW2 2829   0.546   1.566   6.033
  795SOL     OW 2830   1.709   0.385   6.967
  795SOL    HW1 2831   1.782   0.454   6.971
  795SOL    HW2 2832   1.737   0.310   6.908
  796SOL     OW 2833   0.255   1.348   5.876
  796SOL    HW1 2834   0.159   1.349   5.849
  796SOL    HW2 2835   0.267   1.401   5.960
  797SOL     OW 2836   0.105   1.013   7.312
  797SOL    HW1 2837   0.028   0.980   7.366
  797SOL    HW2 2838   0.190   0.983   7.354
  798SOL     OW 2839   0.672   0.203   7.075
  798SOL    HW1 2840   0.762   0.187   7.035
  798SOL    HW2 2841   0.680   0.208   7.174
  799SOL     OW 2842   0.075   0.345   5.619
  799SOL    HW1 2843  -0.017   0.317   5.590
  799SOL    HW2 2844   0.106   0.422   5.563
  800SOL     OW 2845   1.440   0.856   6.984
  800SOL    HW1 2846   1.383   0.908   6.921
  800SOL    HW2 2847   1.536   0.868   6.960
  801SOL     OW 2848   0.072   0.166   5.904
  801SOL    HW1 2849   0.055   0.249   5.850
  801SOL    HW2 2850   0.162   0.129   5.882
  802SOL     OW 2851   1.183   1.335   5.705
  802SOL    HW1 2852   1.084   1.324   5.707
  802SOL    HW2 2853   1.217   1.350   5.798
  803SOL     OW 2854   0.613   0.842   7.017
  803SOL    HW1 2855   0.669   0.923   7.000
  803SOL    HW2 2856   0.672   0.762   7.020
  804SOL     OW 2857   0.716   0.565   7.294
  804SOL    HW1 2858   0.735   0.630   7.368
  804SOL    HW2 2859   0.776   0.485   7.303
  805SOL     OW 2860   1.450   1.220   7.219
  805SOL    HW1 2861   1.441   1.210   7.318
  805SOL    HW2 2862   1.546   1.213   7.193
  806SOL     OW 2863   0.390   1.741   7.146
  806SOL    HW1 2864   0.299   1.782   7.144
  806SOL    HW2 2865   0.383   1.647   7.178
  807SOL     OW 2866   1.674   0.883   6.840
  807SOL    HW1 2867   1.647   0.794   6.803
  807SOL    HW2 2868   1.675   0.951   6.767
  808SOL     OW 2869   1.225   0.325   6.035
  808SOL    HW1 2870   1.290   0.251   6.024
  808SOL    HW2 2871   1.245   0.375   6.119
  809SOL     OW 2872   0.594   0.745   6.238
  809SOL    HW1 2873   0.644   0.830   6.219
  809SOL    HW2 2874   0.506   0.747   6.190
  810SOL     OW 2875   1.777   0.342   7.228
  810SOL    HW1 2876   1.760   0.373   7.134
  810SOL    HW2 2877   1.693   0.305   7.266
  811SOL     OW 2878   1.730   0.934   7.103
  811SOL    HW1 2879   1.768   1.025   7.118
  811SOL    HW2 2880   1.722   0.917   7.004
  812SOL     OW 2881   0.859   1.374   5.602
  812SOL    HW1 2882   0.813   1.389   5.690
  812SOL    HW2 2883   0.903   1.459   5.572
  813SOL     OW 2884   0.661   1.790   6.539
  813SOL    HW1 2885   0.615   1.878   6.526
  813SOL    HW2 2886   0.760   1.802   6.532
  814SOL     OW 2887   0.859   0.956   6.447
  814SOL    HW1 2888   0.913   0.887   6.495
  814SOL    HW2 2889   0.827   1.025   6.513
  815SOL     OW 2890   1.083   0.984   5.673
  815SOL    HW1 2891   1.060   1.037   5.591
  815SOL    HW2 2892   1.164   0.928   5.654
  816SOL     OW 2893   0.221   1.314   7.430
  816SOL    HW1 2894   0.156   1.241   7.409
  816SOL    HW2 2895   0.225   1.328   7.528
  817SOL     OW 2896   0.079   1.240   6.239
  817SOL    HW1 2897   0.078   1.193   6.327
  817SOL    HW2 2898   0.161   1.212   6.188
  818SOL     OW 2899   0.672   1.391   7.210
  818SOL    HW1 2900   0.594   1.341   7.248
  818SOL    HW2 2901   0.669   1.486   7.241
  819SOL     OW 2902   1.824   0.192   6.813
  819SOL    HW1 2903   1.820   0.102   6.857
  819SOL    HW2 2904   1.827   0.181   6.714
  820SOL     OW 2905   0.428   0.424   6.106
  820SOL    HW1 2906   0.458   0.352   6.044
  820SOL    HW2 2907   0.389   0.384   6.189
  821SOL     OW 2908   0.317   0.547   6.866
  821SOL    HW1 2909   0.355   0.488   6.938
  821SOL    HW2 2910   0.357   0.521   6.778
  822SOL     OW 2911   0.812   1.586   6.273
  822SOL    HW1 2912   0.844   1.596   6.179
  822SOL    HW2 2913   0.733   1.524   6.275
  823SOL     OW 2914   1.424   0.214   6.698
  823SOL    HW1 2915   1.476   0.149   6.753
  823SOL    HW2 2916   1.375   0.277   6.759
  824SOL     OW 2917   1.001   0.034   6.740
  824SOL    HW1 2918   0.938  -0.038   6.709
  824SOL    HW2 2919   1.094  -0.002   6.740
  825SOL     OW 2920   0.770   1.330   5.887
  825SOL    HW1 2921   0.724   1.243   5.904
  825SOL    HW2 2922   0.861   1.327   5.928
  826SOL     OW 2923   0.618   1.567   6.870
  826SOL    HW1 2924   0.613   1.649   6.927
  826SOL    HW2 2925   0.707   1.564   6.825
  827SOL     OW 2926   1.352   0.052   5.754
  827SOL    HW1 2927   1.387   0.011   5.670
  827SOL    HW2 2928   1.262   0.014   5.774
  828SOL     OW 2929   1.300   0.453   6.277
  828SOL    HW1 2930   1.241   0.533   6.281
  828SOL    HW2 2931   1.315   0.418   6.370
  829SOL     OW 2932   1.593   0.221   6.468
  829SOL    HW1 2933   1.509   0.220   6.522
  829SOL    HW2 2934   1.595   0.304   6.412
  830SOL     OW 2935   0.039   1.077   5.886
  830SOL    HW1 2936   0.138   1.066   5.877
  830SOL    HW2 2937  -0.001   0.991   5.918
  831SOL     OW 2938   0.875   1.646   5.923
  831SOL    HW1 2939   0.798   1.611   5.869
  831SOL    HW2 2940   0.843   1.717   5.985
  832SOL     OW 2941   0.230   0.628   7.561
  832SOL    HW1 2942   0.137   0.626   7.598
  832SOL    HW2 2943   0.231   0.589   7.469
  833SOL     OW 2944   0.225   0.275   8.444
  833SOL    HW1 2945   0.260   0.258   8.536
  833SOL    HW2 2946   0.137   0.230   8.432
  834SOL     OW 2947   0.019   0.368   8.095
  834SOL    HW1 2948  -0.063   0.411   8.134
  834SOL    HW2 2949  -0.009   0.295   8.032
  835SOL     OW 2950   0.569   1.275   8.613
  835SOL    HW1 2951   0.476   1.268   8.576
  835SOL    HW2 2952   0.580   1.364   8.657
  836SOL     OW 2953   1.555   1.511   8.151
  836SOL    HW1 2954   1.498   1.495   8.232
  836SOL    HW2 2955   1.496   1.521   8.071
  837SOL     OW 2956   1.135   0.703   8.165
  837SOL    HW1 2957   1.192   0.781   8.140
  837SOL    HW2 2958   1.075   0.729   8.241
  838SOL     OW 2959   1.755   0.607   7.679
  838SOL    HW1 2960   1.743   0.594   7.580
  838SOL    HW2 2961   1.725   0.526   7.728
  839SOL     OW 2962   0.768   1.144   8.471
  839SOL    HW1 2963   0.690   1.161   8.531
  839SOL    HW2 2964   0.802   1.231   8.435
  840SOL     OW 2965   0.850   0.798   9.271
  840SOL    HW1 2966   0.846   0.874   9.336
  840SOL    HW2 2967   0.872   0.834   9.180
  841SOL     OW 2968   0.685   1.012   8.113
  841SOL    HW1 2969   0.754   0.996   8.183
  841SOL    HW2 2970   0.612   1.069   8.151
  842SOL     OW 2971   0.686   1.161   9.251
  842SOL    HW1 2972   0.746   1.240   9.265
  842SOL    HW2 2973   0.600   1.192   9.210
  843SOL     OW 2974   0.335   1.435   8.509
  843SOL    HW1 2975   0.257   1.404   8.456
  843SOL    HW2 2976   0.393   1.493   8.452
  844SOL     OW 2977   1.460   1.505   8.787
  844SOL    HW1 2978   1.484   1.599   8.813
  844SOL    HW2 2979   1.444   1.451   8.869
  845SOL     OW 2980   0.438   0.392   8.947
  845SOL    HW1 2981   0.520   0.336   8.956
  845SOL    HW2 2982   0.357   0.334   8.951
  846SOL     OW 2983   1.603   0.447   8.185
  846SOL    HW1 2984   1.529   0.493   8.135
  846SOL    HW2 2985   1.654   0.515   8.238
  847SOL     OW 2986   0.231   1.713   7.931
  847SOL    HW1 2987   0.265   1.790   7.985
  847SOL    HW2 2988   0.275   1.713   7.841
  848SOL     OW 2989   1.127   1.341   9.138
  848SOL    HW1 2990   1.174   1.341   9.226
  848SOL    HW2 2991   1.079   1.254   9.127
  849SOL     OW 2992   0.230   1.434   7.986
  849SOL    HW1 2993   0.204   1.530   7.986
  849SOL    HW2 2994   0.159   1.380   8.031
  850SOL     OW 2995   0.240   1.091   8.334
  850SOL    HW1 2996   0.254   1.007   8.386
  850SOL    HW2 2997   0.185   1.155   8.389
  851SOL     OW 2998   0.620   1.786   8.887
  851SOL    HW1 2999   0.528   1.769   8.922
  851SOL    HW2 3000   0.648   1.878   8.913
  852SOL     OW 3001   0.606   0.964   7.571
  852SOL    HW1 3002   0.613   1.048   7.517
  852SOL    HW2 3003   0.652   0.977   7.659
  853SOL     OW 3004   1.594   0.114   8.928
  853SOL    HW1 3005   1.576   0.181   8.856
  853SOL    HW2 3006   1.591   0.160   9.017
  854SOL     OW 3007   0.122   0.643   8.011
  854SOL    HW1 3008   0.077   0.555   8.028
  854SOL    HW2 3009   0.121   0.697   8.095
  855SOL     OW 3010   0.027   1.596   7.565
  855SOL    HW1 3011   0.008   1.500   7.586
  855SOL    HW2 3012  -0.006   1.654   7.640
  856SOL     OW 3013   1.689   0.922   8.060
  856SOL    HW1 3014   1.784   0.893   8.068
  856SOL    HW2 3015   1.681   0.987   7.985
  857SOL     OW 3016   1.641   1.108   7.880
  857SOL    HW1 3017   1.727   1.110   7.828
  857SOL    HW2 3018   1.655   1.155   7.968
  858SOL     OW 3019   0.113   0.737   9.045
  858SOL    HW1 3020   0.201   0.724   9.090
  858SOL    HW2 3021   0.100   0.834   9.023
  859SOL     OW 3022   0.613   1.365   8.174
  859SOL    HW1 3023   0.564   1.278   8.183
  859SOL    HW2 3024   0.590   1.408   8.087
  860SOL     OW 3025   1.293   1.228   8.871
  860SOL    HW1 3026   1.330   1.155   8.813
  860SOL    HW2 3027   1.345   1.233   8.956
  861SOL     OW 3028   0.809   0.004   7.950
  861SOL    HW1 3029   0.849   0.095   7.941
  861SOL    HW2 3030   0.709   0.012   7.956
  862SOL     OW 3031   0.197   0.976   8.712
  862SOL    HW1 3032   0.286   0.931   8.698
  862SOL    HW2 3033   0.124   0.911   8.693
  863SOL     OW 3034   1.525   0.999   7.638
  863SOL    HW1 3035   1.462   0.923   7.651
  863SOL    HW2 3036   1.573   1.017   7.724
  864SOL     OW 3037   1.187   1.792   9.064
  864SOL    HW1 3038   1.211   1.852   8.988
  864SOL    HW2 3039   1.194   1.697   9.034
  865SOL     OW 3040   0.317   0.251   9.249
  865SOL    HW1 3041   0.388   0.322   9.255
  865SOL    HW2 3042   0.229   0.290   9.277
  866SOL     OW 3043   1.466   1.417   8.401
  866SOL    HW1 3044   1.407   1.423   8.481
  866SOL    HW2 3045   1.451   1.329   8.355
  867SOL     OW 3046   1.667   1.714   8.020
  867SOL    HW1 3047   1.626   1.691   7.932
  867SOL    HW2 3048   1.649   1.640   8.085
  868SOL     OW 3049   0.598   0.729   7.718
  868SOL    HW1 3050   0.622   0.798   7.650
  868SOL    HW2 3051   0.520   0.762   7.772
  869SOL     OW 3052   1.281   0.345   8.392
  869SOL    HW1 3053   1.195   0.295   8.379
  869SOL    HW2 3054   1.343   0.291   8.448
  870SOL     OW 3055   1.576   1.662   7.755
  870SOL    HW1 3056   1.665   1.708   7.758
  870SOL    HW2 3057   1.555   1.638   7.660
  871SOL     OW 3058   0.807   0.605   8.913
  871SOL    HW1 3059   0.760   0.602   9.002
  871SOL    HW2 3060   0.756   0.550   8.847
  872SOL     OW 3061   1.394   0.469   9.122
  872SOL    HW1 3062   1.374   0.512   9.210
  872SOL    HW2 3063   1.472   0.407   9.131
  873SOL     OW 3064   0.973   0.890   9.020
  873SOL    HW1 3065   1.019   0.806   8.991
  873SOL    HW2 3066   0.917   0.924   8.945
  874SOL     OW 3067   0.991   0.410   8.690
  874SOL    HW1 3068   0.914   0.444   8.744
  874SOL    HW2 3069   0.957   0.359   8.611
  875SOL     OW 3070   1.041   0.701   7.877
  875SOL    HW1 3071   1.067   0.697   7.973
  875SOL    HW2 3072   0.956   0.650   7.863
  876SOL     OW 3073   0.076   0.811   8.237
  876SOL    HW1 3074   0.175   0.799   8.246
  876SOL    HW2 3075   0.052   0.906   8.258
  877SOL     OW 3076   0.130   1.821   9.019
  877SOL    HW1 3077   0.120   1.806   9.118
  877SOL    HW2 3078   0.044   1.857   8.983
  878SOL     OW 3079   0.865   0.348   7.643
  878SOL    HW1 3080   0.924   0.411   7.594
  878SOL    HW2 3081   0.884   0.254   7.614
  879SOL     OW 3082   1.719   0.585   9.279
  879SOL    HW1 3083   1.693   0.674   9.243
  879SOL    HW2 3084   1.717   0.517   9.206
  880SOL     OW 3085   1.362   1.144   7.993
  880SOL    HW1 3086   1.445   1.115   7.945
  880SOL    HW2 3087   1.313   1.211   7.937
  881SOL     OW 3088   0.550   0.196   8.333
  881SOL    HW1 3089   0.545   0.191   8.433
  881SOL    HW2 3090   0.552   0.292   8.304
  882SOL     OW 3091   1.008   1.456   7.925
  882SOL    HW1 3092   0.962   1.528   7.873
  882SOL    HW2 3093   1.004   1.476   8.023
  883SOL     OW 3094   0.351   1.801   8.301
  883SOL    HW1 3095   0.401   1.715   8.307
  883SOL    HW2 3096   0.416   1.878   8.298
  884SOL     OW 3097   1.795   1.066   8.321
  884SOL    HW1 3098   1.733   1.051   8.245
  884SOL    HW2 3099   1.743   1.077   8.406
  885SOL     OW 3100   1.227   1.550   8.954
  885SOL    HW1 3101   1.233   1.473   9.018
  885SOL    HW2 3102   1.175   1.524   8.874
  886SOL     OW 3103   0.321   0.943   7.690
  886SOL    HW1 3104   0.403   0.982   7.648
  886SOL    HW2 3105   0.294   0.861   7.641
  887SOL     OW 3106   1.458   0.735   8.176
  887SOL    HW1 3107   1.453   0.670   8.251
  887SOL    HW2 3108   1.538   0.794   8.189
  888SOL     OW 3109   0.461   1.266   9.175
  888SOL    HW1 3110   0.411   1.267   9.089
  888SOL    HW2 3111   0.398   1.248   9.251
  889SOL     OW 3112   1.111   1.776   7.685
  889SOL    HW1 3113   1.051   1.714   7.735
  889SOL    HW2 3114   1.142   1.732   7.600
  890SOL     OW 3115   0.202   0.285   8.946
  890SOL    HW1 3116   0.122   0.345   8.933
  890SOL    HW2 3117   0.192   0.236   9.032
  891SOL     OW 3118   1.632   1.377   7.529
  891SOL    HW1 3119   1.600   1.471   7.519
  891SOL    HW2 3120   1.556   1.314   7.517
  892SOL     OW 3121   0.464   1.743   7.771
  892SOL    HW1 3122   0.497   1.782   7.857
  892SOL    HW2 3123   0.540   1.736   7.706
  893SOL     OW 3124   1.400   0.107   7.874
  893SOL    HW1 3125   1.376   0.070   7.784
  893SOL    HW2 3126   1.499   0.123   7.878
  894SOL     OW 3127   0.249   1.785   8.689
  894SOL    HW1 3128   0.306   1.720   8.739
  894SOL    HW2 3129   0.233   1.752   8.596
  895SOL     OW 3130   0.940   1.698   8.352
  895SOL    HW1 3131   1.020   1.641   8.373
  895SOL    HW2 3132   0.891   1.658   8.275
  896SOL     OW 3133   0.382   0.700   7.928
  896SOL    HW1 3134   0.427   0.610   7.925
  896SOL    HW2 3135   0.288   0.689   7.961
  897SOL     OW 3136   1.547   0.222   9.177
  897SOL    HW1 3137   1.542   0.259   9.269
  897SOL    HW2 3138   1.475   0.153   9.165
  898SOL     OW 3139   0.614   0.122   7.565
  898SOL    HW1 3140   0.712   0.100   7.572
  898SOL    HW2 3141   0.583   0.105   7.472
  899SOL     OW 3142   0.781   0.264   9.197
  899SOL    HW1 3143   0.848   0.203   9.240
  899SOL    HW2 3144   0.708   0.283   9.262
  900SOL     OW 3145   0.888   1.514   8.643
  900SOL    HW1 3146   0.865   1.489   8.549
  900SOL    HW2 3147   0.949   1.445   8.682
  901SOL     OW 3148   1.351   0.590   8.881
  901SOL    HW1 3149   1.379   0.547   8.966
  901SOL    HW2 3150   1.376   0.686   8.882
  902SOL     OW 3151   0.803   1.402   8.372
  902SOL    HW1 3152   0.893   1.416   8.330
  902SOL    HW2 3153   0.732   1.404   8.301
  903SOL     OW 3154   0.922   0.503   8.347
  903SOL    HW1 3155   0.897   0.494   8.251
  903SOL    HW2 3156   0.970   0.421   8.378
  904SOL     OW 3157   0.539   0.064   7.960
  904SOL    HW1 3158   0.458   0.065   8.018
  904SOL    HW2 3159   0.542   0.147   7.905
  905SOL     OW 3160   1.434   1.188   7.489
  905SOL    HW1 3161   1.466   1.112   7.546
  905SOL    HW2 3162   1.342   1.215   7.519
  906SOL     OW 3163   0.297   0.035   7.619
  906SOL    HW1 3164   0.346   0.119   7.598
  906SOL    HW2 3165   0.359  -0.030   7.664
  907SOL     OW 3166   0.935   0.236   7.928
  907SOL    HW1 3167   0.887   0.277   7.850
  907SOL    HW2 3168   1.034   0.234   7.909
  908SOL     OW 3169   1.076   0.683   8.912
  908SOL    HW1 3170   0.996   0.622   8.915
  908SOL    HW2 3171   1.157   0.630   8.888
  909SOL     OW 3172   1.227   1.570   8.241
  909SOL    HW1 3173   1.248   1.644   8.176
  909SOL    HW2 3174   1.295   1.570   8.314
  910SOL     OW 3175   0.459   1.152   8.189
  910SOL    HW1 3176   0.388   1.125   8.254
  910SOL    HW2 3177   0.433   1.124   8.096
  911SOL     OW 3178   1.271   1.797   8.039
  911SOL    HW1 3179   1.315   1.861   7.975
  911SOL    HW2 3180   1.221   1.849   8.109
  912SOL     OW 3181   1.032   0.549   7.464
  912SOL    HW1 3182   0.991   0.631   7.425
  912SOL    HW2 3183   1.096   0.575   7.537
  913SOL     OW 3184   0.078   0.556   8.834
  913SOL    HW1 3185   0.170   0.555   8.793
  913SOL    HW2 3186   0.072   0.630   8.901
  914SOL     OW 3187   0.561   0.222   8.595
  914SOL    HW1 3188   0.599   0.138   8.632
  914SOL    HW2 3189   0.473   0.241   8.639
  915SOL     OW 3190   0.866   0.454   8.090
  915SOL    HW1 3191   0.834   0.526   8.028
  915SOL    HW2 3192   0.890   0.373   8.037
  916SOL     OW 3193   1.017   0.039   8.201
  916SOL    HW1 3194   0.945   0.044   8.132
  916SOL    HW2 3195   0.993  -0.030   8.270
  917SOL     OW 3196   1.429   1.173   8.315
  917SOL    HW1 3197   1.374   1.089   8.308
  917SOL    HW2 3198   1.455   1.202   8.223
  918SOL     OW 3199   1.466   0.590   8.440
  918SOL    HW1 3200   1.436   0.495   8.447
  918SOL    HW2 3201   1.539   0.606   8.506
  919SOL     OW 3202   1.857   0.833   7.825
  919SOL    HW1 3203   1.899   0.769   7.889
  919SOL    HW2 3204   1.819   0.782   7.747
  920SOL     OW 3205   0.488   1.385   7.622
  920SOL    HW1 3206   0.401   1.370   7.669
  920SOL    HW2 3207   0.471   1.411   7.527
  921SOL     OW 3208   1.664   1.280   8.105
  921SOL    HW1 3209   1.763   1.288   8.119
  921SOL    HW2 3210   1.619   1.364   8.136
  922SOL     OW 3211   1.390   0.575   7.526
  922SOL    HW1 3212   1.336   0.554   7.607
  922SOL    HW2 3213   1.481   0.534   7.535
  923SOL     OW 3214   0.527   0.256   7.776
  923SOL    HW1 3215   0.554   0.197   7.701
  923SOL    HW2 3216   0.527   0.351   7.745
  924SOL     OW 3217   1.754   1.223   9.036
  924SOL    HW1 3218   1.845   1.184   9.023
  924SOL    HW2 3219   1.762   1.319   9.060
  925SOL     OW 3220   1.064   1.347   8.788
  925SOL    HW1 3221   0.984   1.324   8.843
  925SOL    HW2 3222   1.147   1.321   8.837
  926SOL     OW 3223   1.592   1.629   9.073
  926SOL    HW1 3224   1.619   1.663   8.983
  926SOL    HW2 3225   1.671   1.591   9.119
  927SOL     OW 3226   1.111   1.195   8.548
  927SOL    HW1 3227   1.071   1.239   8.629
  927SOL    HW2 3228   1.070   1.232   8.465
  928SOL     OW 3229   1.638   1.099   8.527
  928SOL    HW1 3230   1.643   1.180   8.586
  928SOL    HW2 3231   1.552   1.101   8.476
  929SOL     OW 3232   0.915   0.089   8.850
  929SOL    HW1 3233   0.940   0.069   8.755
  929SOL    HW2 3234   0.987   0.145   8.892
  930SOL     OW 3235   0.980   1.116   9.167
  930SOL    HW1 3236   0.881   1.122   9.177
  930SOL    HW2 3237   1.003   1.036   9.111
  931SOL     OW 3238   0.705   1.050   7.816
  931SOL    HW1 3239   0.691   1.057   7.915
  931SOL    HW2 3240   0.789   0.999   7.798
  932SOL     OW 3241   0.410   0.813   8.699
  932SOL    HW1 3242   0.496   0.825   8.749
  932SOL    HW2 3243   0.368   0.726   8.726
  933SOL     OW 3244   1.274   0.386   8.710
  933SOL    HW1 3245   1.295   0.460   8.774
  933SOL    HW2 3246   1.185   0.403   8.667
  934SOL     OW 3247   0.064   1.564   8.779
  934SOL    HW1 3248   0.018   1.646   8.745
  934SOL    HW2 3249   0.162   1.583   8.788
  935SOL     OW 3250   0.367   1.100   7.949
  935SOL    HW1 3251   0.360   1.183   7.893
  935SOL    HW2 3252   0.371   1.020   7.889
  936SOL     OW 3253   0.566   0.537   8.313
  936SOL    HW1 3254   0.578   0.603   8.239
  936SOL    HW2 3255   0.612   0.571   8.396
  937SOL     OW 3256   1.252   1.348   7.836
  937SOL    HW1 3257   1.302   1.425   7.876
  937SOL    HW2 3258   1.157   1.350   7.868
  938SOL     OW 3259   1.272   1.445   8.590
  938SOL    HW1 3260   1.319   1.458   8.677
  938SOL    HW2 3261   1.206   1.371   8.599
  939SOL     OW 3262   1.582   0.639   7.920
  939SOL    HW1 3263   1.551   0.700   7.993
  939SOL    HW2 3264   1.632   0.691   7.851
  940SOL     OW 3265   0.354   1.510   8.777
  940SOL    HW1 3266   0.333   1.466   8.690
  940SOL    HW2 3267   0.451   1.536   8.780
  941SOL     OW 3268   0.402   0.751   9.046
  941SOL    HW1 3269   0.470   0.806   8.999
  941SOL    HW2 3270   0.442   0.663   9.073
  942SOL     OW 3271   1.587   0.779   9.118
  942SOL    HW1 3272   1.495   0.817   9.113
  942SOL    HW2 3273   1.647   0.826   9.053
  943SOL     OW 3274   1.013   0.105   9.218
  943SOL    HW1 3275   1.019   0.190   9.166
  943SOL    HW2 3276   1.045   0.029   9.161
  944SOL     OW 3277   0.504   0.050   9.188
  944SOL    HW1 3278   0.462  -0.007   9.118
  944SOL    HW2 3279   0.438   0.119   9.220
  945SOL     OW 3280   0.573   0.870   8.477
  945SOL    HW1 3281   0.617   0.959   8.468
  945SOL    HW2 3282   0.510   0.870   8.554
  946SOL     OW 3283   1.360   0.862   8.493
  946SOL    HW1 3284   1.285   0.862   8.427
  946SOL    HW2 3285   1.397   0.770   8.502
  947SOL     OW 3286   1.209   0.525   7.723
  947SOL    HW1 3287   1.222   0.441   7.777
  947SOL    HW2 3288   1.180   0.599   7.783
  948SOL     OW 3289   0.307   0.213   8.679
  948SOL    HW1 3290   0.284   0.250   8.769
  948SOL    HW2 3291   0.277   0.118   8.673
  949SOL     OW 3292   0.037   1.310   8.730
  949SOL    HW1 3293   0.090   1.261   8.798
  949SOL    HW2 3294   0.059   1.408   8.735
  950SOL     OW 3295   0.732   0.634   8.512
  950SOL    HW1 3296   0.791   0.608   8.436
  950SOL    HW2 3297   0.704   0.730   8.501
  951SOL     OW 3298   1.728   0.935   9.302
  951SOL    HW1 3299   1.682   0.928   9.213
  951SOL    HW2 3300   1.666   0.979   9.368
  952SOL     OW 3301   0.307   0.063   8.066
  952SOL    HW1 3302   0.296   0.157   8.099
  952SOL    HW2 3303   0.302   0.000   8.143
  953SOL     OW 3304   1.622   0.367   7.822
  953SOL    HW1 3305   1.624   0.291   7.886
  953SOL    HW2 3306   1.574   0.444   7.862
  954SOL     OW 3307   1.023   0.766   8.414
  954SOL    HW1 3308   1.038   0.787   8.510
  954SOL    HW2 3309   0.993   0.671   8.405
  955SOL     OW 3310   0.980   1.573   9.148
  955SOL    HW1 3311   0.960   1.617   9.060
  955SOL    HW2 3312   1.019   1.482   9.132
  956SOL     OW 3313   1.859   1.518   9.053
  956SOL    HW1 3314   1.873   1.545   8.958
  956SOL    HW2 3315   1.942   1.540   9.106
  957SOL     OW 3316   0.350   0.898   9.252
  957SOL    HW1 3317   0.426   0.942   9.300
  957SOL    HW2 3318   0.385   0.851   9.170
  958SOL     OW 3319   1.540   0.274   7.573
  958SOL    HW1 3320   1.479   0.199   7.596
  958SOL    HW2 3321   1.562   0.326   7.656
  959SOL     OW 3322   1.303   0.838   7.490
  959SOL    HW1 3323   1.337   0.745   7.505
  959SOL    HW2 3324   1.321   0.865   7.395
  960SOL     OW 3325   1.068   1.333   8.297
  960SOL    HW1 3326   1.075   1.249   8.242
  960SOL    HW2 3327   1.130   1.402   8.261
  961SOL     OW 3328   0.319   0.810   8.397
  961SOL    HW1 3329   0.412   0.846   8.402
  961SOL    HW2 3330   0.313   0.725   8.449
  962SOL     OW 3331   0.339   0.509   8.454
  962SOL    HW1 3332   0.287   0.426   8.437
  962SOL    HW2 3333   0.416   0.514   8.390
  963SOL     OW 3334   1.138   0.380   9.126
  963SOL    HW1 3335   1.093   0.443   9.190
  963SOL    HW2 3336   1.231   0.411   9.109
  964SOL     OW 3337   1.160   0.207   8.925
  964SOL    HW1 3338   1.160   0.271   9.002
  964SOL    HW2 3339   1.188   0.255   8.842
  965SOL     OW 3340   0.008   1.326   7.648
  965SOL    HW1 3341  -0.085   1.347   7.617
  965SOL    HW2 3342   0.018   1.227   7.661
  966SOL     OW 3343   0.088   1.801   8.375
  966SOL    HW1 3344   0.046   1.715   8.348
  966SOL    HW2 3345   0.182   1.804   8.341
  967SOL     OW 3346   0.504   1.568   8.358
  967SOL    HW1 3347   0.570   1.642   8.367
  967SOL    HW2 3348   0.548   1.489   8.316
  968SOL     OW 3349   1.002   0.796   8.686
  968SOL    HW1 3350   1.043   0.764   8.772
  968SOL    HW2 3351   0.906   0.769   8.683
  969SOL     OW 3352   0.040   0.544   8.562
  969SOL    HW1 3353   0.125   0.511   8.521
  969SOL    HW2 3354   0.053   0.559   8.660
  970SOL     OW 3355   0.189   0.520   9.170
  970SOL    HW1 3356   0.248   0.480   9.100
  970SOL    HW2 3357   0.131   0.591   9.129
  971SOL     OW 3358   1.369   0.950   9.108
  971SOL    HW1 3359   1.408   1.039   9.128
  971SOL    HW2 3360   1.379   0.930   9.011
  972SOL     OW 3361   0.815   0.572   7.773
  972SOL    HW1 3362   0.822   0.483   7.727
  972SOL    HW2 3363   0.721   0.606   7.765
  973SOL     OW 3364   1.657   0.604   8.654
  973SOL    HW1 3365   1.619   0.535   8.716
  973SOL    HW2 3366   1.739   0.568   8.610
  974SOL     OW 3367   0.252   1.564   9.192
  974SOL    HW1 3368   0.222   1.621   9.268
  974SOL    HW2 3369   0.245   1.467   9.218
  975SOL     OW 3370   0.671   0.464   8.717
  975SOL    HW1 3371   0.637   0.375   8.687
  975SOL    HW2 3372   0.697   0.518   8.637
  976SOL     OW 3373   0.930   1.678   8.913
  976SOL    HW1 3374   0.906   1.660   8.818
  976SOL    HW2 3375   0.960   1.772   8.923
  977SOL     OW 3376   0.473   0.500   7.639
  977SOL    HW1 3377   0.534   0.580   7.643
  977SOL    HW2 3378   0.378   0.531   7.646
  978SOL     OW 3379   0.159   1.137   8.914
  978SOL    HW1 3380   0.181   1.076   8.990
  978SOL    HW2 3381   0.169   1.088   8.828
  979SOL     OW 3382   1.347   1.059   8.682
  979SOL    HW1 3383   1.371   0.996   8.608
  979SOL    HW2 3384   1.257   1.099   8.664
  980SOL     OW 3385   1.302   0.855   7.757
  980SOL    HW1 3386   1.216   0.824   7.799
  980SOL    HW2 3387   1.298   0.841   7.658
  981SOL     OW 3388   1.759   1.747   8.602
  981SOL    HW1 3389   1.820   1.777   8.529
  981SOL    HW2 3390   1.721   1.658   8.580
  982SOL     OW 3391   1.252   1.731   8.576
  982SOL    HW1 3392   1.336   1.736   8.522
  982SOL    HW2 3393   1.229   1.635   8.594
  983SOL     OW 3394   0.083   1.258   8.470
  983SOL    HW1 3395   0.078   1.257   8.570
  983SOL    HW2 3396   0.000   1.217   8.432
  984SOL     OW 3397   0.688   1.662   9.164
  984SOL    HW1 3398   0.632   1.743   9.173
  984SOL    HW2 3399   0.740   1.666   9.078
  985SOL     OW 3400   1.726   0.135   7.971
  985SOL    HW1 3401   1.799   0.118   7.904
  985SOL    HW2 3402   1.695   0.048   8.009
  986SOL     OW 3403   1.388   1.573   7.925
  986SOL    HW1 3404   1.455   1.585   7.851
  986SOL    HW2 3405   1.348   1.662   7.948
  987SOL     OW 3406   0.130   1.794   9.299
  987SOL    HW1 3407   0.089   1.720   9.352
  987SOL    HW2 3408   0.194   1.845   9.357
  988SOL     OW 3409   1.280   0.927   8.120
  988SOL    HW1 3410   1.340   0.846   8.122
  988SOL    HW2 3411   1.320   0.996   8.060
  989SOL     OW 3412   0.830   1.273   8.870
  989SOL    HW1 3413   0.825   1.306   8.965
  989SOL    HW2 3414   0.744   1.292   8.824
  990SOL     OW 3415   0.672   1.616   7.602
  990SOL    HW1 3416   0.681   1.626   7.503
  990SOL    HW2 3417   0.632   1.527   7.623
  991SOL     OW 3418   1.650   1.720   8.842
  991SOL    HW1 3419   1.703   1.730   8.758
  991SOL    HW2 3420   1.623   1.810   8.876
  992SOL     OW 3421   1.841   0.175   8.411
  992SOL    HW1 3422   1.880   0.090   8.375
  992SOL    HW2 3423   1.743   0.177   8.392
  993SOL     OW 3424   0.263   0.326   8.168
  993SOL    HW1 3425   0.184   0.377   8.134
  993SOL    HW2 3426   0.254   0.311   8.266
  994SOL     OW 3427   0.822   1.002   8.820
  994SOL    HW1 3428   0.862   1.001   8.728
  994SOL    HW2 3429   0.832   1.094   8.860
  995SOL     OW 3430   0.916   0.910   7.739
  995SOL    HW1 3431   0.979   0.948   7.671
  995SOL    HW2 3432   0.956   0.827   7.778
  996SOL     OW 3433   1.504   1.607   7.492
  996SOL    HW1 3434   1.412   1.644   7.499
  996SOL    HW2 3435   1.542   1.627   7.402
  997SOL     OW 3436   0.372   1.288   8.938
  997SOL    HW1 3437   0.359   1.381   8.904
  997SOL    HW2 3438   0.288   1.236   8.925
  998SOL     OW 3439   1.614   1.292   8.737
  998SOL    HW1 3440   1.674   1.295   8.817
  998SOL    HW2 3441   1.539   1.356   8.750
  999SOL     OW 3442   1.039   1.098   8.144
  999SOL    HW1 3443   0.969   1.051   8.198
  999SOL    HW2 3444   1.098   1.030   8.101
 1000SOL     OW 3445   1.014   0.236   8.419
 1000SOL    HW1 3446   1.006   0.200   8.326
 1000SOL    HW2 3447   1.012   0.160   8.484
 1001SOL     OW 3448   0.590   1.487   7.939
 1001SOL    HW1 3449   0.632   1.429   7.869
 1001SOL    HW2 3450   0.546   1.566   7.895
 1002SOL     OW 3451   1.709   0.385   8.829
 1002SOL    HW1 3452   1.782   0.454   8.833
 1002SOL    HW2 3453   1.737   0.310   8.770
 1003SOL     OW 3454   0.255   1.348   7.738
 1003SOL    HW1 3455   0.159   1.349   7.711
 1003SOL    HW2 3456   0.267   1.401   7.822
 1004SOL     OW 3457   0.105   1.013   9.174
 1004SOL    HW1 3458   0.028   0.980   9.228
 1004SOL    HW2 3459   0.190   0.983   9.216
 1005SOL     OW 3460   0.672   0.203   8.937
 1005SOL    HW1 3461   0.762   0.187   8.897
 1005SOL    HW2 3462   0.680   0.208   9.036
 1006SOL     OW 3463   0.075   0.345   7.481
 1006SOL    HW1 3464  -0.017   0.317   7.452
 1006SOL    HW2 3465   0.106   0.422   7.425
 1007SOL     OW 3466   1.440   0.856   8.846
 1007SOL    HW1 3467   1.383   0.908   8.783
 1007SOL    HW2 3468   1.536   0.868   8.822
 1008SOL     OW 3469   0.072   0.166   7.766
 1008SOL    HW1 3470   0.055   0.249   7.712
 1008SOL    HW2 3471   0.162   0.129   7.744
 1009SOL     OW 3472   1.183   1.335   7.567
 1009SOL    HW1 3473   1.084   1.324   7.569
 1009SOL    HW2 3474   1.217   1.350   7.660
 1010SOL     OW 3475   0.613   0.842   8.879
 1010SOL    HW1 3476   0.669   0.923   8.862
 1010SOL    HW2 3477   0.672   0.762   8.882
 1011SOL     OW 3478   1.493   1.767   8.407
 1011SOL    HW1 3479   1.526   1.831   8.338
 1011SOL    HW2 3480   1.559   1.761   8.482
 1012SOL     OW 3481   0.716   0.565   9.156
 1012SOL    HW1 3482   0.735   0.630   9.230
 1012SOL    HW2 3483   0.776   0.485   9.165
 1013SOL     OW 3484   1.450   1.220   9.081
 1013SOL    HW1 3485   1.441   1.210   9.180
 1013SOL    HW2 3486   1.546   1.213   9.055
 1014SOL     OW 3487   0.390   1.741   9.008
 1014SOL    HW1 3488   0.299   1.782   9.006
 1014SOL    HW2 3489   0.383   1.647   9.040
 1015SOL     OW 3490   1.674   0.883   8.702
 1015SOL    HW1 3491   1.647   0.794   8.665
 1015SOL    HW2 3492   1.675   0.951   8.629
 1016SOL     OW 3493   1.225   0.325   7.897
 1016SOL    HW1 3494   1.290   0.251   7.886
 1016SOL    HW2 3495   1.245   0.375   7.981
 1017SOL     OW 3496   0.594   0.745   8.100
 1017SOL    HW1 3497   0.644   0.830   8.081
 1017SOL    HW2 3498   0.506   0.747   8.052
 1018SOL     OW 3499   1.777   0.342   9.090
 1018SOL    HW1 3500   1.760   0.373   8.996
 1018SOL    HW2 3501   1.693   0.305   9.128
 1019SOL     OW 3502   1.730   0.934   8.965
 1019SOL    HW1 3503   1.768   1.025   8.980
 1019SOL    HW2 3504   1.722   0.917   8.866
 1020SOL     OW 3505   0.859   1.374   7.464
 1020SOL    HW1 3506   0.813   1.389   7.552
 1020SOL    HW2 3507   0.903   1.459   7.434
 1021SOL     OW 3508   0.661   1.790   8.401
 1021SOL    HW1 3509   0.615   1.878   8.388
 1021SOL    HW2 3510   0.760   1.802   8.394
 1022SOL     OW 3511   0.859   0.956   8.309
 1022SOL    HW1 3512   0.913   0.887   8.357
 1022SOL    HW2 3513   0.827   1.025   8.375
 1023SOL     OW 3514   1.083   0.984   7.535
 1023SOL    HW1 3515   1.060   1.037   7.453
 1023SOL    HW2 3516   1.164   0.928   7.516
 1024SOL     OW 3517   1.861   1.569   8.299
 1024SOL    HW1 3518   1.790   1.557   8.229
 1024SOL    HW2 3519   1.862   1.490   8.359
 1025SOL     OW 3520   0.221   1.314   9.292
 1025SOL    HW1 3521   0.156   1.241   9.271
 1025SOL    HW2 3522   0.225   1.328   9.390
 1026SOL     OW 3523   0.079   1.240   8.101
 1026SOL    HW1 3524   0.078   1.193   8.189
 1026SOL    HW2 3525   0.161   1.212   8.050
 1027SOL     OW 3526   0.672   1.391   9.072
 1027SOL    HW1 3527   0.594   1.341   9.110
 1027SOL    HW2 3528   0.669   1.486   9.103
 1028SOL     OW 3529   1.824   0.192   8.675
 1028SOL    HW1 3530   1.820   0.102   8.719
 1028SOL    HW2 3531   1.827   0.181   8.576
 1029SOL     OW 3532   0.428   0.424   7.968
 1029SOL    HW1 3533   0.458   0.352   7.906
 1029SOL    HW2 3534   0.389   0.384   8.051
 1030SOL     OW 3535   1.705   1.487   8.552
 1030SOL    HW1 3536   1.612   1.462   8.525
 1030SOL    HW2 3537   1.731   1.437   8.634
 1031SOL     OW 3538   0.317   0.547   8.728
 1031SOL    HW1 3539   0.355   0.488   8.800
 1031SOL    HW2 3540   0.357   0.521   8.640
 1032SOL     OW 3541   0.812   1.586   8.135
 1032SOL    HW1 3542   0.844   1.596   8.041
 1032SOL    HW2 3543   0.733   1.524   8.137
 1033SOL     OW 3544   1.424   0.214   8.560
 1033SOL    HW1 3545   1.476   0.149   8.615
 1033SOL    HW2 3546   1.375   0.277   8.621
 1034SOL     OW 3547   1.001   0.034   8.602
 1034SOL    HW1 3548   0.938  -0.038   8.571
 1034SOL    HW2 3549   1.094  -0.002   8.602
 1035SOL     OW 3550   0.770   1.330   7.749
 1035SOL    HW1 3551   0.724   1.243   7.766
 1035SOL    HW2 3552   0.861   1.327   7.790
 1036SOL     OW 3553   0.618   1.567   8.732
 1036SOL    HW1 3554   0.613   1.649   8.789
 1036SOL    HW2 3555   0.707   1.564   8.687
 1037SOL     OW 3556   1.352   0.052   7.616
 1037SOL    HW1 3557   1.387   0.011   7.532
 1037SOL    HW2 3558   1.262   0.014   7.636
 1038SOL     OW 3559   1.300   0.453   8.139
 1038SOL    HW1 3560   1.241   0.533   8.143
 1038SOL    HW2 3561   1.315   0.418   8.232
 1039SOL     OW 3562   1.593   0.221   8.330
 1039SOL    HW1 3563   1.509   0.220   8.384
 1039SOL    HW2 3564   1.595   0.304   8.274
 1040SOL     OW 3565   0.039   1.077   7.748
 1040SOL    HW1 3566   0.138   1.066   7.739
 1040SOL    HW2 3567  -0.001   0.991   7.780
 1041SOL     OW 3568   0.875   1.646   7.785
 1041SOL    HW1 3569   0.798   1.611   7.731
 1041SOL    HW2 3570   0.843   1.717   7.847
 1042SOL     OW 3571   0.230   0.628   9.423
 1042SOL    HW1 3572   0.137   0.626   9.460
 1042SOL    HW2 3573   0.231   0.589   9.331
 1043SOL     OW 3574   0.225   0.275  10.306
 1043SOL    HW1 3575   0.260   0.258  10.398
 1043SOL    HW2 3576   0.137   0.230  10.294
 1044SOL     OW 3577   0.019   0.368   9.957
 1044SOL    HW1 3578  -0.063   0.411   9.996
 1044SOL    HW2 3579  -0.009   0.295   9.894
 1045SOL     OW 3580   0.569   1.275  10.475
 1045SOL    HW1 3581   0.476   1.268  10.438
 1045SOL    HW2 3582   0.580   1.364  10.519
 1046SOL     OW 3583   1.555   1.511  10.013
 1046SOL    HW1 3584   1.498   1.495  10.094
 1046SOL    HW2 3585   1.496   1.521   9.933
 1047SOL     OW 3586   1.135   0.703  10.027
 1047SOL    HW1 3587   1.192   0.781  10.002
 1047SOL    HW2 3588   1.075   0.729  10.103
 1048SOL     OW 3589   1.755   0.607   9.541
 1048SOL    HW1 3590   1.743   0.594   9.442
 1048SOL    HW2 3591   1.725   0.526   9.590
 1049SOL     OW 3592   0.768   1.144  10.333
 1049SOL    HW1 3593   0.690   1.161  10.393
 1049SOL    HW2 3594   0.802   1.231  10.297
 1050SOL     OW 3595   0.850   0.798  11.133
 1050SOL    HW1 3596   0.846   0.874  11.198
 1050SOL    HW2 3597   0.872   0.834  11.042
 1051SOL     OW 3598   0.685   1.012   9.975
 1051SOL    HW1 3599   0.754   0.996  10.045
 1051SOL    HW2 3600   0.612   1.069  10.013
 1052SOL     OW 3601   0.686   1.161  11.113
 1052SOL    HW1 3602   0.746   1.240  11.127
 1052SOL    HW2 3603   0.600   1.192  11.072
 1053SOL     OW 3604   0.335   1.435  10.371
 1053SOL    HW1 3605   0.257   1.404  10.318
 1053SOL    HW2 3606   0.393   1.493  10.314
 1054SOL     OW 3607   1.460   1.505  10.649
 1054SOL    HW1 3608   1.484   1.599  10.675
 1054SOL    HW2 3609   1.444   1.451  10.731
 1055SOL     OW 3610   0.438   0.392  10.809
 1055SOL    HW1 3611   0.520   0.336  10.818
 1055SOL    HW2 3612   0.357   0.334  10.813
 1056SOL     OW 3613   1.603   0.447  10.047
 1056SOL    HW1 3614   1.529   0.493   9.997
 1056SOL    HW2 3615   1.654   0.515  10.100
 1057SOL     OW 3616   0.231   1.713   9.793
 1057SOL    HW1 3617   0.265   1.790   9.847
 1057SOL    HW2 3618   0.275   1.713   9.703
 1058SOL     OW 3619   1.127   1.341  11.000
 1058SOL    HW1 3620   1.174   1.341  11.088
 1058SOL    HW2 3621   1.079   1.254  10.989
 1059SOL     OW 3622   0.230   1.434   9.848
 1059SOL    HW1 3623   0.204   1.530   9.848
 1059SOL    HW2 3624   0.159   1.380   9.893
 1060SOL     OW 3625   0.240   1.091  10.196
 1060SOL    HW1 3626   0.254   1.007  10.248
 1060SOL    HW2 3627   0.185   1.155  10.251
 1061SOL     OW 3628   0.620   1.786  10.749
 1061SOL    HW1 3629   0.528   1.769  10.784
 1061SOL    HW2 3630   0.648   1.878  10.775
 1062SOL     OW 3631   0.606   0.964   9.433
 1062SOL    HW1 3632   0.613   1.048   9.379
 1062SOL    HW2 3633   0.652   0.977   9.521
 1063SOL     OW 3634   1.594   0.114  10.790
 1063SOL    HW1 3635   1.576   0.181  10.718
 1063SOL    HW2 3636   1.591   0.160  10.879
 1064SOL     OW 3637   0.122   0.643   9.873
 1064SOL    HW1 3638   0.077   0.555   9.890
 1064SOL    HW2 3639   0.121   0.697   9.957
 1065SOL     OW 3640   0.027   1.596   9.427
 1065SOL    HW1 3641   0.008   1.500   9.448
 1065SOL    HW2 3642  -0.006   1.654   9.502
 1066SOL     OW 3643   1.689   0.922   9.922
 1066SOL    HW1 3644   1.784   0.893   9.930
 1066SOL    HW2 3645   1.681   0.987   9.847
 1067SOL     OW 3646   1.641   1.108   9.742
 1067SOL    HW1 3647   1.727   1.110   9.690
 1067SOL    HW2 3648   1.655   1.155   9.830
 1068SOL     OW 3649   0.113   0.737  10.907
 1068SOL    HW1 3650   0.201   0.724  10.952
 1068SOL    HW2 3651   0.100   0.834  10.885
 1069SOL     OW 3652   0.613   1.365  10.036
 1069SOL    HW1 3653   0.564   1.278  10.045
 1069SOL    HW2 3654   0.590   1.408   9.949
 1070SOL     OW 3655   1.293   1.228  10.733
 1070SOL    HW1 3656   1.330   1.155  10.675
 1070SOL    HW2 3657   1.345   1.233  10.818
 1071SOL     OW 3658   0.809   0.004   9.812
 1071SOL    HW1 3659   0.849   0.095   9.803
 1071SOL    HW2 3660   0.709   0.012   9.818
 1072SOL     OW 3661   0.197   0.976  10.574
 1072SOL    HW1 3662   0.286   0.931  10.560
 1072SOL    HW2 3663   0.124   0.911  10.555
 1073SOL     OW 3664   1.525   0.999   9.500
 1073SOL    HW1 3665   1.462   0.923   9.513
 1073SOL    HW2 3666   1.573   1.017   9.586
 1074SOL     OW 3667   1.187   1.792  10.926
 1074SOL    HW1 3668   1.211   1.852  10.850
 1074SOL    HW2 3669   1.194   1.697  10.896
 1075SOL     OW 3670   0.317   0.251  11.111
 1075SOL    HW1 3671   0.388   0.322  11.117
 1075SOL    HW2 3672   0.229   0.290  11.139
 1076SOL     OW 3673   1.466   1.417  10.263
 1076SOL    HW1 3674   1.407   1.423  10.343
 1076SOL    HW2 3675   1.451   1.329  10.217
 1077SOL     OW 3676   1.667   1.714   9.882
 1077SOL    HW1 3677   1.626   1.691   9.794
 1077SOL    HW2 3678   1.649   1.640   9.947
 1078SOL     OW 3679   0.598   0.729   9.580
 1078SOL    HW1 3680   0.622   0.798   9.512
 1078SOL    HW2 3681   0.520   0.762   9.634
 1079SOL     OW 3682   1.281   0.345  10.254
 1079SOL    HW1 3683   1.195   0.295  10.241
 1079SOL    HW2 3684   1.343   0.291  10.310
 1080SOL     OW 3685   1.576   1.662   9.617
 1080SOL    HW1 3686   1.665   1.708   9.620
 1080SOL    HW2 3687   1.555   1.638   9.522
 1081SOL     OW 3688   0.807   0.605  10.775
 1081SOL    HW1 3689   0.760   0.602  10.864
 1081SOL    HW2 3690   0.756   0.550  10.709
 1082SOL     OW 3691   1.394   0.469  10.984
 1082SOL    HW1 3692   1.374   0.512  11.072
 1082SOL    HW2 3693   1.472   0.407  10.993
 1083SOL     OW 3694   0.973   0.890  10.882
 1083SOL    HW1 3695   1.019   0.806  10.853
 1083SOL    HW2 3696   0.917   0.924  10.807
 1084SOL     OW 3697   0.991   0.410  10.552
 1084SOL    HW1 3698   0.914   0.444  10.606
 1084SOL    HW2 3699   0.957   0.359  10.473
 1085SOL     OW 3700   1.041   0.701   9.739
 1085SOL    HW1 3701   1.067   0.697   9.835
 1085SOL    HW2 3702   0.956   0.650   9.725
 1086SOL     OW 3703   0.076   0.811  10.099
 1086SOL    HW1 3704   0.175   0.799  10.108
 1086SOL    HW2 3705   0.052   0.906  10.120
 1087SOL     OW 3706   0.130   1.821  10.881
 1087SOL    HW1 3707   0.120   1.806  10.980
 1087SOL    HW2 3708   0.044   1.857  10.845
 1088SOL     OW 3709   0.865   0.348   9.505
 1088SOL    HW1 3710   0.924   0.411   9.456
 1088SOL    HW2 3711   0.884   0.254   9.476
 1089SOL     OW 3712   1.719   0.585  11.141
 1089SOL    HW1 3713   1.693   0.674  11.105
 1089SOL    HW2 3714   1.717   0.517  11.068
 1090SOL     OW 3715   1.362   1.144   9.855
 1090SOL    HW1 3716   1.445   1.115   9.807
 1090SOL    HW2 3717   1.313   1.211   9.799
 1091SOL     OW 3718   0.550   0.196  10.195
 1091SOL    HW1 3719   0.545   0.191  10.295
 1091SOL    HW2 3720   0.552   0.292  10.166
 1092SOL     OW 3721   1.008   1.456   9.787
 1092SOL    HW1 3722   0.962   1.528   9.735
 1092SOL    HW2 3723   1.004   1.476   9.885
 1093SOL     OW 3724   0.351   1.801  10.163
 1093SOL    HW1 3725   0.401   1.715  10.169
 1093SOL    HW2 3726   0.416   1.878  10.160
 1094SOL     OW 3727   1.795   1.066  10.183
 1094SOL    HW1 3728   1.733   1.051  10.107
 1094SOL    HW2 3729   1.743   1.077  10.268
 1095SOL     OW 3730   1.227   1.550  10.816
 1095SOL    HW1 3731   1.233   1.473  10.880
 1095SOL    HW2 3732   1.175   1.524  10.736
 1096SOL     OW 3733   0.321   0.943   9.552
 1096SOL    HW1 3734   0.403   0.982   9.510
 1096SOL    HW2 3735   0.294   0.861   9.503
 1097SOL     OW 3736   1.458   0.735  10.038
 1097SOL    HW1 3737   1.453   0.670  10.113
 1097SOL    HW2 3738   1.538   0.794  10.051
 1098SOL     OW 3739   0.461   1.266  11.037
 1098SOL    HW1 3740   0.411   1.267  10.951
 1098SOL    HW2 3741   0.398   1.248  11.113
 1099SOL     OW 3742   1.111   1.776   9.547
 1099SOL    HW1 3743   1.051   1.714   9.597
 1099SOL    HW2 3744   1.142   1.732   9.462
 1100SOL     OW 3745   0.202   0.285  10.808
 1100SOL    HW1 3746   0.122   0.345  10.795
 1100SOL    HW2 3747   0.192   0.236  10.894
 1101SOL     OW 3748   1.632   1.377   9.391
 1101SOL    HW1 3749   1.600   1.471   9.381
 1101SOL    HW2 3750   1.556   1.314   9.379
 1102SOL     OW 3751   0.464   1.743   9.633
 1102SOL    HW1 3752   0.497   1.782   9.719
 1102SOL    HW2 3753   0.540   1.736   9.568
 1103SOL     OW 3754   1.400   0.107   9.736
 1103SOL    HW1 3755   1.376   0.070   9.646
 1103SOL    HW2 3756   1.499   0.123   9.740
 1104SOL     OW 3757   0.249   1.785  10.551
 1104SOL    HW1 3758   0.306   1.720  10.601
 1104SOL    HW2 3759   0.233   1.752  10.458
 1105SOL     OW 3760   0.940   1.698  10.214
 1105SOL    HW1 3761   1.020   1.641  10.235
 1105SOL    HW2 3762   0.891   1.658  10.137
 1106SOL     OW 3763   0.382   0.700   9.790
 1106SOL    HW1 3764   0.427   0.610   9.787
 1106SOL    HW2 3765   0.288   0.689   9.823
 1107SOL     OW 3766   1.547   0.222  11.039
 1107SOL    HW1 3767   1.542   0.259  11.131
 1107SOL    HW2 3768   1.475   0.153  11.027
 1108SOL     OW 3769   0.614   0.122   9.427
 1108SOL    HW1 3770   0.712   0.100   9.434
 1108SOL    HW2 3771   0.583   0.105   9.334
 1109SOL     OW 3772   0.781   0.264  11.059
 1109SOL    HW1 3773   0.848   0.203  11.102
 1109SOL    HW2 3774   0.708   0.283  11.124
 1110SOL     OW 3775   0.888   1.514  10.505
 1110SOL    HW1 3776   0.865   1.489  10.411
 1110SOL    HW2 3777   0.949   1.445  10.544
 1111SOL     OW 3778   1.351   0.590  10.743
 1111SOL    HW1 3779   1.379   0.547  10.828
 1111SOL    HW2 3780   1.376   0.686  10.744
 1112SOL     OW 3781   0.803   1.402  10.234
 1112SOL    HW1 3782   0.893   1.416  10.192
 1112SOL    HW2 3783   0.732   1.404  10.163
 1113SOL     OW 3784   0.922   0.503  10.209
 1113SOL    HW1 3785   0.897   0.494  10.113
 1113SOL    HW2 3786   0.970   0.421  10.240
 1114SOL     OW 3787   0.539   0.064   9.822
 1114SOL    HW1 3788   0.458   0.065   9.880
 1114SOL    HW2 3789   0.542   0.147   9.767
 1115SOL     OW 3790   1.434   1.188   9.351
 1115SOL    HW1 3791   1.466   1.112   9.408
 1115SOL    HW2 3792   1.342   1.215   9.381
 1116SOL     OW 3793   0.297   0.035   9.481
 1116SOL    HW1 3794   0.346   0.119   9.460
 1116SOL    HW2 3795   0.359  -0.030   9.526
 1117SOL     OW 3796   0.935   0.236   9.790
 1117SOL    HW1 3797   0.887   0.277   9.712
 1117SOL    HW2 3798   1.034   0.234   9.771
 1118SOL     OW 3799   1.076   0.683  10.774
 1118SOL    HW1 3800   0.996   0.622  10.777
 1118SOL    HW2 3801   1.157   0.630  10.750
 1119SOL     OW 3802   1.227   1.570  10.103
 1119SOL    HW1 3803   1.248   1.644  10.038
 1119SOL    HW2 3804   1.295   1.570  10.176
 1120SOL     OW 3805   0.459   1.152  10.051
 1120SOL    HW1 3806   0.388   1.125  10.116
 1120SOL    HW2 3807   0.433   1.124   9.958
 1121SOL     OW 3808   1.271   1.797   9.901
 1121SOL    HW1 3809   1.315   1.861   9.837
 1121SOL    HW2 3810   1.221   1.849   9.971
 1122SOL     OW 3811   1.032   0.549   9.326
 1122SOL    HW1 3812   0.991   0.631   9.287
 1122SOL    HW2 3813   1.096   0.575   9.399
 1123SOL     OW 3814   0.078   0.556  10.696
 1123SOL    HW1 3815   0.170   0.555  10.655
 1123SOL    HW2 3816   0.072   0.630  10.763
 1124SOL     OW 3817   0.561   0.222  10.457
 1124SOL    HW1 3818   0.599   0.138  10.494
 1124SOL    HW2 3819   0.473   0.241  10.501
 1125SOL     OW 3820   0.866   0.454   9.952
 1125SOL    HW1 3821   0.834   0.526   9.890
 1125SOL    HW2 3822   0.890   0.373   9.899
 1126SOL     OW 3823   1.017   0.039  10.063
 1126SOL    HW1 3824   0.945   0.044   9.994
 1126SOL    HW2 3825   0.993  -0.030  10.132
 1127SOL     OW 3826   1.429   1.173  10.177
 1127SOL    HW1 3827   1.374   1.089  10.170
 1127SOL    HW2 3828   1.455   1.202  10.085
 1128SOL     OW 3829   1.466   0.590  10.302
 1128SOL    HW1 3830   1.436   0.495  10.309
 1128SOL    HW2 3831   1.539   0.606  10.368
 1129SOL     OW 3832   1.857   0.833   9.687
 1129SOL    HW1 3833   1.899   0.769   9.751
 1129SOL    HW2 3834   1.819   0.782   9.609
 1130SOL     OW 3835   0.488   1.385   9.484
 1130SOL    HW1 3836   0.401   1.370   9.531
 1130SOL    HW2 3837   0.471   1.411   9.389
 1131SOL     OW 3838   1.664   1.280   9.967
 1131SOL    HW1 3839   1.763   1.288   9.981
 1131SOL    HW2 3840   1.619   1.364   9.998
 1132SOL     OW 3841   1.390   0.575   9.388
 1132SOL    HW1 3842   1.336   0.554   9.469
 1132SOL    HW2 3843   1.481   0.534   9.397
 1133SOL     OW 3844   0.527   0.256   9.638
 1133SOL    HW1 3845   0.554   0.197   9.563
 1133SOL    HW2 3846   0.527   0.351   9.607
 1134SOL     OW 3847   1.754   1.223  10.898
 1134SOL    HW1 3848   1.845   1.184  10.885
 1134SOL    HW2 3849   1.762   1.319  10.922
 1135SOL     OW 3850   1.064   1.347  10.650
 1135SOL    HW1 3851   0.984   1.324  10.705
 1135SOL    HW2 3852   1.147   1.321  10.699
 1136SOL     OW 3853   1.592   1.629  10.935
 1136SOL    HW1 3854   1.619   1.663  10.845
 1136SOL    HW2 3855   1.671   1.591  10.981
 1137SOL     OW 3856   1.111   1.195  10.410
 1137SOL    HW1 3857   1.071   1.239  10.491
 1137SOL    HW2 3858   1.070   1.232  10.327
 1138SOL     OW 3859   1.638   1.099  10.389
 1138SOL    HW1 3860   1.643   1.180  10.448
 1138SOL    HW2 3861   1.552   1.101  10.338
 1139SOL     OW 3862   0.915   0.089  10.712
 1139SOL    HW1 3863   0.940   0.069  10.617
 1139SOL    HW2 3864   0.987   0.145  10.754
 1140SOL     OW 3865   0.980   1.116  11.029
 1140SOL    HW1 3866   0.881   1.122  11.039
 1140SOL    HW2 3867   1.003   1.036  10.973
 1141SOL     OW 3868   0.705   1.050   9.678
 1141SOL    HW1 3869   0.691   1.057   9.777
 1141SOL    HW2 3870   0.789   0.999   9.660
 1142SOL     OW 3871   0.410   0.813  10.561
 1142SOL    HW1 3872   0.496   0.825  10.611
 1142SOL    HW2 3873   0.368   0.726  10.588
 1143SOL     OW 3874   1.274   0.386  10.572
 1143SOL    HW1 3875   1.295   0.460  10.636
 1143SOL    HW2 3876   1.185   0.403  10.529
 1144SOL     OW 3877   0.064   1.564  10.641
 1144SOL    HW1 3878   0.018   1.646  10.607
 1144SOL    HW2 3879   0.162   1.583  10.650
 1145SOL     OW 3880   0.367   1.100   9.811
 1145SOL    HW1 3881   0.360   1.183   9.755
 1145SOL    HW2 3882   0.371   1.020   9.751
 1146SOL     OW 3883   0.566   0.537  10.175
 1146SOL    HW1 3884   0.578   0.603  10.101
 1146SOL    HW2 3885   0.612   0.571  10.258
 1147SOL     OW 3886   1.252   1.348   9.698
 1147SOL    HW1 3887   1.302   1.425   9.738
 1147SOL    HW2 3888   1.157   1.350   9.730
 1148SOL     OW 3889   1.272   1.445  10.452
 1148SOL    HW1 3890   1.319   1.458  10.539
 1148SOL    HW2 3891   1.206   1.371  10.461
 1149SOL     OW 3892   1.582   0.639   9.782
 1149SOL    HW1 3893   1.551   0.700   9.855
 1149SOL    HW2 3894   1.632   0.691   9.713
 1150SOL     OW 3895   0.354   1.510  10.639
 1150SOL    HW1 3896   0.333   1.466  10.552
 1150SOL    HW2 3897   0.451   1.536  10.642
 1151SOL     OW 3898   0.402   0.751  10.908
 1151SOL    HW1 3899   0.470   0.806  10.861
 1151SOL    HW2 3900   0.442   0.663  10.935
 1152SOL     OW 3901   1.587   0.779  10.980
 1152SOL    HW1 3902   1.495   0.817  10.975
 1152SOL    HW2 3903   1.647   0.826  10.915
 1153SOL     OW 3904   1.013   0.105  11.080
 1153SOL    HW1 3905   1.019   0.190  11.028
 1153SOL    HW2 3906   1.045   0.029  11.023
 1154SOL     OW 3907   0.504   0.050  11.050
 1154SOL    HW1 3908   0.462  -0.007  10.980
 1154SOL    HW2 3909   0.438   0.119  11.082
 1155SOL     OW 3910   0.573   0.870  10.339
 1155SOL    HW1 3911   0.617   0.959  10.330
 1155SOL    HW2 3912   0.510   0.870  10.416
 1156SOL     OW 3913   1.360   0.862  10.355
 1156SOL    HW1 3914   1.285   0.862  10.289
 1156SOL    HW2 3915   1.397   0.770  10.364
 1157SOL     OW 3916   1.209   0.525   9.585
 1157SOL    HW1 3917   1.222   0.441   9.639
 1157SOL    HW2 3918   1.180   0.599   9.645
 1158SOL     OW 3919   0.307   0.213  10.541
 1158SOL    HW1 3920   0.284   0.250  10.631
 1158SOL    HW2 3921   0.277   0.118  10.535
 1159SOL     OW 3922   0.037   1.310  10.592
 1159SOL    HW1 3923   0.090   1.261  10.660
 1159SOL    HW2 3924   0.059   1.408  10.597
 1160SOL     OW 3925   0.732   0.634  10.374
 1160SOL    HW1 3926   0.791   0.608  10.298
 1160SOL    HW2 3927   0.704   0.730  10.363
 1161SOL     OW 3928   1.728   0.935  11.164
 1161SOL    HW1 3929   1.682   0.928  11.075
 1161SOL    HW2 3930   1.666   0.979  11.230
 1162SOL     OW 3931   0.307   0.063   9.928
 1162SOL    HW1 3932   0.296   0.157   9.961
 1162SOL    HW2 3933   0.302   0.000  10.005
 1163SOL     OW 3934   1.622   0.367   9.684
 1163SOL    HW1 3935   1.624   0.291   9.748
 1163SOL    HW2 3936   1.574   0.444   9.724
 1164SOL     OW 3937   1.023   0.766  10.276
 1164SOL    HW1 3938   1.038   0.787  10.372
 1164SOL    HW2 3939   0.993   0.671  10.267
 1165SOL     OW 3940   0.980   1.573  11.010
 1165SOL    HW1 3941   0.960   1.617  10.922
 1165SOL    HW2 3942   1.019   1.482  10.994
 1166SOL     OW 3943   1.859   1.518  10.915
 1166SOL    HW1 3944   1.873   1.545  10.820
 1166SOL    HW2 3945   1.942   1.540  10.968
 1167SOL     OW 3946   0.350   0.898  11.114
 1167SOL    HW1 3947   0.426   0.942  11.162
 1167SOL    HW2 3948   0.385   0.851  11.032
 1168SOL     OW 3949   1.540   0.274   9.435
 1168SOL    HW1 3950   1.479   0.199   9.458
 1168SOL    HW2 3951   1.562   0.326   9.518
 1169SOL     OW 3952   1.303   0.838   9.352
 1169SOL    HW1 3953   1.337   0.745   9.367
 1169SOL    HW2 3954   1.321   0.865   9.257
 1170SOL     OW 3955   1.068   1.333  10.159
 1170SOL    HW1 3956   1.075   1.249  10.104
 1170SOL    HW2 3957   1.130   1.402  10.123
 1171SOL     OW 3958   0.319   0.810  10.259
 1171SOL    HW1 3959   0.412   0.846  10.264
 1171SOL    HW2 3960   0.313   0.725  10.311
 1172SOL     OW 3961   0.339   0.509  10.316
 1172SOL    HW1 3962   0.287   0.426  10.299
 1172SOL    HW2 3963   0.416   0.514  10.252
 1173SOL     OW 3964   1.138   0.380  10.988
 1173SOL    HW1 3965   1.093   0.443  11.052
 1173SOL    HW2 3966   1.231   0.411  10.971
 1174SOL     OW 3967   1.160   0.207  10.787
 1174SOL    HW1 3968   1.160   0.271  10.864
 1174SOL    HW2 3969   1.188   0.255  10.704
 1175SOL     OW 3970   0.008   1.326   9.510
 1175SOL    HW1 3971  -0.085   1.347   9.479
 1175SOL    HW2 3972   0.018   1.227   9.523
 1176SOL     OW 3973   0.088   1.801  10.237
 1176SOL    HW1 3974   0.046   1.715  10.210
 1176SOL    HW2 3975   0.182   1.804  10.203
 1177SOL     OW 3976   0.504   1.568  10.220
 1177SOL    HW1 3977   0.570   1.642  10.229
 1177SOL    HW2 3978   0.548   1.489  10.178
 1178SOL     OW 3979   1.002   0.796  10.548
 1178SOL    HW1 3980   1.043   0.764  10.634
 1178SOL    HW2 3981   0.906   0.769  10.545
 1179SOL     OW 3982   0.040   0.544  10.424
 1179SOL    HW1 3983   0.125   0.511  10.383
 1179SOL    HW2 3984   0.053   0.559  10.522
 1180SOL     OW 3985   0.189   0.520  11.032
 1180SOL    HW1 3986   0.248   0.480  10.962
 1180SOL    HW2 3987   0.131   0.591  10.991
 1181SOL     OW 3988   1.369   0.950  10.970
 1181SOL    HW1 3989   1.408   1.039  10.990
 1181SOL    HW2 3990   1.379   0.930  10.873
 1182SOL     OW 3991   0.815   0.572   9.635
 1182SOL    HW1 3992   0.822   0.483   9.589
 1182SOL    HW2 3993   0.721   0.606   9.627
 1183SOL     OW 3994   1.657   0.604  10.516
 1183SOL    HW1 3995   1.619   0.535  10.578
 1183SOL    HW2 3996   1.739   0.568  10.472
 1184SOL     OW 3997   0.252   1.564  11.054
 1184SOL    HW1 3998   0.222   1.621  11.130
 1184SOL    HW2 3999   0.245   1.467  11.080
 1185SOL     OW 4000   0.671   0.464  10.579
 1185SOL    HW1 4001   0.637   0.375  10.549
 1185SOL    HW2 4002   0.697   0.518  10.499
 1186SOL     OW 4003   0.930   1.678  10.775
 1186SOL    HW1 4004   0.906   1.660  10.680
 1186SOL    HW2 4005   0.960   1.772  10.785
 1187SOL     OW 4006   0.473   0.500   9.501
 1187SOL    HW1 4007   0.534   0.580   9.505
 1187SOL    HW2 4008   0.378   0.531   9.508
 1188SOL     OW 4009   0.159   1.137  10.776
 1188SOL    HW1 4010   0.181   1.076  10.852
 1188SOL    HW2 4011   0.169   1.088  10.690
 1189SOL     OW 4012   1.347   1.059  10.544
 1189SOL    HW1 4013   1.371   0.996  10.470
 1189SOL    HW2 4014   1.257   1.099  10.526
 1190SOL     OW 4015   1.302   0.855   9.619
 1190SOL    HW1 4016   1.216   0.824   9.661
 1190SOL    HW2 4017   1.298   0.841   9.520
 1191SOL     OW 4018   1.759   1.747  10.464
 1191SOL    HW1 4019   1.820   1.777  10.391
 1191SOL    HW2 4020   1.721   1.658  10.442
 1192SOL     OW 4021   1.252   1.731  10.438
 1192SOL    HW1 4022   1.336   1.736  10.384
 1192SOL    HW2 4023   1.229   1.635  10.456
 1193SOL     OW 4024   0.083   1.258  10.332
 1193SOL    HW1 4025   0.078   1.257  10.432
 1193SOL    HW2 4026   0.000   1.217  10.294
 1194SOL     OW 4027   0.688   1.662  11.026
 1194SOL    HW1 4028   0.632   1.743  11.035
 1194SOL    HW2 4029   0.740   1.666  10.940
 1195SOL     OW 4030   1.726   0.135   9.833
 1195SOL    HW1 4031   1.799   0.118   9.766
 1195SOL    HW2 4032   1.695   0.048   9.871
 1196SOL     OW 4033   1.388   1.573   9.787
 1196SOL    HW1 4034   1.455   1.585   9.713
 1196SOL    HW2 4035   1.348   1.662   9.810
 1197SOL     OW 4036   0.130   1.794  11.161
 1197SOL    HW1 4037   0.089   1.720  11.214
 1197SOL    HW2 4038   0.194   1.845  11.219
 1198SOL     OW 4039   1.280   0.927   9.982
 1198SOL    HW1 4040   1.340   0.846   9.984
 1198SOL    HW2 4041   1.320   0.996   9.922
 1199SOL     OW 4042   0.830   1.273  10.732
 1199SOL    HW1 4043   0.825   1.306  10.827
 1199SOL    HW2 4044   0.744   1.292  10.686
 1200SOL     OW 4045   0.672   1.616   9.464
 1200SOL    HW1 4046   0.681   1.626   9.365
 1200SOL    HW2 4047   0.632   1.527   9.485
 1201SOL     OW 4048   1.650   1.720  10.704
 1201SOL    HW1 4049   1.703   1.730  10.620
 1201SOL    HW2 4050   1.623   1.810  10.738
 1202SOL     OW 4051   1.841   0.175  10.273
 1202SOL    HW1 4052   1.880   0.090  10.237
 1202SOL    HW2 4053   1.743   0.177  10.254
 1203SOL     OW 4054   0.263   0.326  10.030
 1203SOL    HW1 4055   0.184   0.377   9.996
 1203SOL    HW2 4056   0.254   0.311  10.128
 1204SOL     OW 4057   1.194   1.612   9.341
 1204SOL    HW1 4058   1.200   1.519   9.378
 1204SOL    HW2 4059   1.135   1.612   9.261
 1205SOL     OW 4060   0.822   1.002  10.682
 1205SOL    HW1 4061   0.862   1.001  10.590
 1205SOL    HW2 4062   0.832   1.094  10.722
 1206SOL     OW 4063   0.916   0.910   9.601
 1206SOL    HW1 4064   0.979   0.948   9.533
 1206SOL    HW2 4065   0.956   0.827   9.640
 1207SOL     OW 4066   1.504   1.607   9.354
 1207SOL    HW1 4067   1.412   1.644   9.361
 1207SOL    HW2 4068   1.542   1.627   9.264
 1208SOL     OW 4069   0.372   1.288  10.800
 1208SOL    HW1 4070   0.359   1.381  10.766
 1208SOL    HW2 4071   0.288   1.236  10.787
 1209SOL     OW 4072   1.614   1.292  10.599
 1209SOL    HW1 4073   1.674   1.295  10.679
 1209SOL    HW2 4074   1.539   1.356  10.612
 1210SOL     OW 4075   1.039   1.098  10.006
 1210SOL    HW1 4076   0.969   1.051  10.060
 1210SOL    HW2 4077   1.098   1.030   9.963
 1211SOL     OW 4078   1.014   0.236  10.281
 1211SOL    HW1 4079   1.006   0.200  10.188
 1211SOL    HW2 4080   1.012   0.160  10.346
 1212SOL     OW 4081   0.590   1.487   9.801
 1212SOL    HW1 4082   0.632   1.429   9.731
 1212SOL    HW2 4083   0.546   1.566   9.757
 1213SOL     OW 4084   1.709   0.385  10.691
 1213SOL    HW1 4085   1.782   0.454  10.695
 1213SOL    HW2 4086   1.737   0.310  10.632
 1214SOL     OW 4087   0.255   1.348   9.600
 1214SOL    HW1 4088   0.159   1.349   9.573
 1214SOL    HW2 4089   0.267   1.401   9.684
 1215SOL     OW 4090   0.105   1.013  11.036
 1215SOL    HW1 4091   0.028   0.980  11.090
 1215SOL    HW2 4092   0.190   0.983  11.078
 1216SOL     OW 4093   0.672   0.203  10.799
 1216SOL    HW1 4094   0.762   0.187  10.759
 1216SOL    HW2 4095   0.680   0.208  10.898
 1217SOL     OW 4096   0.075   0.345   9.343
 1217SOL    HW1 4097  -0.017   0.317   9.314
 1217SOL    HW2 4098   0.106   0.422   9.287
 1218SOL     OW 4099   1.440   0.856  10.708
 1218SOL    HW1 4100   1.383   0.908  10.645
 1218SOL    HW2 4101   1.536   0.868  10.684
 1219SOL     OW 4102   0.072   0.166   9.628
 1219SOL    HW1 4103   0.055   0.249   9.574
 1219SOL    HW2 4104   0.162   0.129   9.606
 1220SOL     OW 4105   1.183   1.335   9.429
 1220SOL    HW1 4106   1.084   1.324   9.431
 1220SOL    HW2 4107   1.217   1.350   9.522
 1221SOL     OW 4108   0.613   0.842  10.741
 1221SOL    HW1 4109   0.669   0.923  10.724
 1221SOL    HW2 4110   0.672   0.762  10.744
 1222SOL     OW 4111   1.493   1.767  10.269
 1222SOL    HW1 4112   1.526   1.831  10.200
 1222SOL    HW2 4113   1.559   1.761  10.344
 1223SOL     OW 4114   0.716   0.565  11.018
 1223SOL    HW1 4115   0.735   0.630  11.092
 1223SOL    HW2 4116   0.776   0.485  11.027
 1224SOL     OW 4117   1.450   1.220  10.943
 1224SOL    HW1 4118   1.441   1.210  11.042
 1224SOL    HW2 4119   1.546   1.213  10.917
 1225SOL     OW 4120   0.390   1.741  10.870
 1225SOL    HW1 4121   0.299   1.782  10.868
 1225SOL    HW2 4122   0.383   1.647  10.902
 1226SOL     OW 4123   1.674   0.883  10.564
 1226SOL    HW1 4124   1.647   0.794  10.527
 1226SOL    HW2 4125   1.675   0.951  10.491
 1227SOL     OW 4126   1.225   0.325   9.759
 1227SOL    HW1 4127   1.290   0.251   9.748
 1227SOL    HW2 4128   1.245   0.375   9.843
 1228SOL     OW 4129   0.594   0.745   9.962
 1228SOL    HW1 4130   0.644   0.830   9.943
 1228SOL    HW2 4131   0.506   0.747   9.914
 1229SOL     OW 4132   1.777   0.342  10.952
 1229SOL    HW1 4133   1.760   0.373  10.858
 1229SOL    HW2 4134   1.693   0.305  10.990
 1230SOL     OW 4135   1.730   0.934  10.827
 1230SOL    HW1 4136   1.768   1.025  10.842
 1230SOL    HW2 4137   1.722   0.917  10.728
 1231SOL     OW 4138   0.859   1.374   9.326
 1231SOL    HW1 4139   0.813   1.389   9.414
 1231SOL    HW2 4140   0.903   1.459   9.296
 1232SOL     OW 4141   0.661   1.790  10.263
 1232SOL    HW1 4142   0.615   1.878  10.250
 1232SOL    HW2 4143   0.760   1.802  10.256
 1233SOL     OW 4144   0.859   0.956  10.171
 1233SOL    HW1 4145   0.913   0.887  10.219
 1233SOL    HW2 4146   0.827   1.025  10.237
 1234SOL     OW 4147   1.083   0.984   9.397
 1234SOL    HW1 4148   1.060   1.037   9.315
 1234SOL    HW2 4149   1.164   0.928   9.378
 1235SOL     OW 4150   1.861   1.569  10.161
 1235SOL    HW1 4151   1.790   1.557  10.091
 1235SOL    HW2 4152   1.862   1.490  10.221
 1236SOL     OW 4153   0.221   1.314  11.154
 1236SOL    HW1 4154   0.156   1.241  11.133
 1236SOL    HW2 4155   0.225   1.328  11.252
 1237SOL     OW 4156   0.079   1.240   9.963
 1237SOL    HW1 4157   0.078   1.193  10.051
 1237SOL    HW2 4158   0.161   1.212   9.912
 1238SOL     OW 4159   0.672   1.391  10.934
 1238SOL    HW1 4160   0.594   1.341  10.972
 1238SOL    HW2 4161   0.669   1.486  10.965
 1239SOL     OW 4162   1.824   0.192  10.537
 1239SOL    HW1 4163   1.820   0.102  10.581
 1239SOL    HW2 4164   1.827   0.181  10.438
 1240SOL     OW 4165   0.428   0.424   9.830
 1240SOL    HW1 4166   0.458   0.352   9.768
 1240SOL    HW2 4167   0.389   0.384   9.913
 1241SOL     OW 4168   1.705   1.487  10.414
 1241SOL    HW1 4169   1.612   1.462  10.387
 1241SOL    HW2 4170   1.731   1.437  10.496
 1242SOL     OW 4171   0.317   0.547  10.590
 1242SOL    HW1 4172   0.355   0.488  10.662
 1242SOL    HW2 4173   0.357   0.521  10.502
 1243SOL     OW 4174   0.812   1.586   9.997
 1243SOL    HW1 4175   0.844   1.596   9.903
 1243SOL    HW2 4176   0.733   1.524   9.999
 1244SOL     OW 4177   1.424   0.214  10.422
 1244SOL    HW1 4178   1.476   0.149  10.477
 1244SOL    HW2 4179   1.375   0.277  10.483
 1245SOL     OW 4180   1.001   0.034  10.464
 1245SOL    HW1 4181   0.938  -0.038  10.433
 1245SOL    HW2 4182   1.094  -0.002  10.464
 1246SOL     OW 4183   0.770   1.330   9.611
 1246SOL    HW1 4184   0.724   1.243   9.628
 1246SOL    HW2 4185   0.861   1.327   9.652
 1247SOL     OW 4186   0.618   1.567  10.594
 1247SOL    HW1 4187   0.613   1.649  10.651
 1247SOL    HW2 4188   0.707   1.564  10.549
 1248SOL     OW 4189   1.352   0.052   9.478
 1248SOL    HW1 4190   1.387   0.011   9.394
 1248SOL    HW2 4191   1.262   0.014   9.498
 1249SOL     OW 4192   1.300   0.453  10.001
 1249SOL    HW1 4193   1.241   0.533  10.005
 1249SOL    HW2 4194   1.315   0.418  10.094
 1250SOL     OW 4195   1.593   0.221  10.192
 1250SOL    HW1 4196   1.509   0.220  10.246
 1250SOL    HW2 4197   1.595   0.304  10.136
 1251SOL     OW 4198   0.039   1.077   9.610
 1251SOL    HW1 4199   0.138   1.066   9.601
 1251SOL    HW2 4200  -0.001   0.991   9.642
 1252SOL     OW 4201   0.875   1.646   9.647
 1252SOL    HW1 4202   0.798   1.611   9.593
 1252SOL    HW2 4203   0.843   1.717   9.709
 1253SOL     OW 4204   0.230   0.628  11.285
 1253SOL    HW1 4205   0.137   0.626  11.322
 1253SOL    HW2 4206   0.231   0.589  11.193
 1254SOL     OW 4207   0.225   0.275  12.168
 1254SOL    HW1 4208   0.260   0.258  12.260
 1254SOL    HW2 4209   0.137   0.230  12.156
 1255SOL     OW 4210   0.019   0.368  11.819
 1255SOL    HW1 4211  -0.063   0.411  11.858
 1255SOL    HW2 4212  -0.009   0.295  11.756
 1256SOL     OW 4213   0.569   1.275  12.337
 1256SOL    HW1 4214   0.476   1.268  12.300
 1256SOL    HW2 4215   0.580   1.364  12.381
 1257SOL     OW 4216   1.555   1.511  11.875
 1257SOL    HW1 4217   1.498   1.495  11.956
 1257SOL    HW2 4218   1.496   1.521  11.795
 1258SOL     OW 4219   1.135   0.703  11.889
 1258SOL    HW1 4220   1.192   0.781  11.864
 1258SOL    HW2 4221   1.075   0.729  11.965
 1259SOL     OW 4222   1.755   0.607  11.403
 1259SOL    HW1 4223   1.743   0.594  11.304
 1259SOL    HW2 4224   1.725   0.526  11.452
 1260SOL     OW 4225   0.768   1.144  12.195
 1260SOL    HW1 4226   0.690   1.161  12.255
 1260SOL    HW2 4227   0.802   1.231  12.159
 1261SOL     OW 4228   0.850   0.798  12.995
 1261SOL    HW1 4229   0.846   0.874  13.060
 1261SOL    HW2 4230   0.872   0.834  12.904
 1262SOL     OW 4231   0.685   1.012  11.837
 1262SOL    HW1 4232   0.754   0.996  11.907
 1262SOL    HW2 4233   0.612   1.069  11.875
 1263SOL     OW 4234   0.686   1.161  12.975
 1263SOL    HW1 4235   0.746   1.240  12.989
 1263SOL    HW2 4236   0.600   1.192  12.934
 1264SOL     OW 4237   0.335   1.435  12.233
 1264SOL    HW1 4238   0.257   1.404  12.180
 1264SOL    HW2 4239   0.393   1.493  12.176
 1265SOL     OW 4240   1.460   1.505  12.511
 1265SOL    HW1 4241   1.484   1.599  12.537
 1265SOL    HW2 4242   1.444   1.451  12.593
 1266SOL     OW 4243   0.438   0.392  12.671
 1266SOL    HW1 4244   0.520   0.336  12.680
 1266SOL    HW2 4245   0.357   0.334  12.675
 1267SOL     OW 4246   1.603   0.447  11.909
 1267SOL    HW1 4247   1.529   0.493  11.859
 1267SOL    HW2 4248   1.654   0.515  11.962
 1268SOL     OW 4249   0.231   1.713  11.655
 1268SOL    HW1 4250   0.265   1.790  11.709
 1268SOL    HW2 4251   0.275   1.713  11.565
 1269SOL     OW 4252   1.127   1.341  12.862
 1269SOL    HW1 4253   1.174   1.341  12.950
 1269SOL    HW2 4254   1.079   1.254  12.851
 1270SOL     OW 4255   0.230   1.434  11.710
 1270SOL    HW1 4256   0.204   1.530  11.710
 1270SOL    HW2 4257   0.159   1.380  11.755
 1271SOL     OW 4258   0.240   1.091  12.058
 1271SOL    HW1 4259   0.254   1.007  12.110
 1271SOL    HW2 4260   0.185   1.155  12.113
 1272SOL     OW 4261   0.620   1.786  12.611
 1272SOL    HW1 4262   0.528   1.769  12.646
 1272SOL    HW2 4263   0.648   1.878  12.637
 1273SOL     OW 4264   0.606   0.964  11.295
 1273SOL    HW1 4265   0.613   1.048  11.241
 1273SOL    HW2 4266   0.652   0.977  11.383
 1274SOL     OW 4267   1.594   0.114  12.652
 1274SOL    HW1 4268   1.576   0.181  12.580
 1274SOL    HW2 4269   1.591   0.160  12.741
 1275SOL     OW 4270   0.122   0.643  11.735
 1275SOL    HW1 4271   0.077   0.555  11.752
 1275SOL    HW2 4272   0.121   0.697  11.819
 1276SOL     OW 4273   0.027   1.596  11.289
 1276SOL    HW1 4274   0.008   1.500  11.310
 1276SOL    HW2 4275  -0.006   1.654  11.364
 1277SOL     OW 4276   1.689   0.922  11.784
 1277SOL    HW1 4277   1.784   0.893  11.792
 1277SOL    HW2 4278   1.681   0.987  11.709
 1278SOL     OW 4279   1.641   1.108  11.604
 1278SOL    HW1 4280   1.727   1.110  11.552
 1278SOL    HW2 4281   1.655   1.155  11.692
 1279SOL     OW 4282   0.113   0.737  12.769
 1279SOL    HW1 4283   0.201   0.724  12.814
 1279SOL    HW2 4284   0.100   0.834  12.747
 1280SOL     OW 4285   0.613   1.365  11.898
 1280SOL    HW1 4286   0.564   1.278  11.907
 1280SOL    HW2 4287   0.590   1.408  11.811
 1281SOL     OW 4288   1.293   1.228  12.595
 1281SOL    HW1 4289   1.330   1.155  12.537
 1281SOL    HW2 4290   1.345   1.233  12.680
 1282SOL     OW 4291   0.809   0.004  11.674
 1282SOL    HW1 4292   0.849   0.095  11.665
 1282SOL    HW2 4293   0.709   0.012  11.680
 1283SOL     OW 4294   0.197   0.976  12.436
 1283SOL    HW1 4295   0.286   0.931  12.422
 1283SOL    HW2 4296   0.124   0.911  12.417
 1284SOL     OW 4297   1.525   0.999  11.362
 1284SOL    HW1 4298   1.462   0.923  11.375
 1284SOL    HW2 4299   1.573   1.017  11.448
 1285SOL     OW 4300   1.187   1.792  12.788
 1285SOL    HW1 4301   1.211   1.852  12.712
 1285SOL    HW2 4302   1.194   1.697  12.758
 1286SOL     OW 4303   0.317   0.251  12.973
 1286SOL    HW1 4304   0.388   0.322  12.979
 1286SOL    HW2 4305   0.229   0.290  13.001
 1287SOL     OW 4306   1.466   1.417  12.125
 1287SOL    HW1 4307   1.407   1.423  12.205
 1287SOL    HW2 4308   1.451   1.329  12.079
 1288SOL     OW 4309   1.667   1.714  11.744
 1288SOL    HW1 4310   1.626   1.691  11.656
 1288SOL    HW2 4311   1.649   1.640  11.809
 1289SOL     OW 4312   0.598   0.729  11.442
 1289SOL    HW1 4313   0.622   0.798  11.374
 1289SOL    HW2 4314   0.520   0.762  11.496
 1290SOL     OW 4315   1.281   0.345  12.116
 1290SOL    HW1 4316   1.195   0.295  12.103
 1290SOL    HW2 4317   1.343   0.291  12.172
 1291SOL     OW 4318   1.576   1.662  11.479
 1291SOL    HW1 4319   1.665   1.708  11.482
 1291SOL    HW2 4320   1.555   1.638  11.384
 1292SOL     OW 4321   0.807   0.605  12.637
 1292SOL    HW1 4322   0.760   0.602  12.726
 1292SOL    HW2 4323   0.756   0.550  12.571
 1293SOL     OW 4324   1.394   0.469  12.846
 1293SOL    HW1 4325   1.374   0.512  12.934
 1293SOL    HW2 4326   1.472   0.407  12.855
 1294SOL     OW 4327   0.973   0.890  12.744
 1294SOL    HW1 4328   1.019   0.806  12.715
 1294SOL    HW2 4329   0.917   0.924  12.669
 1295SOL     OW 4330   0.991   0.410  12.414
 1295SOL    HW1 4331   0.914   0.444  12.468
 1295SOL    HW2 4332   0.957   0.359  12.335
 1296SOL     OW 4333   1.041   0.701  11.601
 1296SOL    HW1 4334   1.067   0.697  11.697
 1296SOL    HW2 4335   0.956   0.650  11.587
 1297SOL     OW 4336   0.076   0.811  11.961
 1297SOL    HW1 4337   0.175   0.799  11.970
 1297SOL    HW2 4338   0.052   0.906  11.982
 1298SOL     OW 4339   0.130   1.821  12.743
 1298SOL    HW1 4340   0.120   1.806  12.842
 1298SOL    HW2 4341   0.044   1.857  12.707
 1299SOL     OW 4342   0.865   0.348  11.367
 1299SOL    HW1 4343   0.924   0.411  11.318
 1299SOL    HW2 4344   0.884   0.254  11.338
 1300SOL     OW 4345   1.719   0.585  13.003
 1300SOL    HW1 4346   1.693   0.674  12.967
 1300SOL    HW2 4347   1.717   0.517  12.930
 1301SOL     OW 4348   1.362   1.144  11.717
 1301SOL    HW1 4349   1.445   1.115  11.669
 1301SOL    HW2 4350   1.313   1.211  11.661
 1302SOL     OW 4351   0.550   0.196  12.057
 1302SOL    HW1 4352   0.545   0.191  12.157
 1302SOL    HW2 4353   0.552   0.292  12.028
 1303SOL     OW 4354   1.008   1.456  11.649
 1303SOL    HW1 4355   0.962   1.528  11.597
 1303SOL    HW2 4356   1.004   1.476  11.747
 1304SOL     OW 4357   0.351   1.801  12.025
 1304SOL    HW1 4358   0.401   1.715  12.031
 1304SOL    HW2 4359   0.416   1.878  12.022
 1305SOL     OW 4360   1.795   1.066  12.045
 1305SOL    HW1 4361   1.733   1.051  11.969
 1305SOL    HW2 4362   1.743   1.077  12.130
 1306SOL     OW 4363   1.227   1.550  12.678
 1306SOL    HW1 4364   1.233   1.473  12.742
 1306SOL    HW2 4365   1.175   1.524  12.598
 1307SOL     OW 4366   0.321   0.943  11.414
 1307SOL    HW1 4367   0.403   0.982  11.372
 1307SOL    HW2 4368   0.294   0.861  11.365
 1308SOL     OW 4369   1.458   0.735  11.900
 1308SOL    HW1 4370   1.453   0.670  11.975
 1308SOL    HW2 4371   1.538   0.794  11.913
 1309SOL     OW 4372   0.461   1.266  12.899
 1309SOL    HW1 4373   0.411   1.267  12.813
 1309SOL    HW2 4374   0.398   1.248  12.975
 1310SOL     OW 4375   1.111   1.776  11.409
 1310SOL    HW1 4376   1.051   1.714  11.459
 1310SOL    HW2 4377   1.142   1.732  11.324
 1311SOL     OW 4378   0.202   0.285  12.670
 1311SOL    HW1 4379   0.122   0.345  12.657
 1311SOL    HW2 4380   0.192   0.236  12.756
 1312SOL     OW 4381   1.632   1.377  11.253
 1312SOL    HW1 4382   1.600   1.471  11.243
 1312SOL    HW2 4383   1.556   1.314  11.241
 1313SOL     OW 4384   0.464   1.743  11.495
 1313SOL    HW1 4385   0.497   1.782  11.581
 1313SOL    HW2 4386   0.540   1.736  11.430
 1314SOL     OW 4387   1.400   0.107  11.598
 1314SOL    HW1 4388   1.376   0.070  11.508
 1314SOL    HW2 4389   1.499   0.123  11.602
 1315SOL     OW 4390   0.249   1.785  12.413
 1315SOL    HW1 4391   0.306   1.720  12.463
 1315SOL    HW2 4392   0.233   1.752  12.320
 1316SOL     OW 4393   0.940   1.698  12.076
 1316SOL    HW1 4394   1.020   1.641  12.097
 1316SOL    HW2 4395   0.891   1.658  11.999
 1317SOL     OW 4396   0.382   0.700  11.652
 1317SOL    HW1 4397   0.427   0.610  11.649
 1317SOL    HW2 4398   0.288   0.689  11.685
 1318SOL     OW 4399   1.547   0.222  12.901
 1318SOL    HW1 4400   1.542   0.259  12.993
 1318SOL    HW2 4401   1.475   0.153  12.889
 1319SOL     OW 4402   0.614   0.122  11.289
 1319SOL    HW1 4403   0.712   0.100  11.296
 1319SOL    HW2 4404   0.583   0.105  11.196
 1320SOL     OW 4405   0.781   0.264  12.921
 1320SOL    HW1 4406   0.848   0.203  12.964
 1320SOL    HW2 4407   0.708   0.283  12.986
 1321SOL     OW 4408   0.888   1.514  12.367
 1321SOL    HW1 4409   0.865   1.489  12.273
 1321SOL    HW2 4410   0.949   1.445  12.406
 1322SOL     OW 4411   1.351   0.590  12.605
 1322SOL    HW1 4412   1.379   0.547  12.690
 1322SOL    HW2 4413   1.376   0.686  12.606
 1323SOL     OW 4414   0.803   1.402  12.096
 1323SOL    HW1 4415   0.893   1.416  12.054
 1323SOL    HW2 4416   0.732   1.404  12.025
 1324SOL     OW 4417   0.922   0.503  12.071
 1324SOL    HW1 4418   0.897   0.494  11.975
 1324SOL    HW2 4419   0.970   0.421  12.102
 1325SOL     OW 4420   0.539   0.064  11.684
 1325SOL    HW1 4421   0.458   0.065  11.742
 1325SOL    HW2 4422   0.542   0.147  11.629
 1326SOL     OW 4423   1.434   1.188  11.213
 1326SOL    HW1 4424   1.466   1.112  11.270
 1326SOL    HW2 4425   1.342   1.215  11.243
 1327SOL     OW 4426   0.297   0.035  11.343
 1327SOL    HW1 4427   0.346   0.119  11.322
 1327SOL    HW2 4428   0.359  -0.030  11.388
 1328SOL     OW 4429   0.935   0.236  11.652
 1328SOL    HW1 4430   0.887   0.277  11.574
 1328SOL    HW2 4431   1.034   0.234  11.633
 1329SOL     OW 4432   1.076   0.683  12.636
 1329SOL    HW1 4433   0.996   0.622  12.639
 1329SOL    HW2 4434   1.157   0.630  12.612
 1330SOL     OW 4435   1.227   1.570  11.965
 1330SOL    HW1 4436   1.248   1.644  11.900
 1330SOL    HW2 4437   1.295   1.570  12.038
 1331SOL     OW 4438   0.459   1.152  11.913
 1331SOL    HW1 4439   0.388   1.125  11.978
 1331SOL    HW2 4440   0.433   1.124  11.820
 1332SOL     OW 4441   1.271   1.797  11.763
 1332SOL    HW1 4442   1.315   1.861  11.699
 1332SOL    HW2 4443   1.221   1.849  11.833
 1333SOL     OW 4444   1.032   0.549  11.188
 1333SOL    HW1 4445   0.991   0.631  11.149
 1333SOL    HW2 4446   1.096   0.575  11.261
 1334SOL     OW 4447   0.078   0.556  12.558
 1334SOL    HW1 4448   0.170   0.555  12.517
 1334SOL    HW2 4449   0.072   0.630  12.625
 1335SOL     OW 4450   0.561   0.222  12.319
 1335SOL    HW1 4451   0.599   0.138  12.356
 1335SOL    HW2 4452   0.473   0.241  12.363
 1336SOL     OW 4453   0.866   0.454  11.814
 1336SOL    HW1 4454   0.834   0.526  11.752
 1336SOL    HW2 4455   0.890   0.373  11.761
 1337SOL     OW 4456   1.017   0.039  11.925
 1337SOL    HW1 4457   0.945   0.044  11.856
 1337SOL    HW2 4458   0.993  -0.030  11.994
 1338SOL     OW 4459   1.429   1.173  12.039
 1338SOL    HW1 4460   1.374   1.089  12.032
 1338SOL    HW2 4461   1.455   1.202  11.947
 1339SOL     OW 4462   1.466   0.590  12.164
 1339SOL    HW1 4463   1.436   0.495  12.171
 1339SOL    HW2 4464   1.539   0.606  12.230
 1340SOL     OW 4465   1.857   0.833  11.549
 1340SOL    HW1 4466   1.899   0.769  11.613
 1340SOL    HW2 4467   1.819   0.782  11.471
 1341SOL     OW 4468   0.488   1.385  11.346
 1341SOL    HW1 4469   0.401   1.370  11.393
 1341SOL    HW2 4470   0.471   1.411  11.251
 1342SOL     OW 4471   1.664   1.280  11.829
 1342SOL    HW1 4472   1.763   1.288  11.843
 1342SOL    HW2 4473   1.619   1.364  11.860
 1343SOL     OW 4474   1.390   0.575  11.250
 1343SOL    HW1 4475   1.336   0.554  11.331
 1343SOL    HW2 4476   1.481   0.534  11.259
 1344SOL     OW 4477   0.527   0.256  11.500
 1344SOL    HW1 4478   0.554   0.197  11.425
 1344SOL    HW2 4479   0.527   0.351  11.469
 1345SOL     OW 4480   1.754   1.223  12.760
 1345SOL    HW1 4481   1.845   1.184  12.747
 1345SOL    HW2 4482   1.762   1.319  12.784
 1346SOL     OW 4483   1.064   1.347  12.512
 1346SOL    HW1 4484   0.984   1.324  12.567
 1346SOL    HW2 4485   1.147   1.321  12.561
 1347SOL     OW 4486   1.592   1.629  12.797
 1347SOL    HW1 4487   1.619   1.663  12.707
 1347SOL    HW2 4488   1.671   1.591  12.843
 1348SOL     OW 4489   1.111   1.195  12.272
 1348SOL    HW1 4490   1.071   1.239  12.353
 1348SOL    HW2 4491   1.070   1.232  12.189
 1349SOL     OW 4492   1.638   1.099  12.251
 1349SOL    HW1 4493   1.643   1.180  12.310
 1349SOL    HW2 4494   1.552   1.101  12.200
 1350SOL     OW 4495   0.915   0.089  12.574
 1350SOL    HW1 4496   0.940   0.069  12.479
 1350SOL    HW2 4497   0.987   0.145  12.616
 1351SOL     OW 4498   0.980   1.116  12.891
 1351SOL    HW1 4499   0.881   1.122  12.901
 1351SOL    HW2 4500   1.003   1.036  12.835
 1352SOL     OW 4501   0.705   1.050  11.540
 1352SOL    HW1 4502   0.691   1.057  11.639
 1352SOL    HW2 4503   0.789   0.999  11.522
 1353SOL     OW 4504   0.410   0.813  12.423
 1353SOL    HW1 4505   0.496   0.825  12.473
 1353SOL    HW2 4506   0.368   0.726  12.450
 1354SOL     OW 4507   1.274   0.386  12.434
 1354SOL    HW1 4508   1.295   0.460  12.498
 1354SOL    HW2 4509   1.185   0.403  12.391
 1355SOL     OW 4510   0.064   1.564  12.503
 1355SOL    HW1 4511   0.018   1.646  12.469
 1355SOL    HW2 4512   0.162   1.583  12.512
 1356SOL     OW 4513   0.367   1.100  11.673
 1356SOL    HW1 4514   0.360   1.183  11.617
 1356SOL    HW2 4515   0.371   1.020  11.613
 1357SOL     OW 4516   0.566   0.537  12.037
 1357SOL    HW1 4517   0.578   0.603  11.963
 1357SOL    HW2 4518   0.612   0.571  12.120
 1358SOL     OW 4519   1.252   1.348  11.560
 1358SOL    HW1 4520   1.302   1.425  11.600
 1358SOL    HW2 4521   1.157   1.350  11.592
 1359SOL     OW 4522   1.272   1.445  12.314
 1359SOL    HW1 4523   1.319   1.458  12.401
 1359SOL    HW2 4524   1.206   1.371  12.323
 1360SOL     OW 4525   1.582   0.639  11.644
 1360SOL    HW1 4526   1.551   0.700  11.717
 1360SOL    HW2 4527   1.632   0.691  11.575
 1361SOL     OW 4528   0.354   1.510  12.501
 1361SOL    HW1 4529   0.333   1.466  12.414
 1361SOL    HW2 4530   0.451   1.536  12.504
 1362SOL     OW 4531   0.402   0.751  12.770
 1362SOL    HW1 4532   0.470   0.806  12.723
 1362SOL    HW2 4533   0.442   0.663  12.797
 1363SOL     OW 4534   1.587   0.779  12.842
 1363SOL    HW1 4535   1.495   0.817  12.837
 1363SOL    HW2 4536   1.647   0.826  12.777
 1364SOL     OW 4537   1.013   0.105  12.942
 1364SOL    HW1 4538   1.019   0.190  12.890
 1364SOL    HW2 4539   1.045   0.029  12.885
 1365SOL     OW 4540   0.504   0.050  12.912
 1365SOL    HW1 4541   0.462  -0.007  12.842
 1365SOL    HW2 4542   0.438   0.119  12.944
 1366SOL     OW 4543   0.573   0.870  12.201
 1366SOL    HW1 4544   0.617   0.959  12.192
 1366SOL    HW2 4545   0.510   0.870  12.278
 1367SOL     OW 4546   1.360   0.862  12.217
 1367SOL    HW1 4547   1.285   0.862  12.151
 1367SOL    HW2 4548   1.397   0.770  12.226
 1368SOL     OW 4549   1.209   0.525  11.447
 1368SOL    HW1 4550   1.222   0.441  11.501
 1368SOL    HW2 4551   1.180   0.599  11.507
 1369SOL     OW 4552   0.307   0.213  12.403
 1369SOL    HW1 4553   0.284   0.250  12.493
 1369SOL    HW2 4554   0.277   0.118  12.397
 1370SOL     OW 4555   0.037   1.310  12.454
 1370SOL    HW1 4556   0.090   1.261  12.522
 1370SOL    HW2 4557   0.059   1.408  12.459
 1371SOL     OW 4558   0.732   0.634  12.236
 1371SOL    HW1 4559   0.791   0.608  12.160
 1371SOL    HW2 4560   0.704   0.730  12.225
 1372SOL     OW 4561   1.728   0.935  13.026
 1372SOL    HW1 4562   1.682   0.928  12.937
 1372SOL    HW2 4563   1.666   0.979  13.092
 1373SOL     OW 4564   0.307   0.063  11.790
 1373SOL    HW1 4565   0.296   0.157  11.823
 1373SOL    HW2 4566   0.302   0.000  11.867
 1374SOL     OW 4567   1.622   0.367  11.546
 1374SOL    HW1 4568   1.624   0.291  11.610
 1374SOL    HW2 4569   1.574   0.444  11.586
 1375SOL     OW 4570   1.023   0.766  12.138
 1375SOL    HW1 4571   1.038   0.787  12.234
 1375SOL    HW2 4572   0.993   0.671  12.129
 1376SOL     OW 4573   0.980   1.573  12.872
 1376SOL    HW1 4574   0.960   1.617  12.784
 1376SOL    HW2 4575   1.019   1.482  12.856
 1377SOL     OW 4576   1.859   1.518  12.777
 1377SOL    HW1 4577   1.873   1.545  12.682
 1377SOL    HW2 4578   1.942   1.540  12.830
 1378SOL     OW 4579   0.350   0.898  12.976
 1378SOL    HW1 4580   0.426   0.942  13.024
 1378SOL    HW2 4581   0.385   0.851  12.894
 1379SOL     OW 4582   1.540   0.274  11.297
 1379SOL    HW1 4583   1.479   0.199  11.320
 1379SOL    HW2 4584   1.562   0.326  11.380
 1380SOL     OW 4585   1.303   0.838  11.214
 1380SOL    HW1 4586   1.337   0.745  11.229
 1380SOL    HW2 4587   1.321   0.865  11.119
 1381SOL     OW 4588   1.068   1.333  12.021
 1381SOL    HW1 4589   1.075   1.249  11.966
 1381SOL    HW2 4590   1.130   1.402  11.985
 1382SOL     OW 4591   0.319   0.810  12.121
 1382SOL    HW1 4592   0.412   0.846  12.126
 1382SOL    HW2 4593   0.313   0.725  12.173
 1383SOL     OW 4594   0.339   0.509  12.178
 1383SOL    HW1 4595   0.287   0.426  12.161
 1383SOL    HW2 4596   0.416   0.514  12.114
 1384SOL     OW 4597   1.138   0.380  12.850
 1384SOL    HW1 4598   1.093   0.443  12.914
 1384SOL    HW2 4599   1.231   0.411  12.833
 1385SOL     OW 4600   1.160   0.207  12.649
 1385SOL    HW1 4601   1.160   0.271  12.726
 1385SOL    HW2 4602   1.188   0.255  12.566
 1386SOL     OW 4603   0.008   1.326  11.372
 1386SOL    HW1 4604  -0.085   1.347  11.341
 1386SOL    HW2 4605   0.018   1.227  11.385
 1387SOL     OW 4606   0.088   1.801  12.099
 1387SOL    HW1 4607   0.046   1.715  12.072
 1387SOL    HW2 4608   0.182   1.804  12.065
 1388SOL     OW 4609   0.504   1.568  12.082
 1388SOL    HW1 4610   0.570   1.642  12.091
 1388SOL    HW2 4611   0.548   1.489  12.040
 1389SOL     OW 4612   1.002   0.796  12.410
 1389SOL    HW1 4613   1.043   0.764  12.496
 1389SOL    HW2 4614   0.906   0.769  12.407
 1390SOL     OW 4615   0.040   0.544  12.286
 1390SOL    HW1 4616   0.125   0.511  12.245
 1390SOL    HW2 4617   0.053   0.559  12.384
 1391SOL     OW 4618   0.189   0.520  12.894
 1391SOL    HW1 4619   0.248   0.480  12.824
 1391SOL    HW2 4620   0.131   0.591  12.853
 1392SOL     OW 4621   1.369   0.950  12.832
 1392SOL    HW1 4622   1.408   1.039  12.852
 1392SOL    HW2 4623   1.379   0.930  12.735
 1393SOL     OW 4624   0.815   0.572  11.497
 1393SOL    HW1 4625   0.822   0.483  11.451
 1393SOL    HW2 4626   0.721   0.606  11.489
 1394SOL     OW 4627   1.657   0.604  12.378
 1394SOL    HW1 4628   1.619   0.535  12.440
 1394SOL    HW2 4629   1.739   0.568  12.334
 1395SOL     OW 4630   0.252   1.564  12.916
 1395SOL    HW1 4631   0.222   1.621  12.992
 1395SOL    HW2 4632   0.245   1.467  12.942
 1396SOL     OW 4633   0.671   0.464  12.441
 1396SOL    HW1 4634   0.637   0.375  12.411
 1396SOL    HW2 4635   0.697   0.518  12.361
 1397SOL     OW 4636   0.930   1.678  12.637
 1397SOL    HW1 4637   0.906   1.660  12.542
 1397SOL    HW2 4638   0.960   1.772  12.647
 1398SOL     OW 4639   0.473   0.500  11.363
 1398SOL    HW1 4640   0.534   0.580  11.367
 1398SOL    HW2 4641   0.378   0.531  11.370
 1399SOL     OW 4642   0.159   1.137  12.638
 1399SOL    HW1 4643   0.181   1.076  12.714
 1399SOL    HW2 4644   0.169   1.088  12.552
 1400SOL     OW 4645   1.347   1.059  12.406
 1400SOL    HW1 4646   1.371   0.996  12.332
 1400SOL    HW2 4647   1.257   1.099  12.388
 1401SOL     OW 4648   1.302   0.855  11.481
 1401SOL    HW1 4649   1.216   0.824  11.523
 1401SOL    HW2 4650   1.298   0.841  11.382
 1402SOL     OW 4651   1.759   1.747  12.326
 1402SOL    HW1 4652   1.820   1.777  12.253
 1402SOL    HW2 4653   1.721   1.658  12.304
 1403SOL     OW 4654   1.252   1.731  12.300
 1403SOL    HW1 4655   1.336   1.736  12.246
 1403SOL    HW2 4656   1.229   1.635  12.318
 1404SOL     OW 4657   0.083   1.258  12.194
 1404SOL    HW1 4658   0.078   1.257  12.294
 1404SOL    HW2 4659   0.000   1.217  12.156
 1405SOL     OW 4660   0.688   1.662  12.888
 1405SOL    HW1 4661   0.632   1.743  12.897
 1405SOL    HW2 4662   0.740   1.666  12.802
 1406SOL     OW 4663   1.726   0.135  11.695
 1406SOL    HW1 4664   1.799   0.118  11.628
 1406SOL    HW2 4665   1.695   0.048  11.733
 1407SOL     OW 4666   1.388   1.573  11.649
 1407SOL    HW1 4667   1.455   1.585  11.575
 1407SOL    HW2 4668   1.348   1.662  11.672
 1408SOL     OW 4669   0.130   1.794  13.023
 1408SOL    HW1 4670   0.089   1.720  13.076
 1408SOL    HW2 4671   0.194   1.845  13.081
 1409SOL     OW 4672   1.280   0.927  11.844
 1409SOL    HW1 4673   1.340   0.846  11.846
 1409SOL    HW2 4674   1.320   0.996  11.784
 1410SOL     OW 4675   0.830   1.273  12.594
 1410SOL    HW1 4676   0.825   1.306  12.689
 1410SOL    HW2 4677   0.744   1.292  12.548
 1411SOL     OW 4678   0.672   1.616  11.326
 1411SOL    HW1 4679   0.681   1.626  11.227
 1411SOL    HW2 4680   0.632   1.527  11.347
 1412SOL     OW 4681   1.650   1.720  12.566
 1412SOL    HW1 4682   1.703   1.730  12.482
 1412SOL    HW2 4683   1.623   1.810  12.600
 1413SOL     OW 4684   1.841   0.175  12.135
 1413SOL    HW1 4685   1.880   0.090  12.099
 1413SOL    HW2 4686   1.743   0.177  12.116
 1414SOL     OW 4687   0.263   0.326  11.892
 1414SOL    HW1 4688   0.184   0.377  11.858
 1414SOL    HW2 4689   0.254   0.311  11.990
 1415SOL     OW 4690   1.194   1.612  11.203
 1415SOL    HW1 4691   1.200   1.519  11.240
 1415SOL    HW2 4692   1.135   1.612  11.123
 1416SOL     OW 4693   0.822   1.002  12.544
 1416SOL    HW1 4694   0.862   1.001  12.452
 1416SOL    HW2 4695   0.832   1.094  12.584
 1417SOL     OW 4696   0.916   0.910  11.463
 1417SOL    HW1 4697   0.979   0.948  11.395
 1417SOL    HW2 4698   0.956   0.827  11.502
 1418SOL     OW 4699   1.504   1.607  11.216
 1418SOL    HW1 4700   1.412   1.644  11.223
 1418SOL    HW2 4701   1.542   1.627  11.126
 1419SOL     OW 4702   0.372   1.288  12.662
 1419SOL    HW1 4703   0.359   1.381  12.628
 1419SOL    HW2 4704   0.288   1.236  12.649
 1420SOL     OW 4705   1.614   1.292  12.461
 1420SOL    HW1 4706   1.674   1.295  12.541
 1420SOL    HW2 4707   1.539   1.356  12.474
 1421SOL     OW 4708   1.039   1.098  11.868
 1421SOL    HW1 4709   0.969   1.051  11.922
 1421SOL    HW2 4710   1.098   1.030  11.825
 1422SOL     OW 4711   1.014   0.236  12.143
 1422SOL    HW1 4712   1.006   0.200  12.050
 1422SOL    HW2 4713   1.012   0.160  12.208
 1423SOL     OW 4714   0.590   1.487  11.663
 1423SOL    HW1 4715   0.632   1.429  11.593
 1423SOL    HW2 4716   0.546   1.566  11.619
 1424SOL     OW 4717   1.709   0.385  12.553
 1424SOL    HW1 4718   1.782   0.454  12.557
 1424SOL    HW2 4719   1.737   0.310  12.494
 1425SOL     OW 4720   0.255   1.348  11.462
 1425SOL    HW1 4721   0.159   1.349  11.435
 1425SOL    HW2 4722   0.267   1.401  11.546
 1426SOL     OW 4723   0.105   1.013  12.898
 1426SOL    HW1 4724   0.028   0.980  12.952
 1426SOL    HW2 4725   0.190   0.983  12.940
 1427SOL     OW 4726   0.672   0.203  12.661
 1427SOL    HW1 4727   0.762   0.187  12.621
 1427SOL    HW2 4728   0.680   0.208  12.760
 1428SOL     OW 4729   0.075   0.345  11.205
 1428SOL    HW1 4730  -0.017   0.317  11.176
 1428SOL    HW2 4731   0.106   0.422  11.149
 1429SOL     OW 4732   1.440   0.856  12.570
 1429SOL    HW1 4733   1.383   0.908  12.507
 1429SOL    HW2 4734   1.536   0.868  12.546
 1430SOL     OW 4735   0.072   0.166  11.490
 1430SOL    HW1 4736   0.055   0.249  11.436
 1430SOL    HW2 4737   0.162   0.129  11.468
 1431SOL     OW 4738   1.183   1.335  11.291
 1431SOL    HW1 4739   1.084   1.324  11.293
 1431SOL    HW2 4740   1.217   1.350  11.384
 1432SOL     OW 4741   0.613   0.842  12.603
 1432SOL    HW1 4742   0.669   0.923  12.586
 1432SOL    HW2 4743   0.672   0.762  12.606
 1433SOL     OW 4744   1.493   1.767  12.131
 1433SOL    HW1 4745   1.526   1.831  12.062
 1433SOL    HW2 4746   1.559   1.761  12.206
 1434SOL     OW 4747   0.716   0.565  12.880
 1434SOL    HW1 4748   0.735   0.630  12.954
 1434SOL    HW2 4749   0.776   0.485  12.889
 1435SOL     OW 4750   1.450   1.220  12.805
 1435SOL    HW1 4751   1.441   1.210  12.904
 1435SOL    HW2 4752   1.546   1.213  12.779
 1436SOL     OW 4753   0.390   1.741  12.732
 1436SOL    HW1 4754   0.299   1.782  12.730
 1436SOL    HW2 4755   0.383   1.647  12.764
 1437SOL     OW 4756   1.674   0.883  12.426
 1437SOL    HW1 4757   1.647   0.794  12.389
 1437SOL    HW2 4758   1.675   0.951  12.353
 1438SOL     OW 4759   1.225   0.325  11.621
 1438SOL    HW1 4760   1.290   0.251  11.610
 1438SOL    HW2 4761   1.245   0.375  11.705
 1439SOL     OW 4762   0.594   0.745  11.824
 1439SOL    HW1 4763   0.644   0.830  11.805
 1439SOL    HW2 4764   0.506   0.747  11.776
 1440SOL     OW 4765   1.777   0.342  12.814
 1440SOL    HW1 4766   1.760   0.373  12.720
 1440SOL    HW2 4767   1.693   0.305  12.852
 1441SOL     OW 4768   1.730   0.934  12.689
 1441SOL    HW1 4769   1.768   1.025  12.704
 1441SOL    HW2 4770   1.722   0.917  12.590
 1442SOL     OW 4771   0.859   1.374  11.188
 1442SOL    HW1 4772   0.813   1.389  11.276
 1442SOL    HW2 4773   0.903   1.459  11.158
 1443SOL     OW 4774   0.661   1.790  12.125
 1443SOL    HW1 4775   0.615   1.878  12.112
 1443SOL    HW2 4776   0.760   1.802  12.118
 1444SOL     OW 4777   0.859   0.956  12.033
 1444SOL    HW1 4778   0.913   0.887  12.081
 1444SOL    HW2 4779   0.827   1.025  12.099
 1445SOL     OW 4780   1.083   0.984  11.259
 1445SOL    HW1 4781   1.060   1.037  11.177
 1445SOL    HW2 4782   1.164   0.928  11.240
 1446SOL     OW 4783   1.861   1.569  12.023
 1446SOL    HW1 4784   1.790   1.557  11.953
 1446SOL    HW2 4785   1.862   1.490  12.083
 1447SOL     OW 4786   0.221   1.314  13.016
 1447SOL    HW1 4787   0.156   1.241  12.995
 1447SOL    HW2 4788   0.225   1.328  13.114
 1448SOL     OW 4789   0.079   1.240  11.825
 1448SOL    HW1 4790   0.078   1.193  11.913
 1448SOL    HW2 4791   0.161   1.212  11.774
 1449SOL     OW 4792   0.672   1.391  12.796
 1449SOL    HW1 4793   0.594   1.341  12.834
 1449SOL    HW2 4794   0.669   1.486  12.827
 1450SOL     OW 4795   1.824   0.192  12.399
 1450SOL    HW1 4796   1.820   0.102  12.443
 1450SOL    HW2 4797   1.827   0.181  12.300
 1451SOL     OW 4798   0.428   0.424  11.692
 1451SOL    HW1 4799   0.458   0.352  11.630
 1451SOL    HW2 4800   0.389   0.384  11.775
 1452SOL     OW 4801   1.705   1.487  12.276
 1452SOL    HW1 4802   1.612   1.462  12.249
 1452SOL    HW2 4803   1.731   1.437  12.358
 1453SOL     OW 4804   0.317   0.547  12.452
 1453SOL    HW1 4805   0.355   0.488  12.524
 1453SOL    HW2 4806   0.357   0.521  12.364
 1454SOL     OW 4807   0.812   1.586  11.859
 1454SOL    HW1 4808   0.844   1.596  11.765
 1454SOL    HW2 4809   0.733   1.524  11.861
 1455SOL     OW 4810   1.424   0.214  12.284
 1455SOL    HW1 4811   1.476   0.149  12.339
 1455SOL    HW2 4812   1.375   0.277  12.345
 1456SOL     OW 4813   1.001   0.034  12.326
 1456SOL    HW1 4814   0.938  -0.038  12.295
 1456SOL    HW2 4815   1.094  -0.002  12.326
 1457SOL     OW 4816   0.770   1.330  11.473
 1457SOL    HW1 4817   0.724   1.243  11.490
 1457SOL    HW2 4818   0.861   1.327  11.514
 1458SOL     OW 4819   0.618   1.567  12.456
 1458SOL    HW1 4820   0.613   1.649  12.513
 1458SOL    HW2 4821   0.707   1.564  12.411
 1459SOL     OW 4822   1.352   0.052  11.340
 1459SOL    HW1 4823   1.387   0.011  11.256
 1459SOL    HW2 4824   1.262   0.014  11.360
 1460SOL     OW 4825   1.300   0.453  11.863
 1460SOL    HW1 4826   1.241   0.533  11.867
 1460SOL    HW2 4827   1.315   0.418  11.956
 1461SOL     OW 4828   1.593   0.221  12.054
 1461SOL    HW1 4829   1.509   0.220  12.108
 1461SOL    HW2 4830   1.595   0.304  11.998
 1462SOL     OW 4831   0.039   1.077  11.472
 1462SOL    HW1 4832   0.138   1.066  11.463
 1462SOL    HW2 4833  -0.001   0.991  11.504
 1463SOL     OW 4834   0.875   1.646  11.509
 1463SOL    HW1 4835   0.798   1.611  11.455
 1463SOL    HW2 4836   0.843   1.717  11.571
 1464SOL     OW 4837   0.230   0.628  13.147
 1464SOL    HW1 4838   0.137   0.626  13.184
 1464SOL    HW2 4839   0.231   0.589  13.055
 1465SOL     OW 4840   0.225   0.275  14.030
 1465SOL    HW1 4841   0.260   0.258  14.122
 1465SOL    HW2 4842   0.137   0.230  14.018
 1466SOL     OW 4843   0.019   0.368  13.681
 1466SOL    HW1 4844  -0.063   0.411  13.720
 1466SOL    HW2 4845  -0.009   0.295  13.618
 1467SOL     OW 4846   1.555   1.511  13.737
 1467SOL    HW1 4847   1.498   1.495  13.818
 1467SOL    HW2 4848   1.496   1.521  13.657
 1468SOL     OW 4849   1.135   0.703  13.751
 1468SOL    HW1 4850   1.192   0.781  13.726
 1468SOL    HW2 4851   1.075   0.729  13.827
 1469SOL     OW 4852   1.755   0.607  13.265
 1469SOL    HW1 4853   1.743   0.594  13.166
 1469SOL    HW2 4854   1.725   0.526  13.314
 1470SOL     OW 4855   0.685   1.012  13.699
 1470SOL    HW1 4856   0.754   0.996  13.769
 1470SOL    HW2 4857   0.612   1.069  13.737
 1471SOL     OW 4858   1.603   0.447  13.771
 1471SOL    HW1 4859   1.529   0.493  13.721
 1471SOL    HW2 4860   1.654   0.515  13.824
 1472SOL     OW 4861   0.231   1.713  13.517
 1472SOL    HW1 4862   0.265   1.790  13.571
 1472SOL    HW2 4863   0.275   1.713  13.427
 1473SOL     OW 4864   0.230   1.434  13.572
 1473SOL    HW1 4865   0.204   1.530  13.572
 1473SOL    HW2 4866   0.159   1.380  13.617
 1474SOL     OW 4867   0.240   1.091  13.920
 1474SOL    HW1 4868   0.254   1.007  13.972
 1474SOL    HW2 4869   0.185   1.155  13.975
 1475SOL     OW 4870   0.606   0.964  13.157
 1475SOL    HW1 4871   0.613   1.048  13.103
 1475SOL    HW2 4872   0.652   0.977  13.245
 1476SOL     OW 4873   0.122   0.643  13.597
 1476SOL    HW1 4874   0.077   0.555  13.614
 1476SOL    HW2 4875   0.121   0.697  13.681
 1477SOL     OW 4876   0.027   1.596  13.151
 1477SOL    HW1 4877   0.008   1.500  13.172
 1477SOL    HW2 4878  -0.006   1.654  13.226
 1478SOL     OW 4879   1.689   0.922  13.646
 1478SOL    HW1 4880   1.784   0.893  13.654
 1478SOL    HW2 4881   1.681   0.987  13.571
 1479SOL     OW 4882   1.641   1.108  13.466
 1479SOL    HW1 4883   1.727   1.110  13.414
 1479SOL    HW2 4884   1.655   1.155  13.554
 1480SOL     OW 4885   0.613   1.365  13.760
 1480SOL    HW1 4886   0.564   1.278  13.769
 1480SOL    HW2 4887   0.590   1.408  13.673
 1481SOL     OW 4888   0.809   0.004  13.536
 1481SOL    HW1 4889   0.849   0.095  13.527
 1481SOL    HW2 4890   0.709   0.012  13.542
 1482SOL     OW 4891   1.525   0.999  13.224
 1482SOL    HW1 4892   1.462   0.923  13.237
 1482SOL    HW2 4893   1.573   1.017  13.310
 1483SOL     OW 4894   1.667   1.714  13.606
 1483SOL    HW1 4895   1.626   1.691  13.518
 1483SOL    HW2 4896   1.649   1.640  13.671
 1484SOL     OW 4897   0.598   0.729  13.304
 1484SOL    HW1 4898   0.622   0.798  13.236
 1484SOL    HW2 4899   0.520   0.762  13.358
 1485SOL     OW 4900   1.281   0.345  13.978
 1485SOL    HW1 4901   1.195   0.295  13.965
 1485SOL    HW2 4902   1.343   0.291  14.034
 1486SOL     OW 4903   1.576   1.662  13.341
 1486SOL    HW1 4904   1.665   1.708  13.344
 1486SOL    HW2 4905   1.555   1.638  13.246
 1487SOL     OW 4906   1.041   0.701  13.463
 1487SOL    HW1 4907   1.067   0.697  13.559
 1487SOL    HW2 4908   0.956   0.650  13.449
 1488SOL     OW 4909   0.076   0.811  13.823
 1488SOL    HW1 4910   0.175   0.799  13.832
 1488SOL    HW2 4911   0.052   0.906  13.844
 1489SOL     OW 4912   0.865   0.348  13.229
 1489SOL    HW1 4913   0.924   0.411  13.180
 1489SOL    HW2 4914   0.884   0.254  13.200
 1490SOL     OW 4915   1.362   1.144  13.579
 1490SOL    HW1 4916   1.445   1.115  13.531
 1490SOL    HW2 4917   1.313   1.211  13.523
 1491SOL     OW 4918   1.008   1.456  13.511
 1491SOL    HW1 4919   0.962   1.528  13.459
 1491SOL    HW2 4920   1.004   1.476  13.609
 1492SOL     OW 4921   0.351   1.801  13.887
 1492SOL    HW1 4922   0.401   1.715  13.893
 1492SOL    HW2 4923   0.416   1.878  13.884
 1493SOL     OW 4924   1.795   1.066  13.907
 1493SOL    HW1 4925   1.733   1.051  13.831
 1493SOL    HW2 4926   1.743   1.077  13.992
 1494SOL     OW 4927   0.321   0.943  13.276
 1494SOL    HW1 4928   0.403   0.982  13.234
 1494SOL    HW2 4929   0.294   0.861  13.227
 1495SOL     OW 4930   1.458   0.735  13.762
 1495SOL    HW1 4931   1.453   0.670  13.837
 1495SOL    HW2 4932   1.538   0.794  13.775
 1496SOL     OW 4933   1.111   1.776  13.271
 1496SOL    HW1 4934   1.051   1.714  13.321
 1496SOL    HW2 4935   1.142   1.732  13.186
 1497SOL     OW 4936   1.632   1.377  13.115
 1497SOL    HW1 4937   1.600   1.471  13.105
 1497SOL    HW2 4938   1.556   1.314  13.103
 1498SOL     OW 4939   0.464   1.743  13.357
 1498SOL    HW1 4940   0.497   1.782  13.443
 1498SOL    HW2 4941   0.540   1.736  13.292
 1499SOL     OW 4942   1.400   0.107  13.460
 1499SOL    HW1 4943   1.376   0.070  13.370
 1499SOL    HW2 4944   1.499   0.123  13.464
 1500SOL     OW 4945   0.940   1.698  13.938
 1500SOL    HW1 4946   1.020   1.641  13.959
 1500SOL    HW2 4947   0.891   1.658  13.861
 1501SOL     OW 4948   0.382   0.700  13.514
 1501SOL    HW1 4949   0.427   0.610  13.511
 1501SOL    HW2 4950   0.288   0.689  13.547
 1502SOL     OW 4951   0.614   0.122  13.151
 1502SOL    HW1 4952   0.712   0.100  13.158
 1502SOL    HW2 4953   0.583   0.105  13.058
 1503SOL     OW 4954   0.539   0.064  13.546
 1503SOL    HW1 4955   0.458   0.065  13.604
 1503SOL    HW2 4956   0.542   0.147  13.491
 1504SOL     OW 4957   1.434   1.188  13.075
 1504SOL    HW1 4958   1.466   1.112  13.132
 1504SOL    HW2 4959   1.342   1.215  13.105
 1505SOL     OW 4960   0.297   0.035  13.205
 1505SOL    HW1 4961   0.346   0.119  13.184
 1505SOL    HW2 4962   0.359  -0.030  13.250
 1506SOL     OW 4963   0.935   0.236  13.514
 1506SOL    HW1 4964   0.887   0.277  13.436
 1506SOL    HW2 4965   1.034   0.234  13.495
 1507SOL     OW 4966   0.459   1.152  13.775
 1507SOL    HW1 4967   0.388   1.125  13.840
 1507SOL    HW2 4968   0.433   1.124  13.682
 1508SOL     OW 4969   1.271   1.797  13.625
 1508SOL    HW1 4970   1.315   1.861  13.561
 1508SOL    HW2 4971   1.221   1.849  13.695
 1509SOL     OW 4972   1.032   0.549  13.050
 1509SOL    HW1 4973   0.991   0.631  13.011
 1509SOL    HW2 4974   1.096   0.575  13.123
 1510SOL     OW 4975   0.866   0.454  13.676
 1510SOL    HW1 4976   0.834   0.526  13.614
 1510SOL    HW2 4977   0.890   0.373  13.623
 1511SOL     OW 4978   1.017   0.039  13.787
 1511SOL    HW1 4979   0.945   0.044  13.718
 1511SOL    HW2 4980   0.993  -0.030  13.856
 1512SOL     OW 4981   1.857   0.833  13.411
 1512SOL    HW1 4982   1.899   0.769  13.475
 1512SOL    HW2 4983   1.819   0.782  13.333
 1513SOL     OW 4984   0.488   1.385  13.208
 1513SOL    HW1 4985   0.401   1.370  13.255
 1513SOL    HW2 4986   0.471   1.411  13.113
 1514SOL     OW 4987   1.664   1.280  13.691
 1514SOL    HW1 4988   1.763   1.288  13.705
 1514SOL    HW2 4989   1.619   1.364  13.722
 1515SOL     OW 4990   1.390   0.575  13.112
 1515SOL    HW1 4991   1.336   0.554  13.193
 1515SOL    HW2 4992   1.481   0.534  13.121
 1516SOL     OW 4993   0.527   0.256  13.362
 1516SOL    HW1 4994   0.554   0.197  13.287
 1516SOL    HW2 4995   0.527   0.351  13.331
 1517SOL     OW 4996   0.705   1.050  13.402
 1517SOL    HW1 4997   0.691   1.057  13.501
 1517SOL    HW2 4998   0.789   0.999  13.384
 1518SOL     OW 4999   0.367   1.100  13.535
 1518SOL    HW1 5000   0.360   1.183  13.479
 1518SOL    HW2 5001   0.371   1.020  13.475
 1519SOL     OW 5002   0.566   0.537  13.899
 1519SOL    HW1 5003   0.578   0.603  13.825
 1519SOL    HW2 5004   0.612   0.571  13.982
 1520SOL     OW 5005   1.252   1.348  13.422
 1520SOL    HW1 5006   1.302   1.425  13.462
 1520SOL    HW2 5007   1.157   1.350  13.454
 1521SOL     OW 5008   1.582   0.639  13.506
 1521SOL    HW1 5009   1.551   0.700  13.579
 1521SOL    HW2 5010   1.632   0.691  13.437
 1522SOL     OW 5011   1.209   0.525  13.309
 1522SOL    HW1 5012   1.222   0.441  13.363
 1522SOL    HW2 5013   1.180   0.599  13.369
 1523SOL     OW 5014   0.307   0.063  13.652
 1523SOL    HW1 5015   0.296   0.157  13.685
 1523SOL    HW2 5016   0.302   0.000  13.729
 1524SOL     OW 5017   1.622   0.367  13.408
 1524SOL    HW1 5018   1.624   0.291  13.472
 1524SOL    HW2 5019   1.574   0.444  13.448
 1525SOL     OW 5020   1.540   0.274  13.159
 1525SOL    HW1 5021   1.479   0.199  13.182
 1525SOL    HW2 5022   1.562   0.326  13.242
 1526SOL     OW 5023   1.303   0.838  13.076
 1526SOL    HW1 5024   1.337   0.745  13.091
 1526SOL    HW2 5025   1.321   0.865  12.981
 1527SOL     OW 5026   0.008   1.326  13.234
 1527SOL    HW1 5027  -0.085   1.347  13.203
 1527SOL    HW2 5028   0.018   1.227  13.247
 1528SOL     OW 5029   0.815   0.572  13.359
 1528SOL    HW1 5030   0.822   0.483  13.313
 1528SOL    HW2 5031   0.721   0.606  13.351
 1529SOL     OW 5032   0.473   0.500  13.225
 1529SOL    HW1 5033   0.534   0.580  13.229
 1529SOL    HW2 5034   0.378   0.531  13.232
 1530SOL     OW 5035   1.302   0.855  13.343
 1530SOL    HW1 5036   1.216   0.824  13.385
 1530SOL    HW2 5037   1.298   0.841  13.244
 1531SOL     OW 5038   1.726   0.135  13.557
 1531SOL    HW1 5039   1.799   0.118  13.490
 1531SOL    HW2 5040   1.695   0.048  13.595
 1532SOL     OW 5041   1.388   1.573  13.511
 1532SOL    HW1 5042   1.455   1.585  13.437
 1532SOL    HW2 5043   1.348   1.662  13.534
 1533SOL     OW 5044   1.280   0.927  13.706
 1533SOL    HW1 5045   1.340   0.846  13.708
 1533SOL    HW2 5046   1.320   0.996  13.646
 1534SOL     OW 5047   0.672   1.616  13.188
 1534SOL    HW1 5048   0.681   1.626  13.089
 1534SOL    HW2 5049   0.632   1.527  13.209
 1535SOL     OW 5050   1.841   0.175  13.997
 1535SOL    HW1 5051   1.880   0.090  13.961
 1535SOL    HW2 5052   1.743   0.177  13.978
 1536SOL     OW 5053   0.263   0.326  13.754
 1536SOL    HW1 5054   0.184   0.377  13.720
 1536SOL    HW2 5055   0.254   0.311  13.852
 1537SOL     OW 5056   1.194   1.612  13.065
 1537SOL    HW1 5057   1.200   1.519  13.102
 1537SOL    HW2 5058   1.135   1.612  12.985
 1538SOL     OW 5059   0.916   0.910  13.325
 1538SOL    HW1 5060   0.979   0.948  13.257
 1538SOL    HW2 5061   0.956   0.827  13.364
 1539SOL     OW 5062   1.504   1.607  13.078
 1539SOL    HW1 5063   1.412   1.644  13.085
 1539SOL    HW2 5064   1.542   1.627  12.988
 1540SOL     OW 5065   1.039   1.098  13.730
 1540SOL    HW1 5066   0.969   1.051  13.784
 1540SOL    HW2 5067   1.098   1.030  13.687
 1541SOL     OW 5068   0.590   1.487  13.525
 1541SOL    HW1 5069   0.632   1.429  13.455
 1541SOL    HW2 5070   0.546   1.566  13.481
 1542SOL     OW 5071   0.255   1.348  13.324
 1542SOL    HW1 5072   0.159   1.349  13.297
 1542SOL    HW2 5073   0.267   1.401  13.408
 1543SOL     OW 5074   0.075   0.345  13.067
 1543SOL    HW1 5075  -0.017   0.317  13.038
 1543SOL    HW2 5076   0.106   0.422  13.011
 1544SOL     OW 5077   0.072   0.166  13.352
 1544SOL    HW1 5078   0.055   0.249  13.298
 1544SOL    HW2 5079   0.162   0.129  13.330
 1545SOL     OW 5080   1.183   1.335  13.153
 1545SOL    HW1 5081   1.084   1.324  13.155
 1545SOL    HW2 5082   1.217   1.350  13.246
 1546SOL     OW 5083   1.225   0.325  13.483
 1546SOL    HW1 5084   1.290   0.251  13.472
 1546SOL    HW2 5085   1.245   0.375  13.567
 1547SOL     OW 5086   0.594   0.745  13.686
 1547SOL    HW1 5087   0.644   0.830  13.667
 1547SOL    HW2 5088   0.506   0.747  13.638
 1548SOL     OW 5089   0.859   1.374  13.050
 1548SOL    HW1 5090   0.813   1.389  13.138
 1548SOL    HW2 5091   0.903   1.459  13.020
 1549SOL     OW 5092   0.661   1.790  13.987
 1549SOL    HW1 5093   0.615   1.878  13.974
 1549SOL    HW2 5094   0.760   1.802  13.980
 1550SOL     OW 5095   0.859   0.956  13.895
 1550SOL    HW1 5096   0.913   0.887  13.943
 1550SOL    HW2 5097   0.827   1.025  13.961
 1551SOL     OW 5098   1.083   0.984  13.121
 1551SOL    HW1 5099   1.060   1.037  13.039
 1551SOL    HW2 5100   1.164   0.928  13.102
 1552SOL     OW 5101   0.079   1.240  13.687
 1552SOL    HW1 5102   0.078   1.193  13.775
 1552SOL    HW2 5103   0.161   1.212  13.636
 1553SOL     OW 5104   0.428   0.424  13.554
 1553SOL    HW1 5105   0.458   0.352  13.492
 1553SOL    HW2 5106   0.389   0.384  13.637
 1554SOL     OW 5107   1.705   1.487  14.138
 1554SOL    HW1 5108   1.612   1.462  14.111
 1554SOL    HW2 5109   1.731   1.437  14.220
 1555SOL     OW 5110   0.812   1.586  13.721
 1555SOL    HW1 5111   0.844   1.596  13.627
 1555SOL    HW2 5112   0.733   1.524  13.723
 1556SOL     OW 5113   0.770   1.330  13.335
 1556SOL    HW1 5114   0.724   1.243  13.352
 1556SOL    HW2 5115   0.861   1.327  13.376
 1557SOL     OW 5116   1.352   0.052  13.202
 1557SOL    HW1 5117   1.387   0.011  13.118
 1557SOL    HW2 5118   1.262   0.014  13.222
 1558SOL     OW 5119   1.300   0.453  13.725
 1558SOL    HW1 5120   1.241   0.533  13.729
 1558SOL    HW2 5121   1.315   0.418  13.818
 1559SOL     OW 5122   0.039   1.077  13.334
 1559SOL    HW1 5123   0.138   1.066  13.325
 1559SOL    HW2 5124  -0.001   0.991  13.366
 1560SOL     OW 5125   0.875   1.646  13.371
 1560SOL    HW1 5126   0.798   1.611  13.317
 1560SOL    HW2 5127   0.843   1.717  13.433
 1561SOL     OW 5128   0.230   2.490   0.113
 1561SOL    HW1 5129   0.137   2.488   0.150
 1561SOL    HW2 5130   0.231   2.451   0.021
 1562SOL     OW 5131   0.225   2.137   0.996
 1562SOL    HW1 5132   0.260   2.120   1.088
 1562SOL    HW2 5133   0.137   2.092   0.984
 1563SOL     OW 5134   0.019   2.230   0.647
 1563SOL    HW1 5135  -0.063   2.273   0.686
 1563SOL    HW2 5136  -0.009   2.157   0.584
 1564SOL     OW 5137   0.569   3.137   1.165
 1564SOL    HW1 5138   0.476   3.130   1.128
 1564SOL    HW2 5139   0.580   3.226   1.209
 1565SOL     OW 5140   1.555   3.373   0.703
 1565SOL    HW1 5141   1.498   3.357   0.784
 1565SOL    HW2 5142   1.496   3.383   0.623
 1566SOL     OW 5143   1.135   2.565   0.717
 1566SOL    HW1 5144   1.192   2.643   0.692
 1566SOL    HW2 5145   1.075   2.591   0.793
 1567SOL     OW 5146   1.755   2.469   0.231
 1567SOL    HW1 5147   1.743   2.456   0.132
 1567SOL    HW2 5148   1.725   2.388   0.280
 1568SOL     OW 5149   0.768   3.006   1.023
 1568SOL    HW1 5150   0.690   3.023   1.083
 1568SOL    HW2 5151   0.802   3.093   0.987
 1569SOL     OW 5152   0.850   2.660   1.823
 1569SOL    HW1 5153   0.846   2.736   1.888
 1569SOL    HW2 5154   0.872   2.696   1.732
 1570SOL     OW 5155   0.685   2.874   0.665
 1570SOL    HW1 5156   0.754   2.858   0.735
 1570SOL    HW2 5157   0.612   2.931   0.703
 1571SOL     OW 5158   0.686   3.023   1.803
 1571SOL    HW1 5159   0.746   3.102   1.817
 1571SOL    HW2 5160   0.600   3.054   1.762
 1572SOL     OW 5161   0.335   3.297   1.061
 1572SOL    HW1 5162   0.257   3.266   1.008
 1572SOL    HW2 5163   0.393   3.355   1.004
 1573SOL     OW 5164   1.460   3.367   1.339
 1573SOL    HW1 5165   1.484   3.461   1.365
 1573SOL    HW2 5166   1.444   3.313   1.421
 1574SOL     OW 5167   0.438   2.254   1.499
 1574SOL    HW1 5168   0.520   2.198   1.508
 1574SOL    HW2 5169   0.357   2.196   1.503
 1575SOL     OW 5170   1.603   2.309   0.737
 1575SOL    HW1 5171   1.529   2.355   0.687
 1575SOL    HW2 5172   1.654   2.377   0.790
 1576SOL     OW 5173   0.231   3.575   0.483
 1576SOL    HW1 5174   0.265   3.652   0.537
 1576SOL    HW2 5175   0.275   3.575   0.393
 1577SOL     OW 5176   1.127   3.203   1.690
 1577SOL    HW1 5177   1.174   3.203   1.778
 1577SOL    HW2 5178   1.079   3.116   1.679
 1578SOL     OW 5179   0.230   3.296   0.538
 1578SOL    HW1 5180   0.204   3.392   0.538
 1578SOL    HW2 5181   0.159   3.242   0.583
 1579SOL     OW 5182   0.240   2.953   0.886
 1579SOL    HW1 5183   0.254   2.869   0.938
 1579SOL    HW2 5184   0.185   3.017   0.941
 1580SOL     OW 5185   0.620   3.648   1.439
 1580SOL    HW1 5186   0.528   3.631   1.474
 1580SOL    HW2 5187   0.648   3.740   1.465
 1581SOL     OW 5188   0.606   2.826   0.123
 1581SOL    HW1 5189   0.613   2.910   0.069
 1581SOL    HW2 5190   0.652   2.839   0.211
 1582SOL     OW 5191   1.594   1.976   1.480
 1582SOL    HW1 5192   1.576   2.043   1.408
 1582SOL    HW2 5193   1.591   2.022   1.569
 1583SOL     OW 5194   0.122   2.505   0.563
 1583SOL    HW1 5195   0.077   2.417   0.580
 1583SOL    HW2 5196   0.121   2.559   0.647
 1584SOL     OW 5197   1.842   3.629   0.359
 1584SOL    HW1 5198   1.896   3.600   0.439
 1584SOL    HW2 5199   1.872   3.719   0.330
 1585SOL     OW 5200   0.027   3.458   0.117
 1585SOL    HW1 5201   0.008   3.362   0.138
 1585SOL    HW2 5202  -0.006   3.516   0.192
 1586SOL     OW 5203   1.689   2.784   0.612
 1586SOL    HW1 5204   1.784   2.755   0.620
 1586SOL    HW2 5205   1.681   2.849   0.537
 1587SOL     OW 5206   1.641   2.970   0.432
 1587SOL    HW1 5207   1.727   2.972   0.380
 1587SOL    HW2 5208   1.655   3.017   0.520
 1588SOL     OW 5209   0.113   2.599   1.597
 1588SOL    HW1 5210   0.201   2.586   1.642
 1588SOL    HW2 5211   0.100   2.696   1.575
 1589SOL     OW 5212   0.613   3.227   0.726
 1589SOL    HW1 5213   0.564   3.140   0.735
 1589SOL    HW2 5214   0.590   3.270   0.639
 1590SOL     OW 5215   1.293   3.090   1.423
 1590SOL    HW1 5216   1.330   3.017   1.365
 1590SOL    HW2 5217   1.345   3.095   1.508
 1591SOL     OW 5218   0.809   1.866   0.502
 1591SOL    HW1 5219   0.849   1.957   0.493
 1591SOL    HW2 5220   0.709   1.874   0.508
 1592SOL     OW 5221   0.197   2.838   1.264
 1592SOL    HW1 5222   0.286   2.793   1.250
 1592SOL    HW2 5223   0.124   2.773   1.245
 1593SOL     OW 5224   1.525   2.861   0.190
 1593SOL    HW1 5225   1.462   2.785   0.203
 1593SOL    HW2 5226   1.573   2.879   0.276
 1594SOL     OW 5227   1.187   3.654   1.616
 1594SOL    HW1 5228   1.211   3.714   1.540
 1594SOL    HW2 5229   1.194   3.559   1.586
 1595SOL     OW 5230   0.317   2.113   1.801
 1595SOL    HW1 5231   0.388   2.184   1.807
 1595SOL    HW2 5232   0.229   2.152   1.829
 1596SOL     OW 5233   1.466   3.279   0.953
 1596SOL    HW1 5234   1.407   3.285   1.033
 1596SOL    HW2 5235   1.451   3.191   0.907
 1597SOL     OW 5236   1.667   3.576   0.572
 1597SOL    HW1 5237   1.626   3.553   0.484
 1597SOL    HW2 5238   1.649   3.502   0.637
 1598SOL     OW 5239   0.598   2.591   0.270
 1598SOL    HW1 5240   0.622   2.660   0.202
 1598SOL    HW2 5241   0.520   2.624   0.324
 1599SOL     OW 5242   1.281   2.207   0.944
 1599SOL    HW1 5243   1.195   2.157   0.931
 1599SOL    HW2 5244   1.343   2.153   1.000
 1600SOL     OW 5245   1.576   3.524   0.307
 1600SOL    HW1 5246   1.665   3.570   0.310
 1600SOL    HW2 5247   1.555   3.500   0.212
 1601SOL     OW 5248   0.807   2.467   1.465
 1601SOL    HW1 5249   0.760   2.464   1.554
 1601SOL    HW2 5250   0.756   2.412   1.399
 1602SOL     OW 5251   1.394   2.331   1.674
 1602SOL    HW1 5252   1.374   2.374   1.762
 1602SOL    HW2 5253   1.472   2.269   1.683
 1603SOL     OW 5254   0.973   2.752   1.572
 1603SOL    HW1 5255   1.019   2.668   1.543
 1603SOL    HW2 5256   0.917   2.786   1.497
 1604SOL     OW 5257   0.991   2.272   1.242
 1604SOL    HW1 5258   0.914   2.306   1.296
 1604SOL    HW2 5259   0.957   2.221   1.163
 1605SOL     OW 5260   1.041   2.563   0.429
 1605SOL    HW1 5261   1.067   2.559   0.525
 1605SOL    HW2 5262   0.956   2.512   0.415
 1606SOL     OW 5263   0.076   2.673   0.789
 1606SOL    HW1 5264   0.175   2.661   0.798
 1606SOL    HW2 5265   0.052   2.768   0.810
 1607SOL     OW 5266   0.130   3.683   1.571
 1607SOL    HW1 5267   0.120   3.668   1.670
 1607SOL    HW2 5268   0.044   3.719   1.535
 1608SOL     OW 5269   0.865   2.210   0.195
 1608SOL    HW1 5270   0.924   2.273   0.146
 1608SOL    HW2 5271   0.884   2.116   0.166
 1609SOL     OW 5272   1.719   2.447   1.831
 1609SOL    HW1 5273   1.693   2.536   1.795
 1609SOL    HW2 5274   1.717   2.379   1.758
 1610SOL     OW 5275   1.362   3.006   0.545
 1610SOL    HW1 5276   1.445   2.977   0.497
 1610SOL    HW2 5277   1.313   3.073   0.489
 1611SOL     OW 5278   0.550   2.058   0.885
 1611SOL    HW1 5279   0.545   2.053   0.985
 1611SOL    HW2 5280   0.552   2.154   0.856
 1612SOL     OW 5281   1.008   3.318   0.477
 1612SOL    HW1 5282   0.962   3.390   0.425
 1612SOL    HW2 5283   1.004   3.338   0.575
 1613SOL     OW 5284   0.351   3.663   0.853
 1613SOL    HW1 5285   0.401   3.577   0.859
 1613SOL    HW2 5286   0.416   3.740   0.850
 1614SOL     OW 5287   1.795   2.928   0.873
 1614SOL    HW1 5288   1.733   2.913   0.797
 1614SOL    HW2 5289   1.743   2.939   0.958
 1615SOL     OW 5290   1.227   3.412   1.506
 1615SOL    HW1 5291   1.233   3.335   1.570
 1615SOL    HW2 5292   1.175   3.386   1.426
 1616SOL     OW 5293   0.321   2.805   0.242
 1616SOL    HW1 5294   0.403   2.844   0.200
 1616SOL    HW2 5295   0.294   2.723   0.193
 1617SOL     OW 5296   1.458   2.597   0.728
 1617SOL    HW1 5297   1.453   2.532   0.803
 1617SOL    HW2 5298   1.538   2.656   0.741
 1618SOL     OW 5299   0.461   3.128   1.727
 1618SOL    HW1 5300   0.411   3.129   1.641
 1618SOL    HW2 5301   0.398   3.110   1.803
 1619SOL     OW 5302   1.111   3.638   0.237
 1619SOL    HW1 5303   1.051   3.576   0.287
 1619SOL    HW2 5304   1.142   3.594   0.152
 1620SOL     OW 5305   0.202   2.147   1.498
 1620SOL    HW1 5306   0.122   2.207   1.485
 1620SOL    HW2 5307   0.192   2.098   1.584
 1621SOL     OW 5308   1.632   3.239   0.081
 1621SOL    HW1 5309   1.600   3.333   0.071
 1621SOL    HW2 5310   1.556   3.176   0.069
 1622SOL     OW 5311   0.464   3.605   0.323
 1622SOL    HW1 5312   0.497   3.644   0.409
 1622SOL    HW2 5313   0.540   3.598   0.258
 1623SOL     OW 5314   1.400   1.969   0.426
 1623SOL    HW1 5315   1.376   1.932   0.336
 1623SOL    HW2 5316   1.499   1.985   0.430
 1624SOL     OW 5317   0.249   3.647   1.241
 1624SOL    HW1 5318   0.306   3.582   1.291
 1624SOL    HW2 5319   0.233   3.614   1.148
 1625SOL     OW 5320   0.940   3.560   0.904
 1625SOL    HW1 5321   1.020   3.503   0.925
 1625SOL    HW2 5322   0.891   3.520   0.827
 1626SOL     OW 5323   0.382   2.562   0.480
 1626SOL    HW1 5324   0.427   2.472   0.477
 1626SOL    HW2 5325   0.288   2.551   0.513
 1627SOL     OW 5326   1.547   2.084   1.729
 1627SOL    HW1 5327   1.542   2.121   1.821
 1627SOL    HW2 5328   1.475   2.015   1.717
 1628SOL     OW 5329   0.781   2.126   1.749
 1628SOL    HW1 5330   0.848   2.065   1.792
 1628SOL    HW2 5331   0.708   2.145   1.814
 1629SOL     OW 5332   0.888   3.376   1.195
 1629SOL    HW1 5333   0.865   3.351   1.101
 1629SOL    HW2 5334   0.949   3.307   1.234
 1630SOL     OW 5335   1.351   2.452   1.433
 1630SOL    HW1 5336   1.379   2.409   1.518
 1630SOL    HW2 5337   1.376   2.548   1.434
 1631SOL     OW 5338   0.803   3.264   0.924
 1631SOL    HW1 5339   0.893   3.278   0.882
 1631SOL    HW2 5340   0.732   3.266   0.853
 1632SOL     OW 5341   0.922   2.365   0.899
 1632SOL    HW1 5342   0.897   2.356   0.803
 1632SOL    HW2 5343   0.970   2.283   0.930
 1633SOL     OW 5344   0.539   1.926   0.512
 1633SOL    HW1 5345   0.458   1.927   0.570
 1633SOL    HW2 5346   0.542   2.009   0.457
 1634SOL     OW 5347   1.434   3.050   0.041
 1634SOL    HW1 5348   1.466   2.974   0.098
 1634SOL    HW2 5349   1.342   3.077   0.071
 1635SOL     OW 5350   0.297   1.897   0.171
 1635SOL    HW1 5351   0.346   1.981   0.150
 1635SOL    HW2 5352   0.359   1.832   0.216
 1636SOL     OW 5353   0.935   2.098   0.480
 1636SOL    HW1 5354   0.887   2.139   0.402
 1636SOL    HW2 5355   1.034   2.096   0.461
 1637SOL     OW 5356   1.076   2.545   1.464
 1637SOL    HW1 5357   0.996   2.484   1.467
 1637SOL    HW2 5358   1.157   2.492   1.440
 1638SOL     OW 5359   1.227   3.432   0.793
 1638SOL    HW1 5360   1.248   3.506   0.728
 1638SOL    HW2 5361   1.295   3.432   0.866
 1639SOL     OW 5362   0.459   3.014   0.741
 1639SOL    HW1 5363   0.388   2.987   0.806
 1639SOL    HW2 5364   0.433   2.986   0.648
 1640SOL     OW 5365   1.271   3.659   0.591
 1640SOL    HW1 5366   1.315   3.723   0.527
 1640SOL    HW2 5367   1.221   3.711   0.661
 1641SOL     OW 5368   1.032   2.411   0.016
 1641SOL    HW1 5369   0.991   2.493  -0.023
 1641SOL    HW2 5370   1.096   2.437   0.089
 1642SOL     OW 5371   0.078   2.418   1.386
 1642SOL    HW1 5372   0.170   2.417   1.345
 1642SOL    HW2 5373   0.072   2.492   1.453
 1643SOL     OW 5374   0.561   2.084   1.147
 1643SOL    HW1 5375   0.599   2.000   1.184
 1643SOL    HW2 5376   0.473   2.103   1.191
 1644SOL     OW 5377   0.866   2.316   0.642
 1644SOL    HW1 5378   0.834   2.388   0.580
 1644SOL    HW2 5379   0.890   2.235   0.589
 1645SOL     OW 5380   1.017   1.901   0.753
 1645SOL    HW1 5381   0.945   1.906   0.684
 1645SOL    HW2 5382   0.993   1.832   0.822
 1646SOL     OW 5383   1.429   3.035   0.867
 1646SOL    HW1 5384   1.374   2.951   0.860
 1646SOL    HW2 5385   1.455   3.064   0.775
 1647SOL     OW 5386   1.466   2.452   0.992
 1647SOL    HW1 5387   1.436   2.357   0.999
 1647SOL    HW2 5388   1.539   2.468   1.058
 1648SOL     OW 5389   1.857   2.695   0.377
 1648SOL    HW1 5390   1.899   2.631   0.441
 1648SOL    HW2 5391   1.819   2.644   0.299
 1649SOL     OW 5392   0.488   3.247   0.174
 1649SOL    HW1 5393   0.401   3.232   0.221
 1649SOL    HW2 5394   0.471   3.273   0.079
 1650SOL     OW 5395   1.664   3.142   0.657
 1650SOL    HW1 5396   1.763   3.150   0.671
 1650SOL    HW2 5397   1.619   3.226   0.688
 1651SOL     OW 5398   1.390   2.437   0.078
 1651SOL    HW1 5399   1.336   2.416   0.159
 1651SOL    HW2 5400   1.481   2.396   0.087
 1652SOL     OW 5401   0.527   2.118   0.328
 1652SOL    HW1 5402   0.554   2.059   0.253
 1652SOL    HW2 5403   0.527   2.213   0.297
 1653SOL     OW 5404   1.754   3.085   1.588
 1653SOL    HW1 5405   1.845   3.046   1.575
 1653SOL    HW2 5406   1.762   3.181   1.612
 1654SOL     OW 5407   1.064   3.209   1.340
 1654SOL    HW1 5408   0.984   3.186   1.395
 1654SOL    HW2 5409   1.147   3.183   1.389
 1655SOL     OW 5410   1.592   3.491   1.625
 1655SOL    HW1 5411   1.619   3.525   1.535
 1655SOL    HW2 5412   1.671   3.453   1.671
 1656SOL     OW 5413   1.111   3.057   1.100
 1656SOL    HW1 5414   1.071   3.101   1.181
 1656SOL    HW2 5415   1.070   3.094   1.017
 1657SOL     OW 5416   1.638   2.961   1.079
 1657SOL    HW1 5417   1.643   3.042   1.138
 1657SOL    HW2 5418   1.552   2.963   1.028
 1658SOL     OW 5419   0.915   1.951   1.402
 1658SOL    HW1 5420   0.940   1.931   1.307
 1658SOL    HW2 5421   0.987   2.007   1.444
 1659SOL     OW 5422   0.980   2.978   1.719
 1659SOL    HW1 5423   0.881   2.984   1.729
 1659SOL    HW2 5424   1.003   2.898   1.663
 1660SOL     OW 5425   0.705   2.912   0.368
 1660SOL    HW1 5426   0.691   2.919   0.467
 1660SOL    HW2 5427   0.789   2.861   0.350
 1661SOL     OW 5428   0.410   2.675   1.251
 1661SOL    HW1 5429   0.496   2.687   1.301
 1661SOL    HW2 5430   0.368   2.588   1.278
 1662SOL     OW 5431   1.274   2.248   1.262
 1662SOL    HW1 5432   1.295   2.322   1.326
 1662SOL    HW2 5433   1.185   2.265   1.219
 1663SOL     OW 5434   0.064   3.426   1.331
 1663SOL    HW1 5435   0.018   3.508   1.297
 1663SOL    HW2 5436   0.162   3.445   1.340
 1664SOL     OW 5437   0.367   2.962   0.501
 1664SOL    HW1 5438   0.360   3.045   0.445
 1664SOL    HW2 5439   0.371   2.882   0.441
 1665SOL     OW 5440   0.566   2.399   0.865
 1665SOL    HW1 5441   0.578   2.465   0.791
 1665SOL    HW2 5442   0.612   2.433   0.948
 1666SOL     OW 5443   1.252   3.210   0.388
 1666SOL    HW1 5444   1.302   3.287   0.428
 1666SOL    HW2 5445   1.157   3.212   0.420
 1667SOL     OW 5446   1.272   3.307   1.142
 1667SOL    HW1 5447   1.319   3.320   1.229
 1667SOL    HW2 5448   1.206   3.233   1.151
 1668SOL     OW 5449   1.582   2.501   0.472
 1668SOL    HW1 5450   1.551   2.562   0.545
 1668SOL    HW2 5451   1.632   2.553   0.403
 1669SOL     OW 5452   0.354   3.372   1.329
 1669SOL    HW1 5453   0.333   3.328   1.242
 1669SOL    HW2 5454   0.451   3.398   1.332
 1670SOL     OW 5455   0.402   2.613   1.598
 1670SOL    HW1 5456   0.470   2.668   1.551
 1670SOL    HW2 5457   0.442   2.525   1.625
 1671SOL     OW 5458   1.587   2.641   1.670
 1671SOL    HW1 5459   1.495   2.679   1.665
 1671SOL    HW2 5460   1.647   2.688   1.605
 1672SOL     OW 5461   1.013   1.967   1.770
 1672SOL    HW1 5462   1.019   2.052   1.718
 1672SOL    HW2 5463   1.045   1.891   1.713
 1673SOL     OW 5464   0.504   1.912   1.740
 1673SOL    HW1 5465   0.462   1.855   1.670
 1673SOL    HW2 5466   0.438   1.981   1.772
 1674SOL     OW 5467   0.573   2.732   1.029
 1674SOL    HW1 5468   0.617   2.821   1.020
 1674SOL    HW2 5469   0.510   2.732   1.106
 1675SOL     OW 5470   1.360   2.724   1.045
 1675SOL    HW1 5471   1.285   2.724   0.979
 1675SOL    HW2 5472   1.397   2.632   1.054
 1676SOL     OW 5473   1.209   2.387   0.275
 1676SOL    HW1 5474   1.222   2.303   0.329
 1676SOL    HW2 5475   1.180   2.461   0.335
 1677SOL     OW 5476   0.307   2.075   1.231
 1677SOL    HW1 5477   0.284   2.112   1.321
 1677SOL    HW2 5478   0.277   1.980   1.225
 1678SOL     OW 5479   0.037   3.172   1.282
 1678SOL    HW1 5480   0.090   3.123   1.350
 1678SOL    HW2 5481   0.059   3.270   1.287
 1679SOL     OW 5482   0.732   2.496   1.064
 1679SOL    HW1 5483   0.791   2.470   0.988
 1679SOL    HW2 5484   0.704   2.592   1.053
 1680SOL     OW 5485   1.728   2.797   1.854
 1680SOL    HW1 5486   1.682   2.790   1.765
 1680SOL    HW2 5487   1.666   2.841   1.920
 1681SOL     OW 5488   0.307   1.925   0.618
 1681SOL    HW1 5489   0.296   2.019   0.651
 1681SOL    HW2 5490   0.302   1.862   0.695
 1682SOL     OW 5491   1.622   2.229   0.374
 1682SOL    HW1 5492   1.624   2.153   0.438
 1682SOL    HW2 5493   1.574   2.306   0.414
 1683SOL     OW 5494   1.023   2.628   0.966
 1683SOL    HW1 5495   1.038   2.649   1.062
 1683SOL    HW2 5496   0.993   2.533   0.957
 1684SOL     OW 5497   0.980   3.435   1.700
 1684SOL    HW1 5498   0.960   3.479   1.612
 1684SOL    HW2 5499   1.019   3.344   1.684
 1685SOL     OW 5500   1.859   3.380   1.605
 1685SOL    HW1 5501   1.873   3.407   1.510
 1685SOL    HW2 5502   1.942   3.402   1.658
 1686SOL     OW 5503   0.350   2.760   1.804
 1686SOL    HW1 5504   0.426   2.804   1.852
 1686SOL    HW2 5505   0.385   2.713   1.722
 1687SOL     OW 5506   1.540   2.136   0.125
 1687SOL    HW1 5507   1.479   2.061   0.148
 1687SOL    HW2 5508   1.562   2.188   0.208
 1688SOL     OW 5509   1.303   2.700   0.042
 1688SOL    HW1 5510   1.337   2.607   0.057
 1688SOL    HW2 5511   1.321   2.727  -0.053
 1689SOL     OW 5512   1.068   3.195   0.849
 1689SOL    HW1 5513   1.075   3.111   0.794
 1689SOL    HW2 5514   1.130   3.264   0.813
 1690SOL     OW 5515   0.319   2.672   0.949
 1690SOL    HW1 5516   0.412   2.708   0.954
 1690SOL    HW2 5517   0.313   2.587   1.001
 1691SOL     OW 5518   0.339   2.371   1.006
 1691SOL    HW1 5519   0.287   2.288   0.989
 1691SOL    HW2 5520   0.416   2.376   0.942
 1692SOL     OW 5521   1.138   2.242   1.678
 1692SOL    HW1 5522   1.093   2.305   1.742
 1692SOL    HW2 5523   1.231   2.273   1.661
 1693SOL     OW 5524   1.160   2.069   1.477
 1693SOL    HW1 5525   1.160   2.133   1.554
 1693SOL    HW2 5526   1.188   2.117   1.394
 1694SOL     OW 5527   0.008   3.188   0.200
 1694SOL    HW1 5528  -0.085   3.209   0.169
 1694SOL    HW2 5529   0.018   3.089   0.213
 1695SOL     OW 5530   0.088   3.663   0.927
 1695SOL    HW1 5531   0.046   3.577   0.900
 1695SOL    HW2 5532   0.182   3.666   0.893
 1696SOL     OW 5533   0.504   3.430   0.910
 1696SOL    HW1 5534   0.570   3.504   0.919
 1696SOL    HW2 5535   0.548   3.351   0.868
 1697SOL     OW 5536   1.002   2.658   1.238
 1697SOL    HW1 5537   1.043   2.626   1.324
 1697SOL    HW2 5538   0.906   2.631   1.235
 1698SOL     OW 5539   0.040   2.406   1.114
 1698SOL    HW1 5540   0.125   2.373   1.073
 1698SOL    HW2 5541   0.053   2.421   1.212
 1699SOL     OW 5542   0.189   2.382   1.722
 1699SOL    HW1 5543   0.248   2.342   1.652
 1699SOL    HW2 5544   0.131   2.453   1.681
 1700SOL     OW 5545   1.369   2.812   1.660
 1700SOL    HW1 5546   1.408   2.901   1.680
 1700SOL    HW2 5547   1.379   2.792   1.563
 1701SOL     OW 5548   0.815   2.434   0.325
 1701SOL    HW1 5549   0.822   2.345   0.279
 1701SOL    HW2 5550   0.721   2.468   0.317
 1702SOL     OW 5551   1.657   2.466   1.206
 1702SOL    HW1 5552   1.619   2.397   1.268
 1702SOL    HW2 5553   1.739   2.430   1.162
 1703SOL     OW 5554   0.252   3.426   1.744
 1703SOL    HW1 5555   0.222   3.483   1.820
 1703SOL    HW2 5556   0.245   3.329   1.770
 1704SOL     OW 5557   0.671   2.326   1.269
 1704SOL    HW1 5558   0.637   2.237   1.239
 1704SOL    HW2 5559   0.697   2.380   1.189
 1705SOL     OW 5560   0.930   3.540   1.465
 1705SOL    HW1 5561   0.906   3.522   1.370
 1705SOL    HW2 5562   0.960   3.634   1.475
 1706SOL     OW 5563   0.473   2.362   0.191
 1706SOL    HW1 5564   0.534   2.442   0.195
 1706SOL    HW2 5565   0.378   2.393   0.198
 1707SOL     OW 5566   0.159   2.999   1.466
 1707SOL    HW1 5567   0.181   2.938   1.542
 1707SOL    HW2 5568   0.169   2.950   1.380
 1708SOL     OW 5569   1.347   2.921   1.234
 1708SOL    HW1 5570   1.371   2.858   1.160
 1708SOL    HW2 5571   1.257   2.961   1.216
 1709SOL     OW 5572   1.302   2.717   0.309
 1709SOL    HW1 5573   1.216   2.686   0.351
 1709SOL    HW2 5574   1.298   2.703   0.210
 1710SOL     OW 5575   1.759   3.609   1.154
 1710SOL    HW1 5576   1.820   3.639   1.081
 1710SOL    HW2 5577   1.721   3.520   1.132
 1711SOL     OW 5578   1.252   3.593   1.128
 1711SOL    HW1 5579   1.336   3.598   1.074
 1711SOL    HW2 5580   1.229   3.497   1.146
 1712SOL     OW 5581   0.083   3.120   1.022
 1712SOL    HW1 5582   0.078   3.119   1.122
 1712SOL    HW2 5583   0.000   3.079   0.984
 1713SOL     OW 5584   0.688   3.524   1.716
 1713SOL    HW1 5585   0.632   3.605   1.725
 1713SOL    HW2 5586   0.740   3.528   1.630
 1714SOL     OW 5587   0.903   1.948   0.133
 1714SOL    HW1 5588   0.954   1.949   0.047
 1714SOL    HW2 5589   0.959   1.906   0.204
 1715SOL     OW 5590   1.388   3.435   0.477
 1715SOL    HW1 5591   1.455   3.447   0.403
 1715SOL    HW2 5592   1.348   3.524   0.500
 1716SOL     OW 5593   0.130   3.656   1.851
 1716SOL    HW1 5594   0.089   3.582   1.904
 1716SOL    HW2 5595   0.194   3.707   1.909
 1717SOL     OW 5596   1.280   2.789   0.672
 1717SOL    HW1 5597   1.340   2.708   0.674
 1717SOL    HW2 5598   1.320   2.858   0.612
 1718SOL     OW 5599   0.830   3.135   1.422
 1718SOL    HW1 5600   0.825   3.168   1.517
 1718SOL    HW2 5601   0.744   3.154   1.376
 1719SOL     OW 5602   0.672   3.478   0.154
 1719SOL    HW1 5603   0.681   3.488   0.055
 1719SOL    HW2 5604   0.632   3.389   0.175
 1720SOL     OW 5605   1.650   3.582   1.394
 1720SOL    HW1 5606   1.703   3.592   1.310
 1720SOL    HW2 5607   1.623   3.672   1.428
 1721SOL     OW 5608   0.263   2.188   0.720
 1721SOL    HW1 5609   0.184   2.239   0.686
 1721SOL    HW2 5610   0.254   2.173   0.818
 1722SOL     OW 5611   1.194   3.474   0.031
 1722SOL    HW1 5612   1.200   3.381   0.068
 1722SOL    HW2 5613   1.135   3.474  -0.049
 1723SOL     OW 5614   0.822   2.864   1.372
 1723SOL    HW1 5615   0.862   2.863   1.280
 1723SOL    HW2 5616   0.832   2.956   1.412
 1724SOL     OW 5617   0.916   2.772   0.291
 1724SOL    HW1 5618   0.979   2.810   0.223
 1724SOL    HW2 5619   0.956   2.689   0.330
 1725SOL     OW 5620   1.504   3.469   0.044
 1725SOL    HW1 5621   1.412   3.506   0.051
 1725SOL    HW2 5622   1.542   3.489  -0.046
 1726SOL     OW 5623   0.372   3.150   1.490
 1726SOL    HW1 5624   0.359   3.243   1.456
 1726SOL    HW2 5625   0.288   3.098   1.477
 1727SOL     OW 5626   1.614   3.154   1.289
 1727SOL    HW1 5627   1.674   3.157   1.369
 1727SOL    HW2 5628   1.539   3.218   1.302
 1728SOL     OW 5629   1.039   2.960   0.696
 1728SOL    HW1 5630   0.969   2.913   0.750
 1728SOL    HW2 5631   1.098   2.892   0.653
 1729SOL     OW 5632   1.014   2.098   0.971
 1729SOL    HW1 5633   1.006   2.062   0.878
 1729SOL    HW2 5634   1.012   2.022   1.036
 1730SOL     OW 5635   0.590   3.349   0.491
 1730SOL    HW1 5636   0.632   3.291   0.421
 1730SOL    HW2 5637   0.546   3.428   0.447
 1731SOL     OW 5638   1.709   2.247   1.381
 1731SOL    HW1 5639   1.782   2.316   1.385
 1731SOL    HW2 5640   1.737   2.172   1.322
 1732SOL     OW 5641   0.255   3.210   0.290
 1732SOL    HW1 5642   0.159   3.211   0.263
 1732SOL    HW2 5643   0.267   3.263   0.374
 1733SOL     OW 5644   0.105   2.875   1.726
 1733SOL    HW1 5645   0.028   2.842   1.780
 1733SOL    HW2 5646   0.190   2.845   1.768
 1734SOL     OW 5647   0.672   2.065   1.489
 1734SOL    HW1 5648   0.762   2.049   1.449
 1734SOL    HW2 5649   0.680   2.070   1.588
 1735SOL     OW 5650   0.075   2.207   0.033
 1735SOL    HW1 5651  -0.017   2.179   0.004
 1735SOL    HW2 5652   0.106   2.284  -0.023
 1736SOL     OW 5653   1.440   2.718   1.398
 1736SOL    HW1 5654   1.383   2.770   1.335
 1736SOL    HW2 5655   1.536   2.730   1.374
 1737SOL     OW 5656   0.072   2.028   0.318
 1737SOL    HW1 5657   0.055   2.111   0.264
 1737SOL    HW2 5658   0.162   1.991   0.296
 1738SOL     OW 5659   1.183   3.197   0.119
 1738SOL    HW1 5660   1.084   3.186   0.121
 1738SOL    HW2 5661   1.217   3.212   0.212
 1739SOL     OW 5662   0.613   2.704   1.431
 1739SOL    HW1 5663   0.669   2.785   1.414
 1739SOL    HW2 5664   0.672   2.624   1.434
 1740SOL     OW 5665   1.493   3.629   0.959
 1740SOL    HW1 5666   1.526   3.693   0.890
 1740SOL    HW2 5667   1.559   3.623   1.034
 1741SOL     OW 5668   0.716   2.427   1.708
 1741SOL    HW1 5669   0.735   2.492   1.782
 1741SOL    HW2 5670   0.776   2.347   1.717
 1742SOL     OW 5671   1.450   3.082   1.633
 1742SOL    HW1 5672   1.441   3.072   1.732
 1742SOL    HW2 5673   1.546   3.075   1.607
 1743SOL     OW 5674   0.390   3.603   1.560
 1743SOL    HW1 5675   0.299   3.644   1.558
 1743SOL    HW2 5676   0.383   3.509   1.592
 1744SOL     OW 5677   1.674   2.745   1.254
 1744SOL    HW1 5678   1.647   2.656   1.217
 1744SOL    HW2 5679   1.675   2.813   1.181
 1745SOL     OW 5680   1.225   2.187   0.449
 1745SOL    HW1 5681   1.290   2.113   0.438
 1745SOL    HW2 5682   1.245   2.237   0.533
 1746SOL     OW 5683   0.594   2.607   0.652
 1746SOL    HW1 5684   0.644   2.692   0.633
 1746SOL    HW2 5685   0.506   2.609   0.604
 1747SOL     OW 5686   1.777   2.204   1.642
 1747SOL    HW1 5687   1.760   2.235   1.548
 1747SOL    HW2 5688   1.693   2.167   1.680
 1748SOL     OW 5689   1.730   2.796   1.517
 1748SOL    HW1 5690   1.768   2.887   1.532
 1748SOL    HW2 5691   1.722   2.779   1.418
 1749SOL     OW 5692   0.859   3.236   0.016
 1749SOL    HW1 5693   0.813   3.251   0.104
 1749SOL    HW2 5694   0.903   3.321  -0.014
 1750SOL     OW 5695   0.661   3.652   0.953
 1750SOL    HW1 5696   0.615   3.740   0.940
 1750SOL    HW2 5697   0.760   3.664   0.946
 1751SOL     OW 5698   0.859   2.818   0.861
 1751SOL    HW1 5699   0.913   2.749   0.909
 1751SOL    HW2 5700   0.827   2.887   0.927
 1752SOL     OW 5701   1.083   2.846   0.087
 1752SOL    HW1 5702   1.060   2.899   0.005
 1752SOL    HW2 5703   1.164   2.790   0.068
 1753SOL     OW 5704   1.861   3.431   0.851
 1753SOL    HW1 5705   1.790   3.419   0.781
 1753SOL    HW2 5706   1.862   3.352   0.911
 1754SOL     OW 5707   0.221   3.176   1.844
 1754SOL    HW1 5708   0.156   3.103   1.823
 1754SOL    HW2 5709   0.225   3.190   1.942
 1755SOL     OW 5710   0.079   3.102   0.653
 1755SOL    HW1 5711   0.078   3.055   0.741
 1755SOL    HW2 5712   0.161   3.074   0.602
 1756SOL     OW 5713   0.672   3.253   1.624
 1756SOL    HW1 5714   0.594   3.203   1.662
 1756SOL    HW2 5715   0.669   3.348   1.655
 1757SOL     OW 5716   0.428   2.286   0.520
 1757SOL    HW1 5717   0.458   2.214   0.458
 1757SOL    HW2 5718   0.389   2.246   0.603
 1758SOL     OW 5719   1.705   3.349   1.104
 1758SOL    HW1 5720   1.612   3.324   1.077
 1758SOL    HW2 5721   1.731   3.299   1.186
 1759SOL     OW 5722   0.317   2.409   1.280
 1759SOL    HW1 5723   0.355   2.350   1.352
 1759SOL    HW2 5724   0.357   2.383   1.192
 1760SOL     OW 5725   0.812   3.448   0.687
 1760SOL    HW1 5726   0.844   3.458   0.593
 1760SOL    HW2 5727   0.733   3.386   0.689
 1761SOL     OW 5728   1.424   2.076   1.112
 1761SOL    HW1 5729   1.476   2.011   1.167
 1761SOL    HW2 5730   1.375   2.139   1.173
 1762SOL     OW 5731   1.001   1.896   1.154
 1762SOL    HW1 5732   0.938   1.824   1.123
 1762SOL    HW2 5733   1.094   1.860   1.154
 1763SOL     OW 5734   0.770   3.192   0.301
 1763SOL    HW1 5735   0.724   3.105   0.318
 1763SOL    HW2 5736   0.861   3.189   0.342
 1764SOL     OW 5737   0.618   3.429   1.284
 1764SOL    HW1 5738   0.613   3.511   1.341
 1764SOL    HW2 5739   0.707   3.426   1.239
 1765SOL     OW 5740   1.352   1.914   0.168
 1765SOL    HW1 5741   1.387   1.873   0.084
 1765SOL    HW2 5742   1.262   1.876   0.188
 1766SOL     OW 5743   1.300   2.315   0.691
 1766SOL    HW1 5744   1.241   2.395   0.695
 1766SOL    HW2 5745   1.315   2.280   0.784
 1767SOL     OW 5746   1.593   2.083   0.882
 1767SOL    HW1 5747   1.509   2.082   0.936
 1767SOL    HW2 5748   1.595   2.166   0.826
 1768SOL     OW 5749   0.039   2.939   0.300
 1768SOL    HW1 5750   0.138   2.928   0.291
 1768SOL    HW2 5751  -0.001   2.853   0.332
 1769SOL     OW 5752   0.875   3.508   0.337
 1769SOL    HW1 5753   0.798   3.473   0.283
 1769SOL    HW2 5754   0.843   3.579   0.399
 1770SOL     OW 5755   0.230   2.490   1.975
 1770SOL    HW1 5756   0.137   2.488   2.012
 1770SOL    HW2 5757   0.231   2.451   1.883
 1771SOL     OW 5758   0.225   2.137   2.858
 1771SOL    HW1 5759   0.260   2.120   2.950
 1771SOL    HW2 5760   0.137   2.092   2.846
 1772SOL     OW 5761   0.019   2.230   2.509
 1772SOL    HW1 5762  -0.063   2.273   2.548
 1772SOL    HW2 5763  -0.009   2.157   2.446
 1773SOL     OW 5764   0.569   3.137   3.027
 1773SOL    HW1 5765   0.476   3.130   2.990
 1773SOL    HW2 5766   0.580   3.226   3.071
 1774SOL     OW 5767   1.555   3.373   2.565
 1774SOL    HW1 5768   1.498   3.357   2.646
 1774SOL    HW2 5769   1.496   3.383   2.485
 1775SOL     OW 5770   1.135   2.565   2.579
 1775SOL    HW1 5771   1.192   2.643   2.554
 1775SOL    HW2 5772   1.075   2.591   2.655
 1776SOL     OW 5773   1.755   2.469   2.093
 1776SOL    HW1 5774   1.743   2.456   1.994
 1776SOL    HW2 5775   1.725   2.388   2.142
 1777SOL     OW 5776   0.768   3.006   2.885
 1777SOL    HW1 5777   0.690   3.023   2.945
 1777SOL    HW2 5778   0.802   3.093   2.849
 1778SOL     OW 5779   0.850   2.660   3.685
 1778SOL    HW1 5780   0.846   2.736   3.750
 1778SOL    HW2 5781   0.872   2.696   3.594
 1779SOL     OW 5782   0.685   2.874   2.527
 1779SOL    HW1 5783   0.754   2.858   2.597
 1779SOL    HW2 5784   0.612   2.931   2.565
 1780SOL     OW 5785   0.686   3.023   3.665
 1780SOL    HW1 5786   0.746   3.102   3.679
 1780SOL    HW2 5787   0.600   3.054   3.624
 1781SOL     OW 5788   0.335   3.297   2.923
 1781SOL    HW1 5789   0.257   3.266   2.870
 1781SOL    HW2 5790   0.393   3.355   2.866
 1782SOL     OW 5791   1.460   3.367   3.201
 1782SOL    HW1 5792   1.484   3.461   3.227
 1782SOL    HW2 5793   1.444   3.313   3.283
 1783SOL     OW 5794   0.438   2.254   3.361
 1783SOL    HW1 5795   0.520   2.198   3.370
 1783SOL    HW2 5796   0.357   2.196   3.365
 1784SOL     OW 5797   1.603   2.309   2.599
 1784SOL    HW1 5798   1.529   2.355   2.549
 1784SOL    HW2 5799   1.654   2.377   2.652
 1785SOL     OW 5800   0.231   3.575   2.345
 1785SOL    HW1 5801   0.265   3.652   2.399
 1785SOL    HW2 5802   0.275   3.575   2.255
 1786SOL     OW 5803   1.127   3.203   3.552
 1786SOL    HW1 5804   1.174   3.203   3.640
 1786SOL    HW2 5805   1.079   3.116   3.541
 1787SOL     OW 5806   0.230   3.296   2.400
 1787SOL    HW1 5807   0.204   3.392   2.400
 1787SOL    HW2 5808   0.159   3.242   2.445
 1788SOL     OW 5809   0.240   2.953   2.748
 1788SOL    HW1 5810   0.254   2.869   2.800
 1788SOL    HW2 5811   0.185   3.017   2.803
 1789SOL     OW 5812   0.620   3.648   3.301
 1789SOL    HW1 5813   0.528   3.631   3.336
 1789SOL    HW2 5814   0.648   3.740   3.327
 1790SOL     OW 5815   0.606   2.826   1.985
 1790SOL    HW1 5816   0.613   2.910   1.931
 1790SOL    HW2 5817   0.652   2.839   2.073
 1791SOL     OW 5818   1.594   1.976   3.342
 1791SOL    HW1 5819   1.576   2.043   3.270
 1791SOL    HW2 5820   1.591   2.022   3.431
 1792SOL     OW 5821   0.122   2.505   2.425
 1792SOL    HW1 5822   0.077   2.417   2.442
 1792SOL    HW2 5823   0.121   2.559   2.509
 1793SOL     OW 5824   1.842   3.629   2.221
 1793SOL    HW1 5825   1.896   3.600   2.301
 1793SOL    HW2 5826   1.872   3.719   2.192
 1794SOL     OW 5827   0.027   3.458   1.979
 1794SOL    HW1 5828   0.008   3.362   2.000
 1794SOL    HW2 5829  -0.006   3.516   2.054
 1795SOL     OW 5830   1.689   2.784   2.474
 1795SOL    HW1 5831   1.784   2.755   2.482
 1795SOL    HW2 5832   1.681   2.849   2.399
 1796SOL     OW 5833   1.641   2.970   2.294
 1796SOL    HW1 5834   1.727   2.972   2.242
 1796SOL    HW2 5835   1.655   3.017   2.382
 1797SOL     OW 5836   0.113   2.599   3.459
 1797SOL    HW1 5837   0.201   2.586   3.504
 1797SOL    HW2 5838   0.100   2.696   3.437
 1798SOL     OW 5839   0.613   3.227   2.588
 1798SOL    HW1 5840   0.564   3.140   2.597
 1798SOL    HW2 5841   0.590   3.270   2.501
 1799SOL     OW 5842   1.293   3.090   3.285
 1799SOL    HW1 5843   1.330   3.017   3.227
 1799SOL    HW2 5844   1.345   3.095   3.370
 1800SOL     OW 5845   0.809   1.866   2.364
 1800SOL    HW1 5846   0.849   1.957   2.355
 1800SOL    HW2 5847   0.709   1.874   2.370
 1801SOL     OW 5848   0.197   2.838   3.126
 1801SOL    HW1 5849   0.286   2.793   3.112
 1801SOL    HW2 5850   0.124   2.773   3.107
 1802SOL     OW 5851   1.525   2.861   2.052
 1802SOL    HW1 5852   1.462   2.785   2.065
 1802SOL    HW2 5853   1.573   2.879   2.138
 1803SOL     OW 5854   1.187   3.654   3.478
 1803SOL    HW1 5855   1.211   3.714   3.402
 1803SOL    HW2 5856   1.194   3.559   3.448
 1804SOL     OW 5857   0.317   2.113   3.663
 1804SOL    HW1 5858   0.388   2.184   3.669
 1804SOL    HW2 5859   0.229   2.152   3.691
 1805SOL     OW 5860   1.466   3.279   2.815
 1805SOL    HW1 5861   1.407   3.285   2.895
 1805SOL    HW2 5862   1.451   3.191   2.769
 1806SOL     OW 5863   1.667   3.576   2.434
 1806SOL    HW1 5864   1.626   3.553   2.346
 1806SOL    HW2 5865   1.649   3.502   2.499
 1807SOL     OW 5866   0.598   2.591   2.132
 1807SOL    HW1 5867   0.622   2.660   2.064
 1807SOL    HW2 5868   0.520   2.624   2.186
 1808SOL     OW 5869   1.281   2.207   2.806
 1808SOL    HW1 5870   1.195   2.157   2.793
 1808SOL    HW2 5871   1.343   2.153   2.862
 1809SOL     OW 5872   1.576   3.524   2.169
 1809SOL    HW1 5873   1.665   3.570   2.172
 1809SOL    HW2 5874   1.555   3.500   2.074
 1810SOL     OW 5875   0.807   2.467   3.327
 1810SOL    HW1 5876   0.760   2.464   3.416
 1810SOL    HW2 5877   0.756   2.412   3.261
 1811SOL     OW 5878   1.394   2.331   3.536
 1811SOL    HW1 5879   1.374   2.374   3.624
 1811SOL    HW2 5880   1.472   2.269   3.545
 1812SOL     OW 5881   0.973   2.752   3.434
 1812SOL    HW1 5882   1.019   2.668   3.405
 1812SOL    HW2 5883   0.917   2.786   3.359
 1813SOL     OW 5884   0.991   2.272   3.104
 1813SOL    HW1 5885   0.914   2.306   3.158
 1813SOL    HW2 5886   0.957   2.221   3.025
 1814SOL     OW 5887   1.041   2.563   2.291
 1814SOL    HW1 5888   1.067   2.559   2.387
 1814SOL    HW2 5889   0.956   2.512   2.277
 1815SOL     OW 5890   0.076   2.673   2.651
 1815SOL    HW1 5891   0.175   2.661   2.660
 1815SOL    HW2 5892   0.052   2.768   2.672
 1816SOL     OW 5893   0.130   3.683   3.433
 1816SOL    HW1 5894   0.120   3.668   3.532
 1816SOL    HW2 5895   0.044   3.719   3.397
 1817SOL     OW 5896   0.865   2.210   2.057
 1817SOL    HW1 5897   0.924   2.273   2.008
 1817SOL    HW2 5898   0.884   2.116   2.028
 1818SOL     OW 5899   1.719   2.447   3.693
 1818SOL    HW1 5900   1.693   2.536   3.657
 1818SOL    HW2 5901   1.717   2.379   3.620
 1819SOL     OW 5902   1.362   3.006   2.407
 1819SOL    HW1 5903   1.445   2.977   2.359
 1819SOL    HW2 5904   1.313   3.073   2.351
 1820SOL     OW 5905   0.550   2.058   2.747
 1820SOL    HW1 5906   0.545   2.053   2.847
 1820SOL    HW2 5907   0.552   2.154   2.718
 1821SOL     OW 5908   1.008   3.318   2.339
 1821SOL    HW1 5909   0.962   3.390   2.287
 1821SOL    HW2 5910   1.004   3.338   2.437
 1822SOL     OW 5911   0.351   3.663   2.715
 1822SOL    HW1 5912   0.401   3.577   2.721
 1822SOL    HW2 5913   0.416   3.740   2.712
 1823SOL     OW 5914   1.795   2.928   2.735
 1823SOL    HW1 5915   1.733   2.913   2.659
 1823SOL    HW2 5916   1.743   2.939   2.820
 1824SOL     OW 5917   1.227   3.412   3.368
 1824SOL    HW1 5918   1.233   3.335   3.432
 1824SOL    HW2 5919   1.175   3.386   3.288
 1825SOL     OW 5920   0.321   2.805   2.104
 1825SOL    HW1 5921   0.403   2.844   2.062
 1825SOL    HW2 5922   0.294   2.723   2.055
 1826SOL     OW 5923   1.458   2.597   2.590
 1826SOL    HW1 5924   1.453   2.532   2.665
 1826SOL    HW2 5925   1.538   2.656   2.603
 1827SOL     OW 5926   0.461   3.128   3.589
 1827SOL    HW1 5927   0.411   3.129   3.503
 1827SOL    HW2 5928   0.398   3.110   3.665
 1828SOL     OW 5929   1.111   3.638   2.099
 1828SOL    HW1 5930   1.051   3.576   2.149
 1828SOL    HW2 5931   1.142   3.594   2.014
 1829SOL     OW 5932   0.202   2.147   3.360
 1829SOL    HW1 5933   0.122   2.207   3.347
 1829SOL    HW2 5934   0.192   2.098   3.446
 1830SOL     OW 5935   1.632   3.239   1.943
 1830SOL    HW1 5936   1.600   3.333   1.933
 1830SOL    HW2 5937   1.556   3.176   1.931
 1831SOL     OW 5938   0.464   3.605   2.185
 1831SOL    HW1 5939   0.497   3.644   2.271
 1831SOL    HW2 5940   0.540   3.598   2.120
 1832SOL     OW 5941   1.400   1.969   2.288
 1832SOL    HW1 5942   1.376   1.932   2.198
 1832SOL    HW2 5943   1.499   1.985   2.292
 1833SOL     OW 5944   0.249   3.647   3.103
 1833SOL    HW1 5945   0.306   3.582   3.153
 1833SOL    HW2 5946   0.233   3.614   3.010
 1834SOL     OW 5947   0.940   3.560   2.766
 1834SOL    HW1 5948   1.020   3.503   2.787
 1834SOL    HW2 5949   0.891   3.520   2.689
 1835SOL     OW 5950   0.382   2.562   2.342
 1835SOL    HW1 5951   0.427   2.472   2.339
 1835SOL    HW2 5952   0.288   2.551   2.375
 1836SOL     OW 5953   1.547   2.084   3.591
 1836SOL    HW1 5954   1.542   2.121   3.683
 1836SOL    HW2 5955   1.475   2.015   3.579
 1837SOL     OW 5956   0.614   1.984   1.979
 1837SOL    HW1 5957   0.712   1.962   1.986
 1837SOL    HW2 5958   0.583   1.967   1.886
 1838SOL     OW 5959   0.781   2.126   3.611
 1838SOL    HW1 5960   0.848   2.065   3.654
 1838SOL    HW2 5961   0.708   2.145   3.676
 1839SOL     OW 5962   0.888   3.376   3.057
 1839SOL    HW1 5963   0.865   3.351   2.963
 1839SOL    HW2 5964   0.949   3.307   3.096
 1840SOL     OW 5965   1.351   2.452   3.295
 1840SOL    HW1 5966   1.379   2.409   3.380
 1840SOL    HW2 5967   1.376   2.548   3.296
 1841SOL     OW 5968   0.803   3.264   2.786
 1841SOL    HW1 5969   0.893   3.278   2.744
 1841SOL    HW2 5970   0.732   3.266   2.715
 1842SOL     OW 5971   0.922   2.365   2.761
 1842SOL    HW1 5972   0.897   2.356   2.665
 1842SOL    HW2 5973   0.970   2.283   2.792
 1843SOL     OW 5974   0.539   1.926   2.374
 1843SOL    HW1 5975   0.458   1.927   2.432
 1843SOL    HW2 5976   0.542   2.009   2.319
 1844SOL     OW 5977   1.434   3.050   1.903
 1844SOL    HW1 5978   1.466   2.974   1.960
 1844SOL    HW2 5979   1.342   3.077   1.933
 1845SOL     OW 5980   0.297   1.897   2.033
 1845SOL    HW1 5981   0.346   1.981   2.012
 1845SOL    HW2 5982   0.359   1.832   2.078
 1846SOL     OW 5983   0.935   2.098   2.342
 1846SOL    HW1 5984   0.887   2.139   2.264
 1846SOL    HW2 5985   1.034   2.096   2.323
 1847SOL     OW 5986   1.076   2.545   3.326
 1847SOL    HW1 5987   0.996   2.484   3.329
 1847SOL    HW2 5988   1.157   2.492   3.302
 1848SOL     OW 5989   1.227   3.432   2.655
 1848SOL    HW1 5990   1.248   3.506   2.590
 1848SOL    HW2 5991   1.295   3.432   2.728
 1849SOL     OW 5992   0.459   3.014   2.603
 1849SOL    HW1 5993   0.388   2.987   2.668
 1849SOL    HW2 5994   0.433   2.986   2.510
 1850SOL     OW 5995   1.271   3.659   2.453
 1850SOL    HW1 5996   1.315   3.723   2.389
 1850SOL    HW2 5997   1.221   3.711   2.523
 1851SOL     OW 5998   1.032   2.411   1.878
 1851SOL    HW1 5999   0.991   2.493   1.839
 1851SOL    HW2 6000   1.096   2.437   1.951
 1852SOL     OW 6001   0.078   2.418   3.248
 1852SOL    HW1 6002   0.170   2.417   3.207
 1852SOL    HW2 6003   0.072   2.492   3.315
 1853SOL     OW 6004   0.561   2.084   3.009
 1853SOL    HW1 6005   0.599   2.000   3.046
 1853SOL    HW2 6006   0.473   2.103   3.053
 1854SOL     OW 6007   0.866   2.316   2.504
 1854SOL    HW1 6008   0.834   2.388   2.442
 1854SOL    HW2 6009   0.890   2.235   2.451
 1855SOL     OW 6010   1.017   1.901   2.615
 1855SOL    HW1 6011   0.945   1.906   2.546
 1855SOL    HW2 6012   0.993   1.832   2.684
 1856SOL     OW 6013   1.429   3.035   2.729
 1856SOL    HW1 6014   1.374   2.951   2.722
 1856SOL    HW2 6015   1.455   3.064   2.637
 1857SOL     OW 6016   1.466   2.452   2.854
 1857SOL    HW1 6017   1.436   2.357   2.861
 1857SOL    HW2 6018   1.539   2.468   2.920
 1858SOL     OW 6019   1.857   2.695   2.239
 1858SOL    HW1 6020   1.899   2.631   2.303
 1858SOL    HW2 6021   1.819   2.644   2.161
 1859SOL     OW 6022   0.488   3.247   2.036
 1859SOL    HW1 6023   0.401   3.232   2.083
 1859SOL    HW2 6024   0.471   3.273   1.941
 1860SOL     OW 6025   1.664   3.142   2.519
 1860SOL    HW1 6026   1.763   3.150   2.533
 1860SOL    HW2 6027   1.619   3.226   2.550
 1861SOL     OW 6028   1.390   2.437   1.940
 1861SOL    HW1 6029   1.336   2.416   2.021
 1861SOL    HW2 6030   1.481   2.396   1.949
 1862SOL     OW 6031   0.527   2.118   2.190
 1862SOL    HW1 6032   0.554   2.059   2.115
 1862SOL    HW2 6033   0.527   2.213   2.159
 1863SOL     OW 6034   1.754   3.085   3.450
 1863SOL    HW1 6035   1.845   3.046   3.437
 1863SOL    HW2 6036   1.762   3.181   3.474
 1864SOL     OW 6037   1.064   3.209   3.202
 1864SOL    HW1 6038   0.984   3.186   3.257
 1864SOL    HW2 6039   1.147   3.183   3.251
 1865SOL     OW 6040   1.592   3.491   3.487
 1865SOL    HW1 6041   1.619   3.525   3.397
 1865SOL    HW2 6042   1.671   3.453   3.533
 1866SOL     OW 6043   1.111   3.057   2.962
 1866SOL    HW1 6044   1.071   3.101   3.043
 1866SOL    HW2 6045   1.070   3.094   2.879
 1867SOL     OW 6046   1.638   2.961   2.941
 1867SOL    HW1 6047   1.643   3.042   3.000
 1867SOL    HW2 6048   1.552   2.963   2.890
 1868SOL     OW 6049   0.915   1.951   3.264
 1868SOL    HW1 6050   0.940   1.931   3.169
 1868SOL    HW2 6051   0.987   2.007   3.306
 1869SOL     OW 6052   0.980   2.978   3.581
 1869SOL    HW1 6053   0.881   2.984   3.591
 1869SOL    HW2 6054   1.003   2.898   3.525
 1870SOL     OW 6055   0.705   2.912   2.230
 1870SOL    HW1 6056   0.691   2.919   2.329
 1870SOL    HW2 6057   0.789   2.861   2.212
 1871SOL     OW 6058   0.410   2.675   3.113
 1871SOL    HW1 6059   0.496   2.687   3.163
 1871SOL    HW2 6060   0.368   2.588   3.140
 1872SOL     OW 6061   1.274   2.248   3.124
 1872SOL    HW1 6062   1.295   2.322   3.188
 1872SOL    HW2 6063   1.185   2.265   3.081
 1873SOL     OW 6064   0.064   3.426   3.193
 1873SOL    HW1 6065   0.018   3.508   3.159
 1873SOL    HW2 6066   0.162   3.445   3.202
 1874SOL     OW 6067   0.367   2.962   2.363
 1874SOL    HW1 6068   0.360   3.045   2.307
 1874SOL    HW2 6069   0.371   2.882   2.303
 1875SOL     OW 6070   0.566   2.399   2.727
 1875SOL    HW1 6071   0.578   2.465   2.653
 1875SOL    HW2 6072   0.612   2.433   2.810
 1876SOL     OW 6073   1.252   3.210   2.250
 1876SOL    HW1 6074   1.302   3.287   2.290
 1876SOL    HW2 6075   1.157   3.212   2.282
 1877SOL     OW 6076   1.272   3.307   3.004
 1877SOL    HW1 6077   1.319   3.320   3.091
 1877SOL    HW2 6078   1.206   3.233   3.013
 1878SOL     OW 6079   1.582   2.501   2.334
 1878SOL    HW1 6080   1.551   2.562   2.407
 1878SOL    HW2 6081   1.632   2.553   2.265
 1879SOL     OW 6082   0.354   3.372   3.191
 1879SOL    HW1 6083   0.333   3.328   3.104
 1879SOL    HW2 6084   0.451   3.398   3.194
 1880SOL     OW 6085   0.402   2.613   3.460
 1880SOL    HW1 6086   0.470   2.668   3.413
 1880SOL    HW2 6087   0.442   2.525   3.487
 1881SOL     OW 6088   1.587   2.641   3.532
 1881SOL    HW1 6089   1.495   2.679   3.527
 1881SOL    HW2 6090   1.647   2.688   3.467
 1882SOL     OW 6091   1.013   1.967   3.632
 1882SOL    HW1 6092   1.019   2.052   3.580
 1882SOL    HW2 6093   1.045   1.891   3.575
 1883SOL     OW 6094   0.504   1.912   3.602
 1883SOL    HW1 6095   0.462   1.855   3.532
 1883SOL    HW2 6096   0.438   1.981   3.634
 1884SOL     OW 6097   0.573   2.732   2.891
 1884SOL    HW1 6098   0.617   2.821   2.882
 1884SOL    HW2 6099   0.510   2.732   2.968
 1885SOL     OW 6100   1.360   2.724   2.907
 1885SOL    HW1 6101   1.285   2.724   2.841
 1885SOL    HW2 6102   1.397   2.632   2.916
 1886SOL     OW 6103   1.209   2.387   2.137
 1886SOL    HW1 6104   1.222   2.303   2.191
 1886SOL    HW2 6105   1.180   2.461   2.197
 1887SOL     OW 6106   0.307   2.075   3.093
 1887SOL    HW1 6107   0.284   2.112   3.183
 1887SOL    HW2 6108   0.277   1.980   3.087
 1888SOL     OW 6109   0.037   3.172   3.144
 1888SOL    HW1 6110   0.090   3.123   3.212
 1888SOL    HW2 6111   0.059   3.270   3.149
 1889SOL     OW 6112   0.732   2.496   2.926
 1889SOL    HW1 6113   0.791   2.470   2.850
 1889SOL    HW2 6114   0.704   2.592   2.915
 1890SOL     OW 6115   1.728   2.797   3.716
 1890SOL    HW1 6116   1.682   2.790   3.627
 1890SOL    HW2 6117   1.666   2.841   3.782
 1891SOL     OW 6118   0.307   1.925   2.480
 1891SOL    HW1 6119   0.296   2.019   2.513
 1891SOL    HW2 6120   0.302   1.862   2.557
 1892SOL     OW 6121   1.622   2.229   2.236
 1892SOL    HW1 6122   1.624   2.153   2.300
 1892SOL    HW2 6123   1.574   2.306   2.276
 1893SOL     OW 6124   1.023   2.628   2.828
 1893SOL    HW1 6125   1.038   2.649   2.924
 1893SOL    HW2 6126   0.993   2.533   2.819
 1894SOL     OW 6127   0.980   3.435   3.562
 1894SOL    HW1 6128   0.960   3.479   3.474
 1894SOL    HW2 6129   1.019   3.344   3.546
 1895SOL     OW 6130   1.859   3.380   3.467
 1895SOL    HW1 6131   1.873   3.407   3.372
 1895SOL    HW2 6132   1.942   3.402   3.520
 1896SOL     OW 6133   0.350   2.760   3.666
 1896SOL    HW1 6134   0.426   2.804   3.714
 1896SOL    HW2 6135   0.385   2.713   3.584
 1897SOL     OW 6136   1.540   2.136   1.987
 1897SOL    HW1 6137   1.479   2.061   2.010
 1897SOL    HW2 6138   1.562   2.188   2.070
 1898SOL     OW 6139   1.303   2.700   1.904
 1898SOL    HW1 6140   1.337   2.607   1.919
 1898SOL    HW2 6141   1.321   2.727   1.809
 1899SOL     OW 6142   1.068   3.195   2.711
 1899SOL    HW1 6143   1.075   3.111   2.656
 1899SOL    HW2 6144   1.130   3.264   2.675
 1900SOL     OW 6145   0.319   2.672   2.811
 1900SOL    HW1 6146   0.412   2.708   2.816
 1900SOL    HW2 6147   0.313   2.587   2.863
 1901SOL     OW 6148   0.339   2.371   2.868
 1901SOL    HW1 6149   0.287   2.288   2.851
 1901SOL    HW2 6150   0.416   2.376   2.804
 1902SOL     OW 6151   1.138   2.242   3.540
 1902SOL    HW1 6152   1.093   2.305   3.604
 1902SOL    HW2 6153   1.231   2.273   3.523
 1903SOL     OW 6154   1.160   2.069   3.339
 1903SOL    HW1 6155   1.160   2.133   3.416
 1903SOL    HW2 6156   1.188   2.117   3.256
 1904SOL     OW 6157   0.008   3.188   2.062
 1904SOL    HW1 6158  -0.085   3.209   2.031
 1904SOL    HW2 6159   0.018   3.089   2.075
 1905SOL     OW 6160   0.088   3.663   2.789
 1905SOL    HW1 6161   0.046   3.577   2.762
 1905SOL    HW2 6162   0.182   3.666   2.755
 1906SOL     OW 6163   0.504   3.430   2.772
 1906SOL    HW1 6164   0.570   3.504   2.781
 1906SOL    HW2 6165   0.548   3.351   2.730
 1907SOL     OW 6166   1.002   2.658   3.100
 1907SOL    HW1 6167   1.043   2.626   3.186
 1907SOL    HW2 6168   0.906   2.631   3.097
 1908SOL     OW 6169   0.040   2.406   2.976
 1908SOL    HW1 6170   0.125   2.373   2.935
 1908SOL    HW2 6171   0.053   2.421   3.074
 1909SOL     OW 6172   0.189   2.382   3.584
 1909SOL    HW1 6173   0.248   2.342   3.514
 1909SOL    HW2 6174   0.131   2.453   3.543
 1910SOL     OW 6175   1.369   2.812   3.522
 1910SOL    HW1 6176   1.408   2.901   3.542
 1910SOL    HW2 6177   1.379   2.792   3.425
 1911SOL     OW 6178   0.815   2.434   2.187
 1911SOL    HW1 6179   0.822   2.345   2.141
 1911SOL    HW2 6180   0.721   2.468   2.179
 1912SOL     OW 6181   1.657   2.466   3.068
 1912SOL    HW1 6182   1.619   2.397   3.130
 1912SOL    HW2 6183   1.739   2.430   3.024
 1913SOL     OW 6184   0.252   3.426   3.606
 1913SOL    HW1 6185   0.222   3.483   3.682
 1913SOL    HW2 6186   0.245   3.329   3.632
 1914SOL     OW 6187   0.671   2.326   3.131
 1914SOL    HW1 6188   0.637   2.237   3.101
 1914SOL    HW2 6189   0.697   2.380   3.051
 1915SOL     OW 6190   0.930   3.540   3.327
 1915SOL    HW1 6191   0.906   3.522   3.232
 1915SOL    HW2 6192   0.960   3.634   3.337
 1916SOL     OW 6193   0.473   2.362   2.053
 1916SOL    HW1 6194   0.534   2.442   2.057
 1916SOL    HW2 6195   0.378   2.393   2.060
 1917SOL     OW 6196   0.159   2.999   3.328
 1917SOL    HW1 6197   0.181   2.938   3.404
 1917SOL    HW2 6198   0.169   2.950   3.242
 1918SOL     OW 6199   1.347   2.921   3.096
 1918SOL    HW1 6200   1.371   2.858   3.022
 1918SOL    HW2 6201   1.257   2.961   3.078
 1919SOL     OW 6202   1.302   2.717   2.171
 1919SOL    HW1 6203   1.216   2.686   2.213
 1919SOL    HW2 6204   1.298   2.703   2.072
 1920SOL     OW 6205   1.759   3.609   3.016
 1920SOL    HW1 6206   1.820   3.639   2.943
 1920SOL    HW2 6207   1.721   3.520   2.994
 1921SOL     OW 6208   1.252   3.593   2.990
 1921SOL    HW1 6209   1.336   3.598   2.936
 1921SOL    HW2 6210   1.229   3.497   3.008
 1922SOL     OW 6211   0.083   3.120   2.884
 1922SOL    HW1 6212   0.078   3.119   2.984
 1922SOL    HW2 6213   0.000   3.079   2.846
 1923SOL     OW 6214   0.688   3.524   3.578
 1923SOL    HW1 6215   0.632   3.605   3.587
 1923SOL    HW2 6216   0.740   3.528   3.492
 1924SOL     OW 6217   1.388   3.435   2.339
 1924SOL    HW1 6218   1.455   3.447   2.265
 1924SOL    HW2 6219   1.348   3.524   2.362
 1925SOL     OW 6220   0.130   3.656   3.713
 1925SOL    HW1 6221   0.089   3.582   3.766
 1925SOL    HW2 6222   0.194   3.707   3.771
 1926SOL     OW 6223   1.280   2.789   2.534
 1926SOL    HW1 6224   1.340   2.708   2.536
 1926SOL    HW2 6225   1.320   2.858   2.474
 1927SOL     OW 6226   0.830   3.135   3.284
 1927SOL    HW1 6227   0.825   3.168   3.379
 1927SOL    HW2 6228   0.744   3.154   3.238
 1928SOL     OW 6229   0.672   3.478   2.016
 1928SOL    HW1 6230   0.681   3.488   1.917
 1928SOL    HW2 6231   0.632   3.389   2.037
 1929SOL     OW 6232   1.650   3.582   3.256
 1929SOL    HW1 6233   1.703   3.592   3.172
 1929SOL    HW2 6234   1.623   3.672   3.290
 1930SOL     OW 6235   0.263   2.188   2.582
 1930SOL    HW1 6236   0.184   2.239   2.548
 1930SOL    HW2 6237   0.254   2.173   2.680
 1931SOL     OW 6238   1.194   3.474   1.893
 1931SOL    HW1 6239   1.200   3.381   1.930
 1931SOL    HW2 6240   1.135   3.474   1.813
 1932SOL     OW 6241   0.822   2.864   3.234
 1932SOL    HW1 6242   0.862   2.863   3.142
 1932SOL    HW2 6243   0.832   2.956   3.274
 1933SOL     OW 6244   0.916   2.772   2.153
 1933SOL    HW1 6245   0.979   2.810   2.085
 1933SOL    HW2 6246   0.956   2.689   2.192
 1934SOL     OW 6247   1.504   3.469   1.906
 1934SOL    HW1 6248   1.412   3.506   1.913
 1934SOL    HW2 6249   1.542   3.489   1.816
 1935SOL     OW 6250   0.372   3.150   3.352
 1935SOL    HW1 6251   0.359   3.243   3.318
 1935SOL    HW2 6252   0.288   3.098   3.339
 1936SOL     OW 6253   1.614   3.154   3.151
 1936SOL    HW1 6254   1.674   3.157   3.231
 1936SOL    HW2 6255   1.539   3.218   3.164
 1937SOL     OW 6256   1.039   2.960   2.558
 1937SOL    HW1 6257   0.969   2.913   2.612
 1937SOL    HW2 6258   1.098   2.892   2.515
 1938SOL     OW 6259   1.014   2.098   2.833
 1938SOL    HW1 6260   1.006   2.062   2.740
 1938SOL    HW2 6261   1.012   2.022   2.898
 1939SOL     OW 6262   0.590   3.349   2.353
 1939SOL    HW1 6263   0.632   3.291   2.283
 1939SOL    HW2 6264   0.546   3.428   2.309
 1940SOL     OW 6265   1.709   2.247   3.243
 1940SOL    HW1 6266   1.782   2.316   3.247
 1940SOL    HW2 6267   1.737   2.172   3.184
 1941SOL     OW 6268   0.255   3.210   2.152
 1941SOL    HW1 6269   0.159   3.211   2.125
 1941SOL    HW2 6270   0.267   3.263   2.236
 1942SOL     OW 6271   0.105   2.875   3.588
 1942SOL    HW1 6272   0.028   2.842   3.642
 1942SOL    HW2 6273   0.190   2.845   3.630
 1943SOL     OW 6274   0.672   2.065   3.351
 1943SOL    HW1 6275   0.762   2.049   3.311
 1943SOL    HW2 6276   0.680   2.070   3.450
 1944SOL     OW 6277   0.075   2.207   1.895
 1944SOL    HW1 6278  -0.017   2.179   1.866
 1944SOL    HW2 6279   0.106   2.284   1.839
 1945SOL     OW 6280   1.440   2.718   3.260
 1945SOL    HW1 6281   1.383   2.770   3.197
 1945SOL    HW2 6282   1.536   2.730   3.236
 1946SOL     OW 6283   0.072   2.028   2.180
 1946SOL    HW1 6284   0.055   2.111   2.126
 1946SOL    HW2 6285   0.162   1.991   2.158
 1947SOL     OW 6286   1.183   3.197   1.981
 1947SOL    HW1 6287   1.084   3.186   1.983
 1947SOL    HW2 6288   1.217   3.212   2.074
 1948SOL     OW 6289   0.613   2.704   3.293
 1948SOL    HW1 6290   0.669   2.785   3.276
 1948SOL    HW2 6291   0.672   2.624   3.296
 1949SOL     OW 6292   1.493   3.629   2.821
 1949SOL    HW1 6293   1.526   3.693   2.752
 1949SOL    HW2 6294   1.559   3.623   2.896
 1950SOL     OW 6295   0.716   2.427   3.570
 1950SOL    HW1 6296   0.735   2.492   3.644
 1950SOL    HW2 6297   0.776   2.347   3.579
 1951SOL     OW 6298   1.450   3.082   3.495
 1951SOL    HW1 6299   1.441   3.072   3.594
 1951SOL    HW2 6300   1.546   3.075   3.469
 1952SOL     OW 6301   0.390   3.603   3.422
 1952SOL    HW1 6302   0.299   3.644   3.420
 1952SOL    HW2 6303   0.383   3.509   3.454
 1953SOL     OW 6304   1.674   2.745   3.116
 1953SOL    HW1 6305   1.647   2.656   3.079
 1953SOL    HW2 6306   1.675   2.813   3.043
 1954SOL     OW 6307   1.225   2.187   2.311
 1954SOL    HW1 6308   1.290   2.113   2.300
 1954SOL    HW2 6309   1.245   2.237   2.395
 1955SOL     OW 6310   0.594   2.607   2.514
 1955SOL    HW1 6311   0.644   2.692   2.495
 1955SOL    HW2 6312   0.506   2.609   2.466
 1956SOL     OW 6313   1.777   2.204   3.504
 1956SOL    HW1 6314   1.760   2.235   3.410
 1956SOL    HW2 6315   1.693   2.167   3.542
 1957SOL     OW 6316   1.730   2.796   3.379
 1957SOL    HW1 6317   1.768   2.887   3.394
 1957SOL    HW2 6318   1.722   2.779   3.280
 1958SOL     OW 6319   0.859   3.236   1.878
 1958SOL    HW1 6320   0.813   3.251   1.966
 1958SOL    HW2 6321   0.903   3.321   1.848
 1959SOL     OW 6322   0.661   3.652   2.815
 1959SOL    HW1 6323   0.615   3.740   2.802
 1959SOL    HW2 6324   0.760   3.664   2.808
 1960SOL     OW 6325   0.859   2.818   2.723
 1960SOL    HW1 6326   0.913   2.749   2.771
 1960SOL    HW2 6327   0.827   2.887   2.789
 1961SOL     OW 6328   1.083   2.846   1.949
 1961SOL    HW1 6329   1.060   2.899   1.867
 1961SOL    HW2 6330   1.164   2.790   1.930
 1962SOL     OW 6331   1.861   3.431   2.713
 1962SOL    HW1 6332   1.790   3.419   2.643
 1962SOL    HW2 6333   1.862   3.352   2.773
 1963SOL     OW 6334   0.221   3.176   3.706
 1963SOL    HW1 6335   0.156   3.103   3.685
 1963SOL    HW2 6336   0.225   3.190   3.804
 1964SOL     OW 6337   0.079   3.102   2.515
 1964SOL    HW1 6338   0.078   3.055   2.603
 1964SOL    HW2 6339   0.161   3.074   2.464
 1965SOL     OW 6340   0.672   3.253   3.486
 1965SOL    HW1 6341   0.594   3.203   3.524
 1965SOL    HW2 6342   0.669   3.348   3.517
 1966SOL     OW 6343   0.428   2.286   2.382
 1966SOL    HW1 6344   0.458   2.214   2.320
 1966SOL    HW2 6345   0.389   2.246   2.465
 1967SOL     OW 6346   1.705   3.349   2.966
 1967SOL    HW1 6347   1.612   3.324   2.939
 1967SOL    HW2 6348   1.731   3.299   3.048
 1968SOL     OW 6349   0.317   2.409   3.142
 1968SOL    HW1 6350   0.355   2.350   3.214
 1968SOL    HW2 6351   0.357   2.383   3.054
 1969SOL     OW 6352   0.812   3.448   2.549
 1969SOL    HW1 6353   0.844   3.458   2.455
 1969SOL    HW2 6354   0.733   3.386   2.551
 1970SOL     OW 6355   1.424   2.076   2.974
 1970SOL    HW1 6356   1.476   2.011   3.029
 1970SOL    HW2 6357   1.375   2.139   3.035
 1971SOL     OW 6358   1.001   1.896   3.016
 1971SOL    HW1 6359   0.938   1.824   2.985
 1971SOL    HW2 6360   1.094   1.860   3.016
 1972SOL     OW 6361   0.770   3.192   2.163
 1972SOL    HW1 6362   0.724   3.105   2.180
 1972SOL    HW2 6363   0.861   3.189   2.204
 1973SOL     OW 6364   0.618   3.429   3.146
 1973SOL    HW1 6365   0.613   3.511   3.203
 1973SOL    HW2 6366   0.707   3.426   3.101
 1974SOL     OW 6367   1.352   1.914   2.030
 1974SOL    HW1 6368   1.387   1.873   1.946
 1974SOL    HW2 6369   1.262   1.876   2.050
 1975SOL     OW 6370   1.300   2.315   2.553
 1975SOL    HW1 6371   1.241   2.395   2.557
 1975SOL    HW2 6372   1.315   2.280   2.646
 1976SOL     OW 6373   1.593   2.083   2.744
 1976SOL    HW1 6374   1.509   2.082   2.798
 1976SOL    HW2 6375   1.595   2.166   2.688
 1977SOL     OW 6376   0.039   2.939   2.162
 1977SOL    HW1 6377   0.138   2.928   2.153
 1977SOL    HW2 6378  -0.001   2.853   2.194
 1978SOL     OW 6379   0.875   3.508   2.199
 1978SOL    HW1 6380   0.798   3.473   2.145
 1978SOL    HW2 6381   0.843   3.579   2.261
 1979SOL     OW 6382   0.230   2.490   3.837
 1979SOL    HW1 6383   0.137   2.488   3.874
 1979SOL    HW2 6384   0.231   2.451   3.745
 1980SOL     OW 6385   0.225   2.137   4.720
 1980SOL    HW1 6386   0.260   2.120   4.812
 1980SOL    HW2 6387   0.137   2.092   4.708
 1981SOL     OW 6388   0.019   2.230   4.371
 1981SOL    HW1 6389  -0.063   2.273   4.410
 1981SOL    HW2 6390  -0.009   2.157   4.308
 1982SOL     OW 6391   0.569   3.137   4.889
 1982SOL    HW1 6392   0.476   3.130   4.852
 1982SOL    HW2 6393   0.580   3.226   4.933
 1983SOL     OW 6394   1.555   3.373   4.427
 1983SOL    HW1 6395   1.498   3.357   4.508
 1983SOL    HW2 6396   1.496   3.383   4.347
 1984SOL     OW 6397   1.135   2.565   4.441
 1984SOL    HW1 6398   1.192   2.643   4.416
 1984SOL    HW2 6399   1.075   2.591   4.517
 1985SOL     OW 6400   1.755   2.469   3.955
 1985SOL    HW1 6401   1.743   2.456   3.856
 1985SOL    HW2 6402   1.725   2.388   4.004
 1986SOL     OW 6403   0.768   3.006   4.747
 1986SOL    HW1 6404   0.690   3.023   4.807
 1986SOL    HW2 6405   0.802   3.093   4.711
 1987SOL     OW 6406   0.850   2.660   5.547
 1987SOL    HW1 6407   0.846   2.736   5.612
 1987SOL    HW2 6408   0.872   2.696   5.456
 1988SOL     OW 6409   0.685   2.874   4.389
 1988SOL    HW1 6410   0.754   2.858   4.459
 1988SOL    HW2 6411   0.612   2.931   4.427
 1989SOL     OW 6412   0.686   3.023   5.527
 1989SOL    HW1 6413   0.746   3.102   5.541
 1989SOL    HW2 6414   0.600   3.054   5.486
 1990SOL     OW 6415   0.335   3.297   4.785
 1990SOL    HW1 6416   0.257   3.266   4.732
 1990SOL    HW2 6417   0.393   3.355   4.728
 1991SOL     OW 6418   1.460   3.367   5.063
 1991SOL    HW1 6419   1.484   3.461   5.089
 1991SOL    HW2 6420   1.444   3.313   5.145
 1992SOL     OW 6421   0.438   2.254   5.223
 1992SOL    HW1 6422   0.520   2.198   5.232
 1992SOL    HW2 6423   0.357   2.196   5.227
 1993SOL     OW 6424   1.603   2.309   4.461
 1993SOL    HW1 6425   1.529   2.355   4.411
 1993SOL    HW2 6426   1.654   2.377   4.514
 1994SOL     OW 6427   0.231   3.575   4.207
 1994SOL    HW1 6428   0.265   3.652   4.261
 1994SOL    HW2 6429   0.275   3.575   4.117
 1995SOL     OW 6430   1.127   3.203   5.414
 1995SOL    HW1 6431   1.174   3.203   5.502
 1995SOL    HW2 6432   1.079   3.116   5.403
 1996SOL     OW 6433   0.230   3.296   4.262
 1996SOL    HW1 6434   0.204   3.392   4.262
 1996SOL    HW2 6435   0.159   3.242   4.307
 1997SOL     OW 6436   0.240   2.953   4.610
 1997SOL    HW1 6437   0.254   2.869   4.662
 1997SOL    HW2 6438   0.185   3.017   4.665
 1998SOL     OW 6439   0.620   3.648   5.163
 1998SOL    HW1 6440   0.528   3.631   5.198
 1998SOL    HW2 6441   0.648   3.740   5.189
 1999SOL     OW 6442   0.606   2.826   3.847
 1999SOL    HW1 6443   0.613   2.910   3.793
 1999SOL    HW2 6444   0.652   2.839   3.935
 2000SOL     OW 6445   1.594   1.976   5.204
 2000SOL    HW1 6446   1.576   2.043   5.132
 2000SOL    HW2 6447   1.591   2.022   5.293
 2001SOL     OW 6448   0.122   2.505   4.287
 2001SOL    HW1 6449   0.077   2.417   4.304
 2001SOL    HW2 6450   0.121   2.559   4.371
 2002SOL     OW 6451   1.842   3.629   4.083
 2002SOL    HW1 6452   1.896   3.600   4.163
 2002SOL    HW2 6453   1.872   3.719   4.054
 2003SOL     OW 6454   0.027   3.458   3.841
 2003SOL    HW1 6455   0.008   3.362   3.862
 2003SOL    HW2 6456  -0.006   3.516   3.916
 2004SOL     OW 6457   1.689   2.784   4.336
 2004SOL    HW1 6458   1.784   2.755   4.344
 2004SOL    HW2 6459   1.681   2.849   4.261
 2005SOL     OW 6460   1.641   2.970   4.156
 2005SOL    HW1 6461   1.727   2.972   4.104
 2005SOL    HW2 6462   1.655   3.017   4.244
 2006SOL     OW 6463   0.113   2.599   5.321
 2006SOL    HW1 6464   0.201   2.586   5.366
 2006SOL    HW2 6465   0.100   2.696   5.299
 2007SOL     OW 6466   0.613   3.227   4.450
 2007SOL    HW1 6467   0.564   3.140   4.459
 2007SOL    HW2 6468   0.590   3.270   4.363
 2008SOL     OW 6469   1.293   3.090   5.147
 2008SOL    HW1 6470   1.330   3.017   5.089
 2008SOL    HW2 6471   1.345   3.095   5.232
 2009SOL     OW 6472   0.809   1.866   4.226
 2009SOL    HW1 6473   0.849   1.957   4.217
 2009SOL    HW2 6474   0.709   1.874   4.232
 2010SOL     OW 6475   0.197   2.838   4.988
 2010SOL    HW1 6476   0.286   2.793   4.974
 2010SOL    HW2 6477   0.124   2.773   4.969
 2011SOL     OW 6478   1.525   2.861   3.914
 2011SOL    HW1 6479   1.462   2.785   3.927
 2011SOL    HW2 6480   1.573   2.879   4.000
 2012SOL     OW 6481   1.187   3.654   5.340
 2012SOL    HW1 6482   1.211   3.714   5.264
 2012SOL    HW2 6483   1.194   3.559   5.310
 2013SOL     OW 6484   0.317   2.113   5.525
 2013SOL    HW1 6485   0.388   2.184   5.531
 2013SOL    HW2 6486   0.229   2.152   5.553
 2014SOL     OW 6487   1.466   3.279   4.677
 2014SOL    HW1 6488   1.407   3.285   4.757
 2014SOL    HW2 6489   1.451   3.191   4.631
 2015SOL     OW 6490   1.667   3.576   4.296
 2015SOL    HW1 6491   1.626   3.553   4.208
 2015SOL    HW2 6492   1.649   3.502   4.361
 2016SOL     OW 6493   0.598   2.591   3.994
 2016SOL    HW1 6494   0.622   2.660   3.926
 2016SOL    HW2 6495   0.520   2.624   4.048
 2017SOL     OW 6496   1.281   2.207   4.668
 2017SOL    HW1 6497   1.195   2.157   4.655
 2017SOL    HW2 6498   1.343   2.153   4.724
 2018SOL     OW 6499   1.576   3.524   4.031
 2018SOL    HW1 6500   1.665   3.570   4.034
 2018SOL    HW2 6501   1.555   3.500   3.936
 2019SOL     OW 6502   0.807   2.467   5.189
 2019SOL    HW1 6503   0.760   2.464   5.278
 2019SOL    HW2 6504   0.756   2.412   5.123
 2020SOL     OW 6505   1.394   2.331   5.398
 2020SOL    HW1 6506   1.374   2.374   5.486
 2020SOL    HW2 6507   1.472   2.269   5.407
 2021SOL     OW 6508   0.973   2.752   5.296
 2021SOL    HW1 6509   1.019   2.668   5.267
 2021SOL    HW2 6510   0.917   2.786   5.221
 2022SOL     OW 6511   0.991   2.272   4.966
 2022SOL    HW1 6512   0.914   2.306   5.020
 2022SOL    HW2 6513   0.957   2.221   4.887
 2023SOL     OW 6514   1.041   2.563   4.153
 2023SOL    HW1 6515   1.067   2.559   4.249
 2023SOL    HW2 6516   0.956   2.512   4.139
 2024SOL     OW 6517   0.076   2.673   4.513
 2024SOL    HW1 6518   0.175   2.661   4.522
 2024SOL    HW2 6519   0.052   2.768   4.534
 2025SOL     OW 6520   0.130   3.683   5.295
 2025SOL    HW1 6521   0.120   3.668   5.394
 2025SOL    HW2 6522   0.044   3.719   5.259
 2026SOL     OW 6523   0.865   2.210   3.919
 2026SOL    HW1 6524   0.924   2.273   3.870
 2026SOL    HW2 6525   0.884   2.116   3.890
 2027SOL     OW 6526   1.719   2.447   5.555
 2027SOL    HW1 6527   1.693   2.536   5.519
 2027SOL    HW2 6528   1.717   2.379   5.482
 2028SOL     OW 6529   1.362   3.006   4.269
 2028SOL    HW1 6530   1.445   2.977   4.221
 2028SOL    HW2 6531   1.313   3.073   4.213
 2029SOL     OW 6532   0.550   2.058   4.609
 2029SOL    HW1 6533   0.545   2.053   4.709
 2029SOL    HW2 6534   0.552   2.154   4.580
 2030SOL     OW 6535   1.008   3.318   4.201
 2030SOL    HW1 6536   0.962   3.390   4.149
 2030SOL    HW2 6537   1.004   3.338   4.299
 2031SOL     OW 6538   0.351   3.663   4.577
 2031SOL    HW1 6539   0.401   3.577   4.583
 2031SOL    HW2 6540   0.416   3.740   4.574
 2032SOL     OW 6541   1.795   2.928   4.597
 2032SOL    HW1 6542   1.733   2.913   4.521
 2032SOL    HW2 6543   1.743   2.939   4.682
 2033SOL     OW 6544   1.227   3.412   5.230
 2033SOL    HW1 6545   1.233   3.335   5.294
 2033SOL    HW2 6546   1.175   3.386   5.150
 2034SOL     OW 6547   0.321   2.805   3.966
 2034SOL    HW1 6548   0.403   2.844   3.924
 2034SOL    HW2 6549   0.294   2.723   3.917
 2035SOL     OW 6550   1.458   2.597   4.452
 2035SOL    HW1 6551   1.453   2.532   4.527
 2035SOL    HW2 6552   1.538   2.656   4.465
 2036SOL     OW 6553   0.461   3.128   5.451
 2036SOL    HW1 6554   0.411   3.129   5.365
 2036SOL    HW2 6555   0.398   3.110   5.527
 2037SOL     OW 6556   1.111   3.638   3.961
 2037SOL    HW1 6557   1.051   3.576   4.011
 2037SOL    HW2 6558   1.142   3.594   3.876
 2038SOL     OW 6559   0.202   2.147   5.222
 2038SOL    HW1 6560   0.122   2.207   5.209
 2038SOL    HW2 6561   0.192   2.098   5.308
 2039SOL     OW 6562   1.632   3.239   3.805
 2039SOL    HW1 6563   1.600   3.333   3.795
 2039SOL    HW2 6564   1.556   3.176   3.793
 2040SOL     OW 6565   0.464   3.605   4.047
 2040SOL    HW1 6566   0.497   3.644   4.133
 2040SOL    HW2 6567   0.540   3.598   3.982
 2041SOL     OW 6568   1.400   1.969   4.150
 2041SOL    HW1 6569   1.376   1.932   4.060
 2041SOL    HW2 6570   1.499   1.985   4.154
 2042SOL     OW 6571   0.249   3.647   4.965
 2042SOL    HW1 6572   0.306   3.582   5.015
 2042SOL    HW2 6573   0.233   3.614   4.872
 2043SOL     OW 6574   0.940   3.560   4.628
 2043SOL    HW1 6575   1.020   3.503   4.649
 2043SOL    HW2 6576   0.891   3.520   4.551
 2044SOL     OW 6577   0.382   2.562   4.204
 2044SOL    HW1 6578   0.427   2.472   4.201
 2044SOL    HW2 6579   0.288   2.551   4.237
 2045SOL     OW 6580   1.547   2.084   5.453
 2045SOL    HW1 6581   1.542   2.121   5.545
 2045SOL    HW2 6582   1.475   2.015   5.441
 2046SOL     OW 6583   0.614   1.984   3.841
 2046SOL    HW1 6584   0.712   1.962   3.848
 2046SOL    HW2 6585   0.583   1.967   3.748
 2047SOL     OW 6586   0.781   2.126   5.473
 2047SOL    HW1 6587   0.848   2.065   5.516
 2047SOL    HW2 6588   0.708   2.145   5.538
 2048SOL     OW 6589   0.888   3.376   4.919
 2048SOL    HW1 6590   0.865   3.351   4.825
 2048SOL    HW2 6591   0.949   3.307   4.958
 2049SOL     OW 6592   1.351   2.452   5.157
 2049SOL    HW1 6593   1.379   2.409   5.242
 2049SOL    HW2 6594   1.376   2.548   5.158
 2050SOL     OW 6595   0.803   3.264   4.648
 2050SOL    HW1 6596   0.893   3.278   4.606
 2050SOL    HW2 6597   0.732   3.266   4.577
 2051SOL     OW 6598   0.922   2.365   4.623
 2051SOL    HW1 6599   0.897   2.356   4.527
 2051SOL    HW2 6600   0.970   2.283   4.654
 2052SOL     OW 6601   0.539   1.926   4.236
 2052SOL    HW1 6602   0.458   1.927   4.294
 2052SOL    HW2 6603   0.542   2.009   4.181
 2053SOL     OW 6604   1.434   3.050   3.765
 2053SOL    HW1 6605   1.466   2.974   3.822
 2053SOL    HW2 6606   1.342   3.077   3.795
 2054SOL     OW 6607   0.297   1.897   3.895
 2054SOL    HW1 6608   0.346   1.981   3.874
 2054SOL    HW2 6609   0.359   1.832   3.940
 2055SOL     OW 6610   0.935   2.098   4.204
 2055SOL    HW1 6611   0.887   2.139   4.126
 2055SOL    HW2 6612   1.034   2.096   4.185
 2056SOL     OW 6613   1.076   2.545   5.188
 2056SOL    HW1 6614   0.996   2.484   5.191
 2056SOL    HW2 6615   1.157   2.492   5.164
 2057SOL     OW 6616   1.227   3.432   4.517
 2057SOL    HW1 6617   1.248   3.506   4.452
 2057SOL    HW2 6618   1.295   3.432   4.590
 2058SOL     OW 6619   0.459   3.014   4.465
 2058SOL    HW1 6620   0.388   2.987   4.530
 2058SOL    HW2 6621   0.433   2.986   4.372
 2059SOL     OW 6622   1.271   3.659   4.315
 2059SOL    HW1 6623   1.315   3.723   4.251
 2059SOL    HW2 6624   1.221   3.711   4.385
 2060SOL     OW 6625   1.032   2.411   3.740
 2060SOL    HW1 6626   0.991   2.493   3.701
 2060SOL    HW2 6627   1.096   2.437   3.813
 2061SOL     OW 6628   0.078   2.418   5.110
 2061SOL    HW1 6629   0.170   2.417   5.069
 2061SOL    HW2 6630   0.072   2.492   5.177
 2062SOL     OW 6631   0.561   2.084   4.871
 2062SOL    HW1 6632   0.599   2.000   4.908
 2062SOL    HW2 6633   0.473   2.103   4.915
 2063SOL     OW 6634   0.866   2.316   4.366
 2063SOL    HW1 6635   0.834   2.388   4.304
 2063SOL    HW2 6636   0.890   2.235   4.313
 2064SOL     OW 6637   1.017   1.901   4.477
 2064SOL    HW1 6638   0.945   1.906   4.408
 2064SOL    HW2 6639   0.993   1.832   4.546
 2065SOL     OW 6640   1.429   3.035   4.591
 2065SOL    HW1 6641   1.374   2.951   4.584
 2065SOL    HW2 6642   1.455   3.064   4.499
 2066SOL     OW 6643   1.466   2.452   4.716
 2066SOL    HW1 6644   1.436   2.357   4.723
 2066SOL    HW2 6645   1.539   2.468   4.782
 2067SOL     OW 6646   1.857   2.695   4.101
 2067SOL    HW1 6647   1.899   2.631   4.165
 2067SOL    HW2 6648   1.819   2.644   4.023
 2068SOL     OW 6649   0.488   3.247   3.898
 2068SOL    HW1 6650   0.401   3.232   3.945
 2068SOL    HW2 6651   0.471   3.273   3.803
 2069SOL     OW 6652   1.664   3.142   4.381
 2069SOL    HW1 6653   1.763   3.150   4.395
 2069SOL    HW2 6654   1.619   3.226   4.412
 2070SOL     OW 6655   1.390   2.437   3.802
 2070SOL    HW1 6656   1.336   2.416   3.883
 2070SOL    HW2 6657   1.481   2.396   3.811
 2071SOL     OW 6658   0.527   2.118   4.052
 2071SOL    HW1 6659   0.554   2.059   3.977
 2071SOL    HW2 6660   0.527   2.213   4.021
 2072SOL     OW 6661   1.754   3.085   5.312
 2072SOL    HW1 6662   1.845   3.046   5.299
 2072SOL    HW2 6663   1.762   3.181   5.336
 2073SOL     OW 6664   1.064   3.209   5.064
 2073SOL    HW1 6665   0.984   3.186   5.119
 2073SOL    HW2 6666   1.147   3.183   5.113
 2074SOL     OW 6667   1.592   3.491   5.349
 2074SOL    HW1 6668   1.619   3.525   5.259
 2074SOL    HW2 6669   1.671   3.453   5.395
 2075SOL     OW 6670   1.111   3.057   4.824
 2075SOL    HW1 6671   1.071   3.101   4.905
 2075SOL    HW2 6672   1.070   3.094   4.741
 2076SOL     OW 6673   1.638   2.961   4.803
 2076SOL    HW1 6674   1.643   3.042   4.862
 2076SOL    HW2 6675   1.552   2.963   4.752
 2077SOL     OW 6676   0.915   1.951   5.126
 2077SOL    HW1 6677   0.940   1.931   5.031
 2077SOL    HW2 6678   0.987   2.007   5.168
 2078SOL     OW 6679   0.980   2.978   5.443
 2078SOL    HW1 6680   0.881   2.984   5.453
 2078SOL    HW2 6681   1.003   2.898   5.387
 2079SOL     OW 6682   0.705   2.912   4.092
 2079SOL    HW1 6683   0.691   2.919   4.191
 2079SOL    HW2 6684   0.789   2.861   4.074
 2080SOL     OW 6685   0.410   2.675   4.975
 2080SOL    HW1 6686   0.496   2.687   5.025
 2080SOL    HW2 6687   0.368   2.588   5.002
 2081SOL     OW 6688   1.274   2.248   4.986
 2081SOL    HW1 6689   1.295   2.322   5.050
 2081SOL    HW2 6690   1.185   2.265   4.943
 2082SOL     OW 6691   0.064   3.426   5.055
 2082SOL    HW1 6692   0.018   3.508   5.021
 2082SOL    HW2 6693   0.162   3.445   5.064
 2083SOL     OW 6694   0.367   2.962   4.225
 2083SOL    HW1 6695   0.360   3.045   4.169
 2083SOL    HW2 6696   0.371   2.882   4.165
 2084SOL     OW 6697   0.566   2.399   4.589
 2084SOL    HW1 6698   0.578   2.465   4.515
 2084SOL    HW2 6699   0.612   2.433   4.672
 2085SOL     OW 6700   1.252   3.210   4.112
 2085SOL    HW1 6701   1.302   3.287   4.152
 2085SOL    HW2 6702   1.157   3.212   4.144
 2086SOL     OW 6703   1.272   3.307   4.866
 2086SOL    HW1 6704   1.319   3.320   4.953
 2086SOL    HW2 6705   1.206   3.233   4.875
 2087SOL     OW 6706   1.582   2.501   4.196
 2087SOL    HW1 6707   1.551   2.562   4.269
 2087SOL    HW2 6708   1.632   2.553   4.127
 2088SOL     OW 6709   0.354   3.372   5.053
 2088SOL    HW1 6710   0.333   3.328   4.966
 2088SOL    HW2 6711   0.451   3.398   5.056
 2089SOL     OW 6712   0.402   2.613   5.322
 2089SOL    HW1 6713   0.470   2.668   5.275
 2089SOL    HW2 6714   0.442   2.525   5.349
 2090SOL     OW 6715   1.587   2.641   5.394
 2090SOL    HW1 6716   1.495   2.679   5.389
 2090SOL    HW2 6717   1.647   2.688   5.329
 2091SOL     OW 6718   1.013   1.967   5.494
 2091SOL    HW1 6719   1.019   2.052   5.442
 2091SOL    HW2 6720   1.045   1.891   5.437
 2092SOL     OW 6721   0.504   1.912   5.464
 2092SOL    HW1 6722   0.462   1.855   5.394
 2092SOL    HW2 6723   0.438   1.981   5.496
 2093SOL     OW 6724   0.573   2.732   4.753
 2093SOL    HW1 6725   0.617   2.821   4.744
 2093SOL    HW2 6726   0.510   2.732   4.830
 2094SOL     OW 6727   1.360   2.724   4.769
 2094SOL    HW1 6728   1.285   2.724   4.703
 2094SOL    HW2 6729   1.397   2.632   4.778
 2095SOL     OW 6730   1.209   2.387   3.999
 2095SOL    HW1 6731   1.222   2.303   4.053
 2095SOL    HW2 6732   1.180   2.461   4.059
 2096SOL     OW 6733   0.307   2.075   4.955
 2096SOL    HW1 6734   0.284   2.112   5.045
 2096SOL    HW2 6735   0.277   1.980   4.949
 2097SOL     OW 6736   0.037   3.172   5.006
 2097SOL    HW1 6737   0.090   3.123   5.074
 2097SOL    HW2 6738   0.059   3.270   5.011
 2098SOL     OW 6739   0.732   2.496   4.788
 2098SOL    HW1 6740   0.791   2.470   4.712
 2098SOL    HW2 6741   0.704   2.592   4.777
 2099SOL     OW 6742   1.728   2.797   5.578
 2099SOL    HW1 6743   1.682   2.790   5.489
 2099SOL    HW2 6744   1.666   2.841   5.644
 2100SOL     OW 6745   0.307   1.925   4.342
 2100SOL    HW1 6746   0.296   2.019   4.375
 2100SOL    HW2 6747   0.302   1.862   4.419
 2101SOL     OW 6748   1.622   2.229   4.098
 2101SOL    HW1 6749   1.624   2.153   4.162
 2101SOL    HW2 6750   1.574   2.306   4.138
 2102SOL     OW 6751   1.023   2.628   4.690
 2102SOL    HW1 6752   1.038   2.649   4.786
 2102SOL    HW2 6753   0.993   2.533   4.681
 2103SOL     OW 6754   0.980   3.435   5.424
 2103SOL    HW1 6755   0.960   3.479   5.336
 2103SOL    HW2 6756   1.019   3.344   5.408
 2104SOL     OW 6757   1.859   3.380   5.329
 2104SOL    HW1 6758   1.873   3.407   5.234
 2104SOL    HW2 6759   1.942   3.402   5.382
 2105SOL     OW 6760   0.350   2.760   5.528
 2105SOL    HW1 6761   0.426   2.804   5.576
 2105SOL    HW2 6762   0.385   2.713   5.446
 2106SOL     OW 6763   1.540   2.136   3.849
 2106SOL    HW1 6764   1.479   2.061   3.872
 2106SOL    HW2 6765   1.562   2.188   3.932
 2107SOL     OW 6766   1.303   2.700   3.766
 2107SOL    HW1 6767   1.337   2.607   3.781
 2107SOL    HW2 6768   1.321   2.727   3.671
 2108SOL     OW 6769   1.068   3.195   4.573
 2108SOL    HW1 6770   1.075   3.111   4.518
 2108SOL    HW2 6771   1.130   3.264   4.537
 2109SOL     OW 6772   0.319   2.672   4.673
 2109SOL    HW1 6773   0.412   2.708   4.678
 2109SOL    HW2 6774   0.313   2.587   4.725
 2110SOL     OW 6775   0.339   2.371   4.730
 2110SOL    HW1 6776   0.287   2.288   4.713
 2110SOL    HW2 6777   0.416   2.376   4.666
 2111SOL     OW 6778   1.138   2.242   5.402
 2111SOL    HW1 6779   1.093   2.305   5.466
 2111SOL    HW2 6780   1.231   2.273   5.385
 2112SOL     OW 6781   1.160   2.069   5.201
 2112SOL    HW1 6782   1.160   2.133   5.278
 2112SOL    HW2 6783   1.188   2.117   5.118
 2113SOL     OW 6784   0.008   3.188   3.924
 2113SOL    HW1 6785  -0.085   3.209   3.893
 2113SOL    HW2 6786   0.018   3.089   3.937
 2114SOL     OW 6787   0.088   3.663   4.651
 2114SOL    HW1 6788   0.046   3.577   4.624
 2114SOL    HW2 6789   0.182   3.666   4.617
 2115SOL     OW 6790   0.504   3.430   4.634
 2115SOL    HW1 6791   0.570   3.504   4.643
 2115SOL    HW2 6792   0.548   3.351   4.592
 2116SOL     OW 6793   1.002   2.658   4.962
 2116SOL    HW1 6794   1.043   2.626   5.048
 2116SOL    HW2 6795   0.906   2.631   4.959
 2117SOL     OW 6796   0.040   2.406   4.838
 2117SOL    HW1 6797   0.125   2.373   4.797
 2117SOL    HW2 6798   0.053   2.421   4.936
 2118SOL     OW 6799   0.189   2.382   5.446
 2118SOL    HW1 6800   0.248   2.342   5.376
 2118SOL    HW2 6801   0.131   2.453   5.405
 2119SOL     OW 6802   1.369   2.812   5.384
 2119SOL    HW1 6803   1.408   2.901   5.404
 2119SOL    HW2 6804   1.379   2.792   5.287
 2120SOL     OW 6805   0.815   2.434   4.049
 2120SOL    HW1 6806   0.822   2.345   4.003
 2120SOL    HW2 6807   0.721   2.468   4.041
 2121SOL     OW 6808   1.657   2.466   4.930
 2121SOL    HW1 6809   1.619   2.397   4.992
 2121SOL    HW2 6810   1.739   2.430   4.886
 2122SOL     OW 6811   0.252   3.426   5.468
 2122SOL    HW1 6812   0.222   3.483   5.544
 2122SOL    HW2 6813   0.245   3.329   5.494
 2123SOL     OW 6814   0.671   2.326   4.993
 2123SOL    HW1 6815   0.637   2.237   4.963
 2123SOL    HW2 6816   0.697   2.380   4.913
 2124SOL     OW 6817   0.930   3.540   5.189
 2124SOL    HW1 6818   0.906   3.522   5.094
 2124SOL    HW2 6819   0.960   3.634   5.199
 2125SOL     OW 6820   0.473   2.362   3.915
 2125SOL    HW1 6821   0.534   2.442   3.919
 2125SOL    HW2 6822   0.378   2.393   3.922
 2126SOL     OW 6823   0.159   2.999   5.190
 2126SOL    HW1 6824   0.181   2.938   5.266
 2126SOL    HW2 6825   0.169   2.950   5.104
 2127SOL     OW 6826   1.347   2.921   4.958
 2127SOL    HW1 6827   1.371   2.858   4.884
 2127SOL    HW2 6828   1.257   2.961   4.940
 2128SOL     OW 6829   1.302   2.717   4.033
 2128SOL    HW1 6830   1.216   2.686   4.075
 2128SOL    HW2 6831   1.298   2.703   3.934
 2129SOL     OW 6832   1.759   3.609   4.878
 2129SOL    HW1 6833   1.820   3.639   4.805
 2129SOL    HW2 6834   1.721   3.520   4.856
 2130SOL     OW 6835   1.252   3.593   4.852
 2130SOL    HW1 6836   1.336   3.598   4.798
 2130SOL    HW2 6837   1.229   3.497   4.870
 2131SOL     OW 6838   0.083   3.120   4.746
 2131SOL    HW1 6839   0.078   3.119   4.846
 2131SOL    HW2 6840   0.000   3.079   4.708
 2132SOL     OW 6841   0.688   3.524   5.440
 2132SOL    HW1 6842   0.632   3.605   5.449
 2132SOL    HW2 6843   0.740   3.528   5.354
 2133SOL     OW 6844   1.388   3.435   4.201
 2133SOL    HW1 6845   1.455   3.447   4.127
 2133SOL    HW2 6846   1.348   3.524   4.224
 2134SOL     OW 6847   0.130   3.656   5.575
 2134SOL    HW1 6848   0.089   3.582   5.628
 2134SOL    HW2 6849   0.194   3.707   5.633
 2135SOL     OW 6850   1.280   2.789   4.396
 2135SOL    HW1 6851   1.340   2.708   4.398
 2135SOL    HW2 6852   1.320   2.858   4.336
 2136SOL     OW 6853   0.830   3.135   5.146
 2136SOL    HW1 6854   0.825   3.168   5.241
 2136SOL    HW2 6855   0.744   3.154   5.100
 2137SOL     OW 6856   0.672   3.478   3.878
 2137SOL    HW1 6857   0.681   3.488   3.779
 2137SOL    HW2 6858   0.632   3.389   3.899
 2138SOL     OW 6859   1.650   3.582   5.118
 2138SOL    HW1 6860   1.703   3.592   5.034
 2138SOL    HW2 6861   1.623   3.672   5.152
 2139SOL     OW 6862   0.263   2.188   4.444
 2139SOL    HW1 6863   0.184   2.239   4.410
 2139SOL    HW2 6864   0.254   2.173   4.542
 2140SOL     OW 6865   1.194   3.474   3.755
 2140SOL    HW1 6866   1.200   3.381   3.792
 2140SOL    HW2 6867   1.135   3.474   3.675
 2141SOL     OW 6868   0.822   2.864   5.096
 2141SOL    HW1 6869   0.862   2.863   5.004
 2141SOL    HW2 6870   0.832   2.956   5.136
 2142SOL     OW 6871   0.916   2.772   4.015
 2142SOL    HW1 6872   0.979   2.810   3.947
 2142SOL    HW2 6873   0.956   2.689   4.054
 2143SOL     OW 6874   1.504   3.469   3.768
 2143SOL    HW1 6875   1.412   3.506   3.775
 2143SOL    HW2 6876   1.542   3.489   3.678
 2144SOL     OW 6877   0.372   3.150   5.214
 2144SOL    HW1 6878   0.359   3.243   5.180
 2144SOL    HW2 6879   0.288   3.098   5.201
 2145SOL     OW 6880   1.614   3.154   5.013
 2145SOL    HW1 6881   1.674   3.157   5.093
 2145SOL    HW2 6882   1.539   3.218   5.026
 2146SOL     OW 6883   1.039   2.960   4.420
 2146SOL    HW1 6884   0.969   2.913   4.474
 2146SOL    HW2 6885   1.098   2.892   4.377
 2147SOL     OW 6886   1.014   2.098   4.695
 2147SOL    HW1 6887   1.006   2.062   4.602
 2147SOL    HW2 6888   1.012   2.022   4.760
 2148SOL     OW 6889   0.590   3.349   4.215
 2148SOL    HW1 6890   0.632   3.291   4.145
 2148SOL    HW2 6891   0.546   3.428   4.171
 2149SOL     OW 6892   1.709   2.247   5.105
 2149SOL    HW1 6893   1.782   2.316   5.109
 2149SOL    HW2 6894   1.737   2.172   5.046
 2150SOL     OW 6895   0.255   3.210   4.014
 2150SOL    HW1 6896   0.159   3.211   3.987
 2150SOL    HW2 6897   0.267   3.263   4.098
 2151SOL     OW 6898   0.105   2.875   5.450
 2151SOL    HW1 6899   0.028   2.842   5.504
 2151SOL    HW2 6900   0.190   2.845   5.492
 2152SOL     OW 6901   0.672   2.065   5.213
 2152SOL    HW1 6902   0.762   2.049   5.173
 2152SOL    HW2 6903   0.680   2.070   5.312
 2153SOL     OW 6904   0.075   2.207   3.757
 2153SOL    HW1 6905  -0.017   2.179   3.728
 2153SOL    HW2 6906   0.106   2.284   3.701
 2154SOL     OW 6907   1.440   2.718   5.122
 2154SOL    HW1 6908   1.383   2.770   5.059
 2154SOL    HW2 6909   1.536   2.730   5.098
 2155SOL     OW 6910   0.072   2.028   4.042
 2155SOL    HW1 6911   0.055   2.111   3.988
 2155SOL    HW2 6912   0.162   1.991   4.020
 2156SOL     OW 6913   1.183   3.197   3.843
 2156SOL    HW1 6914   1.084   3.186   3.845
 2156SOL    HW2 6915   1.217   3.212   3.936
 2157SOL     OW 6916   0.613   2.704   5.155
 2157SOL    HW1 6917   0.669   2.785   5.138
 2157SOL    HW2 6918   0.672   2.624   5.158
 2158SOL     OW 6919   1.493   3.629   4.683
 2158SOL    HW1 6920   1.526   3.693   4.614
 2158SOL    HW2 6921   1.559   3.623   4.758
 2159SOL     OW 6922   0.716   2.427   5.432
 2159SOL    HW1 6923   0.735   2.492   5.506
 2159SOL    HW2 6924   0.776   2.347   5.441
 2160SOL     OW 6925   1.450   3.082   5.357
 2160SOL    HW1 6926   1.441   3.072   5.456
 2160SOL    HW2 6927   1.546   3.075   5.331
 2161SOL     OW 6928   0.390   3.603   5.284
 2161SOL    HW1 6929   0.299   3.644   5.282
 2161SOL    HW2 6930   0.383   3.509   5.316
 2162SOL     OW 6931   1.674   2.745   4.978
 2162SOL    HW1 6932   1.647   2.656   4.941
 2162SOL    HW2 6933   1.675   2.813   4.905
 2163SOL     OW 6934   1.225   2.187   4.173
 2163SOL    HW1 6935   1.290   2.113   4.162
 2163SOL    HW2 6936   1.245   2.237   4.257
 2164SOL     OW 6937   0.594   2.607   4.376
 2164SOL    HW1 6938   0.644   2.692   4.357
 2164SOL    HW2 6939   0.506   2.609   4.328
 2165SOL     OW 6940   1.777   2.204   5.366
 2165SOL    HW1 6941   1.760   2.235   5.272
 2165SOL    HW2 6942   1.693   2.167   5.404
 2166SOL     OW 6943   1.730   2.796   5.241
 2166SOL    HW1 6944   1.768   2.887   5.256
 2166SOL    HW2 6945   1.722   2.779   5.142
 2167SOL     OW 6946   0.859   3.236   3.740
 2167SOL    HW1 6947   0.813   3.251   3.828
 2167SOL    HW2 6948   0.903   3.321   3.710
 2168SOL     OW 6949   0.661   3.652   4.677
 2168SOL    HW1 6950   0.615   3.740   4.664
 2168SOL    HW2 6951   0.760   3.664   4.670
 2169SOL     OW 6952   0.859   2.818   4.585
 2169SOL    HW1 6953   0.913   2.749   4.633
 2169SOL    HW2 6954   0.827   2.887   4.651
 2170SOL     OW 6955   1.083   2.846   3.811
 2170SOL    HW1 6956   1.060   2.899   3.729
 2170SOL    HW2 6957   1.164   2.790   3.792
 2171SOL     OW 6958   1.861   3.431   4.575
 2171SOL    HW1 6959   1.790   3.419   4.505
 2171SOL    HW2 6960   1.862   3.352   4.635
 2172SOL     OW 6961   0.221   3.176   5.568
 2172SOL    HW1 6962   0.156   3.103   5.547
 2172SOL    HW2 6963   0.225   3.190   5.666
 2173SOL     OW 6964   0.079   3.102   4.377
 2173SOL    HW1 6965   0.078   3.055   4.465
 2173SOL    HW2 6966   0.161   3.074   4.326
 2174SOL     OW 6967   0.672   3.253   5.348
 2174SOL    HW1 6968   0.594   3.203   5.386
 2174SOL    HW2 6969   0.669   3.348   5.379
 2175SOL     OW 6970   0.428   2.286   4.244
 2175SOL    HW1 6971   0.458   2.214   4.182
 2175SOL    HW2 6972   0.389   2.246   4.327
 2176SOL     OW 6973   1.705   3.349   4.828
 2176SOL    HW1 6974   1.612   3.324   4.801
 2176SOL    HW2 6975   1.731   3.299   4.910
 2177SOL     OW 6976   0.317   2.409   5.004
 2177SOL    HW1 6977   0.355   2.350   5.076
 2177SOL    HW2 6978   0.357   2.383   4.916
 2178SOL     OW 6979   0.812   3.448   4.411
 2178SOL    HW1 6980   0.844   3.458   4.317
 2178SOL    HW2 6981   0.733   3.386   4.413
 2179SOL     OW 6982   1.424   2.076   4.836
 2179SOL    HW1 6983   1.476   2.011   4.891
 2179SOL    HW2 6984   1.375   2.139   4.897
 2180SOL     OW 6985   1.001   1.896   4.878
 2180SOL    HW1 6986   0.938   1.824   4.847
 2180SOL    HW2 6987   1.094   1.860   4.878
 2181SOL     OW 6988   0.770   3.192   4.025
 2181SOL    HW1 6989   0.724   3.105   4.042
 2181SOL    HW2 6990   0.861   3.189   4.066
 2182SOL     OW 6991   0.618   3.429   5.008
 2182SOL    HW1 6992   0.613   3.511   5.065
 2182SOL    HW2 6993   0.707   3.426   4.963
 2183SOL     OW 6994   1.352   1.914   3.892
 2183SOL    HW1 6995   1.387   1.873   3.808
 2183SOL    HW2 6996   1.262   1.876   3.912
 2184SOL     OW 6997   1.300   2.315   4.415
 2184SOL    HW1 6998   1.241   2.395   4.419
 2184SOL    HW2 6999   1.315   2.280   4.508
 2185SOL     OW 7000   1.593   2.083   4.606
 2185SOL    HW1 7001   1.509   2.082   4.660
 2185SOL    HW2 7002   1.595   2.166   4.550
 2186SOL     OW 7003   0.039   2.939   4.024
 2186SOL    HW1 7004   0.138   2.928   4.015
 2186SOL    HW2 7005  -0.001   2.853   4.056
 2187SOL     OW 7006   0.875   3.508   4.061
 2187SOL    HW1 7007   0.798   3.473   4.007
 2187SOL    HW2 7008   0.843   3.579   4.123
 2188SOL     OW 7009   0.230   2.490   5.699
 2188SOL    HW1 7010   0.137   2.488   5.736
 2188SOL    HW2 7011   0.231   2.451   5.607
 2189SOL     OW 7012   0.225   2.137   6.582
 2189SOL    HW1 7013   0.260   2.120   6.674
 2189SOL    HW2 7014   0.137   2.092   6.570
 2190SOL     OW 7015   0.019   2.230   6.233
 2190SOL    HW1 7016  -0.063   2.273   6.272
 2190SOL    HW2 7017  -0.009   2.157   6.170
 2191SOL     OW 7018   0.569   3.137   6.751
 2191SOL    HW1 7019   0.476   3.130   6.714
 2191SOL    HW2 7020   0.580   3.226   6.795
 2192SOL     OW 7021   1.555   3.373   6.289
 2192SOL    HW1 7022   1.498   3.357   6.370
 2192SOL    HW2 7023   1.496   3.383   6.209
 2193SOL     OW 7024   1.135   2.565   6.303
 2193SOL    HW1 7025   1.192   2.643   6.278
 2193SOL    HW2 7026   1.075   2.591   6.379
 2194SOL     OW 7027   1.755   2.469   5.817
 2194SOL    HW1 7028   1.743   2.456   5.718
 2194SOL    HW2 7029   1.725   2.388   5.866
 2195SOL     OW 7030   0.768   3.006   6.609
 2195SOL    HW1 7031   0.690   3.023   6.669
 2195SOL    HW2 7032   0.802   3.093   6.573
 2196SOL     OW 7033   0.850   2.660   7.409
 2196SOL    HW1 7034   0.846   2.736   7.474
 2196SOL    HW2 7035   0.872   2.696   7.318
 2197SOL     OW 7036   0.685   2.874   6.251
 2197SOL    HW1 7037   0.754   2.858   6.321
 2197SOL    HW2 7038   0.612   2.931   6.289
 2198SOL     OW 7039   0.686   3.023   7.389
 2198SOL    HW1 7040   0.746   3.102   7.403
 2198SOL    HW2 7041   0.600   3.054   7.348
 2199SOL     OW 7042   0.335   3.297   6.647
 2199SOL    HW1 7043   0.257   3.266   6.594
 2199SOL    HW2 7044   0.393   3.355   6.590
 2200SOL     OW 7045   1.460   3.367   6.925
 2200SOL    HW1 7046   1.484   3.461   6.951
 2200SOL    HW2 7047   1.444   3.313   7.007
 2201SOL     OW 7048   0.438   2.254   7.085
 2201SOL    HW1 7049   0.520   2.198   7.094
 2201SOL    HW2 7050   0.357   2.196   7.089
 2202SOL     OW 7051   1.603   2.309   6.323
 2202SOL    HW1 7052   1.529   2.355   6.273
 2202SOL    HW2 7053   1.654   2.377   6.376
 2203SOL     OW 7054   0.231   3.575   6.069
 2203SOL    HW1 7055   0.265   3.652   6.123
 2203SOL    HW2 7056   0.275   3.575   5.979
 2204SOL     OW 7057   1.127   3.203   7.276
 2204SOL    HW1 7058   1.174   3.203   7.364
 2204SOL    HW2 7059   1.079   3.116   7.265
 2205SOL     OW 7060   0.230   3.296   6.124
 2205SOL    HW1 7061   0.204   3.392   6.124
 2205SOL    HW2 7062   0.159   3.242   6.169
 2206SOL     OW 7063   0.240   2.953   6.472
 2206SOL    HW1 7064   0.254   2.869   6.524
 2206SOL    HW2 7065   0.185   3.017   6.527
 2207SOL     OW 7066   0.620   3.648   7.025
 2207SOL    HW1 7067   0.528   3.631   7.060
 2207SOL    HW2 7068   0.648   3.740   7.051
 2208SOL     OW 7069   0.606   2.826   5.709
 2208SOL    HW1 7070   0.613   2.910   5.655
 2208SOL    HW2 7071   0.652   2.839   5.797
 2209SOL     OW 7072   0.122   2.505   6.149
 2209SOL    HW1 7073   0.077   2.417   6.166
 2209SOL    HW2 7074   0.121   2.559   6.233
 2210SOL     OW 7075   1.842   3.629   5.945
 2210SOL    HW1 7076   1.896   3.600   6.025
 2210SOL    HW2 7077   1.872   3.719   5.916
 2211SOL     OW 7078   0.027   3.458   5.703
 2211SOL    HW1 7079   0.008   3.362   5.724
 2211SOL    HW2 7080  -0.006   3.516   5.778
 2212SOL     OW 7081   1.689   2.784   6.198
 2212SOL    HW1 7082   1.784   2.755   6.206
 2212SOL    HW2 7083   1.681   2.849   6.123
 2213SOL     OW 7084   1.641   2.970   6.018
 2213SOL    HW1 7085   1.727   2.972   5.966
 2213SOL    HW2 7086   1.655   3.017   6.106
 2214SOL     OW 7087   0.113   2.599   7.183
 2214SOL    HW1 7088   0.201   2.586   7.228
 2214SOL    HW2 7089   0.100   2.696   7.161
 2215SOL     OW 7090   0.613   3.227   6.312
 2215SOL    HW1 7091   0.564   3.140   6.321
 2215SOL    HW2 7092   0.590   3.270   6.225
 2216SOL     OW 7093   1.293   3.090   7.009
 2216SOL    HW1 7094   1.330   3.017   6.951
 2216SOL    HW2 7095   1.345   3.095   7.094
 2217SOL     OW 7096   0.809   1.866   6.088
 2217SOL    HW1 7097   0.849   1.957   6.079
 2217SOL    HW2 7098   0.709   1.874   6.094
 2218SOL     OW 7099   0.197   2.838   6.850
 2218SOL    HW1 7100   0.286   2.793   6.836
 2218SOL    HW2 7101   0.124   2.773   6.831
 2219SOL     OW 7102   1.525   2.861   5.776
 2219SOL    HW1 7103   1.462   2.785   5.789
 2219SOL    HW2 7104   1.573   2.879   5.862
 2220SOL     OW 7105   1.187   3.654   7.202
 2220SOL    HW1 7106   1.211   3.714   7.126
 2220SOL    HW2 7107   1.194   3.559   7.172
 2221SOL     OW 7108   0.317   2.113   7.387
 2221SOL    HW1 7109   0.388   2.184   7.393
 2221SOL    HW2 7110   0.229   2.152   7.415
 2222SOL     OW 7111   1.466   3.279   6.539
 2222SOL    HW1 7112   1.407   3.285   6.619
 2222SOL    HW2 7113   1.451   3.191   6.493
 2223SOL     OW 7114   1.667   3.576   6.158
 2223SOL    HW1 7115   1.626   3.553   6.070
 2223SOL    HW2 7116   1.649   3.502   6.223
 2224SOL     OW 7117   0.598   2.591   5.856
 2224SOL    HW1 7118   0.622   2.660   5.788
 2224SOL    HW2 7119   0.520   2.624   5.910
 2225SOL     OW 7120   1.281   2.207   6.530
 2225SOL    HW1 7121   1.195   2.157   6.517
 2225SOL    HW2 7122   1.343   2.153   6.586
 2226SOL     OW 7123   1.576   3.524   5.893
 2226SOL    HW1 7124   1.665   3.570   5.896
 2226SOL    HW2 7125   1.555   3.500   5.798
 2227SOL     OW 7126   0.807   2.467   7.051
 2227SOL    HW1 7127   0.760   2.464   7.140
 2227SOL    HW2 7128   0.756   2.412   6.985
 2228SOL     OW 7129   0.973   2.752   7.158
 2228SOL    HW1 7130   1.019   2.668   7.129
 2228SOL    HW2 7131   0.917   2.786   7.083
 2229SOL     OW 7132   0.991   2.272   6.828
 2229SOL    HW1 7133   0.914   2.306   6.882
 2229SOL    HW2 7134   0.957   2.221   6.749
 2230SOL     OW 7135   1.041   2.563   6.015
 2230SOL    HW1 7136   1.067   2.559   6.111
 2230SOL    HW2 7137   0.956   2.512   6.001
 2231SOL     OW 7138   0.076   2.673   6.375
 2231SOL    HW1 7139   0.175   2.661   6.384
 2231SOL    HW2 7140   0.052   2.768   6.396
 2232SOL     OW 7141   0.130   3.683   7.157
 2232SOL    HW1 7142   0.120   3.668   7.256
 2232SOL    HW2 7143   0.044   3.719   7.121
 2233SOL     OW 7144   0.865   2.210   5.781
 2233SOL    HW1 7145   0.924   2.273   5.732
 2233SOL    HW2 7146   0.884   2.116   5.752
 2234SOL     OW 7147   1.362   3.006   6.131
 2234SOL    HW1 7148   1.445   2.977   6.083
 2234SOL    HW2 7149   1.313   3.073   6.075
 2235SOL     OW 7150   0.550   2.058   6.471
 2235SOL    HW1 7151   0.545   2.053   6.571
 2235SOL    HW2 7152   0.552   2.154   6.442
 2236SOL     OW 7153   1.008   3.318   6.063
 2236SOL    HW1 7154   0.962   3.390   6.011
 2236SOL    HW2 7155   1.004   3.338   6.161
 2237SOL     OW 7156   0.351   3.663   6.439
 2237SOL    HW1 7157   0.401   3.577   6.445
 2237SOL    HW2 7158   0.416   3.740   6.436
 2238SOL     OW 7159   1.795   2.928   6.459
 2238SOL    HW1 7160   1.733   2.913   6.383
 2238SOL    HW2 7161   1.743   2.939   6.544
 2239SOL     OW 7162   1.227   3.412   7.092
 2239SOL    HW1 7163   1.233   3.335   7.156
 2239SOL    HW2 7164   1.175   3.386   7.012
 2240SOL     OW 7165   0.321   2.805   5.828
 2240SOL    HW1 7166   0.403   2.844   5.786
 2240SOL    HW2 7167   0.294   2.723   5.779
 2241SOL     OW 7168   1.458   2.597   6.314
 2241SOL    HW1 7169   1.453   2.532   6.389
 2241SOL    HW2 7170   1.538   2.656   6.327
 2242SOL     OW 7171   0.461   3.128   7.313
 2242SOL    HW1 7172   0.411   3.129   7.227
 2242SOL    HW2 7173   0.398   3.110   7.389
 2243SOL     OW 7174   1.111   3.638   5.823
 2243SOL    HW1 7175   1.051   3.576   5.873
 2243SOL    HW2 7176   1.142   3.594   5.738
 2244SOL     OW 7177   0.202   2.147   7.084
 2244SOL    HW1 7178   0.122   2.207   7.071
 2244SOL    HW2 7179   0.192   2.098   7.170
 2245SOL     OW 7180   1.632   3.239   5.667
 2245SOL    HW1 7181   1.600   3.333   5.657
 2245SOL    HW2 7182   1.556   3.176   5.655
 2246SOL     OW 7183   0.464   3.605   5.909
 2246SOL    HW1 7184   0.497   3.644   5.995
 2246SOL    HW2 7185   0.540   3.598   5.844
 2247SOL     OW 7186   1.400   1.969   6.012
 2247SOL    HW1 7187   1.376   1.932   5.922
 2247SOL    HW2 7188   1.499   1.985   6.016
 2248SOL     OW 7189   0.249   3.647   6.827
 2248SOL    HW1 7190   0.306   3.582   6.877
 2248SOL    HW2 7191   0.233   3.614   6.734
 2249SOL     OW 7192   0.940   3.560   6.490
 2249SOL    HW1 7193   1.020   3.503   6.511
 2249SOL    HW2 7194   0.891   3.520   6.413
 2250SOL     OW 7195   0.382   2.562   6.066
 2250SOL    HW1 7196   0.427   2.472   6.063
 2250SOL    HW2 7197   0.288   2.551   6.099
 2251SOL     OW 7198   0.614   1.984   5.703
 2251SOL    HW1 7199   0.712   1.962   5.710
 2251SOL    HW2 7200   0.583   1.967   5.610
 2252SOL     OW 7201   0.781   2.126   7.335
 2252SOL    HW1 7202   0.848   2.065   7.378
 2252SOL    HW2 7203   0.708   2.145   7.400
 2253SOL     OW 7204   0.888   3.376   6.781
 2253SOL    HW1 7205   0.865   3.351   6.687
 2253SOL    HW2 7206   0.949   3.307   6.820
 2254SOL     OW 7207   0.803   3.264   6.510
 2254SOL    HW1 7208   0.893   3.278   6.468
 2254SOL    HW2 7209   0.732   3.266   6.439
 2255SOL     OW 7210   0.922   2.365   6.485
 2255SOL    HW1 7211   0.897   2.356   6.389
 2255SOL    HW2 7212   0.970   2.283   6.516
 2256SOL     OW 7213   0.539   1.926   6.098
 2256SOL    HW1 7214   0.458   1.927   6.156
 2256SOL    HW2 7215   0.542   2.009   6.043
 2257SOL     OW 7216   1.434   3.050   5.627
 2257SOL    HW1 7217   1.466   2.974   5.684
 2257SOL    HW2 7218   1.342   3.077   5.657
 2258SOL     OW 7219   0.297   1.897   5.757
 2258SOL    HW1 7220   0.346   1.981   5.736
 2258SOL    HW2 7221   0.359   1.832   5.802
 2259SOL     OW 7222   0.935   2.098   6.066
 2259SOL    HW1 7223   0.887   2.139   5.988
 2259SOL    HW2 7224   1.034   2.096   6.047
 2260SOL     OW 7225   1.076   2.545   7.050
 2260SOL    HW1 7226   0.996   2.484   7.053
 2260SOL    HW2 7227   1.157   2.492   7.026
 2261SOL     OW 7228   1.227   3.432   6.379
 2261SOL    HW1 7229   1.248   3.506   6.314
 2261SOL    HW2 7230   1.295   3.432   6.452
 2262SOL     OW 7231   0.459   3.014   6.327
 2262SOL    HW1 7232   0.388   2.987   6.392
 2262SOL    HW2 7233   0.433   2.986   6.234
 2263SOL     OW 7234   1.271   3.659   6.177
 2263SOL    HW1 7235   1.315   3.723   6.113
 2263SOL    HW2 7236   1.221   3.711   6.247
 2264SOL     OW 7237   1.032   2.411   5.602
 2264SOL    HW1 7238   0.991   2.493   5.563
 2264SOL    HW2 7239   1.096   2.437   5.675
 2265SOL     OW 7240   0.078   2.418   6.972
 2265SOL    HW1 7241   0.170   2.417   6.931
 2265SOL    HW2 7242   0.072   2.492   7.039
 2266SOL     OW 7243   0.561   2.084   6.733
 2266SOL    HW1 7244   0.599   2.000   6.770
 2266SOL    HW2 7245   0.473   2.103   6.777
 2267SOL     OW 7246   0.866   2.316   6.228
 2267SOL    HW1 7247   0.834   2.388   6.166
 2267SOL    HW2 7248   0.890   2.235   6.175
 2268SOL     OW 7249   1.017   1.901   6.339
 2268SOL    HW1 7250   0.945   1.906   6.270
 2268SOL    HW2 7251   0.993   1.832   6.408
 2269SOL     OW 7252   1.429   3.035   6.453
 2269SOL    HW1 7253   1.374   2.951   6.446
 2269SOL    HW2 7254   1.455   3.064   6.361
 2270SOL     OW 7255   1.466   2.452   6.578
 2270SOL    HW1 7256   1.436   2.357   6.585
 2270SOL    HW2 7257   1.539   2.468   6.644
 2271SOL     OW 7258   1.857   2.695   5.963
 2271SOL    HW1 7259   1.899   2.631   6.027
 2271SOL    HW2 7260   1.819   2.644   5.885
 2272SOL     OW 7261   0.488   3.247   5.760
 2272SOL    HW1 7262   0.401   3.232   5.807
 2272SOL    HW2 7263   0.471   3.273   5.665
 2273SOL     OW 7264   1.664   3.142   6.243
 2273SOL    HW1 7265   1.763   3.150   6.257
 2273SOL    HW2 7266   1.619   3.226   6.274
 2274SOL     OW 7267   1.390   2.437   5.664
 2274SOL    HW1 7268   1.336   2.416   5.745
 2274SOL    HW2 7269   1.481   2.396   5.673
 2275SOL     OW 7270   0.527   2.118   5.914
 2275SOL    HW1 7271   0.554   2.059   5.839
 2275SOL    HW2 7272   0.527   2.213   5.883
 2276SOL     OW 7273   1.754   3.085   7.174
 2276SOL    HW1 7274   1.845   3.046   7.161
 2276SOL    HW2 7275   1.762   3.181   7.198
 2277SOL     OW 7276   1.064   3.209   6.926
 2277SOL    HW1 7277   0.984   3.186   6.981
 2277SOL    HW2 7278   1.147   3.183   6.975
 2278SOL     OW 7279   1.592   3.491   7.211
 2278SOL    HW1 7280   1.619   3.525   7.121
 2278SOL    HW2 7281   1.671   3.453   7.257
 2279SOL     OW 7282   1.111   3.057   6.686
 2279SOL    HW1 7283   1.071   3.101   6.767
 2279SOL    HW2 7284   1.070   3.094   6.603
 2280SOL     OW 7285   0.980   2.978   7.305
 2280SOL    HW1 7286   0.881   2.984   7.315
 2280SOL    HW2 7287   1.003   2.898   7.249
 2281SOL     OW 7288   0.705   2.912   5.954
 2281SOL    HW1 7289   0.691   2.919   6.053
 2281SOL    HW2 7290   0.789   2.861   5.936
 2282SOL     OW 7291   0.410   2.675   6.837
 2282SOL    HW1 7292   0.496   2.687   6.887
 2282SOL    HW2 7293   0.368   2.588   6.864
 2283SOL     OW 7294   0.064   3.426   6.917
 2283SOL    HW1 7295   0.018   3.508   6.883
 2283SOL    HW2 7296   0.162   3.445   6.926
 2284SOL     OW 7297   0.367   2.962   6.087
 2284SOL    HW1 7298   0.360   3.045   6.031
 2284SOL    HW2 7299   0.371   2.882   6.027
 2285SOL     OW 7300   0.566   2.399   6.451
 2285SOL    HW1 7301   0.578   2.465   6.377
 2285SOL    HW2 7302   0.612   2.433   6.534
 2286SOL     OW 7303   1.252   3.210   5.974
 2286SOL    HW1 7304   1.302   3.287   6.014
 2286SOL    HW2 7305   1.157   3.212   6.006
 2287SOL     OW 7306   1.272   3.307   6.728
 2287SOL    HW1 7307   1.319   3.320   6.815
 2287SOL    HW2 7308   1.206   3.233   6.737
 2288SOL     OW 7309   1.582   2.501   6.058
 2288SOL    HW1 7310   1.551   2.562   6.131
 2288SOL    HW2 7311   1.632   2.553   5.989
 2289SOL     OW 7312   0.354   3.372   6.915
 2289SOL    HW1 7313   0.333   3.328   6.828
 2289SOL    HW2 7314   0.451   3.398   6.918
 2290SOL     OW 7315   0.402   2.613   7.184
 2290SOL    HW1 7316   0.470   2.668   7.137
 2290SOL    HW2 7317   0.442   2.525   7.211
 2291SOL     OW 7318   1.013   1.967   7.356
 2291SOL    HW1 7319   1.019   2.052   7.304
 2291SOL    HW2 7320   1.045   1.891   7.299
 2292SOL     OW 7321   0.504   1.912   7.326
 2292SOL    HW1 7322   0.462   1.855   7.256
 2292SOL    HW2 7323   0.438   1.981   7.358
 2293SOL     OW 7324   0.573   2.732   6.615
 2293SOL    HW1 7325   0.617   2.821   6.606
 2293SOL    HW2 7326   0.510   2.732   6.692
 2294SOL     OW 7327   1.360   2.724   6.631
 2294SOL    HW1 7328   1.285   2.724   6.565
 2294SOL    HW2 7329   1.397   2.632   6.640
 2295SOL     OW 7330   1.209   2.387   5.861
 2295SOL    HW1 7331   1.222   2.303   5.915
 2295SOL    HW2 7332   1.180   2.461   5.921
 2296SOL     OW 7333   0.307   2.075   6.817
 2296SOL    HW1 7334   0.284   2.112   6.907
 2296SOL    HW2 7335   0.277   1.980   6.811
 2297SOL     OW 7336   0.037   3.172   6.868
 2297SOL    HW1 7337   0.090   3.123   6.936
 2297SOL    HW2 7338   0.059   3.270   6.873
 2298SOL     OW 7339   0.732   2.496   6.650
 2298SOL    HW1 7340   0.791   2.470   6.574
 2298SOL    HW2 7341   0.704   2.592   6.639
 2299SOL     OW 7342   1.728   2.797   7.440
 2299SOL    HW1 7343   1.682   2.790   7.351
 2299SOL    HW2 7344   1.666   2.841   7.506
 2300SOL     OW 7345   0.307   1.925   6.204
 2300SOL    HW1 7346   0.296   2.019   6.237
 2300SOL    HW2 7347   0.302   1.862   6.281
 2301SOL     OW 7348   1.622   2.229   5.960
 2301SOL    HW1 7349   1.624   2.153   6.024
 2301SOL    HW2 7350   1.574   2.306   6.000
 2302SOL     OW 7351   1.023   2.628   6.552
 2302SOL    HW1 7352   1.038   2.649   6.648
 2302SOL    HW2 7353   0.993   2.533   6.543
 2303SOL     OW 7354   0.980   3.435   7.286
 2303SOL    HW1 7355   0.960   3.479   7.198
 2303SOL    HW2 7356   1.019   3.344   7.270
 2304SOL     OW 7357   1.859   3.380   7.191
 2304SOL    HW1 7358   1.873   3.407   7.096
 2304SOL    HW2 7359   1.942   3.402   7.244
 2305SOL     OW 7360   0.350   2.760   7.390
 2305SOL    HW1 7361   0.426   2.804   7.438
 2305SOL    HW2 7362   0.385   2.713   7.308
 2306SOL     OW 7363   1.540   2.136   5.711
 2306SOL    HW1 7364   1.479   2.061   5.734
 2306SOL    HW2 7365   1.562   2.188   5.794
 2307SOL     OW 7366   1.303   2.700   5.628
 2307SOL    HW1 7367   1.337   2.607   5.643
 2307SOL    HW2 7368   1.321   2.727   5.533
 2308SOL     OW 7369   1.068   3.195   6.435
 2308SOL    HW1 7370   1.075   3.111   6.380
 2308SOL    HW2 7371   1.130   3.264   6.399
 2309SOL     OW 7372   0.319   2.672   6.535
 2309SOL    HW1 7373   0.412   2.708   6.540
 2309SOL    HW2 7374   0.313   2.587   6.587
 2310SOL     OW 7375   0.339   2.371   6.592
 2310SOL    HW1 7376   0.287   2.288   6.575
 2310SOL    HW2 7377   0.416   2.376   6.528
 2311SOL     OW 7378   1.138   2.242   7.264
 2311SOL    HW1 7379   1.093   2.305   7.328
 2311SOL    HW2 7380   1.231   2.273   7.247
 2312SOL     OW 7381   0.008   3.188   5.786
 2312SOL    HW1 7382  -0.085   3.209   5.755
 2312SOL    HW2 7383   0.018   3.089   5.799
 2313SOL     OW 7384   0.088   3.663   6.513
 2313SOL    HW1 7385   0.046   3.577   6.486
 2313SOL    HW2 7386   0.182   3.666   6.479
 2314SOL     OW 7387   0.504   3.430   6.496
 2314SOL    HW1 7388   0.570   3.504   6.505
 2314SOL    HW2 7389   0.548   3.351   6.454
 2315SOL     OW 7390   1.002   2.658   6.824
 2315SOL    HW1 7391   1.043   2.626   6.910
 2315SOL    HW2 7392   0.906   2.631   6.821
 2316SOL     OW 7393   0.040   2.406   6.700
 2316SOL    HW1 7394   0.125   2.373   6.659
 2316SOL    HW2 7395   0.053   2.421   6.798
 2317SOL     OW 7396   0.189   2.382   7.308
 2317SOL    HW1 7397   0.248   2.342   7.238
 2317SOL    HW2 7398   0.131   2.453   7.267
 2318SOL     OW 7399   0.815   2.434   5.911
 2318SOL    HW1 7400   0.822   2.345   5.865
 2318SOL    HW2 7401   0.721   2.468   5.903
 2319SOL     OW 7402   0.252   3.426   7.330
 2319SOL    HW1 7403   0.222   3.483   7.406
 2319SOL    HW2 7404   0.245   3.329   7.356
 2320SOL     OW 7405   0.671   2.326   6.855
 2320SOL    HW1 7406   0.637   2.237   6.825
 2320SOL    HW2 7407   0.697   2.380   6.775
 2321SOL     OW 7408   0.930   3.540   7.051
 2321SOL    HW1 7409   0.906   3.522   6.956
 2321SOL    HW2 7410   0.960   3.634   7.061
 2322SOL     OW 7411   0.473   2.362   5.777
 2322SOL    HW1 7412   0.534   2.442   5.781
 2322SOL    HW2 7413   0.378   2.393   5.784
 2323SOL     OW 7414   0.159   2.999   7.052
 2323SOL    HW1 7415   0.181   2.938   7.128
 2323SOL    HW2 7416   0.169   2.950   6.966
 2324SOL     OW 7417   1.347   2.921   6.820
 2324SOL    HW1 7418   1.371   2.858   6.746
 2324SOL    HW2 7419   1.257   2.961   6.802
 2325SOL     OW 7420   1.302   2.717   5.895
 2325SOL    HW1 7421   1.216   2.686   5.937
 2325SOL    HW2 7422   1.298   2.703   5.796
 2326SOL     OW 7423   1.759   3.609   6.740
 2326SOL    HW1 7424   1.820   3.639   6.667
 2326SOL    HW2 7425   1.721   3.520   6.718
 2327SOL     OW 7426   1.252   3.593   6.714
 2327SOL    HW1 7427   1.336   3.598   6.660
 2327SOL    HW2 7428   1.229   3.497   6.732
 2328SOL     OW 7429   0.083   3.120   6.608
 2328SOL    HW1 7430   0.078   3.119   6.708
 2328SOL    HW2 7431   0.000   3.079   6.570
 2329SOL     OW 7432   0.688   3.524   7.302
 2329SOL    HW1 7433   0.632   3.605   7.311
 2329SOL    HW2 7434   0.740   3.528   7.216
 2330SOL     OW 7435   1.726   1.997   6.109
 2330SOL    HW1 7436   1.799   1.980   6.042
 2330SOL    HW2 7437   1.695   1.910   6.147
 2331SOL     OW 7438   1.388   3.435   6.063
 2331SOL    HW1 7439   1.455   3.447   5.989
 2331SOL    HW2 7440   1.348   3.524   6.086
 2332SOL     OW 7441   0.130   3.656   7.437
 2332SOL    HW1 7442   0.089   3.582   7.490
 2332SOL    HW2 7443   0.194   3.707   7.495
 2333SOL     OW 7444   1.280   2.789   6.258
 2333SOL    HW1 7445   1.340   2.708   6.260
 2333SOL    HW2 7446   1.320   2.858   6.198
 2334SOL     OW 7447   0.830   3.135   7.008
 2334SOL    HW1 7448   0.825   3.168   7.103
 2334SOL    HW2 7449   0.744   3.154   6.962
 2335SOL     OW 7450   0.672   3.478   5.740
 2335SOL    HW1 7451   0.681   3.488   5.641
 2335SOL    HW2 7452   0.632   3.389   5.761
 2336SOL     OW 7453   1.650   3.582   6.980
 2336SOL    HW1 7454   1.703   3.592   6.896
 2336SOL    HW2 7455   1.623   3.672   7.014
 2337SOL     OW 7456   0.263   2.188   6.306
 2337SOL    HW1 7457   0.184   2.239   6.272
 2337SOL    HW2 7458   0.254   2.173   6.404
 2338SOL     OW 7459   1.194   3.474   5.617
 2338SOL    HW1 7460   1.200   3.381   5.654
 2338SOL    HW2 7461   1.135   3.474   5.537
 2339SOL     OW 7462   0.822   2.864   6.958
 2339SOL    HW1 7463   0.862   2.863   6.866
 2339SOL    HW2 7464   0.832   2.956   6.998
 2340SOL     OW 7465   0.916   2.772   5.877
 2340SOL    HW1 7466   0.979   2.810   5.809
 2340SOL    HW2 7467   0.956   2.689   5.916
 2341SOL     OW 7468   1.504   3.469   5.630
 2341SOL    HW1 7469   1.412   3.506   5.637
 2341SOL    HW2 7470   1.542   3.489   5.540
 2342SOL     OW 7471   0.372   3.150   7.076
 2342SOL    HW1 7472   0.359   3.243   7.042
 2342SOL    HW2 7473   0.288   3.098   7.063
 2343SOL     OW 7474   1.614   3.154   6.875
 2343SOL    HW1 7475   1.674   3.157   6.955
 2343SOL    HW2 7476   1.539   3.218   6.888
 2344SOL     OW 7477   1.039   2.960   6.282
 2344SOL    HW1 7478   0.969   2.913   6.336
 2344SOL    HW2 7479   1.098   2.892   6.239
 2345SOL     OW 7480   0.590   3.349   6.077
 2345SOL    HW1 7481   0.632   3.291   6.007
 2345SOL    HW2 7482   0.546   3.428   6.033
 2346SOL     OW 7483   0.255   3.210   5.876
 2346SOL    HW1 7484   0.159   3.211   5.849
 2346SOL    HW2 7485   0.267   3.263   5.960
 2347SOL     OW 7486   0.105   2.875   7.312
 2347SOL    HW1 7487   0.028   2.842   7.366
 2347SOL    HW2 7488   0.190   2.845   7.354
 2348SOL     OW 7489   0.672   2.065   7.075
 2348SOL    HW1 7490   0.762   2.049   7.035
 2348SOL    HW2 7491   0.680   2.070   7.174
 2349SOL     OW 7492   0.075   2.207   5.619
 2349SOL    HW1 7493  -0.017   2.179   5.590
 2349SOL    HW2 7494   0.106   2.284   5.563
 2350SOL     OW 7495   0.072   2.028   5.904
 2350SOL    HW1 7496   0.055   2.111   5.850
 2350SOL    HW2 7497   0.162   1.991   5.882
 2351SOL     OW 7498   1.183   3.197   5.705
 2351SOL    HW1 7499   1.084   3.186   5.707
 2351SOL    HW2 7500   1.217   3.212   5.798
 2352SOL     OW 7501   0.613   2.704   7.017
 2352SOL    HW1 7502   0.669   2.785   7.000
 2352SOL    HW2 7503   0.672   2.624   7.020
 2353SOL     OW 7504   1.493   3.629   6.545
 2353SOL    HW1 7505   1.526   3.693   6.476
 2353SOL    HW2 7506   1.559   3.623   6.620
 2354SOL     OW 7507   0.716   2.427   7.294
 2354SOL    HW1 7508   0.735   2.492   7.368
 2354SOL    HW2 7509   0.776   2.347   7.303
 2355SOL     OW 7510   1.450   3.082   7.219
 2355SOL    HW1 7511   1.441   3.072   7.318
 2355SOL    HW2 7512   1.546   3.075   7.193
 2356SOL     OW 7513   0.390   3.603   7.146
 2356SOL    HW1 7514   0.299   3.644   7.144
 2356SOL    HW2 7515   0.383   3.509   7.178
 2357SOL     OW 7516   1.225   2.187   6.035
 2357SOL    HW1 7517   1.290   2.113   6.024
 2357SOL    HW2 7518   1.245   2.237   6.119
 2358SOL     OW 7519   0.594   2.607   6.238
 2358SOL    HW1 7520   0.644   2.692   6.219
 2358SOL    HW2 7521   0.506   2.609   6.190
 2359SOL     OW 7522   0.859   3.236   5.602
 2359SOL    HW1 7523   0.813   3.251   5.690
 2359SOL    HW2 7524   0.903   3.321   5.572
 2360SOL     OW 7525   0.661   3.652   6.539
 2360SOL    HW1 7526   0.615   3.740   6.526
 2360SOL    HW2 7527   0.760   3.664   6.532
 2361SOL     OW 7528   0.859   2.818   6.447
 2361SOL    HW1 7529   0.913   2.749   6.495
 2361SOL    HW2 7530   0.827   2.887   6.513
 2362SOL     OW 7531   1.083   2.846   5.673
 2362SOL    HW1 7532   1.060   2.899   5.591
 2362SOL    HW2 7533   1.164   2.790   5.654
 2363SOL     OW 7534   1.861   3.431   6.437
 2363SOL    HW1 7535   1.790   3.419   6.367
 2363SOL    HW2 7536   1.862   3.352   6.497
 2364SOL     OW 7537   0.221   3.176   7.430
 2364SOL    HW1 7538   0.156   3.103   7.409
 2364SOL    HW2 7539   0.225   3.190   7.528
 2365SOL     OW 7540   0.079   3.102   6.239
 2365SOL    HW1 7541   0.078   3.055   6.327
 2365SOL    HW2 7542   0.161   3.074   6.188
 2366SOL     OW 7543   0.672   3.253   7.210
 2366SOL    HW1 7544   0.594   3.203   7.248
 2366SOL    HW2 7545   0.669   3.348   7.241
 2367SOL     OW 7546   0.428   2.286   6.106
 2367SOL    HW1 7547   0.458   2.214   6.044
 2367SOL    HW2 7548   0.389   2.246   6.189
 2368SOL     OW 7549   1.705   3.349   6.690
 2368SOL    HW1 7550   1.612   3.324   6.663
 2368SOL    HW2 7551   1.731   3.299   6.772
 2369SOL     OW 7552   0.317   2.409   6.866
 2369SOL    HW1 7553   0.355   2.350   6.938
 2369SOL    HW2 7554   0.357   2.383   6.778
 2370SOL     OW 7555   0.812   3.448   6.273
 2370SOL    HW1 7556   0.844   3.458   6.179
 2370SOL    HW2 7557   0.733   3.386   6.275
 2371SOL     OW 7558   0.770   3.192   5.887
 2371SOL    HW1 7559   0.724   3.105   5.904
 2371SOL    HW2 7560   0.861   3.189   5.928
 2372SOL     OW 7561   0.618   3.429   6.870
 2372SOL    HW1 7562   0.613   3.511   6.927
 2372SOL    HW2 7563   0.707   3.426   6.825
 2373SOL     OW 7564   1.352   1.914   5.754
 2373SOL    HW1 7565   1.387   1.873   5.670
 2373SOL    HW2 7566   1.262   1.876   5.774
 2374SOL     OW 7567   1.300   2.315   6.277
 2374SOL    HW1 7568   1.241   2.395   6.281
 2374SOL    HW2 7569   1.315   2.280   6.370
 2375SOL     OW 7570   1.593   2.083   6.468
 2375SOL    HW1 7571   1.509   2.082   6.522
 2375SOL    HW2 7572   1.595   2.166   6.412
 2376SOL     OW 7573   0.039   2.939   5.886
 2376SOL    HW1 7574   0.138   2.928   5.877
 2376SOL    HW2 7575  -0.001   2.853   5.918
 2377SOL     OW 7576   0.875   3.508   5.923
 2377SOL    HW1 7577   0.798   3.473   5.869
 2377SOL    HW2 7578   0.843   3.579   5.985
 2378SOL     OW 7579   0.230   2.490   7.561
 2378SOL    HW1 7580   0.137   2.488   7.598
 2378SOL    HW2 7581   0.231   2.451   7.469
 2379SOL     OW 7582   0.225   2.137   8.444
 2379SOL    HW1 7583   0.260   2.120   8.536
 2379SOL    HW2 7584   0.137   2.092   8.432
 2380SOL     OW 7585   0.019   2.230   8.095
 2380SOL    HW1 7586  -0.063   2.273   8.134
 2380SOL    HW2 7587  -0.009   2.157   8.032
 2381SOL     OW 7588   0.569   3.137   8.613
 2381SOL    HW1 7589   0.476   3.130   8.576
 2381SOL    HW2 7590   0.580   3.226   8.657
 2382SOL     OW 7591   1.555   3.373   8.151
 2382SOL    HW1 7592   1.498   3.357   8.232
 2382SOL    HW2 7593   1.496   3.383   8.071
 2383SOL     OW 7594   1.135   2.565   8.165
 2383SOL    HW1 7595   1.192   2.643   8.140
 2383SOL    HW2 7596   1.075   2.591   8.241
 2384SOL     OW 7597   1.755   2.469   7.679
 2384SOL    HW1 7598   1.743   2.456   7.580
 2384SOL    HW2 7599   1.725   2.388   7.728
 2385SOL     OW 7600   0.768   3.006   8.471
 2385SOL    HW1 7601   0.690   3.023   8.531
 2385SOL    HW2 7602   0.802   3.093   8.435
 2386SOL     OW 7603   0.850   2.660   9.271
 2386SOL    HW1 7604   0.846   2.736   9.336
 2386SOL    HW2 7605   0.872   2.696   9.180
 2387SOL     OW 7606   0.685   2.874   8.113
 2387SOL    HW1 7607   0.754   2.858   8.183
 2387SOL    HW2 7608   0.612   2.931   8.151
 2388SOL     OW 7609   0.686   3.023   9.251
 2388SOL    HW1 7610   0.746   3.102   9.265
 2388SOL    HW2 7611   0.600   3.054   9.210
 2389SOL     OW 7612   0.335   3.297   8.509
 2389SOL    HW1 7613   0.257   3.266   8.456
 2389SOL    HW2 7614   0.393   3.355   8.452
 2390SOL     OW 7615   1.460   3.367   8.787
 2390SOL    HW1 7616   1.484   3.461   8.813
 2390SOL    HW2 7617   1.444   3.313   8.869
 2391SOL     OW 7618   0.438   2.254   8.947
 2391SOL    HW1 7619   0.520   2.198   8.956
 2391SOL    HW2 7620   0.357   2.196   8.951
 2392SOL     OW 7621   1.603   2.309   8.185
 2392SOL    HW1 7622   1.529   2.355   8.135
 2392SOL    HW2 7623   1.654   2.377   8.238
 2393SOL     OW 7624   0.231   3.575   7.931
 2393SOL    HW1 7625   0.265   3.652   7.985
 2393SOL    HW2 7626   0.275   3.575   7.841
 2394SOL     OW 7627   1.127   3.203   9.138
 2394SOL    HW1 7628   1.174   3.203   9.226
 2394SOL    HW2 7629   1.079   3.116   9.127
 2395SOL     OW 7630   0.230   3.296   7.986
 2395SOL    HW1 7631   0.204   3.392   7.986
 2395SOL    HW2 7632   0.159   3.242   8.031
 2396SOL     OW 7633   0.240   2.953   8.334
 2396SOL    HW1 7634   0.254   2.869   8.386
 2396SOL    HW2 7635   0.185   3.017   8.389
 2397SOL     OW 7636   0.620   3.648   8.887
 2397SOL    HW1 7637   0.528   3.631   8.922
 2397SOL    HW2 7638   0.648   3.740   8.913
 2398SOL     OW 7639   0.606   2.826   7.571
 2398SOL    HW1 7640   0.613   2.910   7.517
 2398SOL    HW2 7641   0.652   2.839   7.659
 2399SOL     OW 7642   1.594   1.976   8.928
 2399SOL    HW1 7643   1.576   2.043   8.856
 2399SOL    HW2 7644   1.591   2.022   9.017
 2400SOL     OW 7645   0.122   2.505   8.011
 2400SOL    HW1 7646   0.077   2.417   8.028
 2400SOL    HW2 7647   0.121   2.559   8.095
 2401SOL     OW 7648   1.842   3.629   7.807
 2401SOL    HW1 7649   1.896   3.600   7.887
 2401SOL    HW2 7650   1.872   3.719   7.778
 2402SOL     OW 7651   0.027   3.458   7.565
 2402SOL    HW1 7652   0.008   3.362   7.586
 2402SOL    HW2 7653  -0.006   3.516   7.640
 2403SOL     OW 7654   1.689   2.784   8.060
 2403SOL    HW1 7655   1.784   2.755   8.068
 2403SOL    HW2 7656   1.681   2.849   7.985
 2404SOL     OW 7657   1.641   2.970   7.880
 2404SOL    HW1 7658   1.727   2.972   7.828
 2404SOL    HW2 7659   1.655   3.017   7.968
 2405SOL     OW 7660   0.113   2.599   9.045
 2405SOL    HW1 7661   0.201   2.586   9.090
 2405SOL    HW2 7662   0.100   2.696   9.023
 2406SOL     OW 7663   0.613   3.227   8.174
 2406SOL    HW1 7664   0.564   3.140   8.183
 2406SOL    HW2 7665   0.590   3.270   8.087
 2407SOL     OW 7666   1.293   3.090   8.871
 2407SOL    HW1 7667   1.330   3.017   8.813
 2407SOL    HW2 7668   1.345   3.095   8.956
 2408SOL     OW 7669   0.809   1.866   7.950
 2408SOL    HW1 7670   0.849   1.957   7.941
 2408SOL    HW2 7671   0.709   1.874   7.956
 2409SOL     OW 7672   0.197   2.838   8.712
 2409SOL    HW1 7673   0.286   2.793   8.698
 2409SOL    HW2 7674   0.124   2.773   8.693
 2410SOL     OW 7675   1.525   2.861   7.638
 2410SOL    HW1 7676   1.462   2.785   7.651
 2410SOL    HW2 7677   1.573   2.879   7.724
 2411SOL     OW 7678   1.187   3.654   9.064
 2411SOL    HW1 7679   1.211   3.714   8.988
 2411SOL    HW2 7680   1.194   3.559   9.034
 2412SOL     OW 7681   0.317   2.113   9.249
 2412SOL    HW1 7682   0.388   2.184   9.255
 2412SOL    HW2 7683   0.229   2.152   9.277
 2413SOL     OW 7684   1.466   3.279   8.401
 2413SOL    HW1 7685   1.407   3.285   8.481
 2413SOL    HW2 7686   1.451   3.191   8.355
 2414SOL     OW 7687   1.667   3.576   8.020
 2414SOL    HW1 7688   1.626   3.553   7.932
 2414SOL    HW2 7689   1.649   3.502   8.085
 2415SOL     OW 7690   0.598   2.591   7.718
 2415SOL    HW1 7691   0.622   2.660   7.650
 2415SOL    HW2 7692   0.520   2.624   7.772
 2416SOL     OW 7693   1.281   2.207   8.392
 2416SOL    HW1 7694   1.195   2.157   8.379
 2416SOL    HW2 7695   1.343   2.153   8.448
 2417SOL     OW 7696   1.576   3.524   7.755
 2417SOL    HW1 7697   1.665   3.570   7.758
 2417SOL    HW2 7698   1.555   3.500   7.660
 2418SOL     OW 7699   0.807   2.467   8.913
 2418SOL    HW1 7700   0.760   2.464   9.002
 2418SOL    HW2 7701   0.756   2.412   8.847
 2419SOL     OW 7702   1.394   2.331   9.122
 2419SOL    HW1 7703   1.374   2.374   9.210
 2419SOL    HW2 7704   1.472   2.269   9.131
 2420SOL     OW 7705   0.973   2.752   9.020
 2420SOL    HW1 7706   1.019   2.668   8.991
 2420SOL    HW2 7707   0.917   2.786   8.945
 2421SOL     OW 7708   0.991   2.272   8.690
 2421SOL    HW1 7709   0.914   2.306   8.744
 2421SOL    HW2 7710   0.957   2.221   8.611
 2422SOL     OW 7711   1.041   2.563   7.877
 2422SOL    HW1 7712   1.067   2.559   7.973
 2422SOL    HW2 7713   0.956   2.512   7.863
 2423SOL     OW 7714   0.076   2.673   8.237
 2423SOL    HW1 7715   0.175   2.661   8.246
 2423SOL    HW2 7716   0.052   2.768   8.258
 2424SOL     OW 7717   0.130   3.683   9.019
 2424SOL    HW1 7718   0.120   3.668   9.118
 2424SOL    HW2 7719   0.044   3.719   8.983
 2425SOL     OW 7720   0.865   2.210   7.643
 2425SOL    HW1 7721   0.924   2.273   7.594
 2425SOL    HW2 7722   0.884   2.116   7.614
 2426SOL     OW 7723   1.719   2.447   9.279
 2426SOL    HW1 7724   1.693   2.536   9.243
 2426SOL    HW2 7725   1.717   2.379   9.206
 2427SOL     OW 7726   1.362   3.006   7.993
 2427SOL    HW1 7727   1.445   2.977   7.945
 2427SOL    HW2 7728   1.313   3.073   7.937
 2428SOL     OW 7729   0.550   2.058   8.333
 2428SOL    HW1 7730   0.545   2.053   8.433
 2428SOL    HW2 7731   0.552   2.154   8.304
 2429SOL     OW 7732   1.008   3.318   7.925
 2429SOL    HW1 7733   0.962   3.390   7.873
 2429SOL    HW2 7734   1.004   3.338   8.023
 2430SOL     OW 7735   0.351   3.663   8.301
 2430SOL    HW1 7736   0.401   3.577   8.307
 2430SOL    HW2 7737   0.416   3.740   8.298
 2431SOL     OW 7738   1.795   2.928   8.321
 2431SOL    HW1 7739   1.733   2.913   8.245
 2431SOL    HW2 7740   1.743   2.939   8.406
 2432SOL     OW 7741   1.227   3.412   8.954
 2432SOL    HW1 7742   1.233   3.335   9.018
 2432SOL    HW2 7743   1.175   3.386   8.874
 2433SOL     OW 7744   0.321   2.805   7.690
 2433SOL    HW1 7745   0.403   2.844   7.648
 2433SOL    HW2 7746   0.294   2.723   7.641
 2434SOL     OW 7747   1.458   2.597   8.176
 2434SOL    HW1 7748   1.453   2.532   8.251
 2434SOL    HW2 7749   1.538   2.656   8.189
 2435SOL     OW 7750   0.461   3.128   9.175
 2435SOL    HW1 7751   0.411   3.129   9.089
 2435SOL    HW2 7752   0.398   3.110   9.251
 2436SOL     OW 7753   1.111   3.638   7.685
 2436SOL    HW1 7754   1.051   3.576   7.735
 2436SOL    HW2 7755   1.142   3.594   7.600
 2437SOL     OW 7756   0.202   2.147   8.946
 2437SOL    HW1 7757   0.122   2.207   8.933
 2437SOL    HW2 7758   0.192   2.098   9.032
 2438SOL     OW 7759   1.632   3.239   7.529
 2438SOL    HW1 7760   1.600   3.333   7.519
 2438SOL    HW2 7761   1.556   3.176   7.517
 2439SOL     OW 7762   0.464   3.605   7.771
 2439SOL    HW1 7763   0.497   3.644   7.857
 2439SOL    HW2 7764   0.540   3.598   7.706
 2440SOL     OW 7765   1.400   1.969   7.874
 2440SOL    HW1 7766   1.376   1.932   7.784
 2440SOL    HW2 7767   1.499   1.985   7.878
 2441SOL     OW 7768   0.249   3.647   8.689
 2441SOL    HW1 7769   0.306   3.582   8.739
 2441SOL    HW2 7770   0.233   3.614   8.596
 2442SOL     OW 7771   0.940   3.560   8.352
 2442SOL    HW1 7772   1.020   3.503   8.373
 2442SOL    HW2 7773   0.891   3.520   8.275
 2443SOL     OW 7774   0.382   2.562   7.928
 2443SOL    HW1 7775   0.427   2.472   7.925
 2443SOL    HW2 7776   0.288   2.551   7.961
 2444SOL     OW 7777   1.547   2.084   9.177
 2444SOL    HW1 7778   1.542   2.121   9.269
 2444SOL    HW2 7779   1.475   2.015   9.165
 2445SOL     OW 7780   0.614   1.984   7.565
 2445SOL    HW1 7781   0.712   1.962   7.572
 2445SOL    HW2 7782   0.583   1.967   7.472
 2446SOL     OW 7783   0.781   2.126   9.197
 2446SOL    HW1 7784   0.848   2.065   9.240
 2446SOL    HW2 7785   0.708   2.145   9.262
 2447SOL     OW 7786   0.888   3.376   8.643
 2447SOL    HW1 7787   0.865   3.351   8.549
 2447SOL    HW2 7788   0.949   3.307   8.682
 2448SOL     OW 7789   1.351   2.452   8.881
 2448SOL    HW1 7790   1.379   2.409   8.966
 2448SOL    HW2 7791   1.376   2.548   8.882
 2449SOL     OW 7792   0.803   3.264   8.372
 2449SOL    HW1 7793   0.893   3.278   8.330
 2449SOL    HW2 7794   0.732   3.266   8.301
 2450SOL     OW 7795   0.922   2.365   8.347
 2450SOL    HW1 7796   0.897   2.356   8.251
 2450SOL    HW2 7797   0.970   2.283   8.378
 2451SOL     OW 7798   0.539   1.926   7.960
 2451SOL    HW1 7799   0.458   1.927   8.018
 2451SOL    HW2 7800   0.542   2.009   7.905
 2452SOL     OW 7801   1.434   3.050   7.489
 2452SOL    HW1 7802   1.466   2.974   7.546
 2452SOL    HW2 7803   1.342   3.077   7.519
 2453SOL     OW 7804   0.297   1.897   7.619
 2453SOL    HW1 7805   0.346   1.981   7.598
 2453SOL    HW2 7806   0.359   1.832   7.664
 2454SOL     OW 7807   0.935   2.098   7.928
 2454SOL    HW1 7808   0.887   2.139   7.850
 2454SOL    HW2 7809   1.034   2.096   7.909
 2455SOL     OW 7810   1.076   2.545   8.912
 2455SOL    HW1 7811   0.996   2.484   8.915
 2455SOL    HW2 7812   1.157   2.492   8.888
 2456SOL     OW 7813   1.227   3.432   8.241
 2456SOL    HW1 7814   1.248   3.506   8.176
 2456SOL    HW2 7815   1.295   3.432   8.314
 2457SOL     OW 7816   0.459   3.014   8.189
 2457SOL    HW1 7817   0.388   2.987   8.254
 2457SOL    HW2 7818   0.433   2.986   8.096
 2458SOL     OW 7819   1.271   3.659   8.039
 2458SOL    HW1 7820   1.315   3.723   7.975
 2458SOL    HW2 7821   1.221   3.711   8.109
 2459SOL     OW 7822   1.032   2.411   7.464
 2459SOL    HW1 7823   0.991   2.493   7.425
 2459SOL    HW2 7824   1.096   2.437   7.537
 2460SOL     OW 7825   0.078   2.418   8.834
 2460SOL    HW1 7826   0.170   2.417   8.793
 2460SOL    HW2 7827   0.072   2.492   8.901
 2461SOL     OW 7828   0.561   2.084   8.595
 2461SOL    HW1 7829   0.599   2.000   8.632
 2461SOL    HW2 7830   0.473   2.103   8.639
 2462SOL     OW 7831   0.866   2.316   8.090
 2462SOL    HW1 7832   0.834   2.388   8.028
 2462SOL    HW2 7833   0.890   2.235   8.037
 2463SOL     OW 7834   1.017   1.901   8.201
 2463SOL    HW1 7835   0.945   1.906   8.132
 2463SOL    HW2 7836   0.993   1.832   8.270
 2464SOL     OW 7837   1.429   3.035   8.315
 2464SOL    HW1 7838   1.374   2.951   8.308
 2464SOL    HW2 7839   1.455   3.064   8.223
 2465SOL     OW 7840   1.466   2.452   8.440
 2465SOL    HW1 7841   1.436   2.357   8.447
 2465SOL    HW2 7842   1.539   2.468   8.506
 2466SOL     OW 7843   1.857   2.695   7.825
 2466SOL    HW1 7844   1.899   2.631   7.889
 2466SOL    HW2 7845   1.819   2.644   7.747
 2467SOL     OW 7846   0.488   3.247   7.622
 2467SOL    HW1 7847   0.401   3.232   7.669
 2467SOL    HW2 7848   0.471   3.273   7.527
 2468SOL     OW 7849   1.664   3.142   8.105
 2468SOL    HW1 7850   1.763   3.150   8.119
 2468SOL    HW2 7851   1.619   3.226   8.136
 2469SOL     OW 7852   0.527   2.118   7.776
 2469SOL    HW1 7853   0.554   2.059   7.701
 2469SOL    HW2 7854   0.527   2.213   7.745
 2470SOL     OW 7855   1.754   3.085   9.036
 2470SOL    HW1 7856   1.845   3.046   9.023
 2470SOL    HW2 7857   1.762   3.181   9.060
 2471SOL     OW 7858   1.064   3.209   8.788
 2471SOL    HW1 7859   0.984   3.186   8.843
 2471SOL    HW2 7860   1.147   3.183   8.837
 2472SOL     OW 7861   1.592   3.491   9.073
 2472SOL    HW1 7862   1.619   3.525   8.983
 2472SOL    HW2 7863   1.671   3.453   9.119
 2473SOL     OW 7864   1.111   3.057   8.548
 2473SOL    HW1 7865   1.071   3.101   8.629
 2473SOL    HW2 7866   1.070   3.094   8.465
 2474SOL     OW 7867   1.638   2.961   8.527
 2474SOL    HW1 7868   1.643   3.042   8.586
 2474SOL    HW2 7869   1.552   2.963   8.476
 2475SOL     OW 7870   0.915   1.951   8.850
 2475SOL    HW1 7871   0.940   1.931   8.755
 2475SOL    HW2 7872   0.987   2.007   8.892
 2476SOL     OW 7873   0.980   2.978   9.167
 2476SOL    HW1 7874   0.881   2.984   9.177
 2476SOL    HW2 7875   1.003   2.898   9.111
 2477SOL     OW 7876   0.705   2.912   7.816
 2477SOL    HW1 7877   0.691   2.919   7.915
 2477SOL    HW2 7878   0.789   2.861   7.798
 2478SOL     OW 7879   0.410   2.675   8.699
 2478SOL    HW1 7880   0.496   2.687   8.749
 2478SOL    HW2 7881   0.368   2.588   8.726
 2479SOL     OW 7882   1.274   2.248   8.710
 2479SOL    HW1 7883   1.295   2.322   8.774
 2479SOL    HW2 7884   1.185   2.265   8.667
 2480SOL     OW 7885   0.064   3.426   8.779
 2480SOL    HW1 7886   0.018   3.508   8.745
 2480SOL    HW2 7887   0.162   3.445   8.788
 2481SOL     OW 7888   0.367   2.962   7.949
 2481SOL    HW1 7889   0.360   3.045   7.893
 2481SOL    HW2 7890   0.371   2.882   7.889
 2482SOL     OW 7891   0.566   2.399   8.313
 2482SOL    HW1 7892   0.578   2.465   8.239
 2482SOL    HW2 7893   0.612   2.433   8.396
 2483SOL     OW 7894   1.252   3.210   7.836
 2483SOL    HW1 7895   1.302   3.287   7.876
 2483SOL    HW2 7896   1.157   3.212   7.868
 2484SOL     OW 7897   1.272   3.307   8.590
 2484SOL    HW1 7898   1.319   3.320   8.677
 2484SOL    HW2 7899   1.206   3.233   8.599
 2485SOL     OW 7900   1.582   2.501   7.920
 2485SOL    HW1 7901   1.551   2.562   7.993
 2485SOL    HW2 7902   1.632   2.553   7.851
 2486SOL     OW 7903   0.354   3.372   8.777
 2486SOL    HW1 7904   0.333   3.328   8.690
 2486SOL    HW2 7905   0.451   3.398   8.780
 2487SOL     OW 7906   0.402   2.613   9.046
 2487SOL    HW1 7907   0.470   2.668   8.999
 2487SOL    HW2 7908   0.442   2.525   9.073
 2488SOL     OW 7909   1.587   2.641   9.118
 2488SOL    HW1 7910   1.495   2.679   9.113
 2488SOL    HW2 7911   1.647   2.688   9.053
 2489SOL     OW 7912   1.013   1.967   9.218
 2489SOL    HW1 7913   1.019   2.052   9.166
 2489SOL    HW2 7914   1.045   1.891   9.161
 2490SOL     OW 7915   0.504   1.912   9.188
 2490SOL    HW1 7916   0.462   1.855   9.118
 2490SOL    HW2 7917   0.438   1.981   9.220
 2491SOL     OW 7918   0.573   2.732   8.477
 2491SOL    HW1 7919   0.617   2.821   8.468
 2491SOL    HW2 7920   0.510   2.732   8.554
 2492SOL     OW 7921   1.360   2.724   8.493
 2492SOL    HW1 7922   1.285   2.724   8.427
 2492SOL    HW2 7923   1.397   2.632   8.502
 2493SOL     OW 7924   1.209   2.387   7.723
 2493SOL    HW1 7925   1.222   2.303   7.777
 2493SOL    HW2 7926   1.180   2.461   7.783
 2494SOL     OW 7927   0.307   2.075   8.679
 2494SOL    HW1 7928   0.284   2.112   8.769
 2494SOL    HW2 7929   0.277   1.980   8.673
 2495SOL     OW 7930   0.037   3.172   8.730
 2495SOL    HW1 7931   0.090   3.123   8.798
 2495SOL    HW2 7932   0.059   3.270   8.735
 2496SOL     OW 7933   0.732   2.496   8.512
 2496SOL    HW1 7934   0.791   2.470   8.436
 2496SOL    HW2 7935   0.704   2.592   8.501
 2497SOL     OW 7936   1.728   2.797   9.302
 2497SOL    HW1 7937   1.682   2.790   9.213
 2497SOL    HW2 7938   1.666   2.841   9.368
 2498SOL     OW 7939   0.307   1.925   8.066
 2498SOL    HW1 7940   0.296   2.019   8.099
 2498SOL    HW2 7941   0.302   1.862   8.143
 2499SOL     OW 7942   1.622   2.229   7.822
 2499SOL    HW1 7943   1.624   2.153   7.886
 2499SOL    HW2 7944   1.574   2.306   7.862
 2500SOL     OW 7945   1.023   2.628   8.414
 2500SOL    HW1 7946   1.038   2.649   8.510
 2500SOL    HW2 7947   0.993   2.533   8.405
 2501SOL     OW 7948   0.980   3.435   9.148
 2501SOL    HW1 7949   0.960   3.479   9.060
 2501SOL    HW2 7950   1.019   3.344   9.132
 2502SOL     OW 7951   1.859   3.380   9.053
 2502SOL    HW1 7952   1.873   3.407   8.958
 2502SOL    HW2 7953   1.942   3.402   9.106
 2503SOL     OW 7954   0.350   2.760   9.252
 2503SOL    HW1 7955   0.426   2.804   9.300
 2503SOL    HW2 7956   0.385   2.713   9.170
 2504SOL     OW 7957   1.303   2.700   7.490
 2504SOL    HW1 7958   1.337   2.607   7.505
 2504SOL    HW2 7959   1.321   2.727   7.395
 2505SOL     OW 7960   1.068   3.195   8.297
 2505SOL    HW1 7961   1.075   3.111   8.242
 2505SOL    HW2 7962   1.130   3.264   8.261
 2506SOL     OW 7963   0.319   2.672   8.397
 2506SOL    HW1 7964   0.412   2.708   8.402
 2506SOL    HW2 7965   0.313   2.587   8.449
 2507SOL     OW 7966   0.339   2.371   8.454
 2507SOL    HW1 7967   0.287   2.288   8.437
 2507SOL    HW2 7968   0.416   2.376   8.390
 2508SOL     OW 7969   1.138   2.242   9.126
 2508SOL    HW1 7970   1.093   2.305   9.190
 2508SOL    HW2 7971   1.231   2.273   9.109
 2509SOL     OW 7972   1.160   2.069   8.925
 2509SOL    HW1 7973   1.160   2.133   9.002
 2509SOL    HW2 7974   1.188   2.117   8.842
 2510SOL     OW 7975   0.008   3.188   7.648
 2510SOL    HW1 7976  -0.085   3.209   7.617
 2510SOL    HW2 7977   0.018   3.089   7.661
 2511SOL     OW 7978   0.088   3.663   8.375
 2511SOL    HW1 7979   0.046   3.577   8.348
 2511SOL    HW2 7980   0.182   3.666   8.341
 2512SOL     OW 7981   0.504   3.430   8.358
 2512SOL    HW1 7982   0.570   3.504   8.367
 2512SOL    HW2 7983   0.548   3.351   8.316
 2513SOL     OW 7984   1.002   2.658   8.686
 2513SOL    HW1 7985   1.043   2.626   8.772
 2513SOL    HW2 7986   0.906   2.631   8.683
 2514SOL     OW 7987   0.040   2.406   8.562
 2514SOL    HW1 7988   0.125   2.373   8.521
 2514SOL    HW2 7989   0.053   2.421   8.660
 2515SOL     OW 7990   0.189   2.382   9.170
 2515SOL    HW1 7991   0.248   2.342   9.100
 2515SOL    HW2 7992   0.131   2.453   9.129
 2516SOL     OW 7993   1.369   2.812   9.108
 2516SOL    HW1 7994   1.408   2.901   9.128
 2516SOL    HW2 7995   1.379   2.792   9.011
 2517SOL     OW 7996   0.815   2.434   7.773
 2517SOL    HW1 7997   0.822   2.345   7.727
 2517SOL    HW2 7998   0.721   2.468   7.765
 2518SOL     OW 7999   1.657   2.466   8.654
 2518SOL    HW1 8000   1.619   2.397   8.716
 2518SOL    HW2 8001   1.739   2.430   8.610
 2519SOL     OW 8002   0.252   3.426   9.192
 2519SOL    HW1 8003   0.222   3.483   9.268
 2519SOL    HW2 8004   0.245   3.329   9.218
 2520SOL     OW 8005   0.671   2.326   8.717
 2520SOL    HW1 8006   0.637   2.237   8.687
 2520SOL    HW2 8007   0.697   2.380   8.637
 2521SOL     OW 8008   0.930   3.540   8.913
 2521SOL    HW1 8009   0.906   3.522   8.818
 2521SOL    HW2 8010   0.960   3.634   8.923
 2522SOL     OW 8011   0.473   2.362   7.639
 2522SOL    HW1 8012   0.534   2.442   7.643
 2522SOL    HW2 8013   0.378   2.393   7.646
 2523SOL     OW 8014   0.159   2.999   8.914
 2523SOL    HW1 8015   0.181   2.938   8.990
 2523SOL    HW2 8016   0.169   2.950   8.828
 2524SOL     OW 8017   1.347   2.921   8.682
 2524SOL    HW1 8018   1.371   2.858   8.608
 2524SOL    HW2 8019   1.257   2.961   8.664
 2525SOL     OW 8020   1.302   2.717   7.757
 2525SOL    HW1 8021   1.216   2.686   7.799
 2525SOL    HW2 8022   1.298   2.703   7.658
 2526SOL     OW 8023   1.759   3.609   8.602
 2526SOL    HW1 8024   1.820   3.639   8.529
 2526SOL    HW2 8025   1.721   3.520   8.580
 2527SOL     OW 8026   1.252   3.593   8.576
 2527SOL    HW1 8027   1.336   3.598   8.522
 2527SOL    HW2 8028   1.229   3.497   8.594
 2528SOL     OW 8029   0.083   3.120   8.470
 2528SOL    HW1 8030   0.078   3.119   8.570
 2528SOL    HW2 8031   0.000   3.079   8.432
 2529SOL     OW 8032   0.688   3.524   9.164
 2529SOL    HW1 8033   0.632   3.605   9.173
 2529SOL    HW2 8034   0.740   3.528   9.078
 2530SOL     OW 8035   1.726   1.997   7.971
 2530SOL    HW1 8036   1.799   1.980   7.904
 2530SOL    HW2 8037   1.695   1.910   8.009
 2531SOL     OW 8038   1.388   3.435   7.925
 2531SOL    HW1 8039   1.455   3.447   7.851
 2531SOL    HW2 8040   1.348   3.524   7.948
 2532SOL     OW 8041   0.130   3.656   9.299
 2532SOL    HW1 8042   0.089   3.582   9.352
 2532SOL    HW2 8043   0.194   3.707   9.357
 2533SOL     OW 8044   1.280   2.789   8.120
 2533SOL    HW1 8045   1.340   2.708   8.122
 2533SOL    HW2 8046   1.320   2.858   8.060
 2534SOL     OW 8047   0.830   3.135   8.870
 2534SOL    HW1 8048   0.825   3.168   8.965
 2534SOL    HW2 8049   0.744   3.154   8.824
 2535SOL     OW 8050   0.672   3.478   7.602
 2535SOL    HW1 8051   0.681   3.488   7.503
 2535SOL    HW2 8052   0.632   3.389   7.623
 2536SOL     OW 8053   1.650   3.582   8.842
 2536SOL    HW1 8054   1.703   3.592   8.758
 2536SOL    HW2 8055   1.623   3.672   8.876
 2537SOL     OW 8056   0.263   2.188   8.168
 2537SOL    HW1 8057   0.184   2.239   8.134
 2537SOL    HW2 8058   0.254   2.173   8.266
 2538SOL     OW 8059   1.194   3.474   7.479
 2538SOL    HW1 8060   1.200   3.381   7.516
 2538SOL    HW2 8061   1.135   3.474   7.399
 2539SOL     OW 8062   0.822   2.864   8.820
 2539SOL    HW1 8063   0.862   2.863   8.728
 2539SOL    HW2 8064   0.832   2.956   8.860
 2540SOL     OW 8065   0.916   2.772   7.739
 2540SOL    HW1 8066   0.979   2.810   7.671
 2540SOL    HW2 8067   0.956   2.689   7.778
 2541SOL     OW 8068   1.504   3.469   7.492
 2541SOL    HW1 8069   1.412   3.506   7.499
 2541SOL    HW2 8070   1.542   3.489   7.402
 2542SOL     OW 8071   0.372   3.150   8.938
 2542SOL    HW1 8072   0.359   3.243   8.904
 2542SOL    HW2 8073   0.288   3.098   8.925
 2543SOL     OW 8074   1.614   3.154   8.737
 2543SOL    HW1 8075   1.674   3.157   8.817
 2543SOL    HW2 8076   1.539   3.218   8.750
 2544SOL     OW 8077   1.039   2.960   8.144
 2544SOL    HW1 8078   0.969   2.913   8.198
 2544SOL    HW2 8079   1.098   2.892   8.101
 2545SOL     OW 8080   1.014   2.098   8.419
 2545SOL    HW1 8081   1.006   2.062   8.326
 2545SOL    HW2 8082   1.012   2.022   8.484
 2546SOL     OW 8083   0.590   3.349   7.939
 2546SOL    HW1 8084   0.632   3.291   7.869
 2546SOL    HW2 8085   0.546   3.428   7.895
 2547SOL     OW 8086   1.709   2.247   8.829
 2547SOL    HW1 8087   1.782   2.316   8.833
 2547SOL    HW2 8088   1.737   2.172   8.770
 2548SOL     OW 8089   0.255   3.210   7.738
 2548SOL    HW1 8090   0.159   3.211   7.711
 2548SOL    HW2 8091   0.267   3.263   7.822
 2549SOL     OW 8092   0.105   2.875   9.174
 2549SOL    HW1 8093   0.028   2.842   9.228
 2549SOL    HW2 8094   0.190   2.845   9.216
 2550SOL     OW 8095   0.672   2.065   8.937
 2550SOL    HW1 8096   0.762   2.049   8.897
 2550SOL    HW2 8097   0.680   2.070   9.036
 2551SOL     OW 8098   0.075   2.207   7.481
 2551SOL    HW1 8099  -0.017   2.179   7.452
 2551SOL    HW2 8100   0.106   2.284   7.425
 2552SOL     OW 8101   1.440   2.718   8.846
 2552SOL    HW1 8102   1.383   2.770   8.783
 2552SOL    HW2 8103   1.536   2.730   8.822
 2553SOL     OW 8104   0.072   2.028   7.766
 2553SOL    HW1 8105   0.055   2.111   7.712
 2553SOL    HW2 8106   0.162   1.991   7.744
 2554SOL     OW 8107   1.183   3.197   7.567
 2554SOL    HW1 8108   1.084   3.186   7.569
 2554SOL    HW2 8109   1.217   3.212   7.660
 2555SOL     OW 8110   0.613   2.704   8.879
 2555SOL    HW1 8111   0.669   2.785   8.862
 2555SOL    HW2 8112   0.672   2.624   8.882
 2556SOL     OW 8113   1.493   3.629   8.407
 2556SOL    HW1 8114   1.526   3.693   8.338
 2556SOL    HW2 8115   1.559   3.623   8.482
 2557SOL     OW 8116   0.716   2.427   9.156
 2557SOL    HW1 8117   0.735   2.492   9.230
 2557SOL    HW2 8118   0.776   2.347   9.165
 2558SOL     OW 8119   1.450   3.082   9.081
 2558SOL    HW1 8120   1.441   3.072   9.180
 2558SOL    HW2 8121   1.546   3.075   9.055
 2559SOL     OW 8122   0.390   3.603   9.008
 2559SOL    HW1 8123   0.299   3.644   9.006
 2559SOL    HW2 8124   0.383   3.509   9.040
 2560SOL     OW 8125   1.674   2.745   8.702
 2560SOL    HW1 8126   1.647   2.656   8.665
 2560SOL    HW2 8127   1.675   2.813   8.629
 2561SOL     OW 8128   1.225   2.187   7.897
 2561SOL    HW1 8129   1.290   2.113   7.886
 2561SOL    HW2 8130   1.245   2.237   7.981
 2562SOL     OW 8131   0.594   2.607   8.100
 2562SOL    HW1 8132   0.644   2.692   8.081
 2562SOL    HW2 8133   0.506   2.609   8.052
 2563SOL     OW 8134   1.777   2.204   9.090
 2563SOL    HW1 8135   1.760   2.235   8.996
 2563SOL    HW2 8136   1.693   2.167   9.128
 2564SOL     OW 8137   1.730   2.796   8.965
 2564SOL    HW1 8138   1.768   2.887   8.980
 2564SOL    HW2 8139   1.722   2.779   8.866
 2565SOL     OW 8140   0.859   3.236   7.464
 2565SOL    HW1 8141   0.813   3.251   7.552
 2565SOL    HW2 8142   0.903   3.321   7.434
 2566SOL     OW 8143   0.661   3.652   8.401
 2566SOL    HW1 8144   0.615   3.740   8.388
 2566SOL    HW2 8145   0.760   3.664   8.394
 2567SOL     OW 8146   0.859   2.818   8.309
 2567SOL    HW1 8147   0.913   2.749   8.357
 2567SOL    HW2 8148   0.827   2.887   8.375
 2568SOL     OW 8149   1.083   2.846   7.535
 2568SOL    HW1 8150   1.060   2.899   7.453
 2568SOL    HW2 8151   1.164   2.790   7.516
 2569SOL     OW 8152   1.861   3.431   8.299
 2569SOL    HW1 8153   1.790   3.419   8.229
 2569SOL    HW2 8154   1.862   3.352   8.359
 2570SOL     OW 8155   0.221   3.176   9.292
 2570SOL    HW1 8156   0.156   3.103   9.271
 2570SOL    HW2 8157   0.225   3.190   9.390
 2571SOL     OW 8158   0.079   3.102   8.101
 2571SOL    HW1 8159   0.078   3.055   8.189
 2571SOL    HW2 8160   0.161   3.074   8.050
 2572SOL     OW 8161   0.672   3.253   9.072
 2572SOL    HW1 8162   0.594   3.203   9.110
 2572SOL    HW2 8163   0.669   3.348   9.103
 2573SOL     OW 8164   0.428   2.286   7.968
 2573SOL    HW1 8165   0.458   2.214   7.906
 2573SOL    HW2 8166   0.389   2.246   8.051
 2574SOL     OW 8167   1.705   3.349   8.552
 2574SOL    HW1 8168   1.612   3.324   8.525
 2574SOL    HW2 8169   1.731   3.299   8.634
 2575SOL     OW 8170   0.317   2.409   8.728
 2575SOL    HW1 8171   0.355   2.350   8.800
 2575SOL    HW2 8172   0.357   2.383   8.640
 2576SOL     OW 8173   0.812   3.448   8.135
 2576SOL    HW1 8174   0.844   3.458   8.041
 2576SOL    HW2 8175   0.733   3.386   8.137
 2577SOL     OW 8176   1.424   2.076   8.560
 2577SOL    HW1 8177   1.476   2.011   8.615
 2577SOL    HW2 8178   1.375   2.139   8.621
 2578SOL     OW 8179   1.001   1.896   8.602
 2578SOL    HW1 8180   0.938   1.824   8.571
 2578SOL    HW2 8181   1.094   1.860   8.602
 2579SOL     OW 8182   0.770   3.192   7.749
 2579SOL    HW1 8183   0.724   3.105   7.766
 2579SOL    HW2 8184   0.861   3.189   7.790
 2580SOL     OW 8185   0.618   3.429   8.732
 2580SOL    HW1 8186   0.613   3.511   8.789
 2580SOL    HW2 8187   0.707   3.426   8.687
 2581SOL     OW 8188   1.352   1.914   7.616
 2581SOL    HW1 8189   1.387   1.873   7.532
 2581SOL    HW2 8190   1.262   1.876   7.636
 2582SOL     OW 8191   1.300   2.315   8.139
 2582SOL    HW1 8192   1.241   2.395   8.143
 2582SOL    HW2 8193   1.315   2.280   8.232
 2583SOL     OW 8194   1.593   2.083   8.330
 2583SOL    HW1 8195   1.509   2.082   8.384
 2583SOL    HW2 8196   1.595   2.166   8.274
 2584SOL     OW 8197   0.039   2.939   7.748
 2584SOL    HW1 8198   0.138   2.928   7.739
 2584SOL    HW2 8199  -0.001   2.853   7.780
 2585SOL     OW 8200   0.875   3.508   7.785
 2585SOL    HW1 8201   0.798   3.473   7.731
 2585SOL    HW2 8202   0.843   3.579   7.847
 2586SOL     OW 8203   0.230   2.490   9.423
 2586SOL    HW1 8204   0.137   2.488   9.460
 2586SOL    HW2 8205   0.231   2.451   9.331
 2587SOL     OW 8206   0.225   2.137  10.306
 2587SOL    HW1 8207   0.260   2.120  10.398
 2587SOL    HW2 8208   0.137   2.092  10.294
 2588SOL     OW 8209   0.019   2.230   9.957
 2588SOL    HW1 8210  -0.063   2.273   9.996
 2588SOL    HW2 8211  -0.009   2.157   9.894
 2589SOL     OW 8212   0.569   3.137  10.475
 2589SOL    HW1 8213   0.476   3.130  10.438
 2589SOL    HW2 8214   0.580   3.226  10.519
 2590SOL     OW 8215   1.555   3.373  10.013
 2590SOL    HW1 8216   1.498   3.357  10.094
 2590SOL    HW2 8217   1.496   3.383   9.933
 2591SOL     OW 8218   1.135   2.565  10.027
 2591SOL    HW1 8219   1.192   2.643  10.002
 2591SOL    HW2 8220   1.075   2.591  10.103
 2592SOL     OW 8221   1.755   2.469   9.541
 2592SOL    HW1 8222   1.743   2.456   9.442
 2592SOL    HW2 8223   1.725   2.388   9.590
 2593SOL     OW 8224   0.768   3.006  10.333
 2593SOL    HW1 8225   0.690   3.023  10.393
 2593SOL    HW2 8226   0.802   3.093  10.297
 2594SOL     OW 8227   0.850   2.660  11.133
 2594SOL    HW1 8228   0.846   2.736  11.198
 2594SOL    HW2 8229   0.872   2.696  11.042
 2595SOL     OW 8230   0.685   2.874   9.975
 2595SOL    HW1 8231   0.754   2.858  10.045
 2595SOL    HW2 8232   0.612   2.931  10.013
 2596SOL     OW 8233   0.686   3.023  11.113
 2596SOL    HW1 8234   0.746   3.102  11.127
 2596SOL    HW2 8235   0.600   3.054  11.072
 2597SOL     OW 8236   0.335   3.297  10.371
 2597SOL    HW1 8237   0.257   3.266  10.318
 2597SOL    HW2 8238   0.393   3.355  10.314
 2598SOL     OW 8239   1.460   3.367  10.649
 2598SOL    HW1 8240   1.484   3.461  10.675
 2598SOL    HW2 8241   1.444   3.313  10.731
 2599SOL     OW 8242   0.438   2.254  10.809
 2599SOL    HW1 8243   0.520   2.198  10.818
 2599SOL    HW2 8244   0.357   2.196  10.813
 2600SOL     OW 8245   1.603   2.309  10.047
 2600SOL    HW1 8246   1.529   2.355   9.997
 2600SOL    HW2 8247   1.654   2.377  10.100
 2601SOL     OW 8248   0.231   3.575   9.793
 2601SOL    HW1 8249   0.265   3.652   9.847
 2601SOL    HW2 8250   0.275   3.575   9.703
 2602SOL     OW 8251   1.127   3.203  11.000
 2602SOL    HW1 8252   1.174   3.203  11.088
 2602SOL    HW2 8253   1.079   3.116  10.989
 2603SOL     OW 8254   0.230   3.296   9.848
 2603SOL    HW1 8255   0.204   3.392   9.848
 2603SOL    HW2 8256   0.159   3.242   9.893
 2604SOL     OW 8257   0.240   2.953  10.196
 2604SOL    HW1 8258   0.254   2.869  10.248
 2604SOL    HW2 8259   0.185   3.017  10.251
 2605SOL     OW 8260   0.620   3.648  10.749
 2605SOL    HW1 8261   0.528   3.631  10.784
 2605SOL    HW2 8262   0.648   3.740  10.775
 2606SOL     OW 8263   0.606   2.826   9.433
 2606SOL    HW1 8264   0.613   2.910   9.379
 2606SOL    HW2 8265   0.652   2.839   9.521
 2607SOL     OW 8266   1.594   1.976  10.790
 2607SOL    HW1 8267   1.576   2.043  10.718
 2607SOL    HW2 8268   1.591   2.022  10.879
 2608SOL     OW 8269   0.122   2.505   9.873
 2608SOL    HW1 8270   0.077   2.417   9.890
 2608SOL    HW2 8271   0.121   2.559   9.957
 2609SOL     OW 8272   1.842   3.629   9.669
 2609SOL    HW1 8273   1.896   3.600   9.749
 2609SOL    HW2 8274   1.872   3.719   9.640
 2610SOL     OW 8275   0.027   3.458   9.427
 2610SOL    HW1 8276   0.008   3.362   9.448
 2610SOL    HW2 8277  -0.006   3.516   9.502
 2611SOL     OW 8278   1.689   2.784   9.922
 2611SOL    HW1 8279   1.784   2.755   9.930
 2611SOL    HW2 8280   1.681   2.849   9.847
 2612SOL     OW 8281   1.641   2.970   9.742
 2612SOL    HW1 8282   1.727   2.972   9.690
 2612SOL    HW2 8283   1.655   3.017   9.830
 2613SOL     OW 8284   0.113   2.599  10.907
 2613SOL    HW1 8285   0.201   2.586  10.952
 2613SOL    HW2 8286   0.100   2.696  10.885
 2614SOL     OW 8287   0.613   3.227  10.036
 2614SOL    HW1 8288   0.564   3.140  10.045
 2614SOL    HW2 8289   0.590   3.270   9.949
 2615SOL     OW 8290   1.293   3.090  10.733
 2615SOL    HW1 8291   1.330   3.017  10.675
 2615SOL    HW2 8292   1.345   3.095  10.818
 2616SOL     OW 8293   0.809   1.866   9.812
 2616SOL    HW1 8294   0.849   1.957   9.803
 2616SOL    HW2 8295   0.709   1.874   9.818
 2617SOL     OW 8296   0.197   2.838  10.574
 2617SOL    HW1 8297   0.286   2.793  10.560
 2617SOL    HW2 8298   0.124   2.773  10.555
 2618SOL     OW 8299   1.525   2.861   9.500
 2618SOL    HW1 8300   1.462   2.785   9.513
 2618SOL    HW2 8301   1.573   2.879   9.586
 2619SOL     OW 8302   1.187   3.654  10.926
 2619SOL    HW1 8303   1.211   3.714  10.850
 2619SOL    HW2 8304   1.194   3.559  10.896
 2620SOL     OW 8305   0.317   2.113  11.111
 2620SOL    HW1 8306   0.388   2.184  11.117
 2620SOL    HW2 8307   0.229   2.152  11.139
 2621SOL     OW 8308   1.466   3.279  10.263
 2621SOL    HW1 8309   1.407   3.285  10.343
 2621SOL    HW2 8310   1.451   3.191  10.217
 2622SOL     OW 8311   1.667   3.576   9.882
 2622SOL    HW1 8312   1.626   3.553   9.794
 2622SOL    HW2 8313   1.649   3.502   9.947
 2623SOL     OW 8314   0.598   2.591   9.580
 2623SOL    HW1 8315   0.622   2.660   9.512
 2623SOL    HW2 8316   0.520   2.624   9.634
 2624SOL     OW 8317   1.281   2.207  10.254
 2624SOL    HW1 8318   1.195   2.157  10.241
 2624SOL    HW2 8319   1.343   2.153  10.310
 2625SOL     OW 8320   1.576   3.524   9.617
 2625SOL    HW1 8321   1.665   3.570   9.620
 2625SOL    HW2 8322   1.555   3.500   9.522
 2626SOL     OW 8323   0.807   2.467  10.775
 2626SOL    HW1 8324   0.760   2.464  10.864
 2626SOL    HW2 8325   0.756   2.412  10.709
 2627SOL     OW 8326   1.394   2.331  10.984
 2627SOL    HW1 8327   1.374   2.374  11.072
 2627SOL    HW2 8328   1.472   2.269  10.993
 2628SOL     OW 8329   0.973   2.752  10.882
 2628SOL    HW1 8330   1.019   2.668  10.853
 2628SOL    HW2 8331   0.917   2.786  10.807
 2629SOL     OW 8332   0.991   2.272  10.552
 2629SOL    HW1 8333   0.914   2.306  10.606
 2629SOL    HW2 8334   0.957   2.221  10.473
 2630SOL     OW 8335   1.041   2.563   9.739
 2630SOL    HW1 8336   1.067   2.559   9.835
 2630SOL    HW2 8337   0.956   2.512   9.725
 2631SOL     OW 8338   0.076   2.673  10.099
 2631SOL    HW1 8339   0.175   2.661  10.108
 2631SOL    HW2 8340   0.052   2.768  10.120
 2632SOL     OW 8341   0.130   3.683  10.881
 2632SOL    HW1 8342   0.120   3.668  10.980
 2632SOL    HW2 8343   0.044   3.719  10.845
 2633SOL     OW 8344   0.865   2.210   9.505
 2633SOL    HW1 8345   0.924   2.273   9.456
 2633SOL    HW2 8346   0.884   2.116   9.476
 2634SOL     OW 8347   1.719   2.447  11.141
 2634SOL    HW1 8348   1.693   2.536  11.105
 2634SOL    HW2 8349   1.717   2.379  11.068
 2635SOL     OW 8350   1.362   3.006   9.855
 2635SOL    HW1 8351   1.445   2.977   9.807
 2635SOL    HW2 8352   1.313   3.073   9.799
 2636SOL     OW 8353   0.550   2.058  10.195
 2636SOL    HW1 8354   0.545   2.053  10.295
 2636SOL    HW2 8355   0.552   2.154  10.166
 2637SOL     OW 8356   1.008   3.318   9.787
 2637SOL    HW1 8357   0.962   3.390   9.735
 2637SOL    HW2 8358   1.004   3.338   9.885
 2638SOL     OW 8359   0.351   3.663  10.163
 2638SOL    HW1 8360   0.401   3.577  10.169
 2638SOL    HW2 8361   0.416   3.740  10.160
 2639SOL     OW 8362   1.795   2.928  10.183
 2639SOL    HW1 8363   1.733   2.913  10.107
 2639SOL    HW2 8364   1.743   2.939  10.268
 2640SOL     OW 8365   1.227   3.412  10.816
 2640SOL    HW1 8366   1.233   3.335  10.880
 2640SOL    HW2 8367   1.175   3.386  10.736
 2641SOL     OW 8368   0.321   2.805   9.552
 2641SOL    HW1 8369   0.403   2.844   9.510
 2641SOL    HW2 8370   0.294   2.723   9.503
 2642SOL     OW 8371   1.458   2.597  10.038
 2642SOL    HW1 8372   1.453   2.532  10.113
 2642SOL    HW2 8373   1.538   2.656  10.051
 2643SOL     OW 8374   0.461   3.128  11.037
 2643SOL    HW1 8375   0.411   3.129  10.951
 2643SOL    HW2 8376   0.398   3.110  11.113
 2644SOL     OW 8377   1.111   3.638   9.547
 2644SOL    HW1 8378   1.051   3.576   9.597
 2644SOL    HW2 8379   1.142   3.594   9.462
 2645SOL     OW 8380   0.202   2.147  10.808
 2645SOL    HW1 8381   0.122   2.207  10.795
 2645SOL    HW2 8382   0.192   2.098  10.894
 2646SOL     OW 8383   1.632   3.239   9.391
 2646SOL    HW1 8384   1.600   3.333   9.381
 2646SOL    HW2 8385   1.556   3.176   9.379
 2647SOL     OW 8386   0.464   3.605   9.633
 2647SOL    HW1 8387   0.497   3.644   9.719
 2647SOL    HW2 8388   0.540   3.598   9.568
 2648SOL     OW 8389   1.400   1.969   9.736
 2648SOL    HW1 8390   1.376   1.932   9.646
 2648SOL    HW2 8391   1.499   1.985   9.740
 2649SOL     OW 8392   0.249   3.647  10.551
 2649SOL    HW1 8393   0.306   3.582  10.601
 2649SOL    HW2 8394   0.233   3.614  10.458
 2650SOL     OW 8395   0.940   3.560  10.214
 2650SOL    HW1 8396   1.020   3.503  10.235
 2650SOL    HW2 8397   0.891   3.520  10.137
 2651SOL     OW 8398   0.382   2.562   9.790
 2651SOL    HW1 8399   0.427   2.472   9.787
 2651SOL    HW2 8400   0.288   2.551   9.823
 2652SOL     OW 8401   1.547   2.084  11.039
 2652SOL    HW1 8402   1.542   2.121  11.131
 2652SOL    HW2 8403   1.475   2.015  11.027
 2653SOL     OW 8404   0.614   1.984   9.427
 2653SOL    HW1 8405   0.712   1.962   9.434
 2653SOL    HW2 8406   0.583   1.967   9.334
 2654SOL     OW 8407   0.781   2.126  11.059
 2654SOL    HW1 8408   0.848   2.065  11.102
 2654SOL    HW2 8409   0.708   2.145  11.124
 2655SOL     OW 8410   0.888   3.376  10.505
 2655SOL    HW1 8411   0.865   3.351  10.411
 2655SOL    HW2 8412   0.949   3.307  10.544
 2656SOL     OW 8413   1.351   2.452  10.743
 2656SOL    HW1 8414   1.379   2.409  10.828
 2656SOL    HW2 8415   1.376   2.548  10.744
 2657SOL     OW 8416   0.803   3.264  10.234
 2657SOL    HW1 8417   0.893   3.278  10.192
 2657SOL    HW2 8418   0.732   3.266  10.163
 2658SOL     OW 8419   0.922   2.365  10.209
 2658SOL    HW1 8420   0.897   2.356  10.113
 2658SOL    HW2 8421   0.970   2.283  10.240
 2659SOL     OW 8422   0.539   1.926   9.822
 2659SOL    HW1 8423   0.458   1.927   9.880
 2659SOL    HW2 8424   0.542   2.009   9.767
 2660SOL     OW 8425   1.434   3.050   9.351
 2660SOL    HW1 8426   1.466   2.974   9.408
 2660SOL    HW2 8427   1.342   3.077   9.381
 2661SOL     OW 8428   0.297   1.897   9.481
 2661SOL    HW1 8429   0.346   1.981   9.460
 2661SOL    HW2 8430   0.359   1.832   9.526
 2662SOL     OW 8431   0.935   2.098   9.790
 2662SOL    HW1 8432   0.887   2.139   9.712
 2662SOL    HW2 8433   1.034   2.096   9.771
 2663SOL     OW 8434   1.076   2.545  10.774
 2663SOL    HW1 8435   0.996   2.484  10.777
 2663SOL    HW2 8436   1.157   2.492  10.750
 2664SOL     OW 8437   1.227   3.432  10.103
 2664SOL    HW1 8438   1.248   3.506  10.038
 2664SOL    HW2 8439   1.295   3.432  10.176
 2665SOL     OW 8440   0.459   3.014  10.051
 2665SOL    HW1 8441   0.388   2.987  10.116
 2665SOL    HW2 8442   0.433   2.986   9.958
 2666SOL     OW 8443   1.271   3.659   9.901
 2666SOL    HW1 8444   1.315   3.723   9.837
 2666SOL    HW2 8445   1.221   3.711   9.971
 2667SOL     OW 8446   1.032   2.411   9.326
 2667SOL    HW1 8447   0.991   2.493   9.287
 2667SOL    HW2 8448   1.096   2.437   9.399
 2668SOL     OW 8449   0.078   2.418  10.696
 2668SOL    HW1 8450   0.170   2.417  10.655
 2668SOL    HW2 8451   0.072   2.492  10.763
 2669SOL     OW 8452   0.561   2.084  10.457
 2669SOL    HW1 8453   0.599   2.000  10.494
 2669SOL    HW2 8454   0.473   2.103  10.501
 2670SOL     OW 8455   0.866   2.316   9.952
 2670SOL    HW1 8456   0.834   2.388   9.890
 2670SOL    HW2 8457   0.890   2.235   9.899
 2671SOL     OW 8458   1.017   1.901  10.063
 2671SOL    HW1 8459   0.945   1.906   9.994
 2671SOL    HW2 8460   0.993   1.832  10.132
 2672SOL     OW 8461   1.429   3.035  10.177
 2672SOL    HW1 8462   1.374   2.951  10.170
 2672SOL    HW2 8463   1.455   3.064  10.085
 2673SOL     OW 8464   1.466   2.452  10.302
 2673SOL    HW1 8465   1.436   2.357  10.309
 2673SOL    HW2 8466   1.539   2.468  10.368
 2674SOL     OW 8467   1.857   2.695   9.687
 2674SOL    HW1 8468   1.899   2.631   9.751
 2674SOL    HW2 8469   1.819   2.644   9.609
 2675SOL     OW 8470   0.488   3.247   9.484
 2675SOL    HW1 8471   0.401   3.232   9.531
 2675SOL    HW2 8472   0.471   3.273   9.389
 2676SOL     OW 8473   1.664   3.142   9.967
 2676SOL    HW1 8474   1.763   3.150   9.981
 2676SOL    HW2 8475   1.619   3.226   9.998
 2677SOL     OW 8476   1.390   2.437   9.388
 2677SOL    HW1 8477   1.336   2.416   9.469
 2677SOL    HW2 8478   1.481   2.396   9.397
 2678SOL     OW 8479   0.527   2.118   9.638
 2678SOL    HW1 8480   0.554   2.059   9.563
 2678SOL    HW2 8481   0.527   2.213   9.607
 2679SOL     OW 8482   1.754   3.085  10.898
 2679SOL    HW1 8483   1.845   3.046  10.885
 2679SOL    HW2 8484   1.762   3.181  10.922
 2680SOL     OW 8485   1.064   3.209  10.650
 2680SOL    HW1 8486   0.984   3.186  10.705
 2680SOL    HW2 8487   1.147   3.183  10.699
 2681SOL     OW 8488   1.592   3.491  10.935
 2681SOL    HW1 8489   1.619   3.525  10.845
 2681SOL    HW2 8490   1.671   3.453  10.981
 2682SOL     OW 8491   1.111   3.057  10.410
 2682SOL    HW1 8492   1.071   3.101  10.491
 2682SOL    HW2 8493   1.070   3.094  10.327
 2683SOL     OW 8494   1.638   2.961  10.389
 2683SOL    HW1 8495   1.643   3.042  10.448
 2683SOL    HW2 8496   1.552   2.963  10.338
 2684SOL     OW 8497   0.915   1.951  10.712
 2684SOL    HW1 8498   0.940   1.931  10.617
 2684SOL    HW2 8499   0.987   2.007  10.754
 2685SOL     OW 8500   0.980   2.978  11.029
 2685SOL    HW1 8501   0.881   2.984  11.039
 2685SOL    HW2 8502   1.003   2.898  10.973
 2686SOL     OW 8503   0.705   2.912   9.678
 2686SOL    HW1 8504   0.691   2.919   9.777
 2686SOL    HW2 8505   0.789   2.861   9.660
 2687SOL     OW 8506   0.410   2.675  10.561
 2687SOL    HW1 8507   0.496   2.687  10.611
 2687SOL    HW2 8508   0.368   2.588  10.588
 2688SOL     OW 8509   1.274   2.248  10.572
 2688SOL    HW1 8510   1.295   2.322  10.636
 2688SOL    HW2 8511   1.185   2.265  10.529
 2689SOL     OW 8512   0.064   3.426  10.641
 2689SOL    HW1 8513   0.018   3.508  10.607
 2689SOL    HW2 8514   0.162   3.445  10.650
 2690SOL     OW 8515   0.367   2.962   9.811
 2690SOL    HW1 8516   0.360   3.045   9.755
 2690SOL    HW2 8517   0.371   2.882   9.751
 2691SOL     OW 8518   0.566   2.399  10.175
 2691SOL    HW1 8519   0.578   2.465  10.101
 2691SOL    HW2 8520   0.612   2.433  10.258
 2692SOL     OW 8521   1.252   3.210   9.698
 2692SOL    HW1 8522   1.302   3.287   9.738
 2692SOL    HW2 8523   1.157   3.212   9.730
 2693SOL     OW 8524   1.272   3.307  10.452
 2693SOL    HW1 8525   1.319   3.320  10.539
 2693SOL    HW2 8526   1.206   3.233  10.461
 2694SOL     OW 8527   1.582   2.501   9.782
 2694SOL    HW1 8528   1.551   2.562   9.855
 2694SOL    HW2 8529   1.632   2.553   9.713
 2695SOL     OW 8530   0.354   3.372  10.639
 2695SOL    HW1 8531   0.333   3.328  10.552
 2695SOL    HW2 8532   0.451   3.398  10.642
 2696SOL     OW 8533   0.402   2.613  10.908
 2696SOL    HW1 8534   0.470   2.668  10.861
 2696SOL    HW2 8535   0.442   2.525  10.935
 2697SOL     OW 8536   1.587   2.641  10.980
 2697SOL    HW1 8537   1.495   2.679  10.975
 2697SOL    HW2 8538   1.647   2.688  10.915
 2698SOL     OW 8539   1.013   1.967  11.080
 2698SOL    HW1 8540   1.019   2.052  11.028
 2698SOL    HW2 8541   1.045   1.891  11.023
 2699SOL     OW 8542   0.504   1.912  11.050
 2699SOL    HW1 8543   0.462   1.855  10.980
 2699SOL    HW2 8544   0.438   1.981  11.082
 2700SOL     OW 8545   0.573   2.732  10.339
 2700SOL    HW1 8546   0.617   2.821  10.330
 2700SOL    HW2 8547   0.510   2.732  10.416
 2701SOL     OW 8548   1.360   2.724  10.355
 2701SOL    HW1 8549   1.285   2.724  10.289
 2701SOL    HW2 8550   1.397   2.632  10.364
 2702SOL     OW 8551   1.209   2.387   9.585
 2702SOL    HW1 8552   1.222   2.303   9.639
 2702SOL    HW2 8553   1.180   2.461   9.645
 2703SOL     OW 8554   0.307   2.075  10.541
 2703SOL    HW1 8555   0.284   2.112  10.631
 2703SOL    HW2 8556   0.277   1.980  10.535
 2704SOL     OW 8557   0.037   3.172  10.592
 2704SOL    HW1 8558   0.090   3.123  10.660
 2704SOL    HW2 8559   0.059   3.270  10.597
 2705SOL     OW 8560   0.732   2.496  10.374
 2705SOL    HW1 8561   0.791   2.470  10.298
 2705SOL    HW2 8562   0.704   2.592  10.363
 2706SOL     OW 8563   1.728   2.797  11.164
 2706SOL    HW1 8564   1.682   2.790  11.075
 2706SOL    HW2 8565   1.666   2.841  11.230
 2707SOL     OW 8566   0.307   1.925   9.928
 2707SOL    HW1 8567   0.296   2.019   9.961
 2707SOL    HW2 8568   0.302   1.862  10.005
 2708SOL     OW 8569   1.622   2.229   9.684
 2708SOL    HW1 8570   1.624   2.153   9.748
 2708SOL    HW2 8571   1.574   2.306   9.724
 2709SOL     OW 8572   1.023   2.628  10.276
 2709SOL    HW1 8573   1.038   2.649  10.372
 2709SOL    HW2 8574   0.993   2.533  10.267
 2710SOL     OW 8575   0.980   3.435  11.010
 2710SOL    HW1 8576   0.960   3.479  10.922
 2710SOL    HW2 8577   1.019   3.344  10.994
 2711SOL     OW 8578   1.859   3.380  10.915
 2711SOL    HW1 8579   1.873   3.407  10.820
 2711SOL    HW2 8580   1.942   3.402  10.968
 2712SOL     OW 8581   0.350   2.760  11.114
 2712SOL    HW1 8582   0.426   2.804  11.162
 2712SOL    HW2 8583   0.385   2.713  11.032
 2713SOL     OW 8584   1.540   2.136   9.435
 2713SOL    HW1 8585   1.479   2.061   9.458
 2713SOL    HW2 8586   1.562   2.188   9.518
 2714SOL     OW 8587   1.303   2.700   9.352
 2714SOL    HW1 8588   1.337   2.607   9.367
 2714SOL    HW2 8589   1.321   2.727   9.257
 2715SOL     OW 8590   1.068   3.195  10.159
 2715SOL    HW1 8591   1.075   3.111  10.104
 2715SOL    HW2 8592   1.130   3.264  10.123
 2716SOL     OW 8593   0.319   2.672  10.259
 2716SOL    HW1 8594   0.412   2.708  10.264
 2716SOL    HW2 8595   0.313   2.587  10.311
 2717SOL     OW 8596   0.339   2.371  10.316
 2717SOL    HW1 8597   0.287   2.288  10.299
 2717SOL    HW2 8598   0.416   2.376  10.252
 2718SOL     OW 8599   1.138   2.242  10.988
 2718SOL    HW1 8600   1.093   2.305  11.052
 2718SOL    HW2 8601   1.231   2.273  10.971
 2719SOL     OW 8602   1.160   2.069  10.787
 2719SOL    HW1 8603   1.160   2.133  10.864
 2719SOL    HW2 8604   1.188   2.117  10.704
 2720SOL     OW 8605   0.008   3.188   9.510
 2720SOL    HW1 8606  -0.085   3.209   9.479
 2720SOL    HW2 8607   0.018   3.089   9.523
 2721SOL     OW 8608   0.088   3.663  10.237
 2721SOL    HW1 8609   0.046   3.577  10.210
 2721SOL    HW2 8610   0.182   3.666  10.203
 2722SOL     OW 8611   0.504   3.430  10.220
 2722SOL    HW1 8612   0.570   3.504  10.229
 2722SOL    HW2 8613   0.548   3.351  10.178
 2723SOL     OW 8614   1.002   2.658  10.548
 2723SOL    HW1 8615   1.043   2.626  10.634
 2723SOL    HW2 8616   0.906   2.631  10.545
 2724SOL     OW 8617   0.040   2.406  10.424
 2724SOL    HW1 8618   0.125   2.373  10.383
 2724SOL    HW2 8619   0.053   2.421  10.522
 2725SOL     OW 8620   0.189   2.382  11.032
 2725SOL    HW1 8621   0.248   2.342  10.962
 2725SOL    HW2 8622   0.131   2.453  10.991
 2726SOL     OW 8623   1.369   2.812  10.970
 2726SOL    HW1 8624   1.408   2.901  10.990
 2726SOL    HW2 8625   1.379   2.792  10.873
 2727SOL     OW 8626   0.815   2.434   9.635
 2727SOL    HW1 8627   0.822   2.345   9.589
 2727SOL    HW2 8628   0.721   2.468   9.627
 2728SOL     OW 8629   1.657   2.466  10.516
 2728SOL    HW1 8630   1.619   2.397  10.578
 2728SOL    HW2 8631   1.739   2.430  10.472
 2729SOL     OW 8632   0.252   3.426  11.054
 2729SOL    HW1 8633   0.222   3.483  11.130
 2729SOL    HW2 8634   0.245   3.329  11.080
 2730SOL     OW 8635   0.671   2.326  10.579
 2730SOL    HW1 8636   0.637   2.237  10.549
 2730SOL    HW2 8637   0.697   2.380  10.499
 2731SOL     OW 8638   0.930   3.540  10.775
 2731SOL    HW1 8639   0.906   3.522  10.680
 2731SOL    HW2 8640   0.960   3.634  10.785
 2732SOL     OW 8641   0.473   2.362   9.501
 2732SOL    HW1 8642   0.534   2.442   9.505
 2732SOL    HW2 8643   0.378   2.393   9.508
 2733SOL     OW 8644   0.159   2.999  10.776
 2733SOL    HW1 8645   0.181   2.938  10.852
 2733SOL    HW2 8646   0.169   2.950  10.690
 2734SOL     OW 8647   1.347   2.921  10.544
 2734SOL    HW1 8648   1.371   2.858  10.470
 2734SOL    HW2 8649   1.257   2.961  10.526
 2735SOL     OW 8650   1.302   2.717   9.619
 2735SOL    HW1 8651   1.216   2.686   9.661
 2735SOL    HW2 8652   1.298   2.703   9.520
 2736SOL     OW 8653   1.759   3.609  10.464
 2736SOL    HW1 8654   1.820   3.639  10.391
 2736SOL    HW2 8655   1.721   3.520  10.442
 2737SOL     OW 8656   1.252   3.593  10.438
 2737SOL    HW1 8657   1.336   3.598  10.384
 2737SOL    HW2 8658   1.229   3.497  10.456
 2738SOL     OW 8659   0.083   3.120  10.332
 2738SOL    HW1 8660   0.078   3.119  10.432
 2738SOL    HW2 8661   0.000   3.079  10.294
 2739SOL     OW 8662   0.688   3.524  11.026
 2739SOL    HW1 8663   0.632   3.605  11.035
 2739SOL    HW2 8664   0.740   3.528  10.940
 2740SOL     OW 8665   1.388   3.435   9.787
 2740SOL    HW1 8666   1.455   3.447   9.713
 2740SOL    HW2 8667   1.348   3.524   9.810
 2741SOL     OW 8668   0.130   3.656  11.161
 2741SOL    HW1 8669   0.089   3.582  11.214
 2741SOL    HW2 8670   0.194   3.707  11.219
 2742SOL     OW 8671   1.280   2.789   9.982
 2742SOL    HW1 8672   1.340   2.708   9.984
 2742SOL    HW2 8673   1.320   2.858   9.922
 2743SOL     OW 8674   0.830   3.135  10.732
 2743SOL    HW1 8675   0.825   3.168  10.827
 2743SOL    HW2 8676   0.744   3.154  10.686
 2744SOL     OW 8677   0.672   3.478   9.464
 2744SOL    HW1 8678   0.681   3.488   9.365
 2744SOL    HW2 8679   0.632   3.389   9.485
 2745SOL     OW 8680   1.650   3.582  10.704
 2745SOL    HW1 8681   1.703   3.592  10.620
 2745SOL    HW2 8682   1.623   3.672  10.738
 2746SOL     OW 8683   0.263   2.188  10.030
 2746SOL    HW1 8684   0.184   2.239   9.996
 2746SOL    HW2 8685   0.254   2.173  10.128
 2747SOL     OW 8686   1.194   3.474   9.341
 2747SOL    HW1 8687   1.200   3.381   9.378
 2747SOL    HW2 8688   1.135   3.474   9.261
 2748SOL     OW 8689   0.822   2.864  10.682
 2748SOL    HW1 8690   0.862   2.863  10.590
 2748SOL    HW2 8691   0.832   2.956  10.722
 2749SOL     OW 8692   0.916   2.772   9.601
 2749SOL    HW1 8693   0.979   2.810   9.533
 2749SOL    HW2 8694   0.956   2.689   9.640
 2750SOL     OW 8695   1.504   3.469   9.354
 2750SOL    HW1 8696   1.412   3.506   9.361
 2750SOL    HW2 8697   1.542   3.489   9.264
 2751SOL     OW 8698   0.372   3.150  10.800
 2751SOL    HW1 8699   0.359   3.243  10.766
 2751SOL    HW2 8700   0.288   3.098  10.787
 2752SOL     OW 8701   1.614   3.154  10.599
 2752SOL    HW1 8702   1.674   3.157  10.679
 2752SOL    HW2 8703   1.539   3.218  10.612
 2753SOL     OW 8704   1.039   2.960  10.006
 2753SOL    HW1 8705   0.969   2.913  10.060
 2753SOL    HW2 8706   1.098   2.892   9.963
 2754SOL     OW 8707   1.014   2.098  10.281
 2754SOL    HW1 8708   1.006   2.062  10.188
 2754SOL    HW2 8709   1.012   2.022  10.346
 2755SOL     OW 8710   0.590   3.349   9.801
 2755SOL    HW1 8711   0.632   3.291   9.731
 2755SOL    HW2 8712   0.546   3.428   9.757
 2756SOL     OW 8713   1.709   2.247  10.691
 2756SOL    HW1 8714   1.782   2.316  10.695
 2756SOL    HW2 8715   1.737   2.172  10.632
 2757SOL     OW 8716   0.255   3.210   9.600
 2757SOL    HW1 8717   0.159   3.211   9.573
 2757SOL    HW2 8718   0.267   3.263   9.684
 2758SOL     OW 8719   0.105   2.875  11.036
 2758SOL    HW1 8720   0.028   2.842  11.090
 2758SOL    HW2 8721   0.190   2.845  11.078
 2759SOL     OW 8722   0.672   2.065  10.799
 2759SOL    HW1 8723   0.762   2.049  10.759
 2759SOL    HW2 8724   0.680   2.070  10.898
 2760SOL     OW 8725   0.075   2.207   9.343
 2760SOL    HW1 8726  -0.017   2.179   9.314
 2760SOL    HW2 8727   0.106   2.284   9.287
 2761SOL     OW 8728   1.440   2.718  10.708
 2761SOL    HW1 8729   1.383   2.770  10.645
 2761SOL    HW2 8730   1.536   2.730  10.684
 2762SOL     OW 8731   0.072   2.028   9.628
 2762SOL    HW1 8732   0.055   2.111   9.574
 2762SOL    HW2 8733   0.162   1.991   9.606
 2763SOL     OW 8734   1.183   3.197   9.429
 2763SOL    HW1 8735   1.084   3.186   9.431
 2763SOL    HW2 8736   1.217   3.212   9.522
 2764SOL     OW 8737   0.613   2.704  10.741
 2764SOL    HW1 8738   0.669   2.785  10.724
 2764SOL    HW2 8739   0.672   2.624  10.744
 2765SOL     OW 8740   1.493   3.629  10.269
 2765SOL    HW1 8741   1.526   3.693  10.200
 2765SOL    HW2 8742   1.559   3.623  10.344
 2766SOL     OW 8743   0.716   2.427  11.018
 2766SOL    HW1 8744   0.735   2.492  11.092
 2766SOL    HW2 8745   0.776   2.347  11.027
 2767SOL     OW 8746   1.450   3.082  10.943
 2767SOL    HW1 8747   1.441   3.072  11.042
 2767SOL    HW2 8748   1.546   3.075  10.917
 2768SOL     OW 8749   0.390   3.603  10.870
 2768SOL    HW1 8750   0.299   3.644  10.868
 2768SOL    HW2 8751   0.383   3.509  10.902
 2769SOL     OW 8752   1.674   2.745  10.564
 2769SOL    HW1 8753   1.647   2.656  10.527
 2769SOL    HW2 8754   1.675   2.813  10.491
 2770SOL     OW 8755   1.225   2.187   9.759
 2770SOL    HW1 8756   1.290   2.113   9.748
 2770SOL    HW2 8757   1.245   2.237   9.843
 2771SOL     OW 8758   0.594   2.607   9.962
 2771SOL    HW1 8759   0.644   2.692   9.943
 2771SOL    HW2 8760   0.506   2.609   9.914
 2772SOL     OW 8761   1.777   2.204  10.952
 2772SOL    HW1 8762   1.760   2.235  10.858
 2772SOL    HW2 8763   1.693   2.167  10.990
 2773SOL     OW 8764   1.730   2.796  10.827
 2773SOL    HW1 8765   1.768   2.887  10.842
 2773SOL    HW2 8766   1.722   2.779  10.728
 2774SOL     OW 8767   0.859   3.236   9.326
 2774SOL    HW1 8768   0.813   3.251   9.414
 2774SOL    HW2 8769   0.903   3.321   9.296
 2775SOL     OW 8770   0.661   3.652  10.263
 2775SOL    HW1 8771   0.615   3.740  10.250
 2775SOL    HW2 8772   0.760   3.664  10.256
 2776SOL     OW 8773   0.859   2.818  10.171
 2776SOL    HW1 8774   0.913   2.749  10.219
 2776SOL    HW2 8775   0.827   2.887  10.237
 2777SOL     OW 8776   1.083   2.846   9.397
 2777SOL    HW1 8777   1.060   2.899   9.315
 2777SOL    HW2 8778   1.164   2.790   9.378
 2778SOL     OW 8779   1.861   3.431  10.161
 2778SOL    HW1 8780   1.790   3.419  10.091
 2778SOL    HW2 8781   1.862   3.352  10.221
 2779SOL     OW 8782   0.221   3.176  11.154
 2779SOL    HW1 8783   0.156   3.103  11.133
 2779SOL    HW2 8784   0.225   3.190  11.252
 2780SOL     OW 8785   0.079   3.102   9.963
 2780SOL    HW1 8786   0.078   3.055  10.051
 2780SOL    HW2 8787   0.161   3.074   9.912
 2781SOL     OW 8788   0.672   3.253  10.934
 2781SOL    HW1 8789   0.594   3.203  10.972
 2781SOL    HW2 8790   0.669   3.348  10.965
 2782SOL     OW 8791   0.428   2.286   9.830
 2782SOL    HW1 8792   0.458   2.214   9.768
 2782SOL    HW2 8793   0.389   2.246   9.913
 2783SOL     OW 8794   1.705   3.349  10.414
 2783SOL    HW1 8795   1.612   3.324  10.387
 2783SOL    HW2 8796   1.731   3.299  10.496
 2784SOL     OW 8797   0.317   2.409  10.590
 2784SOL    HW1 8798   0.355   2.350  10.662
 2784SOL    HW2 8799   0.357   2.383  10.502
 2785SOL     OW 8800   0.812   3.448   9.997
 2785SOL    HW1 8801   0.844   3.458   9.903
 2785SOL    HW2 8802   0.733   3.386   9.999
 2786SOL     OW 8803   1.424   2.076  10.422
 2786SOL    HW1 8804   1.476   2.011  10.477
 2786SOL    HW2 8805   1.375   2.139  10.483
 2787SOL     OW 8806   1.001   1.896  10.464
 2787SOL    HW1 8807   0.938   1.824  10.433
 2787SOL    HW2 8808   1.094   1.860  10.464
 2788SOL     OW 8809   0.770   3.192   9.611
 2788SOL    HW1 8810   0.724   3.105   9.628
 2788SOL    HW2 8811   0.861   3.189   9.652
 2789SOL     OW 8812   0.618   3.429  10.594
 2789SOL    HW1 8813   0.613   3.511  10.651
 2789SOL    HW2 8814   0.707   3.426  10.549
 2790SOL     OW 8815   1.352   1.914   9.478
 2790SOL    HW1 8816   1.387   1.873   9.394
 2790SOL    HW2 8817   1.262   1.876   9.498
 2791SOL     OW 8818   1.300   2.315  10.001
 2791SOL    HW1 8819   1.241   2.395  10.005
 2791SOL    HW2 8820   1.315   2.280  10.094
 2792SOL     OW 8821   1.593   2.083  10.192
 2792SOL    HW1 8822   1.509   2.082  10.246
 2792SOL    HW2 8823   1.595   2.166  10.136
 2793SOL     OW 8824   0.039   2.939   9.610
 2793SOL    HW1 8825   0.138   2.928   9.601
 2793SOL    HW2 8826  -0.001   2.853   9.642
 2794SOL     OW 8827   0.875   3.508   9.647
 2794SOL    HW1 8828   0.798   3.473   9.593
 2794SOL    HW2 8829   0.843   3.579   9.709
 2795SOL     OW 8830   0.230   2.490  11.285
 2795SOL    HW1 8831   0.137   2.488  11.322
 2795SOL    HW2 8832   0.231   2.451  11.193
 2796SOL     OW 8833   0.225   2.137  12.168
 2796SOL    HW1 8834   0.260   2.120  12.260
 2796SOL    HW2 8835   0.137   2.092  12.156
 2797SOL     OW 8836   0.019   2.230  11.819
 2797SOL    HW1 8837  -0.063   2.273  11.858
 2797SOL    HW2 8838  -0.009   2.157  11.756
 2798SOL     OW 8839   0.569   3.137  12.337
 2798SOL    HW1 8840   0.476   3.130  12.300
 2798SOL    HW2 8841   0.580   3.226  12.381
 2799SOL     OW 8842   1.555   3.373  11.875
 2799SOL    HW1 8843   1.498   3.357  11.956
 2799SOL    HW2 8844   1.496   3.383  11.795
 2800SOL     OW 8845   1.135   2.565  11.889
 2800SOL    HW1 8846   1.192   2.643  11.864
 2800SOL    HW2 8847   1.075   2.591  11.965
 2801SOL     OW 8848   1.755   2.469  11.403
 2801SOL    HW1 8849   1.743   2.456  11.304
 2801SOL    HW2 8850   1.725   2.388  11.452
 2802SOL     OW 8851   0.768   3.006  12.195
 2802SOL    HW1 8852   0.690   3.023  12.255
 2802SOL    HW2 8853   0.802   3.093  12.159
 2803SOL     OW 8854   0.850   2.660  12.995
 2803SOL    HW1 8855   0.846   2.736  13.060
 2803SOL    HW2 8856   0.872   2.696  12.904
 2804SOL     OW 8857   0.685   2.874  11.837
 2804SOL    HW1 8858   0.754   2.858  11.907
 2804SOL    HW2 8859   0.612   2.931  11.875
 2805SOL     OW 8860   0.686   3.023  12.975
 2805SOL    HW1 8861   0.746   3.102  12.989
 2805SOL    HW2 8862   0.600   3.054  12.934
 2806SOL     OW 8863   0.335   3.297  12.233
 2806SOL    HW1 8864   0.257   3.266  12.180
 2806SOL    HW2 8865   0.393   3.355  12.176
 2807SOL     OW 8866   1.460   3.367  12.511
 2807SOL    HW1 8867   1.484   3.461  12.537
 2807SOL    HW2 8868   1.444   3.313  12.593
 2808SOL     OW 8869   0.438   2.254  12.671
 2808SOL    HW1 8870   0.520   2.198  12.680
 2808SOL    HW2 8871   0.357   2.196  12.675
 2809SOL     OW 8872   1.603   2.309  11.909
 2809SOL    HW1 8873   1.529   2.355  11.859
 2809SOL    HW2 8874   1.654   2.377  11.962
 2810SOL     OW 8875   0.231   3.575  11.655
 2810SOL    HW1 8876   0.265   3.652  11.709
 2810SOL    HW2 8877   0.275   3.575  11.565
 2811SOL     OW 8878   1.127   3.203  12.862
 2811SOL    HW1 8879   1.174   3.203  12.950
 2811SOL    HW2 8880   1.079   3.116  12.851
 2812SOL     OW 8881   0.230   3.296  11.710
 2812SOL    HW1 8882   0.204   3.392  11.710
 2812SOL    HW2 8883   0.159   3.242  11.755
 2813SOL     OW 8884   0.240   2.953  12.058
 2813SOL    HW1 8885   0.254   2.869  12.110
 2813SOL    HW2 8886   0.185   3.017  12.113
 2814SOL     OW 8887   0.620   3.648  12.611
 2814SOL    HW1 8888   0.528   3.631  12.646
 2814SOL    HW2 8889   0.648   3.740  12.637
 2815SOL     OW 8890   0.606   2.826  11.295
 2815SOL    HW1 8891   0.613   2.910  11.241
 2815SOL    HW2 8892   0.652   2.839  11.383
 2816SOL     OW 8893   1.594   1.976  12.652
 2816SOL    HW1 8894   1.576   2.043  12.580
 2816SOL    HW2 8895   1.591   2.022  12.741
 2817SOL     OW 8896   0.122   2.505  11.735
 2817SOL    HW1 8897   0.077   2.417  11.752
 2817SOL    HW2 8898   0.121   2.559  11.819
 2818SOL     OW 8899   1.842   3.629  11.531
 2818SOL    HW1 8900   1.896   3.600  11.611
 2818SOL    HW2 8901   1.872   3.719  11.502
 2819SOL     OW 8902   0.027   3.458  11.289
 2819SOL    HW1 8903   0.008   3.362  11.310
 2819SOL    HW2 8904  -0.006   3.516  11.364
 2820SOL     OW 8905   1.689   2.784  11.784
 2820SOL    HW1 8906   1.784   2.755  11.792
 2820SOL    HW2 8907   1.681   2.849  11.709
 2821SOL     OW 8908   1.641   2.970  11.604
 2821SOL    HW1 8909   1.727   2.972  11.552
 2821SOL    HW2 8910   1.655   3.017  11.692
 2822SOL     OW 8911   0.113   2.599  12.769
 2822SOL    HW1 8912   0.201   2.586  12.814
 2822SOL    HW2 8913   0.100   2.696  12.747
 2823SOL     OW 8914   0.613   3.227  11.898
 2823SOL    HW1 8915   0.564   3.140  11.907
 2823SOL    HW2 8916   0.590   3.270  11.811
 2824SOL     OW 8917   1.293   3.090  12.595
 2824SOL    HW1 8918   1.330   3.017  12.537
 2824SOL    HW2 8919   1.345   3.095  12.680
 2825SOL     OW 8920   0.809   1.866  11.674
 2825SOL    HW1 8921   0.849   1.957  11.665
 2825SOL    HW2 8922   0.709   1.874  11.680
 2826SOL     OW 8923   0.197   2.838  12.436
 2826SOL    HW1 8924   0.286   2.793  12.422
 2826SOL    HW2 8925   0.124   2.773  12.417
 2827SOL     OW 8926   1.525   2.861  11.362
 2827SOL    HW1 8927   1.462   2.785  11.375
 2827SOL    HW2 8928   1.573   2.879  11.448
 2828SOL     OW 8929   1.187   3.654  12.788
 2828SOL    HW1 8930   1.211   3.714  12.712
 2828SOL    HW2 8931   1.194   3.559  12.758
 2829SOL     OW 8932   0.317   2.113  12.973
 2829SOL    HW1 8933   0.388   2.184  12.979
 2829SOL    HW2 8934   0.229   2.152  13.001
 2830SOL     OW 8935   1.466   3.279  12.125
 2830SOL    HW1 8936   1.407   3.285  12.205
 2830SOL    HW2 8937   1.451   3.191  12.079
 2831SOL     OW 8938   1.667   3.576  11.744
 2831SOL    HW1 8939   1.626   3.553  11.656
 2831SOL    HW2 8940   1.649   3.502  11.809
 2832SOL     OW 8941   0.598   2.591  11.442
 2832SOL    HW1 8942   0.622   2.660  11.374
 2832SOL    HW2 8943   0.520   2.624  11.496
 2833SOL     OW 8944   1.281   2.207  12.116
 2833SOL    HW1 8945   1.195   2.157  12.103
 2833SOL    HW2 8946   1.343   2.153  12.172
 2834SOL     OW 8947   1.576   3.524  11.479
 2834SOL    HW1 8948   1.665   3.570  11.482
 2834SOL    HW2 8949   1.555   3.500  11.384
 2835SOL     OW 8950   0.807   2.467  12.637
 2835SOL    HW1 8951   0.760   2.464  12.726
 2835SOL    HW2 8952   0.756   2.412  12.571
 2836SOL     OW 8953   1.394   2.331  12.846
 2836SOL    HW1 8954   1.374   2.374  12.934
 2836SOL    HW2 8955   1.472   2.269  12.855
 2837SOL     OW 8956   0.973   2.752  12.744
 2837SOL    HW1 8957   1.019   2.668  12.715
 2837SOL    HW2 8958   0.917   2.786  12.669
 2838SOL     OW 8959   0.991   2.272  12.414
 2838SOL    HW1 8960   0.914   2.306  12.468
 2838SOL    HW2 8961   0.957   2.221  12.335
 2839SOL     OW 8962   1.041   2.563  11.601
 2839SOL    HW1 8963   1.067   2.559  11.697
 2839SOL    HW2 8964   0.956   2.512  11.587
 2840SOL     OW 8965   0.076   2.673  11.961
 2840SOL    HW1 8966   0.175   2.661  11.970
 2840SOL    HW2 8967   0.052   2.768  11.982
 2841SOL     OW 8968   0.130   3.683  12.743
 2841SOL    HW1 8969   0.120   3.668  12.842
 2841SOL    HW2 8970   0.044   3.719  12.707
 2842SOL     OW 8971   0.865   2.210  11.367
 2842SOL    HW1 8972   0.924   2.273  11.318
 2842SOL    HW2 8973   0.884   2.116  11.338
 2843SOL     OW 8974   1.719   2.447  13.003
 2843SOL    HW1 8975   1.693   2.536  12.967
 2843SOL    HW2 8976   1.717   2.379  12.930
 2844SOL     OW 8977   1.362   3.006  11.717
 2844SOL    HW1 8978   1.445   2.977  11.669
 2844SOL    HW2 8979   1.313   3.073  11.661
 2845SOL     OW 8980   0.550   2.058  12.057
 2845SOL    HW1 8981   0.545   2.053  12.157
 2845SOL    HW2 8982   0.552   2.154  12.028
 2846SOL     OW 8983   1.008   3.318  11.649
 2846SOL    HW1 8984   0.962   3.390  11.597
 2846SOL    HW2 8985   1.004   3.338  11.747
 2847SOL     OW 8986   0.351   3.663  12.025
 2847SOL    HW1 8987   0.401   3.577  12.031
 2847SOL    HW2 8988   0.416   3.740  12.022
 2848SOL     OW 8989   1.795   2.928  12.045
 2848SOL    HW1 8990   1.733   2.913  11.969
 2848SOL    HW2 8991   1.743   2.939  12.130
 2849SOL     OW 8992   1.227   3.412  12.678
 2849SOL    HW1 8993   1.233   3.335  12.742
 2849SOL    HW2 8994   1.175   3.386  12.598
 2850SOL     OW 8995   0.321   2.805  11.414
 2850SOL    HW1 8996   0.403   2.844  11.372
 2850SOL    HW2 8997   0.294   2.723  11.365
 2851SOL     OW 8998   1.458   2.597  11.900
 2851SOL    HW1 8999   1.453   2.532  11.975
 2851SOL    HW2 9000   1.538   2.656  11.913
 2852SOL     OW 9001   0.461   3.128  12.899
 2852SOL    HW1 9002   0.411   3.129  12.813
 2852SOL    HW2 9003   0.398   3.110  12.975
 2853SOL     OW 9004   1.111   3.638  11.409
 2853SOL    HW1 9005   1.051   3.576  11.459
 2853SOL    HW2 9006   1.142   3.594  11.324
 2854SOL     OW 9007   0.202   2.147  12.670
 2854SOL    HW1 9008   0.122   2.207  12.657
 2854SOL    HW2 9009   0.192   2.098  12.756
 2855SOL     OW 9010   1.632   3.239  11.253
 2855SOL    HW1 9011   1.600   3.333  11.243
 2855SOL    HW2 9012   1.556   3.176  11.241
 2856SOL     OW 9013   0.464   3.605  11.495
 2856SOL    HW1 9014   0.497   3.644  11.581
 2856SOL    HW2 9015   0.540   3.598  11.430
 2857SOL     OW 9016   1.400   1.969  11.598
 2857SOL    HW1 9017   1.376   1.932  11.508
 2857SOL    HW2 9018   1.499   1.985  11.602
 2858SOL     OW 9019   0.249   3.647  12.413
 2858SOL    HW1 9020   0.306   3.582  12.463
 2858SOL    HW2 9021   0.233   3.614  12.320
 2859SOL     OW 9022   0.940   3.560  12.076
 2859SOL    HW1 9023   1.020   3.503  12.097
 2859SOL    HW2 9024   0.891   3.520  11.999
 2860SOL     OW 9025   0.382   2.562  11.652
 2860SOL    HW1 9026   0.427   2.472  11.649
 2860SOL    HW2 9027   0.288   2.551  11.685
 2861SOL     OW 9028   1.547   2.084  12.901
 2861SOL    HW1 9029   1.542   2.121  12.993
 2861SOL    HW2 9030   1.475   2.015  12.889
 2862SOL     OW 9031   0.614   1.984  11.289
 2862SOL    HW1 9032   0.712   1.962  11.296
 2862SOL    HW2 9033   0.583   1.967  11.196
 2863SOL     OW 9034   0.781   2.126  12.921
 2863SOL    HW1 9035   0.848   2.065  12.964
 2863SOL    HW2 9036   0.708   2.145  12.986
 2864SOL     OW 9037   0.888   3.376  12.367
 2864SOL    HW1 9038   0.865   3.351  12.273
 2864SOL    HW2 9039   0.949   3.307  12.406
 2865SOL     OW 9040   1.351   2.452  12.605
 2865SOL    HW1 9041   1.379   2.409  12.690
 2865SOL    HW2 9042   1.376   2.548  12.606
 2866SOL     OW 9043   0.803   3.264  12.096
 2866SOL    HW1 9044   0.893   3.278  12.054
 2866SOL    HW2 9045   0.732   3.266  12.025
 2867SOL     OW 9046   0.922   2.365  12.071
 2867SOL    HW1 9047   0.897   2.356  11.975
 2867SOL    HW2 9048   0.970   2.283  12.102
 2868SOL     OW 9049   0.539   1.926  11.684
 2868SOL    HW1 9050   0.458   1.927  11.742
 2868SOL    HW2 9051   0.542   2.009  11.629
 2869SOL     OW 9052   1.434   3.050  11.213
 2869SOL    HW1 9053   1.466   2.974  11.270
 2869SOL    HW2 9054   1.342   3.077  11.243
 2870SOL     OW 9055   0.297   1.897  11.343
 2870SOL    HW1 9056   0.346   1.981  11.322
 2870SOL    HW2 9057   0.359   1.832  11.388
 2871SOL     OW 9058   0.935   2.098  11.652
 2871SOL    HW1 9059   0.887   2.139  11.574
 2871SOL    HW2 9060   1.034   2.096  11.633
 2872SOL     OW 9061   1.076   2.545  12.636
 2872SOL    HW1 9062   0.996   2.484  12.639
 2872SOL    HW2 9063   1.157   2.492  12.612
 2873SOL     OW 9064   1.227   3.432  11.965
 2873SOL    HW1 9065   1.248   3.506  11.900
 2873SOL    HW2 9066   1.295   3.432  12.038
 2874SOL     OW 9067   0.459   3.014  11.913
 2874SOL    HW1 9068   0.388   2.987  11.978
 2874SOL    HW2 9069   0.433   2.986  11.820
 2875SOL     OW 9070   1.271   3.659  11.763
 2875SOL    HW1 9071   1.315   3.723  11.699
 2875SOL    HW2 9072   1.221   3.711  11.833
 2876SOL     OW 9073   1.032   2.411  11.188
 2876SOL    HW1 9074   0.991   2.493  11.149
 2876SOL    HW2 9075   1.096   2.437  11.261
 2877SOL     OW 9076   0.078   2.418  12.558
 2877SOL    HW1 9077   0.170   2.417  12.517
 2877SOL    HW2 9078   0.072   2.492  12.625
 2878SOL     OW 9079   0.561   2.084  12.319
 2878SOL    HW1 9080   0.599   2.000  12.356
 2878SOL    HW2 9081   0.473   2.103  12.363
 2879SOL     OW 9082   0.866   2.316  11.814
 2879SOL    HW1 9083   0.834   2.388  11.752
 2879SOL    HW2 9084   0.890   2.235  11.761
 2880SOL     OW 9085   1.017   1.901  11.925
 2880SOL    HW1 9086   0.945   1.906  11.856
 2880SOL    HW2 9087   0.993   1.832  11.994
 2881SOL     OW 9088   1.429   3.035  12.039
 2881SOL    HW1 9089   1.374   2.951  12.032
 2881SOL    HW2 9090   1.455   3.064  11.947
 2882SOL     OW 9091   1.466   2.452  12.164
 2882SOL    HW1 9092   1.436   2.357  12.171
 2882SOL    HW2 9093   1.539   2.468  12.230
 2883SOL     OW 9094   1.857   2.695  11.549
 2883SOL    HW1 9095   1.899   2.631  11.613
 2883SOL    HW2 9096   1.819   2.644  11.471
 2884SOL     OW 9097   0.488   3.247  11.346
 2884SOL    HW1 9098   0.401   3.232  11.393
 2884SOL    HW2 9099   0.471   3.273  11.251
 2885SOL     OW 9100   1.664   3.142  11.829
 2885SOL    HW1 9101   1.763   3.150  11.843
 2885SOL    HW2 9102   1.619   3.226  11.860
 2886SOL     OW 9103   1.390   2.437  11.250
 2886SOL    HW1 9104   1.336   2.416  11.331
 2886SOL    HW2 9105   1.481   2.396  11.259
 2887SOL     OW 9106   0.527   2.118  11.500
 2887SOL    HW1 9107   0.554   2.059  11.425
 2887SOL    HW2 9108   0.527   2.213  11.469
 2888SOL     OW 9109   1.754   3.085  12.760
 2888SOL    HW1 9110   1.845   3.046  12.747
 2888SOL    HW2 9111   1.762   3.181  12.784
 2889SOL     OW 9112   1.064   3.209  12.512
 2889SOL    HW1 9113   0.984   3.186  12.567
 2889SOL    HW2 9114   1.147   3.183  12.561
 2890SOL     OW 9115   1.592   3.491  12.797
 2890SOL    HW1 9116   1.619   3.525  12.707
 2890SOL    HW2 9117   1.671   3.453  12.843
 2891SOL     OW 9118   1.111   3.057  12.272
 2891SOL    HW1 9119   1.071   3.101  12.353
 2891SOL    HW2 9120   1.070   3.094  12.189
 2892SOL     OW 9121   1.638   2.961  12.251
 2892SOL    HW1 9122   1.643   3.042  12.310
 2892SOL    HW2 9123   1.552   2.963  12.200
 2893SOL     OW 9124   0.915   1.951  12.574
 2893SOL    HW1 9125   0.940   1.931  12.479
 2893SOL    HW2 9126   0.987   2.007  12.616
 2894SOL     OW 9127   0.980   2.978  12.891
 2894SOL    HW1 9128   0.881   2.984  12.901
 2894SOL    HW2 9129   1.003   2.898  12.835
 2895SOL     OW 9130   0.705   2.912  11.540
 2895SOL    HW1 9131   0.691   2.919  11.639
 2895SOL    HW2 9132   0.789   2.861  11.522
 2896SOL     OW 9133   0.410   2.675  12.423
 2896SOL    HW1 9134   0.496   2.687  12.473
 2896SOL    HW2 9135   0.368   2.588  12.450
 2897SOL     OW 9136   1.274   2.248  12.434
 2897SOL    HW1 9137   1.295   2.322  12.498
 2897SOL    HW2 9138   1.185   2.265  12.391
 2898SOL     OW 9139   0.064   3.426  12.503
 2898SOL    HW1 9140   0.018   3.508  12.469
 2898SOL    HW2 9141   0.162   3.445  12.512
 2899SOL     OW 9142   0.367   2.962  11.673
 2899SOL    HW1 9143   0.360   3.045  11.617
 2899SOL    HW2 9144   0.371   2.882  11.613
 2900SOL     OW 9145   0.566   2.399  12.037
 2900SOL    HW1 9146   0.578   2.465  11.963
 2900SOL    HW2 9147   0.612   2.433  12.120
 2901SOL     OW 9148   1.252   3.210  11.560
 2901SOL    HW1 9149   1.302   3.287  11.600
 2901SOL    HW2 9150   1.157   3.212  11.592
 2902SOL     OW 9151   1.272   3.307  12.314
 2902SOL    HW1 9152   1.319   3.320  12.401
 2902SOL    HW2 9153   1.206   3.233  12.323
 2903SOL     OW 9154   1.582   2.501  11.644
 2903SOL    HW1 9155   1.551   2.562  11.717
 2903SOL    HW2 9156   1.632   2.553  11.575
 2904SOL     OW 9157   0.354   3.372  12.501
 2904SOL    HW1 9158   0.333   3.328  12.414
 2904SOL    HW2 9159   0.451   3.398  12.504
 2905SOL     OW 9160   0.402   2.613  12.770
 2905SOL    HW1 9161   0.470   2.668  12.723
 2905SOL    HW2 9162   0.442   2.525  12.797
 2906SOL     OW 9163   1.587   2.641  12.842
 2906SOL    HW1 9164   1.495   2.679  12.837
 2906SOL    HW2 9165   1.647   2.688  12.777
 2907SOL     OW 9166   1.013   1.967  12.942
 2907SOL    HW1 9167   1.019   2.052  12.890
 2907SOL    HW2 9168   1.045   1.891  12.885
 2908SOL     OW 9169   0.504   1.912  12.912
 2908SOL    HW1 9170   0.462   1.855  12.842
 2908SOL    HW2 9171   0.438   1.981  12.944
 2909SOL     OW 9172   0.573   2.732  12.201
 2909SOL    HW1 9173   0.617   2.821  12.192
 2909SOL    HW2 9174   0.510   2.732  12.278
 2910SOL     OW 9175   1.360   2.724  12.217
 2910SOL    HW1 9176   1.285   2.724  12.151
 2910SOL    HW2 9177   1.397   2.632  12.226
 2911SOL     OW 9178   1.209   2.387  11.447
 2911SOL    HW1 9179   1.222   2.303  11.501
 2911SOL    HW2 9180   1.180   2.461  11.507
 2912SOL     OW 9181   0.307   2.075  12.403
 2912SOL    HW1 9182   0.284   2.112  12.493
 2912SOL    HW2 9183   0.277   1.980  12.397
 2913SOL     OW 9184   0.037   3.172  12.454
 2913SOL    HW1 9185   0.090   3.123  12.522
 2913SOL    HW2 9186   0.059   3.270  12.459
 2914SOL     OW 9187   0.732   2.496  12.236
 2914SOL    HW1 9188   0.791   2.470  12.160
 2914SOL    HW2 9189   0.704   2.592  12.225
 2915SOL     OW 9190   1.728   2.797  13.026
 2915SOL    HW1 9191   1.682   2.790  12.937
 2915SOL    HW2 9192   1.666   2.841  13.092
 2916SOL     OW 9193   0.307   1.925  11.790
 2916SOL    HW1 9194   0.296   2.019  11.823
 2916SOL    HW2 9195   0.302   1.862  11.867
 2917SOL     OW 9196   1.622   2.229  11.546
 2917SOL    HW1 9197   1.624   2.153  11.610
 2917SOL    HW2 9198   1.574   2.306  11.586
 2918SOL     OW 9199   1.023   2.628  12.138
 2918SOL    HW1 9200   1.038   2.649  12.234
 2918SOL    HW2 9201   0.993   2.533  12.129
 2919SOL     OW 9202   0.980   3.435  12.872
 2919SOL    HW1 9203   0.960   3.479  12.784
 2919SOL    HW2 9204   1.019   3.344  12.856
 2920SOL     OW 9205   1.859   3.380  12.777
 2920SOL    HW1 9206   1.873   3.407  12.682
 2920SOL    HW2 9207   1.942   3.402  12.830
 2921SOL     OW 9208   0.350   2.760  12.976
 2921SOL    HW1 9209   0.426   2.804  13.024
 2921SOL    HW2 9210   0.385   2.713  12.894
 2922SOL     OW 9211   1.540   2.136  11.297
 2922SOL    HW1 9212   1.479   2.061  11.320
 2922SOL    HW2 9213   1.562   2.188  11.380
 2923SOL     OW 9214   1.303   2.700  11.214
 2923SOL    HW1 9215   1.337   2.607  11.229
 2923SOL    HW2 9216   1.321   2.727  11.119
 2924SOL     OW 9217   1.068   3.195  12.021
 2924SOL    HW1 9218   1.075   3.111  11.966
 2924SOL    HW2 9219   1.130   3.264  11.985
 2925SOL     OW 9220   0.319   2.672  12.121
 2925SOL    HW1 9221   0.412   2.708  12.126
 2925SOL    HW2 9222   0.313   2.587  12.173
 2926SOL     OW 9223   0.339   2.371  12.178
 2926SOL    HW1 9224   0.287   2.288  12.161
 2926SOL    HW2 9225   0.416   2.376  12.114
 2927SOL     OW 9226   1.138   2.242  12.850
 2927SOL    HW1 9227   1.093   2.305  12.914
 2927SOL    HW2 9228   1.231   2.273  12.833
 2928SOL     OW 9229   1.160   2.069  12.649
 2928SOL    HW1 9230   1.160   2.133  12.726
 2928SOL    HW2 9231   1.188   2.117  12.566
 2929SOL     OW 9232   0.008   3.188  11.372
 2929SOL    HW1 9233  -0.085   3.209  11.341
 2929SOL    HW2 9234   0.018   3.089  11.385
 2930SOL     OW 9235   0.088   3.663  12.099
 2930SOL    HW1 9236   0.046   3.577  12.072
 2930SOL    HW2 9237   0.182   3.666  12.065
 2931SOL     OW 9238   0.504   3.430  12.082
 2931SOL    HW1 9239   0.570   3.504  12.091
 2931SOL    HW2 9240   0.548   3.351  12.040
 2932SOL     OW 9241   1.002   2.658  12.410
 2932SOL    HW1 9242   1.043   2.626  12.496
 2932SOL    HW2 9243   0.906   2.631  12.407
 2933SOL     OW 9244   0.040   2.406  12.286
 2933SOL    HW1 9245   0.125   2.373  12.245
 2933SOL    HW2 9246   0.053   2.421  12.384
 2934SOL     OW 9247   0.189   2.382  12.894
 2934SOL    HW1 9248   0.248   2.342  12.824
 2934SOL    HW2 9249   0.131   2.453  12.853
 2935SOL     OW 9250   1.369   2.812  12.832
 2935SOL    HW1 9251   1.408   2.901  12.852
 2935SOL    HW2 9252   1.379   2.792  12.735
 2936SOL     OW 9253   0.815   2.434  11.497
 2936SOL    HW1 9254   0.822   2.345  11.451
 2936SOL    HW2 9255   0.721   2.468  11.489
 2937SOL     OW 9256   1.657   2.466  12.378
 2937SOL    HW1 9257   1.619   2.397  12.440
 2937SOL    HW2 9258   1.739   2.430  12.334
 2938SOL     OW 9259   0.252   3.426  12.916
 2938SOL    HW1 9260   0.222   3.483  12.992
 2938SOL    HW2 9261   0.245   3.329  12.942
 2939SOL     OW 9262   0.671   2.326  12.441
 2939SOL    HW1 9263   0.637   2.237  12.411
 2939SOL    HW2 9264   0.697   2.380  12.361
 2940SOL     OW 9265   0.930   3.540  12.637
 2940SOL    HW1 9266   0.906   3.522  12.542
 2940SOL    HW2 9267   0.960   3.634  12.647
 2941SOL     OW 9268   0.473   2.362  11.363
 2941SOL    HW1 9269   0.534   2.442  11.367
 2941SOL    HW2 9270   0.378   2.393  11.370
 2942SOL     OW 9271   0.159   2.999  12.638
 2942SOL    HW1 9272   0.181   2.938  12.714
 2942SOL    HW2 9273   0.169   2.950  12.552
 2943SOL     OW 9274   1.347   2.921  12.406
 2943SOL    HW1 9275   1.371   2.858  12.332
 2943SOL    HW2 9276   1.257   2.961  12.388
 2944SOL     OW 9277   1.302   2.717  11.481
 2944SOL    HW1 9278   1.216   2.686  11.523
 2944SOL    HW2 9279   1.298   2.703  11.382
 2945SOL     OW 9280   1.759   3.609  12.326
 2945SOL    HW1 9281   1.820   3.639  12.253
 2945SOL    HW2 9282   1.721   3.520  12.304
 2946SOL     OW 9283   1.252   3.593  12.300
 2946SOL    HW1 9284   1.336   3.598  12.246
 2946SOL    HW2 9285   1.229   3.497  12.318
 2947SOL     OW 9286   0.083   3.120  12.194
 2947SOL    HW1 9287   0.078   3.119  12.294
 2947SOL    HW2 9288   0.000   3.079  12.156
 2948SOL     OW 9289   0.688   3.524  12.888
 2948SOL    HW1 9290   0.632   3.605  12.897
 2948SOL    HW2 9291   0.740   3.528  12.802
 2949SOL     OW 9292   1.388   3.435  11.649
 2949SOL    HW1 9293   1.455   3.447  11.575
 2949SOL    HW2 9294   1.348   3.524  11.672
 2950SOL     OW 9295   0.130   3.656  13.023
 2950SOL    HW1 9296   0.089   3.582  13.076
 2950SOL    HW2 9297   0.194   3.707  13.081
 2951SOL     OW 9298   1.280   2.789  11.844
 2951SOL    HW1 9299   1.340   2.708  11.846
 2951SOL    HW2 9300   1.320   2.858  11.784
 2952SOL     OW 9301   0.830   3.135  12.594
 2952SOL    HW1 9302   0.825   3.168  12.689
 2952SOL    HW2 9303   0.744   3.154  12.548
 2953SOL     OW 9304   0.672   3.478  11.326
 2953SOL    HW1 9305   0.681   3.488  11.227
 2953SOL    HW2 9306   0.632   3.389  11.347
 2954SOL     OW 9307   1.650   3.582  12.566
 2954SOL    HW1 9308   1.703   3.592  12.482
 2954SOL    HW2 9309   1.623   3.672  12.600
 2955SOL     OW 9310   0.263   2.188  11.892
 2955SOL    HW1 9311   0.184   2.239  11.858
 2955SOL    HW2 9312   0.254   2.173  11.990
 2956SOL     OW 9313   1.194   3.474  11.203
 2956SOL    HW1 9314   1.200   3.381  11.240
 2956SOL    HW2 9315   1.135   3.474  11.123
 2957SOL     OW 9316   0.822   2.864  12.544
 2957SOL    HW1 9317   0.862   2.863  12.452
 2957SOL    HW2 9318   0.832   2.956  12.584
 2958SOL     OW 9319   0.916   2.772  11.463
 2958SOL    HW1 9320   0.979   2.810  11.395
 2958SOL    HW2 9321   0.956   2.689  11.502
 2959SOL     OW 9322   1.504   3.469  11.216
 2959SOL    HW1 9323   1.412   3.506  11.223
 2959SOL    HW2 9324   1.542   3.489  11.126
 2960SOL     OW 9325   0.372   3.150  12.662
 2960SOL    HW1 9326   0.359   3.243  12.628
 2960SOL    HW2 9327   0.288   3.098  12.649
 2961SOL     OW 9328   1.614   3.154  12.461
 2961SOL    HW1 9329   1.674   3.157  12.541
 2961SOL    HW2 9330   1.539   3.218  12.474
 2962SOL     OW 9331   1.039   2.960  11.868
 2962SOL    HW1 9332   0.969   2.913  11.922
 2962SOL    HW2 9333   1.098   2.892  11.825
 2963SOL     OW 9334   1.014   2.098  12.143
 2963SOL    HW1 9335   1.006   2.062  12.050
 2963SOL    HW2 9336   1.012   2.022  12.208
 2964SOL     OW 9337   0.590   3.349  11.663
 2964SOL    HW1 9338   0.632   3.291  11.593
 2964SOL    HW2 9339   0.546   3.428  11.619
 2965SOL     OW 9340   1.709   2.247  12.553
 2965SOL    HW1 9341   1.782   2.316  12.557
 2965SOL    HW2 9342   1.737   2.172  12.494
 2966SOL     OW 9343   0.255   3.210  11.462
 2966SOL    HW1 9344   0.159   3.211  11.435
 2966SOL    HW2 9345   0.267   3.263  11.546
 2967SOL     OW 9346   0.105   2.875  12.898
 2967SOL    HW1 9347   0.028   2.842  12.952
 2967SOL    HW2 9348   0.190   2.845  12.940
 2968SOL     OW 9349   0.672   2.065  12.661
 2968SOL    HW1 9350   0.762   2.049  12.621
 2968SOL    HW2 9351   0.680   2.070  12.760
 2969SOL     OW 9352   0.075   2.207  11.205
 2969SOL    HW1 9353  -0.017   2.179  11.176
 2969SOL    HW2 9354   0.106   2.284  11.149
 2970SOL     OW 9355   1.440   2.718  12.570
 2970SOL    HW1 9356   1.383   2.770  12.507
 2970SOL    HW2 9357   1.536   2.730  12.546
 2971SOL     OW 9358   0.072   2.028  11.490
 2971SOL    HW1 9359   0.055   2.111  11.436
 2971SOL    HW2 9360   0.162   1.991  11.468
 2972SOL     OW 9361   1.183   3.197  11.291
 2972SOL    HW1 9362   1.084   3.186  11.293
 2972SOL    HW2 9363   1.217   3.212  11.384
 2973SOL     OW 9364   0.613   2.704  12.603
 2973SOL    HW1 9365   0.669   2.785  12.586
 2973SOL    HW2 9366   0.672   2.624  12.606
 2974SOL     OW 9367   1.493   3.629  12.131
 2974SOL    HW1 9368   1.526   3.693  12.062
 2974SOL    HW2 9369   1.559   3.623  12.206
 2975SOL     OW 9370   0.716   2.427  12.880
 2975SOL    HW1 9371   0.735   2.492  12.954
 2975SOL    HW2 9372   0.776   2.347  12.889
 2976SOL     OW 9373   1.450   3.082  12.805
 2976SOL    HW1 9374   1.441   3.072  12.904
 2976SOL    HW2 9375   1.546   3.075  12.779
 2977SOL     OW 9376   0.390   3.603  12.732
 2977SOL    HW1 9377   0.299   3.644  12.730
 2977SOL    HW2 9378   0.383   3.509  12.764
 2978SOL     OW 9379   1.674   2.745  12.426
 2978SOL    HW1 9380   1.647   2.656  12.389
 2978SOL    HW2 9381   1.675   2.813  12.353
 2979SOL     OW 9382   1.225   2.187  11.621
 2979SOL    HW1 9383   1.290   2.113  11.610
 2979SOL    HW2 9384   1.245   2.237  11.705
 2980SOL     OW 9385   0.594   2.607  11.824
 2980SOL    HW1 9386   0.644   2.692  11.805
 2980SOL    HW2 9387   0.506   2.609  11.776
 2981SOL     OW 9388   1.777   2.204  12.814
 2981SOL    HW1 9389   1.760   2.235  12.720
 2981SOL    HW2 9390   1.693   2.167  12.852
 2982SOL     OW 9391   1.730   2.796  12.689
 2982SOL    HW1 9392   1.768   2.887  12.704
 2982SOL    HW2 9393   1.722   2.779  12.590
 2983SOL     OW 9394   0.859   3.236  11.188
 2983SOL    HW1 9395   0.813   3.251  11.276
 2983SOL    HW2 9396   0.903   3.321  11.158
 2984SOL     OW 9397   0.661   3.652  12.125
 2984SOL    HW1 9398   0.615   3.740  12.112
 2984SOL    HW2 9399   0.760   3.664  12.118
 2985SOL     OW 9400   0.859   2.818  12.033
 2985SOL    HW1 9401   0.913   2.749  12.081
 2985SOL    HW2 9402   0.827   2.887  12.099
 2986SOL     OW 9403   1.083   2.846  11.259
 2986SOL    HW1 9404   1.060   2.899  11.177
 2986SOL    HW2 9405   1.164   2.790  11.240
 2987SOL     OW 9406   1.861   3.431  12.023
 2987SOL    HW1 9407   1.790   3.419  11.953
 2987SOL    HW2 9408   1.862   3.352  12.083
 2988SOL     OW 9409   0.221   3.176  13.016
 2988SOL    HW1 9410   0.156   3.103  12.995
 2988SOL    HW2 9411   0.225   3.190  13.114
 2989SOL     OW 9412   0.079   3.102  11.825
 2989SOL    HW1 9413   0.078   3.055  11.913
 2989SOL    HW2 9414   0.161   3.074  11.774
 2990SOL     OW 9415   0.672   3.253  12.796
 2990SOL    HW1 9416   0.594   3.203  12.834
 2990SOL    HW2 9417   0.669   3.348  12.827
 2991SOL     OW 9418   0.428   2.286  11.692
 2991SOL    HW1 9419   0.458   2.214  11.630
 2991SOL    HW2 9420   0.389   2.246  11.775
 2992SOL     OW 9421   1.705   3.349  12.276
 2992SOL    HW1 9422   1.612   3.324  12.249
 2992SOL    HW2 9423   1.731   3.299  12.358
 2993SOL     OW 9424   0.317   2.409  12.452
 2993SOL    HW1 9425   0.355   2.350  12.524
 2993SOL    HW2 9426   0.357   2.383  12.364
 2994SOL     OW 9427   0.812   3.448  11.859
 2994SOL    HW1 9428   0.844   3.458  11.765
 2994SOL    HW2 9429   0.733   3.386  11.861
 2995SOL     OW 9430   1.424   2.076  12.284
 2995SOL    HW1 9431   1.476   2.011  12.339
 2995SOL    HW2 9432   1.375   2.139  12.345
 2996SOL     OW 9433   1.001   1.896  12.326
 2996SOL    HW1 9434   0.938   1.824  12.295
 2996SOL    HW2 9435   1.094   1.860  12.326
 2997SOL     OW 9436   0.770   3.192  11.473
 2997SOL    HW1 9437   0.724   3.105  11.490
 2997SOL    HW2 9438   0.861   3.189  11.514
 2998SOL     OW 9439   0.618   3.429  12.456
 2998SOL    HW1 9440   0.613   3.511  12.513
 2998SOL    HW2 9441   0.707   3.426  12.411
 2999SOL     OW 9442   1.352   1.914  11.340
 2999SOL    HW1 9443   1.387   1.873  11.256
 2999SOL    HW2 9444   1.262   1.876  11.360
 3000SOL     OW 9445   1.300   2.315  11.863
 3000SOL    HW1 9446   1.241   2.395  11.867
 3000SOL    HW2 9447   1.315   2.280  11.956
 3001SOL     OW 9448   1.593   2.083  12.054
 3001SOL    HW1 9449   1.509   2.082  12.108
 3001SOL    HW2 9450   1.595   2.166  11.998
 3002SOL     OW 9451   0.039   2.939  11.472
 3002SOL    HW1 9452   0.138   2.928  11.463
 3002SOL    HW2 9453  -0.001   2.853  11.504
 3003SOL     OW 9454   0.875   3.508  11.509
 3003SOL    HW1 9455   0.798   3.473  11.455
 3003SOL    HW2 9456   0.843   3.579  11.571
 3004SOL     OW 9457   0.230   2.490  13.147
 3004SOL    HW1 9458   0.137   2.488  13.184
 3004SOL    HW2 9459   0.231   2.451  13.055
 3005SOL     OW 9460   0.225   2.137  14.030
 3005SOL    HW1 9461   0.260   2.120  14.122
 3005SOL    HW2 9462   0.137   2.092  14.018
 3006SOL     OW 9463   0.019   2.230  13.681
 3006SOL    HW1 9464  -0.063   2.273  13.720
 3006SOL    HW2 9465  -0.009   2.157  13.618
 3007SOL     OW 9466   1.555   3.373  13.737
 3007SOL    HW1 9467   1.498   3.357  13.818
 3007SOL    HW2 9468   1.496   3.383  13.657
 3008SOL     OW 9469   1.135   2.565  13.751
 3008SOL    HW1 9470   1.192   2.643  13.726
 3008SOL    HW2 9471   1.075   2.591  13.827
 3009SOL     OW 9472   1.755   2.469  13.265
 3009SOL    HW1 9473   1.743   2.456  13.166
 3009SOL    HW2 9474   1.725   2.388  13.314
 3010SOL     OW 9475   0.685   2.874  13.699
 3010SOL    HW1 9476   0.754   2.858  13.769
 3010SOL    HW2 9477   0.612   2.931  13.737
 3011SOL     OW 9478   1.603   2.309  13.771
 3011SOL    HW1 9479   1.529   2.355  13.721
 3011SOL    HW2 9480   1.654   2.377  13.824
 3012SOL     OW 9481   0.231   3.575  13.517
 3012SOL    HW1 9482   0.265   3.652  13.571
 3012SOL    HW2 9483   0.275   3.575  13.427
 3013SOL     OW 9484   0.230   3.296  13.572
 3013SOL    HW1 9485   0.204   3.392  13.572
 3013SOL    HW2 9486   0.159   3.242  13.617
 3014SOL     OW 9487   0.240   2.953  13.920
 3014SOL    HW1 9488   0.254   2.869  13.972
 3014SOL    HW2 9489   0.185   3.017  13.975
 3015SOL     OW 9490   0.606   2.826  13.157
 3015SOL    HW1 9491   0.613   2.910  13.103
 3015SOL    HW2 9492   0.652   2.839  13.245
 3016SOL     OW 9493   0.122   2.505  13.597
 3016SOL    HW1 9494   0.077   2.417  13.614
 3016SOL    HW2 9495   0.121   2.559  13.681
 3017SOL     OW 9496   1.842   3.629  13.393
 3017SOL    HW1 9497   1.896   3.600  13.473
 3017SOL    HW2 9498   1.872   3.719  13.364
 3018SOL     OW 9499   0.027   3.458  13.151
 3018SOL    HW1 9500   0.008   3.362  13.172
 3018SOL    HW2 9501  -0.006   3.516  13.226
 3019SOL     OW 9502   1.689   2.784  13.646
 3019SOL    HW1 9503   1.784   2.755  13.654
 3019SOL    HW2 9504   1.681   2.849  13.571
 3020SOL     OW 9505   1.641   2.970  13.466
 3020SOL    HW1 9506   1.727   2.972  13.414
 3020SOL    HW2 9507   1.655   3.017  13.554
 3021SOL     OW 9508   0.613   3.227  13.760
 3021SOL    HW1 9509   0.564   3.140  13.769
 3021SOL    HW2 9510   0.590   3.270  13.673
 3022SOL     OW 9511   0.809   1.866  13.536
 3022SOL    HW1 9512   0.849   1.957  13.527
 3022SOL    HW2 9513   0.709   1.874  13.542
 3023SOL     OW 9514   1.525   2.861  13.224
 3023SOL    HW1 9515   1.462   2.785  13.237
 3023SOL    HW2 9516   1.573   2.879  13.310
 3024SOL     OW 9517   1.667   3.576  13.606
 3024SOL    HW1 9518   1.626   3.553  13.518
 3024SOL    HW2 9519   1.649   3.502  13.671
 3025SOL     OW 9520   0.598   2.591  13.304
 3025SOL    HW1 9521   0.622   2.660  13.236
 3025SOL    HW2 9522   0.520   2.624  13.358
 3026SOL     OW 9523   1.281   2.207  13.978
 3026SOL    HW1 9524   1.195   2.157  13.965
 3026SOL    HW2 9525   1.343   2.153  14.034
 3027SOL     OW 9526   1.576   3.524  13.341
 3027SOL    HW1 9527   1.665   3.570  13.344
 3027SOL    HW2 9528   1.555   3.500  13.246
 3028SOL     OW 9529   1.041   2.563  13.463
 3028SOL    HW1 9530   1.067   2.559  13.559
 3028SOL    HW2 9531   0.956   2.512  13.449
 3029SOL     OW 9532   0.076   2.673  13.823
 3029SOL    HW1 9533   0.175   2.661  13.832
 3029SOL    HW2 9534   0.052   2.768  13.844
 3030SOL     OW 9535   0.865   2.210  13.229
 3030SOL    HW1 9536   0.924   2.273  13.180
 3030SOL    HW2 9537   0.884   2.116  13.200
 3031SOL     OW 9538   1.362   3.006  13.579
 3031SOL    HW1 9539   1.445   2.977  13.531
 3031SOL    HW2 9540   1.313   3.073  13.523
 3032SOL     OW 9541   1.008   3.318  13.511
 3032SOL    HW1 9542   0.962   3.390  13.459
 3032SOL    HW2 9543   1.004   3.338  13.609
 3033SOL     OW 9544   0.351   3.663  13.887
 3033SOL    HW1 9545   0.401   3.577  13.893
 3033SOL    HW2 9546   0.416   3.740  13.884
 3034SOL     OW 9547   1.795   2.928  13.907
 3034SOL    HW1 9548   1.733   2.913  13.831
 3034SOL    HW2 9549   1.743   2.939  13.992
 3035SOL     OW 9550   0.321   2.805  13.276
 3035SOL    HW1 9551   0.403   2.844  13.234
 3035SOL    HW2 9552   0.294   2.723  13.227
 3036SOL     OW 9553   1.458   2.597  13.762
 3036SOL    HW1 9554   1.453   2.532  13.837
 3036SOL    HW2 9555   1.538   2.656  13.775
 3037SOL     OW 9556   1.111   3.638  13.271
 3037SOL    HW1 9557   1.051   3.576  13.321
 3037SOL    HW2 9558   1.142   3.594  13.186
 3038SOL     OW 9559   1.632   3.239  13.115
 3038SOL    HW1 9560   1.600   3.333  13.105
 3038SOL    HW2 9561   1.556   3.176  13.103
 3039SOL     OW 9562   0.464   3.605  13.357
 3039SOL    HW1 9563   0.497   3.644  13.443
 3039SOL    HW2 9564   0.540   3.598  13.292
 3040SOL     OW 9565   1.400   1.969  13.460
 3040SOL    HW1 9566   1.376   1.932  13.370
 3040SOL    HW2 9567   1.499   1.985  13.464
 3041SOL     OW 9568   0.940   3.560  13.938
 3041SOL    HW1 9569   1.020   3.503  13.959
 3041SOL    HW2 9570   0.891   3.520  13.861
 3042SOL     OW 9571   0.382   2.562  13.514
 3042SOL    HW1 9572   0.427   2.472  13.511
 3042SOL    HW2 9573   0.288   2.551  13.547
 3043SOL     OW 9574   0.614   1.984  13.151
 3043SOL    HW1 9575   0.712   1.962  13.158
 3043SOL    HW2 9576   0.583   1.967  13.058
 3044SOL     OW 9577   0.539   1.926  13.546
 3044SOL    HW1 9578   0.458   1.927  13.604
 3044SOL    HW2 9579   0.542   2.009  13.491
 3045SOL     OW 9580   1.434   3.050  13.075
 3045SOL    HW1 9581   1.466   2.974  13.132
 3045SOL    HW2 9582   1.342   3.077  13.105
 3046SOL     OW 9583   0.297   1.897  13.205
 3046SOL    HW1 9584   0.346   1.981  13.184
 3046SOL    HW2 9585   0.359   1.832  13.250
 3047SOL     OW 9586   0.935   2.098  13.514
 3047SOL    HW1 9587   0.887   2.139  13.436
 3047SOL    HW2 9588   1.034   2.096  13.495
 3048SOL     OW 9589   0.459   3.014  13.775
 3048SOL    HW1 9590   0.388   2.987  13.840
 3048SOL    HW2 9591   0.433   2.986  13.682
 3049SOL     OW 9592   1.271   3.659  13.625
 3049SOL    HW1 9593   1.315   3.723  13.561
 3049SOL    HW2 9594   1.221   3.711  13.695
 3050SOL     OW 9595   1.032   2.411  13.050
 3050SOL    HW1 9596   0.991   2.493  13.011
 3050SOL    HW2 9597   1.096   2.437  13.123
 3051SOL     OW 9598   0.866   2.316  13.676
 3051SOL    HW1 9599   0.834   2.388  13.614
 3051SOL    HW2 9600   0.890   2.235  13.623
 3052SOL     OW 9601   1.017   1.901  13.787
 3052SOL    HW1 9602   0.945   1.906  13.718
 3052SOL    HW2 9603   0.993   1.832  13.856
 3053SOL     OW 9604   1.857   2.695  13.411
 3053SOL    HW1 9605   1.899   2.631  13.475
 3053SOL    HW2 9606   1.819   2.644  13.333
 3054SOL     OW 9607   0.488   3.247  13.208
 3054SOL    HW1 9608   0.401   3.232  13.255
 3054SOL    HW2 9609   0.471   3.273  13.113
 3055SOL     OW 9610   1.664   3.142  13.691
 3055SOL    HW1 9611   1.763   3.150  13.705
 3055SOL    HW2 9612   1.619   3.226  13.722
 3056SOL     OW 9613   1.390   2.437  13.112
 3056SOL    HW1 9614   1.336   2.416  13.193
 3056SOL    HW2 9615   1.481   2.396  13.121
 3057SOL     OW 9616   0.527   2.118  13.362
 3057SOL    HW1 9617   0.554   2.059  13.287
 3057SOL    HW2 9618   0.527   2.213  13.331
 3058SOL     OW 9619   0.705   2.912  13.402
 3058SOL    HW1 9620   0.691   2.919  13.501
 3058SOL    HW2 9621   0.789   2.861  13.384
 3059SOL     OW 9622   0.367   2.962  13.535
 3059SOL    HW1 9623   0.360   3.045  13.479
 3059SOL    HW2 9624   0.371   2.882  13.475
 3060SOL     OW 9625   0.566   2.399  13.899
 3060SOL    HW1 9626   0.578   2.465  13.825
 3060SOL    HW2 9627   0.612   2.433  13.982
 3061SOL     OW 9628   1.252   3.210  13.422
 3061SOL    HW1 9629   1.302   3.287  13.462
 3061SOL    HW2 9630   1.157   3.212  13.454
 3062SOL     OW 9631   1.582   2.501  13.506
 3062SOL    HW1 9632   1.551   2.562  13.579
 3062SOL    HW2 9633   1.632   2.553  13.437
 3063SOL     OW 9634   1.209   2.387  13.309
 3063SOL    HW1 9635   1.222   2.303  13.363
 3063SOL    HW2 9636   1.180   2.461  13.369
 3064SOL     OW 9637   0.307   1.925  13.652
 3064SOL    HW1 9638   0.296   2.019  13.685
 3064SOL    HW2 9639   0.302   1.862  13.729
 3065SOL     OW 9640   1.622   2.229  13.408
 3065SOL    HW1 9641   1.624   2.153  13.472
 3065SOL    HW2 9642   1.574   2.306  13.448
 3066SOL     OW 9643   1.540   2.136  13.159
 3066SOL    HW1 9644   1.479   2.061  13.182
 3066SOL    HW2 9645   1.562   2.188  13.242
 3067SOL     OW 9646   1.303   2.700  13.076
 3067SOL    HW1 9647   1.337   2.607  13.091
 3067SOL    HW2 9648   1.321   2.727  12.981
 3068SOL     OW 9649   0.008   3.188  13.234
 3068SOL    HW1 9650  -0.085   3.209  13.203
 3068SOL    HW2 9651   0.018   3.089  13.247
 3069SOL     OW 9652   0.815   2.434  13.359
 3069SOL    HW1 9653   0.822   2.345  13.313
 3069SOL    HW2 9654   0.721   2.468  13.351
 3070SOL     OW 9655   0.473   2.362  13.225
 3070SOL    HW1 9656   0.534   2.442  13.229
 3070SOL    HW2 9657   0.378   2.393  13.232
 3071SOL     OW 9658   1.302   2.717  13.343
 3071SOL    HW1 9659   1.216   2.686  13.385
 3071SOL    HW2 9660   1.298   2.703  13.244
 3072SOL     OW 9661   1.388   3.435  13.511
 3072SOL    HW1 9662   1.455   3.447  13.437
 3072SOL    HW2 9663   1.348   3.524  13.534
 3073SOL     OW 9664   1.280   2.789  13.706
 3073SOL    HW1 9665   1.340   2.708  13.708
 3073SOL    HW2 9666   1.320   2.858  13.646
 3074SOL     OW 9667   0.672   3.478  13.188
 3074SOL    HW1 9668   0.681   3.488  13.089
 3074SOL    HW2 9669   0.632   3.389  13.209
 3075SOL     OW 9670   0.263   2.188  13.754
 3075SOL    HW1 9671   0.184   2.239  13.720
 3075SOL    HW2 9672   0.254   2.173  13.852
 3076SOL     OW 9673   1.194   3.474  13.065
 3076SOL    HW1 9674   1.200   3.381  13.102
 3076SOL    HW2 9675   1.135   3.474  12.985
 3077SOL     OW 9676   0.916   2.772  13.325
 3077SOL    HW1 9677   0.979   2.810  13.257
 3077SOL    HW2 9678   0.956   2.689  13.364
 3078SOL     OW 9679   1.504   3.469  13.078
 3078SOL    HW1 9680   1.412   3.506  13.085
 3078SOL    HW2 9681   1.542   3.489  12.988
 3079SOL     OW 9682   1.039   2.960  13.730
 3079SOL    HW1 9683   0.969   2.913  13.784
 3079SOL    HW2 9684   1.098   2.892  13.687
 3080SOL     OW 9685   0.590   3.349  13.525
 3080SOL    HW1 9686   0.632   3.291  13.455
 3080SOL    HW2 9687   0.546   3.428  13.481
 3081SOL     OW 9688   0.255   3.210  13.324
 3081SOL    HW1 9689   0.159   3.211  13.297
 3081SOL    HW2 9690   0.267   3.263  13.408
 3082SOL     OW 9691   0.075   2.207  13.067
 3082SOL    HW1 9692  -0.017   2.179  13.038
 3082SOL    HW2 9693   0.106   2.284  13.011
 3083SOL     OW 9694   0.072   2.028  13.352
 3083SOL    HW1 9695   0.055   2.111  13.298
 3083SOL    HW2 9696   0.162   1.991  13.330
 3084SOL     OW 9697   1.183   3.197  13.153
 3084SOL    HW1 9698   1.084   3.186  13.155
 3084SOL    HW2 9699   1.217   3.212  13.246
 3085SOL     OW 9700   1.225   2.187  13.483
 3085SOL    HW1 9701   1.290   2.113  13.472
 3085SOL    HW2 9702   1.245   2.237  13.567
 3086SOL     OW 9703   0.594   2.607  13.686
 3086SOL    HW1 9704   0.644   2.692  13.667
 3086SOL    HW2 9705   0.506   2.609  13.638
 3087SOL     OW 9706   0.859   3.236  13.050
 3087SOL    HW1 9707   0.813   3.251  13.138
 3087SOL    HW2 9708   0.903   3.321  13.020
 3088SOL     OW 9709   0.661   3.652  13.987
 3088SOL    HW1 9710   0.615   3.740  13.974
 3088SOL    HW2 9711   0.760   3.664  13.980
 3089SOL     OW 9712   0.859   2.818  13.895
 3089SOL    HW1 9713   0.913   2.749  13.943
 3089SOL    HW2 9714   0.827   2.887  13.961
 3090SOL     OW 9715   1.083   2.846  13.121
 3090SOL    HW1 9716   1.060   2.899  13.039
 3090SOL    HW2 9717   1.164   2.790  13.102
 3091SOL     OW 9718   0.079   3.102  13.687
 3091SOL    HW1 9719   0.078   3.055  13.775
 3091SOL    HW2 9720   0.161   3.074  13.636
 3092SOL     OW 9721   0.428   2.286  13.554
 3092SOL    HW1 9722   0.458   2.214  13.492
 3092SOL    HW2 9723   0.389   2.246  13.637
 3093SOL     OW 9724   1.705   3.349  14.138
 3093SOL    HW1 9725   1.612   3.324  14.111
 3093SOL    HW2 9726   1.731   3.299  14.220
 3094SOL     OW 9727   0.812   3.448  13.721
 3094SOL    HW1 9728   0.844   3.458  13.627
 3094SOL    HW2 9729   0.733   3.386  13.723
 3095SOL     OW 9730   0.770   3.192  13.335
 3095SOL    HW1 9731   0.724   3.105  13.352
 3095SOL    HW2 9732   0.861   3.189  13.376
 3096SOL     OW 9733   1.352   1.914  13.202
 3096SOL    HW1 9734   1.387   1.873  13.118
 3096SOL    HW2 9735   1.262   1.876  13.222
 3097SOL     OW 9736   1.300   2.315  13.725
 3097SOL    HW1 9737   1.241   2.395  13.729
 3097SOL    HW2 9738   1.315   2.280  13.818
 3098SOL     OW 9739   0.039   2.939  13.334
 3098SOL    HW1 9740   0.138   2.928  13.325
 3098SOL    HW2 9741  -0.001   2.853  13.366
 3099SOL     OW 9742   0.875   3.508  13.371
 3099SOL    HW1 9743   0.798   3.473  13.317
 3099SOL    HW2 9744   0.843   3.579  13.433
 3100SOL     OW 9745   0.225   3.999   0.996
 3100SOL    HW1 9746   0.260   3.982   1.088
 3100SOL    HW2 9747   0.137   3.954   0.984
 3101SOL     OW 9748   0.019   4.092   0.647
 3101SOL    HW1 9749  -0.063   4.135   0.686
 3101SOL    HW2 9750  -0.009   4.019   0.584
 3102SOL     OW 9751   1.755   4.331   0.231
 3102SOL    HW1 9752   1.743   4.318   0.132
 3102SOL    HW2 9753   1.725   4.250   0.280
 3103SOL     OW 9754   0.438   4.116   1.499
 3103SOL    HW1 9755   0.520   4.060   1.508
 3103SOL    HW2 9756   0.357   4.058   1.503
 3104SOL     OW 9757   1.594   3.838   1.480
 3104SOL    HW1 9758   1.576   3.905   1.408
 3104SOL    HW2 9759   1.591   3.884   1.569
 3105SOL     OW 9760   0.809   3.728   0.502
 3105SOL    HW1 9761   0.849   3.819   0.493
 3105SOL    HW2 9762   0.709   3.736   0.508
 3106SOL     OW 9763   1.281   4.069   0.944
 3106SOL    HW1 9764   1.195   4.019   0.931
 3106SOL    HW2 9765   1.343   4.015   1.000
 3107SOL     OW 9766   0.550   3.920   0.885
 3107SOL    HW1 9767   0.545   3.915   0.985
 3107SOL    HW2 9768   0.552   4.016   0.856
 3108SOL     OW 9769   0.202   4.009   1.498
 3108SOL    HW1 9770   0.122   4.069   1.485
 3108SOL    HW2 9771   0.192   3.960   1.584
 3109SOL     OW 9772   1.400   3.831   0.426
 3109SOL    HW1 9773   1.376   3.794   0.336
 3109SOL    HW2 9774   1.499   3.847   0.430
 3110SOL     OW 9775   1.547   3.946   1.729
 3110SOL    HW1 9776   1.542   3.983   1.821
 3110SOL    HW2 9777   1.475   3.877   1.717
 3111SOL     OW 9778   0.781   3.988   1.749
 3111SOL    HW1 9779   0.848   3.927   1.792
 3111SOL    HW2 9780   0.708   4.007   1.814
 3112SOL     OW 9781   0.539   3.788   0.512
 3112SOL    HW1 9782   0.458   3.789   0.570
 3112SOL    HW2 9783   0.542   3.871   0.457
 3113SOL     OW 9784   0.297   3.759   0.171
 3113SOL    HW1 9785   0.346   3.843   0.150
 3113SOL    HW2 9786   0.359   3.694   0.216
 3114SOL     OW 9787   0.561   3.946   1.147
 3114SOL    HW1 9788   0.599   3.862   1.184
 3114SOL    HW2 9789   0.473   3.965   1.191
 3115SOL     OW 9790   1.017   3.763   0.753
 3115SOL    HW1 9791   0.945   3.768   0.684
 3115SOL    HW2 9792   0.993   3.694   0.822
 3116SOL     OW 9793   0.915   3.813   1.402
 3116SOL    HW1 9794   0.940   3.793   1.307
 3116SOL    HW2 9795   0.987   3.869   1.444
 3117SOL     OW 9796   1.274   4.110   1.262
 3117SOL    HW1 9797   1.295   4.184   1.326
 3117SOL    HW2 9798   1.185   4.127   1.219
 3118SOL     OW 9799   0.504   3.774   1.740
 3118SOL    HW1 9800   0.462   3.717   1.670
 3118SOL    HW2 9801   0.438   3.843   1.772
 3119SOL     OW 9802   0.307   3.937   1.231
 3119SOL    HW1 9803   0.284   3.974   1.321
 3119SOL    HW2 9804   0.277   3.842   1.225
 3120SOL     OW 9805   1.540   3.998   0.125
 3120SOL    HW1 9806   1.479   3.923   0.148
 3120SOL    HW2 9807   1.562   4.050   0.208
 3121SOL     OW 9808   1.160   3.931   1.477
 3121SOL    HW1 9809   1.160   3.995   1.554
 3121SOL    HW2 9810   1.188   3.979   1.394
 3122SOL     OW 9811   0.903   3.810   0.133
 3122SOL    HW1 9812   0.954   3.811   0.047
 3122SOL    HW2 9813   0.959   3.768   0.204
 3123SOL     OW 9814   1.726   3.859   0.523
 3123SOL    HW1 9815   1.799   3.842   0.456
 3123SOL    HW2 9816   1.695   3.772   0.561
 3124SOL     OW 9817   1.841   3.899   0.963
 3124SOL    HW1 9818   1.880   3.814   0.927
 3124SOL    HW2 9819   1.743   3.901   0.944
 3125SOL     OW 9820   0.672   3.927   1.489
 3125SOL    HW1 9821   0.762   3.911   1.449
 3125SOL    HW2 9822   0.680   3.932   1.588
 3126SOL     OW 9823   0.075   4.069   0.033
 3126SOL    HW1 9824  -0.017   4.041   0.004
 3126SOL    HW2 9825   0.106   4.146  -0.023
 3127SOL     OW 9826   0.072   3.890   0.318
 3127SOL    HW1 9827   0.055   3.973   0.264
 3127SOL    HW2 9828   0.162   3.853   0.296
 3128SOL     OW 9829   1.225   4.049   0.449
 3128SOL    HW1 9830   1.290   3.975   0.438
 3128SOL    HW2 9831   1.245   4.099   0.533
 3129SOL     OW 9832   1.777   4.066   1.642
 3129SOL    HW1 9833   1.760   4.097   1.548
 3129SOL    HW2 9834   1.693   4.029   1.680
 3130SOL     OW 9835   1.824   3.916   1.227
 3130SOL    HW1 9836   1.820   3.826   1.271
 3130SOL    HW2 9837   1.827   3.905   1.128
 3131SOL     OW 9838   1.424   3.938   1.112
 3131SOL    HW1 9839   1.476   3.873   1.167
 3131SOL    HW2 9840   1.375   4.001   1.173
 3132SOL     OW 9841   1.001   3.758   1.154
 3132SOL    HW1 9842   0.938   3.686   1.123
 3132SOL    HW2 9843   1.094   3.722   1.154
 3133SOL     OW 9844   1.352   3.776   0.168
 3133SOL    HW1 9845   1.387   3.735   0.084
 3133SOL    HW2 9846   1.262   3.738   0.188
 3134SOL     OW 9847   1.300   4.177   0.691
 3134SOL    HW1 9848   1.241   4.257   0.695
 3134SOL    HW2 9849   1.315   4.142   0.784
 3135SOL     OW 9850   1.593   3.945   0.882
 3135SOL    HW1 9851   1.509   3.944   0.936
 3135SOL    HW2 9852   1.595   4.028   0.826
 3136SOL     OW 9853   0.225   3.999   2.858
 3136SOL    HW1 9854   0.260   3.982   2.950
 3136SOL    HW2 9855   0.137   3.954   2.846
 3137SOL     OW 9856   0.019   4.092   2.509
 3137SOL    HW1 9857  -0.063   4.135   2.548
 3137SOL    HW2 9858  -0.009   4.019   2.446
 3138SOL     OW 9859   1.755   4.331   2.093
 3138SOL    HW1 9860   1.743   4.318   1.994
 3138SOL    HW2 9861   1.725   4.250   2.142
 3139SOL     OW 9862   0.438   4.116   3.361
 3139SOL    HW1 9863   0.520   4.060   3.370
 3139SOL    HW2 9864   0.357   4.058   3.365
 3140SOL     OW 9865   1.594   3.838   3.342
 3140SOL    HW1 9866   1.576   3.905   3.270
 3140SOL    HW2 9867   1.591   3.884   3.431
 3141SOL     OW 9868   0.809   3.728   2.364
 3141SOL    HW1 9869   0.849   3.819   2.355
 3141SOL    HW2 9870   0.709   3.736   2.370
 3142SOL     OW 9871   1.281   4.069   2.806
 3142SOL    HW1 9872   1.195   4.019   2.793
 3142SOL    HW2 9873   1.343   4.015   2.862
 3143SOL     OW 9874   0.550   3.920   2.747
 3143SOL    HW1 9875   0.545   3.915   2.847
 3143SOL    HW2 9876   0.552   4.016   2.718
 3144SOL     OW 9877   0.202   4.009   3.360
 3144SOL    HW1 9878   0.122   4.069   3.347
 3144SOL    HW2 9879   0.192   3.960   3.446
 3145SOL     OW 9880   1.400   3.831   2.288
 3145SOL    HW1 9881   1.376   3.794   2.198
 3145SOL    HW2 9882   1.499   3.847   2.292
 3146SOL     OW 9883   1.547   3.946   3.591
 3146SOL    HW1 9884   1.542   3.983   3.683
 3146SOL    HW2 9885   1.475   3.877   3.579
 3147SOL     OW 9886   0.614   3.846   1.979
 3147SOL    HW1 9887   0.712   3.824   1.986
 3147SOL    HW2 9888   0.583   3.829   1.886
 3148SOL     OW 9889   0.781   3.988   3.611
 3148SOL    HW1 9890   0.848   3.927   3.654
 3148SOL    HW2 9891   0.708   4.007   3.676
 3149SOL     OW 9892   0.539   3.788   2.374
 3149SOL    HW1 9893   0.458   3.789   2.432
 3149SOL    HW2 9894   0.542   3.871   2.319
 3150SOL     OW 9895   0.297   3.759   2.033
 3150SOL    HW1 9896   0.346   3.843   2.012
 3150SOL    HW2 9897   0.359   3.694   2.078
 3151SOL     OW 9898   0.561   3.946   3.009
 3151SOL    HW1 9899   0.599   3.862   3.046
 3151SOL    HW2 9900   0.473   3.965   3.053
 3152SOL     OW 9901   1.017   3.763   2.615
 3152SOL    HW1 9902   0.945   3.768   2.546
 3152SOL    HW2 9903   0.993   3.694   2.684
 3153SOL     OW 9904   0.915   3.813   3.264
 3153SOL    HW1 9905   0.940   3.793   3.169
 3153SOL    HW2 9906   0.987   3.869   3.306
 3154SOL     OW 9907   1.274   4.110   3.124
 3154SOL    HW1 9908   1.295   4.184   3.188
 3154SOL    HW2 9909   1.185   4.127   3.081
 3155SOL     OW 9910   0.504   3.774   3.602
 3155SOL    HW1 9911   0.462   3.717   3.532
 3155SOL    HW2 9912   0.438   3.843   3.634
 3156SOL     OW 9913   0.307   3.937   3.093
 3156SOL    HW1 9914   0.284   3.974   3.183
 3156SOL    HW2 9915   0.277   3.842   3.087
 3157SOL     OW 9916   1.540   3.998   1.987
 3157SOL    HW1 9917   1.479   3.923   2.010
 3157SOL    HW2 9918   1.562   4.050   2.070
 3158SOL     OW 9919   1.160   3.931   3.339
 3158SOL    HW1 9920   1.160   3.995   3.416
 3158SOL    HW2 9921   1.188   3.979   3.256
 3159SOL     OW 9922   0.903   3.810   1.995
 3159SOL    HW1 9923   0.954   3.811   1.909
 3159SOL    HW2 9924   0.959   3.768   2.066
 3160SOL     OW 9925   1.726   3.859   2.385
 3160SOL    HW1 9926   1.799   3.842   2.318
 3160SOL    HW2 9927   1.695   3.772   2.423
 3161SOL     OW 9928   1.841   3.899   2.825
 3161SOL    HW1 9929   1.880   3.814   2.789
 3161SOL    HW2 9930   1.743   3.901   2.806
 3162SOL     OW 9931   0.672   3.927   3.351
 3162SOL    HW1 9932   0.762   3.911   3.311
 3162SOL    HW2 9933   0.680   3.932   3.450
 3163SOL     OW 9934   0.075   4.069   1.895
 3163SOL    HW1 9935  -0.017   4.041   1.866
 3163SOL    HW2 9936   0.106   4.146   1.839
 3164SOL     OW 9937   0.072   3.890   2.180
 3164SOL    HW1 9938   0.055   3.973   2.126
 3164SOL    HW2 9939   0.162   3.853   2.158
 3165SOL     OW 9940   1.225   4.049   2.311
 3165SOL    HW1 9941   1.290   3.975   2.300
 3165SOL    HW2 9942   1.245   4.099   2.395
 3166SOL     OW 9943   1.777   4.066   3.504
 3166SOL    HW1 9944   1.760   4.097   3.410
 3166SOL    HW2 9945   1.693   4.029   3.542
 3167SOL     OW 9946   1.824   3.916   3.089
 3167SOL    HW1 9947   1.820   3.826   3.133
 3167SOL    HW2 9948   1.827   3.905   2.990
 3168SOL     OW 9949   1.424   3.938   2.974
 3168SOL    HW1 9950   1.476   3.873   3.029
 3168SOL    HW2 9951   1.375   4.001   3.035
 3169SOL     OW 9952   1.001   3.758   3.016
 3169SOL    HW1 9953   0.938   3.686   2.985
 3169SOL    HW2 9954   1.094   3.722   3.016
 3170SOL     OW 9955   1.352   3.776   2.030
 3170SOL    HW1 9956   1.387   3.735   1.946
 3170SOL    HW2 9957   1.262   3.738   2.050
 3171SOL     OW 9958   1.300   4.177   2.553
 3171SOL    HW1 9959   1.241   4.257   2.557
 3171SOL    HW2 9960   1.315   4.142   2.646
 3172SOL     OW 9961   1.593   3.945   2.744
 3172SOL    HW1 9962   1.509   3.944   2.798
 3172SOL    HW2 9963   1.595   4.028   2.688
 3173SOL     OW 9964   0.225   3.999   4.720
 3173SOL    HW1 9965   0.260   3.982   4.812
 3173SOL    HW2 9966   0.137   3.954   4.708
 3174SOL     OW 9967   0.019   4.092   4.371
 3174SOL    HW1 9968  -0.063   4.135   4.410
 3174SOL    HW2 9969  -0.009   4.019   4.308
 3175SOL     OW 9970   1.755   4.331   3.955
 3175SOL    HW1 9971   1.743   4.318   3.856
 3175SOL    HW2 9972   1.725   4.250   4.004
 3176SOL     OW 9973   0.438   4.116   5.223
 3176SOL    HW1 9974   0.520   4.060   5.232
 3176SOL    HW2 9975   0.357   4.058   5.227
 3177SOL     OW 9976   1.594   3.838   5.204
 3177SOL    HW1 9977   1.576   3.905   5.132
 3177SOL    HW2 9978   1.591   3.884   5.293
 3178SOL     OW 9979   0.809   3.728   4.226
 3178SOL    HW1 9980   0.849   3.819   4.217
 3178SOL    HW2 9981   0.709   3.736   4.232
 3179SOL     OW 9982   1.281   4.069   4.668
 3179SOL    HW1 9983   1.195   4.019   4.655
 3179SOL    HW2 9984   1.343   4.015   4.724
 3180SOL     OW 9985   0.550   3.920   4.609
 3180SOL    HW1 9986   0.545   3.915   4.709
 3180SOL    HW2 9987   0.552   4.016   4.580
 3181SOL     OW 9988   0.202   4.009   5.222
 3181SOL    HW1 9989   0.122   4.069   5.209
 3181SOL    HW2 9990   0.192   3.960   5.308
 3182SOL     OW 9991   1.400   3.831   4.150
 3182SOL    HW1 9992   1.376   3.794   4.060
 3182SOL    HW2 9993   1.499   3.847   4.154
 3183SOL     OW 9994   1.547   3.946   5.453
 3183SOL    HW1 9995   1.542   3.983   5.545
 3183SOL    HW2 9996   1.475   3.877   5.441
 3184SOL     OW 9997   0.614   3.846   3.841
 3184SOL    HW1 9998   0.712   3.824   3.848
 3184SOL    HW2 9999   0.583   3.829   3.748
 3185SOL     OW10000   0.781   3.988   5.473
 3185SOL    HW110001   0.848   3.927   5.516
 3185SOL    HW210002   0.708   4.007   5.538
 3186SOL     OW10003   0.539   3.788   4.236
 3186SOL    HW110004   0.458   3.789   4.294
 3186SOL    HW210005   0.542   3.871   4.181
 3187SOL     OW10006   0.297   3.759   3.895
 3187SOL    HW110007   0.346   3.843   3.874
 3187SOL    HW210008   0.359   3.694   3.940
 3188SOL     OW10009   0.561   3.946   4.871
 3188SOL    HW110010   0.599   3.862   4.908
 3188SOL    HW210011   0.473   3.965   4.915
 3189SOL     OW10012   1.017   3.763   4.477
 3189SOL    HW110013   0.945   3.768   4.408
 3189SOL    HW210014   0.993   3.694   4.546
 3190SOL     OW10015   0.915   3.813   5.126
 3190SOL    HW110016   0.940   3.793   5.031
 3190SOL    HW210017   0.987   3.869   5.168
 3191SOL     OW10018   1.274   4.110   4.986
 3191SOL    HW110019   1.295   4.184   5.050
 3191SOL    HW210020   1.185   4.127   4.943
 3192SOL     OW10021   0.504   3.774   5.464
 3192SOL    HW110022   0.462   3.717   5.394
 3192SOL    HW210023   0.438   3.843   5.496
 3193SOL     OW10024   0.307   3.937   4.955
 3193SOL    HW110025   0.284   3.974   5.045
 3193SOL    HW210026   0.277   3.842   4.949
 3194SOL     OW10027   1.540   3.998   3.849
 3194SOL    HW110028   1.479   3.923   3.872
 3194SOL    HW210029   1.562   4.050   3.932
 3195SOL     OW10030   1.160   3.931   5.201
 3195SOL    HW110031   1.160   3.995   5.278
 3195SOL    HW210032   1.188   3.979   5.118
 3196SOL     OW10033   0.903   3.810   3.857
 3196SOL    HW110034   0.954   3.811   3.771
 3196SOL    HW210035   0.959   3.768   3.928
 3197SOL     OW10036   1.726   3.859   4.247
 3197SOL    HW110037   1.799   3.842   4.180
 3197SOL    HW210038   1.695   3.772   4.285
 3198SOL     OW10039   1.841   3.899   4.687
 3198SOL    HW110040   1.880   3.814   4.651
 3198SOL    HW210041   1.743   3.901   4.668
 3199SOL     OW10042   0.672   3.927   5.213
 3199SOL    HW110043   0.762   3.911   5.173
 3199SOL    HW210044   0.680   3.932   5.312
 3200SOL     OW10045   0.075   4.069   3.757
 3200SOL    HW110046  -0.017   4.041   3.728
 3200SOL    HW210047   0.106   4.146   3.701
 3201SOL     OW10048   0.072   3.890   4.042
 3201SOL    HW110049   0.055   3.973   3.988
 3201SOL    HW210050   0.162   3.853   4.020
 3202SOL     OW10051   1.225   4.049   4.173
 3202SOL    HW110052   1.290   3.975   4.162
 3202SOL    HW210053   1.245   4.099   4.257
 3203SOL     OW10054   1.777   4.066   5.366
 3203SOL    HW110055   1.760   4.097   5.272
 3203SOL    HW210056   1.693   4.029   5.404
 3204SOL     OW10057   1.824   3.916   4.951
 3204SOL    HW110058   1.820   3.826   4.995
 3204SOL    HW210059   1.827   3.905   4.852
 3205SOL     OW10060   1.424   3.938   4.836
 3205SOL    HW110061   1.476   3.873   4.891
 3205SOL    HW210062   1.375   4.001   4.897
 3206SOL     OW10063   1.001   3.758   4.878
 3206SOL    HW110064   0.938   3.686   4.847
 3206SOL    HW210065   1.094   3.722   4.878
 3207SOL     OW10066   1.352   3.776   3.892
 3207SOL    HW110067   1.387   3.735   3.808
 3207SOL    HW210068   1.262   3.738   3.912
 3208SOL     OW10069   1.300   4.177   4.415
 3208SOL    HW110070   1.241   4.257   4.419
 3208SOL    HW210071   1.315   4.142   4.508
 3209SOL     OW10072   1.593   3.945   4.606
 3209SOL    HW110073   1.509   3.944   4.660
 3209SOL    HW210074   1.595   4.028   4.550
 3210SOL     OW10075   0.225   3.999   6.582
 3210SOL    HW110076   0.260   3.982   6.674
 3210SOL    HW210077   0.137   3.954   6.570
 3211SOL     OW10078   0.019   4.092   6.233
 3211SOL    HW110079  -0.063   4.135   6.272
 3211SOL    HW210080  -0.009   4.019   6.170
 3212SOL     OW10081   1.755   4.331   5.817
 3212SOL    HW110082   1.743   4.318   5.718
 3212SOL    HW210083   1.725   4.250   5.866
 3213SOL     OW10084   0.438   4.116   7.085
 3213SOL    HW110085   0.520   4.060   7.094
 3213SOL    HW210086   0.357   4.058   7.089
 3214SOL     OW10087   1.594   3.838   7.066
 3214SOL    HW110088   1.576   3.905   6.994
 3214SOL    HW210089   1.591   3.884   7.155
 3215SOL     OW10090   0.809   3.728   6.088
 3215SOL    HW110091   0.849   3.819   6.079
 3215SOL    HW210092   0.709   3.736   6.094
 3216SOL     OW10093   1.281   4.069   6.530
 3216SOL    HW110094   1.195   4.019   6.517
 3216SOL    HW210095   1.343   4.015   6.586
 3217SOL     OW10096   0.550   3.920   6.471
 3217SOL    HW110097   0.545   3.915   6.571
 3217SOL    HW210098   0.552   4.016   6.442
 3218SOL     OW10099   0.202   4.009   7.084
 3218SOL    HW110100   0.122   4.069   7.071
 3218SOL    HW210101   0.192   3.960   7.170
 3219SOL     OW10102   1.400   3.831   6.012
 3219SOL    HW110103   1.376   3.794   5.922
 3219SOL    HW210104   1.499   3.847   6.016
 3220SOL     OW10105   1.547   3.946   7.315
 3220SOL    HW110106   1.542   3.983   7.407
 3220SOL    HW210107   1.475   3.877   7.303
 3221SOL     OW10108   0.614   3.846   5.703
 3221SOL    HW110109   0.712   3.824   5.710
 3221SOL    HW210110   0.583   3.829   5.610
 3222SOL     OW10111   0.781   3.988   7.335
 3222SOL    HW110112   0.848   3.927   7.378
 3222SOL    HW210113   0.708   4.007   7.400
 3223SOL     OW10114   0.539   3.788   6.098
 3223SOL    HW110115   0.458   3.789   6.156
 3223SOL    HW210116   0.542   3.871   6.043
 3224SOL     OW10117   0.297   3.759   5.757
 3224SOL    HW110118   0.346   3.843   5.736
 3224SOL    HW210119   0.359   3.694   5.802
 3225SOL     OW10120   0.561   3.946   6.733
 3225SOL    HW110121   0.599   3.862   6.770
 3225SOL    HW210122   0.473   3.965   6.777
 3226SOL     OW10123   1.017   3.763   6.339
 3226SOL    HW110124   0.945   3.768   6.270
 3226SOL    HW210125   0.993   3.694   6.408
 3227SOL     OW10126   0.915   3.813   6.988
 3227SOL    HW110127   0.940   3.793   6.893
 3227SOL    HW210128   0.987   3.869   7.030
 3228SOL     OW10129   1.274   4.110   6.848
 3228SOL    HW110130   1.295   4.184   6.912
 3228SOL    HW210131   1.185   4.127   6.805
 3229SOL     OW10132   0.504   3.774   7.326
 3229SOL    HW110133   0.462   3.717   7.256
 3229SOL    HW210134   0.438   3.843   7.358
 3230SOL     OW10135   0.307   3.937   6.817
 3230SOL    HW110136   0.284   3.974   6.907
 3230SOL    HW210137   0.277   3.842   6.811
 3231SOL     OW10138   1.540   3.998   5.711
 3231SOL    HW110139   1.479   3.923   5.734
 3231SOL    HW210140   1.562   4.050   5.794
 3232SOL     OW10141   1.160   3.931   7.063
 3232SOL    HW110142   1.160   3.995   7.140
 3232SOL    HW210143   1.188   3.979   6.980
 3233SOL     OW10144   0.903   3.810   5.719
 3233SOL    HW110145   0.954   3.811   5.633
 3233SOL    HW210146   0.959   3.768   5.790
 3234SOL     OW10147   1.726   3.859   6.109
 3234SOL    HW110148   1.799   3.842   6.042
 3234SOL    HW210149   1.695   3.772   6.147
 3235SOL     OW10150   1.841   3.899   6.549
 3235SOL    HW110151   1.880   3.814   6.513
 3235SOL    HW210152   1.743   3.901   6.530
 3236SOL     OW10153   0.672   3.927   7.075
 3236SOL    HW110154   0.762   3.911   7.035
 3236SOL    HW210155   0.680   3.932   7.174
 3237SOL     OW10156   0.075   4.069   5.619
 3237SOL    HW110157  -0.017   4.041   5.590
 3237SOL    HW210158   0.106   4.146   5.563
 3238SOL     OW10159   0.072   3.890   5.904
 3238SOL    HW110160   0.055   3.973   5.850
 3238SOL    HW210161   0.162   3.853   5.882
 3239SOL     OW10162   1.225   4.049   6.035
 3239SOL    HW110163   1.290   3.975   6.024
 3239SOL    HW210164   1.245   4.099   6.119
 3240SOL     OW10165   1.777   4.066   7.228
 3240SOL    HW110166   1.760   4.097   7.134
 3240SOL    HW210167   1.693   4.029   7.266
 3241SOL     OW10168   1.824   3.916   6.813
 3241SOL    HW110169   1.820   3.826   6.857
 3241SOL    HW210170   1.827   3.905   6.714
 3242SOL     OW10171   1.424   3.938   6.698
 3242SOL    HW110172   1.476   3.873   6.753
 3242SOL    HW210173   1.375   4.001   6.759
 3243SOL     OW10174   1.001   3.758   6.740
 3243SOL    HW110175   0.938   3.686   6.709
 3243SOL    HW210176   1.094   3.722   6.740
 3244SOL     OW10177   1.352   3.776   5.754
 3244SOL    HW110178   1.387   3.735   5.670
 3244SOL    HW210179   1.262   3.738   5.774
 3245SOL     OW10180   1.300   4.177   6.277
 3245SOL    HW110181   1.241   4.257   6.281
 3245SOL    HW210182   1.315   4.142   6.370
 3246SOL     OW10183   1.593   3.945   6.468
 3246SOL    HW110184   1.509   3.944   6.522
 3246SOL    HW210185   1.595   4.028   6.412
 3247SOL     OW10186   0.225   3.999   8.444
 3247SOL    HW110187   0.260   3.982   8.536
 3247SOL    HW210188   0.137   3.954   8.432
 3248SOL     OW10189   0.019   4.092   8.095
 3248SOL    HW110190  -0.063   4.135   8.134
 3248SOL    HW210191  -0.009   4.019   8.032
 3249SOL     OW10192   1.755   4.331   7.679
 3249SOL    HW110193   1.743   4.318   7.580
 3249SOL    HW210194   1.725   4.250   7.728
 3250SOL     OW10195   0.438   4.116   8.947
 3250SOL    HW110196   0.520   4.060   8.956
 3250SOL    HW210197   0.357   4.058   8.951
 3251SOL     OW10198   1.594   3.838   8.928
 3251SOL    HW110199   1.576   3.905   8.856
 3251SOL    HW210200   1.591   3.884   9.017
 3252SOL     OW10201   0.809   3.728   7.950
 3252SOL    HW110202   0.849   3.819   7.941
 3252SOL    HW210203   0.709   3.736   7.956
 3253SOL     OW10204   1.281   4.069   8.392
 3253SOL    HW110205   1.195   4.019   8.379
 3253SOL    HW210206   1.343   4.015   8.448
 3254SOL     OW10207   0.550   3.920   8.333
 3254SOL    HW110208   0.545   3.915   8.433
 3254SOL    HW210209   0.552   4.016   8.304
 3255SOL     OW10210   0.202   4.009   8.946
 3255SOL    HW110211   0.122   4.069   8.933
 3255SOL    HW210212   0.192   3.960   9.032
 3256SOL     OW10213   1.400   3.831   7.874
 3256SOL    HW110214   1.376   3.794   7.784
 3256SOL    HW210215   1.499   3.847   7.878
 3257SOL     OW10216   1.547   3.946   9.177
 3257SOL    HW110217   1.542   3.983   9.269
 3257SOL    HW210218   1.475   3.877   9.165
 3258SOL     OW10219   0.614   3.846   7.565
 3258SOL    HW110220   0.712   3.824   7.572
 3258SOL    HW210221   0.583   3.829   7.472
 3259SOL     OW10222   0.781   3.988   9.197
 3259SOL    HW110223   0.848   3.927   9.240
 3259SOL    HW210224   0.708   4.007   9.262
 3260SOL     OW10225   0.539   3.788   7.960
 3260SOL    HW110226   0.458   3.789   8.018
 3260SOL    HW210227   0.542   3.871   7.905
 3261SOL     OW10228   0.297   3.759   7.619
 3261SOL    HW110229   0.346   3.843   7.598
 3261SOL    HW210230   0.359   3.694   7.664
 3262SOL     OW10231   0.561   3.946   8.595
 3262SOL    HW110232   0.599   3.862   8.632
 3262SOL    HW210233   0.473   3.965   8.639
 3263SOL     OW10234   1.017   3.763   8.201
 3263SOL    HW110235   0.945   3.768   8.132
 3263SOL    HW210236   0.993   3.694   8.270
 3264SOL     OW10237   0.915   3.813   8.850
 3264SOL    HW110238   0.940   3.793   8.755
 3264SOL    HW210239   0.987   3.869   8.892
 3265SOL     OW10240   1.274   4.110   8.710
 3265SOL    HW110241   1.295   4.184   8.774
 3265SOL    HW210242   1.185   4.127   8.667
 3266SOL     OW10243   0.504   3.774   9.188
 3266SOL    HW110244   0.462   3.717   9.118
 3266SOL    HW210245   0.438   3.843   9.220
 3267SOL     OW10246   0.307   3.937   8.679
 3267SOL    HW110247   0.284   3.974   8.769
 3267SOL    HW210248   0.277   3.842   8.673
 3268SOL     OW10249   1.540   3.998   7.573
 3268SOL    HW110250   1.479   3.923   7.596
 3268SOL    HW210251   1.562   4.050   7.656
 3269SOL     OW10252   1.160   3.931   8.925
 3269SOL    HW110253   1.160   3.995   9.002
 3269SOL    HW210254   1.188   3.979   8.842
 3270SOL     OW10255   0.903   3.810   7.581
 3270SOL    HW110256   0.954   3.811   7.495
 3270SOL    HW210257   0.959   3.768   7.652
 3271SOL     OW10258   1.726   3.859   7.971
 3271SOL    HW110259   1.799   3.842   7.904
 3271SOL    HW210260   1.695   3.772   8.009
 3272SOL     OW10261   1.841   3.899   8.411
 3272SOL    HW110262   1.880   3.814   8.375
 3272SOL    HW210263   1.743   3.901   8.392
 3273SOL     OW10264   0.672   3.927   8.937
 3273SOL    HW110265   0.762   3.911   8.897
 3273SOL    HW210266   0.680   3.932   9.036
 3274SOL     OW10267   0.075   4.069   7.481
 3274SOL    HW110268  -0.017   4.041   7.452
 3274SOL    HW210269   0.106   4.146   7.425
 3275SOL     OW10270   0.072   3.890   7.766
 3275SOL    HW110271   0.055   3.973   7.712
 3275SOL    HW210272   0.162   3.853   7.744
 3276SOL     OW10273   1.225   4.049   7.897
 3276SOL    HW110274   1.290   3.975   7.886
 3276SOL    HW210275   1.245   4.099   7.981
 3277SOL     OW10276   1.777   4.066   9.090
 3277SOL    HW110277   1.760   4.097   8.996
 3277SOL    HW210278   1.693   4.029   9.128
 3278SOL     OW10279   1.824   3.916   8.675
 3278SOL    HW110280   1.820   3.826   8.719
 3278SOL    HW210281   1.827   3.905   8.576
 3279SOL     OW10282   1.424   3.938   8.560
 3279SOL    HW110283   1.476   3.873   8.615
 3279SOL    HW210284   1.375   4.001   8.621
 3280SOL     OW10285   1.001   3.758   8.602
 3280SOL    HW110286   0.938   3.686   8.571
 3280SOL    HW210287   1.094   3.722   8.602
 3281SOL     OW10288   1.352   3.776   7.616
 3281SOL    HW110289   1.387   3.735   7.532
 3281SOL    HW210290   1.262   3.738   7.636
 3282SOL     OW10291   1.300   4.177   8.139
 3282SOL    HW110292   1.241   4.257   8.143
 3282SOL    HW210293   1.315   4.142   8.232
 3283SOL     OW10294   1.593   3.945   8.330
 3283SOL    HW110295   1.509   3.944   8.384
 3283SOL    HW210296   1.595   4.028   8.274
 3284SOL     OW10297   0.225   3.999  10.306
 3284SOL    HW110298   0.260   3.982  10.398
 3284SOL    HW210299   0.137   3.954  10.294
 3285SOL     OW10300   0.019   4.092   9.957
 3285SOL    HW110301  -0.063   4.135   9.996
 3285SOL    HW210302  -0.009   4.019   9.894
 3286SOL     OW10303   1.755   4.331   9.541
 3286SOL    HW110304   1.743   4.318   9.442
 3286SOL    HW210305   1.725   4.250   9.590
 3287SOL     OW10306   0.438   4.116  10.809
 3287SOL    HW110307   0.520   4.060  10.818
 3287SOL    HW210308   0.357   4.058  10.813
 3288SOL     OW10309   1.594   3.838  10.790
 3288SOL    HW110310   1.576   3.905  10.718
 3288SOL    HW210311   1.591   3.884  10.879
 3289SOL     OW10312   0.809   3.728   9.812
 3289SOL    HW110313   0.849   3.819   9.803
 3289SOL    HW210314   0.709   3.736   9.818
 3290SOL     OW10315   1.281   4.069  10.254
 3290SOL    HW110316   1.195   4.019  10.241
 3290SOL    HW210317   1.343   4.015  10.310
 3291SOL     OW10318   0.550   3.920  10.195
 3291SOL    HW110319   0.545   3.915  10.295
 3291SOL    HW210320   0.552   4.016  10.166
 3292SOL     OW10321   0.202   4.009  10.808
 3292SOL    HW110322   0.122   4.069  10.795
 3292SOL    HW210323   0.192   3.960  10.894
 3293SOL     OW10324   1.400   3.831   9.736
 3293SOL    HW110325   1.376   3.794   9.646
 3293SOL    HW210326   1.499   3.847   9.740
 3294SOL     OW10327   1.547   3.946  11.039
 3294SOL    HW110328   1.542   3.983  11.131
 3294SOL    HW210329   1.475   3.877  11.027
 3295SOL     OW10330   0.614   3.846   9.427
 3295SOL    HW110331   0.712   3.824   9.434
 3295SOL    HW210332   0.583   3.829   9.334
 3296SOL     OW10333   0.781   3.988  11.059
 3296SOL    HW110334   0.848   3.927  11.102
 3296SOL    HW210335   0.708   4.007  11.124
 3297SOL     OW10336   0.539   3.788   9.822
 3297SOL    HW110337   0.458   3.789   9.880
 3297SOL    HW210338   0.542   3.871   9.767
 3298SOL     OW10339   0.297   3.759   9.481
 3298SOL    HW110340   0.346   3.843   9.460
 3298SOL    HW210341   0.359   3.694   9.526
 3299SOL     OW10342   0.561   3.946  10.457
 3299SOL    HW110343   0.599   3.862  10.494
 3299SOL    HW210344   0.473   3.965  10.501
 3300SOL     OW10345   1.017   3.763  10.063
 3300SOL    HW110346   0.945   3.768   9.994
 3300SOL    HW210347   0.993   3.694  10.132
 3301SOL     OW10348   0.915   3.813  10.712
 3301SOL    HW110349   0.940   3.793  10.617
 3301SOL    HW210350   0.987   3.869  10.754
 3302SOL     OW10351   1.274   4.110  10.572
 3302SOL    HW110352   1.295   4.184  10.636
 3302SOL    HW210353   1.185   4.127  10.529
 3303SOL     OW10354   0.504   3.774  11.050
 3303SOL    HW110355   0.462   3.717  10.980
 3303SOL    HW210356   0.438   3.843  11.082
 3304SOL     OW10357   0.307   3.937  10.541
 3304SOL    HW110358   0.284   3.974  10.631
 3304SOL    HW210359   0.277   3.842  10.535
 3305SOL     OW10360   1.540   3.998   9.435
 3305SOL    HW110361   1.479   3.923   9.458
 3305SOL    HW210362   1.562   4.050   9.518
 3306SOL     OW10363   1.160   3.931  10.787
 3306SOL    HW110364   1.160   3.995  10.864
 3306SOL    HW210365   1.188   3.979  10.704
 3307SOL     OW10366   0.903   3.810   9.443
 3307SOL    HW110367   0.954   3.811   9.357
 3307SOL    HW210368   0.959   3.768   9.514
 3308SOL     OW10369   1.726   3.859   9.833
 3308SOL    HW110370   1.799   3.842   9.766
 3308SOL    HW210371   1.695   3.772   9.871
 3309SOL     OW10372   1.841   3.899  10.273
 3309SOL    HW110373   1.880   3.814  10.237
 3309SOL    HW210374   1.743   3.901  10.254
 3310SOL     OW10375   0.672   3.927  10.799
 3310SOL    HW110376   0.762   3.911  10.759
 3310SOL    HW210377   0.680   3.932  10.898
 3311SOL     OW10378   0.075   4.069   9.343
 3311SOL    HW110379  -0.017   4.041   9.314
 3311SOL    HW210380   0.106   4.146   9.287
 3312SOL     OW10381   0.072   3.890   9.628
 3312SOL    HW110382   0.055   3.973   9.574
 3312SOL    HW210383   0.162   3.853   9.606
 3313SOL     OW10384   1.225   4.049   9.759
 3313SOL    HW110385   1.290   3.975   9.748
 3313SOL    HW210386   1.245   4.099   9.843
 3314SOL     OW10387   1.777   4.066  10.952
 3314SOL    HW110388   1.760   4.097  10.858
 3314SOL    HW210389   1.693   4.029  10.990
 3315SOL     OW10390   1.824   3.916  10.537
 3315SOL    HW110391   1.820   3.826  10.581
 3315SOL    HW210392   1.827   3.905  10.438
 3316SOL     OW10393   1.424   3.938  10.422
 3316SOL    HW110394   1.476   3.873  10.477
 3316SOL    HW210395   1.375   4.001  10.483
 3317SOL     OW10396   1.001   3.758  10.464
 3317SOL    HW110397   0.938   3.686  10.433
 3317SOL    HW210398   1.094   3.722  10.464
 3318SOL     OW10399   1.352   3.776   9.478
 3318SOL    HW110400   1.387   3.735   9.394
 3318SOL    HW210401   1.262   3.738   9.498
 3319SOL     OW10402   1.300   4.177  10.001
 3319SOL    HW110403   1.241   4.257  10.005
 3319SOL    HW210404   1.315   4.142  10.094
 3320SOL     OW10405   1.593   3.945  10.192
 3320SOL    HW110406   1.509   3.944  10.246
 3320SOL    HW210407   1.595   4.028  10.136
 3321SOL     OW10408   0.225   3.999  12.168
 3321SOL    HW110409   0.260   3.982  12.260
 3321SOL    HW210410   0.137   3.954  12.156
 3322SOL     OW10411   0.019   4.092  11.819
 3322SOL    HW110412  -0.063   4.135  11.858
 3322SOL    HW210413  -0.009   4.019  11.756
 3323SOL     OW10414   1.755   4.331  11.403
 3323SOL    HW110415   1.743   4.318  11.304
 3323SOL    HW210416   1.725   4.250  11.452
 3324SOL     OW10417   0.438   4.116  12.671
 3324SOL    HW110418   0.520   4.060  12.680
 3324SOL    HW210419   0.357   4.058  12.675
 3325SOL     OW10420   1.594   3.838  12.652
 3325SOL    HW110421   1.576   3.905  12.580
 3325SOL    HW210422   1.591   3.884  12.741
 3326SOL     OW10423   0.809   3.728  11.674
 3326SOL    HW110424   0.849   3.819  11.665
 3326SOL    HW210425   0.709   3.736  11.680
 3327SOL     OW10426   1.281   4.069  12.116
 3327SOL    HW110427   1.195   4.019  12.103
 3327SOL    HW210428   1.343   4.015  12.172
 3328SOL     OW10429   0.550   3.920  12.057
 3328SOL    HW110430   0.545   3.915  12.157
 3328SOL    HW210431   0.552   4.016  12.028
 3329SOL     OW10432   0.202   4.009  12.670
 3329SOL    HW110433   0.122   4.069  12.657
 3329SOL    HW210434   0.192   3.960  12.756
 3330SOL     OW10435   1.400   3.831  11.598
 3330SOL    HW110436   1.376   3.794  11.508
 3330SOL    HW210437   1.499   3.847  11.602
 3331SOL     OW10438   1.547   3.946  12.901
 3331SOL    HW110439   1.542   3.983  12.993
 3331SOL    HW210440   1.475   3.877  12.889
 3332SOL     OW10441   0.614   3.846  11.289
 3332SOL    HW110442   0.712   3.824  11.296
 3332SOL    HW210443   0.583   3.829  11.196
 3333SOL     OW10444   0.781   3.988  12.921
 3333SOL    HW110445   0.848   3.927  12.964
 3333SOL    HW210446   0.708   4.007  12.986
 3334SOL     OW10447   0.539   3.788  11.684
 3334SOL    HW110448   0.458   3.789  11.742
 3334SOL    HW210449   0.542   3.871  11.629
 3335SOL     OW10450   0.297   3.759  11.343
 3335SOL    HW110451   0.346   3.843  11.322
 3335SOL    HW210452   0.359   3.694  11.388
 3336SOL     OW10453   0.561   3.946  12.319
 3336SOL    HW110454   0.599   3.862  12.356
 3336SOL    HW210455   0.473   3.965  12.363
 3337SOL     OW10456   1.017   3.763  11.925
 3337SOL    HW110457   0.945   3.768  11.856
 3337SOL    HW210458   0.993   3.694  11.994
 3338SOL     OW10459   0.915   3.813  12.574
 3338SOL    HW110460   0.940   3.793  12.479
 3338SOL    HW210461   0.987   3.869  12.616
 3339SOL     OW10462   1.274   4.110  12.434
 3339SOL    HW110463   1.295   4.184  12.498
 3339SOL    HW210464   1.185   4.127  12.391
 3340SOL     OW10465   0.504   3.774  12.912
 3340SOL    HW110466   0.462   3.717  12.842
 3340SOL    HW210467   0.438   3.843  12.944
 3341SOL     OW10468   0.307   3.937  12.403
 3341SOL    HW110469   0.284   3.974  12.493
 3341SOL    HW210470   0.277   3.842  12.397
 3342SOL     OW10471   1.540   3.998  11.297
 3342SOL    HW110472   1.479   3.923  11.320
 3342SOL    HW210473   1.562   4.050  11.380
 3343SOL     OW10474   1.160   3.931  12.649
 3343SOL    HW110475   1.160   3.995  12.726
 3343SOL    HW210476   1.188   3.979  12.566
 3344SOL     OW10477   0.903   3.810  11.305
 3344SOL    HW110478   0.954   3.811  11.219
 3344SOL    HW210479   0.959   3.768  11.376
 3345SOL     OW10480   1.726   3.859  11.695
 3345SOL    HW110481   1.799   3.842  11.628
 3345SOL    HW210482   1.695   3.772  11.733
 3346SOL     OW10483   1.841   3.899  12.135
 3346SOL    HW110484   1.880   3.814  12.099
 3346SOL    HW210485   1.743   3.901  12.116
 3347SOL     OW10486   0.672   3.927  12.661
 3347SOL    HW110487   0.762   3.911  12.621
 3347SOL    HW210488   0.680   3.932  12.760
 3348SOL     OW10489   0.075   4.069  11.205
 3348SOL    HW110490  -0.017   4.041  11.176
 3348SOL    HW210491   0.106   4.146  11.149
 3349SOL     OW10492   0.072   3.890  11.490
 3349SOL    HW110493   0.055   3.973  11.436
 3349SOL    HW210494   0.162   3.853  11.468
 3350SOL     OW10495   1.225   4.049  11.621
 3350SOL    HW110496   1.290   3.975  11.610
 3350SOL    HW210497   1.245   4.099  11.705
 3351SOL     OW10498   1.777   4.066  12.814
 3351SOL    HW110499   1.760   4.097  12.720
 3351SOL    HW210500   1.693   4.029  12.852
 3352SOL     OW10501   1.824   3.916  12.399
 3352SOL    HW110502   1.820   3.826  12.443
 3352SOL    HW210503   1.827   3.905  12.300
 3353SOL     OW10504   1.424   3.938  12.284
 3353SOL    HW110505   1.476   3.873  12.339
 3353SOL    HW210506   1.375   4.001  12.345
 3354SOL     OW10507   1.001   3.758  12.326
 3354SOL    HW110508   0.938   3.686  12.295
 3354SOL    HW210509   1.094   3.722  12.326
 3355SOL     OW10510   1.352   3.776  11.340
 3355SOL    HW110511   1.387   3.735  11.256
 3355SOL    HW210512   1.262   3.738  11.360
 3356SOL     OW10513   1.300   4.177  11.863
 3356SOL    HW110514   1.241   4.257  11.867
 3356SOL    HW210515   1.315   4.142  11.956
 3357SOL     OW10516   1.593   3.945  12.054
 3357SOL    HW110517   1.509   3.944  12.108
 3357SOL    HW210518   1.595   4.028  11.998
 3358SOL     OW10519   0.019   4.092  13.681
 3358SOL    HW110520  -0.063   4.135  13.720
 3358SOL    HW210521  -0.009   4.019  13.618
 3359SOL     OW10522   1.755   4.331  13.265
 3359SOL    HW110523   1.743   4.318  13.166
 3359SOL    HW210524   1.725   4.250  13.314
 3360SOL     OW10525   1.603   4.171  13.771
 3360SOL    HW110526   1.529   4.217  13.721
 3360SOL    HW210527   1.654   4.239  13.824
 3361SOL     OW10528   0.809   3.728  13.536
 3361SOL    HW110529   0.849   3.819  13.527
 3361SOL    HW210530   0.709   3.736  13.542
 3362SOL     OW10531   1.400   3.831  13.460
 3362SOL    HW110532   1.376   3.794  13.370
 3362SOL    HW210533   1.499   3.847  13.464
 3363SOL     OW10534   0.614   3.846  13.151
 3363SOL    HW110535   0.712   3.824  13.158
 3363SOL    HW210536   0.583   3.829  13.058
 3364SOL     OW10537   0.539   3.788  13.546
 3364SOL    HW110538   0.458   3.789  13.604
 3364SOL    HW210539   0.542   3.871  13.491
 3365SOL     OW10540   0.297   3.759  13.205
 3365SOL    HW110541   0.346   3.843  13.184
 3365SOL    HW210542   0.359   3.694  13.250
 3366SOL     OW10543   1.017   3.763  13.787
 3366SOL    HW110544   0.945   3.768  13.718
 3366SOL    HW210545   0.993   3.694  13.856
 3367SOL     OW10546   1.540   3.998  13.159
 3367SOL    HW110547   1.479   3.923  13.182
 3367SOL    HW210548   1.562   4.050  13.242
 3368SOL     OW10549   0.903   3.810  13.167
 3368SOL    HW110550   0.954   3.811  13.081
 3368SOL    HW210551   0.959   3.768  13.238
 3369SOL     OW10552   1.726   3.859  13.557
 3369SOL    HW110553   1.799   3.842  13.490
 3369SOL    HW210554   1.695   3.772  13.595
 3370SOL     OW10555   1.841   3.899  13.997
 3370SOL    HW110556   1.880   3.814  13.961
 3370SOL    HW210557   1.743   3.901  13.978
 3371SOL     OW10558   0.075   4.069  13.067
 3371SOL    HW110559  -0.017   4.041  13.038
 3371SOL    HW210560   0.106   4.146  13.011
 3372SOL     OW10561   0.072   3.890  13.352
 3372SOL    HW110562   0.055   3.973  13.298
 3372SOL    HW210563   0.162   3.853  13.330
 3373SOL     OW10564   1.225   4.049  13.483
 3373SOL    HW110565   1.290   3.975  13.472
 3373SOL    HW210566   1.245   4.099  13.567
 3374SOL     OW10567   1.352   3.776  13.202
 3374SOL    HW110568   1.387   3.735  13.118
 3374SOL    HW210569   1.262   3.738  13.222
 3375SOL     OW10570   1.300   4.177  13.725
 3375SOL    HW110571   1.241   4.257  13.729
 3375SOL    HW210572   1.315   4.142  13.818
 3376SOL     OW10573   2.092   0.628   0.113
 3376SOL    HW110574   1.999   0.626   0.150
 3376SOL    HW210575   2.093   0.589   0.021
 3377SOL     OW10576   2.087   0.275   0.996
 3377SOL    HW110577   2.122   0.258   1.088
 3377SOL    HW210578   1.999   0.230   0.984
 3378SOL     OW10579   1.881   0.368   0.647
 3378SOL    HW110580   1.799   0.411   0.686
 3378SOL    HW210581   1.853   0.295   0.584
 3379SOL     OW10582   2.431   1.275   1.165
 3379SOL    HW110583   2.338   1.268   1.128
 3379SOL    HW210584   2.442   1.364   1.209
 3380SOL     OW10585   3.417   1.511   0.703
 3380SOL    HW110586   3.360   1.495   0.784
 3380SOL    HW210587   3.358   1.521   0.623
 3381SOL     OW10588   2.997   0.703   0.717
 3381SOL    HW110589   3.054   0.781   0.692
 3381SOL    HW210590   2.937   0.729   0.793
 3382SOL     OW10591   3.617   0.607   0.231
 3382SOL    HW110592   3.605   0.594   0.132
 3382SOL    HW210593   3.587   0.526   0.280
 3383SOL     OW10594   2.630   1.144   1.023
 3383SOL    HW110595   2.552   1.161   1.083
 3383SOL    HW210596   2.664   1.231   0.987
 3384SOL     OW10597   2.712   0.798   1.823
 3384SOL    HW110598   2.708   0.874   1.888
 3384SOL    HW210599   2.734   0.834   1.732
 3385SOL     OW10600   2.547   1.012   0.665
 3385SOL    HW110601   2.616   0.996   0.735
 3385SOL    HW210602   2.474   1.069   0.703
 3386SOL     OW10603   2.548   1.161   1.803
 3386SOL    HW110604   2.608   1.240   1.817
 3386SOL    HW210605   2.462   1.192   1.762
 3387SOL     OW10606   2.197   1.435   1.061
 3387SOL    HW110607   2.119   1.404   1.008
 3387SOL    HW210608   2.255   1.493   1.004
 3388SOL     OW10609   3.322   1.505   1.339
 3388SOL    HW110610   3.346   1.599   1.365
 3388SOL    HW210611   3.306   1.451   1.421
 3389SOL     OW10612   2.300   0.392   1.499
 3389SOL    HW110613   2.382   0.336   1.508
 3389SOL    HW210614   2.219   0.334   1.503
 3390SOL     OW10615   3.465   0.447   0.737
 3390SOL    HW110616   3.391   0.493   0.687
 3390SOL    HW210617   3.516   0.515   0.790
 3391SOL     OW10618   2.093   1.713   0.483
 3391SOL    HW110619   2.127   1.790   0.537
 3391SOL    HW210620   2.137   1.713   0.393
 3392SOL     OW10621   2.989   1.341   1.690
 3392SOL    HW110622   3.036   1.341   1.778
 3392SOL    HW210623   2.941   1.254   1.679
 3393SOL     OW10624   2.092   1.434   0.538
 3393SOL    HW110625   2.066   1.530   0.538
 3393SOL    HW210626   2.021   1.380   0.583
 3394SOL     OW10627   2.102   1.091   0.886
 3394SOL    HW110628   2.116   1.007   0.938
 3394SOL    HW210629   2.047   1.155   0.941
 3395SOL     OW10630   2.482   1.786   1.439
 3395SOL    HW110631   2.390   1.769   1.474
 3395SOL    HW210632   2.510   1.878   1.465
 3396SOL     OW10633   2.468   0.964   0.123
 3396SOL    HW110634   2.475   1.048   0.069
 3396SOL    HW210635   2.514   0.977   0.211
 3397SOL     OW10636   3.456   0.114   1.480
 3397SOL    HW110637   3.438   0.181   1.408
 3397SOL    HW210638   3.453   0.160   1.569
 3398SOL     OW10639   1.984   0.643   0.563
 3398SOL    HW110640   1.939   0.555   0.580
 3398SOL    HW210641   1.983   0.697   0.647
 3399SOL     OW10642   3.704   1.767   0.359
 3399SOL    HW110643   3.758   1.738   0.439
 3399SOL    HW210644   3.734   1.857   0.330
 3400SOL     OW10645   1.889   1.596   0.117
 3400SOL    HW110646   1.870   1.500   0.138
 3400SOL    HW210647   1.856   1.654   0.192
 3401SOL     OW10648   3.551   0.922   0.612
 3401SOL    HW110649   3.646   0.893   0.620
 3401SOL    HW210650   3.543   0.987   0.537
 3402SOL     OW10651   3.503   1.108   0.432
 3402SOL    HW110652   3.589   1.110   0.380
 3402SOL    HW210653   3.517   1.155   0.520
 3403SOL     OW10654   1.975   0.737   1.597
 3403SOL    HW110655   2.063   0.724   1.642
 3403SOL    HW210656   1.962   0.834   1.575
 3404SOL     OW10657   2.475   1.365   0.726
 3404SOL    HW110658   2.426   1.278   0.735
 3404SOL    HW210659   2.452   1.408   0.639
 3405SOL     OW10660   3.155   1.228   1.423
 3405SOL    HW110661   3.192   1.155   1.365
 3405SOL    HW210662   3.207   1.233   1.508
 3406SOL     OW10663   2.671   0.004   0.502
 3406SOL    HW110664   2.711   0.095   0.493
 3406SOL    HW210665   2.571   0.012   0.508
 3407SOL     OW10666   2.059   0.976   1.264
 3407SOL    HW110667   2.148   0.931   1.250
 3407SOL    HW210668   1.986   0.911   1.245
 3408SOL     OW10669   3.387   0.999   0.190
 3408SOL    HW110670   3.324   0.923   0.203
 3408SOL    HW210671   3.435   1.017   0.276
 3409SOL     OW10672   3.049   1.792   1.616
 3409SOL    HW110673   3.073   1.852   1.540
 3409SOL    HW210674   3.056   1.697   1.586
 3410SOL     OW10675   2.179   0.251   1.801
 3410SOL    HW110676   2.250   0.322   1.807
 3410SOL    HW210677   2.091   0.290   1.829
 3411SOL     OW10678   3.328   1.417   0.953
 3411SOL    HW110679   3.269   1.423   1.033
 3411SOL    HW210680   3.313   1.329   0.907
 3412SOL     OW10681   3.529   1.714   0.572
 3412SOL    HW110682   3.488   1.691   0.484
 3412SOL    HW210683   3.511   1.640   0.637
 3413SOL     OW10684   2.460   0.729   0.270
 3413SOL    HW110685   2.484   0.798   0.202
 3413SOL    HW210686   2.382   0.762   0.324
 3414SOL     OW10687   3.143   0.345   0.944
 3414SOL    HW110688   3.057   0.295   0.931
 3414SOL    HW210689   3.205   0.291   1.000
 3415SOL     OW10690   3.438   1.662   0.307
 3415SOL    HW110691   3.527   1.708   0.310
 3415SOL    HW210692   3.417   1.638   0.212
 3416SOL     OW10693   2.669   0.605   1.465
 3416SOL    HW110694   2.622   0.602   1.554
 3416SOL    HW210695   2.618   0.550   1.399
 3417SOL     OW10696   3.256   0.469   1.674
 3417SOL    HW110697   3.236   0.512   1.762
 3417SOL    HW210698   3.334   0.407   1.683
 3418SOL     OW10699   2.835   0.890   1.572
 3418SOL    HW110700   2.881   0.806   1.543
 3418SOL    HW210701   2.779   0.924   1.497
 3419SOL     OW10702   2.853   0.410   1.242
 3419SOL    HW110703   2.776   0.444   1.296
 3419SOL    HW210704   2.819   0.359   1.163
 3420SOL     OW10705   2.903   0.701   0.429
 3420SOL    HW110706   2.929   0.697   0.525
 3420SOL    HW210707   2.818   0.650   0.415
 3421SOL     OW10708   1.938   0.811   0.789
 3421SOL    HW110709   2.037   0.799   0.798
 3421SOL    HW210710   1.914   0.906   0.810
 3422SOL     OW10711   2.727   0.348   0.195
 3422SOL    HW110712   2.786   0.411   0.146
 3422SOL    HW210713   2.746   0.254   0.166
 3423SOL     OW10714   3.581   0.585   1.831
 3423SOL    HW110715   3.555   0.674   1.795
 3423SOL    HW210716   3.579   0.517   1.758
 3424SOL     OW10717   3.224   1.144   0.545
 3424SOL    HW110718   3.307   1.115   0.497
 3424SOL    HW210719   3.175   1.211   0.489
 3425SOL     OW10720   2.412   0.196   0.885
 3425SOL    HW110721   2.407   0.191   0.985
 3425SOL    HW210722   2.414   0.292   0.856
 3426SOL     OW10723   2.870   1.456   0.477
 3426SOL    HW110724   2.824   1.528   0.425
 3426SOL    HW210725   2.866   1.476   0.575
 3427SOL     OW10726   2.213   1.801   0.853
 3427SOL    HW110727   2.263   1.715   0.859
 3427SOL    HW210728   2.278   1.878   0.850
 3428SOL     OW10729   3.657   1.066   0.873
 3428SOL    HW110730   3.595   1.051   0.797
 3428SOL    HW210731   3.605   1.077   0.958
 3429SOL     OW10732   3.089   1.550   1.506
 3429SOL    HW110733   3.095   1.473   1.570
 3429SOL    HW210734   3.037   1.524   1.426
 3430SOL     OW10735   2.183   0.943   0.242
 3430SOL    HW110736   2.265   0.982   0.200
 3430SOL    HW210737   2.156   0.861   0.193
 3431SOL     OW10738   3.320   0.735   0.728
 3431SOL    HW110739   3.315   0.670   0.803
 3431SOL    HW210740   3.400   0.794   0.741
 3432SOL     OW10741   2.323   1.266   1.727
 3432SOL    HW110742   2.273   1.267   1.641
 3432SOL    HW210743   2.260   1.248   1.803
 3433SOL     OW10744   2.973   1.776   0.237
 3433SOL    HW110745   2.913   1.714   0.287
 3433SOL    HW210746   3.004   1.732   0.152
 3434SOL     OW10747   2.064   0.285   1.498
 3434SOL    HW110748   1.984   0.345   1.485
 3434SOL    HW210749   2.054   0.236   1.584
 3435SOL     OW10750   3.494   1.377   0.081
 3435SOL    HW110751   3.462   1.471   0.071
 3435SOL    HW210752   3.418   1.314   0.069
 3436SOL     OW10753   2.326   1.743   0.323
 3436SOL    HW110754   2.359   1.782   0.409
 3436SOL    HW210755   2.402   1.736   0.258
 3437SOL     OW10756   3.262   0.107   0.426
 3437SOL    HW110757   3.238   0.070   0.336
 3437SOL    HW210758   3.361   0.123   0.430
 3438SOL     OW10759   2.111   1.785   1.241
 3438SOL    HW110760   2.168   1.720   1.291
 3438SOL    HW210761   2.095   1.752   1.148
 3439SOL     OW10762   2.802   1.698   0.904
 3439SOL    HW110763   2.882   1.641   0.925
 3439SOL    HW210764   2.753   1.658   0.827
 3440SOL     OW10765   2.244   0.700   0.480
 3440SOL    HW110766   2.289   0.610   0.477
 3440SOL    HW210767   2.150   0.689   0.513
 3441SOL     OW10768   3.409   0.222   1.729
 3441SOL    HW110769   3.404   0.259   1.821
 3441SOL    HW210770   3.337   0.153   1.717
 3442SOL     OW10771   2.476   0.122   0.117
 3442SOL    HW110772   2.574   0.100   0.124
 3442SOL    HW210773   2.445   0.105   0.024
 3443SOL     OW10774   2.643   0.264   1.749
 3443SOL    HW110775   2.710   0.203   1.792
 3443SOL    HW210776   2.570   0.283   1.814
 3444SOL     OW10777   2.750   1.514   1.195
 3444SOL    HW110778   2.727   1.489   1.101
 3444SOL    HW210779   2.811   1.445   1.234
 3445SOL     OW10780   3.213   0.590   1.433
 3445SOL    HW110781   3.241   0.547   1.518
 3445SOL    HW210782   3.238   0.686   1.434
 3446SOL     OW10783   2.665   1.402   0.924
 3446SOL    HW110784   2.755   1.416   0.882
 3446SOL    HW210785   2.594   1.404   0.853
 3447SOL     OW10786   2.784   0.503   0.899
 3447SOL    HW110787   2.759   0.494   0.803
 3447SOL    HW210788   2.832   0.421   0.930
 3448SOL     OW10789   2.401   0.064   0.512
 3448SOL    HW110790   2.320   0.065   0.570
 3448SOL    HW210791   2.404   0.147   0.457
 3449SOL     OW10792   3.296   1.188   0.041
 3449SOL    HW110793   3.328   1.112   0.098
 3449SOL    HW210794   3.204   1.215   0.071
 3450SOL     OW10795   2.159   0.035   0.171
 3450SOL    HW110796   2.208   0.119   0.150
 3450SOL    HW210797   2.221  -0.030   0.216
 3451SOL     OW10798   2.797   0.236   0.480
 3451SOL    HW110799   2.749   0.277   0.402
 3451SOL    HW210800   2.896   0.234   0.461
 3452SOL     OW10801   2.938   0.683   1.464
 3452SOL    HW110802   2.858   0.622   1.467
 3452SOL    HW210803   3.019   0.630   1.440
 3453SOL     OW10804   3.089   1.570   0.793
 3453SOL    HW110805   3.110   1.644   0.728
 3453SOL    HW210806   3.157   1.570   0.866
 3454SOL     OW10807   2.321   1.152   0.741
 3454SOL    HW110808   2.250   1.125   0.806
 3454SOL    HW210809   2.295   1.124   0.648
 3455SOL     OW10810   3.133   1.797   0.591
 3455SOL    HW110811   3.177   1.861   0.527
 3455SOL    HW210812   3.083   1.849   0.661
 3456SOL     OW10813   2.894   0.549   0.016
 3456SOL    HW110814   2.853   0.631  -0.023
 3456SOL    HW210815   2.958   0.575   0.089
 3457SOL     OW10816   1.940   0.556   1.386
 3457SOL    HW110817   2.032   0.555   1.345
 3457SOL    HW210818   1.934   0.630   1.453
 3458SOL     OW10819   2.423   0.222   1.147
 3458SOL    HW110820   2.461   0.138   1.184
 3458SOL    HW210821   2.335   0.241   1.191
 3459SOL     OW10822   2.728   0.454   0.642
 3459SOL    HW110823   2.696   0.526   0.580
 3459SOL    HW210824   2.752   0.373   0.589
 3460SOL     OW10825   2.879   0.039   0.753
 3460SOL    HW110826   2.807   0.044   0.684
 3460SOL    HW210827   2.855  -0.030   0.822
 3461SOL     OW10828   3.291   1.173   0.867
 3461SOL    HW110829   3.236   1.089   0.860
 3461SOL    HW210830   3.317   1.202   0.775
 3462SOL     OW10831   3.328   0.590   0.992
 3462SOL    HW110832   3.298   0.495   0.999
 3462SOL    HW210833   3.401   0.606   1.058
 3463SOL     OW10834   3.719   0.833   0.377
 3463SOL    HW110835   3.761   0.769   0.441
 3463SOL    HW210836   3.681   0.782   0.299
 3464SOL     OW10837   2.350   1.385   0.174
 3464SOL    HW110838   2.263   1.370   0.221
 3464SOL    HW210839   2.333   1.411   0.079
 3465SOL     OW10840   3.526   1.280   0.657
 3465SOL    HW110841   3.625   1.288   0.671
 3465SOL    HW210842   3.481   1.364   0.688
 3466SOL     OW10843   3.252   0.575   0.078
 3466SOL    HW110844   3.198   0.554   0.159
 3466SOL    HW210845   3.343   0.534   0.087
 3467SOL     OW10846   2.389   0.256   0.328
 3467SOL    HW110847   2.416   0.197   0.253
 3467SOL    HW210848   2.389   0.351   0.297
 3468SOL     OW10849   3.616   1.223   1.588
 3468SOL    HW110850   3.707   1.184   1.575
 3468SOL    HW210851   3.624   1.319   1.612
 3469SOL     OW10852   2.926   1.347   1.340
 3469SOL    HW110853   2.846   1.324   1.395
 3469SOL    HW210854   3.009   1.321   1.389
 3470SOL     OW10855   3.454   1.629   1.625
 3470SOL    HW110856   3.481   1.663   1.535
 3470SOL    HW210857   3.533   1.591   1.671
 3471SOL     OW10858   2.973   1.195   1.100
 3471SOL    HW110859   2.933   1.239   1.181
 3471SOL    HW210860   2.932   1.232   1.017
 3472SOL     OW10861   3.500   1.099   1.079
 3472SOL    HW110862   3.505   1.180   1.138
 3472SOL    HW210863   3.414   1.101   1.028
 3473SOL     OW10864   2.777   0.089   1.402
 3473SOL    HW110865   2.802   0.069   1.307
 3473SOL    HW210866   2.849   0.145   1.444
 3474SOL     OW10867   2.842   1.116   1.719
 3474SOL    HW110868   2.743   1.122   1.729
 3474SOL    HW210869   2.865   1.036   1.663
 3475SOL     OW10870   2.567   1.050   0.368
 3475SOL    HW110871   2.553   1.057   0.467
 3475SOL    HW210872   2.651   0.999   0.350
 3476SOL     OW10873   2.272   0.813   1.251
 3476SOL    HW110874   2.358   0.825   1.301
 3476SOL    HW210875   2.230   0.726   1.278
 3477SOL     OW10876   3.136   0.386   1.262
 3477SOL    HW110877   3.157   0.460   1.326
 3477SOL    HW210878   3.047   0.403   1.219
 3478SOL     OW10879   1.926   1.564   1.331
 3478SOL    HW110880   1.880   1.646   1.297
 3478SOL    HW210881   2.024   1.583   1.340
 3479SOL     OW10882   2.229   1.100   0.501
 3479SOL    HW110883   2.222   1.183   0.445
 3479SOL    HW210884   2.233   1.020   0.441
 3480SOL     OW10885   2.428   0.537   0.865
 3480SOL    HW110886   2.440   0.603   0.791
 3480SOL    HW210887   2.474   0.571   0.948
 3481SOL     OW10888   3.114   1.348   0.388
 3481SOL    HW110889   3.164   1.425   0.428
 3481SOL    HW210890   3.019   1.350   0.420
 3482SOL     OW10891   3.134   1.445   1.142
 3482SOL    HW110892   3.181   1.458   1.229
 3482SOL    HW210893   3.068   1.371   1.151
 3483SOL     OW10894   3.444   0.639   0.472
 3483SOL    HW110895   3.413   0.700   0.545
 3483SOL    HW210896   3.494   0.691   0.403
 3484SOL     OW10897   2.216   1.510   1.329
 3484SOL    HW110898   2.195   1.466   1.242
 3484SOL    HW210899   2.313   1.536   1.332
 3485SOL     OW10900   2.264   0.751   1.598
 3485SOL    HW110901   2.332   0.806   1.551
 3485SOL    HW210902   2.304   0.663   1.625
 3486SOL     OW10903   3.449   0.779   1.670
 3486SOL    HW110904   3.357   0.817   1.665
 3486SOL    HW210905   3.509   0.826   1.605
 3487SOL     OW10906   2.875   0.105   1.770
 3487SOL    HW110907   2.881   0.190   1.718
 3487SOL    HW210908   2.907   0.029   1.713
 3488SOL     OW10909   2.366   0.050   1.740
 3488SOL    HW110910   2.324  -0.007   1.670
 3488SOL    HW210911   2.300   0.119   1.772
 3489SOL     OW10912   2.435   0.870   1.029
 3489SOL    HW110913   2.479   0.959   1.020
 3489SOL    HW210914   2.372   0.870   1.106
 3490SOL     OW10915   3.222   0.862   1.045
 3490SOL    HW110916   3.147   0.862   0.979
 3490SOL    HW210917   3.259   0.770   1.054
 3491SOL     OW10918   3.071   0.525   0.275
 3491SOL    HW110919   3.084   0.441   0.329
 3491SOL    HW210920   3.042   0.599   0.335
 3492SOL     OW10921   2.169   0.213   1.231
 3492SOL    HW110922   2.146   0.250   1.321
 3492SOL    HW210923   2.139   0.118   1.225
 3493SOL     OW10924   1.899   1.310   1.282
 3493SOL    HW110925   1.952   1.261   1.350
 3493SOL    HW210926   1.921   1.408   1.287
 3494SOL     OW10927   2.594   0.634   1.064
 3494SOL    HW110928   2.653   0.608   0.988
 3494SOL    HW210929   2.566   0.730   1.053
 3495SOL     OW10930   3.590   0.935   1.854
 3495SOL    HW110931   3.544   0.928   1.765
 3495SOL    HW210932   3.528   0.979   1.920
 3496SOL     OW10933   2.169   0.063   0.618
 3496SOL    HW110934   2.158   0.157   0.651
 3496SOL    HW210935   2.164   0.000   0.695
 3497SOL     OW10936   3.484   0.367   0.374
 3497SOL    HW110937   3.486   0.291   0.438
 3497SOL    HW210938   3.436   0.444   0.414
 3498SOL     OW10939   2.885   0.766   0.966
 3498SOL    HW110940   2.900   0.787   1.062
 3498SOL    HW210941   2.855   0.671   0.957
 3499SOL     OW10942   2.842   1.573   1.700
 3499SOL    HW110943   2.822   1.617   1.612
 3499SOL    HW210944   2.881   1.482   1.684
 3500SOL     OW10945   3.721   1.518   1.605
 3500SOL    HW110946   3.735   1.545   1.510
 3500SOL    HW210947   3.804   1.540   1.658
 3501SOL     OW10948   2.212   0.898   1.804
 3501SOL    HW110949   2.288   0.942   1.852
 3501SOL    HW210950   2.247   0.851   1.722
 3502SOL     OW10951   3.402   0.274   0.125
 3502SOL    HW110952   3.341   0.199   0.148
 3502SOL    HW210953   3.424   0.326   0.208
 3503SOL     OW10954   3.165   0.838   0.042
 3503SOL    HW110955   3.199   0.745   0.057
 3503SOL    HW210956   3.183   0.865  -0.053
 3504SOL     OW10957   2.930   1.333   0.849
 3504SOL    HW110958   2.937   1.249   0.794
 3504SOL    HW210959   2.992   1.402   0.813
 3505SOL     OW10960   2.181   0.810   0.949
 3505SOL    HW110961   2.274   0.846   0.954
 3505SOL    HW210962   2.175   0.725   1.001
 3506SOL     OW10963   2.201   0.509   1.006
 3506SOL    HW110964   2.149   0.426   0.989
 3506SOL    HW210965   2.278   0.514   0.942
 3507SOL     OW10966   3.000   0.380   1.678
 3507SOL    HW110967   2.955   0.443   1.742
 3507SOL    HW210968   3.093   0.411   1.661
 3508SOL     OW10969   3.022   0.207   1.477
 3508SOL    HW110970   3.022   0.271   1.554
 3508SOL    HW210971   3.050   0.255   1.394
 3509SOL     OW10972   1.870   1.326   0.200
 3509SOL    HW110973   1.777   1.347   0.169
 3509SOL    HW210974   1.880   1.227   0.213
 3510SOL     OW10975   1.950   1.801   0.927
 3510SOL    HW110976   1.908   1.715   0.900
 3510SOL    HW210977   2.044   1.804   0.893
 3511SOL     OW10978   2.366   1.568   0.910
 3511SOL    HW110979   2.432   1.642   0.919
 3511SOL    HW210980   2.410   1.489   0.868
 3512SOL     OW10981   2.864   0.796   1.238
 3512SOL    HW110982   2.905   0.764   1.324
 3512SOL    HW210983   2.768   0.769   1.235
 3513SOL     OW10984   1.902   0.544   1.114
 3513SOL    HW110985   1.987   0.511   1.073
 3513SOL    HW210986   1.915   0.559   1.212
 3514SOL     OW10987   2.051   0.520   1.722
 3514SOL    HW110988   2.110   0.480   1.652
 3514SOL    HW210989   1.993   0.591   1.681
 3515SOL     OW10990   3.231   0.950   1.660
 3515SOL    HW110991   3.270   1.039   1.680
 3515SOL    HW210992   3.241   0.930   1.563
 3516SOL     OW10993   2.677   0.572   0.325
 3516SOL    HW110994   2.684   0.483   0.279
 3516SOL    HW210995   2.583   0.606   0.317
 3517SOL     OW10996   3.519   0.604   1.206
 3517SOL    HW110997   3.481   0.535   1.268
 3517SOL    HW210998   3.601   0.568   1.162
 3518SOL     OW10999   2.114   1.564   1.744
 3518SOL    HW111000   2.084   1.621   1.820
 3518SOL    HW211001   2.107   1.467   1.770
 3519SOL     OW11002   2.533   0.464   1.269
 3519SOL    HW111003   2.499   0.375   1.239
 3519SOL    HW211004   2.559   0.518   1.189
 3520SOL     OW11005   2.792   1.678   1.465
 3520SOL    HW111006   2.768   1.660   1.370
 3520SOL    HW211007   2.822   1.772   1.475
 3521SOL     OW11008   2.335   0.500   0.191
 3521SOL    HW111009   2.396   0.580   0.195
 3521SOL    HW211010   2.240   0.531   0.198
 3522SOL     OW11011   2.021   1.137   1.466
 3522SOL    HW111012   2.043   1.076   1.542
 3522SOL    HW211013   2.031   1.088   1.380
 3523SOL     OW11014   3.209   1.059   1.234
 3523SOL    HW111015   3.233   0.996   1.160
 3523SOL    HW211016   3.119   1.099   1.216
 3524SOL     OW11017   3.164   0.855   0.309
 3524SOL    HW111018   3.078   0.824   0.351
 3524SOL    HW211019   3.160   0.841   0.210
 3525SOL     OW11020   3.621   1.747   1.154
 3525SOL    HW111021   3.682   1.777   1.081
 3525SOL    HW211022   3.583   1.658   1.132
 3526SOL     OW11023   3.114   1.731   1.128
 3526SOL    HW111024   3.198   1.736   1.074
 3526SOL    HW211025   3.091   1.635   1.146
 3527SOL     OW11026   1.945   1.258   1.022
 3527SOL    HW111027   1.940   1.257   1.122
 3527SOL    HW211028   1.862   1.217   0.984
 3528SOL     OW11029   2.550   1.662   1.716
 3528SOL    HW111030   2.494   1.743   1.725
 3528SOL    HW211031   2.602   1.666   1.630
 3529SOL     OW11032   2.765   0.086   0.133
 3529SOL    HW111033   2.816   0.087   0.047
 3529SOL    HW211034   2.821   0.044   0.204
 3530SOL     OW11035   3.588   0.135   0.523
 3530SOL    HW111036   3.661   0.118   0.456
 3530SOL    HW211037   3.557   0.048   0.561
 3531SOL     OW11038   3.250   1.573   0.477
 3531SOL    HW111039   3.317   1.585   0.403
 3531SOL    HW211040   3.210   1.662   0.500
 3532SOL     OW11041   1.992   1.794   1.851
 3532SOL    HW111042   1.951   1.720   1.904
 3532SOL    HW211043   2.056   1.845   1.909
 3533SOL     OW11044   3.142   0.927   0.672
 3533SOL    HW111045   3.202   0.846   0.674
 3533SOL    HW211046   3.182   0.996   0.612
 3534SOL     OW11047   2.692   1.273   1.422
 3534SOL    HW111048   2.687   1.306   1.517
 3534SOL    HW211049   2.606   1.292   1.376
 3535SOL     OW11050   2.534   1.616   0.154
 3535SOL    HW111051   2.543   1.626   0.055
 3535SOL    HW211052   2.494   1.527   0.175
 3536SOL     OW11053   3.512   1.720   1.394
 3536SOL    HW111054   3.565   1.730   1.310
 3536SOL    HW211055   3.485   1.810   1.428
 3537SOL     OW11056   3.703   0.175   0.963
 3537SOL    HW111057   3.742   0.090   0.927
 3537SOL    HW211058   3.605   0.177   0.944
 3538SOL     OW11059   2.125   0.326   0.720
 3538SOL    HW111060   2.046   0.377   0.686
 3538SOL    HW211061   2.116   0.311   0.818
 3539SOL     OW11062   3.056   1.612   0.031
 3539SOL    HW111063   3.062   1.519   0.068
 3539SOL    HW211064   2.997   1.612  -0.049
 3540SOL     OW11065   2.684   1.002   1.372
 3540SOL    HW111066   2.724   1.001   1.280
 3540SOL    HW211067   2.694   1.094   1.412
 3541SOL     OW11068   2.778   0.910   0.291
 3541SOL    HW111069   2.841   0.948   0.223
 3541SOL    HW211070   2.818   0.827   0.330
 3542SOL     OW11071   3.366   1.607   0.044
 3542SOL    HW111072   3.274   1.644   0.051
 3542SOL    HW211073   3.404   1.627  -0.046
 3543SOL     OW11074   2.234   1.288   1.490
 3543SOL    HW111075   2.221   1.381   1.456
 3543SOL    HW211076   2.150   1.236   1.477
 3544SOL     OW11077   3.476   1.292   1.289
 3544SOL    HW111078   3.536   1.295   1.369
 3544SOL    HW211079   3.401   1.356   1.302
 3545SOL     OW11080   2.901   1.098   0.696
 3545SOL    HW111081   2.831   1.051   0.750
 3545SOL    HW211082   2.960   1.030   0.653
 3546SOL     OW11083   2.876   0.236   0.971
 3546SOL    HW111084   2.868   0.200   0.878
 3546SOL    HW211085   2.874   0.160   1.036
 3547SOL     OW11086   2.452   1.487   0.491
 3547SOL    HW111087   2.494   1.429   0.421
 3547SOL    HW211088   2.408   1.566   0.447
 3548SOL     OW11089   3.571   0.385   1.381
 3548SOL    HW111090   3.644   0.454   1.385
 3548SOL    HW211091   3.599   0.310   1.322
 3549SOL     OW11092   2.117   1.348   0.290
 3549SOL    HW111093   2.021   1.349   0.263
 3549SOL    HW211094   2.129   1.401   0.374
 3550SOL     OW11095   1.967   1.013   1.726
 3550SOL    HW111096   1.890   0.980   1.780
 3550SOL    HW211097   2.052   0.983   1.768
 3551SOL     OW11098   2.534   0.203   1.489
 3551SOL    HW111099   2.624   0.187   1.449
 3551SOL    HW211100   2.542   0.208   1.588
 3552SOL     OW11101   1.937   0.345   0.033
 3552SOL    HW111102   1.845   0.317   0.004
 3552SOL    HW211103   1.968   0.422  -0.023
 3553SOL     OW11104   3.302   0.856   1.398
 3553SOL    HW111105   3.245   0.908   1.335
 3553SOL    HW211106   3.398   0.868   1.374
 3554SOL     OW11107   1.934   0.166   0.318
 3554SOL    HW111108   1.917   0.249   0.264
 3554SOL    HW211109   2.024   0.129   0.296
 3555SOL     OW11110   3.045   1.335   0.119
 3555SOL    HW111111   2.946   1.324   0.121
 3555SOL    HW211112   3.079   1.350   0.212
 3556SOL     OW11113   2.475   0.842   1.431
 3556SOL    HW111114   2.531   0.923   1.414
 3556SOL    HW211115   2.534   0.762   1.434
 3557SOL     OW11116   3.355   1.767   0.959
 3557SOL    HW111117   3.388   1.831   0.890
 3557SOL    HW211118   3.421   1.761   1.034
 3558SOL     OW11119   2.578   0.565   1.708
 3558SOL    HW111120   2.597   0.630   1.782
 3558SOL    HW211121   2.638   0.485   1.717
 3559SOL     OW11122   3.312   1.220   1.633
 3559SOL    HW111123   3.303   1.210   1.732
 3559SOL    HW211124   3.408   1.213   1.607
 3560SOL     OW11125   2.252   1.741   1.560
 3560SOL    HW111126   2.161   1.782   1.558
 3560SOL    HW211127   2.245   1.647   1.592
 3561SOL     OW11128   3.536   0.883   1.254
 3561SOL    HW111129   3.509   0.794   1.217
 3561SOL    HW211130   3.537   0.951   1.181
 3562SOL     OW11131   3.087   0.325   0.449
 3562SOL    HW111132   3.152   0.251   0.438
 3562SOL    HW211133   3.107   0.375   0.533
 3563SOL     OW11134   2.456   0.745   0.652
 3563SOL    HW111135   2.506   0.830   0.633
 3563SOL    HW211136   2.368   0.747   0.604
 3564SOL     OW11137   3.639   0.342   1.642
 3564SOL    HW111138   3.622   0.373   1.548
 3564SOL    HW211139   3.555   0.305   1.680
 3565SOL     OW11140   3.592   0.934   1.517
 3565SOL    HW111141   3.630   1.025   1.532
 3565SOL    HW211142   3.584   0.917   1.418
 3566SOL     OW11143   2.721   1.374   0.016
 3566SOL    HW111144   2.675   1.389   0.104
 3566SOL    HW211145   2.765   1.459  -0.014
 3567SOL     OW11146   2.523   1.790   0.953
 3567SOL    HW111147   2.477   1.878   0.940
 3567SOL    HW211148   2.622   1.802   0.946
 3568SOL     OW11149   2.721   0.956   0.861
 3568SOL    HW111150   2.775   0.887   0.909
 3568SOL    HW211151   2.689   1.025   0.927
 3569SOL     OW11152   2.945   0.984   0.087
 3569SOL    HW111153   2.922   1.037   0.005
 3569SOL    HW211154   3.026   0.928   0.068
 3570SOL     OW11155   3.723   1.569   0.851
 3570SOL    HW111156   3.652   1.557   0.781
 3570SOL    HW211157   3.724   1.490   0.911
 3571SOL     OW11158   2.083   1.314   1.844
 3571SOL    HW111159   2.018   1.241   1.823
 3571SOL    HW211160   2.087   1.328   1.942
 3572SOL     OW11161   1.941   1.240   0.653
 3572SOL    HW111162   1.940   1.193   0.741
 3572SOL    HW211163   2.023   1.212   0.602
 3573SOL     OW11164   2.534   1.391   1.624
 3573SOL    HW111165   2.456   1.341   1.662
 3573SOL    HW211166   2.531   1.486   1.655
 3574SOL     OW11167   3.686   0.192   1.227
 3574SOL    HW111168   3.682   0.102   1.271
 3574SOL    HW211169   3.689   0.181   1.128
 3575SOL     OW11170   2.290   0.424   0.520
 3575SOL    HW111171   2.320   0.352   0.458
 3575SOL    HW211172   2.251   0.384   0.603
 3576SOL     OW11173   3.567   1.487   1.104
 3576SOL    HW111174   3.474   1.462   1.077
 3576SOL    HW211175   3.593   1.437   1.186
 3577SOL     OW11176   2.179   0.547   1.280
 3577SOL    HW111177   2.217   0.488   1.352
 3577SOL    HW211178   2.219   0.521   1.192
 3578SOL     OW11179   2.674   1.586   0.687
 3578SOL    HW111180   2.706   1.596   0.593
 3578SOL    HW211181   2.595   1.524   0.689
 3579SOL     OW11182   3.286   0.214   1.112
 3579SOL    HW111183   3.338   0.149   1.167
 3579SOL    HW211184   3.237   0.277   1.173
 3580SOL     OW11185   2.863   0.034   1.154
 3580SOL    HW111186   2.800  -0.038   1.123
 3580SOL    HW211187   2.956  -0.002   1.154
 3581SOL     OW11188   2.632   1.330   0.301
 3581SOL    HW111189   2.586   1.243   0.318
 3581SOL    HW211190   2.723   1.327   0.342
 3582SOL     OW11191   2.480   1.567   1.284
 3582SOL    HW111192   2.475   1.649   1.341
 3582SOL    HW211193   2.569   1.564   1.239
 3583SOL     OW11194   3.214   0.052   0.168
 3583SOL    HW111195   3.249   0.011   0.084
 3583SOL    HW211196   3.124   0.014   0.188
 3584SOL     OW11197   3.162   0.453   0.691
 3584SOL    HW111198   3.103   0.533   0.695
 3584SOL    HW211199   3.177   0.418   0.784
 3585SOL     OW11200   3.455   0.221   0.882
 3585SOL    HW111201   3.371   0.220   0.936
 3585SOL    HW211202   3.457   0.304   0.826
 3586SOL     OW11203   1.901   1.077   0.300
 3586SOL    HW111204   2.000   1.066   0.291
 3586SOL    HW211205   1.861   0.991   0.332
 3587SOL     OW11206   2.737   1.646   0.337
 3587SOL    HW111207   2.660   1.611   0.283
 3587SOL    HW211208   2.705   1.717   0.399
 3588SOL     OW11209   2.092   0.628   1.975
 3588SOL    HW111210   1.999   0.626   2.012
 3588SOL    HW211211   2.093   0.589   1.883
 3589SOL     OW11212   2.087   0.275   2.858
 3589SOL    HW111213   2.122   0.258   2.950
 3589SOL    HW211214   1.999   0.230   2.846
 3590SOL     OW11215   1.881   0.368   2.509
 3590SOL    HW111216   1.799   0.411   2.548
 3590SOL    HW211217   1.853   0.295   2.446
 3591SOL     OW11218   2.431   1.275   3.027
 3591SOL    HW111219   2.338   1.268   2.990
 3591SOL    HW211220   2.442   1.364   3.071
 3592SOL     OW11221   3.417   1.511   2.565
 3592SOL    HW111222   3.360   1.495   2.646
 3592SOL    HW211223   3.358   1.521   2.485
 3593SOL     OW11224   2.997   0.703   2.579
 3593SOL    HW111225   3.054   0.781   2.554
 3593SOL    HW211226   2.937   0.729   2.655
 3594SOL     OW11227   3.617   0.607   2.093
 3594SOL    HW111228   3.605   0.594   1.994
 3594SOL    HW211229   3.587   0.526   2.142
 3595SOL     OW11230   2.630   1.144   2.885
 3595SOL    HW111231   2.552   1.161   2.945
 3595SOL    HW211232   2.664   1.231   2.849
 3596SOL     OW11233   2.712   0.798   3.685
 3596SOL    HW111234   2.708   0.874   3.750
 3596SOL    HW211235   2.734   0.834   3.594
 3597SOL     OW11236   2.547   1.012   2.527
 3597SOL    HW111237   2.616   0.996   2.597
 3597SOL    HW211238   2.474   1.069   2.565
 3598SOL     OW11239   2.548   1.161   3.665
 3598SOL    HW111240   2.608   1.240   3.679
 3598SOL    HW211241   2.462   1.192   3.624
 3599SOL     OW11242   2.197   1.435   2.923
 3599SOL    HW111243   2.119   1.404   2.870
 3599SOL    HW211244   2.255   1.493   2.866
 3600SOL     OW11245   3.322   1.505   3.201
 3600SOL    HW111246   3.346   1.599   3.227
 3600SOL    HW211247   3.306   1.451   3.283
 3601SOL     OW11248   2.300   0.392   3.361
 3601SOL    HW111249   2.382   0.336   3.370
 3601SOL    HW211250   2.219   0.334   3.365
 3602SOL     OW11251   3.465   0.447   2.599
 3602SOL    HW111252   3.391   0.493   2.549
 3602SOL    HW211253   3.516   0.515   2.652
 3603SOL     OW11254   2.093   1.713   2.345
 3603SOL    HW111255   2.127   1.790   2.399
 3603SOL    HW211256   2.137   1.713   2.255
 3604SOL     OW11257   2.989   1.341   3.552
 3604SOL    HW111258   3.036   1.341   3.640
 3604SOL    HW211259   2.941   1.254   3.541
 3605SOL     OW11260   2.092   1.434   2.400
 3605SOL    HW111261   2.066   1.530   2.400
 3605SOL    HW211262   2.021   1.380   2.445
 3606SOL     OW11263   2.102   1.091   2.748
 3606SOL    HW111264   2.116   1.007   2.800
 3606SOL    HW211265   2.047   1.155   2.803
 3607SOL     OW11266   2.482   1.786   3.301
 3607SOL    HW111267   2.390   1.769   3.336
 3607SOL    HW211268   2.510   1.878   3.327
 3608SOL     OW11269   2.468   0.964   1.985
 3608SOL    HW111270   2.475   1.048   1.931
 3608SOL    HW211271   2.514   0.977   2.073
 3609SOL     OW11272   3.456   0.114   3.342
 3609SOL    HW111273   3.438   0.181   3.270
 3609SOL    HW211274   3.453   0.160   3.431
 3610SOL     OW11275   1.984   0.643   2.425
 3610SOL    HW111276   1.939   0.555   2.442
 3610SOL    HW211277   1.983   0.697   2.509
 3611SOL     OW11278   3.704   1.767   2.221
 3611SOL    HW111279   3.758   1.738   2.301
 3611SOL    HW211280   3.734   1.857   2.192
 3612SOL     OW11281   1.889   1.596   1.979
 3612SOL    HW111282   1.870   1.500   2.000
 3612SOL    HW211283   1.856   1.654   2.054
 3613SOL     OW11284   3.551   0.922   2.474
 3613SOL    HW111285   3.646   0.893   2.482
 3613SOL    HW211286   3.543   0.987   2.399
 3614SOL     OW11287   3.503   1.108   2.294
 3614SOL    HW111288   3.589   1.110   2.242
 3614SOL    HW211289   3.517   1.155   2.382
 3615SOL     OW11290   1.975   0.737   3.459
 3615SOL    HW111291   2.063   0.724   3.504
 3615SOL    HW211292   1.962   0.834   3.437
 3616SOL     OW11293   2.475   1.365   2.588
 3616SOL    HW111294   2.426   1.278   2.597
 3616SOL    HW211295   2.452   1.408   2.501
 3617SOL     OW11296   3.155   1.228   3.285
 3617SOL    HW111297   3.192   1.155   3.227
 3617SOL    HW211298   3.207   1.233   3.370
 3618SOL     OW11299   2.671   0.004   2.364
 3618SOL    HW111300   2.711   0.095   2.355
 3618SOL    HW211301   2.571   0.012   2.370
 3619SOL     OW11302   2.059   0.976   3.126
 3619SOL    HW111303   2.148   0.931   3.112
 3619SOL    HW211304   1.986   0.911   3.107
 3620SOL     OW11305   3.387   0.999   2.052
 3620SOL    HW111306   3.324   0.923   2.065
 3620SOL    HW211307   3.435   1.017   2.138
 3621SOL     OW11308   3.049   1.792   3.478
 3621SOL    HW111309   3.073   1.852   3.402
 3621SOL    HW211310   3.056   1.697   3.448
 3622SOL     OW11311   2.179   0.251   3.663
 3622SOL    HW111312   2.250   0.322   3.669
 3622SOL    HW211313   2.091   0.290   3.691
 3623SOL     OW11314   3.328   1.417   2.815
 3623SOL    HW111315   3.269   1.423   2.895
 3623SOL    HW211316   3.313   1.329   2.769
 3624SOL     OW11317   3.529   1.714   2.434
 3624SOL    HW111318   3.488   1.691   2.346
 3624SOL    HW211319   3.511   1.640   2.499
 3625SOL     OW11320   2.460   0.729   2.132
 3625SOL    HW111321   2.484   0.798   2.064
 3625SOL    HW211322   2.382   0.762   2.186
 3626SOL     OW11323   3.143   0.345   2.806
 3626SOL    HW111324   3.057   0.295   2.793
 3626SOL    HW211325   3.205   0.291   2.862
 3627SOL     OW11326   3.438   1.662   2.169
 3627SOL    HW111327   3.527   1.708   2.172
 3627SOL    HW211328   3.417   1.638   2.074
 3628SOL     OW11329   2.669   0.605   3.327
 3628SOL    HW111330   2.622   0.602   3.416
 3628SOL    HW211331   2.618   0.550   3.261
 3629SOL     OW11332   3.256   0.469   3.536
 3629SOL    HW111333   3.236   0.512   3.624
 3629SOL    HW211334   3.334   0.407   3.545
 3630SOL     OW11335   2.835   0.890   3.434
 3630SOL    HW111336   2.881   0.806   3.405
 3630SOL    HW211337   2.779   0.924   3.359
 3631SOL     OW11338   2.853   0.410   3.104
 3631SOL    HW111339   2.776   0.444   3.158
 3631SOL    HW211340   2.819   0.359   3.025
 3632SOL     OW11341   2.903   0.701   2.291
 3632SOL    HW111342   2.929   0.697   2.387
 3632SOL    HW211343   2.818   0.650   2.277
 3633SOL     OW11344   1.938   0.811   2.651
 3633SOL    HW111345   2.037   0.799   2.660
 3633SOL    HW211346   1.914   0.906   2.672
 3634SOL     OW11347   2.727   0.348   2.057
 3634SOL    HW111348   2.786   0.411   2.008
 3634SOL    HW211349   2.746   0.254   2.028
 3635SOL     OW11350   3.581   0.585   3.693
 3635SOL    HW111351   3.555   0.674   3.657
 3635SOL    HW211352   3.579   0.517   3.620
 3636SOL     OW11353   3.224   1.144   2.407
 3636SOL    HW111354   3.307   1.115   2.359
 3636SOL    HW211355   3.175   1.211   2.351
 3637SOL     OW11356   2.412   0.196   2.747
 3637SOL    HW111357   2.407   0.191   2.847
 3637SOL    HW211358   2.414   0.292   2.718
 3638SOL     OW11359   2.870   1.456   2.339
 3638SOL    HW111360   2.824   1.528   2.287
 3638SOL    HW211361   2.866   1.476   2.437
 3639SOL     OW11362   2.213   1.801   2.715
 3639SOL    HW111363   2.263   1.715   2.721
 3639SOL    HW211364   2.278   1.878   2.712
 3640SOL     OW11365   3.657   1.066   2.735
 3640SOL    HW111366   3.595   1.051   2.659
 3640SOL    HW211367   3.605   1.077   2.820
 3641SOL     OW11368   3.089   1.550   3.368
 3641SOL    HW111369   3.095   1.473   3.432
 3641SOL    HW211370   3.037   1.524   3.288
 3642SOL     OW11371   2.183   0.943   2.104
 3642SOL    HW111372   2.265   0.982   2.062
 3642SOL    HW211373   2.156   0.861   2.055
 3643SOL     OW11374   3.320   0.735   2.590
 3643SOL    HW111375   3.315   0.670   2.665
 3643SOL    HW211376   3.400   0.794   2.603
 3644SOL     OW11377   2.323   1.266   3.589
 3644SOL    HW111378   2.273   1.267   3.503
 3644SOL    HW211379   2.260   1.248   3.665
 3645SOL     OW11380   2.973   1.776   2.099
 3645SOL    HW111381   2.913   1.714   2.149
 3645SOL    HW211382   3.004   1.732   2.014
 3646SOL     OW11383   2.064   0.285   3.360
 3646SOL    HW111384   1.984   0.345   3.347
 3646SOL    HW211385   2.054   0.236   3.446
 3647SOL     OW11386   3.494   1.377   1.943
 3647SOL    HW111387   3.462   1.471   1.933
 3647SOL    HW211388   3.418   1.314   1.931
 3648SOL     OW11389   2.326   1.743   2.185
 3648SOL    HW111390   2.359   1.782   2.271
 3648SOL    HW211391   2.402   1.736   2.120
 3649SOL     OW11392   3.262   0.107   2.288
 3649SOL    HW111393   3.238   0.070   2.198
 3649SOL    HW211394   3.361   0.123   2.292
 3650SOL     OW11395   2.111   1.785   3.103
 3650SOL    HW111396   2.168   1.720   3.153
 3650SOL    HW211397   2.095   1.752   3.010
 3651SOL     OW11398   2.802   1.698   2.766
 3651SOL    HW111399   2.882   1.641   2.787
 3651SOL    HW211400   2.753   1.658   2.689
 3652SOL     OW11401   2.244   0.700   2.342
 3652SOL    HW111402   2.289   0.610   2.339
 3652SOL    HW211403   2.150   0.689   2.375
 3653SOL     OW11404   3.409   0.222   3.591
 3653SOL    HW111405   3.404   0.259   3.683
 3653SOL    HW211406   3.337   0.153   3.579
 3654SOL     OW11407   2.476   0.122   1.979
 3654SOL    HW111408   2.574   0.100   1.986
 3654SOL    HW211409   2.445   0.105   1.886
 3655SOL     OW11410   2.643   0.264   3.611
 3655SOL    HW111411   2.710   0.203   3.654
 3655SOL    HW211412   2.570   0.283   3.676
 3656SOL     OW11413   2.750   1.514   3.057
 3656SOL    HW111414   2.727   1.489   2.963
 3656SOL    HW211415   2.811   1.445   3.096
 3657SOL     OW11416   3.213   0.590   3.295
 3657SOL    HW111417   3.241   0.547   3.380
 3657SOL    HW211418   3.238   0.686   3.296
 3658SOL     OW11419   2.665   1.402   2.786
 3658SOL    HW111420   2.755   1.416   2.744
 3658SOL    HW211421   2.594   1.404   2.715
 3659SOL     OW11422   2.784   0.503   2.761
 3659SOL    HW111423   2.759   0.494   2.665
 3659SOL    HW211424   2.832   0.421   2.792
 3660SOL     OW11425   2.401   0.064   2.374
 3660SOL    HW111426   2.320   0.065   2.432
 3660SOL    HW211427   2.404   0.147   2.319
 3661SOL     OW11428   3.296   1.188   1.903
 3661SOL    HW111429   3.328   1.112   1.960
 3661SOL    HW211430   3.204   1.215   1.933
 3662SOL     OW11431   2.159   0.035   2.033
 3662SOL    HW111432   2.208   0.119   2.012
 3662SOL    HW211433   2.221  -0.030   2.078
 3663SOL     OW11434   2.797   0.236   2.342
 3663SOL    HW111435   2.749   0.277   2.264
 3663SOL    HW211436   2.896   0.234   2.323
 3664SOL     OW11437   2.938   0.683   3.326
 3664SOL    HW111438   2.858   0.622   3.329
 3664SOL    HW211439   3.019   0.630   3.302
 3665SOL     OW11440   3.089   1.570   2.655
 3665SOL    HW111441   3.110   1.644   2.590
 3665SOL    HW211442   3.157   1.570   2.728
 3666SOL     OW11443   2.321   1.152   2.603
 3666SOL    HW111444   2.250   1.125   2.668
 3666SOL    HW211445   2.295   1.124   2.510
 3667SOL     OW11446   3.133   1.797   2.453
 3667SOL    HW111447   3.177   1.861   2.389
 3667SOL    HW211448   3.083   1.849   2.523
 3668SOL     OW11449   2.894   0.549   1.878
 3668SOL    HW111450   2.853   0.631   1.839
 3668SOL    HW211451   2.958   0.575   1.951
 3669SOL     OW11452   1.940   0.556   3.248
 3669SOL    HW111453   2.032   0.555   3.207
 3669SOL    HW211454   1.934   0.630   3.315
 3670SOL     OW11455   2.423   0.222   3.009
 3670SOL    HW111456   2.461   0.138   3.046
 3670SOL    HW211457   2.335   0.241   3.053
 3671SOL     OW11458   2.728   0.454   2.504
 3671SOL    HW111459   2.696   0.526   2.442
 3671SOL    HW211460   2.752   0.373   2.451
 3672SOL     OW11461   2.879   0.039   2.615
 3672SOL    HW111462   2.807   0.044   2.546
 3672SOL    HW211463   2.855  -0.030   2.684
 3673SOL     OW11464   3.291   1.173   2.729
 3673SOL    HW111465   3.236   1.089   2.722
 3673SOL    HW211466   3.317   1.202   2.637
 3674SOL     OW11467   3.328   0.590   2.854
 3674SOL    HW111468   3.298   0.495   2.861
 3674SOL    HW211469   3.401   0.606   2.920
 3675SOL     OW11470   3.719   0.833   2.239
 3675SOL    HW111471   3.761   0.769   2.303
 3675SOL    HW211472   3.681   0.782   2.161
 3676SOL     OW11473   2.350   1.385   2.036
 3676SOL    HW111474   2.263   1.370   2.083
 3676SOL    HW211475   2.333   1.411   1.941
 3677SOL     OW11476   3.526   1.280   2.519
 3677SOL    HW111477   3.625   1.288   2.533
 3677SOL    HW211478   3.481   1.364   2.550
 3678SOL     OW11479   3.252   0.575   1.940
 3678SOL    HW111480   3.198   0.554   2.021
 3678SOL    HW211481   3.343   0.534   1.949
 3679SOL     OW11482   2.389   0.256   2.190
 3679SOL    HW111483   2.416   0.197   2.115
 3679SOL    HW211484   2.389   0.351   2.159
 3680SOL     OW11485   3.616   1.223   3.450
 3680SOL    HW111486   3.707   1.184   3.437
 3680SOL    HW211487   3.624   1.319   3.474
 3681SOL     OW11488   2.926   1.347   3.202
 3681SOL    HW111489   2.846   1.324   3.257
 3681SOL    HW211490   3.009   1.321   3.251
 3682SOL     OW11491   3.454   1.629   3.487
 3682SOL    HW111492   3.481   1.663   3.397
 3682SOL    HW211493   3.533   1.591   3.533
 3683SOL     OW11494   2.973   1.195   2.962
 3683SOL    HW111495   2.933   1.239   3.043
 3683SOL    HW211496   2.932   1.232   2.879
 3684SOL     OW11497   3.500   1.099   2.941
 3684SOL    HW111498   3.505   1.180   3.000
 3684SOL    HW211499   3.414   1.101   2.890
 3685SOL     OW11500   2.777   0.089   3.264
 3685SOL    HW111501   2.802   0.069   3.169
 3685SOL    HW211502   2.849   0.145   3.306
 3686SOL     OW11503   2.842   1.116   3.581
 3686SOL    HW111504   2.743   1.122   3.591
 3686SOL    HW211505   2.865   1.036   3.525
 3687SOL     OW11506   2.567   1.050   2.230
 3687SOL    HW111507   2.553   1.057   2.329
 3687SOL    HW211508   2.651   0.999   2.212
 3688SOL     OW11509   2.272   0.813   3.113
 3688SOL    HW111510   2.358   0.825   3.163
 3688SOL    HW211511   2.230   0.726   3.140
 3689SOL     OW11512   3.136   0.386   3.124
 3689SOL    HW111513   3.157   0.460   3.188
 3689SOL    HW211514   3.047   0.403   3.081
 3690SOL     OW11515   1.926   1.564   3.193
 3690SOL    HW111516   1.880   1.646   3.159
 3690SOL    HW211517   2.024   1.583   3.202
 3691SOL     OW11518   2.229   1.100   2.363
 3691SOL    HW111519   2.222   1.183   2.307
 3691SOL    HW211520   2.233   1.020   2.303
 3692SOL     OW11521   2.428   0.537   2.727
 3692SOL    HW111522   2.440   0.603   2.653
 3692SOL    HW211523   2.474   0.571   2.810
 3693SOL     OW11524   3.114   1.348   2.250
 3693SOL    HW111525   3.164   1.425   2.290
 3693SOL    HW211526   3.019   1.350   2.282
 3694SOL     OW11527   3.134   1.445   3.004
 3694SOL    HW111528   3.181   1.458   3.091
 3694SOL    HW211529   3.068   1.371   3.013
 3695SOL     OW11530   3.444   0.639   2.334
 3695SOL    HW111531   3.413   0.700   2.407
 3695SOL    HW211532   3.494   0.691   2.265
 3696SOL     OW11533   2.216   1.510   3.191
 3696SOL    HW111534   2.195   1.466   3.104
 3696SOL    HW211535   2.313   1.536   3.194
 3697SOL     OW11536   2.264   0.751   3.460
 3697SOL    HW111537   2.332   0.806   3.413
 3697SOL    HW211538   2.304   0.663   3.487
 3698SOL     OW11539   3.449   0.779   3.532
 3698SOL    HW111540   3.357   0.817   3.527
 3698SOL    HW211541   3.509   0.826   3.467
 3699SOL     OW11542   2.875   0.105   3.632
 3699SOL    HW111543   2.881   0.190   3.580
 3699SOL    HW211544   2.907   0.029   3.575
 3700SOL     OW11545   2.366   0.050   3.602
 3700SOL    HW111546   2.324  -0.007   3.532
 3700SOL    HW211547   2.300   0.119   3.634
 3701SOL     OW11548   2.435   0.870   2.891
 3701SOL    HW111549   2.479   0.959   2.882
 3701SOL    HW211550   2.372   0.870   2.968
 3702SOL     OW11551   3.222   0.862   2.907
 3702SOL    HW111552   3.147   0.862   2.841
 3702SOL    HW211553   3.259   0.770   2.916
 3703SOL     OW11554   3.071   0.525   2.137
 3703SOL    HW111555   3.084   0.441   2.191
 3703SOL    HW211556   3.042   0.599   2.197
 3704SOL     OW11557   2.169   0.213   3.093
 3704SOL    HW111558   2.146   0.250   3.183
 3704SOL    HW211559   2.139   0.118   3.087
 3705SOL     OW11560   1.899   1.310   3.144
 3705SOL    HW111561   1.952   1.261   3.212
 3705SOL    HW211562   1.921   1.408   3.149
 3706SOL     OW11563   2.594   0.634   2.926
 3706SOL    HW111564   2.653   0.608   2.850
 3706SOL    HW211565   2.566   0.730   2.915
 3707SOL     OW11566   3.590   0.935   3.716
 3707SOL    HW111567   3.544   0.928   3.627
 3707SOL    HW211568   3.528   0.979   3.782
 3708SOL     OW11569   2.169   0.063   2.480
 3708SOL    HW111570   2.158   0.157   2.513
 3708SOL    HW211571   2.164   0.000   2.557
 3709SOL     OW11572   3.484   0.367   2.236
 3709SOL    HW111573   3.486   0.291   2.300
 3709SOL    HW211574   3.436   0.444   2.276
 3710SOL     OW11575   2.885   0.766   2.828
 3710SOL    HW111576   2.900   0.787   2.924
 3710SOL    HW211577   2.855   0.671   2.819
 3711SOL     OW11578   2.842   1.573   3.562
 3711SOL    HW111579   2.822   1.617   3.474
 3711SOL    HW211580   2.881   1.482   3.546
 3712SOL     OW11581   3.721   1.518   3.467
 3712SOL    HW111582   3.735   1.545   3.372
 3712SOL    HW211583   3.804   1.540   3.520
 3713SOL     OW11584   2.212   0.898   3.666
 3713SOL    HW111585   2.288   0.942   3.714
 3713SOL    HW211586   2.247   0.851   3.584
 3714SOL     OW11587   3.402   0.274   1.987
 3714SOL    HW111588   3.341   0.199   2.010
 3714SOL    HW211589   3.424   0.326   2.070
 3715SOL     OW11590   3.165   0.838   1.904
 3715SOL    HW111591   3.199   0.745   1.919
 3715SOL    HW211592   3.183   0.865   1.809
 3716SOL     OW11593   2.930   1.333   2.711
 3716SOL    HW111594   2.937   1.249   2.656
 3716SOL    HW211595   2.992   1.402   2.675
 3717SOL     OW11596   2.181   0.810   2.811
 3717SOL    HW111597   2.274   0.846   2.816
 3717SOL    HW211598   2.175   0.725   2.863
 3718SOL     OW11599   2.201   0.509   2.868
 3718SOL    HW111600   2.149   0.426   2.851
 3718SOL    HW211601   2.278   0.514   2.804
 3719SOL     OW11602   3.000   0.380   3.540
 3719SOL    HW111603   2.955   0.443   3.604
 3719SOL    HW211604   3.093   0.411   3.523
 3720SOL     OW11605   3.022   0.207   3.339
 3720SOL    HW111606   3.022   0.271   3.416
 3720SOL    HW211607   3.050   0.255   3.256
 3721SOL     OW11608   1.870   1.326   2.062
 3721SOL    HW111609   1.777   1.347   2.031
 3721SOL    HW211610   1.880   1.227   2.075
 3722SOL     OW11611   1.950   1.801   2.789
 3722SOL    HW111612   1.908   1.715   2.762
 3722SOL    HW211613   2.044   1.804   2.755
 3723SOL     OW11614   2.366   1.568   2.772
 3723SOL    HW111615   2.432   1.642   2.781
 3723SOL    HW211616   2.410   1.489   2.730
 3724SOL     OW11617   2.864   0.796   3.100
 3724SOL    HW111618   2.905   0.764   3.186
 3724SOL    HW211619   2.768   0.769   3.097
 3725SOL     OW11620   1.902   0.544   2.976
 3725SOL    HW111621   1.987   0.511   2.935
 3725SOL    HW211622   1.915   0.559   3.074
 3726SOL     OW11623   2.051   0.520   3.584
 3726SOL    HW111624   2.110   0.480   3.514
 3726SOL    HW211625   1.993   0.591   3.543
 3727SOL     OW11626   3.231   0.950   3.522
 3727SOL    HW111627   3.270   1.039   3.542
 3727SOL    HW211628   3.241   0.930   3.425
 3728SOL     OW11629   2.677   0.572   2.187
 3728SOL    HW111630   2.684   0.483   2.141
 3728SOL    HW211631   2.583   0.606   2.179
 3729SOL     OW11632   3.519   0.604   3.068
 3729SOL    HW111633   3.481   0.535   3.130
 3729SOL    HW211634   3.601   0.568   3.024
 3730SOL     OW11635   2.114   1.564   3.606
 3730SOL    HW111636   2.084   1.621   3.682
 3730SOL    HW211637   2.107   1.467   3.632
 3731SOL     OW11638   2.533   0.464   3.131
 3731SOL    HW111639   2.499   0.375   3.101
 3731SOL    HW211640   2.559   0.518   3.051
 3732SOL     OW11641   2.792   1.678   3.327
 3732SOL    HW111642   2.768   1.660   3.232
 3732SOL    HW211643   2.822   1.772   3.337
 3733SOL     OW11644   2.335   0.500   2.053
 3733SOL    HW111645   2.396   0.580   2.057
 3733SOL    HW211646   2.240   0.531   2.060
 3734SOL     OW11647   2.021   1.137   3.328
 3734SOL    HW111648   2.043   1.076   3.404
 3734SOL    HW211649   2.031   1.088   3.242
 3735SOL     OW11650   3.209   1.059   3.096
 3735SOL    HW111651   3.233   0.996   3.022
 3735SOL    HW211652   3.119   1.099   3.078
 3736SOL     OW11653   3.164   0.855   2.171
 3736SOL    HW111654   3.078   0.824   2.213
 3736SOL    HW211655   3.160   0.841   2.072
 3737SOL     OW11656   3.621   1.747   3.016
 3737SOL    HW111657   3.682   1.777   2.943
 3737SOL    HW211658   3.583   1.658   2.994
 3738SOL     OW11659   3.114   1.731   2.990
 3738SOL    HW111660   3.198   1.736   2.936
 3738SOL    HW211661   3.091   1.635   3.008
 3739SOL     OW11662   1.945   1.258   2.884
 3739SOL    HW111663   1.940   1.257   2.984
 3739SOL    HW211664   1.862   1.217   2.846
 3740SOL     OW11665   2.550   1.662   3.578
 3740SOL    HW111666   2.494   1.743   3.587
 3740SOL    HW211667   2.602   1.666   3.492
 3741SOL     OW11668   3.588   0.135   2.385
 3741SOL    HW111669   3.661   0.118   2.318
 3741SOL    HW211670   3.557   0.048   2.423
 3742SOL     OW11671   3.250   1.573   2.339
 3742SOL    HW111672   3.317   1.585   2.265
 3742SOL    HW211673   3.210   1.662   2.362
 3743SOL     OW11674   1.992   1.794   3.713
 3743SOL    HW111675   1.951   1.720   3.766
 3743SOL    HW211676   2.056   1.845   3.771
 3744SOL     OW11677   3.142   0.927   2.534
 3744SOL    HW111678   3.202   0.846   2.536
 3744SOL    HW211679   3.182   0.996   2.474
 3745SOL     OW11680   2.692   1.273   3.284
 3745SOL    HW111681   2.687   1.306   3.379
 3745SOL    HW211682   2.606   1.292   3.238
 3746SOL     OW11683   2.534   1.616   2.016
 3746SOL    HW111684   2.543   1.626   1.917
 3746SOL    HW211685   2.494   1.527   2.037
 3747SOL     OW11686   3.512   1.720   3.256
 3747SOL    HW111687   3.565   1.730   3.172
 3747SOL    HW211688   3.485   1.810   3.290
 3748SOL     OW11689   3.703   0.175   2.825
 3748SOL    HW111690   3.742   0.090   2.789
 3748SOL    HW211691   3.605   0.177   2.806
 3749SOL     OW11692   2.125   0.326   2.582
 3749SOL    HW111693   2.046   0.377   2.548
 3749SOL    HW211694   2.116   0.311   2.680
 3750SOL     OW11695   3.056   1.612   1.893
 3750SOL    HW111696   3.062   1.519   1.930
 3750SOL    HW211697   2.997   1.612   1.813
 3751SOL     OW11698   2.684   1.002   3.234
 3751SOL    HW111699   2.724   1.001   3.142
 3751SOL    HW211700   2.694   1.094   3.274
 3752SOL     OW11701   2.778   0.910   2.153
 3752SOL    HW111702   2.841   0.948   2.085
 3752SOL    HW211703   2.818   0.827   2.192
 3753SOL     OW11704   3.366   1.607   1.906
 3753SOL    HW111705   3.274   1.644   1.913
 3753SOL    HW211706   3.404   1.627   1.816
 3754SOL     OW11707   2.234   1.288   3.352
 3754SOL    HW111708   2.221   1.381   3.318
 3754SOL    HW211709   2.150   1.236   3.339
 3755SOL     OW11710   3.476   1.292   3.151
 3755SOL    HW111711   3.536   1.295   3.231
 3755SOL    HW211712   3.401   1.356   3.164
 3756SOL     OW11713   2.901   1.098   2.558
 3756SOL    HW111714   2.831   1.051   2.612
 3756SOL    HW211715   2.960   1.030   2.515
 3757SOL     OW11716   2.876   0.236   2.833
 3757SOL    HW111717   2.868   0.200   2.740
 3757SOL    HW211718   2.874   0.160   2.898
 3758SOL     OW11719   2.452   1.487   2.353
 3758SOL    HW111720   2.494   1.429   2.283
 3758SOL    HW211721   2.408   1.566   2.309
 3759SOL     OW11722   3.571   0.385   3.243
 3759SOL    HW111723   3.644   0.454   3.247
 3759SOL    HW211724   3.599   0.310   3.184
 3760SOL     OW11725   2.117   1.348   2.152
 3760SOL    HW111726   2.021   1.349   2.125
 3760SOL    HW211727   2.129   1.401   2.236
 3761SOL     OW11728   1.967   1.013   3.588
 3761SOL    HW111729   1.890   0.980   3.642
 3761SOL    HW211730   2.052   0.983   3.630
 3762SOL     OW11731   2.534   0.203   3.351
 3762SOL    HW111732   2.624   0.187   3.311
 3762SOL    HW211733   2.542   0.208   3.450
 3763SOL     OW11734   1.937   0.345   1.895
 3763SOL    HW111735   1.845   0.317   1.866
 3763SOL    HW211736   1.968   0.422   1.839
 3764SOL     OW11737   3.302   0.856   3.260
 3764SOL    HW111738   3.245   0.908   3.197
 3764SOL    HW211739   3.398   0.868   3.236
 3765SOL     OW11740   1.934   0.166   2.180
 3765SOL    HW111741   1.917   0.249   2.126
 3765SOL    HW211742   2.024   0.129   2.158
 3766SOL     OW11743   3.045   1.335   1.981
 3766SOL    HW111744   2.946   1.324   1.983
 3766SOL    HW211745   3.079   1.350   2.074
 3767SOL     OW11746   2.475   0.842   3.293
 3767SOL    HW111747   2.531   0.923   3.276
 3767SOL    HW211748   2.534   0.762   3.296
 3768SOL     OW11749   3.355   1.767   2.821
 3768SOL    HW111750   3.388   1.831   2.752
 3768SOL    HW211751   3.421   1.761   2.896
 3769SOL     OW11752   2.578   0.565   3.570
 3769SOL    HW111753   2.597   0.630   3.644
 3769SOL    HW211754   2.638   0.485   3.579
 3770SOL     OW11755   3.312   1.220   3.495
 3770SOL    HW111756   3.303   1.210   3.594
 3770SOL    HW211757   3.408   1.213   3.469
 3771SOL     OW11758   2.252   1.741   3.422
 3771SOL    HW111759   2.161   1.782   3.420
 3771SOL    HW211760   2.245   1.647   3.454
 3772SOL     OW11761   3.536   0.883   3.116
 3772SOL    HW111762   3.509   0.794   3.079
 3772SOL    HW211763   3.537   0.951   3.043
 3773SOL     OW11764   3.087   0.325   2.311
 3773SOL    HW111765   3.152   0.251   2.300
 3773SOL    HW211766   3.107   0.375   2.395
 3774SOL     OW11767   2.456   0.745   2.514
 3774SOL    HW111768   2.506   0.830   2.495
 3774SOL    HW211769   2.368   0.747   2.466
 3775SOL     OW11770   3.639   0.342   3.504
 3775SOL    HW111771   3.622   0.373   3.410
 3775SOL    HW211772   3.555   0.305   3.542
 3776SOL     OW11773   3.592   0.934   3.379
 3776SOL    HW111774   3.630   1.025   3.394
 3776SOL    HW211775   3.584   0.917   3.280
 3777SOL     OW11776   2.721   1.374   1.878
 3777SOL    HW111777   2.675   1.389   1.966
 3777SOL    HW211778   2.765   1.459   1.848
 3778SOL     OW11779   2.523   1.790   2.815
 3778SOL    HW111780   2.477   1.878   2.802
 3778SOL    HW211781   2.622   1.802   2.808
 3779SOL     OW11782   2.721   0.956   2.723
 3779SOL    HW111783   2.775   0.887   2.771
 3779SOL    HW211784   2.689   1.025   2.789
 3780SOL     OW11785   2.945   0.984   1.949
 3780SOL    HW111786   2.922   1.037   1.867
 3780SOL    HW211787   3.026   0.928   1.930
 3781SOL     OW11788   3.723   1.569   2.713
 3781SOL    HW111789   3.652   1.557   2.643
 3781SOL    HW211790   3.724   1.490   2.773
 3782SOL     OW11791   2.083   1.314   3.706
 3782SOL    HW111792   2.018   1.241   3.685
 3782SOL    HW211793   2.087   1.328   3.804
 3783SOL     OW11794   1.941   1.240   2.515
 3783SOL    HW111795   1.940   1.193   2.603
 3783SOL    HW211796   2.023   1.212   2.464
 3784SOL     OW11797   2.534   1.391   3.486
 3784SOL    HW111798   2.456   1.341   3.524
 3784SOL    HW211799   2.531   1.486   3.517
 3785SOL     OW11800   3.686   0.192   3.089
 3785SOL    HW111801   3.682   0.102   3.133
 3785SOL    HW211802   3.689   0.181   2.990
 3786SOL     OW11803   2.290   0.424   2.382
 3786SOL    HW111804   2.320   0.352   2.320
 3786SOL    HW211805   2.251   0.384   2.465
 3787SOL     OW11806   3.567   1.487   2.966
 3787SOL    HW111807   3.474   1.462   2.939
 3787SOL    HW211808   3.593   1.437   3.048
 3788SOL     OW11809   2.179   0.547   3.142
 3788SOL    HW111810   2.217   0.488   3.214
 3788SOL    HW211811   2.219   0.521   3.054
 3789SOL     OW11812   2.674   1.586   2.549
 3789SOL    HW111813   2.706   1.596   2.455
 3789SOL    HW211814   2.595   1.524   2.551
 3790SOL     OW11815   3.286   0.214   2.974
 3790SOL    HW111816   3.338   0.149   3.029
 3790SOL    HW211817   3.237   0.277   3.035
 3791SOL     OW11818   2.863   0.034   3.016
 3791SOL    HW111819   2.800  -0.038   2.985
 3791SOL    HW211820   2.956  -0.002   3.016
 3792SOL     OW11821   2.632   1.330   2.163
 3792SOL    HW111822   2.586   1.243   2.180
 3792SOL    HW211823   2.723   1.327   2.204
 3793SOL     OW11824   2.480   1.567   3.146
 3793SOL    HW111825   2.475   1.649   3.203
 3793SOL    HW211826   2.569   1.564   3.101
 3794SOL     OW11827   3.214   0.052   2.030
 3794SOL    HW111828   3.249   0.011   1.946
 3794SOL    HW211829   3.124   0.014   2.050
 3795SOL     OW11830   3.162   0.453   2.553
 3795SOL    HW111831   3.103   0.533   2.557
 3795SOL    HW211832   3.177   0.418   2.646
 3796SOL     OW11833   3.455   0.221   2.744
 3796SOL    HW111834   3.371   0.220   2.798
 3796SOL    HW211835   3.457   0.304   2.688
 3797SOL     OW11836   1.901   1.077   2.162
 3797SOL    HW111837   2.000   1.066   2.153
 3797SOL    HW211838   1.861   0.991   2.194
 3798SOL     OW11839   2.737   1.646   2.199
 3798SOL    HW111840   2.660   1.611   2.145
 3798SOL    HW211841   2.705   1.717   2.261
 3799SOL     OW11842   2.092   0.628   3.837
 3799SOL    HW111843   1.999   0.626   3.874
 3799SOL    HW211844   2.093   0.589   3.745
 3800SOL     OW11845   2.087   0.275   4.720
 3800SOL    HW111846   2.122   0.258   4.812
 3800SOL    HW211847   1.999   0.230   4.708
 3801SOL     OW11848   1.881   0.368   4.371
 3801SOL    HW111849   1.799   0.411   4.410
 3801SOL    HW211850   1.853   0.295   4.308
 3802SOL     OW11851   2.431   1.275   4.889
 3802SOL    HW111852   2.338   1.268   4.852
 3802SOL    HW211853   2.442   1.364   4.933
 3803SOL     OW11854   3.417   1.511   4.427
 3803SOL    HW111855   3.360   1.495   4.508
 3803SOL    HW211856   3.358   1.521   4.347
 3804SOL     OW11857   2.997   0.703   4.441
 3804SOL    HW111858   3.054   0.781   4.416
 3804SOL    HW211859   2.937   0.729   4.517
 3805SOL     OW11860   3.617   0.607   3.955
 3805SOL    HW111861   3.605   0.594   3.856
 3805SOL    HW211862   3.587   0.526   4.004
 3806SOL     OW11863   2.630   1.144   4.747
 3806SOL    HW111864   2.552   1.161   4.807
 3806SOL    HW211865   2.664   1.231   4.711
 3807SOL     OW11866   2.712   0.798   5.547
 3807SOL    HW111867   2.708   0.874   5.612
 3807SOL    HW211868   2.734   0.834   5.456
 3808SOL     OW11869   2.547   1.012   4.389
 3808SOL    HW111870   2.616   0.996   4.459
 3808SOL    HW211871   2.474   1.069   4.427
 3809SOL     OW11872   2.548   1.161   5.527
 3809SOL    HW111873   2.608   1.240   5.541
 3809SOL    HW211874   2.462   1.192   5.486
 3810SOL     OW11875   2.197   1.435   4.785
 3810SOL    HW111876   2.119   1.404   4.732
 3810SOL    HW211877   2.255   1.493   4.728
 3811SOL     OW11878   3.322   1.505   5.063
 3811SOL    HW111879   3.346   1.599   5.089
 3811SOL    HW211880   3.306   1.451   5.145
 3812SOL     OW11881   2.300   0.392   5.223
 3812SOL    HW111882   2.382   0.336   5.232
 3812SOL    HW211883   2.219   0.334   5.227
 3813SOL     OW11884   3.465   0.447   4.461
 3813SOL    HW111885   3.391   0.493   4.411
 3813SOL    HW211886   3.516   0.515   4.514
 3814SOL     OW11887   2.093   1.713   4.207
 3814SOL    HW111888   2.127   1.790   4.261
 3814SOL    HW211889   2.137   1.713   4.117
 3815SOL     OW11890   2.989   1.341   5.414
 3815SOL    HW111891   3.036   1.341   5.502
 3815SOL    HW211892   2.941   1.254   5.403
 3816SOL     OW11893   2.092   1.434   4.262
 3816SOL    HW111894   2.066   1.530   4.262
 3816SOL    HW211895   2.021   1.380   4.307
 3817SOL     OW11896   2.102   1.091   4.610
 3817SOL    HW111897   2.116   1.007   4.662
 3817SOL    HW211898   2.047   1.155   4.665
 3818SOL     OW11899   2.482   1.786   5.163
 3818SOL    HW111900   2.390   1.769   5.198
 3818SOL    HW211901   2.510   1.878   5.189
 3819SOL     OW11902   2.468   0.964   3.847
 3819SOL    HW111903   2.475   1.048   3.793
 3819SOL    HW211904   2.514   0.977   3.935
 3820SOL     OW11905   3.456   0.114   5.204
 3820SOL    HW111906   3.438   0.181   5.132
 3820SOL    HW211907   3.453   0.160   5.293
 3821SOL     OW11908   1.984   0.643   4.287
 3821SOL    HW111909   1.939   0.555   4.304
 3821SOL    HW211910   1.983   0.697   4.371
 3822SOL     OW11911   3.704   1.767   4.083
 3822SOL    HW111912   3.758   1.738   4.163
 3822SOL    HW211913   3.734   1.857   4.054
 3823SOL     OW11914   1.889   1.596   3.841
 3823SOL    HW111915   1.870   1.500   3.862
 3823SOL    HW211916   1.856   1.654   3.916
 3824SOL     OW11917   3.551   0.922   4.336
 3824SOL    HW111918   3.646   0.893   4.344
 3824SOL    HW211919   3.543   0.987   4.261
 3825SOL     OW11920   3.503   1.108   4.156
 3825SOL    HW111921   3.589   1.110   4.104
 3825SOL    HW211922   3.517   1.155   4.244
 3826SOL     OW11923   1.975   0.737   5.321
 3826SOL    HW111924   2.063   0.724   5.366
 3826SOL    HW211925   1.962   0.834   5.299
 3827SOL     OW11926   2.475   1.365   4.450
 3827SOL    HW111927   2.426   1.278   4.459
 3827SOL    HW211928   2.452   1.408   4.363
 3828SOL     OW11929   3.155   1.228   5.147
 3828SOL    HW111930   3.192   1.155   5.089
 3828SOL    HW211931   3.207   1.233   5.232
 3829SOL     OW11932   2.671   0.004   4.226
 3829SOL    HW111933   2.711   0.095   4.217
 3829SOL    HW211934   2.571   0.012   4.232
 3830SOL     OW11935   2.059   0.976   4.988
 3830SOL    HW111936   2.148   0.931   4.974
 3830SOL    HW211937   1.986   0.911   4.969
 3831SOL     OW11938   3.387   0.999   3.914
 3831SOL    HW111939   3.324   0.923   3.927
 3831SOL    HW211940   3.435   1.017   4.000
 3832SOL     OW11941   3.049   1.792   5.340
 3832SOL    HW111942   3.073   1.852   5.264
 3832SOL    HW211943   3.056   1.697   5.310
 3833SOL     OW11944   2.179   0.251   5.525
 3833SOL    HW111945   2.250   0.322   5.531
 3833SOL    HW211946   2.091   0.290   5.553
 3834SOL     OW11947   3.328   1.417   4.677
 3834SOL    HW111948   3.269   1.423   4.757
 3834SOL    HW211949   3.313   1.329   4.631
 3835SOL     OW11950   3.529   1.714   4.296
 3835SOL    HW111951   3.488   1.691   4.208
 3835SOL    HW211952   3.511   1.640   4.361
 3836SOL     OW11953   2.460   0.729   3.994
 3836SOL    HW111954   2.484   0.798   3.926
 3836SOL    HW211955   2.382   0.762   4.048
 3837SOL     OW11956   3.143   0.345   4.668
 3837SOL    HW111957   3.057   0.295   4.655
 3837SOL    HW211958   3.205   0.291   4.724
 3838SOL     OW11959   3.438   1.662   4.031
 3838SOL    HW111960   3.527   1.708   4.034
 3838SOL    HW211961   3.417   1.638   3.936
 3839SOL     OW11962   2.669   0.605   5.189
 3839SOL    HW111963   2.622   0.602   5.278
 3839SOL    HW211964   2.618   0.550   5.123
 3840SOL     OW11965   3.256   0.469   5.398
 3840SOL    HW111966   3.236   0.512   5.486
 3840SOL    HW211967   3.334   0.407   5.407
 3841SOL     OW11968   2.835   0.890   5.296
 3841SOL    HW111969   2.881   0.806   5.267
 3841SOL    HW211970   2.779   0.924   5.221
 3842SOL     OW11971   2.853   0.410   4.966
 3842SOL    HW111972   2.776   0.444   5.020
 3842SOL    HW211973   2.819   0.359   4.887
 3843SOL     OW11974   2.903   0.701   4.153
 3843SOL    HW111975   2.929   0.697   4.249
 3843SOL    HW211976   2.818   0.650   4.139
 3844SOL     OW11977   1.938   0.811   4.513
 3844SOL    HW111978   2.037   0.799   4.522
 3844SOL    HW211979   1.914   0.906   4.534
 3845SOL     OW11980   2.727   0.348   3.919
 3845SOL    HW111981   2.786   0.411   3.870
 3845SOL    HW211982   2.746   0.254   3.890
 3846SOL     OW11983   3.581   0.585   5.555
 3846SOL    HW111984   3.555   0.674   5.519
 3846SOL    HW211985   3.579   0.517   5.482
 3847SOL     OW11986   3.224   1.144   4.269
 3847SOL    HW111987   3.307   1.115   4.221
 3847SOL    HW211988   3.175   1.211   4.213
 3848SOL     OW11989   2.412   0.196   4.609
 3848SOL    HW111990   2.407   0.191   4.709
 3848SOL    HW211991   2.414   0.292   4.580
 3849SOL     OW11992   2.870   1.456   4.201
 3849SOL    HW111993   2.824   1.528   4.149
 3849SOL    HW211994   2.866   1.476   4.299
 3850SOL     OW11995   2.213   1.801   4.577
 3850SOL    HW111996   2.263   1.715   4.583
 3850SOL    HW211997   2.278   1.878   4.574
 3851SOL     OW11998   3.657   1.066   4.597
 3851SOL    HW111999   3.595   1.051   4.521
 3851SOL    HW212000   3.605   1.077   4.682
 3852SOL     OW12001   3.089   1.550   5.230
 3852SOL    HW112002   3.095   1.473   5.294
 3852SOL    HW212003   3.037   1.524   5.150
 3853SOL     OW12004   2.183   0.943   3.966
 3853SOL    HW112005   2.265   0.982   3.924
 3853SOL    HW212006   2.156   0.861   3.917
 3854SOL     OW12007   3.320   0.735   4.452
 3854SOL    HW112008   3.315   0.670   4.527
 3854SOL    HW212009   3.400   0.794   4.465
 3855SOL     OW12010   2.323   1.266   5.451
 3855SOL    HW112011   2.273   1.267   5.365
 3855SOL    HW212012   2.260   1.248   5.527
 3856SOL     OW12013   2.973   1.776   3.961
 3856SOL    HW112014   2.913   1.714   4.011
 3856SOL    HW212015   3.004   1.732   3.876
 3857SOL     OW12016   2.064   0.285   5.222
 3857SOL    HW112017   1.984   0.345   5.209
 3857SOL    HW212018   2.054   0.236   5.308
 3858SOL     OW12019   3.494   1.377   3.805
 3858SOL    HW112020   3.462   1.471   3.795
 3858SOL    HW212021   3.418   1.314   3.793
 3859SOL     OW12022   2.326   1.743   4.047
 3859SOL    HW112023   2.359   1.782   4.133
 3859SOL    HW212024   2.402   1.736   3.982
 3860SOL     OW12025   3.262   0.107   4.150
 3860SOL    HW112026   3.238   0.070   4.060
 3860SOL    HW212027   3.361   0.123   4.154
 3861SOL     OW12028   2.111   1.785   4.965
 3861SOL    HW112029   2.168   1.720   5.015
 3861SOL    HW212030   2.095   1.752   4.872
 3862SOL     OW12031   2.802   1.698   4.628
 3862SOL    HW112032   2.882   1.641   4.649
 3862SOL    HW212033   2.753   1.658   4.551
 3863SOL     OW12034   2.244   0.700   4.204
 3863SOL    HW112035   2.289   0.610   4.201
 3863SOL    HW212036   2.150   0.689   4.237
 3864SOL     OW12037   3.409   0.222   5.453
 3864SOL    HW112038   3.404   0.259   5.545
 3864SOL    HW212039   3.337   0.153   5.441
 3865SOL     OW12040   2.476   0.122   3.841
 3865SOL    HW112041   2.574   0.100   3.848
 3865SOL    HW212042   2.445   0.105   3.748
 3866SOL     OW12043   2.643   0.264   5.473
 3866SOL    HW112044   2.710   0.203   5.516
 3866SOL    HW212045   2.570   0.283   5.538
 3867SOL     OW12046   2.750   1.514   4.919
 3867SOL    HW112047   2.727   1.489   4.825
 3867SOL    HW212048   2.811   1.445   4.958
 3868SOL     OW12049   3.213   0.590   5.157
 3868SOL    HW112050   3.241   0.547   5.242
 3868SOL    HW212051   3.238   0.686   5.158
 3869SOL     OW12052   2.665   1.402   4.648
 3869SOL    HW112053   2.755   1.416   4.606
 3869SOL    HW212054   2.594   1.404   4.577
 3870SOL     OW12055   2.784   0.503   4.623
 3870SOL    HW112056   2.759   0.494   4.527
 3870SOL    HW212057   2.832   0.421   4.654
 3871SOL     OW12058   2.401   0.064   4.236
 3871SOL    HW112059   2.320   0.065   4.294
 3871SOL    HW212060   2.404   0.147   4.181
 3872SOL     OW12061   3.296   1.188   3.765
 3872SOL    HW112062   3.328   1.112   3.822
 3872SOL    HW212063   3.204   1.215   3.795
 3873SOL     OW12064   2.159   0.035   3.895
 3873SOL    HW112065   2.208   0.119   3.874
 3873SOL    HW212066   2.221  -0.030   3.940
 3874SOL     OW12067   2.797   0.236   4.204
 3874SOL    HW112068   2.749   0.277   4.126
 3874SOL    HW212069   2.896   0.234   4.185
 3875SOL     OW12070   2.938   0.683   5.188
 3875SOL    HW112071   2.858   0.622   5.191
 3875SOL    HW212072   3.019   0.630   5.164
 3876SOL     OW12073   3.089   1.570   4.517
 3876SOL    HW112074   3.110   1.644   4.452
 3876SOL    HW212075   3.157   1.570   4.590
 3877SOL     OW12076   2.321   1.152   4.465
 3877SOL    HW112077   2.250   1.125   4.530
 3877SOL    HW212078   2.295   1.124   4.372
 3878SOL     OW12079   3.133   1.797   4.315
 3878SOL    HW112080   3.177   1.861   4.251
 3878SOL    HW212081   3.083   1.849   4.385
 3879SOL     OW12082   2.894   0.549   3.740
 3879SOL    HW112083   2.853   0.631   3.701
 3879SOL    HW212084   2.958   0.575   3.813
 3880SOL     OW12085   1.940   0.556   5.110
 3880SOL    HW112086   2.032   0.555   5.069
 3880SOL    HW212087   1.934   0.630   5.177
 3881SOL     OW12088   2.423   0.222   4.871
 3881SOL    HW112089   2.461   0.138   4.908
 3881SOL    HW212090   2.335   0.241   4.915
 3882SOL     OW12091   2.728   0.454   4.366
 3882SOL    HW112092   2.696   0.526   4.304
 3882SOL    HW212093   2.752   0.373   4.313
 3883SOL     OW12094   2.879   0.039   4.477
 3883SOL    HW112095   2.807   0.044   4.408
 3883SOL    HW212096   2.855  -0.030   4.546
 3884SOL     OW12097   3.291   1.173   4.591
 3884SOL    HW112098   3.236   1.089   4.584
 3884SOL    HW212099   3.317   1.202   4.499
 3885SOL     OW12100   3.328   0.590   4.716
 3885SOL    HW112101   3.298   0.495   4.723
 3885SOL    HW212102   3.401   0.606   4.782
 3886SOL     OW12103   3.719   0.833   4.101
 3886SOL    HW112104   3.761   0.769   4.165
 3886SOL    HW212105   3.681   0.782   4.023
 3887SOL     OW12106   2.350   1.385   3.898
 3887SOL    HW112107   2.263   1.370   3.945
 3887SOL    HW212108   2.333   1.411   3.803
 3888SOL     OW12109   3.526   1.280   4.381
 3888SOL    HW112110   3.625   1.288   4.395
 3888SOL    HW212111   3.481   1.364   4.412
 3889SOL     OW12112   3.252   0.575   3.802
 3889SOL    HW112113   3.198   0.554   3.883
 3889SOL    HW212114   3.343   0.534   3.811
 3890SOL     OW12115   2.389   0.256   4.052
 3890SOL    HW112116   2.416   0.197   3.977
 3890SOL    HW212117   2.389   0.351   4.021
 3891SOL     OW12118   3.616   1.223   5.312
 3891SOL    HW112119   3.707   1.184   5.299
 3891SOL    HW212120   3.624   1.319   5.336
 3892SOL     OW12121   2.926   1.347   5.064
 3892SOL    HW112122   2.846   1.324   5.119
 3892SOL    HW212123   3.009   1.321   5.113
 3893SOL     OW12124   3.454   1.629   5.349
 3893SOL    HW112125   3.481   1.663   5.259
 3893SOL    HW212126   3.533   1.591   5.395
 3894SOL     OW12127   2.973   1.195   4.824
 3894SOL    HW112128   2.933   1.239   4.905
 3894SOL    HW212129   2.932   1.232   4.741
 3895SOL     OW12130   3.500   1.099   4.803
 3895SOL    HW112131   3.505   1.180   4.862
 3895SOL    HW212132   3.414   1.101   4.752
 3896SOL     OW12133   2.777   0.089   5.126
 3896SOL    HW112134   2.802   0.069   5.031
 3896SOL    HW212135   2.849   0.145   5.168
 3897SOL     OW12136   2.842   1.116   5.443
 3897SOL    HW112137   2.743   1.122   5.453
 3897SOL    HW212138   2.865   1.036   5.387
 3898SOL     OW12139   2.567   1.050   4.092
 3898SOL    HW112140   2.553   1.057   4.191
 3898SOL    HW212141   2.651   0.999   4.074
 3899SOL     OW12142   2.272   0.813   4.975
 3899SOL    HW112143   2.358   0.825   5.025
 3899SOL    HW212144   2.230   0.726   5.002
 3900SOL     OW12145   3.136   0.386   4.986
 3900SOL    HW112146   3.157   0.460   5.050
 3900SOL    HW212147   3.047   0.403   4.943
 3901SOL     OW12148   1.926   1.564   5.055
 3901SOL    HW112149   1.880   1.646   5.021
 3901SOL    HW212150   2.024   1.583   5.064
 3902SOL     OW12151   2.229   1.100   4.225
 3902SOL    HW112152   2.222   1.183   4.169
 3902SOL    HW212153   2.233   1.020   4.165
 3903SOL     OW12154   2.428   0.537   4.589
 3903SOL    HW112155   2.440   0.603   4.515
 3903SOL    HW212156   2.474   0.571   4.672
 3904SOL     OW12157   3.114   1.348   4.112
 3904SOL    HW112158   3.164   1.425   4.152
 3904SOL    HW212159   3.019   1.350   4.144
 3905SOL     OW12160   3.134   1.445   4.866
 3905SOL    HW112161   3.181   1.458   4.953
 3905SOL    HW212162   3.068   1.371   4.875
 3906SOL     OW12163   3.444   0.639   4.196
 3906SOL    HW112164   3.413   0.700   4.269
 3906SOL    HW212165   3.494   0.691   4.127
 3907SOL     OW12166   2.216   1.510   5.053
 3907SOL    HW112167   2.195   1.466   4.966
 3907SOL    HW212168   2.313   1.536   5.056
 3908SOL     OW12169   2.264   0.751   5.322
 3908SOL    HW112170   2.332   0.806   5.275
 3908SOL    HW212171   2.304   0.663   5.349
 3909SOL     OW12172   3.449   0.779   5.394
 3909SOL    HW112173   3.357   0.817   5.389
 3909SOL    HW212174   3.509   0.826   5.329
 3910SOL     OW12175   2.875   0.105   5.494
 3910SOL    HW112176   2.881   0.190   5.442
 3910SOL    HW212177   2.907   0.029   5.437
 3911SOL     OW12178   2.366   0.050   5.464
 3911SOL    HW112179   2.324  -0.007   5.394
 3911SOL    HW212180   2.300   0.119   5.496
 3912SOL     OW12181   2.435   0.870   4.753
 3912SOL    HW112182   2.479   0.959   4.744
 3912SOL    HW212183   2.372   0.870   4.830
 3913SOL     OW12184   3.222   0.862   4.769
 3913SOL    HW112185   3.147   0.862   4.703
 3913SOL    HW212186   3.259   0.770   4.778
 3914SOL     OW12187   3.071   0.525   3.999
 3914SOL    HW112188   3.084   0.441   4.053
 3914SOL    HW212189   3.042   0.599   4.059
 3915SOL     OW12190   2.169   0.213   4.955
 3915SOL    HW112191   2.146   0.250   5.045
 3915SOL    HW212192   2.139   0.118   4.949
 3916SOL     OW12193   1.899   1.310   5.006
 3916SOL    HW112194   1.952   1.261   5.074
 3916SOL    HW212195   1.921   1.408   5.011
 3917SOL     OW12196   2.594   0.634   4.788
 3917SOL    HW112197   2.653   0.608   4.712
 3917SOL    HW212198   2.566   0.730   4.777
 3918SOL     OW12199   3.590   0.935   5.578
 3918SOL    HW112200   3.544   0.928   5.489
 3918SOL    HW212201   3.528   0.979   5.644
 3919SOL     OW12202   2.169   0.063   4.342
 3919SOL    HW112203   2.158   0.157   4.375
 3919SOL    HW212204   2.164   0.000   4.419
 3920SOL     OW12205   3.484   0.367   4.098
 3920SOL    HW112206   3.486   0.291   4.162
 3920SOL    HW212207   3.436   0.444   4.138
 3921SOL     OW12208   2.885   0.766   4.690
 3921SOL    HW112209   2.900   0.787   4.786
 3921SOL    HW212210   2.855   0.671   4.681
 3922SOL     OW12211   2.842   1.573   5.424
 3922SOL    HW112212   2.822   1.617   5.336
 3922SOL    HW212213   2.881   1.482   5.408
 3923SOL     OW12214   3.721   1.518   5.329
 3923SOL    HW112215   3.735   1.545   5.234
 3923SOL    HW212216   3.804   1.540   5.382
 3924SOL     OW12217   2.212   0.898   5.528
 3924SOL    HW112218   2.288   0.942   5.576
 3924SOL    HW212219   2.247   0.851   5.446
 3925SOL     OW12220   3.402   0.274   3.849
 3925SOL    HW112221   3.341   0.199   3.872
 3925SOL    HW212222   3.424   0.326   3.932
 3926SOL     OW12223   3.165   0.838   3.766
 3926SOL    HW112224   3.199   0.745   3.781
 3926SOL    HW212225   3.183   0.865   3.671
 3927SOL     OW12226   2.930   1.333   4.573
 3927SOL    HW112227   2.937   1.249   4.518
 3927SOL    HW212228   2.992   1.402   4.537
 3928SOL     OW12229   2.181   0.810   4.673
 3928SOL    HW112230   2.274   0.846   4.678
 3928SOL    HW212231   2.175   0.725   4.725
 3929SOL     OW12232   2.201   0.509   4.730
 3929SOL    HW112233   2.149   0.426   4.713
 3929SOL    HW212234   2.278   0.514   4.666
 3930SOL     OW12235   3.000   0.380   5.402
 3930SOL    HW112236   2.955   0.443   5.466
 3930SOL    HW212237   3.093   0.411   5.385
 3931SOL     OW12238   3.022   0.207   5.201
 3931SOL    HW112239   3.022   0.271   5.278
 3931SOL    HW212240   3.050   0.255   5.118
 3932SOL     OW12241   1.870   1.326   3.924
 3932SOL    HW112242   1.777   1.347   3.893
 3932SOL    HW212243   1.880   1.227   3.937
 3933SOL     OW12244   1.950   1.801   4.651
 3933SOL    HW112245   1.908   1.715   4.624
 3933SOL    HW212246   2.044   1.804   4.617
 3934SOL     OW12247   2.366   1.568   4.634
 3934SOL    HW112248   2.432   1.642   4.643
 3934SOL    HW212249   2.410   1.489   4.592
 3935SOL     OW12250   2.864   0.796   4.962
 3935SOL    HW112251   2.905   0.764   5.048
 3935SOL    HW212252   2.768   0.769   4.959
 3936SOL     OW12253   1.902   0.544   4.838
 3936SOL    HW112254   1.987   0.511   4.797
 3936SOL    HW212255   1.915   0.559   4.936
 3937SOL     OW12256   2.051   0.520   5.446
 3937SOL    HW112257   2.110   0.480   5.376
 3937SOL    HW212258   1.993   0.591   5.405
 3938SOL     OW12259   3.231   0.950   5.384
 3938SOL    HW112260   3.270   1.039   5.404
 3938SOL    HW212261   3.241   0.930   5.287
 3939SOL     OW12262   2.677   0.572   4.049
 3939SOL    HW112263   2.684   0.483   4.003
 3939SOL    HW212264   2.583   0.606   4.041
 3940SOL     OW12265   3.519   0.604   4.930
 3940SOL    HW112266   3.481   0.535   4.992
 3940SOL    HW212267   3.601   0.568   4.886
 3941SOL     OW12268   2.114   1.564   5.468
 3941SOL    HW112269   2.084   1.621   5.544
 3941SOL    HW212270   2.107   1.467   5.494
 3942SOL     OW12271   2.533   0.464   4.993
 3942SOL    HW112272   2.499   0.375   4.963
 3942SOL    HW212273   2.559   0.518   4.913
 3943SOL     OW12274   2.792   1.678   5.189
 3943SOL    HW112275   2.768   1.660   5.094
 3943SOL    HW212276   2.822   1.772   5.199
 3944SOL     OW12277   2.335   0.500   3.915
 3944SOL    HW112278   2.396   0.580   3.919
 3944SOL    HW212279   2.240   0.531   3.922
 3945SOL     OW12280   2.021   1.137   5.190
 3945SOL    HW112281   2.043   1.076   5.266
 3945SOL    HW212282   2.031   1.088   5.104
 3946SOL     OW12283   3.209   1.059   4.958
 3946SOL    HW112284   3.233   0.996   4.884
 3946SOL    HW212285   3.119   1.099   4.940
 3947SOL     OW12286   3.164   0.855   4.033
 3947SOL    HW112287   3.078   0.824   4.075
 3947SOL    HW212288   3.160   0.841   3.934
 3948SOL     OW12289   3.621   1.747   4.878
 3948SOL    HW112290   3.682   1.777   4.805
 3948SOL    HW212291   3.583   1.658   4.856
 3949SOL     OW12292   3.114   1.731   4.852
 3949SOL    HW112293   3.198   1.736   4.798
 3949SOL    HW212294   3.091   1.635   4.870
 3950SOL     OW12295   1.945   1.258   4.746
 3950SOL    HW112296   1.940   1.257   4.846
 3950SOL    HW212297   1.862   1.217   4.708
 3951SOL     OW12298   2.550   1.662   5.440
 3951SOL    HW112299   2.494   1.743   5.449
 3951SOL    HW212300   2.602   1.666   5.354
 3952SOL     OW12301   3.588   0.135   4.247
 3952SOL    HW112302   3.661   0.118   4.180
 3952SOL    HW212303   3.557   0.048   4.285
 3953SOL     OW12304   3.250   1.573   4.201
 3953SOL    HW112305   3.317   1.585   4.127
 3953SOL    HW212306   3.210   1.662   4.224
 3954SOL     OW12307   1.992   1.794   5.575
 3954SOL    HW112308   1.951   1.720   5.628
 3954SOL    HW212309   2.056   1.845   5.633
 3955SOL     OW12310   3.142   0.927   4.396
 3955SOL    HW112311   3.202   0.846   4.398
 3955SOL    HW212312   3.182   0.996   4.336
 3956SOL     OW12313   2.692   1.273   5.146
 3956SOL    HW112314   2.687   1.306   5.241
 3956SOL    HW212315   2.606   1.292   5.100
 3957SOL     OW12316   2.534   1.616   3.878
 3957SOL    HW112317   2.543   1.626   3.779
 3957SOL    HW212318   2.494   1.527   3.899
 3958SOL     OW12319   3.512   1.720   5.118
 3958SOL    HW112320   3.565   1.730   5.034
 3958SOL    HW212321   3.485   1.810   5.152
 3959SOL     OW12322   3.703   0.175   4.687
 3959SOL    HW112323   3.742   0.090   4.651
 3959SOL    HW212324   3.605   0.177   4.668
 3960SOL     OW12325   2.125   0.326   4.444
 3960SOL    HW112326   2.046   0.377   4.410
 3960SOL    HW212327   2.116   0.311   4.542
 3961SOL     OW12328   3.056   1.612   3.755
 3961SOL    HW112329   3.062   1.519   3.792
 3961SOL    HW212330   2.997   1.612   3.675
 3962SOL     OW12331   2.684   1.002   5.096
 3962SOL    HW112332   2.724   1.001   5.004
 3962SOL    HW212333   2.694   1.094   5.136
 3963SOL     OW12334   2.778   0.910   4.015
 3963SOL    HW112335   2.841   0.948   3.947
 3963SOL    HW212336   2.818   0.827   4.054
 3964SOL     OW12337   3.366   1.607   3.768
 3964SOL    HW112338   3.274   1.644   3.775
 3964SOL    HW212339   3.404   1.627   3.678
 3965SOL     OW12340   2.234   1.288   5.214
 3965SOL    HW112341   2.221   1.381   5.180
 3965SOL    HW212342   2.150   1.236   5.201
 3966SOL     OW12343   3.476   1.292   5.013
 3966SOL    HW112344   3.536   1.295   5.093
 3966SOL    HW212345   3.401   1.356   5.026
 3967SOL     OW12346   2.901   1.098   4.420
 3967SOL    HW112347   2.831   1.051   4.474
 3967SOL    HW212348   2.960   1.030   4.377
 3968SOL     OW12349   2.876   0.236   4.695
 3968SOL    HW112350   2.868   0.200   4.602
 3968SOL    HW212351   2.874   0.160   4.760
 3969SOL     OW12352   2.452   1.487   4.215
 3969SOL    HW112353   2.494   1.429   4.145
 3969SOL    HW212354   2.408   1.566   4.171
 3970SOL     OW12355   3.571   0.385   5.105
 3970SOL    HW112356   3.644   0.454   5.109
 3970SOL    HW212357   3.599   0.310   5.046
 3971SOL     OW12358   2.117   1.348   4.014
 3971SOL    HW112359   2.021   1.349   3.987
 3971SOL    HW212360   2.129   1.401   4.098
 3972SOL     OW12361   1.967   1.013   5.450
 3972SOL    HW112362   1.890   0.980   5.504
 3972SOL    HW212363   2.052   0.983   5.492
 3973SOL     OW12364   2.534   0.203   5.213
 3973SOL    HW112365   2.624   0.187   5.173
 3973SOL    HW212366   2.542   0.208   5.312
 3974SOL     OW12367   1.937   0.345   3.757
 3974SOL    HW112368   1.845   0.317   3.728
 3974SOL    HW212369   1.968   0.422   3.701
 3975SOL     OW12370   3.302   0.856   5.122
 3975SOL    HW112371   3.245   0.908   5.059
 3975SOL    HW212372   3.398   0.868   5.098
 3976SOL     OW12373   1.934   0.166   4.042
 3976SOL    HW112374   1.917   0.249   3.988
 3976SOL    HW212375   2.024   0.129   4.020
 3977SOL     OW12376   3.045   1.335   3.843
 3977SOL    HW112377   2.946   1.324   3.845
 3977SOL    HW212378   3.079   1.350   3.936
 3978SOL     OW12379   2.475   0.842   5.155
 3978SOL    HW112380   2.531   0.923   5.138
 3978SOL    HW212381   2.534   0.762   5.158
 3979SOL     OW12382   3.355   1.767   4.683
 3979SOL    HW112383   3.388   1.831   4.614
 3979SOL    HW212384   3.421   1.761   4.758
 3980SOL     OW12385   2.578   0.565   5.432
 3980SOL    HW112386   2.597   0.630   5.506
 3980SOL    HW212387   2.638   0.485   5.441
 3981SOL     OW12388   3.312   1.220   5.357
 3981SOL    HW112389   3.303   1.210   5.456
 3981SOL    HW212390   3.408   1.213   5.331
 3982SOL     OW12391   2.252   1.741   5.284
 3982SOL    HW112392   2.161   1.782   5.282
 3982SOL    HW212393   2.245   1.647   5.316
 3983SOL     OW12394   3.536   0.883   4.978
 3983SOL    HW112395   3.509   0.794   4.941
 3983SOL    HW212396   3.537   0.951   4.905
 3984SOL     OW12397   3.087   0.325   4.173
 3984SOL    HW112398   3.152   0.251   4.162
 3984SOL    HW212399   3.107   0.375   4.257
 3985SOL     OW12400   2.456   0.745   4.376
 3985SOL    HW112401   2.506   0.830   4.357
 3985SOL    HW212402   2.368   0.747   4.328
 3986SOL     OW12403   3.639   0.342   5.366
 3986SOL    HW112404   3.622   0.373   5.272
 3986SOL    HW212405   3.555   0.305   5.404
 3987SOL     OW12406   3.592   0.934   5.241
 3987SOL    HW112407   3.630   1.025   5.256
 3987SOL    HW212408   3.584   0.917   5.142
 3988SOL     OW12409   2.721   1.374   3.740
 3988SOL    HW112410   2.675   1.389   3.828
 3988SOL    HW212411   2.765   1.459   3.710
 3989SOL     OW12412   2.523   1.790   4.677
 3989SOL    HW112413   2.477   1.878   4.664
 3989SOL    HW212414   2.622   1.802   4.670
 3990SOL     OW12415   2.721   0.956   4.585
 3990SOL    HW112416   2.775   0.887   4.633
 3990SOL    HW212417   2.689   1.025   4.651
 3991SOL     OW12418   2.945   0.984   3.811
 3991SOL    HW112419   2.922   1.037   3.729
 3991SOL    HW212420   3.026   0.928   3.792
 3992SOL     OW12421   3.723   1.569   4.575
 3992SOL    HW112422   3.652   1.557   4.505
 3992SOL    HW212423   3.724   1.490   4.635
 3993SOL     OW12424   2.083   1.314   5.568
 3993SOL    HW112425   2.018   1.241   5.547
 3993SOL    HW212426   2.087   1.328   5.666
 3994SOL     OW12427   1.941   1.240   4.377
 3994SOL    HW112428   1.940   1.193   4.465
 3994SOL    HW212429   2.023   1.212   4.326
 3995SOL     OW12430   2.534   1.391   5.348
 3995SOL    HW112431   2.456   1.341   5.386
 3995SOL    HW212432   2.531   1.486   5.379
 3996SOL     OW12433   3.686   0.192   4.951
 3996SOL    HW112434   3.682   0.102   4.995
 3996SOL    HW212435   3.689   0.181   4.852
 3997SOL     OW12436   2.290   0.424   4.244
 3997SOL    HW112437   2.320   0.352   4.182
 3997SOL    HW212438   2.251   0.384   4.327
 3998SOL     OW12439   3.567   1.487   4.828
 3998SOL    HW112440   3.474   1.462   4.801
 3998SOL    HW212441   3.593   1.437   4.910
 3999SOL     OW12442   2.179   0.547   5.004
 3999SOL    HW112443   2.217   0.488   5.076
 3999SOL    HW212444   2.219   0.521   4.916
 4000SOL     OW12445   2.674   1.586   4.411
 4000SOL    HW112446   2.706   1.596   4.317
 4000SOL    HW212447   2.595   1.524   4.413
 4001SOL     OW12448   3.286   0.214   4.836
 4001SOL    HW112449   3.338   0.149   4.891
 4001SOL    HW212450   3.237   0.277   4.897
 4002SOL     OW12451   2.863   0.034   4.878
 4002SOL    HW112452   2.800  -0.038   4.847
 4002SOL    HW212453   2.956  -0.002   4.878
 4003SOL     OW12454   2.632   1.330   4.025
 4003SOL    HW112455   2.586   1.243   4.042
 4003SOL    HW212456   2.723   1.327   4.066
 4004SOL     OW12457   2.480   1.567   5.008
 4004SOL    HW112458   2.475   1.649   5.065
 4004SOL    HW212459   2.569   1.564   4.963
 4005SOL     OW12460   3.214   0.052   3.892
 4005SOL    HW112461   3.249   0.011   3.808
 4005SOL    HW212462   3.124   0.014   3.912
 4006SOL     OW12463   3.162   0.453   4.415
 4006SOL    HW112464   3.103   0.533   4.419
 4006SOL    HW212465   3.177   0.418   4.508
 4007SOL     OW12466   3.455   0.221   4.606
 4007SOL    HW112467   3.371   0.220   4.660
 4007SOL    HW212468   3.457   0.304   4.550
 4008SOL     OW12469   1.901   1.077   4.024
 4008SOL    HW112470   2.000   1.066   4.015
 4008SOL    HW212471   1.861   0.991   4.056
 4009SOL     OW12472   2.737   1.646   4.061
 4009SOL    HW112473   2.660   1.611   4.007
 4009SOL    HW212474   2.705   1.717   4.123
 4010SOL     OW12475   2.092   0.628   5.699
 4010SOL    HW112476   1.999   0.626   5.736
 4010SOL    HW212477   2.093   0.589   5.607
 4011SOL     OW12478   2.087   0.275   6.582
 4011SOL    HW112479   2.122   0.258   6.674
 4011SOL    HW212480   1.999   0.230   6.570
 4012SOL     OW12481   1.881   0.368   6.233
 4012SOL    HW112482   1.799   0.411   6.272
 4012SOL    HW212483   1.853   0.295   6.170
 4013SOL     OW12484   3.417   1.511   6.289
 4013SOL    HW112485   3.360   1.495   6.370
 4013SOL    HW212486   3.358   1.521   6.209
 4014SOL     OW12487   2.997   0.703   6.303
 4014SOL    HW112488   3.054   0.781   6.278
 4014SOL    HW212489   2.937   0.729   6.379
 4015SOL     OW12490   3.617   0.607   5.817
 4015SOL    HW112491   3.605   0.594   5.718
 4015SOL    HW212492   3.587   0.526   5.866
 4016SOL     OW12493   2.630   1.144   6.609
 4016SOL    HW112494   2.552   1.161   6.669
 4016SOL    HW212495   2.664   1.231   6.573
 4017SOL     OW12496   2.712   0.798   7.409
 4017SOL    HW112497   2.708   0.874   7.474
 4017SOL    HW212498   2.734   0.834   7.318
 4018SOL     OW12499   2.547   1.012   6.251
 4018SOL    HW112500   2.616   0.996   6.321
 4018SOL    HW212501   2.474   1.069   6.289
 4019SOL     OW12502   2.548   1.161   7.389
 4019SOL    HW112503   2.608   1.240   7.403
 4019SOL    HW212504   2.462   1.192   7.348
 4020SOL     OW12505   3.322   1.505   6.925
 4020SOL    HW112506   3.346   1.599   6.951
 4020SOL    HW212507   3.306   1.451   7.007
 4021SOL     OW12508   2.300   0.392   7.085
 4021SOL    HW112509   2.382   0.336   7.094
 4021SOL    HW212510   2.219   0.334   7.089
 4022SOL     OW12511   3.465   0.447   6.323
 4022SOL    HW112512   3.391   0.493   6.273
 4022SOL    HW212513   3.516   0.515   6.376
 4023SOL     OW12514   2.093   1.713   6.069
 4023SOL    HW112515   2.127   1.790   6.123
 4023SOL    HW212516   2.137   1.713   5.979
 4024SOL     OW12517   2.989   1.341   7.276
 4024SOL    HW112518   3.036   1.341   7.364
 4024SOL    HW212519   2.941   1.254   7.265
 4025SOL     OW12520   2.092   1.434   6.124
 4025SOL    HW112521   2.066   1.530   6.124
 4025SOL    HW212522   2.021   1.380   6.169
 4026SOL     OW12523   2.468   0.964   5.709
 4026SOL    HW112524   2.475   1.048   5.655
 4026SOL    HW212525   2.514   0.977   5.797
 4027SOL     OW12526   3.456   0.114   7.066
 4027SOL    HW112527   3.438   0.181   6.994
 4027SOL    HW212528   3.453   0.160   7.155
 4028SOL     OW12529   1.984   0.643   6.149
 4028SOL    HW112530   1.939   0.555   6.166
 4028SOL    HW212531   1.983   0.697   6.233
 4029SOL     OW12532   3.704   1.767   5.945
 4029SOL    HW112533   3.758   1.738   6.025
 4029SOL    HW212534   3.734   1.857   5.916
 4030SOL     OW12535   1.889   1.596   5.703
 4030SOL    HW112536   1.870   1.500   5.724
 4030SOL    HW212537   1.856   1.654   5.778
 4031SOL     OW12538   3.551   0.922   6.198
 4031SOL    HW112539   3.646   0.893   6.206
 4031SOL    HW212540   3.543   0.987   6.123
 4032SOL     OW12541   3.503   1.108   6.018
 4032SOL    HW112542   3.589   1.110   5.966
 4032SOL    HW212543   3.517   1.155   6.106
 4033SOL     OW12544   1.975   0.737   7.183
 4033SOL    HW112545   2.063   0.724   7.228
 4033SOL    HW212546   1.962   0.834   7.161
 4034SOL     OW12547   2.475   1.365   6.312
 4034SOL    HW112548   2.426   1.278   6.321
 4034SOL    HW212549   2.452   1.408   6.225
 4035SOL     OW12550   3.155   1.228   7.009
 4035SOL    HW112551   3.192   1.155   6.951
 4035SOL    HW212552   3.207   1.233   7.094
 4036SOL     OW12553   2.671   0.004   6.088
 4036SOL    HW112554   2.711   0.095   6.079
 4036SOL    HW212555   2.571   0.012   6.094
 4037SOL     OW12556   2.059   0.976   6.850
 4037SOL    HW112557   2.148   0.931   6.836
 4037SOL    HW212558   1.986   0.911   6.831
 4038SOL     OW12559   3.387   0.999   5.776
 4038SOL    HW112560   3.324   0.923   5.789
 4038SOL    HW212561   3.435   1.017   5.862
 4039SOL     OW12562   3.049   1.792   7.202
 4039SOL    HW112563   3.073   1.852   7.126
 4039SOL    HW212564   3.056   1.697   7.172
 4040SOL     OW12565   2.179   0.251   7.387
 4040SOL    HW112566   2.250   0.322   7.393
 4040SOL    HW212567   2.091   0.290   7.415
 4041SOL     OW12568   3.328   1.417   6.539
 4041SOL    HW112569   3.269   1.423   6.619
 4041SOL    HW212570   3.313   1.329   6.493
 4042SOL     OW12571   3.529   1.714   6.158
 4042SOL    HW112572   3.488   1.691   6.070
 4042SOL    HW212573   3.511   1.640   6.223
 4043SOL     OW12574   2.460   0.729   5.856
 4043SOL    HW112575   2.484   0.798   5.788
 4043SOL    HW212576   2.382   0.762   5.910
 4044SOL     OW12577   3.143   0.345   6.530
 4044SOL    HW112578   3.057   0.295   6.517
 4044SOL    HW212579   3.205   0.291   6.586
 4045SOL     OW12580   3.438   1.662   5.893
 4045SOL    HW112581   3.527   1.708   5.896
 4045SOL    HW212582   3.417   1.638   5.798
 4046SOL     OW12583   2.669   0.605   7.051
 4046SOL    HW112584   2.622   0.602   7.140
 4046SOL    HW212585   2.618   0.550   6.985
 4047SOL     OW12586   3.256   0.469   7.260
 4047SOL    HW112587   3.236   0.512   7.348
 4047SOL    HW212588   3.334   0.407   7.269
 4048SOL     OW12589   2.835   0.890   7.158
 4048SOL    HW112590   2.881   0.806   7.129
 4048SOL    HW212591   2.779   0.924   7.083
 4049SOL     OW12592   2.853   0.410   6.828
 4049SOL    HW112593   2.776   0.444   6.882
 4049SOL    HW212594   2.819   0.359   6.749
 4050SOL     OW12595   2.903   0.701   6.015
 4050SOL    HW112596   2.929   0.697   6.111
 4050SOL    HW212597   2.818   0.650   6.001
 4051SOL     OW12598   1.938   0.811   6.375
 4051SOL    HW112599   2.037   0.799   6.384
 4051SOL    HW212600   1.914   0.906   6.396
 4052SOL     OW12601   2.727   0.348   5.781
 4052SOL    HW112602   2.786   0.411   5.732
 4052SOL    HW212603   2.746   0.254   5.752
 4053SOL     OW12604   3.581   0.585   7.417
 4053SOL    HW112605   3.555   0.674   7.381
 4053SOL    HW212606   3.579   0.517   7.344
 4054SOL     OW12607   3.224   1.144   6.131
 4054SOL    HW112608   3.307   1.115   6.083
 4054SOL    HW212609   3.175   1.211   6.075
 4055SOL     OW12610   2.412   0.196   6.471
 4055SOL    HW112611   2.407   0.191   6.571
 4055SOL    HW212612   2.414   0.292   6.442
 4056SOL     OW12613   2.870   1.456   6.063
 4056SOL    HW112614   2.824   1.528   6.011
 4056SOL    HW212615   2.866   1.476   6.161
 4057SOL     OW12616   2.213   1.801   6.439
 4057SOL    HW112617   2.263   1.715   6.445
 4057SOL    HW212618   2.278   1.878   6.436
 4058SOL     OW12619   3.657   1.066   6.459
 4058SOL    HW112620   3.595   1.051   6.383
 4058SOL    HW212621   3.605   1.077   6.544
 4059SOL     OW12622   3.089   1.550   7.092
 4059SOL    HW112623   3.095   1.473   7.156
 4059SOL    HW212624   3.037   1.524   7.012
 4060SOL     OW12625   2.183   0.943   5.828
 4060SOL    HW112626   2.265   0.982   5.786
 4060SOL    HW212627   2.156   0.861   5.779
 4061SOL     OW12628   3.320   0.735   6.314
 4061SOL    HW112629   3.315   0.670   6.389
 4061SOL    HW212630   3.400   0.794   6.327
 4062SOL     OW12631   2.323   1.266   7.313
 4062SOL    HW112632   2.273   1.267   7.227
 4062SOL    HW212633   2.260   1.248   7.389
 4063SOL     OW12634   2.973   1.776   5.823
 4063SOL    HW112635   2.913   1.714   5.873
 4063SOL    HW212636   3.004   1.732   5.738
 4064SOL     OW12637   2.064   0.285   7.084
 4064SOL    HW112638   1.984   0.345   7.071
 4064SOL    HW212639   2.054   0.236   7.170
 4065SOL     OW12640   3.494   1.377   5.667
 4065SOL    HW112641   3.462   1.471   5.657
 4065SOL    HW212642   3.418   1.314   5.655
 4066SOL     OW12643   2.326   1.743   5.909
 4066SOL    HW112644   2.359   1.782   5.995
 4066SOL    HW212645   2.402   1.736   5.844
 4067SOL     OW12646   3.262   0.107   6.012
 4067SOL    HW112647   3.238   0.070   5.922
 4067SOL    HW212648   3.361   0.123   6.016
 4068SOL     OW12649   2.111   1.785   6.827
 4068SOL    HW112650   2.168   1.720   6.877
 4068SOL    HW212651   2.095   1.752   6.734
 4069SOL     OW12652   2.802   1.698   6.490
 4069SOL    HW112653   2.882   1.641   6.511
 4069SOL    HW212654   2.753   1.658   6.413
 4070SOL     OW12655   2.244   0.700   6.066
 4070SOL    HW112656   2.289   0.610   6.063
 4070SOL    HW212657   2.150   0.689   6.099
 4071SOL     OW12658   3.409   0.222   7.315
 4071SOL    HW112659   3.404   0.259   7.407
 4071SOL    HW212660   3.337   0.153   7.303
 4072SOL     OW12661   2.476   0.122   5.703
 4072SOL    HW112662   2.574   0.100   5.710
 4072SOL    HW212663   2.445   0.105   5.610
 4073SOL     OW12664   2.643   0.264   7.335
 4073SOL    HW112665   2.710   0.203   7.378
 4073SOL    HW212666   2.570   0.283   7.400
 4074SOL     OW12667   3.213   0.590   7.019
 4074SOL    HW112668   3.241   0.547   7.104
 4074SOL    HW212669   3.238   0.686   7.020
 4075SOL     OW12670   2.665   1.402   6.510
 4075SOL    HW112671   2.755   1.416   6.468
 4075SOL    HW212672   2.594   1.404   6.439
 4076SOL     OW12673   2.784   0.503   6.485
 4076SOL    HW112674   2.759   0.494   6.389
 4076SOL    HW212675   2.832   0.421   6.516
 4077SOL     OW12676   2.401   0.064   6.098
 4077SOL    HW112677   2.320   0.065   6.156
 4077SOL    HW212678   2.404   0.147   6.043
 4078SOL     OW12679   3.296   1.188   5.627
 4078SOL    HW112680   3.328   1.112   5.684
 4078SOL    HW212681   3.204   1.215   5.657
 4079SOL     OW12682   2.159   0.035   5.757
 4079SOL    HW112683   2.208   0.119   5.736
 4079SOL    HW212684   2.221  -0.030   5.802
 4080SOL     OW12685   2.797   0.236   6.066
 4080SOL    HW112686   2.749   0.277   5.988
 4080SOL    HW212687   2.896   0.234   6.047
 4081SOL     OW12688   2.938   0.683   7.050
 4081SOL    HW112689   2.858   0.622   7.053
 4081SOL    HW212690   3.019   0.630   7.026
 4082SOL     OW12691   3.089   1.570   6.379
 4082SOL    HW112692   3.110   1.644   6.314
 4082SOL    HW212693   3.157   1.570   6.452
 4083SOL     OW12694   2.321   1.152   6.327
 4083SOL    HW112695   2.250   1.125   6.392
 4083SOL    HW212696   2.295   1.124   6.234
 4084SOL     OW12697   3.133   1.797   6.177
 4084SOL    HW112698   3.177   1.861   6.113
 4084SOL    HW212699   3.083   1.849   6.247
 4085SOL     OW12700   2.894   0.549   5.602
 4085SOL    HW112701   2.853   0.631   5.563
 4085SOL    HW212702   2.958   0.575   5.675
 4086SOL     OW12703   1.940   0.556   6.972
 4086SOL    HW112704   2.032   0.555   6.931
 4086SOL    HW212705   1.934   0.630   7.039
 4087SOL     OW12706   2.423   0.222   6.733
 4087SOL    HW112707   2.461   0.138   6.770
 4087SOL    HW212708   2.335   0.241   6.777
 4088SOL     OW12709   2.728   0.454   6.228
 4088SOL    HW112710   2.696   0.526   6.166
 4088SOL    HW212711   2.752   0.373   6.175
 4089SOL     OW12712   2.879   0.039   6.339
 4089SOL    HW112713   2.807   0.044   6.270
 4089SOL    HW212714   2.855  -0.030   6.408
 4090SOL     OW12715   3.291   1.173   6.453
 4090SOL    HW112716   3.236   1.089   6.446
 4090SOL    HW212717   3.317   1.202   6.361
 4091SOL     OW12718   3.328   0.590   6.578
 4091SOL    HW112719   3.298   0.495   6.585
 4091SOL    HW212720   3.401   0.606   6.644
 4092SOL     OW12721   3.719   0.833   5.963
 4092SOL    HW112722   3.761   0.769   6.027
 4092SOL    HW212723   3.681   0.782   5.885
 4093SOL     OW12724   2.350   1.385   5.760
 4093SOL    HW112725   2.263   1.370   5.807
 4093SOL    HW212726   2.333   1.411   5.665
 4094SOL     OW12727   3.526   1.280   6.243
 4094SOL    HW112728   3.625   1.288   6.257
 4094SOL    HW212729   3.481   1.364   6.274
 4095SOL     OW12730   3.252   0.575   5.664
 4095SOL    HW112731   3.198   0.554   5.745
 4095SOL    HW212732   3.343   0.534   5.673
 4096SOL     OW12733   2.389   0.256   5.914
 4096SOL    HW112734   2.416   0.197   5.839
 4096SOL    HW212735   2.389   0.351   5.883
 4097SOL     OW12736   3.616   1.223   7.174
 4097SOL    HW112737   3.707   1.184   7.161
 4097SOL    HW212738   3.624   1.319   7.198
 4098SOL     OW12739   2.926   1.347   6.926
 4098SOL    HW112740   2.846   1.324   6.981
 4098SOL    HW212741   3.009   1.321   6.975
 4099SOL     OW12742   3.454   1.629   7.211
 4099SOL    HW112743   3.481   1.663   7.121
 4099SOL    HW212744   3.533   1.591   7.257
 4100SOL     OW12745   2.973   1.195   6.686
 4100SOL    HW112746   2.933   1.239   6.767
 4100SOL    HW212747   2.932   1.232   6.603
 4101SOL     OW12748   3.500   1.099   6.665
 4101SOL    HW112749   3.505   1.180   6.724
 4101SOL    HW212750   3.414   1.101   6.614
 4102SOL     OW12751   2.777   0.089   6.988
 4102SOL    HW112752   2.802   0.069   6.893
 4102SOL    HW212753   2.849   0.145   7.030
 4103SOL     OW12754   2.842   1.116   7.305
 4103SOL    HW112755   2.743   1.122   7.315
 4103SOL    HW212756   2.865   1.036   7.249
 4104SOL     OW12757   2.567   1.050   5.954
 4104SOL    HW112758   2.553   1.057   6.053
 4104SOL    HW212759   2.651   0.999   5.936
 4105SOL     OW12760   2.272   0.813   6.837
 4105SOL    HW112761   2.358   0.825   6.887
 4105SOL    HW212762   2.230   0.726   6.864
 4106SOL     OW12763   3.136   0.386   6.848
 4106SOL    HW112764   3.157   0.460   6.912
 4106SOL    HW212765   3.047   0.403   6.805
 4107SOL     OW12766   2.229   1.100   6.087
 4107SOL    HW112767   2.222   1.183   6.031
 4107SOL    HW212768   2.233   1.020   6.027
 4108SOL     OW12769   2.428   0.537   6.451
 4108SOL    HW112770   2.440   0.603   6.377
 4108SOL    HW212771   2.474   0.571   6.534
 4109SOL     OW12772   3.114   1.348   5.974
 4109SOL    HW112773   3.164   1.425   6.014
 4109SOL    HW212774   3.019   1.350   6.006
 4110SOL     OW12775   3.134   1.445   6.728
 4110SOL    HW112776   3.181   1.458   6.815
 4110SOL    HW212777   3.068   1.371   6.737
 4111SOL     OW12778   3.444   0.639   6.058
 4111SOL    HW112779   3.413   0.700   6.131
 4111SOL    HW212780   3.494   0.691   5.989
 4112SOL     OW12781   2.264   0.751   7.184
 4112SOL    HW112782   2.332   0.806   7.137
 4112SOL    HW212783   2.304   0.663   7.211
 4113SOL     OW12784   3.449   0.779   7.256
 4113SOL    HW112785   3.357   0.817   7.251
 4113SOL    HW212786   3.509   0.826   7.191
 4114SOL     OW12787   2.875   0.105   7.356
 4114SOL    HW112788   2.881   0.190   7.304
 4114SOL    HW212789   2.907   0.029   7.299
 4115SOL     OW12790   2.366   0.050   7.326
 4115SOL    HW112791   2.324  -0.007   7.256
 4115SOL    HW212792   2.300   0.119   7.358
 4116SOL     OW12793   2.435   0.870   6.615
 4116SOL    HW112794   2.479   0.959   6.606
 4116SOL    HW212795   2.372   0.870   6.692
 4117SOL     OW12796   3.222   0.862   6.631
 4117SOL    HW112797   3.147   0.862   6.565
 4117SOL    HW212798   3.259   0.770   6.640
 4118SOL     OW12799   3.071   0.525   5.861
 4118SOL    HW112800   3.084   0.441   5.915
 4118SOL    HW212801   3.042   0.599   5.921
 4119SOL     OW12802   2.169   0.213   6.817
 4119SOL    HW112803   2.146   0.250   6.907
 4119SOL    HW212804   2.139   0.118   6.811
 4120SOL     OW12805   2.594   0.634   6.650
 4120SOL    HW112806   2.653   0.608   6.574
 4120SOL    HW212807   2.566   0.730   6.639
 4121SOL     OW12808   3.590   0.935   7.440
 4121SOL    HW112809   3.544   0.928   7.351
 4121SOL    HW212810   3.528   0.979   7.506
 4122SOL     OW12811   2.169   0.063   6.204
 4122SOL    HW112812   2.158   0.157   6.237
 4122SOL    HW212813   2.164   0.000   6.281
 4123SOL     OW12814   3.484   0.367   5.960
 4123SOL    HW112815   3.486   0.291   6.024
 4123SOL    HW212816   3.436   0.444   6.000
 4124SOL     OW12817   2.885   0.766   6.552
 4124SOL    HW112818   2.900   0.787   6.648
 4124SOL    HW212819   2.855   0.671   6.543
 4125SOL     OW12820   2.842   1.573   7.286
 4125SOL    HW112821   2.822   1.617   7.198
 4125SOL    HW212822   2.881   1.482   7.270
 4126SOL     OW12823   3.721   1.518   7.191
 4126SOL    HW112824   3.735   1.545   7.096
 4126SOL    HW212825   3.804   1.540   7.244
 4127SOL     OW12826   2.212   0.898   7.390
 4127SOL    HW112827   2.288   0.942   7.438
 4127SOL    HW212828   2.247   0.851   7.308
 4128SOL     OW12829   3.402   0.274   5.711
 4128SOL    HW112830   3.341   0.199   5.734
 4128SOL    HW212831   3.424   0.326   5.794
 4129SOL     OW12832   3.165   0.838   5.628
 4129SOL    HW112833   3.199   0.745   5.643
 4129SOL    HW212834   3.183   0.865   5.533
 4130SOL     OW12835   2.930   1.333   6.435
 4130SOL    HW112836   2.937   1.249   6.380
 4130SOL    HW212837   2.992   1.402   6.399
 4131SOL     OW12838   2.181   0.810   6.535
 4131SOL    HW112839   2.274   0.846   6.540
 4131SOL    HW212840   2.175   0.725   6.587
 4132SOL     OW12841   2.201   0.509   6.592
 4132SOL    HW112842   2.149   0.426   6.575
 4132SOL    HW212843   2.278   0.514   6.528
 4133SOL     OW12844   3.000   0.380   7.264
 4133SOL    HW112845   2.955   0.443   7.328
 4133SOL    HW212846   3.093   0.411   7.247
 4134SOL     OW12847   3.022   0.207   7.063
 4134SOL    HW112848   3.022   0.271   7.140
 4134SOL    HW212849   3.050   0.255   6.980
 4135SOL     OW12850   1.870   1.326   5.786
 4135SOL    HW112851   1.777   1.347   5.755
 4135SOL    HW212852   1.880   1.227   5.799
 4136SOL     OW12853   2.366   1.568   6.496
 4136SOL    HW112854   2.432   1.642   6.505
 4136SOL    HW212855   2.410   1.489   6.454
 4137SOL     OW12856   2.864   0.796   6.824
 4137SOL    HW112857   2.905   0.764   6.910
 4137SOL    HW212858   2.768   0.769   6.821
 4138SOL     OW12859   1.902   0.544   6.700
 4138SOL    HW112860   1.987   0.511   6.659
 4138SOL    HW212861   1.915   0.559   6.798
 4139SOL     OW12862   2.051   0.520   7.308
 4139SOL    HW112863   2.110   0.480   7.238
 4139SOL    HW212864   1.993   0.591   7.267
 4140SOL     OW12865   3.231   0.950   7.246
 4140SOL    HW112866   3.270   1.039   7.266
 4140SOL    HW212867   3.241   0.930   7.149
 4141SOL     OW12868   2.677   0.572   5.911
 4141SOL    HW112869   2.684   0.483   5.865
 4141SOL    HW212870   2.583   0.606   5.903
 4142SOL     OW12871   3.519   0.604   6.792
 4142SOL    HW112872   3.481   0.535   6.854
 4142SOL    HW212873   3.601   0.568   6.748
 4143SOL     OW12874   2.533   0.464   6.855
 4143SOL    HW112875   2.499   0.375   6.825
 4143SOL    HW212876   2.559   0.518   6.775
 4144SOL     OW12877   2.335   0.500   5.777
 4144SOL    HW112878   2.396   0.580   5.781
 4144SOL    HW212879   2.240   0.531   5.784
 4145SOL     OW12880   2.021   1.137   7.052
 4145SOL    HW112881   2.043   1.076   7.128
 4145SOL    HW212882   2.031   1.088   6.966
 4146SOL     OW12883   3.209   1.059   6.820
 4146SOL    HW112884   3.233   0.996   6.746
 4146SOL    HW212885   3.119   1.099   6.802
 4147SOL     OW12886   3.164   0.855   5.895
 4147SOL    HW112887   3.078   0.824   5.937
 4147SOL    HW212888   3.160   0.841   5.796
 4148SOL     OW12889   3.621   1.747   6.740
 4148SOL    HW112890   3.682   1.777   6.667
 4148SOL    HW212891   3.583   1.658   6.718
 4149SOL     OW12892   3.114   1.731   6.714
 4149SOL    HW112893   3.198   1.736   6.660
 4149SOL    HW212894   3.091   1.635   6.732
 4150SOL     OW12895   3.588   0.135   6.109
 4150SOL    HW112896   3.661   0.118   6.042
 4150SOL    HW212897   3.557   0.048   6.147
 4151SOL     OW12898   3.250   1.573   6.063
 4151SOL    HW112899   3.317   1.585   5.989
 4151SOL    HW212900   3.210   1.662   6.086
 4152SOL     OW12901   3.142   0.927   6.258
 4152SOL    HW112902   3.202   0.846   6.260
 4152SOL    HW212903   3.182   0.996   6.198
 4153SOL     OW12904   2.534   1.616   5.740
 4153SOL    HW112905   2.543   1.626   5.641
 4153SOL    HW212906   2.494   1.527   5.761
 4154SOL     OW12907   3.512   1.720   6.980
 4154SOL    HW112908   3.565   1.730   6.896
 4154SOL    HW212909   3.485   1.810   7.014
 4155SOL     OW12910   3.703   0.175   6.549
 4155SOL    HW112911   3.742   0.090   6.513
 4155SOL    HW212912   3.605   0.177   6.530
 4156SOL     OW12913   2.125   0.326   6.306
 4156SOL    HW112914   2.046   0.377   6.272
 4156SOL    HW212915   2.116   0.311   6.404
 4157SOL     OW12916   3.056   1.612   5.617
 4157SOL    HW112917   3.062   1.519   5.654
 4157SOL    HW212918   2.997   1.612   5.537
 4158SOL     OW12919   2.684   1.002   6.958
 4158SOL    HW112920   2.724   1.001   6.866
 4158SOL    HW212921   2.694   1.094   6.998
 4159SOL     OW12922   2.778   0.910   5.877
 4159SOL    HW112923   2.841   0.948   5.809
 4159SOL    HW212924   2.818   0.827   5.916
 4160SOL     OW12925   3.366   1.607   5.630
 4160SOL    HW112926   3.274   1.644   5.637
 4160SOL    HW212927   3.404   1.627   5.540
 4161SOL     OW12928   3.476   1.292   6.875
 4161SOL    HW112929   3.536   1.295   6.955
 4161SOL    HW212930   3.401   1.356   6.888
 4162SOL     OW12931   2.901   1.098   6.282
 4162SOL    HW112932   2.831   1.051   6.336
 4162SOL    HW212933   2.960   1.030   6.239
 4163SOL     OW12934   2.876   0.236   6.557
 4163SOL    HW112935   2.868   0.200   6.464
 4163SOL    HW212936   2.874   0.160   6.622
 4164SOL     OW12937   2.452   1.487   6.077
 4164SOL    HW112938   2.494   1.429   6.007
 4164SOL    HW212939   2.408   1.566   6.033
 4165SOL     OW12940   3.571   0.385   6.967
 4165SOL    HW112941   3.644   0.454   6.971
 4165SOL    HW212942   3.599   0.310   6.908
 4166SOL     OW12943   2.117   1.348   5.876
 4166SOL    HW112944   2.021   1.349   5.849
 4166SOL    HW212945   2.129   1.401   5.960
 4167SOL     OW12946   1.967   1.013   7.312
 4167SOL    HW112947   1.890   0.980   7.366
 4167SOL    HW212948   2.052   0.983   7.354
 4168SOL     OW12949   2.534   0.203   7.075
 4168SOL    HW112950   2.624   0.187   7.035
 4168SOL    HW212951   2.542   0.208   7.174
 4169SOL     OW12952   1.937   0.345   5.619
 4169SOL    HW112953   1.845   0.317   5.590
 4169SOL    HW212954   1.968   0.422   5.563
 4170SOL     OW12955   3.302   0.856   6.984
 4170SOL    HW112956   3.245   0.908   6.921
 4170SOL    HW212957   3.398   0.868   6.960
 4171SOL     OW12958   1.934   0.166   5.904
 4171SOL    HW112959   1.917   0.249   5.850
 4171SOL    HW212960   2.024   0.129   5.882
 4172SOL     OW12961   3.045   1.335   5.705
 4172SOL    HW112962   2.946   1.324   5.707
 4172SOL    HW212963   3.079   1.350   5.798
 4173SOL     OW12964   2.475   0.842   7.017
 4173SOL    HW112965   2.531   0.923   7.000
 4173SOL    HW212966   2.534   0.762   7.020
 4174SOL     OW12967   3.355   1.767   6.545
 4174SOL    HW112968   3.388   1.831   6.476
 4174SOL    HW212969   3.421   1.761   6.620
 4175SOL     OW12970   2.578   0.565   7.294
 4175SOL    HW112971   2.597   0.630   7.368
 4175SOL    HW212972   2.638   0.485   7.303
 4176SOL     OW12973   3.312   1.220   7.219
 4176SOL    HW112974   3.303   1.210   7.318
 4176SOL    HW212975   3.408   1.213   7.193
 4177SOL     OW12976   3.536   0.883   6.840
 4177SOL    HW112977   3.509   0.794   6.803
 4177SOL    HW212978   3.537   0.951   6.767
 4178SOL     OW12979   3.087   0.325   6.035
 4178SOL    HW112980   3.152   0.251   6.024
 4178SOL    HW212981   3.107   0.375   6.119
 4179SOL     OW12982   2.456   0.745   6.238
 4179SOL    HW112983   2.506   0.830   6.219
 4179SOL    HW212984   2.368   0.747   6.190
 4180SOL     OW12985   3.639   0.342   7.228
 4180SOL    HW112986   3.622   0.373   7.134
 4180SOL    HW212987   3.555   0.305   7.266
 4181SOL     OW12988   3.592   0.934   7.103
 4181SOL    HW112989   3.630   1.025   7.118
 4181SOL    HW212990   3.584   0.917   7.004
 4182SOL     OW12991   2.721   1.374   5.602
 4182SOL    HW112992   2.675   1.389   5.690
 4182SOL    HW212993   2.765   1.459   5.572
 4183SOL     OW12994   2.523   1.790   6.539
 4183SOL    HW112995   2.477   1.878   6.526
 4183SOL    HW212996   2.622   1.802   6.532
 4184SOL     OW12997   2.721   0.956   6.447
 4184SOL    HW112998   2.775   0.887   6.495
 4184SOL    HW212999   2.689   1.025   6.513
 4185SOL     OW13000   2.945   0.984   5.673
 4185SOL    HW113001   2.922   1.037   5.591
 4185SOL    HW213002   3.026   0.928   5.654
 4186SOL     OW13003   3.723   1.569   6.437
 4186SOL    HW113004   3.652   1.557   6.367
 4186SOL    HW213005   3.724   1.490   6.497
 4187SOL     OW13006   2.083   1.314   7.430
 4187SOL    HW113007   2.018   1.241   7.409
 4187SOL    HW213008   2.087   1.328   7.528
 4188SOL     OW13009   1.941   1.240   6.239
 4188SOL    HW113010   1.940   1.193   6.327
 4188SOL    HW213011   2.023   1.212   6.188
 4189SOL     OW13012   3.686   0.192   6.813
 4189SOL    HW113013   3.682   0.102   6.857
 4189SOL    HW213014   3.689   0.181   6.714
 4190SOL     OW13015   2.290   0.424   6.106
 4190SOL    HW113016   2.320   0.352   6.044
 4190SOL    HW213017   2.251   0.384   6.189
 4191SOL     OW13018   3.567   1.487   6.690
 4191SOL    HW113019   3.474   1.462   6.663
 4191SOL    HW213020   3.593   1.437   6.772
 4192SOL     OW13021   2.179   0.547   6.866
 4192SOL    HW113022   2.217   0.488   6.938
 4192SOL    HW213023   2.219   0.521   6.778
 4193SOL     OW13024   2.674   1.586   6.273
 4193SOL    HW113025   2.706   1.596   6.179
 4193SOL    HW213026   2.595   1.524   6.275
 4194SOL     OW13027   3.286   0.214   6.698
 4194SOL    HW113028   3.338   0.149   6.753
 4194SOL    HW213029   3.237   0.277   6.759
 4195SOL     OW13030   2.863   0.034   6.740
 4195SOL    HW113031   2.800  -0.038   6.709
 4195SOL    HW213032   2.956  -0.002   6.740
 4196SOL     OW13033   2.632   1.330   5.887
 4196SOL    HW113034   2.586   1.243   5.904
 4196SOL    HW213035   2.723   1.327   5.928
 4197SOL     OW13036   3.214   0.052   5.754
 4197SOL    HW113037   3.249   0.011   5.670
 4197SOL    HW213038   3.124   0.014   5.774
 4198SOL     OW13039   3.162   0.453   6.277
 4198SOL    HW113040   3.103   0.533   6.281
 4198SOL    HW213041   3.177   0.418   6.370
 4199SOL     OW13042   3.455   0.221   6.468
 4199SOL    HW113043   3.371   0.220   6.522
 4199SOL    HW213044   3.457   0.304   6.412
 4200SOL     OW13045   1.901   1.077   5.886
 4200SOL    HW113046   2.000   1.066   5.877
 4200SOL    HW213047   1.861   0.991   5.918
 4201SOL     OW13048   2.737   1.646   5.923
 4201SOL    HW113049   2.660   1.611   5.869
 4201SOL    HW213050   2.705   1.717   5.985
 4202SOL     OW13051   2.092   0.628   7.561
 4202SOL    HW113052   1.999   0.626   7.598
 4202SOL    HW213053   2.093   0.589   7.469
 4203SOL     OW13054   2.087   0.275   8.444
 4203SOL    HW113055   2.122   0.258   8.536
 4203SOL    HW213056   1.999   0.230   8.432
 4204SOL     OW13057   1.881   0.368   8.095
 4204SOL    HW113058   1.799   0.411   8.134
 4204SOL    HW213059   1.853   0.295   8.032
 4205SOL     OW13060   2.431   1.275   8.613
 4205SOL    HW113061   2.338   1.268   8.576
 4205SOL    HW213062   2.442   1.364   8.657
 4206SOL     OW13063   3.417   1.511   8.151
 4206SOL    HW113064   3.360   1.495   8.232
 4206SOL    HW213065   3.358   1.521   8.071
 4207SOL     OW13066   2.997   0.703   8.165
 4207SOL    HW113067   3.054   0.781   8.140
 4207SOL    HW213068   2.937   0.729   8.241
 4208SOL     OW13069   3.617   0.607   7.679
 4208SOL    HW113070   3.605   0.594   7.580
 4208SOL    HW213071   3.587   0.526   7.728
 4209SOL     OW13072   2.630   1.144   8.471
 4209SOL    HW113073   2.552   1.161   8.531
 4209SOL    HW213074   2.664   1.231   8.435
 4210SOL     OW13075   2.712   0.798   9.271
 4210SOL    HW113076   2.708   0.874   9.336
 4210SOL    HW213077   2.734   0.834   9.180
 4211SOL     OW13078   2.547   1.012   8.113
 4211SOL    HW113079   2.616   0.996   8.183
 4211SOL    HW213080   2.474   1.069   8.151
 4212SOL     OW13081   2.548   1.161   9.251
 4212SOL    HW113082   2.608   1.240   9.265
 4212SOL    HW213083   2.462   1.192   9.210
 4213SOL     OW13084   2.197   1.435   8.509
 4213SOL    HW113085   2.119   1.404   8.456
 4213SOL    HW213086   2.255   1.493   8.452
 4214SOL     OW13087   3.322   1.505   8.787
 4214SOL    HW113088   3.346   1.599   8.813
 4214SOL    HW213089   3.306   1.451   8.869
 4215SOL     OW13090   2.300   0.392   8.947
 4215SOL    HW113091   2.382   0.336   8.956
 4215SOL    HW213092   2.219   0.334   8.951
 4216SOL     OW13093   3.465   0.447   8.185
 4216SOL    HW113094   3.391   0.493   8.135
 4216SOL    HW213095   3.516   0.515   8.238
 4217SOL     OW13096   2.093   1.713   7.931
 4217SOL    HW113097   2.127   1.790   7.985
 4217SOL    HW213098   2.137   1.713   7.841
 4218SOL     OW13099   2.989   1.341   9.138
 4218SOL    HW113100   3.036   1.341   9.226
 4218SOL    HW213101   2.941   1.254   9.127
 4219SOL     OW13102   2.092   1.434   7.986
 4219SOL    HW113103   2.066   1.530   7.986
 4219SOL    HW213104   2.021   1.380   8.031
 4220SOL     OW13105   2.102   1.091   8.334
 4220SOL    HW113106   2.116   1.007   8.386
 4220SOL    HW213107   2.047   1.155   8.389
 4221SOL     OW13108   2.482   1.786   8.887
 4221SOL    HW113109   2.390   1.769   8.922
 4221SOL    HW213110   2.510   1.878   8.913
 4222SOL     OW13111   2.468   0.964   7.571
 4222SOL    HW113112   2.475   1.048   7.517
 4222SOL    HW213113   2.514   0.977   7.659
 4223SOL     OW13114   3.456   0.114   8.928
 4223SOL    HW113115   3.438   0.181   8.856
 4223SOL    HW213116   3.453   0.160   9.017
 4224SOL     OW13117   1.984   0.643   8.011
 4224SOL    HW113118   1.939   0.555   8.028
 4224SOL    HW213119   1.983   0.697   8.095
 4225SOL     OW13120   3.704   1.767   7.807
 4225SOL    HW113121   3.758   1.738   7.887
 4225SOL    HW213122   3.734   1.857   7.778
 4226SOL     OW13123   1.889   1.596   7.565
 4226SOL    HW113124   1.870   1.500   7.586
 4226SOL    HW213125   1.856   1.654   7.640
 4227SOL     OW13126   3.551   0.922   8.060
 4227SOL    HW113127   3.646   0.893   8.068
 4227SOL    HW213128   3.543   0.987   7.985
 4228SOL     OW13129   3.503   1.108   7.880
 4228SOL    HW113130   3.589   1.110   7.828
 4228SOL    HW213131   3.517   1.155   7.968
 4229SOL     OW13132   1.975   0.737   9.045
 4229SOL    HW113133   2.063   0.724   9.090
 4229SOL    HW213134   1.962   0.834   9.023
 4230SOL     OW13135   2.475   1.365   8.174
 4230SOL    HW113136   2.426   1.278   8.183
 4230SOL    HW213137   2.452   1.408   8.087
 4231SOL     OW13138   3.155   1.228   8.871
 4231SOL    HW113139   3.192   1.155   8.813
 4231SOL    HW213140   3.207   1.233   8.956
 4232SOL     OW13141   2.671   0.004   7.950
 4232SOL    HW113142   2.711   0.095   7.941
 4232SOL    HW213143   2.571   0.012   7.956
 4233SOL     OW13144   2.059   0.976   8.712
 4233SOL    HW113145   2.148   0.931   8.698
 4233SOL    HW213146   1.986   0.911   8.693
 4234SOL     OW13147   3.387   0.999   7.638
 4234SOL    HW113148   3.324   0.923   7.651
 4234SOL    HW213149   3.435   1.017   7.724
 4235SOL     OW13150   3.049   1.792   9.064
 4235SOL    HW113151   3.073   1.852   8.988
 4235SOL    HW213152   3.056   1.697   9.034
 4236SOL     OW13153   2.179   0.251   9.249
 4236SOL    HW113154   2.250   0.322   9.255
 4236SOL    HW213155   2.091   0.290   9.277
 4237SOL     OW13156   3.328   1.417   8.401
 4237SOL    HW113157   3.269   1.423   8.481
 4237SOL    HW213158   3.313   1.329   8.355
 4238SOL     OW13159   3.529   1.714   8.020
 4238SOL    HW113160   3.488   1.691   7.932
 4238SOL    HW213161   3.511   1.640   8.085
 4239SOL     OW13162   2.460   0.729   7.718
 4239SOL    HW113163   2.484   0.798   7.650
 4239SOL    HW213164   2.382   0.762   7.772
 4240SOL     OW13165   3.143   0.345   8.392
 4240SOL    HW113166   3.057   0.295   8.379
 4240SOL    HW213167   3.205   0.291   8.448
 4241SOL     OW13168   3.438   1.662   7.755
 4241SOL    HW113169   3.527   1.708   7.758
 4241SOL    HW213170   3.417   1.638   7.660
 4242SOL     OW13171   2.669   0.605   8.913
 4242SOL    HW113172   2.622   0.602   9.002
 4242SOL    HW213173   2.618   0.550   8.847
 4243SOL     OW13174   3.256   0.469   9.122
 4243SOL    HW113175   3.236   0.512   9.210
 4243SOL    HW213176   3.334   0.407   9.131
 4244SOL     OW13177   2.835   0.890   9.020
 4244SOL    HW113178   2.881   0.806   8.991
 4244SOL    HW213179   2.779   0.924   8.945
 4245SOL     OW13180   2.853   0.410   8.690
 4245SOL    HW113181   2.776   0.444   8.744
 4245SOL    HW213182   2.819   0.359   8.611
 4246SOL     OW13183   2.903   0.701   7.877
 4246SOL    HW113184   2.929   0.697   7.973
 4246SOL    HW213185   2.818   0.650   7.863
 4247SOL     OW13186   1.938   0.811   8.237
 4247SOL    HW113187   2.037   0.799   8.246
 4247SOL    HW213188   1.914   0.906   8.258
 4248SOL     OW13189   2.727   0.348   7.643
 4248SOL    HW113190   2.786   0.411   7.594
 4248SOL    HW213191   2.746   0.254   7.614
 4249SOL     OW13192   3.581   0.585   9.279
 4249SOL    HW113193   3.555   0.674   9.243
 4249SOL    HW213194   3.579   0.517   9.206
 4250SOL     OW13195   3.224   1.144   7.993
 4250SOL    HW113196   3.307   1.115   7.945
 4250SOL    HW213197   3.175   1.211   7.937
 4251SOL     OW13198   2.412   0.196   8.333
 4251SOL    HW113199   2.407   0.191   8.433
 4251SOL    HW213200   2.414   0.292   8.304
 4252SOL     OW13201   2.870   1.456   7.925
 4252SOL    HW113202   2.824   1.528   7.873
 4252SOL    HW213203   2.866   1.476   8.023
 4253SOL     OW13204   2.213   1.801   8.301
 4253SOL    HW113205   2.263   1.715   8.307
 4253SOL    HW213206   2.278   1.878   8.298
 4254SOL     OW13207   3.657   1.066   8.321
 4254SOL    HW113208   3.595   1.051   8.245
 4254SOL    HW213209   3.605   1.077   8.406
 4255SOL     OW13210   3.089   1.550   8.954
 4255SOL    HW113211   3.095   1.473   9.018
 4255SOL    HW213212   3.037   1.524   8.874
 4256SOL     OW13213   2.183   0.943   7.690
 4256SOL    HW113214   2.265   0.982   7.648
 4256SOL    HW213215   2.156   0.861   7.641
 4257SOL     OW13216   3.320   0.735   8.176
 4257SOL    HW113217   3.315   0.670   8.251
 4257SOL    HW213218   3.400   0.794   8.189
 4258SOL     OW13219   2.323   1.266   9.175
 4258SOL    HW113220   2.273   1.267   9.089
 4258SOL    HW213221   2.260   1.248   9.251
 4259SOL     OW13222   2.973   1.776   7.685
 4259SOL    HW113223   2.913   1.714   7.735
 4259SOL    HW213224   3.004   1.732   7.600
 4260SOL     OW13225   2.064   0.285   8.946
 4260SOL    HW113226   1.984   0.345   8.933
 4260SOL    HW213227   2.054   0.236   9.032
 4261SOL     OW13228   3.494   1.377   7.529
 4261SOL    HW113229   3.462   1.471   7.519
 4261SOL    HW213230   3.418   1.314   7.517
 4262SOL     OW13231   2.326   1.743   7.771
 4262SOL    HW113232   2.359   1.782   7.857
 4262SOL    HW213233   2.402   1.736   7.706
 4263SOL     OW13234   3.262   0.107   7.874
 4263SOL    HW113235   3.238   0.070   7.784
 4263SOL    HW213236   3.361   0.123   7.878
 4264SOL     OW13237   2.111   1.785   8.689
 4264SOL    HW113238   2.168   1.720   8.739
 4264SOL    HW213239   2.095   1.752   8.596
 4265SOL     OW13240   2.802   1.698   8.352
 4265SOL    HW113241   2.882   1.641   8.373
 4265SOL    HW213242   2.753   1.658   8.275
 4266SOL     OW13243   2.244   0.700   7.928
 4266SOL    HW113244   2.289   0.610   7.925
 4266SOL    HW213245   2.150   0.689   7.961
 4267SOL     OW13246   3.409   0.222   9.177
 4267SOL    HW113247   3.404   0.259   9.269
 4267SOL    HW213248   3.337   0.153   9.165
 4268SOL     OW13249   2.476   0.122   7.565
 4268SOL    HW113250   2.574   0.100   7.572
 4268SOL    HW213251   2.445   0.105   7.472
 4269SOL     OW13252   2.643   0.264   9.197
 4269SOL    HW113253   2.710   0.203   9.240
 4269SOL    HW213254   2.570   0.283   9.262
 4270SOL     OW13255   2.750   1.514   8.643
 4270SOL    HW113256   2.727   1.489   8.549
 4270SOL    HW213257   2.811   1.445   8.682
 4271SOL     OW13258   3.213   0.590   8.881
 4271SOL    HW113259   3.241   0.547   8.966
 4271SOL    HW213260   3.238   0.686   8.882
 4272SOL     OW13261   2.665   1.402   8.372
 4272SOL    HW113262   2.755   1.416   8.330
 4272SOL    HW213263   2.594   1.404   8.301
 4273SOL     OW13264   2.784   0.503   8.347
 4273SOL    HW113265   2.759   0.494   8.251
 4273SOL    HW213266   2.832   0.421   8.378
 4274SOL     OW13267   2.401   0.064   7.960
 4274SOL    HW113268   2.320   0.065   8.018
 4274SOL    HW213269   2.404   0.147   7.905
 4275SOL     OW13270   3.296   1.188   7.489
 4275SOL    HW113271   3.328   1.112   7.546
 4275SOL    HW213272   3.204   1.215   7.519
 4276SOL     OW13273   2.159   0.035   7.619
 4276SOL    HW113274   2.208   0.119   7.598
 4276SOL    HW213275   2.221  -0.030   7.664
 4277SOL     OW13276   2.797   0.236   7.928
 4277SOL    HW113277   2.749   0.277   7.850
 4277SOL    HW213278   2.896   0.234   7.909
 4278SOL     OW13279   2.938   0.683   8.912
 4278SOL    HW113280   2.858   0.622   8.915
 4278SOL    HW213281   3.019   0.630   8.888
 4279SOL     OW13282   3.089   1.570   8.241
 4279SOL    HW113283   3.110   1.644   8.176
 4279SOL    HW213284   3.157   1.570   8.314
 4280SOL     OW13285   2.321   1.152   8.189
 4280SOL    HW113286   2.250   1.125   8.254
 4280SOL    HW213287   2.295   1.124   8.096
 4281SOL     OW13288   3.133   1.797   8.039
 4281SOL    HW113289   3.177   1.861   7.975
 4281SOL    HW213290   3.083   1.849   8.109
 4282SOL     OW13291   2.894   0.549   7.464
 4282SOL    HW113292   2.853   0.631   7.425
 4282SOL    HW213293   2.958   0.575   7.537
 4283SOL     OW13294   1.940   0.556   8.834
 4283SOL    HW113295   2.032   0.555   8.793
 4283SOL    HW213296   1.934   0.630   8.901
 4284SOL     OW13297   2.423   0.222   8.595
 4284SOL    HW113298   2.461   0.138   8.632
 4284SOL    HW213299   2.335   0.241   8.639
 4285SOL     OW13300   2.728   0.454   8.090
 4285SOL    HW113301   2.696   0.526   8.028
 4285SOL    HW213302   2.752   0.373   8.037
 4286SOL     OW13303   2.879   0.039   8.201
 4286SOL    HW113304   2.807   0.044   8.132
 4286SOL    HW213305   2.855  -0.030   8.270
 4287SOL     OW13306   3.291   1.173   8.315
 4287SOL    HW113307   3.236   1.089   8.308
 4287SOL    HW213308   3.317   1.202   8.223
 4288SOL     OW13309   3.328   0.590   8.440
 4288SOL    HW113310   3.298   0.495   8.447
 4288SOL    HW213311   3.401   0.606   8.506
 4289SOL     OW13312   3.719   0.833   7.825
 4289SOL    HW113313   3.761   0.769   7.889
 4289SOL    HW213314   3.681   0.782   7.747
 4290SOL     OW13315   2.350   1.385   7.622
 4290SOL    HW113316   2.263   1.370   7.669
 4290SOL    HW213317   2.333   1.411   7.527
 4291SOL     OW13318   3.526   1.280   8.105
 4291SOL    HW113319   3.625   1.288   8.119
 4291SOL    HW213320   3.481   1.364   8.136
 4292SOL     OW13321   3.252   0.575   7.526
 4292SOL    HW113322   3.198   0.554   7.607
 4292SOL    HW213323   3.343   0.534   7.535
 4293SOL     OW13324   2.389   0.256   7.776
 4293SOL    HW113325   2.416   0.197   7.701
 4293SOL    HW213326   2.389   0.351   7.745
 4294SOL     OW13327   3.616   1.223   9.036
 4294SOL    HW113328   3.707   1.184   9.023
 4294SOL    HW213329   3.624   1.319   9.060
 4295SOL     OW13330   2.926   1.347   8.788
 4295SOL    HW113331   2.846   1.324   8.843
 4295SOL    HW213332   3.009   1.321   8.837
 4296SOL     OW13333   3.454   1.629   9.073
 4296SOL    HW113334   3.481   1.663   8.983
 4296SOL    HW213335   3.533   1.591   9.119
 4297SOL     OW13336   2.973   1.195   8.548
 4297SOL    HW113337   2.933   1.239   8.629
 4297SOL    HW213338   2.932   1.232   8.465
 4298SOL     OW13339   3.500   1.099   8.527
 4298SOL    HW113340   3.505   1.180   8.586
 4298SOL    HW213341   3.414   1.101   8.476
 4299SOL     OW13342   2.777   0.089   8.850
 4299SOL    HW113343   2.802   0.069   8.755
 4299SOL    HW213344   2.849   0.145   8.892
 4300SOL     OW13345   2.842   1.116   9.167
 4300SOL    HW113346   2.743   1.122   9.177
 4300SOL    HW213347   2.865   1.036   9.111
 4301SOL     OW13348   2.567   1.050   7.816
 4301SOL    HW113349   2.553   1.057   7.915
 4301SOL    HW213350   2.651   0.999   7.798
 4302SOL     OW13351   2.272   0.813   8.699
 4302SOL    HW113352   2.358   0.825   8.749
 4302SOL    HW213353   2.230   0.726   8.726
 4303SOL     OW13354   3.136   0.386   8.710
 4303SOL    HW113355   3.157   0.460   8.774
 4303SOL    HW213356   3.047   0.403   8.667
 4304SOL     OW13357   1.926   1.564   8.779
 4304SOL    HW113358   1.880   1.646   8.745
 4304SOL    HW213359   2.024   1.583   8.788
 4305SOL     OW13360   2.229   1.100   7.949
 4305SOL    HW113361   2.222   1.183   7.893
 4305SOL    HW213362   2.233   1.020   7.889
 4306SOL     OW13363   2.428   0.537   8.313
 4306SOL    HW113364   2.440   0.603   8.239
 4306SOL    HW213365   2.474   0.571   8.396
 4307SOL     OW13366   3.114   1.348   7.836
 4307SOL    HW113367   3.164   1.425   7.876
 4307SOL    HW213368   3.019   1.350   7.868
 4308SOL     OW13369   3.134   1.445   8.590
 4308SOL    HW113370   3.181   1.458   8.677
 4308SOL    HW213371   3.068   1.371   8.599
 4309SOL     OW13372   3.444   0.639   7.920
 4309SOL    HW113373   3.413   0.700   7.993
 4309SOL    HW213374   3.494   0.691   7.851
 4310SOL     OW13375   2.216   1.510   8.777
 4310SOL    HW113376   2.195   1.466   8.690
 4310SOL    HW213377   2.313   1.536   8.780
 4311SOL     OW13378   2.264   0.751   9.046
 4311SOL    HW113379   2.332   0.806   8.999
 4311SOL    HW213380   2.304   0.663   9.073
 4312SOL     OW13381   3.449   0.779   9.118
 4312SOL    HW113382   3.357   0.817   9.113
 4312SOL    HW213383   3.509   0.826   9.053
 4313SOL     OW13384   2.875   0.105   9.218
 4313SOL    HW113385   2.881   0.190   9.166
 4313SOL    HW213386   2.907   0.029   9.161
 4314SOL     OW13387   2.366   0.050   9.188
 4314SOL    HW113388   2.324  -0.007   9.118
 4314SOL    HW213389   2.300   0.119   9.220
 4315SOL     OW13390   2.435   0.870   8.477
 4315SOL    HW113391   2.479   0.959   8.468
 4315SOL    HW213392   2.372   0.870   8.554
 4316SOL     OW13393   3.222   0.862   8.493
 4316SOL    HW113394   3.147   0.862   8.427
 4316SOL    HW213395   3.259   0.770   8.502
 4317SOL     OW13396   3.071   0.525   7.723
 4317SOL    HW113397   3.084   0.441   7.777
 4317SOL    HW213398   3.042   0.599   7.783
 4318SOL     OW13399   2.169   0.213   8.679
 4318SOL    HW113400   2.146   0.250   8.769
 4318SOL    HW213401   2.139   0.118   8.673
 4319SOL     OW13402   1.899   1.310   8.730
 4319SOL    HW113403   1.952   1.261   8.798
 4319SOL    HW213404   1.921   1.408   8.735
 4320SOL     OW13405   2.594   0.634   8.512
 4320SOL    HW113406   2.653   0.608   8.436
 4320SOL    HW213407   2.566   0.730   8.501
 4321SOL     OW13408   3.590   0.935   9.302
 4321SOL    HW113409   3.544   0.928   9.213
 4321SOL    HW213410   3.528   0.979   9.368
 4322SOL     OW13411   2.169   0.063   8.066
 4322SOL    HW113412   2.158   0.157   8.099
 4322SOL    HW213413   2.164   0.000   8.143
 4323SOL     OW13414   3.484   0.367   7.822
 4323SOL    HW113415   3.486   0.291   7.886
 4323SOL    HW213416   3.436   0.444   7.862
 4324SOL     OW13417   2.885   0.766   8.414
 4324SOL    HW113418   2.900   0.787   8.510
 4324SOL    HW213419   2.855   0.671   8.405
 4325SOL     OW13420   2.842   1.573   9.148
 4325SOL    HW113421   2.822   1.617   9.060
 4325SOL    HW213422   2.881   1.482   9.132
 4326SOL     OW13423   3.721   1.518   9.053
 4326SOL    HW113424   3.735   1.545   8.958
 4326SOL    HW213425   3.804   1.540   9.106
 4327SOL     OW13426   2.212   0.898   9.252
 4327SOL    HW113427   2.288   0.942   9.300
 4327SOL    HW213428   2.247   0.851   9.170
 4328SOL     OW13429   3.402   0.274   7.573
 4328SOL    HW113430   3.341   0.199   7.596
 4328SOL    HW213431   3.424   0.326   7.656
 4329SOL     OW13432   3.165   0.838   7.490
 4329SOL    HW113433   3.199   0.745   7.505
 4329SOL    HW213434   3.183   0.865   7.395
 4330SOL     OW13435   2.930   1.333   8.297
 4330SOL    HW113436   2.937   1.249   8.242
 4330SOL    HW213437   2.992   1.402   8.261
 4331SOL     OW13438   2.181   0.810   8.397
 4331SOL    HW113439   2.274   0.846   8.402
 4331SOL    HW213440   2.175   0.725   8.449
 4332SOL     OW13441   2.201   0.509   8.454
 4332SOL    HW113442   2.149   0.426   8.437
 4332SOL    HW213443   2.278   0.514   8.390
 4333SOL     OW13444   3.000   0.380   9.126
 4333SOL    HW113445   2.955   0.443   9.190
 4333SOL    HW213446   3.093   0.411   9.109
 4334SOL     OW13447   3.022   0.207   8.925
 4334SOL    HW113448   3.022   0.271   9.002
 4334SOL    HW213449   3.050   0.255   8.842
 4335SOL     OW13450   1.870   1.326   7.648
 4335SOL    HW113451   1.777   1.347   7.617
 4335SOL    HW213452   1.880   1.227   7.661
 4336SOL     OW13453   1.950   1.801   8.375
 4336SOL    HW113454   1.908   1.715   8.348
 4336SOL    HW213455   2.044   1.804   8.341
 4337SOL     OW13456   2.366   1.568   8.358
 4337SOL    HW113457   2.432   1.642   8.367
 4337SOL    HW213458   2.410   1.489   8.316
 4338SOL     OW13459   2.864   0.796   8.686
 4338SOL    HW113460   2.905   0.764   8.772
 4338SOL    HW213461   2.768   0.769   8.683
 4339SOL     OW13462   1.902   0.544   8.562
 4339SOL    HW113463   1.987   0.511   8.521
 4339SOL    HW213464   1.915   0.559   8.660
 4340SOL     OW13465   2.051   0.520   9.170
 4340SOL    HW113466   2.110   0.480   9.100
 4340SOL    HW213467   1.993   0.591   9.129
 4341SOL     OW13468   3.231   0.950   9.108
 4341SOL    HW113469   3.270   1.039   9.128
 4341SOL    HW213470   3.241   0.930   9.011
 4342SOL     OW13471   2.677   0.572   7.773
 4342SOL    HW113472   2.684   0.483   7.727
 4342SOL    HW213473   2.583   0.606   7.765
 4343SOL     OW13474   3.519   0.604   8.654
 4343SOL    HW113475   3.481   0.535   8.716
 4343SOL    HW213476   3.601   0.568   8.610
 4344SOL     OW13477   2.114   1.564   9.192
 4344SOL    HW113478   2.084   1.621   9.268
 4344SOL    HW213479   2.107   1.467   9.218
 4345SOL     OW13480   2.533   0.464   8.717
 4345SOL    HW113481   2.499   0.375   8.687
 4345SOL    HW213482   2.559   0.518   8.637
 4346SOL     OW13483   2.792   1.678   8.913
 4346SOL    HW113484   2.768   1.660   8.818
 4346SOL    HW213485   2.822   1.772   8.923
 4347SOL     OW13486   2.335   0.500   7.639
 4347SOL    HW113487   2.396   0.580   7.643
 4347SOL    HW213488   2.240   0.531   7.646
 4348SOL     OW13489   2.021   1.137   8.914
 4348SOL    HW113490   2.043   1.076   8.990
 4348SOL    HW213491   2.031   1.088   8.828
 4349SOL     OW13492   3.209   1.059   8.682
 4349SOL    HW113493   3.233   0.996   8.608
 4349SOL    HW213494   3.119   1.099   8.664
 4350SOL     OW13495   3.164   0.855   7.757
 4350SOL    HW113496   3.078   0.824   7.799
 4350SOL    HW213497   3.160   0.841   7.658
 4351SOL     OW13498   3.621   1.747   8.602
 4351SOL    HW113499   3.682   1.777   8.529
 4351SOL    HW213500   3.583   1.658   8.580
 4352SOL     OW13501   3.114   1.731   8.576
 4352SOL    HW113502   3.198   1.736   8.522
 4352SOL    HW213503   3.091   1.635   8.594
 4353SOL     OW13504   1.945   1.258   8.470
 4353SOL    HW113505   1.940   1.257   8.570
 4353SOL    HW213506   1.862   1.217   8.432
 4354SOL     OW13507   2.550   1.662   9.164
 4354SOL    HW113508   2.494   1.743   9.173
 4354SOL    HW213509   2.602   1.666   9.078
 4355SOL     OW13510   3.588   0.135   7.971
 4355SOL    HW113511   3.661   0.118   7.904
 4355SOL    HW213512   3.557   0.048   8.009
 4356SOL     OW13513   3.250   1.573   7.925
 4356SOL    HW113514   3.317   1.585   7.851
 4356SOL    HW213515   3.210   1.662   7.948
 4357SOL     OW13516   1.992   1.794   9.299
 4357SOL    HW113517   1.951   1.720   9.352
 4357SOL    HW213518   2.056   1.845   9.357
 4358SOL     OW13519   3.142   0.927   8.120
 4358SOL    HW113520   3.202   0.846   8.122
 4358SOL    HW213521   3.182   0.996   8.060
 4359SOL     OW13522   2.692   1.273   8.870
 4359SOL    HW113523   2.687   1.306   8.965
 4359SOL    HW213524   2.606   1.292   8.824
 4360SOL     OW13525   3.512   1.720   8.842
 4360SOL    HW113526   3.565   1.730   8.758
 4360SOL    HW213527   3.485   1.810   8.876
 4361SOL     OW13528   3.703   0.175   8.411
 4361SOL    HW113529   3.742   0.090   8.375
 4361SOL    HW213530   3.605   0.177   8.392
 4362SOL     OW13531   2.125   0.326   8.168
 4362SOL    HW113532   2.046   0.377   8.134
 4362SOL    HW213533   2.116   0.311   8.266
 4363SOL     OW13534   3.056   1.612   7.479
 4363SOL    HW113535   3.062   1.519   7.516
 4363SOL    HW213536   2.997   1.612   7.399
 4364SOL     OW13537   2.684   1.002   8.820
 4364SOL    HW113538   2.724   1.001   8.728
 4364SOL    HW213539   2.694   1.094   8.860
 4365SOL     OW13540   2.778   0.910   7.739
 4365SOL    HW113541   2.841   0.948   7.671
 4365SOL    HW213542   2.818   0.827   7.778
 4366SOL     OW13543   3.366   1.607   7.492
 4366SOL    HW113544   3.274   1.644   7.499
 4366SOL    HW213545   3.404   1.627   7.402
 4367SOL     OW13546   2.234   1.288   8.938
 4367SOL    HW113547   2.221   1.381   8.904
 4367SOL    HW213548   2.150   1.236   8.925
 4368SOL     OW13549   3.476   1.292   8.737
 4368SOL    HW113550   3.536   1.295   8.817
 4368SOL    HW213551   3.401   1.356   8.750
 4369SOL     OW13552   2.901   1.098   8.144
 4369SOL    HW113553   2.831   1.051   8.198
 4369SOL    HW213554   2.960   1.030   8.101
 4370SOL     OW13555   2.876   0.236   8.419
 4370SOL    HW113556   2.868   0.200   8.326
 4370SOL    HW213557   2.874   0.160   8.484
 4371SOL     OW13558   2.452   1.487   7.939
 4371SOL    HW113559   2.494   1.429   7.869
 4371SOL    HW213560   2.408   1.566   7.895
 4372SOL     OW13561   3.571   0.385   8.829
 4372SOL    HW113562   3.644   0.454   8.833
 4372SOL    HW213563   3.599   0.310   8.770
 4373SOL     OW13564   2.117   1.348   7.738
 4373SOL    HW113565   2.021   1.349   7.711
 4373SOL    HW213566   2.129   1.401   7.822
 4374SOL     OW13567   1.967   1.013   9.174
 4374SOL    HW113568   1.890   0.980   9.228
 4374SOL    HW213569   2.052   0.983   9.216
 4375SOL     OW13570   2.534   0.203   8.937
 4375SOL    HW113571   2.624   0.187   8.897
 4375SOL    HW213572   2.542   0.208   9.036
 4376SOL     OW13573   1.937   0.345   7.481
 4376SOL    HW113574   1.845   0.317   7.452
 4376SOL    HW213575   1.968   0.422   7.425
 4377SOL     OW13576   3.302   0.856   8.846
 4377SOL    HW113577   3.245   0.908   8.783
 4377SOL    HW213578   3.398   0.868   8.822
 4378SOL     OW13579   1.934   0.166   7.766
 4378SOL    HW113580   1.917   0.249   7.712
 4378SOL    HW213581   2.024   0.129   7.744
 4379SOL     OW13582   3.045   1.335   7.567
 4379SOL    HW113583   2.946   1.324   7.569
 4379SOL    HW213584   3.079   1.350   7.660
 4380SOL     OW13585   2.475   0.842   8.879
 4380SOL    HW113586   2.531   0.923   8.862
 4380SOL    HW213587   2.534   0.762   8.882
 4381SOL     OW13588   3.355   1.767   8.407
 4381SOL    HW113589   3.388   1.831   8.338
 4381SOL    HW213590   3.421   1.761   8.482
 4382SOL     OW13591   2.578   0.565   9.156
 4382SOL    HW113592   2.597   0.630   9.230
 4382SOL    HW213593   2.638   0.485   9.165
 4383SOL     OW13594   3.312   1.220   9.081
 4383SOL    HW113595   3.303   1.210   9.180
 4383SOL    HW213596   3.408   1.213   9.055
 4384SOL     OW13597   2.252   1.741   9.008
 4384SOL    HW113598   2.161   1.782   9.006
 4384SOL    HW213599   2.245   1.647   9.040
 4385SOL     OW13600   3.536   0.883   8.702
 4385SOL    HW113601   3.509   0.794   8.665
 4385SOL    HW213602   3.537   0.951   8.629
 4386SOL     OW13603   3.087   0.325   7.897
 4386SOL    HW113604   3.152   0.251   7.886
 4386SOL    HW213605   3.107   0.375   7.981
 4387SOL     OW13606   2.456   0.745   8.100
 4387SOL    HW113607   2.506   0.830   8.081
 4387SOL    HW213608   2.368   0.747   8.052
 4388SOL     OW13609   3.639   0.342   9.090
 4388SOL    HW113610   3.622   0.373   8.996
 4388SOL    HW213611   3.555   0.305   9.128
 4389SOL     OW13612   3.592   0.934   8.965
 4389SOL    HW113613   3.630   1.025   8.980
 4389SOL    HW213614   3.584   0.917   8.866
 4390SOL     OW13615   2.721   1.374   7.464
 4390SOL    HW113616   2.675   1.389   7.552
 4390SOL    HW213617   2.765   1.459   7.434
 4391SOL     OW13618   2.523   1.790   8.401
 4391SOL    HW113619   2.477   1.878   8.388
 4391SOL    HW213620   2.622   1.802   8.394
 4392SOL     OW13621   2.721   0.956   8.309
 4392SOL    HW113622   2.775   0.887   8.357
 4392SOL    HW213623   2.689   1.025   8.375
 4393SOL     OW13624   2.945   0.984   7.535
 4393SOL    HW113625   2.922   1.037   7.453
 4393SOL    HW213626   3.026   0.928   7.516
 4394SOL     OW13627   3.723   1.569   8.299
 4394SOL    HW113628   3.652   1.557   8.229
 4394SOL    HW213629   3.724   1.490   8.359
 4395SOL     OW13630   2.083   1.314   9.292
 4395SOL    HW113631   2.018   1.241   9.271
 4395SOL    HW213632   2.087   1.328   9.390
 4396SOL     OW13633   1.941   1.240   8.101
 4396SOL    HW113634   1.940   1.193   8.189
 4396SOL    HW213635   2.023   1.212   8.050
 4397SOL     OW13636   2.534   1.391   9.072
 4397SOL    HW113637   2.456   1.341   9.110
 4397SOL    HW213638   2.531   1.486   9.103
 4398SOL     OW13639   3.686   0.192   8.675
 4398SOL    HW113640   3.682   0.102   8.719
 4398SOL    HW213641   3.689   0.181   8.576
 4399SOL     OW13642   2.290   0.424   7.968
 4399SOL    HW113643   2.320   0.352   7.906
 4399SOL    HW213644   2.251   0.384   8.051
 4400SOL     OW13645   3.567   1.487   8.552
 4400SOL    HW113646   3.474   1.462   8.525
 4400SOL    HW213647   3.593   1.437   8.634
 4401SOL     OW13648   2.179   0.547   8.728
 4401SOL    HW113649   2.217   0.488   8.800
 4401SOL    HW213650   2.219   0.521   8.640
 4402SOL     OW13651   2.674   1.586   8.135
 4402SOL    HW113652   2.706   1.596   8.041
 4402SOL    HW213653   2.595   1.524   8.137
 4403SOL     OW13654   3.286   0.214   8.560
 4403SOL    HW113655   3.338   0.149   8.615
 4403SOL    HW213656   3.237   0.277   8.621
 4404SOL     OW13657   2.863   0.034   8.602
 4404SOL    HW113658   2.800  -0.038   8.571
 4404SOL    HW213659   2.956  -0.002   8.602
 4405SOL     OW13660   2.632   1.330   7.749
 4405SOL    HW113661   2.586   1.243   7.766
 4405SOL    HW213662   2.723   1.327   7.790
 4406SOL     OW13663   2.480   1.567   8.732
 4406SOL    HW113664   2.475   1.649   8.789
 4406SOL    HW213665   2.569   1.564   8.687
 4407SOL     OW13666   3.214   0.052   7.616
 4407SOL    HW113667   3.249   0.011   7.532
 4407SOL    HW213668   3.124   0.014   7.636
 4408SOL     OW13669   3.162   0.453   8.139
 4408SOL    HW113670   3.103   0.533   8.143
 4408SOL    HW213671   3.177   0.418   8.232
 4409SOL     OW13672   3.455   0.221   8.330
 4409SOL    HW113673   3.371   0.220   8.384
 4409SOL    HW213674   3.457   0.304   8.274
 4410SOL     OW13675   1.901   1.077   7.748
 4410SOL    HW113676   2.000   1.066   7.739
 4410SOL    HW213677   1.861   0.991   7.780
 4411SOL     OW13678   2.737   1.646   7.785
 4411SOL    HW113679   2.660   1.611   7.731
 4411SOL    HW213680   2.705   1.717   7.847
 4412SOL     OW13681   2.092   0.628   9.423
 4412SOL    HW113682   1.999   0.626   9.460
 4412SOL    HW213683   2.093   0.589   9.331
 4413SOL     OW13684   2.087   0.275  10.306
 4413SOL    HW113685   2.122   0.258  10.398
 4413SOL    HW213686   1.999   0.230  10.294
 4414SOL     OW13687   1.881   0.368   9.957
 4414SOL    HW113688   1.799   0.411   9.996
 4414SOL    HW213689   1.853   0.295   9.894
 4415SOL     OW13690   2.431   1.275  10.475
 4415SOL    HW113691   2.338   1.268  10.438
 4415SOL    HW213692   2.442   1.364  10.519
 4416SOL     OW13693   3.417   1.511  10.013
 4416SOL    HW113694   3.360   1.495  10.094
 4416SOL    HW213695   3.358   1.521   9.933
 4417SOL     OW13696   2.997   0.703  10.027
 4417SOL    HW113697   3.054   0.781  10.002
 4417SOL    HW213698   2.937   0.729  10.103
 4418SOL     OW13699   3.617   0.607   9.541
 4418SOL    HW113700   3.605   0.594   9.442
 4418SOL    HW213701   3.587   0.526   9.590
 4419SOL     OW13702   2.630   1.144  10.333
 4419SOL    HW113703   2.552   1.161  10.393
 4419SOL    HW213704   2.664   1.231  10.297
 4420SOL     OW13705   2.712   0.798  11.133
 4420SOL    HW113706   2.708   0.874  11.198
 4420SOL    HW213707   2.734   0.834  11.042
 4421SOL     OW13708   2.547   1.012   9.975
 4421SOL    HW113709   2.616   0.996  10.045
 4421SOL    HW213710   2.474   1.069  10.013
 4422SOL     OW13711   2.548   1.161  11.113
 4422SOL    HW113712   2.608   1.240  11.127
 4422SOL    HW213713   2.462   1.192  11.072
 4423SOL     OW13714   2.197   1.435  10.371
 4423SOL    HW113715   2.119   1.404  10.318
 4423SOL    HW213716   2.255   1.493  10.314
 4424SOL     OW13717   3.322   1.505  10.649
 4424SOL    HW113718   3.346   1.599  10.675
 4424SOL    HW213719   3.306   1.451  10.731
 4425SOL     OW13720   2.300   0.392  10.809
 4425SOL    HW113721   2.382   0.336  10.818
 4425SOL    HW213722   2.219   0.334  10.813
 4426SOL     OW13723   3.465   0.447  10.047
 4426SOL    HW113724   3.391   0.493   9.997
 4426SOL    HW213725   3.516   0.515  10.100
 4427SOL     OW13726   2.093   1.713   9.793
 4427SOL    HW113727   2.127   1.790   9.847
 4427SOL    HW213728   2.137   1.713   9.703
 4428SOL     OW13729   2.989   1.341  11.000
 4428SOL    HW113730   3.036   1.341  11.088
 4428SOL    HW213731   2.941   1.254  10.989
 4429SOL     OW13732   2.092   1.434   9.848
 4429SOL    HW113733   2.066   1.530   9.848
 4429SOL    HW213734   2.021   1.380   9.893
 4430SOL     OW13735   2.102   1.091  10.196
 4430SOL    HW113736   2.116   1.007  10.248
 4430SOL    HW213737   2.047   1.155  10.251
 4431SOL     OW13738   2.482   1.786  10.749
 4431SOL    HW113739   2.390   1.769  10.784
 4431SOL    HW213740   2.510   1.878  10.775
 4432SOL     OW13741   2.468   0.964   9.433
 4432SOL    HW113742   2.475   1.048   9.379
 4432SOL    HW213743   2.514   0.977   9.521
 4433SOL     OW13744   3.456   0.114  10.790
 4433SOL    HW113745   3.438   0.181  10.718
 4433SOL    HW213746   3.453   0.160  10.879
 4434SOL     OW13747   1.984   0.643   9.873
 4434SOL    HW113748   1.939   0.555   9.890
 4434SOL    HW213749   1.983   0.697   9.957
 4435SOL     OW13750   3.704   1.767   9.669
 4435SOL    HW113751   3.758   1.738   9.749
 4435SOL    HW213752   3.734   1.857   9.640
 4436SOL     OW13753   1.889   1.596   9.427
 4436SOL    HW113754   1.870   1.500   9.448
 4436SOL    HW213755   1.856   1.654   9.502
 4437SOL     OW13756   3.551   0.922   9.922
 4437SOL    HW113757   3.646   0.893   9.930
 4437SOL    HW213758   3.543   0.987   9.847
 4438SOL     OW13759   3.503   1.108   9.742
 4438SOL    HW113760   3.589   1.110   9.690
 4438SOL    HW213761   3.517   1.155   9.830
 4439SOL     OW13762   1.975   0.737  10.907
 4439SOL    HW113763   2.063   0.724  10.952
 4439SOL    HW213764   1.962   0.834  10.885
 4440SOL     OW13765   2.475   1.365  10.036
 4440SOL    HW113766   2.426   1.278  10.045
 4440SOL    HW213767   2.452   1.408   9.949
 4441SOL     OW13768   3.155   1.228  10.733
 4441SOL    HW113769   3.192   1.155  10.675
 4441SOL    HW213770   3.207   1.233  10.818
 4442SOL     OW13771   2.671   0.004   9.812
 4442SOL    HW113772   2.711   0.095   9.803
 4442SOL    HW213773   2.571   0.012   9.818
 4443SOL     OW13774   2.059   0.976  10.574
 4443SOL    HW113775   2.148   0.931  10.560
 4443SOL    HW213776   1.986   0.911  10.555
 4444SOL     OW13777   3.387   0.999   9.500
 4444SOL    HW113778   3.324   0.923   9.513
 4444SOL    HW213779   3.435   1.017   9.586
 4445SOL     OW13780   3.049   1.792  10.926
 4445SOL    HW113781   3.073   1.852  10.850
 4445SOL    HW213782   3.056   1.697  10.896
 4446SOL     OW13783   2.179   0.251  11.111
 4446SOL    HW113784   2.250   0.322  11.117
 4446SOL    HW213785   2.091   0.290  11.139
 4447SOL     OW13786   3.328   1.417  10.263
 4447SOL    HW113787   3.269   1.423  10.343
 4447SOL    HW213788   3.313   1.329  10.217
 4448SOL     OW13789   3.529   1.714   9.882
 4448SOL    HW113790   3.488   1.691   9.794
 4448SOL    HW213791   3.511   1.640   9.947
 4449SOL     OW13792   2.460   0.729   9.580
 4449SOL    HW113793   2.484   0.798   9.512
 4449SOL    HW213794   2.382   0.762   9.634
 4450SOL     OW13795   3.143   0.345  10.254
 4450SOL    HW113796   3.057   0.295  10.241
 4450SOL    HW213797   3.205   0.291  10.310
 4451SOL     OW13798   3.438   1.662   9.617
 4451SOL    HW113799   3.527   1.708   9.620
 4451SOL    HW213800   3.417   1.638   9.522
 4452SOL     OW13801   2.669   0.605  10.775
 4452SOL    HW113802   2.622   0.602  10.864
 4452SOL    HW213803   2.618   0.550  10.709
 4453SOL     OW13804   3.256   0.469  10.984
 4453SOL    HW113805   3.236   0.512  11.072
 4453SOL    HW213806   3.334   0.407  10.993
 4454SOL     OW13807   2.835   0.890  10.882
 4454SOL    HW113808   2.881   0.806  10.853
 4454SOL    HW213809   2.779   0.924  10.807
 4455SOL     OW13810   2.853   0.410  10.552
 4455SOL    HW113811   2.776   0.444  10.606
 4455SOL    HW213812   2.819   0.359  10.473
 4456SOL     OW13813   2.903   0.701   9.739
 4456SOL    HW113814   2.929   0.697   9.835
 4456SOL    HW213815   2.818   0.650   9.725
 4457SOL     OW13816   1.938   0.811  10.099
 4457SOL    HW113817   2.037   0.799  10.108
 4457SOL    HW213818   1.914   0.906  10.120
 4458SOL     OW13819   2.727   0.348   9.505
 4458SOL    HW113820   2.786   0.411   9.456
 4458SOL    HW213821   2.746   0.254   9.476
 4459SOL     OW13822   3.581   0.585  11.141
 4459SOL    HW113823   3.555   0.674  11.105
 4459SOL    HW213824   3.579   0.517  11.068
 4460SOL     OW13825   3.224   1.144   9.855
 4460SOL    HW113826   3.307   1.115   9.807
 4460SOL    HW213827   3.175   1.211   9.799
 4461SOL     OW13828   2.412   0.196  10.195
 4461SOL    HW113829   2.407   0.191  10.295
 4461SOL    HW213830   2.414   0.292  10.166
 4462SOL     OW13831   2.870   1.456   9.787
 4462SOL    HW113832   2.824   1.528   9.735
 4462SOL    HW213833   2.866   1.476   9.885
 4463SOL     OW13834   2.213   1.801  10.163
 4463SOL    HW113835   2.263   1.715  10.169
 4463SOL    HW213836   2.278   1.878  10.160
 4464SOL     OW13837   3.657   1.066  10.183
 4464SOL    HW113838   3.595   1.051  10.107
 4464SOL    HW213839   3.605   1.077  10.268
 4465SOL     OW13840   3.089   1.550  10.816
 4465SOL    HW113841   3.095   1.473  10.880
 4465SOL    HW213842   3.037   1.524  10.736
 4466SOL     OW13843   2.183   0.943   9.552
 4466SOL    HW113844   2.265   0.982   9.510
 4466SOL    HW213845   2.156   0.861   9.503
 4467SOL     OW13846   3.320   0.735  10.038
 4467SOL    HW113847   3.315   0.670  10.113
 4467SOL    HW213848   3.400   0.794  10.051
 4468SOL     OW13849   2.323   1.266  11.037
 4468SOL    HW113850   2.273   1.267  10.951
 4468SOL    HW213851   2.260   1.248  11.113
 4469SOL     OW13852   2.973   1.776   9.547
 4469SOL    HW113853   2.913   1.714   9.597
 4469SOL    HW213854   3.004   1.732   9.462
 4470SOL     OW13855   2.064   0.285  10.808
 4470SOL    HW113856   1.984   0.345  10.795
 4470SOL    HW213857   2.054   0.236  10.894
 4471SOL     OW13858   3.494   1.377   9.391
 4471SOL    HW113859   3.462   1.471   9.381
 4471SOL    HW213860   3.418   1.314   9.379
 4472SOL     OW13861   2.326   1.743   9.633
 4472SOL    HW113862   2.359   1.782   9.719
 4472SOL    HW213863   2.402   1.736   9.568
 4473SOL     OW13864   3.262   0.107   9.736
 4473SOL    HW113865   3.238   0.070   9.646
 4473SOL    HW213866   3.361   0.123   9.740
 4474SOL     OW13867   2.111   1.785  10.551
 4474SOL    HW113868   2.168   1.720  10.601
 4474SOL    HW213869   2.095   1.752  10.458
 4475SOL     OW13870   2.802   1.698  10.214
 4475SOL    HW113871   2.882   1.641  10.235
 4475SOL    HW213872   2.753   1.658  10.137
 4476SOL     OW13873   2.244   0.700   9.790
 4476SOL    HW113874   2.289   0.610   9.787
 4476SOL    HW213875   2.150   0.689   9.823
 4477SOL     OW13876   3.409   0.222  11.039
 4477SOL    HW113877   3.404   0.259  11.131
 4477SOL    HW213878   3.337   0.153  11.027
 4478SOL     OW13879   2.476   0.122   9.427
 4478SOL    HW113880   2.574   0.100   9.434
 4478SOL    HW213881   2.445   0.105   9.334
 4479SOL     OW13882   2.643   0.264  11.059
 4479SOL    HW113883   2.710   0.203  11.102
 4479SOL    HW213884   2.570   0.283  11.124
 4480SOL     OW13885   2.750   1.514  10.505
 4480SOL    HW113886   2.727   1.489  10.411
 4480SOL    HW213887   2.811   1.445  10.544
 4481SOL     OW13888   3.213   0.590  10.743
 4481SOL    HW113889   3.241   0.547  10.828
 4481SOL    HW213890   3.238   0.686  10.744
 4482SOL     OW13891   2.665   1.402  10.234
 4482SOL    HW113892   2.755   1.416  10.192
 4482SOL    HW213893   2.594   1.404  10.163
 4483SOL     OW13894   2.784   0.503  10.209
 4483SOL    HW113895   2.759   0.494  10.113
 4483SOL    HW213896   2.832   0.421  10.240
 4484SOL     OW13897   2.401   0.064   9.822
 4484SOL    HW113898   2.320   0.065   9.880
 4484SOL    HW213899   2.404   0.147   9.767
 4485SOL     OW13900   3.296   1.188   9.351
 4485SOL    HW113901   3.328   1.112   9.408
 4485SOL    HW213902   3.204   1.215   9.381
 4486SOL     OW13903   2.159   0.035   9.481
 4486SOL    HW113904   2.208   0.119   9.460
 4486SOL    HW213905   2.221  -0.030   9.526
 4487SOL     OW13906   2.797   0.236   9.790
 4487SOL    HW113907   2.749   0.277   9.712
 4487SOL    HW213908   2.896   0.234   9.771
 4488SOL     OW13909   2.938   0.683  10.774
 4488SOL    HW113910   2.858   0.622  10.777
 4488SOL    HW213911   3.019   0.630  10.750
 4489SOL     OW13912   3.089   1.570  10.103
 4489SOL    HW113913   3.110   1.644  10.038
 4489SOL    HW213914   3.157   1.570  10.176
 4490SOL     OW13915   2.321   1.152  10.051
 4490SOL    HW113916   2.250   1.125  10.116
 4490SOL    HW213917   2.295   1.124   9.958
 4491SOL     OW13918   3.133   1.797   9.901
 4491SOL    HW113919   3.177   1.861   9.837
 4491SOL    HW213920   3.083   1.849   9.971
 4492SOL     OW13921   2.894   0.549   9.326
 4492SOL    HW113922   2.853   0.631   9.287
 4492SOL    HW213923   2.958   0.575   9.399
 4493SOL     OW13924   1.940   0.556  10.696
 4493SOL    HW113925   2.032   0.555  10.655
 4493SOL    HW213926   1.934   0.630  10.763
 4494SOL     OW13927   2.423   0.222  10.457
 4494SOL    HW113928   2.461   0.138  10.494
 4494SOL    HW213929   2.335   0.241  10.501
 4495SOL     OW13930   2.728   0.454   9.952
 4495SOL    HW113931   2.696   0.526   9.890
 4495SOL    HW213932   2.752   0.373   9.899
 4496SOL     OW13933   2.879   0.039  10.063
 4496SOL    HW113934   2.807   0.044   9.994
 4496SOL    HW213935   2.855  -0.030  10.132
 4497SOL     OW13936   3.291   1.173  10.177
 4497SOL    HW113937   3.236   1.089  10.170
 4497SOL    HW213938   3.317   1.202  10.085
 4498SOL     OW13939   3.328   0.590  10.302
 4498SOL    HW113940   3.298   0.495  10.309
 4498SOL    HW213941   3.401   0.606  10.368
 4499SOL     OW13942   3.719   0.833   9.687
 4499SOL    HW113943   3.761   0.769   9.751
 4499SOL    HW213944   3.681   0.782   9.609
 4500SOL     OW13945   2.350   1.385   9.484
 4500SOL    HW113946   2.263   1.370   9.531
 4500SOL    HW213947   2.333   1.411   9.389
 4501SOL     OW13948   3.526   1.280   9.967
 4501SOL    HW113949   3.625   1.288   9.981
 4501SOL    HW213950   3.481   1.364   9.998
 4502SOL     OW13951   3.252   0.575   9.388
 4502SOL    HW113952   3.198   0.554   9.469
 4502SOL    HW213953   3.343   0.534   9.397
 4503SOL     OW13954   2.389   0.256   9.638
 4503SOL    HW113955   2.416   0.197   9.563
 4503SOL    HW213956   2.389   0.351   9.607
 4504SOL     OW13957   3.616   1.223  10.898
 4504SOL    HW113958   3.707   1.184  10.885
 4504SOL    HW213959   3.624   1.319  10.922
 4505SOL     OW13960   2.926   1.347  10.650
 4505SOL    HW113961   2.846   1.324  10.705
 4505SOL    HW213962   3.009   1.321  10.699
 4506SOL     OW13963   3.454   1.629  10.935
 4506SOL    HW113964   3.481   1.663  10.845
 4506SOL    HW213965   3.533   1.591  10.981
 4507SOL     OW13966   2.973   1.195  10.410
 4507SOL    HW113967   2.933   1.239  10.491
 4507SOL    HW213968   2.932   1.232  10.327
 4508SOL     OW13969   3.500   1.099  10.389
 4508SOL    HW113970   3.505   1.180  10.448
 4508SOL    HW213971   3.414   1.101  10.338
 4509SOL     OW13972   2.777   0.089  10.712
 4509SOL    HW113973   2.802   0.069  10.617
 4509SOL    HW213974   2.849   0.145  10.754
 4510SOL     OW13975   2.842   1.116  11.029
 4510SOL    HW113976   2.743   1.122  11.039
 4510SOL    HW213977   2.865   1.036  10.973
 4511SOL     OW13978   2.567   1.050   9.678
 4511SOL    HW113979   2.553   1.057   9.777
 4511SOL    HW213980   2.651   0.999   9.660
 4512SOL     OW13981   2.272   0.813  10.561
 4512SOL    HW113982   2.358   0.825  10.611
 4512SOL    HW213983   2.230   0.726  10.588
 4513SOL     OW13984   3.136   0.386  10.572
 4513SOL    HW113985   3.157   0.460  10.636
 4513SOL    HW213986   3.047   0.403  10.529
 4514SOL     OW13987   1.926   1.564  10.641
 4514SOL    HW113988   1.880   1.646  10.607
 4514SOL    HW213989   2.024   1.583  10.650
 4515SOL     OW13990   2.229   1.100   9.811
 4515SOL    HW113991   2.222   1.183   9.755
 4515SOL    HW213992   2.233   1.020   9.751
 4516SOL     OW13993   2.428   0.537  10.175
 4516SOL    HW113994   2.440   0.603  10.101
 4516SOL    HW213995   2.474   0.571  10.258
 4517SOL     OW13996   3.114   1.348   9.698
 4517SOL    HW113997   3.164   1.425   9.738
 4517SOL    HW213998   3.019   1.350   9.730
 4518SOL     OW13999   3.134   1.445  10.452
 4518SOL    HW114000   3.181   1.458  10.539
 4518SOL    HW214001   3.068   1.371  10.461
 4519SOL     OW14002   3.444   0.639   9.782
 4519SOL    HW114003   3.413   0.700   9.855
 4519SOL    HW214004   3.494   0.691   9.713
 4520SOL     OW14005   2.216   1.510  10.639
 4520SOL    HW114006   2.195   1.466  10.552
 4520SOL    HW214007   2.313   1.536  10.642
 4521SOL     OW14008   2.264   0.751  10.908
 4521SOL    HW114009   2.332   0.806  10.861
 4521SOL    HW214010   2.304   0.663  10.935
 4522SOL     OW14011   3.449   0.779  10.980
 4522SOL    HW114012   3.357   0.817  10.975
 4522SOL    HW214013   3.509   0.826  10.915
 4523SOL     OW14014   2.875   0.105  11.080
 4523SOL    HW114015   2.881   0.190  11.028
 4523SOL    HW214016   2.907   0.029  11.023
 4524SOL     OW14017   2.366   0.050  11.050
 4524SOL    HW114018   2.324  -0.007  10.980
 4524SOL    HW214019   2.300   0.119  11.082
 4525SOL     OW14020   2.435   0.870  10.339
 4525SOL    HW114021   2.479   0.959  10.330
 4525SOL    HW214022   2.372   0.870  10.416
 4526SOL     OW14023   3.222   0.862  10.355
 4526SOL    HW114024   3.147   0.862  10.289
 4526SOL    HW214025   3.259   0.770  10.364
 4527SOL     OW14026   3.071   0.525   9.585
 4527SOL    HW114027   3.084   0.441   9.639
 4527SOL    HW214028   3.042   0.599   9.645
 4528SOL     OW14029   2.169   0.213  10.541
 4528SOL    HW114030   2.146   0.250  10.631
 4528SOL    HW214031   2.139   0.118  10.535
 4529SOL     OW14032   1.899   1.310  10.592
 4529SOL    HW114033   1.952   1.261  10.660
 4529SOL    HW214034   1.921   1.408  10.597
 4530SOL     OW14035   2.594   0.634  10.374
 4530SOL    HW114036   2.653   0.608  10.298
 4530SOL    HW214037   2.566   0.730  10.363
 4531SOL     OW14038   3.590   0.935  11.164
 4531SOL    HW114039   3.544   0.928  11.075
 4531SOL    HW214040   3.528   0.979  11.230
 4532SOL     OW14041   2.169   0.063   9.928
 4532SOL    HW114042   2.158   0.157   9.961
 4532SOL    HW214043   2.164   0.000  10.005
 4533SOL     OW14044   3.484   0.367   9.684
 4533SOL    HW114045   3.486   0.291   9.748
 4533SOL    HW214046   3.436   0.444   9.724
 4534SOL     OW14047   2.885   0.766  10.276
 4534SOL    HW114048   2.900   0.787  10.372
 4534SOL    HW214049   2.855   0.671  10.267
 4535SOL     OW14050   2.842   1.573  11.010
 4535SOL    HW114051   2.822   1.617  10.922
 4535SOL    HW214052   2.881   1.482  10.994
 4536SOL     OW14053   3.721   1.518  10.915
 4536SOL    HW114054   3.735   1.545  10.820
 4536SOL    HW214055   3.804   1.540  10.968
 4537SOL     OW14056   2.212   0.898  11.114
 4537SOL    HW114057   2.288   0.942  11.162
 4537SOL    HW214058   2.247   0.851  11.032
 4538SOL     OW14059   3.402   0.274   9.435
 4538SOL    HW114060   3.341   0.199   9.458
 4538SOL    HW214061   3.424   0.326   9.518
 4539SOL     OW14062   3.165   0.838   9.352
 4539SOL    HW114063   3.199   0.745   9.367
 4539SOL    HW214064   3.183   0.865   9.257
 4540SOL     OW14065   2.930   1.333  10.159
 4540SOL    HW114066   2.937   1.249  10.104
 4540SOL    HW214067   2.992   1.402  10.123
 4541SOL     OW14068   2.181   0.810  10.259
 4541SOL    HW114069   2.274   0.846  10.264
 4541SOL    HW214070   2.175   0.725  10.311
 4542SOL     OW14071   2.201   0.509  10.316
 4542SOL    HW114072   2.149   0.426  10.299
 4542SOL    HW214073   2.278   0.514  10.252
 4543SOL     OW14074   3.000   0.380  10.988
 4543SOL    HW114075   2.955   0.443  11.052
 4543SOL    HW214076   3.093   0.411  10.971
 4544SOL     OW14077   3.022   0.207  10.787
 4544SOL    HW114078   3.022   0.271  10.864
 4544SOL    HW214079   3.050   0.255  10.704
 4545SOL     OW14080   1.870   1.326   9.510
 4545SOL    HW114081   1.777   1.347   9.479
 4545SOL    HW214082   1.880   1.227   9.523
 4546SOL     OW14083   1.950   1.801  10.237
 4546SOL    HW114084   1.908   1.715  10.210
 4546SOL    HW214085   2.044   1.804  10.203
 4547SOL     OW14086   2.366   1.568  10.220
 4547SOL    HW114087   2.432   1.642  10.229
 4547SOL    HW214088   2.410   1.489  10.178
 4548SOL     OW14089   2.864   0.796  10.548
 4548SOL    HW114090   2.905   0.764  10.634
 4548SOL    HW214091   2.768   0.769  10.545
 4549SOL     OW14092   1.902   0.544  10.424
 4549SOL    HW114093   1.987   0.511  10.383
 4549SOL    HW214094   1.915   0.559  10.522
 4550SOL     OW14095   2.051   0.520  11.032
 4550SOL    HW114096   2.110   0.480  10.962
 4550SOL    HW214097   1.993   0.591  10.991
 4551SOL     OW14098   3.231   0.950  10.970
 4551SOL    HW114099   3.270   1.039  10.990
 4551SOL    HW214100   3.241   0.930  10.873
 4552SOL     OW14101   2.677   0.572   9.635
 4552SOL    HW114102   2.684   0.483   9.589
 4552SOL    HW214103   2.583   0.606   9.627
 4553SOL     OW14104   3.519   0.604  10.516
 4553SOL    HW114105   3.481   0.535  10.578
 4553SOL    HW214106   3.601   0.568  10.472
 4554SOL     OW14107   2.114   1.564  11.054
 4554SOL    HW114108   2.084   1.621  11.130
 4554SOL    HW214109   2.107   1.467  11.080
 4555SOL     OW14110   2.533   0.464  10.579
 4555SOL    HW114111   2.499   0.375  10.549
 4555SOL    HW214112   2.559   0.518  10.499
 4556SOL     OW14113   2.792   1.678  10.775
 4556SOL    HW114114   2.768   1.660  10.680
 4556SOL    HW214115   2.822   1.772  10.785
 4557SOL     OW14116   2.335   0.500   9.501
 4557SOL    HW114117   2.396   0.580   9.505
 4557SOL    HW214118   2.240   0.531   9.508
 4558SOL     OW14119   2.021   1.137  10.776
 4558SOL    HW114120   2.043   1.076  10.852
 4558SOL    HW214121   2.031   1.088  10.690
 4559SOL     OW14122   3.209   1.059  10.544
 4559SOL    HW114123   3.233   0.996  10.470
 4559SOL    HW214124   3.119   1.099  10.526
 4560SOL     OW14125   3.164   0.855   9.619
 4560SOL    HW114126   3.078   0.824   9.661
 4560SOL    HW214127   3.160   0.841   9.520
 4561SOL     OW14128   3.621   1.747  10.464
 4561SOL    HW114129   3.682   1.777  10.391
 4561SOL    HW214130   3.583   1.658  10.442
 4562SOL     OW14131   3.114   1.731  10.438
 4562SOL    HW114132   3.198   1.736  10.384
 4562SOL    HW214133   3.091   1.635  10.456
 4563SOL     OW14134   1.945   1.258  10.332
 4563SOL    HW114135   1.940   1.257  10.432
 4563SOL    HW214136   1.862   1.217  10.294
 4564SOL     OW14137   2.550   1.662  11.026
 4564SOL    HW114138   2.494   1.743  11.035
 4564SOL    HW214139   2.602   1.666  10.940
 4565SOL     OW14140   3.588   0.135   9.833
 4565SOL    HW114141   3.661   0.118   9.766
 4565SOL    HW214142   3.557   0.048   9.871
 4566SOL     OW14143   3.250   1.573   9.787
 4566SOL    HW114144   3.317   1.585   9.713
 4566SOL    HW214145   3.210   1.662   9.810
 4567SOL     OW14146   1.992   1.794  11.161
 4567SOL    HW114147   1.951   1.720  11.214
 4567SOL    HW214148   2.056   1.845  11.219
 4568SOL     OW14149   3.142   0.927   9.982
 4568SOL    HW114150   3.202   0.846   9.984
 4568SOL    HW214151   3.182   0.996   9.922
 4569SOL     OW14152   2.692   1.273  10.732
 4569SOL    HW114153   2.687   1.306  10.827
 4569SOL    HW214154   2.606   1.292  10.686
 4570SOL     OW14155   2.534   1.616   9.464
 4570SOL    HW114156   2.543   1.626   9.365
 4570SOL    HW214157   2.494   1.527   9.485
 4571SOL     OW14158   3.512   1.720  10.704
 4571SOL    HW114159   3.565   1.730  10.620
 4571SOL    HW214160   3.485   1.810  10.738
 4572SOL     OW14161   3.703   0.175  10.273
 4572SOL    HW114162   3.742   0.090  10.237
 4572SOL    HW214163   3.605   0.177  10.254
 4573SOL     OW14164   2.125   0.326  10.030
 4573SOL    HW114165   2.046   0.377   9.996
 4573SOL    HW214166   2.116   0.311  10.128
 4574SOL     OW14167   3.056   1.612   9.341
 4574SOL    HW114168   3.062   1.519   9.378
 4574SOL    HW214169   2.997   1.612   9.261
 4575SOL     OW14170   2.684   1.002  10.682
 4575SOL    HW114171   2.724   1.001  10.590
 4575SOL    HW214172   2.694   1.094  10.722
 4576SOL     OW14173   2.778   0.910   9.601
 4576SOL    HW114174   2.841   0.948   9.533
 4576SOL    HW214175   2.818   0.827   9.640
 4577SOL     OW14176   3.366   1.607   9.354
 4577SOL    HW114177   3.274   1.644   9.361
 4577SOL    HW214178   3.404   1.627   9.264
 4578SOL     OW14179   2.234   1.288  10.800
 4578SOL    HW114180   2.221   1.381  10.766
 4578SOL    HW214181   2.150   1.236  10.787
 4579SOL     OW14182   3.476   1.292  10.599
 4579SOL    HW114183   3.536   1.295  10.679
 4579SOL    HW214184   3.401   1.356  10.612
 4580SOL     OW14185   2.901   1.098  10.006
 4580SOL    HW114186   2.831   1.051  10.060
 4580SOL    HW214187   2.960   1.030   9.963
 4581SOL     OW14188   2.876   0.236  10.281
 4581SOL    HW114189   2.868   0.200  10.188
 4581SOL    HW214190   2.874   0.160  10.346
 4582SOL     OW14191   2.452   1.487   9.801
 4582SOL    HW114192   2.494   1.429   9.731
 4582SOL    HW214193   2.408   1.566   9.757
 4583SOL     OW14194   3.571   0.385  10.691
 4583SOL    HW114195   3.644   0.454  10.695
 4583SOL    HW214196   3.599   0.310  10.632
 4584SOL     OW14197   2.117   1.348   9.600
 4584SOL    HW114198   2.021   1.349   9.573
 4584SOL    HW214199   2.129   1.401   9.684
 4585SOL     OW14200   1.967   1.013  11.036
 4585SOL    HW114201   1.890   0.980  11.090
 4585SOL    HW214202   2.052   0.983  11.078
 4586SOL     OW14203   2.534   0.203  10.799
 4586SOL    HW114204   2.624   0.187  10.759
 4586SOL    HW214205   2.542   0.208  10.898
 4587SOL     OW14206   1.937   0.345   9.343
 4587SOL    HW114207   1.845   0.317   9.314
 4587SOL    HW214208   1.968   0.422   9.287
 4588SOL     OW14209   3.302   0.856  10.708
 4588SOL    HW114210   3.245   0.908  10.645
 4588SOL    HW214211   3.398   0.868  10.684
 4589SOL     OW14212   1.934   0.166   9.628
 4589SOL    HW114213   1.917   0.249   9.574
 4589SOL    HW214214   2.024   0.129   9.606
 4590SOL     OW14215   3.045   1.335   9.429
 4590SOL    HW114216   2.946   1.324   9.431
 4590SOL    HW214217   3.079   1.350   9.522
 4591SOL     OW14218   2.475   0.842  10.741
 4591SOL    HW114219   2.531   0.923  10.724
 4591SOL    HW214220   2.534   0.762  10.744
 4592SOL     OW14221   3.355   1.767  10.269
 4592SOL    HW114222   3.388   1.831  10.200
 4592SOL    HW214223   3.421   1.761  10.344
 4593SOL     OW14224   2.578   0.565  11.018
 4593SOL    HW114225   2.597   0.630  11.092
 4593SOL    HW214226   2.638   0.485  11.027
 4594SOL     OW14227   3.312   1.220  10.943
 4594SOL    HW114228   3.303   1.210  11.042
 4594SOL    HW214229   3.408   1.213  10.917
 4595SOL     OW14230   2.252   1.741  10.870
 4595SOL    HW114231   2.161   1.782  10.868
 4595SOL    HW214232   2.245   1.647  10.902
 4596SOL     OW14233   3.536   0.883  10.564
 4596SOL    HW114234   3.509   0.794  10.527
 4596SOL    HW214235   3.537   0.951  10.491
 4597SOL     OW14236   3.087   0.325   9.759
 4597SOL    HW114237   3.152   0.251   9.748
 4597SOL    HW214238   3.107   0.375   9.843
 4598SOL     OW14239   2.456   0.745   9.962
 4598SOL    HW114240   2.506   0.830   9.943
 4598SOL    HW214241   2.368   0.747   9.914
 4599SOL     OW14242   3.639   0.342  10.952
 4599SOL    HW114243   3.622   0.373  10.858
 4599SOL    HW214244   3.555   0.305  10.990
 4600SOL     OW14245   3.592   0.934  10.827
 4600SOL    HW114246   3.630   1.025  10.842
 4600SOL    HW214247   3.584   0.917  10.728
 4601SOL     OW14248   2.721   1.374   9.326
 4601SOL    HW114249   2.675   1.389   9.414
 4601SOL    HW214250   2.765   1.459   9.296
 4602SOL     OW14251   2.523   1.790  10.263
 4602SOL    HW114252   2.477   1.878  10.250
 4602SOL    HW214253   2.622   1.802  10.256
 4603SOL     OW14254   2.721   0.956  10.171
 4603SOL    HW114255   2.775   0.887  10.219
 4603SOL    HW214256   2.689   1.025  10.237
 4604SOL     OW14257   2.945   0.984   9.397
 4604SOL    HW114258   2.922   1.037   9.315
 4604SOL    HW214259   3.026   0.928   9.378
 4605SOL     OW14260   3.723   1.569  10.161
 4605SOL    HW114261   3.652   1.557  10.091
 4605SOL    HW214262   3.724   1.490  10.221
 4606SOL     OW14263   2.083   1.314  11.154
 4606SOL    HW114264   2.018   1.241  11.133
 4606SOL    HW214265   2.087   1.328  11.252
 4607SOL     OW14266   1.941   1.240   9.963
 4607SOL    HW114267   1.940   1.193  10.051
 4607SOL    HW214268   2.023   1.212   9.912
 4608SOL     OW14269   2.534   1.391  10.934
 4608SOL    HW114270   2.456   1.341  10.972
 4608SOL    HW214271   2.531   1.486  10.965
 4609SOL     OW14272   3.686   0.192  10.537
 4609SOL    HW114273   3.682   0.102  10.581
 4609SOL    HW214274   3.689   0.181  10.438
 4610SOL     OW14275   2.290   0.424   9.830
 4610SOL    HW114276   2.320   0.352   9.768
 4610SOL    HW214277   2.251   0.384   9.913
 4611SOL     OW14278   3.567   1.487  10.414
 4611SOL    HW114279   3.474   1.462  10.387
 4611SOL    HW214280   3.593   1.437  10.496
 4612SOL     OW14281   2.179   0.547  10.590
 4612SOL    HW114282   2.217   0.488  10.662
 4612SOL    HW214283   2.219   0.521  10.502
 4613SOL     OW14284   2.674   1.586   9.997
 4613SOL    HW114285   2.706   1.596   9.903
 4613SOL    HW214286   2.595   1.524   9.999
 4614SOL     OW14287   3.286   0.214  10.422
 4614SOL    HW114288   3.338   0.149  10.477
 4614SOL    HW214289   3.237   0.277  10.483
 4615SOL     OW14290   2.863   0.034  10.464
 4615SOL    HW114291   2.800  -0.038  10.433
 4615SOL    HW214292   2.956  -0.002  10.464
 4616SOL     OW14293   2.632   1.330   9.611
 4616SOL    HW114294   2.586   1.243   9.628
 4616SOL    HW214295   2.723   1.327   9.652
 4617SOL     OW14296   2.480   1.567  10.594
 4617SOL    HW114297   2.475   1.649  10.651
 4617SOL    HW214298   2.569   1.564  10.549
 4618SOL     OW14299   3.214   0.052   9.478
 4618SOL    HW114300   3.249   0.011   9.394
 4618SOL    HW214301   3.124   0.014   9.498
 4619SOL     OW14302   3.162   0.453  10.001
 4619SOL    HW114303   3.103   0.533  10.005
 4619SOL    HW214304   3.177   0.418  10.094
 4620SOL     OW14305   3.455   0.221  10.192
 4620SOL    HW114306   3.371   0.220  10.246
 4620SOL    HW214307   3.457   0.304  10.136
 4621SOL     OW14308   1.901   1.077   9.610
 4621SOL    HW114309   2.000   1.066   9.601
 4621SOL    HW214310   1.861   0.991   9.642
 4622SOL     OW14311   2.737   1.646   9.647
 4622SOL    HW114312   2.660   1.611   9.593
 4622SOL    HW214313   2.705   1.717   9.709
 4623SOL     OW14314   2.092   0.628  11.285
 4623SOL    HW114315   1.999   0.626  11.322
 4623SOL    HW214316   2.093   0.589  11.193
 4624SOL     OW14317   2.087   0.275  12.168
 4624SOL    HW114318   2.122   0.258  12.260
 4624SOL    HW214319   1.999   0.230  12.156
 4625SOL     OW14320   1.881   0.368  11.819
 4625SOL    HW114321   1.799   0.411  11.858
 4625SOL    HW214322   1.853   0.295  11.756
 4626SOL     OW14323   2.431   1.275  12.337
 4626SOL    HW114324   2.338   1.268  12.300
 4626SOL    HW214325   2.442   1.364  12.381
 4627SOL     OW14326   3.417   1.511  11.875
 4627SOL    HW114327   3.360   1.495  11.956
 4627SOL    HW214328   3.358   1.521  11.795
 4628SOL     OW14329   2.997   0.703  11.889
 4628SOL    HW114330   3.054   0.781  11.864
 4628SOL    HW214331   2.937   0.729  11.965
 4629SOL     OW14332   3.617   0.607  11.403
 4629SOL    HW114333   3.605   0.594  11.304
 4629SOL    HW214334   3.587   0.526  11.452
 4630SOL     OW14335   2.630   1.144  12.195
 4630SOL    HW114336   2.552   1.161  12.255
 4630SOL    HW214337   2.664   1.231  12.159
 4631SOL     OW14338   2.712   0.798  12.995
 4631SOL    HW114339   2.708   0.874  13.060
 4631SOL    HW214340   2.734   0.834  12.904
 4632SOL     OW14341   2.547   1.012  11.837
 4632SOL    HW114342   2.616   0.996  11.907
 4632SOL    HW214343   2.474   1.069  11.875
 4633SOL     OW14344   2.548   1.161  12.975
 4633SOL    HW114345   2.608   1.240  12.989
 4633SOL    HW214346   2.462   1.192  12.934
 4634SOL     OW14347   2.197   1.435  12.233
 4634SOL    HW114348   2.119   1.404  12.180
 4634SOL    HW214349   2.255   1.493  12.176
 4635SOL     OW14350   3.322   1.505  12.511
 4635SOL    HW114351   3.346   1.599  12.537
 4635SOL    HW214352   3.306   1.451  12.593
 4636SOL     OW14353   2.300   0.392  12.671
 4636SOL    HW114354   2.382   0.336  12.680
 4636SOL    HW214355   2.219   0.334  12.675
 4637SOL     OW14356   3.465   0.447  11.909
 4637SOL    HW114357   3.391   0.493  11.859
 4637SOL    HW214358   3.516   0.515  11.962
 4638SOL     OW14359   2.093   1.713  11.655
 4638SOL    HW114360   2.127   1.790  11.709
 4638SOL    HW214361   2.137   1.713  11.565
 4639SOL     OW14362   2.989   1.341  12.862
 4639SOL    HW114363   3.036   1.341  12.950
 4639SOL    HW214364   2.941   1.254  12.851
 4640SOL     OW14365   2.092   1.434  11.710
 4640SOL    HW114366   2.066   1.530  11.710
 4640SOL    HW214367   2.021   1.380  11.755
 4641SOL     OW14368   2.102   1.091  12.058
 4641SOL    HW114369   2.116   1.007  12.110
 4641SOL    HW214370   2.047   1.155  12.113
 4642SOL     OW14371   2.482   1.786  12.611
 4642SOL    HW114372   2.390   1.769  12.646
 4642SOL    HW214373   2.510   1.878  12.637
 4643SOL     OW14374   2.468   0.964  11.295
 4643SOL    HW114375   2.475   1.048  11.241
 4643SOL    HW214376   2.514   0.977  11.383
 4644SOL     OW14377   3.456   0.114  12.652
 4644SOL    HW114378   3.438   0.181  12.580
 4644SOL    HW214379   3.453   0.160  12.741
 4645SOL     OW14380   1.984   0.643  11.735
 4645SOL    HW114381   1.939   0.555  11.752
 4645SOL    HW214382   1.983   0.697  11.819
 4646SOL     OW14383   3.704   1.767  11.531
 4646SOL    HW114384   3.758   1.738  11.611
 4646SOL    HW214385   3.734   1.857  11.502
 4647SOL     OW14386   1.889   1.596  11.289
 4647SOL    HW114387   1.870   1.500  11.310
 4647SOL    HW214388   1.856   1.654  11.364
 4648SOL     OW14389   3.551   0.922  11.784
 4648SOL    HW114390   3.646   0.893  11.792
 4648SOL    HW214391   3.543   0.987  11.709
 4649SOL     OW14392   3.503   1.108  11.604
 4649SOL    HW114393   3.589   1.110  11.552
 4649SOL    HW214394   3.517   1.155  11.692
 4650SOL     OW14395   1.975   0.737  12.769
 4650SOL    HW114396   2.063   0.724  12.814
 4650SOL    HW214397   1.962   0.834  12.747
 4651SOL     OW14398   2.475   1.365  11.898
 4651SOL    HW114399   2.426   1.278  11.907
 4651SOL    HW214400   2.452   1.408  11.811
 4652SOL     OW14401   3.155   1.228  12.595
 4652SOL    HW114402   3.192   1.155  12.537
 4652SOL    HW214403   3.207   1.233  12.680
 4653SOL     OW14404   2.671   0.004  11.674
 4653SOL    HW114405   2.711   0.095  11.665
 4653SOL    HW214406   2.571   0.012  11.680
 4654SOL     OW14407   2.059   0.976  12.436
 4654SOL    HW114408   2.148   0.931  12.422
 4654SOL    HW214409   1.986   0.911  12.417
 4655SOL     OW14410   3.387   0.999  11.362
 4655SOL    HW114411   3.324   0.923  11.375
 4655SOL    HW214412   3.435   1.017  11.448
 4656SOL     OW14413   3.049   1.792  12.788
 4656SOL    HW114414   3.073   1.852  12.712
 4656SOL    HW214415   3.056   1.697  12.758
 4657SOL     OW14416   2.179   0.251  12.973
 4657SOL    HW114417   2.250   0.322  12.979
 4657SOL    HW214418   2.091   0.290  13.001
 4658SOL     OW14419   3.328   1.417  12.125
 4658SOL    HW114420   3.269   1.423  12.205
 4658SOL    HW214421   3.313   1.329  12.079
 4659SOL     OW14422   3.529   1.714  11.744
 4659SOL    HW114423   3.488   1.691  11.656
 4659SOL    HW214424   3.511   1.640  11.809
 4660SOL     OW14425   2.460   0.729  11.442
 4660SOL    HW114426   2.484   0.798  11.374
 4660SOL    HW214427   2.382   0.762  11.496
 4661SOL     OW14428   3.143   0.345  12.116
 4661SOL    HW114429   3.057   0.295  12.103
 4661SOL    HW214430   3.205   0.291  12.172
 4662SOL     OW14431   3.438   1.662  11.479
 4662SOL    HW114432   3.527   1.708  11.482
 4662SOL    HW214433   3.417   1.638  11.384
 4663SOL     OW14434   2.669   0.605  12.637
 4663SOL    HW114435   2.622   0.602  12.726
 4663SOL    HW214436   2.618   0.550  12.571
 4664SOL     OW14437   3.256   0.469  12.846
 4664SOL    HW114438   3.236   0.512  12.934
 4664SOL    HW214439   3.334   0.407  12.855
 4665SOL     OW14440   2.835   0.890  12.744
 4665SOL    HW114441   2.881   0.806  12.715
 4665SOL    HW214442   2.779   0.924  12.669
 4666SOL     OW14443   2.853   0.410  12.414
 4666SOL    HW114444   2.776   0.444  12.468
 4666SOL    HW214445   2.819   0.359  12.335
 4667SOL     OW14446   2.903   0.701  11.601
 4667SOL    HW114447   2.929   0.697  11.697
 4667SOL    HW214448   2.818   0.650  11.587
 4668SOL     OW14449   1.938   0.811  11.961
 4668SOL    HW114450   2.037   0.799  11.970
 4668SOL    HW214451   1.914   0.906  11.982
 4669SOL     OW14452   2.727   0.348  11.367
 4669SOL    HW114453   2.786   0.411  11.318
 4669SOL    HW214454   2.746   0.254  11.338
 4670SOL     OW14455   3.581   0.585  13.003
 4670SOL    HW114456   3.555   0.674  12.967
 4670SOL    HW214457   3.579   0.517  12.930
 4671SOL     OW14458   3.224   1.144  11.717
 4671SOL    HW114459   3.307   1.115  11.669
 4671SOL    HW214460   3.175   1.211  11.661
 4672SOL     OW14461   2.412   0.196  12.057
 4672SOL    HW114462   2.407   0.191  12.157
 4672SOL    HW214463   2.414   0.292  12.028
 4673SOL     OW14464   2.870   1.456  11.649
 4673SOL    HW114465   2.824   1.528  11.597
 4673SOL    HW214466   2.866   1.476  11.747
 4674SOL     OW14467   2.213   1.801  12.025
 4674SOL    HW114468   2.263   1.715  12.031
 4674SOL    HW214469   2.278   1.878  12.022
 4675SOL     OW14470   3.657   1.066  12.045
 4675SOL    HW114471   3.595   1.051  11.969
 4675SOL    HW214472   3.605   1.077  12.130
 4676SOL     OW14473   3.089   1.550  12.678
 4676SOL    HW114474   3.095   1.473  12.742
 4676SOL    HW214475   3.037   1.524  12.598
 4677SOL     OW14476   2.183   0.943  11.414
 4677SOL    HW114477   2.265   0.982  11.372
 4677SOL    HW214478   2.156   0.861  11.365
 4678SOL     OW14479   3.320   0.735  11.900
 4678SOL    HW114480   3.315   0.670  11.975
 4678SOL    HW214481   3.400   0.794  11.913
 4679SOL     OW14482   2.323   1.266  12.899
 4679SOL    HW114483   2.273   1.267  12.813
 4679SOL    HW214484   2.260   1.248  12.975
 4680SOL     OW14485   2.973   1.776  11.409
 4680SOL    HW114486   2.913   1.714  11.459
 4680SOL    HW214487   3.004   1.732  11.324
 4681SOL     OW14488   2.064   0.285  12.670
 4681SOL    HW114489   1.984   0.345  12.657
 4681SOL    HW214490   2.054   0.236  12.756
 4682SOL     OW14491   3.494   1.377  11.253
 4682SOL    HW114492   3.462   1.471  11.243
 4682SOL    HW214493   3.418   1.314  11.241
 4683SOL     OW14494   2.326   1.743  11.495
 4683SOL    HW114495   2.359   1.782  11.581
 4683SOL    HW214496   2.402   1.736  11.430
 4684SOL     OW14497   3.262   0.107  11.598
 4684SOL    HW114498   3.238   0.070  11.508
 4684SOL    HW214499   3.361   0.123  11.602
 4685SOL     OW14500   2.111   1.785  12.413
 4685SOL    HW114501   2.168   1.720  12.463
 4685SOL    HW214502   2.095   1.752  12.320
 4686SOL     OW14503   2.802   1.698  12.076
 4686SOL    HW114504   2.882   1.641  12.097
 4686SOL    HW214505   2.753   1.658  11.999
 4687SOL     OW14506   2.244   0.700  11.652
 4687SOL    HW114507   2.289   0.610  11.649
 4687SOL    HW214508   2.150   0.689  11.685
 4688SOL     OW14509   3.409   0.222  12.901
 4688SOL    HW114510   3.404   0.259  12.993
 4688SOL    HW214511   3.337   0.153  12.889
 4689SOL     OW14512   2.476   0.122  11.289
 4689SOL    HW114513   2.574   0.100  11.296
 4689SOL    HW214514   2.445   0.105  11.196
 4690SOL     OW14515   2.643   0.264  12.921
 4690SOL    HW114516   2.710   0.203  12.964
 4690SOL    HW214517   2.570   0.283  12.986
 4691SOL     OW14518   2.750   1.514  12.367
 4691SOL    HW114519   2.727   1.489  12.273
 4691SOL    HW214520   2.811   1.445  12.406
 4692SOL     OW14521   3.213   0.590  12.605
 4692SOL    HW114522   3.241   0.547  12.690
 4692SOL    HW214523   3.238   0.686  12.606
 4693SOL     OW14524   2.665   1.402  12.096
 4693SOL    HW114525   2.755   1.416  12.054
 4693SOL    HW214526   2.594   1.404  12.025
 4694SOL     OW14527   2.784   0.503  12.071
 4694SOL    HW114528   2.759   0.494  11.975
 4694SOL    HW214529   2.832   0.421  12.102
 4695SOL     OW14530   2.401   0.064  11.684
 4695SOL    HW114531   2.320   0.065  11.742
 4695SOL    HW214532   2.404   0.147  11.629
 4696SOL     OW14533   3.296   1.188  11.213
 4696SOL    HW114534   3.328   1.112  11.270
 4696SOL    HW214535   3.204   1.215  11.243
 4697SOL     OW14536   2.159   0.035  11.343
 4697SOL    HW114537   2.208   0.119  11.322
 4697SOL    HW214538   2.221  -0.030  11.388
 4698SOL     OW14539   2.797   0.236  11.652
 4698SOL    HW114540   2.749   0.277  11.574
 4698SOL    HW214541   2.896   0.234  11.633
 4699SOL     OW14542   2.938   0.683  12.636
 4699SOL    HW114543   2.858   0.622  12.639
 4699SOL    HW214544   3.019   0.630  12.612
 4700SOL     OW14545   3.089   1.570  11.965
 4700SOL    HW114546   3.110   1.644  11.900
 4700SOL    HW214547   3.157   1.570  12.038
 4701SOL     OW14548   2.321   1.152  11.913
 4701SOL    HW114549   2.250   1.125  11.978
 4701SOL    HW214550   2.295   1.124  11.820
 4702SOL     OW14551   3.133   1.797  11.763
 4702SOL    HW114552   3.177   1.861  11.699
 4702SOL    HW214553   3.083   1.849  11.833
 4703SOL     OW14554   2.894   0.549  11.188
 4703SOL    HW114555   2.853   0.631  11.149
 4703SOL    HW214556   2.958   0.575  11.261
 4704SOL     OW14557   1.940   0.556  12.558
 4704SOL    HW114558   2.032   0.555  12.517
 4704SOL    HW214559   1.934   0.630  12.625
 4705SOL     OW14560   2.423   0.222  12.319
 4705SOL    HW114561   2.461   0.138  12.356
 4705SOL    HW214562   2.335   0.241  12.363
 4706SOL     OW14563   2.728   0.454  11.814
 4706SOL    HW114564   2.696   0.526  11.752
 4706SOL    HW214565   2.752   0.373  11.761
 4707SOL     OW14566   2.879   0.039  11.925
 4707SOL    HW114567   2.807   0.044  11.856
 4707SOL    HW214568   2.855  -0.030  11.994
 4708SOL     OW14569   3.291   1.173  12.039
 4708SOL    HW114570   3.236   1.089  12.032
 4708SOL    HW214571   3.317   1.202  11.947
 4709SOL     OW14572   3.328   0.590  12.164
 4709SOL    HW114573   3.298   0.495  12.171
 4709SOL    HW214574   3.401   0.606  12.230
 4710SOL     OW14575   3.719   0.833  11.549
 4710SOL    HW114576   3.761   0.769  11.613
 4710SOL    HW214577   3.681   0.782  11.471
 4711SOL     OW14578   2.350   1.385  11.346
 4711SOL    HW114579   2.263   1.370  11.393
 4711SOL    HW214580   2.333   1.411  11.251
 4712SOL     OW14581   3.526   1.280  11.829
 4712SOL    HW114582   3.625   1.288  11.843
 4712SOL    HW214583   3.481   1.364  11.860
 4713SOL     OW14584   3.252   0.575  11.250
 4713SOL    HW114585   3.198   0.554  11.331
 4713SOL    HW214586   3.343   0.534  11.259
 4714SOL     OW14587   2.389   0.256  11.500
 4714SOL    HW114588   2.416   0.197  11.425
 4714SOL    HW214589   2.389   0.351  11.469
 4715SOL     OW14590   3.616   1.223  12.760
 4715SOL    HW114591   3.707   1.184  12.747
 4715SOL    HW214592   3.624   1.319  12.784
 4716SOL     OW14593   2.926   1.347  12.512
 4716SOL    HW114594   2.846   1.324  12.567
 4716SOL    HW214595   3.009   1.321  12.561
 4717SOL     OW14596   3.454   1.629  12.797
 4717SOL    HW114597   3.481   1.663  12.707
 4717SOL    HW214598   3.533   1.591  12.843
 4718SOL     OW14599   2.973   1.195  12.272
 4718SOL    HW114600   2.933   1.239  12.353
 4718SOL    HW214601   2.932   1.232  12.189
 4719SOL     OW14602   3.500   1.099  12.251
 4719SOL    HW114603   3.505   1.180  12.310
 4719SOL    HW214604   3.414   1.101  12.200
 4720SOL     OW14605   2.777   0.089  12.574
 4720SOL    HW114606   2.802   0.069  12.479
 4720SOL    HW214607   2.849   0.145  12.616
 4721SOL     OW14608   2.842   1.116  12.891
 4721SOL    HW114609   2.743   1.122  12.901
 4721SOL    HW214610   2.865   1.036  12.835
 4722SOL     OW14611   2.567   1.050  11.540
 4722SOL    HW114612   2.553   1.057  11.639
 4722SOL    HW214613   2.651   0.999  11.522
 4723SOL     OW14614   2.272   0.813  12.423
 4723SOL    HW114615   2.358   0.825  12.473
 4723SOL    HW214616   2.230   0.726  12.450
 4724SOL     OW14617   3.136   0.386  12.434
 4724SOL    HW114618   3.157   0.460  12.498
 4724SOL    HW214619   3.047   0.403  12.391
 4725SOL     OW14620   1.926   1.564  12.503
 4725SOL    HW114621   1.880   1.646  12.469
 4725SOL    HW214622   2.024   1.583  12.512
 4726SOL     OW14623   2.229   1.100  11.673
 4726SOL    HW114624   2.222   1.183  11.617
 4726SOL    HW214625   2.233   1.020  11.613
 4727SOL     OW14626   2.428   0.537  12.037
 4727SOL    HW114627   2.440   0.603  11.963
 4727SOL    HW214628   2.474   0.571  12.120
 4728SOL     OW14629   3.114   1.348  11.560
 4728SOL    HW114630   3.164   1.425  11.600
 4728SOL    HW214631   3.019   1.350  11.592
 4729SOL     OW14632   3.134   1.445  12.314
 4729SOL    HW114633   3.181   1.458  12.401
 4729SOL    HW214634   3.068   1.371  12.323
 4730SOL     OW14635   3.444   0.639  11.644
 4730SOL    HW114636   3.413   0.700  11.717
 4730SOL    HW214637   3.494   0.691  11.575
 4731SOL     OW14638   2.216   1.510  12.501
 4731SOL    HW114639   2.195   1.466  12.414
 4731SOL    HW214640   2.313   1.536  12.504
 4732SOL     OW14641   2.264   0.751  12.770
 4732SOL    HW114642   2.332   0.806  12.723
 4732SOL    HW214643   2.304   0.663  12.797
 4733SOL     OW14644   3.449   0.779  12.842
 4733SOL    HW114645   3.357   0.817  12.837
 4733SOL    HW214646   3.509   0.826  12.777
 4734SOL     OW14647   2.875   0.105  12.942
 4734SOL    HW114648   2.881   0.190  12.890
 4734SOL    HW214649   2.907   0.029  12.885
 4735SOL     OW14650   2.366   0.050  12.912
 4735SOL    HW114651   2.324  -0.007  12.842
 4735SOL    HW214652   2.300   0.119  12.944
 4736SOL     OW14653   2.435   0.870  12.201
 4736SOL    HW114654   2.479   0.959  12.192
 4736SOL    HW214655   2.372   0.870  12.278
 4737SOL     OW14656   3.222   0.862  12.217
 4737SOL    HW114657   3.147   0.862  12.151
 4737SOL    HW214658   3.259   0.770  12.226
 4738SOL     OW14659   3.071   0.525  11.447
 4738SOL    HW114660   3.084   0.441  11.501
 4738SOL    HW214661   3.042   0.599  11.507
 4739SOL     OW14662   2.169   0.213  12.403
 4739SOL    HW114663   2.146   0.250  12.493
 4739SOL    HW214664   2.139   0.118  12.397
 4740SOL     OW14665   1.899   1.310  12.454
 4740SOL    HW114666   1.952   1.261  12.522
 4740SOL    HW214667   1.921   1.408  12.459
 4741SOL     OW14668   2.594   0.634  12.236
 4741SOL    HW114669   2.653   0.608  12.160
 4741SOL    HW214670   2.566   0.730  12.225
 4742SOL     OW14671   3.590   0.935  13.026
 4742SOL    HW114672   3.544   0.928  12.937
 4742SOL    HW214673   3.528   0.979  13.092
 4743SOL     OW14674   2.169   0.063  11.790
 4743SOL    HW114675   2.158   0.157  11.823
 4743SOL    HW214676   2.164   0.000  11.867
 4744SOL     OW14677   3.484   0.367  11.546
 4744SOL    HW114678   3.486   0.291  11.610
 4744SOL    HW214679   3.436   0.444  11.586
 4745SOL     OW14680   2.885   0.766  12.138
 4745SOL    HW114681   2.900   0.787  12.234
 4745SOL    HW214682   2.855   0.671  12.129
 4746SOL     OW14683   2.842   1.573  12.872
 4746SOL    HW114684   2.822   1.617  12.784
 4746SOL    HW214685   2.881   1.482  12.856
 4747SOL     OW14686   3.721   1.518  12.777
 4747SOL    HW114687   3.735   1.545  12.682
 4747SOL    HW214688   3.804   1.540  12.830
 4748SOL     OW14689   2.212   0.898  12.976
 4748SOL    HW114690   2.288   0.942  13.024
 4748SOL    HW214691   2.247   0.851  12.894
 4749SOL     OW14692   3.402   0.274  11.297
 4749SOL    HW114693   3.341   0.199  11.320
 4749SOL    HW214694   3.424   0.326  11.380
 4750SOL     OW14695   3.165   0.838  11.214
 4750SOL    HW114696   3.199   0.745  11.229
 4750SOL    HW214697   3.183   0.865  11.119
 4751SOL     OW14698   2.930   1.333  12.021
 4751SOL    HW114699   2.937   1.249  11.966
 4751SOL    HW214700   2.992   1.402  11.985
 4752SOL     OW14701   2.181   0.810  12.121
 4752SOL    HW114702   2.274   0.846  12.126
 4752SOL    HW214703   2.175   0.725  12.173
 4753SOL     OW14704   2.201   0.509  12.178
 4753SOL    HW114705   2.149   0.426  12.161
 4753SOL    HW214706   2.278   0.514  12.114
 4754SOL     OW14707   3.000   0.380  12.850
 4754SOL    HW114708   2.955   0.443  12.914
 4754SOL    HW214709   3.093   0.411  12.833
 4755SOL     OW14710   3.022   0.207  12.649
 4755SOL    HW114711   3.022   0.271  12.726
 4755SOL    HW214712   3.050   0.255  12.566
 4756SOL     OW14713   1.870   1.326  11.372
 4756SOL    HW114714   1.777   1.347  11.341
 4756SOL    HW214715   1.880   1.227  11.385
 4757SOL     OW14716   1.950   1.801  12.099
 4757SOL    HW114717   1.908   1.715  12.072
 4757SOL    HW214718   2.044   1.804  12.065
 4758SOL     OW14719   2.366   1.568  12.082
 4758SOL    HW114720   2.432   1.642  12.091
 4758SOL    HW214721   2.410   1.489  12.040
 4759SOL     OW14722   2.864   0.796  12.410
 4759SOL    HW114723   2.905   0.764  12.496
 4759SOL    HW214724   2.768   0.769  12.407
 4760SOL     OW14725   1.902   0.544  12.286
 4760SOL    HW114726   1.987   0.511  12.245
 4760SOL    HW214727   1.915   0.559  12.384
 4761SOL     OW14728   2.051   0.520  12.894
 4761SOL    HW114729   2.110   0.480  12.824
 4761SOL    HW214730   1.993   0.591  12.853
 4762SOL     OW14731   3.231   0.950  12.832
 4762SOL    HW114732   3.270   1.039  12.852
 4762SOL    HW214733   3.241   0.930  12.735
 4763SOL     OW14734   2.677   0.572  11.497
 4763SOL    HW114735   2.684   0.483  11.451
 4763SOL    HW214736   2.583   0.606  11.489
 4764SOL     OW14737   3.519   0.604  12.378
 4764SOL    HW114738   3.481   0.535  12.440
 4764SOL    HW214739   3.601   0.568  12.334
 4765SOL     OW14740   2.114   1.564  12.916
 4765SOL    HW114741   2.084   1.621  12.992
 4765SOL    HW214742   2.107   1.467  12.942
 4766SOL     OW14743   2.533   0.464  12.441
 4766SOL    HW114744   2.499   0.375  12.411
 4766SOL    HW214745   2.559   0.518  12.361
 4767SOL     OW14746   2.792   1.678  12.637
 4767SOL    HW114747   2.768   1.660  12.542
 4767SOL    HW214748   2.822   1.772  12.647
 4768SOL     OW14749   2.335   0.500  11.363
 4768SOL    HW114750   2.396   0.580  11.367
 4768SOL    HW214751   2.240   0.531  11.370
 4769SOL     OW14752   2.021   1.137  12.638
 4769SOL    HW114753   2.043   1.076  12.714
 4769SOL    HW214754   2.031   1.088  12.552
 4770SOL     OW14755   3.209   1.059  12.406
 4770SOL    HW114756   3.233   0.996  12.332
 4770SOL    HW214757   3.119   1.099  12.388
 4771SOL     OW14758   3.164   0.855  11.481
 4771SOL    HW114759   3.078   0.824  11.523
 4771SOL    HW214760   3.160   0.841  11.382
 4772SOL     OW14761   3.621   1.747  12.326
 4772SOL    HW114762   3.682   1.777  12.253
 4772SOL    HW214763   3.583   1.658  12.304
 4773SOL     OW14764   3.114   1.731  12.300
 4773SOL    HW114765   3.198   1.736  12.246
 4773SOL    HW214766   3.091   1.635  12.318
 4774SOL     OW14767   1.945   1.258  12.194
 4774SOL    HW114768   1.940   1.257  12.294
 4774SOL    HW214769   1.862   1.217  12.156
 4775SOL     OW14770   2.550   1.662  12.888
 4775SOL    HW114771   2.494   1.743  12.897
 4775SOL    HW214772   2.602   1.666  12.802
 4776SOL     OW14773   3.588   0.135  11.695
 4776SOL    HW114774   3.661   0.118  11.628
 4776SOL    HW214775   3.557   0.048  11.733
 4777SOL     OW14776   3.250   1.573  11.649
 4777SOL    HW114777   3.317   1.585  11.575
 4777SOL    HW214778   3.210   1.662  11.672
 4778SOL     OW14779   1.992   1.794  13.023
 4778SOL    HW114780   1.951   1.720  13.076
 4778SOL    HW214781   2.056   1.845  13.081
 4779SOL     OW14782   3.142   0.927  11.844
 4779SOL    HW114783   3.202   0.846  11.846
 4779SOL    HW214784   3.182   0.996  11.784
 4780SOL     OW14785   2.692   1.273  12.594
 4780SOL    HW114786   2.687   1.306  12.689
 4780SOL    HW214787   2.606   1.292  12.548
 4781SOL     OW14788   2.534   1.616  11.326
 4781SOL    HW114789   2.543   1.626  11.227
 4781SOL    HW214790   2.494   1.527  11.347
 4782SOL     OW14791   3.512   1.720  12.566
 4782SOL    HW114792   3.565   1.730  12.482
 4782SOL    HW214793   3.485   1.810  12.600
 4783SOL     OW14794   3.703   0.175  12.135
 4783SOL    HW114795   3.742   0.090  12.099
 4783SOL    HW214796   3.605   0.177  12.116
 4784SOL     OW14797   2.125   0.326  11.892
 4784SOL    HW114798   2.046   0.377  11.858
 4784SOL    HW214799   2.116   0.311  11.990
 4785SOL     OW14800   3.056   1.612  11.203
 4785SOL    HW114801   3.062   1.519  11.240
 4785SOL    HW214802   2.997   1.612  11.123
 4786SOL     OW14803   2.684   1.002  12.544
 4786SOL    HW114804   2.724   1.001  12.452
 4786SOL    HW214805   2.694   1.094  12.584
 4787SOL     OW14806   2.778   0.910  11.463
 4787SOL    HW114807   2.841   0.948  11.395
 4787SOL    HW214808   2.818   0.827  11.502
 4788SOL     OW14809   3.366   1.607  11.216
 4788SOL    HW114810   3.274   1.644  11.223
 4788SOL    HW214811   3.404   1.627  11.126
 4789SOL     OW14812   2.234   1.288  12.662
 4789SOL    HW114813   2.221   1.381  12.628
 4789SOL    HW214814   2.150   1.236  12.649
 4790SOL     OW14815   3.476   1.292  12.461
 4790SOL    HW114816   3.536   1.295  12.541
 4790SOL    HW214817   3.401   1.356  12.474
 4791SOL     OW14818   2.901   1.098  11.868
 4791SOL    HW114819   2.831   1.051  11.922
 4791SOL    HW214820   2.960   1.030  11.825
 4792SOL     OW14821   2.876   0.236  12.143
 4792SOL    HW114822   2.868   0.200  12.050
 4792SOL    HW214823   2.874   0.160  12.208
 4793SOL     OW14824   2.452   1.487  11.663
 4793SOL    HW114825   2.494   1.429  11.593
 4793SOL    HW214826   2.408   1.566  11.619
 4794SOL     OW14827   3.571   0.385  12.553
 4794SOL    HW114828   3.644   0.454  12.557
 4794SOL    HW214829   3.599   0.310  12.494
 4795SOL     OW14830   2.117   1.348  11.462
 4795SOL    HW114831   2.021   1.349  11.435
 4795SOL    HW214832   2.129   1.401  11.546
 4796SOL     OW14833   1.967   1.013  12.898
 4796SOL    HW114834   1.890   0.980  12.952
 4796SOL    HW214835   2.052   0.983  12.940
 4797SOL     OW14836   2.534   0.203  12.661
 4797SOL    HW114837   2.624   0.187  12.621
 4797SOL    HW214838   2.542   0.208  12.760
 4798SOL     OW14839   1.937   0.345  11.205
 4798SOL    HW114840   1.845   0.317  11.176
 4798SOL    HW214841   1.968   0.422  11.149
 4799SOL     OW14842   3.302   0.856  12.570
 4799SOL    HW114843   3.245   0.908  12.507
 4799SOL    HW214844   3.398   0.868  12.546
 4800SOL     OW14845   1.934   0.166  11.490
 4800SOL    HW114846   1.917   0.249  11.436
 4800SOL    HW214847   2.024   0.129  11.468
 4801SOL     OW14848   3.045   1.335  11.291
 4801SOL    HW114849   2.946   1.324  11.293
 4801SOL    HW214850   3.079   1.350  11.384
 4802SOL     OW14851   2.475   0.842  12.603
 4802SOL    HW114852   2.531   0.923  12.586
 4802SOL    HW214853   2.534   0.762  12.606
 4803SOL     OW14854   3.355   1.767  12.131
 4803SOL    HW114855   3.388   1.831  12.062
 4803SOL    HW214856   3.421   1.761  12.206
 4804SOL     OW14857   2.578   0.565  12.880
 4804SOL    HW114858   2.597   0.630  12.954
 4804SOL    HW214859   2.638   0.485  12.889
 4805SOL     OW14860   3.312   1.220  12.805
 4805SOL    HW114861   3.303   1.210  12.904
 4805SOL    HW214862   3.408   1.213  12.779
 4806SOL     OW14863   2.252   1.741  12.732
 4806SOL    HW114864   2.161   1.782  12.730
 4806SOL    HW214865   2.245   1.647  12.764
 4807SOL     OW14866   3.536   0.883  12.426
 4807SOL    HW114867   3.509   0.794  12.389
 4807SOL    HW214868   3.537   0.951  12.353
 4808SOL     OW14869   3.087   0.325  11.621
 4808SOL    HW114870   3.152   0.251  11.610
 4808SOL    HW214871   3.107   0.375  11.705
 4809SOL     OW14872   2.456   0.745  11.824
 4809SOL    HW114873   2.506   0.830  11.805
 4809SOL    HW214874   2.368   0.747  11.776
 4810SOL     OW14875   3.639   0.342  12.814
 4810SOL    HW114876   3.622   0.373  12.720
 4810SOL    HW214877   3.555   0.305  12.852
 4811SOL     OW14878   3.592   0.934  12.689
 4811SOL    HW114879   3.630   1.025  12.704
 4811SOL    HW214880   3.584   0.917  12.590
 4812SOL     OW14881   2.721   1.374  11.188
 4812SOL    HW114882   2.675   1.389  11.276
 4812SOL    HW214883   2.765   1.459  11.158
 4813SOL     OW14884   2.523   1.790  12.125
 4813SOL    HW114885   2.477   1.878  12.112
 4813SOL    HW214886   2.622   1.802  12.118
 4814SOL     OW14887   2.721   0.956  12.033
 4814SOL    HW114888   2.775   0.887  12.081
 4814SOL    HW214889   2.689   1.025  12.099
 4815SOL     OW14890   2.945   0.984  11.259
 4815SOL    HW114891   2.922   1.037  11.177
 4815SOL    HW214892   3.026   0.928  11.240
 4816SOL     OW14893   3.723   1.569  12.023
 4816SOL    HW114894   3.652   1.557  11.953
 4816SOL    HW214895   3.724   1.490  12.083
 4817SOL     OW14896   2.083   1.314  13.016
 4817SOL    HW114897   2.018   1.241  12.995
 4817SOL    HW214898   2.087   1.328  13.114
 4818SOL     OW14899   1.941   1.240  11.825
 4818SOL    HW114900   1.940   1.193  11.913
 4818SOL    HW214901   2.023   1.212  11.774
 4819SOL     OW14902   2.534   1.391  12.796
 4819SOL    HW114903   2.456   1.341  12.834
 4819SOL    HW214904   2.531   1.486  12.827
 4820SOL     OW14905   3.686   0.192  12.399
 4820SOL    HW114906   3.682   0.102  12.443
 4820SOL    HW214907   3.689   0.181  12.300
 4821SOL     OW14908   2.290   0.424  11.692
 4821SOL    HW114909   2.320   0.352  11.630
 4821SOL    HW214910   2.251   0.384  11.775
 4822SOL     OW14911   3.567   1.487  12.276
 4822SOL    HW114912   3.474   1.462  12.249
 4822SOL    HW214913   3.593   1.437  12.358
 4823SOL     OW14914   2.179   0.547  12.452
 4823SOL    HW114915   2.217   0.488  12.524
 4823SOL    HW214916   2.219   0.521  12.364
 4824SOL     OW14917   2.674   1.586  11.859
 4824SOL    HW114918   2.706   1.596  11.765
 4824SOL    HW214919   2.595   1.524  11.861
 4825SOL     OW14920   3.286   0.214  12.284
 4825SOL    HW114921   3.338   0.149  12.339
 4825SOL    HW214922   3.237   0.277  12.345
 4826SOL     OW14923   2.863   0.034  12.326
 4826SOL    HW114924   2.800  -0.038  12.295
 4826SOL    HW214925   2.956  -0.002  12.326
 4827SOL     OW14926   2.632   1.330  11.473
 4827SOL    HW114927   2.586   1.243  11.490
 4827SOL    HW214928   2.723   1.327  11.514
 4828SOL     OW14929   2.480   1.567  12.456
 4828SOL    HW114930   2.475   1.649  12.513
 4828SOL    HW214931   2.569   1.564  12.411
 4829SOL     OW14932   3.214   0.052  11.340
 4829SOL    HW114933   3.249   0.011  11.256
 4829SOL    HW214934   3.124   0.014  11.360
 4830SOL     OW14935   3.162   0.453  11.863
 4830SOL    HW114936   3.103   0.533  11.867
 4830SOL    HW214937   3.177   0.418  11.956
 4831SOL     OW14938   3.455   0.221  12.054
 4831SOL    HW114939   3.371   0.220  12.108
 4831SOL    HW214940   3.457   0.304  11.998
 4832SOL     OW14941   1.901   1.077  11.472
 4832SOL    HW114942   2.000   1.066  11.463
 4832SOL    HW214943   1.861   0.991  11.504
 4833SOL     OW14944   2.737   1.646  11.509
 4833SOL    HW114945   2.660   1.611  11.455
 4833SOL    HW214946   2.705   1.717  11.571
 4834SOL     OW14947   2.092   0.628  13.147
 4834SOL    HW114948   1.999   0.626  13.184
 4834SOL    HW214949   2.093   0.589  13.055
 4835SOL     OW14950   2.087   0.275  14.030
 4835SOL    HW114951   2.122   0.258  14.122
 4835SOL    HW214952   1.999   0.230  14.018
 4836SOL     OW14953   1.881   0.368  13.681
 4836SOL    HW114954   1.799   0.411  13.720
 4836SOL    HW214955   1.853   0.295  13.618
 4837SOL     OW14956   3.417   1.511  13.737
 4837SOL    HW114957   3.360   1.495  13.818
 4837SOL    HW214958   3.358   1.521  13.657
 4838SOL     OW14959   2.997   0.703  13.751
 4838SOL    HW114960   3.054   0.781  13.726
 4838SOL    HW214961   2.937   0.729  13.827
 4839SOL     OW14962   3.617   0.607  13.265
 4839SOL    HW114963   3.605   0.594  13.166
 4839SOL    HW214964   3.587   0.526  13.314
 4840SOL     OW14965   2.547   1.012  13.699
 4840SOL    HW114966   2.616   0.996  13.769
 4840SOL    HW214967   2.474   1.069  13.737
 4841SOL     OW14968   3.465   0.447  13.771
 4841SOL    HW114969   3.391   0.493  13.721
 4841SOL    HW214970   3.516   0.515  13.824
 4842SOL     OW14971   2.093   1.713  13.517
 4842SOL    HW114972   2.127   1.790  13.571
 4842SOL    HW214973   2.137   1.713  13.427
 4843SOL     OW14974   2.092   1.434  13.572
 4843SOL    HW114975   2.066   1.530  13.572
 4843SOL    HW214976   2.021   1.380  13.617
 4844SOL     OW14977   2.102   1.091  13.920
 4844SOL    HW114978   2.116   1.007  13.972
 4844SOL    HW214979   2.047   1.155  13.975
 4845SOL     OW14980   2.468   0.964  13.157
 4845SOL    HW114981   2.475   1.048  13.103
 4845SOL    HW214982   2.514   0.977  13.245
 4846SOL     OW14983   1.984   0.643  13.597
 4846SOL    HW114984   1.939   0.555  13.614
 4846SOL    HW214985   1.983   0.697  13.681
 4847SOL     OW14986   3.704   1.767  13.393
 4847SOL    HW114987   3.758   1.738  13.473
 4847SOL    HW214988   3.734   1.857  13.364
 4848SOL     OW14989   1.889   1.596  13.151
 4848SOL    HW114990   1.870   1.500  13.172
 4848SOL    HW214991   1.856   1.654  13.226
 4849SOL     OW14992   3.551   0.922  13.646
 4849SOL    HW114993   3.646   0.893  13.654
 4849SOL    HW214994   3.543   0.987  13.571
 4850SOL     OW14995   3.503   1.108  13.466
 4850SOL    HW114996   3.589   1.110  13.414
 4850SOL    HW214997   3.517   1.155  13.554
 4851SOL     OW14998   2.475   1.365  13.760
 4851SOL    HW114999   2.426   1.278  13.769
 4851SOL    HW215000   2.452   1.408  13.673
 4852SOL     OW15001   2.671   0.004  13.536
 4852SOL    HW115002   2.711   0.095  13.527
 4852SOL    HW215003   2.571   0.012  13.542
 4853SOL     OW15004   3.387   0.999  13.224
 4853SOL    HW115005   3.324   0.923  13.237
 4853SOL    HW215006   3.435   1.017  13.310
 4854SOL     OW15007   3.529   1.714  13.606
 4854SOL    HW115008   3.488   1.691  13.518
 4854SOL    HW215009   3.511   1.640  13.671
 4855SOL     OW15010   2.460   0.729  13.304
 4855SOL    HW115011   2.484   0.798  13.236
 4855SOL    HW215012   2.382   0.762  13.358
 4856SOL     OW15013   3.143   0.345  13.978
 4856SOL    HW115014   3.057   0.295  13.965
 4856SOL    HW215015   3.205   0.291  14.034
 4857SOL     OW15016   3.438   1.662  13.341
 4857SOL    HW115017   3.527   1.708  13.344
 4857SOL    HW215018   3.417   1.638  13.246
 4858SOL     OW15019   2.903   0.701  13.463
 4858SOL    HW115020   2.929   0.697  13.559
 4858SOL    HW215021   2.818   0.650  13.449
 4859SOL     OW15022   1.938   0.811  13.823
 4859SOL    HW115023   2.037   0.799  13.832
 4859SOL    HW215024   1.914   0.906  13.844
 4860SOL     OW15025   2.727   0.348  13.229
 4860SOL    HW115026   2.786   0.411  13.180
 4860SOL    HW215027   2.746   0.254  13.200
 4861SOL     OW15028   3.224   1.144  13.579
 4861SOL    HW115029   3.307   1.115  13.531
 4861SOL    HW215030   3.175   1.211  13.523
 4862SOL     OW15031   2.870   1.456  13.511
 4862SOL    HW115032   2.824   1.528  13.459
 4862SOL    HW215033   2.866   1.476  13.609
 4863SOL     OW15034   2.213   1.801  13.887
 4863SOL    HW115035   2.263   1.715  13.893
 4863SOL    HW215036   2.278   1.878  13.884
 4864SOL     OW15037   3.657   1.066  13.907
 4864SOL    HW115038   3.595   1.051  13.831
 4864SOL    HW215039   3.605   1.077  13.992
 4865SOL     OW15040   2.183   0.943  13.276
 4865SOL    HW115041   2.265   0.982  13.234
 4865SOL    HW215042   2.156   0.861  13.227
 4866SOL     OW15043   3.320   0.735  13.762
 4866SOL    HW115044   3.315   0.670  13.837
 4866SOL    HW215045   3.400   0.794  13.775
 4867SOL     OW15046   2.973   1.776  13.271
 4867SOL    HW115047   2.913   1.714  13.321
 4867SOL    HW215048   3.004   1.732  13.186
 4868SOL     OW15049   3.494   1.377  13.115
 4868SOL    HW115050   3.462   1.471  13.105
 4868SOL    HW215051   3.418   1.314  13.103
 4869SOL     OW15052   2.326   1.743  13.357
 4869SOL    HW115053   2.359   1.782  13.443
 4869SOL    HW215054   2.402   1.736  13.292
 4870SOL     OW15055   3.262   0.107  13.460
 4870SOL    HW115056   3.238   0.070  13.370
 4870SOL    HW215057   3.361   0.123  13.464
 4871SOL     OW15058   2.802   1.698  13.938
 4871SOL    HW115059   2.882   1.641  13.959
 4871SOL    HW215060   2.753   1.658  13.861
 4872SOL     OW15061   2.244   0.700  13.514
 4872SOL    HW115062   2.289   0.610  13.511
 4872SOL    HW215063   2.150   0.689  13.547
 4873SOL     OW15064   2.476   0.122  13.151
 4873SOL    HW115065   2.574   0.100  13.158
 4873SOL    HW215066   2.445   0.105  13.058
 4874SOL     OW15067   2.401   0.064  13.546
 4874SOL    HW115068   2.320   0.065  13.604
 4874SOL    HW215069   2.404   0.147  13.491
 4875SOL     OW15070   3.296   1.188  13.075
 4875SOL    HW115071   3.328   1.112  13.132
 4875SOL    HW215072   3.204   1.215  13.105
 4876SOL     OW15073   2.159   0.035  13.205
 4876SOL    HW115074   2.208   0.119  13.184
 4876SOL    HW215075   2.221  -0.030  13.250
 4877SOL     OW15076   2.797   0.236  13.514
 4877SOL    HW115077   2.749   0.277  13.436
 4877SOL    HW215078   2.896   0.234  13.495
 4878SOL     OW15079   2.321   1.152  13.775
 4878SOL    HW115080   2.250   1.125  13.840
 4878SOL    HW215081   2.295   1.124  13.682
 4879SOL     OW15082   3.133   1.797  13.625
 4879SOL    HW115083   3.177   1.861  13.561
 4879SOL    HW215084   3.083   1.849  13.695
 4880SOL     OW15085   2.894   0.549  13.050
 4880SOL    HW115086   2.853   0.631  13.011
 4880SOL    HW215087   2.958   0.575  13.123
 4881SOL     OW15088   2.728   0.454  13.676
 4881SOL    HW115089   2.696   0.526  13.614
 4881SOL    HW215090   2.752   0.373  13.623
 4882SOL     OW15091   2.879   0.039  13.787
 4882SOL    HW115092   2.807   0.044  13.718
 4882SOL    HW215093   2.855  -0.030  13.856
 4883SOL     OW15094   3.719   0.833  13.411
 4883SOL    HW115095   3.761   0.769  13.475
 4883SOL    HW215096   3.681   0.782  13.333
 4884SOL     OW15097   2.350   1.385  13.208
 4884SOL    HW115098   2.263   1.370  13.255
 4884SOL    HW215099   2.333   1.411  13.113
 4885SOL     OW15100   3.526   1.280  13.691
 4885SOL    HW115101   3.625   1.288  13.705
 4885SOL    HW215102   3.481   1.364  13.722
 4886SOL     OW15103   3.252   0.575  13.112
 4886SOL    HW115104   3.198   0.554  13.193
 4886SOL    HW215105   3.343   0.534  13.121
 4887SOL     OW15106   2.389   0.256  13.362
 4887SOL    HW115107   2.416   0.197  13.287
 4887SOL    HW215108   2.389   0.351  13.331
 4888SOL     OW15109   2.567   1.050  13.402
 4888SOL    HW115110   2.553   1.057  13.501
 4888SOL    HW215111   2.651   0.999  13.384
 4889SOL     OW15112   2.229   1.100  13.535
 4889SOL    HW115113   2.222   1.183  13.479
 4889SOL    HW215114   2.233   1.020  13.475
 4890SOL     OW15115   2.428   0.537  13.899
 4890SOL    HW115116   2.440   0.603  13.825
 4890SOL    HW215117   2.474   0.571  13.982
 4891SOL     OW15118   3.114   1.348  13.422
 4891SOL    HW115119   3.164   1.425  13.462
 4891SOL    HW215120   3.019   1.350  13.454
 4892SOL     OW15121   3.444   0.639  13.506
 4892SOL    HW115122   3.413   0.700  13.579
 4892SOL    HW215123   3.494   0.691  13.437
 4893SOL     OW15124   3.071   0.525  13.309
 4893SOL    HW115125   3.084   0.441  13.363
 4893SOL    HW215126   3.042   0.599  13.369
 4894SOL     OW15127   2.169   0.063  13.652
 4894SOL    HW115128   2.158   0.157  13.685
 4894SOL    HW215129   2.164   0.000  13.729
 4895SOL     OW15130   3.484   0.367  13.408
 4895SOL    HW115131   3.486   0.291  13.472
 4895SOL    HW215132   3.436   0.444  13.448
 4896SOL     OW15133   3.402   0.274  13.159
 4896SOL    HW115134   3.341   0.199  13.182
 4896SOL    HW215135   3.424   0.326  13.242
 4897SOL     OW15136   3.165   0.838  13.076
 4897SOL    HW115137   3.199   0.745  13.091
 4897SOL    HW215138   3.183   0.865  12.981
 4898SOL     OW15139   1.870   1.326  13.234
 4898SOL    HW115140   1.777   1.347  13.203
 4898SOL    HW215141   1.880   1.227  13.247
 4899SOL     OW15142   2.677   0.572  13.359
 4899SOL    HW115143   2.684   0.483  13.313
 4899SOL    HW215144   2.583   0.606  13.351
 4900SOL     OW15145   2.335   0.500  13.225
 4900SOL    HW115146   2.396   0.580  13.229
 4900SOL    HW215147   2.240   0.531  13.232
 4901SOL     OW15148   3.164   0.855  13.343
 4901SOL    HW115149   3.078   0.824  13.385
 4901SOL    HW215150   3.160   0.841  13.244
 4902SOL     OW15151   3.588   0.135  13.557
 4902SOL    HW115152   3.661   0.118  13.490
 4902SOL    HW215153   3.557   0.048  13.595
 4903SOL     OW15154   3.250   1.573  13.511
 4903SOL    HW115155   3.317   1.585  13.437
 4903SOL    HW215156   3.210   1.662  13.534
 4904SOL     OW15157   3.142   0.927  13.706
 4904SOL    HW115158   3.202   0.846  13.708
 4904SOL    HW215159   3.182   0.996  13.646
 4905SOL     OW15160   2.534   1.616  13.188
 4905SOL    HW115161   2.543   1.626  13.089
 4905SOL    HW215162   2.494   1.527  13.209
 4906SOL     OW15163   3.703   0.175  13.997
 4906SOL    HW115164   3.742   0.090  13.961
 4906SOL    HW215165   3.605   0.177  13.978
 4907SOL     OW15166   2.125   0.326  13.754
 4907SOL    HW115167   2.046   0.377  13.720
 4907SOL    HW215168   2.116   0.311  13.852
 4908SOL     OW15169   3.056   1.612  13.065
 4908SOL    HW115170   3.062   1.519  13.102
 4908SOL    HW215171   2.997   1.612  12.985
 4909SOL     OW15172   2.778   0.910  13.325
 4909SOL    HW115173   2.841   0.948  13.257
 4909SOL    HW215174   2.818   0.827  13.364
 4910SOL     OW15175   3.366   1.607  13.078
 4910SOL    HW115176   3.274   1.644  13.085
 4910SOL    HW215177   3.404   1.627  12.988
 4911SOL     OW15178   2.901   1.098  13.730
 4911SOL    HW115179   2.831   1.051  13.784
 4911SOL    HW215180   2.960   1.030  13.687
 4912SOL     OW15181   2.452   1.487  13.525
 4912SOL    HW115182   2.494   1.429  13.455
 4912SOL    HW215183   2.408   1.566  13.481
 4913SOL     OW15184   2.117   1.348  13.324
 4913SOL    HW115185   2.021   1.349  13.297
 4913SOL    HW215186   2.129   1.401  13.408
 4914SOL     OW15187   1.937   0.345  13.067
 4914SOL    HW115188   1.845   0.317  13.038
 4914SOL    HW215189   1.968   0.422  13.011
 4915SOL     OW15190   1.934   0.166  13.352
 4915SOL    HW115191   1.917   0.249  13.298
 4915SOL    HW215192   2.024   0.129  13.330
 4916SOL     OW15193   3.045   1.335  13.153
 4916SOL    HW115194   2.946   1.324  13.155
 4916SOL    HW215195   3.079   1.350  13.246
 4917SOL     OW15196   3.087   0.325  13.483
 4917SOL    HW115197   3.152   0.251  13.472
 4917SOL    HW215198   3.107   0.375  13.567
 4918SOL     OW15199   2.456   0.745  13.686
 4918SOL    HW115200   2.506   0.830  13.667
 4918SOL    HW215201   2.368   0.747  13.638
 4919SOL     OW15202   2.721   1.374  13.050
 4919SOL    HW115203   2.675   1.389  13.138
 4919SOL    HW215204   2.765   1.459  13.020
 4920SOL     OW15205   2.523   1.790  13.987
 4920SOL    HW115206   2.477   1.878  13.974
 4920SOL    HW215207   2.622   1.802  13.980
 4921SOL     OW15208   2.721   0.956  13.895
 4921SOL    HW115209   2.775   0.887  13.943
 4921SOL    HW215210   2.689   1.025  13.961
 4922SOL     OW15211   2.945   0.984  13.121
 4922SOL    HW115212   2.922   1.037  13.039
 4922SOL    HW215213   3.026   0.928  13.102
 4923SOL     OW15214   1.941   1.240  13.687
 4923SOL    HW115215   1.940   1.193  13.775
 4923SOL    HW215216   2.023   1.212  13.636
 4924SOL     OW15217   2.290   0.424  13.554
 4924SOL    HW115218   2.320   0.352  13.492
 4924SOL    HW215219   2.251   0.384  13.637
 4925SOL     OW15220   3.567   1.487  14.138
 4925SOL    HW115221   3.474   1.462  14.111
 4925SOL    HW215222   3.593   1.437  14.220
 4926SOL     OW15223   2.674   1.586  13.721
 4926SOL    HW115224   2.706   1.596  13.627
 4926SOL    HW215225   2.595   1.524  13.723
 4927SOL     OW15226   2.632   1.330  13.335
 4927SOL    HW115227   2.586   1.243  13.352
 4927SOL    HW215228   2.723   1.327  13.376
 4928SOL     OW15229   3.214   0.052  13.202
 4928SOL    HW115230   3.249   0.011  13.118
 4928SOL    HW215231   3.124   0.014  13.222
 4929SOL     OW15232   3.162   0.453  13.725
 4929SOL    HW115233   3.103   0.533  13.729
 4929SOL    HW215234   3.177   0.418  13.818
 4930SOL     OW15235   1.901   1.077  13.334
 4930SOL    HW115236   2.000   1.066  13.325
 4930SOL    HW215237   1.861   0.991  13.366
 4931SOL     OW15238   2.737   1.646  13.371
 4931SOL    HW115239   2.660   1.611  13.317
 4931SOL    HW215240   2.705   1.717  13.433
 4932SOL     OW15241   2.092   2.490   0.113
 4932SOL    HW115242   1.999   2.488   0.150
 4932SOL    HW215243   2.093   2.451   0.021
 4933SOL     OW15244   1.881   2.230   0.647
 4933SOL    HW115245   1.799   2.273   0.686
 4933SOL    HW215246   1.853   2.157   0.584
 4934SOL     OW15247   2.431   3.137   1.165
 4934SOL    HW115248   2.338   3.130   1.128
 4934SOL    HW215249   2.442   3.226   1.209
 4935SOL     OW15250   3.417   3.373   0.703
 4935SOL    HW115251   3.360   3.357   0.784
 4935SOL    HW215252   3.358   3.383   0.623
 4936SOL     OW15253   2.997   2.565   0.717
 4936SOL    HW115254   3.054   2.643   0.692
 4936SOL    HW215255   2.937   2.591   0.793
 4937SOL     OW15256   3.617   2.469   0.231
 4937SOL    HW115257   3.605   2.456   0.132
 4937SOL    HW215258   3.587   2.388   0.280
 4938SOL     OW15259   2.630   3.006   1.023
 4938SOL    HW115260   2.552   3.023   1.083
 4938SOL    HW215261   2.664   3.093   0.987
 4939SOL     OW15262   2.712   2.660   1.823
 4939SOL    HW115263   2.708   2.736   1.888
 4939SOL    HW215264   2.734   2.696   1.732
 4940SOL     OW15265   2.547   2.874   0.665
 4940SOL    HW115266   2.616   2.858   0.735
 4940SOL    HW215267   2.474   2.931   0.703
 4941SOL     OW15268   2.548   3.023   1.803
 4941SOL    HW115269   2.608   3.102   1.817
 4941SOL    HW215270   2.462   3.054   1.762
 4942SOL     OW15271   2.197   3.297   1.061
 4942SOL    HW115272   2.119   3.266   1.008
 4942SOL    HW215273   2.255   3.355   1.004
 4943SOL     OW15274   3.322   3.367   1.339
 4943SOL    HW115275   3.346   3.461   1.365
 4943SOL    HW215276   3.306   3.313   1.421
 4944SOL     OW15277   2.300   2.254   1.499
 4944SOL    HW115278   2.382   2.198   1.508
 4944SOL    HW215279   2.219   2.196   1.503
 4945SOL     OW15280   3.465   2.309   0.737
 4945SOL    HW115281   3.391   2.355   0.687
 4945SOL    HW215282   3.516   2.377   0.790
 4946SOL     OW15283   2.093   3.575   0.483
 4946SOL    HW115284   2.127   3.652   0.537
 4946SOL    HW215285   2.137   3.575   0.393
 4947SOL     OW15286   2.989   3.203   1.690
 4947SOL    HW115287   3.036   3.203   1.778
 4947SOL    HW215288   2.941   3.116   1.679
 4948SOL     OW15289   2.092   3.296   0.538
 4948SOL    HW115290   2.066   3.392   0.538
 4948SOL    HW215291   2.021   3.242   0.583
 4949SOL     OW15292   2.102   2.953   0.886
 4949SOL    HW115293   2.116   2.869   0.938
 4949SOL    HW215294   2.047   3.017   0.941
 4950SOL     OW15295   2.482   3.648   1.439
 4950SOL    HW115296   2.390   3.631   1.474
 4950SOL    HW215297   2.510   3.740   1.465
 4951SOL     OW15298   2.468   2.826   0.123
 4951SOL    HW115299   2.475   2.910   0.069
 4951SOL    HW215300   2.514   2.839   0.211
 4952SOL     OW15301   3.456   1.976   1.480
 4952SOL    HW115302   3.438   2.043   1.408
 4952SOL    HW215303   3.453   2.022   1.569
 4953SOL     OW15304   1.984   2.505   0.563
 4953SOL    HW115305   1.939   2.417   0.580
 4953SOL    HW215306   1.983   2.559   0.647
 4954SOL     OW15307   3.704   3.629   0.359
 4954SOL    HW115308   3.758   3.600   0.439
 4954SOL    HW215309   3.734   3.719   0.330
 4955SOL     OW15310   1.889   3.458   0.117
 4955SOL    HW115311   1.870   3.362   0.138
 4955SOL    HW215312   1.856   3.516   0.192
 4956SOL     OW15313   3.551   2.784   0.612
 4956SOL    HW115314   3.646   2.755   0.620
 4956SOL    HW215315   3.543   2.849   0.537
 4957SOL     OW15316   3.503   2.970   0.432
 4957SOL    HW115317   3.589   2.972   0.380
 4957SOL    HW215318   3.517   3.017   0.520
 4958SOL     OW15319   1.975   2.599   1.597
 4958SOL    HW115320   2.063   2.586   1.642
 4958SOL    HW215321   1.962   2.696   1.575
 4959SOL     OW15322   2.475   3.227   0.726
 4959SOL    HW115323   2.426   3.140   0.735
 4959SOL    HW215324   2.452   3.270   0.639
 4960SOL     OW15325   3.155   3.090   1.423
 4960SOL    HW115326   3.192   3.017   1.365
 4960SOL    HW215327   3.207   3.095   1.508
 4961SOL     OW15328   2.671   1.866   0.502
 4961SOL    HW115329   2.711   1.957   0.493
 4961SOL    HW215330   2.571   1.874   0.508
 4962SOL     OW15331   2.059   2.838   1.264
 4962SOL    HW115332   2.148   2.793   1.250
 4962SOL    HW215333   1.986   2.773   1.245
 4963SOL     OW15334   3.387   2.861   0.190
 4963SOL    HW115335   3.324   2.785   0.203
 4963SOL    HW215336   3.435   2.879   0.276
 4964SOL     OW15337   3.049   3.654   1.616
 4964SOL    HW115338   3.073   3.714   1.540
 4964SOL    HW215339   3.056   3.559   1.586
 4965SOL     OW15340   3.328   3.279   0.953
 4965SOL    HW115341   3.269   3.285   1.033
 4965SOL    HW215342   3.313   3.191   0.907
 4966SOL     OW15343   3.529   3.576   0.572
 4966SOL    HW115344   3.488   3.553   0.484
 4966SOL    HW215345   3.511   3.502   0.637
 4967SOL     OW15346   2.460   2.591   0.270
 4967SOL    HW115347   2.484   2.660   0.202
 4967SOL    HW215348   2.382   2.624   0.324
 4968SOL     OW15349   3.143   2.207   0.944
 4968SOL    HW115350   3.057   2.157   0.931
 4968SOL    HW215351   3.205   2.153   1.000
 4969SOL     OW15352   3.438   3.524   0.307
 4969SOL    HW115353   3.527   3.570   0.310
 4969SOL    HW215354   3.417   3.500   0.212
 4970SOL     OW15355   2.669   2.467   1.465
 4970SOL    HW115356   2.622   2.464   1.554
 4970SOL    HW215357   2.618   2.412   1.399
 4971SOL     OW15358   3.256   2.331   1.674
 4971SOL    HW115359   3.236   2.374   1.762
 4971SOL    HW215360   3.334   2.269   1.683
 4972SOL     OW15361   2.835   2.752   1.572
 4972SOL    HW115362   2.881   2.668   1.543
 4972SOL    HW215363   2.779   2.786   1.497
 4973SOL     OW15364   2.853   2.272   1.242
 4973SOL    HW115365   2.776   2.306   1.296
 4973SOL    HW215366   2.819   2.221   1.163
 4974SOL     OW15367   2.903   2.563   0.429
 4974SOL    HW115368   2.929   2.559   0.525
 4974SOL    HW215369   2.818   2.512   0.415
 4975SOL     OW15370   1.938   2.673   0.789
 4975SOL    HW115371   2.037   2.661   0.798
 4975SOL    HW215372   1.914   2.768   0.810
 4976SOL     OW15373   1.992   3.683   1.571
 4976SOL    HW115374   1.982   3.668   1.670
 4976SOL    HW215375   1.906   3.719   1.535
 4977SOL     OW15376   2.727   2.210   0.195
 4977SOL    HW115377   2.786   2.273   0.146
 4977SOL    HW215378   2.746   2.116   0.166
 4978SOL     OW15379   3.581   2.447   1.831
 4978SOL    HW115380   3.555   2.536   1.795
 4978SOL    HW215381   3.579   2.379   1.758
 4979SOL     OW15382   3.224   3.006   0.545
 4979SOL    HW115383   3.307   2.977   0.497
 4979SOL    HW215384   3.175   3.073   0.489
 4980SOL     OW15385   2.412   2.058   0.885
 4980SOL    HW115386   2.407   2.053   0.985
 4980SOL    HW215387   2.414   2.154   0.856
 4981SOL     OW15388   2.870   3.318   0.477
 4981SOL    HW115389   2.824   3.390   0.425
 4981SOL    HW215390   2.866   3.338   0.575
 4982SOL     OW15391   2.213   3.663   0.853
 4982SOL    HW115392   2.263   3.577   0.859
 4982SOL    HW215393   2.278   3.740   0.850
 4983SOL     OW15394   3.657   2.928   0.873
 4983SOL    HW115395   3.595   2.913   0.797
 4983SOL    HW215396   3.605   2.939   0.958
 4984SOL     OW15397   3.089   3.412   1.506
 4984SOL    HW115398   3.095   3.335   1.570
 4984SOL    HW215399   3.037   3.386   1.426
 4985SOL     OW15400   2.183   2.805   0.242
 4985SOL    HW115401   2.265   2.844   0.200
 4985SOL    HW215402   2.156   2.723   0.193
 4986SOL     OW15403   3.320   2.597   0.728
 4986SOL    HW115404   3.315   2.532   0.803
 4986SOL    HW215405   3.400   2.656   0.741
 4987SOL     OW15406   2.323   3.128   1.727
 4987SOL    HW115407   2.273   3.129   1.641
 4987SOL    HW215408   2.260   3.110   1.803
 4988SOL     OW15409   2.973   3.638   0.237
 4988SOL    HW115410   2.913   3.576   0.287
 4988SOL    HW215411   3.004   3.594   0.152
 4989SOL     OW15412   3.494   3.239   0.081
 4989SOL    HW115413   3.462   3.333   0.071
 4989SOL    HW215414   3.418   3.176   0.069
 4990SOL     OW15415   2.326   3.605   0.323
 4990SOL    HW115416   2.359   3.644   0.409
 4990SOL    HW215417   2.402   3.598   0.258
 4991SOL     OW15418   3.262   1.969   0.426
 4991SOL    HW115419   3.238   1.932   0.336
 4991SOL    HW215420   3.361   1.985   0.430
 4992SOL     OW15421   2.111   3.647   1.241
 4992SOL    HW115422   2.168   3.582   1.291
 4992SOL    HW215423   2.095   3.614   1.148
 4993SOL     OW15424   2.802   3.560   0.904
 4993SOL    HW115425   2.882   3.503   0.925
 4993SOL    HW215426   2.753   3.520   0.827
 4994SOL     OW15427   2.244   2.562   0.480
 4994SOL    HW115428   2.289   2.472   0.477
 4994SOL    HW215429   2.150   2.551   0.513
 4995SOL     OW15430   3.409   2.084   1.729
 4995SOL    HW115431   3.404   2.121   1.821
 4995SOL    HW215432   3.337   2.015   1.717
 4996SOL     OW15433   2.643   2.126   1.749
 4996SOL    HW115434   2.710   2.065   1.792
 4996SOL    HW215435   2.570   2.145   1.814
 4997SOL     OW15436   2.750   3.376   1.195
 4997SOL    HW115437   2.727   3.351   1.101
 4997SOL    HW215438   2.811   3.307   1.234
 4998SOL     OW15439   3.213   2.452   1.433
 4998SOL    HW115440   3.241   2.409   1.518
 4998SOL    HW215441   3.238   2.548   1.434
 4999SOL     OW15442   2.665   3.264   0.924
 4999SOL    HW115443   2.755   3.278   0.882
 4999SOL    HW215444   2.594   3.266   0.853
 5000SOL     OW15445   2.784   2.365   0.899
 5000SOL    HW115446   2.759   2.356   0.803
 5000SOL    HW215447   2.832   2.283   0.930
 5001SOL     OW15448   2.401   1.926   0.512
 5001SOL    HW115449   2.320   1.927   0.570
 5001SOL    HW215450   2.404   2.009   0.457
 5002SOL     OW15451   3.296   3.050   0.041
 5002SOL    HW115452   3.328   2.974   0.098
 5002SOL    HW215453   3.204   3.077   0.071
 5003SOL     OW15454   2.797   2.098   0.480
 5003SOL    HW115455   2.749   2.139   0.402
 5003SOL    HW215456   2.896   2.096   0.461
 5004SOL     OW15457   2.938   2.545   1.464
 5004SOL    HW115458   2.858   2.484   1.467
 5004SOL    HW215459   3.019   2.492   1.440
 5005SOL     OW15460   3.089   3.432   0.793
 5005SOL    HW115461   3.110   3.506   0.728
 5005SOL    HW215462   3.157   3.432   0.866
 5006SOL     OW15463   2.321   3.014   0.741
 5006SOL    HW115464   2.250   2.987   0.806
 5006SOL    HW215465   2.295   2.986   0.648
 5007SOL     OW15466   3.133   3.659   0.591
 5007SOL    HW115467   3.177   3.723   0.527
 5007SOL    HW215468   3.083   3.711   0.661
 5008SOL     OW15469   2.894   2.411   0.016
 5008SOL    HW115470   2.853   2.493  -0.023
 5008SOL    HW215471   2.958   2.437   0.089
 5009SOL     OW15472   1.940   2.418   1.386
 5009SOL    HW115473   2.032   2.417   1.345
 5009SOL    HW215474   1.934   2.492   1.453
 5010SOL     OW15475   2.423   2.084   1.147
 5010SOL    HW115476   2.461   2.000   1.184
 5010SOL    HW215477   2.335   2.103   1.191
 5011SOL     OW15478   2.728   2.316   0.642
 5011SOL    HW115479   2.696   2.388   0.580
 5011SOL    HW215480   2.752   2.235   0.589
 5012SOL     OW15481   2.879   1.901   0.753
 5012SOL    HW115482   2.807   1.906   0.684
 5012SOL    HW215483   2.855   1.832   0.822
 5013SOL     OW15484   3.291   3.035   0.867
 5013SOL    HW115485   3.236   2.951   0.860
 5013SOL    HW215486   3.317   3.064   0.775
 5014SOL     OW15487   3.328   2.452   0.992
 5014SOL    HW115488   3.298   2.357   0.999
 5014SOL    HW215489   3.401   2.468   1.058
 5015SOL     OW15490   3.719   2.695   0.377
 5015SOL    HW115491   3.761   2.631   0.441
 5015SOL    HW215492   3.681   2.644   0.299
 5016SOL     OW15493   2.350   3.247   0.174
 5016SOL    HW115494   2.263   3.232   0.221
 5016SOL    HW215495   2.333   3.273   0.079
 5017SOL     OW15496   3.526   3.142   0.657
 5017SOL    HW115497   3.625   3.150   0.671
 5017SOL    HW215498   3.481   3.226   0.688
 5018SOL     OW15499   3.252   2.437   0.078
 5018SOL    HW115500   3.198   2.416   0.159
 5018SOL    HW215501   3.343   2.396   0.087
 5019SOL     OW15502   2.389   2.118   0.328
 5019SOL    HW115503   2.416   2.059   0.253
 5019SOL    HW215504   2.389   2.213   0.297
 5020SOL     OW15505   3.616   3.085   1.588
 5020SOL    HW115506   3.707   3.046   1.575
 5020SOL    HW215507   3.624   3.181   1.612
 5021SOL     OW15508   2.926   3.209   1.340
 5021SOL    HW115509   2.846   3.186   1.395
 5021SOL    HW215510   3.009   3.183   1.389
 5022SOL     OW15511   3.454   3.491   1.625
 5022SOL    HW115512   3.481   3.525   1.535
 5022SOL    HW215513   3.533   3.453   1.671
 5023SOL     OW15514   2.973   3.057   1.100
 5023SOL    HW115515   2.933   3.101   1.181
 5023SOL    HW215516   2.932   3.094   1.017
 5024SOL     OW15517   3.500   2.961   1.079
 5024SOL    HW115518   3.505   3.042   1.138
 5024SOL    HW215519   3.414   2.963   1.028
 5025SOL     OW15520   2.777   1.951   1.402
 5025SOL    HW115521   2.802   1.931   1.307
 5025SOL    HW215522   2.849   2.007   1.444
 5026SOL     OW15523   2.842   2.978   1.719
 5026SOL    HW115524   2.743   2.984   1.729
 5026SOL    HW215525   2.865   2.898   1.663
 5027SOL     OW15526   2.567   2.912   0.368
 5027SOL    HW115527   2.553   2.919   0.467
 5027SOL    HW215528   2.651   2.861   0.350
 5028SOL     OW15529   2.272   2.675   1.251
 5028SOL    HW115530   2.358   2.687   1.301
 5028SOL    HW215531   2.230   2.588   1.278
 5029SOL     OW15532   3.136   2.248   1.262
 5029SOL    HW115533   3.157   2.322   1.326
 5029SOL    HW215534   3.047   2.265   1.219
 5030SOL     OW15535   1.926   3.426   1.331
 5030SOL    HW115536   1.880   3.508   1.297
 5030SOL    HW215537   2.024   3.445   1.340
 5031SOL     OW15538   2.229   2.962   0.501
 5031SOL    HW115539   2.222   3.045   0.445
 5031SOL    HW215540   2.233   2.882   0.441
 5032SOL     OW15541   2.428   2.399   0.865
 5032SOL    HW115542   2.440   2.465   0.791
 5032SOL    HW215543   2.474   2.433   0.948
 5033SOL     OW15544   3.114   3.210   0.388
 5033SOL    HW115545   3.164   3.287   0.428
 5033SOL    HW215546   3.019   3.212   0.420
 5034SOL     OW15547   3.134   3.307   1.142
 5034SOL    HW115548   3.181   3.320   1.229
 5034SOL    HW215549   3.068   3.233   1.151
 5035SOL     OW15550   3.444   2.501   0.472
 5035SOL    HW115551   3.413   2.562   0.545
 5035SOL    HW215552   3.494   2.553   0.403
 5036SOL     OW15553   2.216   3.372   1.329
 5036SOL    HW115554   2.195   3.328   1.242
 5036SOL    HW215555   2.313   3.398   1.332
 5037SOL     OW15556   2.264   2.613   1.598
 5037SOL    HW115557   2.332   2.668   1.551
 5037SOL    HW215558   2.304   2.525   1.625
 5038SOL     OW15559   3.449   2.641   1.670
 5038SOL    HW115560   3.357   2.679   1.665
 5038SOL    HW215561   3.509   2.688   1.605
 5039SOL     OW15562   2.875   1.967   1.770
 5039SOL    HW115563   2.881   2.052   1.718
 5039SOL    HW215564   2.907   1.891   1.713
 5040SOL     OW15565   2.366   1.912   1.740
 5040SOL    HW115566   2.324   1.855   1.670
 5040SOL    HW215567   2.300   1.981   1.772
 5041SOL     OW15568   2.435   2.732   1.029
 5041SOL    HW115569   2.479   2.821   1.020
 5041SOL    HW215570   2.372   2.732   1.106
 5042SOL     OW15571   3.222   2.724   1.045
 5042SOL    HW115572   3.147   2.724   0.979
 5042SOL    HW215573   3.259   2.632   1.054
 5043SOL     OW15574   3.071   2.387   0.275
 5043SOL    HW115575   3.084   2.303   0.329
 5043SOL    HW215576   3.042   2.461   0.335
 5044SOL     OW15577   1.899   3.172   1.282
 5044SOL    HW115578   1.952   3.123   1.350
 5044SOL    HW215579   1.921   3.270   1.287
 5045SOL     OW15580   2.594   2.496   1.064
 5045SOL    HW115581   2.653   2.470   0.988
 5045SOL    HW215582   2.566   2.592   1.053
 5046SOL     OW15583   3.590   2.797   1.854
 5046SOL    HW115584   3.544   2.790   1.765
 5046SOL    HW215585   3.528   2.841   1.920
 5047SOL     OW15586   2.169   1.925   0.618
 5047SOL    HW115587   2.158   2.019   0.651
 5047SOL    HW215588   2.164   1.862   0.695
 5048SOL     OW15589   3.484   2.229   0.374
 5048SOL    HW115590   3.486   2.153   0.438
 5048SOL    HW215591   3.436   2.306   0.414
 5049SOL     OW15592   2.885   2.628   0.966
 5049SOL    HW115593   2.900   2.649   1.062
 5049SOL    HW215594   2.855   2.533   0.957
 5050SOL     OW15595   2.842   3.435   1.700
 5050SOL    HW115596   2.822   3.479   1.612
 5050SOL    HW215597   2.881   3.344   1.684
 5051SOL     OW15598   3.721   3.380   1.605
 5051SOL    HW115599   3.735   3.407   1.510
 5051SOL    HW215600   3.804   3.402   1.658
 5052SOL     OW15601   2.212   2.760   1.804
 5052SOL    HW115602   2.288   2.804   1.852
 5052SOL    HW215603   2.247   2.713   1.722
 5053SOL     OW15604   3.402   2.136   0.125
 5053SOL    HW115605   3.341   2.061   0.148
 5053SOL    HW215606   3.424   2.188   0.208
 5054SOL     OW15607   3.165   2.700   0.042
 5054SOL    HW115608   3.199   2.607   0.057
 5054SOL    HW215609   3.183   2.727  -0.053
 5055SOL     OW15610   2.930   3.195   0.849
 5055SOL    HW115611   2.937   3.111   0.794
 5055SOL    HW215612   2.992   3.264   0.813
 5056SOL     OW15613   2.181   2.672   0.949
 5056SOL    HW115614   2.274   2.708   0.954
 5056SOL    HW215615   2.175   2.587   1.001
 5057SOL     OW15616   2.201   2.371   1.006
 5057SOL    HW115617   2.149   2.288   0.989
 5057SOL    HW215618   2.278   2.376   0.942
 5058SOL     OW15619   3.000   2.242   1.678
 5058SOL    HW115620   2.955   2.305   1.742
 5058SOL    HW215621   3.093   2.273   1.661
 5059SOL     OW15622   3.022   2.069   1.477
 5059SOL    HW115623   3.022   2.133   1.554
 5059SOL    HW215624   3.050   2.117   1.394
 5060SOL     OW15625   1.870   3.188   0.200
 5060SOL    HW115626   1.777   3.209   0.169
 5060SOL    HW215627   1.880   3.089   0.213
 5061SOL     OW15628   1.950   3.663   0.927
 5061SOL    HW115629   1.908   3.577   0.900
 5061SOL    HW215630   2.044   3.666   0.893
 5062SOL     OW15631   2.366   3.430   0.910
 5062SOL    HW115632   2.432   3.504   0.919
 5062SOL    HW215633   2.410   3.351   0.868
 5063SOL     OW15634   2.864   2.658   1.238
 5063SOL    HW115635   2.905   2.626   1.324
 5063SOL    HW215636   2.768   2.631   1.235
 5064SOL     OW15637   1.902   2.406   1.114
 5064SOL    HW115638   1.987   2.373   1.073
 5064SOL    HW215639   1.915   2.421   1.212
 5065SOL     OW15640   2.051   2.382   1.722
 5065SOL    HW115641   2.110   2.342   1.652
 5065SOL    HW215642   1.993   2.453   1.681
 5066SOL     OW15643   3.231   2.812   1.660
 5066SOL    HW115644   3.270   2.901   1.680
 5066SOL    HW215645   3.241   2.792   1.563
 5067SOL     OW15646   2.677   2.434   0.325
 5067SOL    HW115647   2.684   2.345   0.279
 5067SOL    HW215648   2.583   2.468   0.317
 5068SOL     OW15649   3.519   2.466   1.206
 5068SOL    HW115650   3.481   2.397   1.268
 5068SOL    HW215651   3.601   2.430   1.162
 5069SOL     OW15652   2.114   3.426   1.744
 5069SOL    HW115653   2.084   3.483   1.820
 5069SOL    HW215654   2.107   3.329   1.770
 5070SOL     OW15655   2.533   2.326   1.269
 5070SOL    HW115656   2.499   2.237   1.239
 5070SOL    HW215657   2.559   2.380   1.189
 5071SOL     OW15658   2.792   3.540   1.465
 5071SOL    HW115659   2.768   3.522   1.370
 5071SOL    HW215660   2.822   3.634   1.475
 5072SOL     OW15661   2.335   2.362   0.191
 5072SOL    HW115662   2.396   2.442   0.195
 5072SOL    HW215663   2.240   2.393   0.198
 5073SOL     OW15664   2.021   2.999   1.466
 5073SOL    HW115665   2.043   2.938   1.542
 5073SOL    HW215666   2.031   2.950   1.380
 5074SOL     OW15667   3.209   2.921   1.234
 5074SOL    HW115668   3.233   2.858   1.160
 5074SOL    HW215669   3.119   2.961   1.216
 5075SOL     OW15670   3.164   2.717   0.309
 5075SOL    HW115671   3.078   2.686   0.351
 5075SOL    HW215672   3.160   2.703   0.210
 5076SOL     OW15673   3.621   3.609   1.154
 5076SOL    HW115674   3.682   3.639   1.081
 5076SOL    HW215675   3.583   3.520   1.132
 5077SOL     OW15676   3.114   3.593   1.128
 5077SOL    HW115677   3.198   3.598   1.074
 5077SOL    HW215678   3.091   3.497   1.146
 5078SOL     OW15679   1.945   3.120   1.022
 5078SOL    HW115680   1.940   3.119   1.122
 5078SOL    HW215681   1.862   3.079   0.984
 5079SOL     OW15682   2.550   3.524   1.716
 5079SOL    HW115683   2.494   3.605   1.725
 5079SOL    HW215684   2.602   3.528   1.630
 5080SOL     OW15685   2.765   1.948   0.133
 5080SOL    HW115686   2.816   1.949   0.047
 5080SOL    HW215687   2.821   1.906   0.204
 5081SOL     OW15688   3.588   1.997   0.523
 5081SOL    HW115689   3.661   1.980   0.456
 5081SOL    HW215690   3.557   1.910   0.561
 5082SOL     OW15691   3.250   3.435   0.477
 5082SOL    HW115692   3.317   3.447   0.403
 5082SOL    HW215693   3.210   3.524   0.500
 5083SOL     OW15694   1.992   3.656   1.851
 5083SOL    HW115695   1.951   3.582   1.904
 5083SOL    HW215696   2.056   3.707   1.909
 5084SOL     OW15697   3.142   2.789   0.672
 5084SOL    HW115698   3.202   2.708   0.674
 5084SOL    HW215699   3.182   2.858   0.612
 5085SOL     OW15700   2.692   3.135   1.422
 5085SOL    HW115701   2.687   3.168   1.517
 5085SOL    HW215702   2.606   3.154   1.376
 5086SOL     OW15703   2.534   3.478   0.154
 5086SOL    HW115704   2.543   3.488   0.055
 5086SOL    HW215705   2.494   3.389   0.175
 5087SOL     OW15706   3.512   3.582   1.394
 5087SOL    HW115707   3.565   3.592   1.310
 5087SOL    HW215708   3.485   3.672   1.428
 5088SOL     OW15709   3.703   2.037   0.963
 5088SOL    HW115710   3.742   1.952   0.927
 5088SOL    HW215711   3.605   2.039   0.944
 5089SOL     OW15712   3.056   3.474   0.031
 5089SOL    HW115713   3.062   3.381   0.068
 5089SOL    HW215714   2.997   3.474  -0.049
 5090SOL     OW15715   2.684   2.864   1.372
 5090SOL    HW115716   2.724   2.863   1.280
 5090SOL    HW215717   2.694   2.956   1.412
 5091SOL     OW15718   2.778   2.772   0.291
 5091SOL    HW115719   2.841   2.810   0.223
 5091SOL    HW215720   2.818   2.689   0.330
 5092SOL     OW15721   3.366   3.469   0.044
 5092SOL    HW115722   3.274   3.506   0.051
 5092SOL    HW215723   3.404   3.489  -0.046
 5093SOL     OW15724   2.234   3.150   1.490
 5093SOL    HW115725   2.221   3.243   1.456
 5093SOL    HW215726   2.150   3.098   1.477
 5094SOL     OW15727   3.476   3.154   1.289
 5094SOL    HW115728   3.536   3.157   1.369
 5094SOL    HW215729   3.401   3.218   1.302
 5095SOL     OW15730   2.901   2.960   0.696
 5095SOL    HW115731   2.831   2.913   0.750
 5095SOL    HW215732   2.960   2.892   0.653
 5096SOL     OW15733   2.876   2.098   0.971
 5096SOL    HW115734   2.868   2.062   0.878
 5096SOL    HW215735   2.874   2.022   1.036
 5097SOL     OW15736   2.452   3.349   0.491
 5097SOL    HW115737   2.494   3.291   0.421
 5097SOL    HW215738   2.408   3.428   0.447
 5098SOL     OW15739   3.571   2.247   1.381
 5098SOL    HW115740   3.644   2.316   1.385
 5098SOL    HW215741   3.599   2.172   1.322
 5099SOL     OW15742   2.117   3.210   0.290
 5099SOL    HW115743   2.021   3.211   0.263
 5099SOL    HW215744   2.129   3.263   0.374
 5100SOL     OW15745   1.967   2.875   1.726
 5100SOL    HW115746   1.890   2.842   1.780
 5100SOL    HW215747   2.052   2.845   1.768
 5101SOL     OW15748   2.534   2.065   1.489
 5101SOL    HW115749   2.624   2.049   1.449
 5101SOL    HW215750   2.542   2.070   1.588
 5102SOL     OW15751   1.937   2.207   0.033
 5102SOL    HW115752   1.845   2.179   0.004
 5102SOL    HW215753   1.968   2.284  -0.023
 5103SOL     OW15754   3.302   2.718   1.398
 5103SOL    HW115755   3.245   2.770   1.335
 5103SOL    HW215756   3.398   2.730   1.374
 5104SOL     OW15757   3.045   3.197   0.119
 5104SOL    HW115758   2.946   3.186   0.121
 5104SOL    HW215759   3.079   3.212   0.212
 5105SOL     OW15760   2.475   2.704   1.431
 5105SOL    HW115761   2.531   2.785   1.414
 5105SOL    HW215762   2.534   2.624   1.434
 5106SOL     OW15763   3.355   3.629   0.959
 5106SOL    HW115764   3.388   3.693   0.890
 5106SOL    HW215765   3.421   3.623   1.034
 5107SOL     OW15766   2.578   2.427   1.708
 5107SOL    HW115767   2.597   2.492   1.782
 5107SOL    HW215768   2.638   2.347   1.717
 5108SOL     OW15769   3.312   3.082   1.633
 5108SOL    HW115770   3.303   3.072   1.732
 5108SOL    HW215771   3.408   3.075   1.607
 5109SOL     OW15772   2.252   3.603   1.560
 5109SOL    HW115773   2.161   3.644   1.558
 5109SOL    HW215774   2.245   3.509   1.592
 5110SOL     OW15775   3.536   2.745   1.254
 5110SOL    HW115776   3.509   2.656   1.217
 5110SOL    HW215777   3.537   2.813   1.181
 5111SOL     OW15778   3.087   2.187   0.449
 5111SOL    HW115779   3.152   2.113   0.438
 5111SOL    HW215780   3.107   2.237   0.533
 5112SOL     OW15781   2.456   2.607   0.652
 5112SOL    HW115782   2.506   2.692   0.633
 5112SOL    HW215783   2.368   2.609   0.604
 5113SOL     OW15784   3.639   2.204   1.642
 5113SOL    HW115785   3.622   2.235   1.548
 5113SOL    HW215786   3.555   2.167   1.680
 5114SOL     OW15787   3.592   2.796   1.517
 5114SOL    HW115788   3.630   2.887   1.532
 5114SOL    HW215789   3.584   2.779   1.418
 5115SOL     OW15790   2.721   3.236   0.016
 5115SOL    HW115791   2.675   3.251   0.104
 5115SOL    HW215792   2.765   3.321  -0.014
 5116SOL     OW15793   2.523   3.652   0.953
 5116SOL    HW115794   2.477   3.740   0.940
 5116SOL    HW215795   2.622   3.664   0.946
 5117SOL     OW15796   2.721   2.818   0.861
 5117SOL    HW115797   2.775   2.749   0.909
 5117SOL    HW215798   2.689   2.887   0.927
 5118SOL     OW15799   2.945   2.846   0.087
 5118SOL    HW115800   2.922   2.899   0.005
 5118SOL    HW215801   3.026   2.790   0.068
 5119SOL     OW15802   3.723   3.431   0.851
 5119SOL    HW115803   3.652   3.419   0.781
 5119SOL    HW215804   3.724   3.352   0.911
 5120SOL     OW15805   2.083   3.176   1.844
 5120SOL    HW115806   2.018   3.103   1.823
 5120SOL    HW215807   2.087   3.190   1.942
 5121SOL     OW15808   1.941   3.102   0.653
 5121SOL    HW115809   1.940   3.055   0.741
 5121SOL    HW215810   2.023   3.074   0.602
 5122SOL     OW15811   2.534   3.253   1.624
 5122SOL    HW115812   2.456   3.203   1.662
 5122SOL    HW215813   2.531   3.348   1.655
 5123SOL     OW15814   3.686   2.054   1.227
 5123SOL    HW115815   3.682   1.964   1.271
 5123SOL    HW215816   3.689   2.043   1.128
 5124SOL     OW15817   2.290   2.286   0.520
 5124SOL    HW115818   2.320   2.214   0.458
 5124SOL    HW215819   2.251   2.246   0.603
 5125SOL     OW15820   3.567   3.349   1.104
 5125SOL    HW115821   3.474   3.324   1.077
 5125SOL    HW215822   3.593   3.299   1.186
 5126SOL     OW15823   2.179   2.409   1.280
 5126SOL    HW115824   2.217   2.350   1.352
 5126SOL    HW215825   2.219   2.383   1.192
 5127SOL     OW15826   2.674   3.448   0.687
 5127SOL    HW115827   2.706   3.458   0.593
 5127SOL    HW215828   2.595   3.386   0.689
 5128SOL     OW15829   3.286   2.076   1.112
 5128SOL    HW115830   3.338   2.011   1.167
 5128SOL    HW215831   3.237   2.139   1.173
 5129SOL     OW15832   2.863   1.896   1.154
 5129SOL    HW115833   2.800   1.824   1.123
 5129SOL    HW215834   2.956   1.860   1.154
 5130SOL     OW15835   2.632   3.192   0.301
 5130SOL    HW115836   2.586   3.105   0.318
 5130SOL    HW215837   2.723   3.189   0.342
 5131SOL     OW15838   2.480   3.429   1.284
 5131SOL    HW115839   2.475   3.511   1.341
 5131SOL    HW215840   2.569   3.426   1.239
 5132SOL     OW15841   3.214   1.914   0.168
 5132SOL    HW115842   3.249   1.873   0.084
 5132SOL    HW215843   3.124   1.876   0.188
 5133SOL     OW15844   3.162   2.315   0.691
 5133SOL    HW115845   3.103   2.395   0.695
 5133SOL    HW215846   3.177   2.280   0.784
 5134SOL     OW15847   3.455   2.083   0.882
 5134SOL    HW115848   3.371   2.082   0.936
 5134SOL    HW215849   3.457   2.166   0.826
 5135SOL     OW15850   1.901   2.939   0.300
 5135SOL    HW115851   2.000   2.928   0.291
 5135SOL    HW215852   1.861   2.853   0.332
 5136SOL     OW15853   2.737   3.508   0.337
 5136SOL    HW115854   2.660   3.473   0.283
 5136SOL    HW215855   2.705   3.579   0.399
 5137SOL     OW15856   2.092   2.490   1.975
 5137SOL    HW115857   1.999   2.488   2.012
 5137SOL    HW215858   2.093   2.451   1.883
 5138SOL     OW15859   1.881   2.230   2.509
 5138SOL    HW115860   1.799   2.273   2.548
 5138SOL    HW215861   1.853   2.157   2.446
 5139SOL     OW15862   2.431   3.137   3.027
 5139SOL    HW115863   2.338   3.130   2.990
 5139SOL    HW215864   2.442   3.226   3.071
 5140SOL     OW15865   3.417   3.373   2.565
 5140SOL    HW115866   3.360   3.357   2.646
 5140SOL    HW215867   3.358   3.383   2.485
 5141SOL     OW15868   2.997   2.565   2.579
 5141SOL    HW115869   3.054   2.643   2.554
 5141SOL    HW215870   2.937   2.591   2.655
 5142SOL     OW15871   3.617   2.469   2.093
 5142SOL    HW115872   3.605   2.456   1.994
 5142SOL    HW215873   3.587   2.388   2.142
 5143SOL     OW15874   2.630   3.006   2.885
 5143SOL    HW115875   2.552   3.023   2.945
 5143SOL    HW215876   2.664   3.093   2.849
 5144SOL     OW15877   2.712   2.660   3.685
 5144SOL    HW115878   2.708   2.736   3.750
 5144SOL    HW215879   2.734   2.696   3.594
 5145SOL     OW15880   2.547   2.874   2.527
 5145SOL    HW115881   2.616   2.858   2.597
 5145SOL    HW215882   2.474   2.931   2.565
 5146SOL     OW15883   2.548   3.023   3.665
 5146SOL    HW115884   2.608   3.102   3.679
 5146SOL    HW215885   2.462   3.054   3.624
 5147SOL     OW15886   2.197   3.297   2.923
 5147SOL    HW115887   2.119   3.266   2.870
 5147SOL    HW215888   2.255   3.355   2.866
 5148SOL     OW15889   3.322   3.367   3.201
 5148SOL    HW115890   3.346   3.461   3.227
 5148SOL    HW215891   3.306   3.313   3.283
 5149SOL     OW15892   2.300   2.254   3.361
 5149SOL    HW115893   2.382   2.198   3.370
 5149SOL    HW215894   2.219   2.196   3.365
 5150SOL     OW15895   3.465   2.309   2.599
 5150SOL    HW115896   3.391   2.355   2.549
 5150SOL    HW215897   3.516   2.377   2.652
 5151SOL     OW15898   2.093   3.575   2.345
 5151SOL    HW115899   2.127   3.652   2.399
 5151SOL    HW215900   2.137   3.575   2.255
 5152SOL     OW15901   2.989   3.203   3.552
 5152SOL    HW115902   3.036   3.203   3.640
 5152SOL    HW215903   2.941   3.116   3.541
 5153SOL     OW15904   2.092   3.296   2.400
 5153SOL    HW115905   2.066   3.392   2.400
 5153SOL    HW215906   2.021   3.242   2.445
 5154SOL     OW15907   2.102   2.953   2.748
 5154SOL    HW115908   2.116   2.869   2.800
 5154SOL    HW215909   2.047   3.017   2.803
 5155SOL     OW15910   2.482   3.648   3.301
 5155SOL    HW115911   2.390   3.631   3.336
 5155SOL    HW215912   2.510   3.740   3.327
 5156SOL     OW15913   2.468   2.826   1.985
 5156SOL    HW115914   2.475   2.910   1.931
 5156SOL    HW215915   2.514   2.839   2.073
 5157SOL     OW15916   3.456   1.976   3.342
 5157SOL    HW115917   3.438   2.043   3.270
 5157SOL    HW215918   3.453   2.022   3.431
 5158SOL     OW15919   1.984   2.505   2.425
 5158SOL    HW115920   1.939   2.417   2.442
 5158SOL    HW215921   1.983   2.559   2.509
 5159SOL     OW15922   3.704   3.629   2.221
 5159SOL    HW115923   3.758   3.600   2.301
 5159SOL    HW215924   3.734   3.719   2.192
 5160SOL     OW15925   1.889   3.458   1.979
 5160SOL    HW115926   1.870   3.362   2.000
 5160SOL    HW215927   1.856   3.516   2.054
 5161SOL     OW15928   3.551   2.784   2.474
 5161SOL    HW115929   3.646   2.755   2.482
 5161SOL    HW215930   3.543   2.849   2.399
 5162SOL     OW15931   3.503   2.970   2.294
 5162SOL    HW115932   3.589   2.972   2.242
 5162SOL    HW215933   3.517   3.017   2.382
 5163SOL     OW15934   1.975   2.599   3.459
 5163SOL    HW115935   2.063   2.586   3.504
 5163SOL    HW215936   1.962   2.696   3.437
 5164SOL     OW15937   2.475   3.227   2.588
 5164SOL    HW115938   2.426   3.140   2.597
 5164SOL    HW215939   2.452   3.270   2.501
 5165SOL     OW15940   3.155   3.090   3.285
 5165SOL    HW115941   3.192   3.017   3.227
 5165SOL    HW215942   3.207   3.095   3.370
 5166SOL     OW15943   2.671   1.866   2.364
 5166SOL    HW115944   2.711   1.957   2.355
 5166SOL    HW215945   2.571   1.874   2.370
 5167SOL     OW15946   2.059   2.838   3.126
 5167SOL    HW115947   2.148   2.793   3.112
 5167SOL    HW215948   1.986   2.773   3.107
 5168SOL     OW15949   3.387   2.861   2.052
 5168SOL    HW115950   3.324   2.785   2.065
 5168SOL    HW215951   3.435   2.879   2.138
 5169SOL     OW15952   3.049   3.654   3.478
 5169SOL    HW115953   3.073   3.714   3.402
 5169SOL    HW215954   3.056   3.559   3.448
 5170SOL     OW15955   3.328   3.279   2.815
 5170SOL    HW115956   3.269   3.285   2.895
 5170SOL    HW215957   3.313   3.191   2.769
 5171SOL     OW15958   3.529   3.576   2.434
 5171SOL    HW115959   3.488   3.553   2.346
 5171SOL    HW215960   3.511   3.502   2.499
 5172SOL     OW15961   2.460   2.591   2.132
 5172SOL    HW115962   2.484   2.660   2.064
 5172SOL    HW215963   2.382   2.624   2.186
 5173SOL     OW15964   3.143   2.207   2.806
 5173SOL    HW115965   3.057   2.157   2.793
 5173SOL    HW215966   3.205   2.153   2.862
 5174SOL     OW15967   3.438   3.524   2.169
 5174SOL    HW115968   3.527   3.570   2.172
 5174SOL    HW215969   3.417   3.500   2.074
 5175SOL     OW15970   2.669   2.467   3.327
 5175SOL    HW115971   2.622   2.464   3.416
 5175SOL    HW215972   2.618   2.412   3.261
 5176SOL     OW15973   3.256   2.331   3.536
 5176SOL    HW115974   3.236   2.374   3.624
 5176SOL    HW215975   3.334   2.269   3.545
 5177SOL     OW15976   2.835   2.752   3.434
 5177SOL    HW115977   2.881   2.668   3.405
 5177SOL    HW215978   2.779   2.786   3.359
 5178SOL     OW15979   2.853   2.272   3.104
 5178SOL    HW115980   2.776   2.306   3.158
 5178SOL    HW215981   2.819   2.221   3.025
 5179SOL     OW15982   2.903   2.563   2.291
 5179SOL    HW115983   2.929   2.559   2.387
 5179SOL    HW215984   2.818   2.512   2.277
 5180SOL     OW15985   1.938   2.673   2.651
 5180SOL    HW115986   2.037   2.661   2.660
 5180SOL    HW215987   1.914   2.768   2.672
 5181SOL     OW15988   1.992   3.683   3.433
 5181SOL    HW115989   1.982   3.668   3.532
 5181SOL    HW215990   1.906   3.719   3.397
 5182SOL     OW15991   2.727   2.210   2.057
 5182SOL    HW115992   2.786   2.273   2.008
 5182SOL    HW215993   2.746   2.116   2.028
 5183SOL     OW15994   3.581   2.447   3.693
 5183SOL    HW115995   3.555   2.536   3.657
 5183SOL    HW215996   3.579   2.379   3.620
 5184SOL     OW15997   3.224   3.006   2.407
 5184SOL    HW115998   3.307   2.977   2.359
 5184SOL    HW215999   3.175   3.073   2.351
 5185SOL     OW16000   2.412   2.058   2.747
 5185SOL    HW116001   2.407   2.053   2.847
 5185SOL    HW216002   2.414   2.154   2.718
 5186SOL     OW16003   2.870   3.318   2.339
 5186SOL    HW116004   2.824   3.390   2.287
 5186SOL    HW216005   2.866   3.338   2.437
 5187SOL     OW16006   2.213   3.663   2.715
 5187SOL    HW116007   2.263   3.577   2.721
 5187SOL    HW216008   2.278   3.740   2.712
 5188SOL     OW16009   3.657   2.928   2.735
 5188SOL    HW116010   3.595   2.913   2.659
 5188SOL    HW216011   3.605   2.939   2.820
 5189SOL     OW16012   3.089   3.412   3.368
 5189SOL    HW116013   3.095   3.335   3.432
 5189SOL    HW216014   3.037   3.386   3.288
 5190SOL     OW16015   2.183   2.805   2.104
 5190SOL    HW116016   2.265   2.844   2.062
 5190SOL    HW216017   2.156   2.723   2.055
 5191SOL     OW16018   3.320   2.597   2.590
 5191SOL    HW116019   3.315   2.532   2.665
 5191SOL    HW216020   3.400   2.656   2.603
 5192SOL     OW16021   2.323   3.128   3.589
 5192SOL    HW116022   2.273   3.129   3.503
 5192SOL    HW216023   2.260   3.110   3.665
 5193SOL     OW16024   2.973   3.638   2.099
 5193SOL    HW116025   2.913   3.576   2.149
 5193SOL    HW216026   3.004   3.594   2.014
 5194SOL     OW16027   3.494   3.239   1.943
 5194SOL    HW116028   3.462   3.333   1.933
 5194SOL    HW216029   3.418   3.176   1.931
 5195SOL     OW16030   2.326   3.605   2.185
 5195SOL    HW116031   2.359   3.644   2.271
 5195SOL    HW216032   2.402   3.598   2.120
 5196SOL     OW16033   3.262   1.969   2.288
 5196SOL    HW116034   3.238   1.932   2.198
 5196SOL    HW216035   3.361   1.985   2.292
 5197SOL     OW16036   2.111   3.647   3.103
 5197SOL    HW116037   2.168   3.582   3.153
 5197SOL    HW216038   2.095   3.614   3.010
 5198SOL     OW16039   2.802   3.560   2.766
 5198SOL    HW116040   2.882   3.503   2.787
 5198SOL    HW216041   2.753   3.520   2.689
 5199SOL     OW16042   2.244   2.562   2.342
 5199SOL    HW116043   2.289   2.472   2.339
 5199SOL    HW216044   2.150   2.551   2.375
 5200SOL     OW16045   3.409   2.084   3.591
 5200SOL    HW116046   3.404   2.121   3.683
 5200SOL    HW216047   3.337   2.015   3.579
 5201SOL     OW16048   2.476   1.984   1.979
 5201SOL    HW116049   2.574   1.962   1.986
 5201SOL    HW216050   2.445   1.967   1.886
 5202SOL     OW16051   2.643   2.126   3.611
 5202SOL    HW116052   2.710   2.065   3.654
 5202SOL    HW216053   2.570   2.145   3.676
 5203SOL     OW16054   2.750   3.376   3.057
 5203SOL    HW116055   2.727   3.351   2.963
 5203SOL    HW216056   2.811   3.307   3.096
 5204SOL     OW16057   3.213   2.452   3.295
 5204SOL    HW116058   3.241   2.409   3.380
 5204SOL    HW216059   3.238   2.548   3.296
 5205SOL     OW16060   2.665   3.264   2.786
 5205SOL    HW116061   2.755   3.278   2.744
 5205SOL    HW216062   2.594   3.266   2.715
 5206SOL     OW16063   2.784   2.365   2.761
 5206SOL    HW116064   2.759   2.356   2.665
 5206SOL    HW216065   2.832   2.283   2.792
 5207SOL     OW16066   2.401   1.926   2.374
 5207SOL    HW116067   2.320   1.927   2.432
 5207SOL    HW216068   2.404   2.009   2.319
 5208SOL     OW16069   3.296   3.050   1.903
 5208SOL    HW116070   3.328   2.974   1.960
 5208SOL    HW216071   3.204   3.077   1.933
 5209SOL     OW16072   2.797   2.098   2.342
 5209SOL    HW116073   2.749   2.139   2.264
 5209SOL    HW216074   2.896   2.096   2.323
 5210SOL     OW16075   2.938   2.545   3.326
 5210SOL    HW116076   2.858   2.484   3.329
 5210SOL    HW216077   3.019   2.492   3.302
 5211SOL     OW16078   3.089   3.432   2.655
 5211SOL    HW116079   3.110   3.506   2.590
 5211SOL    HW216080   3.157   3.432   2.728
 5212SOL     OW16081   2.321   3.014   2.603
 5212SOL    HW116082   2.250   2.987   2.668
 5212SOL    HW216083   2.295   2.986   2.510
 5213SOL     OW16084   3.133   3.659   2.453
 5213SOL    HW116085   3.177   3.723   2.389
 5213SOL    HW216086   3.083   3.711   2.523
 5214SOL     OW16087   2.894   2.411   1.878
 5214SOL    HW116088   2.853   2.493   1.839
 5214SOL    HW216089   2.958   2.437   1.951
 5215SOL     OW16090   1.940   2.418   3.248
 5215SOL    HW116091   2.032   2.417   3.207
 5215SOL    HW216092   1.934   2.492   3.315
 5216SOL     OW16093   2.423   2.084   3.009
 5216SOL    HW116094   2.461   2.000   3.046
 5216SOL    HW216095   2.335   2.103   3.053
 5217SOL     OW16096   2.728   2.316   2.504
 5217SOL    HW116097   2.696   2.388   2.442
 5217SOL    HW216098   2.752   2.235   2.451
 5218SOL     OW16099   2.879   1.901   2.615
 5218SOL    HW116100   2.807   1.906   2.546
 5218SOL    HW216101   2.855   1.832   2.684
 5219SOL     OW16102   3.291   3.035   2.729
 5219SOL    HW116103   3.236   2.951   2.722
 5219SOL    HW216104   3.317   3.064   2.637
 5220SOL     OW16105   3.328   2.452   2.854
 5220SOL    HW116106   3.298   2.357   2.861
 5220SOL    HW216107   3.401   2.468   2.920
 5221SOL     OW16108   3.719   2.695   2.239
 5221SOL    HW116109   3.761   2.631   2.303
 5221SOL    HW216110   3.681   2.644   2.161
 5222SOL     OW16111   2.350   3.247   2.036
 5222SOL    HW116112   2.263   3.232   2.083
 5222SOL    HW216113   2.333   3.273   1.941
 5223SOL     OW16114   3.526   3.142   2.519
 5223SOL    HW116115   3.625   3.150   2.533
 5223SOL    HW216116   3.481   3.226   2.550
 5224SOL     OW16117   3.252   2.437   1.940
 5224SOL    HW116118   3.198   2.416   2.021
 5224SOL    HW216119   3.343   2.396   1.949
 5225SOL     OW16120   2.389   2.118   2.190
 5225SOL    HW116121   2.416   2.059   2.115
 5225SOL    HW216122   2.389   2.213   2.159
 5226SOL     OW16123   3.616   3.085   3.450
 5226SOL    HW116124   3.707   3.046   3.437
 5226SOL    HW216125   3.624   3.181   3.474
 5227SOL     OW16126   2.926   3.209   3.202
 5227SOL    HW116127   2.846   3.186   3.257
 5227SOL    HW216128   3.009   3.183   3.251
 5228SOL     OW16129   3.454   3.491   3.487
 5228SOL    HW116130   3.481   3.525   3.397
 5228SOL    HW216131   3.533   3.453   3.533
 5229SOL     OW16132   2.973   3.057   2.962
 5229SOL    HW116133   2.933   3.101   3.043
 5229SOL    HW216134   2.932   3.094   2.879
 5230SOL     OW16135   3.500   2.961   2.941
 5230SOL    HW116136   3.505   3.042   3.000
 5230SOL    HW216137   3.414   2.963   2.890
 5231SOL     OW16138   2.777   1.951   3.264
 5231SOL    HW116139   2.802   1.931   3.169
 5231SOL    HW216140   2.849   2.007   3.306
 5232SOL     OW16141   2.842   2.978   3.581
 5232SOL    HW116142   2.743   2.984   3.591
 5232SOL    HW216143   2.865   2.898   3.525
 5233SOL     OW16144   2.567   2.912   2.230
 5233SOL    HW116145   2.553   2.919   2.329
 5233SOL    HW216146   2.651   2.861   2.212
 5234SOL     OW16147   2.272   2.675   3.113
 5234SOL    HW116148   2.358   2.687   3.163
 5234SOL    HW216149   2.230   2.588   3.140
 5235SOL     OW16150   3.136   2.248   3.124
 5235SOL    HW116151   3.157   2.322   3.188
 5235SOL    HW216152   3.047   2.265   3.081
 5236SOL     OW16153   1.926   3.426   3.193
 5236SOL    HW116154   1.880   3.508   3.159
 5236SOL    HW216155   2.024   3.445   3.202
 5237SOL     OW16156   2.229   2.962   2.363
 5237SOL    HW116157   2.222   3.045   2.307
 5237SOL    HW216158   2.233   2.882   2.303
 5238SOL     OW16159   2.428   2.399   2.727
 5238SOL    HW116160   2.440   2.465   2.653
 5238SOL    HW216161   2.474   2.433   2.810
 5239SOL     OW16162   3.114   3.210   2.250
 5239SOL    HW116163   3.164   3.287   2.290
 5239SOL    HW216164   3.019   3.212   2.282
 5240SOL     OW16165   3.134   3.307   3.004
 5240SOL    HW116166   3.181   3.320   3.091
 5240SOL    HW216167   3.068   3.233   3.013
 5241SOL     OW16168   3.444   2.501   2.334
 5241SOL    HW116169   3.413   2.562   2.407
 5241SOL    HW216170   3.494   2.553   2.265
 5242SOL     OW16171   2.216   3.372   3.191
 5242SOL    HW116172   2.195   3.328   3.104
 5242SOL    HW216173   2.313   3.398   3.194
 5243SOL     OW16174   2.264   2.613   3.460
 5243SOL    HW116175   2.332   2.668   3.413
 5243SOL    HW216176   2.304   2.525   3.487
 5244SOL     OW16177   3.449   2.641   3.532
 5244SOL    HW116178   3.357   2.679   3.527
 5244SOL    HW216179   3.509   2.688   3.467
 5245SOL     OW16180   2.875   1.967   3.632
 5245SOL    HW116181   2.881   2.052   3.580
 5245SOL    HW216182   2.907   1.891   3.575
 5246SOL     OW16183   2.366   1.912   3.602
 5246SOL    HW116184   2.324   1.855   3.532
 5246SOL    HW216185   2.300   1.981   3.634
 5247SOL     OW16186   2.435   2.732   2.891
 5247SOL    HW116187   2.479   2.821   2.882
 5247SOL    HW216188   2.372   2.732   2.968
 5248SOL     OW16189   3.222   2.724   2.907
 5248SOL    HW116190   3.147   2.724   2.841
 5248SOL    HW216191   3.259   2.632   2.916
 5249SOL     OW16192   3.071   2.387   2.137
 5249SOL    HW116193   3.084   2.303   2.191
 5249SOL    HW216194   3.042   2.461   2.197
 5250SOL     OW16195   1.899   3.172   3.144
 5250SOL    HW116196   1.952   3.123   3.212
 5250SOL    HW216197   1.921   3.270   3.149
 5251SOL     OW16198   2.594   2.496   2.926
 5251SOL    HW116199   2.653   2.470   2.850
 5251SOL    HW216200   2.566   2.592   2.915
 5252SOL     OW16201   3.590   2.797   3.716
 5252SOL    HW116202   3.544   2.790   3.627
 5252SOL    HW216203   3.528   2.841   3.782
 5253SOL     OW16204   2.169   1.925   2.480
 5253SOL    HW116205   2.158   2.019   2.513
 5253SOL    HW216206   2.164   1.862   2.557
 5254SOL     OW16207   3.484   2.229   2.236
 5254SOL    HW116208   3.486   2.153   2.300
 5254SOL    HW216209   3.436   2.306   2.276
 5255SOL     OW16210   2.885   2.628   2.828
 5255SOL    HW116211   2.900   2.649   2.924
 5255SOL    HW216212   2.855   2.533   2.819
 5256SOL     OW16213   2.842   3.435   3.562
 5256SOL    HW116214   2.822   3.479   3.474
 5256SOL    HW216215   2.881   3.344   3.546
 5257SOL     OW16216   3.721   3.380   3.467
 5257SOL    HW116217   3.735   3.407   3.372
 5257SOL    HW216218   3.804   3.402   3.520
 5258SOL     OW16219   2.212   2.760   3.666
 5258SOL    HW116220   2.288   2.804   3.714
 5258SOL    HW216221   2.247   2.713   3.584
 5259SOL     OW16222   3.402   2.136   1.987
 5259SOL    HW116223   3.341   2.061   2.010
 5259SOL    HW216224   3.424   2.188   2.070
 5260SOL     OW16225   3.165   2.700   1.904
 5260SOL    HW116226   3.199   2.607   1.919
 5260SOL    HW216227   3.183   2.727   1.809
 5261SOL     OW16228   2.930   3.195   2.711
 5261SOL    HW116229   2.937   3.111   2.656
 5261SOL    HW216230   2.992   3.264   2.675
 5262SOL     OW16231   2.181   2.672   2.811
 5262SOL    HW116232   2.274   2.708   2.816
 5262SOL    HW216233   2.175   2.587   2.863
 5263SOL     OW16234   2.201   2.371   2.868
 5263SOL    HW116235   2.149   2.288   2.851
 5263SOL    HW216236   2.278   2.376   2.804
 5264SOL     OW16237   3.000   2.242   3.540
 5264SOL    HW116238   2.955   2.305   3.604
 5264SOL    HW216239   3.093   2.273   3.523
 5265SOL     OW16240   3.022   2.069   3.339
 5265SOL    HW116241   3.022   2.133   3.416
 5265SOL    HW216242   3.050   2.117   3.256
 5266SOL     OW16243   1.870   3.188   2.062
 5266SOL    HW116244   1.777   3.209   2.031
 5266SOL    HW216245   1.880   3.089   2.075
 5267SOL     OW16246   1.950   3.663   2.789
 5267SOL    HW116247   1.908   3.577   2.762
 5267SOL    HW216248   2.044   3.666   2.755
 5268SOL     OW16249   2.366   3.430   2.772
 5268SOL    HW116250   2.432   3.504   2.781
 5268SOL    HW216251   2.410   3.351   2.730
 5269SOL     OW16252   2.864   2.658   3.100
 5269SOL    HW116253   2.905   2.626   3.186
 5269SOL    HW216254   2.768   2.631   3.097
 5270SOL     OW16255   1.902   2.406   2.976
 5270SOL    HW116256   1.987   2.373   2.935
 5270SOL    HW216257   1.915   2.421   3.074
 5271SOL     OW16258   2.051   2.382   3.584
 5271SOL    HW116259   2.110   2.342   3.514
 5271SOL    HW216260   1.993   2.453   3.543
 5272SOL     OW16261   3.231   2.812   3.522
 5272SOL    HW116262   3.270   2.901   3.542
 5272SOL    HW216263   3.241   2.792   3.425
 5273SOL     OW16264   2.677   2.434   2.187
 5273SOL    HW116265   2.684   2.345   2.141
 5273SOL    HW216266   2.583   2.468   2.179
 5274SOL     OW16267   3.519   2.466   3.068
 5274SOL    HW116268   3.481   2.397   3.130
 5274SOL    HW216269   3.601   2.430   3.024
 5275SOL     OW16270   2.114   3.426   3.606
 5275SOL    HW116271   2.084   3.483   3.682
 5275SOL    HW216272   2.107   3.329   3.632
 5276SOL     OW16273   2.533   2.326   3.131
 5276SOL    HW116274   2.499   2.237   3.101
 5276SOL    HW216275   2.559   2.380   3.051
 5277SOL     OW16276   2.792   3.540   3.327
 5277SOL    HW116277   2.768   3.522   3.232
 5277SOL    HW216278   2.822   3.634   3.337
 5278SOL     OW16279   2.335   2.362   2.053
 5278SOL    HW116280   2.396   2.442   2.057
 5278SOL    HW216281   2.240   2.393   2.060
 5279SOL     OW16282   2.021   2.999   3.328
 5279SOL    HW116283   2.043   2.938   3.404
 5279SOL    HW216284   2.031   2.950   3.242
 5280SOL     OW16285   3.209   2.921   3.096
 5280SOL    HW116286   3.233   2.858   3.022
 5280SOL    HW216287   3.119   2.961   3.078
 5281SOL     OW16288   3.164   2.717   2.171
 5281SOL    HW116289   3.078   2.686   2.213
 5281SOL    HW216290   3.160   2.703   2.072
 5282SOL     OW16291   3.621   3.609   3.016
 5282SOL    HW116292   3.682   3.639   2.943
 5282SOL    HW216293   3.583   3.520   2.994
 5283SOL     OW16294   3.114   3.593   2.990
 5283SOL    HW116295   3.198   3.598   2.936
 5283SOL    HW216296   3.091   3.497   3.008
 5284SOL     OW16297   1.945   3.120   2.884
 5284SOL    HW116298   1.940   3.119   2.984
 5284SOL    HW216299   1.862   3.079   2.846
 5285SOL     OW16300   2.550   3.524   3.578
 5285SOL    HW116301   2.494   3.605   3.587
 5285SOL    HW216302   2.602   3.528   3.492
 5286SOL     OW16303   3.588   1.997   2.385
 5286SOL    HW116304   3.661   1.980   2.318
 5286SOL    HW216305   3.557   1.910   2.423
 5287SOL     OW16306   3.250   3.435   2.339
 5287SOL    HW116307   3.317   3.447   2.265
 5287SOL    HW216308   3.210   3.524   2.362
 5288SOL     OW16309   1.992   3.656   3.713
 5288SOL    HW116310   1.951   3.582   3.766
 5288SOL    HW216311   2.056   3.707   3.771
 5289SOL     OW16312   3.142   2.789   2.534
 5289SOL    HW116313   3.202   2.708   2.536
 5289SOL    HW216314   3.182   2.858   2.474
 5290SOL     OW16315   2.692   3.135   3.284
 5290SOL    HW116316   2.687   3.168   3.379
 5290SOL    HW216317   2.606   3.154   3.238
 5291SOL     OW16318   2.534   3.478   2.016
 5291SOL    HW116319   2.543   3.488   1.917
 5291SOL    HW216320   2.494   3.389   2.037
 5292SOL     OW16321   3.512   3.582   3.256
 5292SOL    HW116322   3.565   3.592   3.172
 5292SOL    HW216323   3.485   3.672   3.290
 5293SOL     OW16324   3.703   2.037   2.825
 5293SOL    HW116325   3.742   1.952   2.789
 5293SOL    HW216326   3.605   2.039   2.806
 5294SOL     OW16327   3.056   3.474   1.893
 5294SOL    HW116328   3.062   3.381   1.930
 5294SOL    HW216329   2.997   3.474   1.813
 5295SOL     OW16330   2.684   2.864   3.234
 5295SOL    HW116331   2.724   2.863   3.142
 5295SOL    HW216332   2.694   2.956   3.274
 5296SOL     OW16333   2.778   2.772   2.153
 5296SOL    HW116334   2.841   2.810   2.085
 5296SOL    HW216335   2.818   2.689   2.192
 5297SOL     OW16336   3.366   3.469   1.906
 5297SOL    HW116337   3.274   3.506   1.913
 5297SOL    HW216338   3.404   3.489   1.816
 5298SOL     OW16339   2.234   3.150   3.352
 5298SOL    HW116340   2.221   3.243   3.318
 5298SOL    HW216341   2.150   3.098   3.339
 5299SOL     OW16342   3.476   3.154   3.151
 5299SOL    HW116343   3.536   3.157   3.231
 5299SOL    HW216344   3.401   3.218   3.164
 5300SOL     OW16345   2.901   2.960   2.558
 5300SOL    HW116346   2.831   2.913   2.612
 5300SOL    HW216347   2.960   2.892   2.515
 5301SOL     OW16348   2.876   2.098   2.833
 5301SOL    HW116349   2.868   2.062   2.740
 5301SOL    HW216350   2.874   2.022   2.898
 5302SOL     OW16351   2.452   3.349   2.353
 5302SOL    HW116352   2.494   3.291   2.283
 5302SOL    HW216353   2.408   3.428   2.309
 5303SOL     OW16354   3.571   2.247   3.243
 5303SOL    HW116355   3.644   2.316   3.247
 5303SOL    HW216356   3.599   2.172   3.184
 5304SOL     OW16357   2.117   3.210   2.152
 5304SOL    HW116358   2.021   3.211   2.125
 5304SOL    HW216359   2.129   3.263   2.236
 5305SOL     OW16360   1.967   2.875   3.588
 5305SOL    HW116361   1.890   2.842   3.642
 5305SOL    HW216362   2.052   2.845   3.630
 5306SOL     OW16363   2.534   2.065   3.351
 5306SOL    HW116364   2.624   2.049   3.311
 5306SOL    HW216365   2.542   2.070   3.450
 5307SOL     OW16366   1.937   2.207   1.895
 5307SOL    HW116367   1.845   2.179   1.866
 5307SOL    HW216368   1.968   2.284   1.839
 5308SOL     OW16369   3.302   2.718   3.260
 5308SOL    HW116370   3.245   2.770   3.197
 5308SOL    HW216371   3.398   2.730   3.236
 5309SOL     OW16372   3.045   3.197   1.981
 5309SOL    HW116373   2.946   3.186   1.983
 5309SOL    HW216374   3.079   3.212   2.074
 5310SOL     OW16375   2.475   2.704   3.293
 5310SOL    HW116376   2.531   2.785   3.276
 5310SOL    HW216377   2.534   2.624   3.296
 5311SOL     OW16378   3.355   3.629   2.821
 5311SOL    HW116379   3.388   3.693   2.752
 5311SOL    HW216380   3.421   3.623   2.896
 5312SOL     OW16381   2.578   2.427   3.570
 5312SOL    HW116382   2.597   2.492   3.644
 5312SOL    HW216383   2.638   2.347   3.579
 5313SOL     OW16384   3.312   3.082   3.495
 5313SOL    HW116385   3.303   3.072   3.594
 5313SOL    HW216386   3.408   3.075   3.469
 5314SOL     OW16387   2.252   3.603   3.422
 5314SOL    HW116388   2.161   3.644   3.420
 5314SOL    HW216389   2.245   3.509   3.454
 5315SOL     OW16390   3.536   2.745   3.116
 5315SOL    HW116391   3.509   2.656   3.079
 5315SOL    HW216392   3.537   2.813   3.043
 5316SOL     OW16393   3.087   2.187   2.311
 5316SOL    HW116394   3.152   2.113   2.300
 5316SOL    HW216395   3.107   2.237   2.395
 5317SOL     OW16396   2.456   2.607   2.514
 5317SOL    HW116397   2.506   2.692   2.495
 5317SOL    HW216398   2.368   2.609   2.466
 5318SOL     OW16399   3.639   2.204   3.504
 5318SOL    HW116400   3.622   2.235   3.410
 5318SOL    HW216401   3.555   2.167   3.542
 5319SOL     OW16402   3.592   2.796   3.379
 5319SOL    HW116403   3.630   2.887   3.394
 5319SOL    HW216404   3.584   2.779   3.280
 5320SOL     OW16405   2.721   3.236   1.878
 5320SOL    HW116406   2.675   3.251   1.966
 5320SOL    HW216407   2.765   3.321   1.848
 5321SOL     OW16408   2.523   3.652   2.815
 5321SOL    HW116409   2.477   3.740   2.802
 5321SOL    HW216410   2.622   3.664   2.808
 5322SOL     OW16411   2.721   2.818   2.723
 5322SOL    HW116412   2.775   2.749   2.771
 5322SOL    HW216413   2.689   2.887   2.789
 5323SOL     OW16414   2.945   2.846   1.949
 5323SOL    HW116415   2.922   2.899   1.867
 5323SOL    HW216416   3.026   2.790   1.930
 5324SOL     OW16417   3.723   3.431   2.713
 5324SOL    HW116418   3.652   3.419   2.643
 5324SOL    HW216419   3.724   3.352   2.773
 5325SOL     OW16420   2.083   3.176   3.706
 5325SOL    HW116421   2.018   3.103   3.685
 5325SOL    HW216422   2.087   3.190   3.804
 5326SOL     OW16423   1.941   3.102   2.515
 5326SOL    HW116424   1.940   3.055   2.603
 5326SOL    HW216425   2.023   3.074   2.464
 5327SOL     OW16426   2.534   3.253   3.486
 5327SOL    HW116427   2.456   3.203   3.524
 5327SOL    HW216428   2.531   3.348   3.517
 5328SOL     OW16429   3.686   2.054   3.089
 5328SOL    HW116430   3.682   1.964   3.133
 5328SOL    HW216431   3.689   2.043   2.990
 5329SOL     OW16432   2.290   2.286   2.382
 5329SOL    HW116433   2.320   2.214   2.320
 5329SOL    HW216434   2.251   2.246   2.465
 5330SOL     OW16435   3.567   3.349   2.966
 5330SOL    HW116436   3.474   3.324   2.939
 5330SOL    HW216437   3.593   3.299   3.048
 5331SOL     OW16438   2.179   2.409   3.142
 5331SOL    HW116439   2.217   2.350   3.214
 5331SOL    HW216440   2.219   2.383   3.054
 5332SOL     OW16441   2.674   3.448   2.549
 5332SOL    HW116442   2.706   3.458   2.455
 5332SOL    HW216443   2.595   3.386   2.551
 5333SOL     OW16444   3.286   2.076   2.974
 5333SOL    HW116445   3.338   2.011   3.029
 5333SOL    HW216446   3.237   2.139   3.035
 5334SOL     OW16447   2.863   1.896   3.016
 5334SOL    HW116448   2.800   1.824   2.985
 5334SOL    HW216449   2.956   1.860   3.016
 5335SOL     OW16450   2.632   3.192   2.163
 5335SOL    HW116451   2.586   3.105   2.180
 5335SOL    HW216452   2.723   3.189   2.204
 5336SOL     OW16453   2.480   3.429   3.146
 5336SOL    HW116454   2.475   3.511   3.203
 5336SOL    HW216455   2.569   3.426   3.101
 5337SOL     OW16456   3.214   1.914   2.030
 5337SOL    HW116457   3.249   1.873   1.946
 5337SOL    HW216458   3.124   1.876   2.050
 5338SOL     OW16459   3.162   2.315   2.553
 5338SOL    HW116460   3.103   2.395   2.557
 5338SOL    HW216461   3.177   2.280   2.646
 5339SOL     OW16462   3.455   2.083   2.744
 5339SOL    HW116463   3.371   2.082   2.798
 5339SOL    HW216464   3.457   2.166   2.688
 5340SOL     OW16465   1.901   2.939   2.162
 5340SOL    HW116466   2.000   2.928   2.153
 5340SOL    HW216467   1.861   2.853   2.194
 5341SOL     OW16468   2.737   3.508   2.199
 5341SOL    HW116469   2.660   3.473   2.145
 5341SOL    HW216470   2.705   3.579   2.261
 5342SOL     OW16471   2.092   2.490   3.837
 5342SOL    HW116472   1.999   2.488   3.874
 5342SOL    HW216473   2.093   2.451   3.745
 5343SOL     OW16474   1.881   2.230   4.371
 5343SOL    HW116475   1.799   2.273   4.410
 5343SOL    HW216476   1.853   2.157   4.308
 5344SOL     OW16477   2.431   3.137   4.889
 5344SOL    HW116478   2.338   3.130   4.852
 5344SOL    HW216479   2.442   3.226   4.933
 5345SOL     OW16480   3.417   3.373   4.427
 5345SOL    HW116481   3.360   3.357   4.508
 5345SOL    HW216482   3.358   3.383   4.347
 5346SOL     OW16483   2.997   2.565   4.441
 5346SOL    HW116484   3.054   2.643   4.416
 5346SOL    HW216485   2.937   2.591   4.517
 5347SOL     OW16486   3.617   2.469   3.955
 5347SOL    HW116487   3.605   2.456   3.856
 5347SOL    HW216488   3.587   2.388   4.004
 5348SOL     OW16489   2.630   3.006   4.747
 5348SOL    HW116490   2.552   3.023   4.807
 5348SOL    HW216491   2.664   3.093   4.711
 5349SOL     OW16492   2.712   2.660   5.547
 5349SOL    HW116493   2.708   2.736   5.612
 5349SOL    HW216494   2.734   2.696   5.456
 5350SOL     OW16495   2.547   2.874   4.389
 5350SOL    HW116496   2.616   2.858   4.459
 5350SOL    HW216497   2.474   2.931   4.427
 5351SOL     OW16498   2.548   3.023   5.527
 5351SOL    HW116499   2.608   3.102   5.541
 5351SOL    HW216500   2.462   3.054   5.486
 5352SOL     OW16501   2.197   3.297   4.785
 5352SOL    HW116502   2.119   3.266   4.732
 5352SOL    HW216503   2.255   3.355   4.728
 5353SOL     OW16504   3.322   3.367   5.063
 5353SOL    HW116505   3.346   3.461   5.089
 5353SOL    HW216506   3.306   3.313   5.145
 5354SOL     OW16507   2.300   2.254   5.223
 5354SOL    HW116508   2.382   2.198   5.232
 5354SOL    HW216509   2.219   2.196   5.227
 5355SOL     OW16510   3.465   2.309   4.461
 5355SOL    HW116511   3.391   2.355   4.411
 5355SOL    HW216512   3.516   2.377   4.514
 5356SOL     OW16513   2.093   3.575   4.207
 5356SOL    HW116514   2.127   3.652   4.261
 5356SOL    HW216515   2.137   3.575   4.117
 5357SOL     OW16516   2.989   3.203   5.414
 5357SOL    HW116517   3.036   3.203   5.502
 5357SOL    HW216518   2.941   3.116   5.403
 5358SOL     OW16519   2.092   3.296   4.262
 5358SOL    HW116520   2.066   3.392   4.262
 5358SOL    HW216521   2.021   3.242   4.307
 5359SOL     OW16522   2.102   2.953   4.610
 5359SOL    HW116523   2.116   2.869   4.662
 5359SOL    HW216524   2.047   3.017   4.665
 5360SOL     OW16525   2.482   3.648   5.163
 5360SOL    HW116526   2.390   3.631   5.198
 5360SOL    HW216527   2.510   3.740   5.189
 5361SOL     OW16528   2.468   2.826   3.847
 5361SOL    HW116529   2.475   2.910   3.793
 5361SOL    HW216530   2.514   2.839   3.935
 5362SOL     OW16531   3.456   1.976   5.204
 5362SOL    HW116532   3.438   2.043   5.132
 5362SOL    HW216533   3.453   2.022   5.293
 5363SOL     OW16534   1.984   2.505   4.287
 5363SOL    HW116535   1.939   2.417   4.304
 5363SOL    HW216536   1.983   2.559   4.371
 5364SOL     OW16537   3.704   3.629   4.083
 5364SOL    HW116538   3.758   3.600   4.163
 5364SOL    HW216539   3.734   3.719   4.054
 5365SOL     OW16540   1.889   3.458   3.841
 5365SOL    HW116541   1.870   3.362   3.862
 5365SOL    HW216542   1.856   3.516   3.916
 5366SOL     OW16543   3.551   2.784   4.336
 5366SOL    HW116544   3.646   2.755   4.344
 5366SOL    HW216545   3.543   2.849   4.261
 5367SOL     OW16546   3.503   2.970   4.156
 5367SOL    HW116547   3.589   2.972   4.104
 5367SOL    HW216548   3.517   3.017   4.244
 5368SOL     OW16549   1.975   2.599   5.321
 5368SOL    HW116550   2.063   2.586   5.366
 5368SOL    HW216551   1.962   2.696   5.299
 5369SOL     OW16552   2.475   3.227   4.450
 5369SOL    HW116553   2.426   3.140   4.459
 5369SOL    HW216554   2.452   3.270   4.363
 5370SOL     OW16555   3.155   3.090   5.147
 5370SOL    HW116556   3.192   3.017   5.089
 5370SOL    HW216557   3.207   3.095   5.232
 5371SOL     OW16558   2.671   1.866   4.226
 5371SOL    HW116559   2.711   1.957   4.217
 5371SOL    HW216560   2.571   1.874   4.232
 5372SOL     OW16561   2.059   2.838   4.988
 5372SOL    HW116562   2.148   2.793   4.974
 5372SOL    HW216563   1.986   2.773   4.969
 5373SOL     OW16564   3.387   2.861   3.914
 5373SOL    HW116565   3.324   2.785   3.927
 5373SOL    HW216566   3.435   2.879   4.000
 5374SOL     OW16567   3.049   3.654   5.340
 5374SOL    HW116568   3.073   3.714   5.264
 5374SOL    HW216569   3.056   3.559   5.310
 5375SOL     OW16570   3.328   3.279   4.677
 5375SOL    HW116571   3.269   3.285   4.757
 5375SOL    HW216572   3.313   3.191   4.631
 5376SOL     OW16573   3.529   3.576   4.296
 5376SOL    HW116574   3.488   3.553   4.208
 5376SOL    HW216575   3.511   3.502   4.361
 5377SOL     OW16576   2.460   2.591   3.994
 5377SOL    HW116577   2.484   2.660   3.926
 5377SOL    HW216578   2.382   2.624   4.048
 5378SOL     OW16579   3.143   2.207   4.668
 5378SOL    HW116580   3.057   2.157   4.655
 5378SOL    HW216581   3.205   2.153   4.724
 5379SOL     OW16582   3.438   3.524   4.031
 5379SOL    HW116583   3.527   3.570   4.034
 5379SOL    HW216584   3.417   3.500   3.936
 5380SOL     OW16585   2.669   2.467   5.189
 5380SOL    HW116586   2.622   2.464   5.278
 5380SOL    HW216587   2.618   2.412   5.123
 5381SOL     OW16588   3.256   2.331   5.398
 5381SOL    HW116589   3.236   2.374   5.486
 5381SOL    HW216590   3.334   2.269   5.407
 5382SOL     OW16591   2.835   2.752   5.296
 5382SOL    HW116592   2.881   2.668   5.267
 5382SOL    HW216593   2.779   2.786   5.221
 5383SOL     OW16594   2.853   2.272   4.966
 5383SOL    HW116595   2.776   2.306   5.020
 5383SOL    HW216596   2.819   2.221   4.887
 5384SOL     OW16597   2.903   2.563   4.153
 5384SOL    HW116598   2.929   2.559   4.249
 5384SOL    HW216599   2.818   2.512   4.139
 5385SOL     OW16600   1.938   2.673   4.513
 5385SOL    HW116601   2.037   2.661   4.522
 5385SOL    HW216602   1.914   2.768   4.534
 5386SOL     OW16603   1.992   3.683   5.295
 5386SOL    HW116604   1.982   3.668   5.394
 5386SOL    HW216605   1.906   3.719   5.259
 5387SOL     OW16606   2.727   2.210   3.919
 5387SOL    HW116607   2.786   2.273   3.870
 5387SOL    HW216608   2.746   2.116   3.890
 5388SOL     OW16609   3.581   2.447   5.555
 5388SOL    HW116610   3.555   2.536   5.519
 5388SOL    HW216611   3.579   2.379   5.482
 5389SOL     OW16612   3.224   3.006   4.269
 5389SOL    HW116613   3.307   2.977   4.221
 5389SOL    HW216614   3.175   3.073   4.213
 5390SOL     OW16615   2.412   2.058   4.609
 5390SOL    HW116616   2.407   2.053   4.709
 5390SOL    HW216617   2.414   2.154   4.580
 5391SOL     OW16618   2.870   3.318   4.201
 5391SOL    HW116619   2.824   3.390   4.149
 5391SOL    HW216620   2.866   3.338   4.299
 5392SOL     OW16621   2.213   3.663   4.577
 5392SOL    HW116622   2.263   3.577   4.583
 5392SOL    HW216623   2.278   3.740   4.574
 5393SOL     OW16624   3.657   2.928   4.597
 5393SOL    HW116625   3.595   2.913   4.521
 5393SOL    HW216626   3.605   2.939   4.682
 5394SOL     OW16627   3.089   3.412   5.230
 5394SOL    HW116628   3.095   3.335   5.294
 5394SOL    HW216629   3.037   3.386   5.150
 5395SOL     OW16630   2.183   2.805   3.966
 5395SOL    HW116631   2.265   2.844   3.924
 5395SOL    HW216632   2.156   2.723   3.917
 5396SOL     OW16633   3.320   2.597   4.452
 5396SOL    HW116634   3.315   2.532   4.527
 5396SOL    HW216635   3.400   2.656   4.465
 5397SOL     OW16636   2.323   3.128   5.451
 5397SOL    HW116637   2.273   3.129   5.365
 5397SOL    HW216638   2.260   3.110   5.527
 5398SOL     OW16639   2.973   3.638   3.961
 5398SOL    HW116640   2.913   3.576   4.011
 5398SOL    HW216641   3.004   3.594   3.876
 5399SOL     OW16642   3.494   3.239   3.805
 5399SOL    HW116643   3.462   3.333   3.795
 5399SOL    HW216644   3.418   3.176   3.793
 5400SOL     OW16645   2.326   3.605   4.047
 5400SOL    HW116646   2.359   3.644   4.133
 5400SOL    HW216647   2.402   3.598   3.982
 5401SOL     OW16648   3.262   1.969   4.150
 5401SOL    HW116649   3.238   1.932   4.060
 5401SOL    HW216650   3.361   1.985   4.154
 5402SOL     OW16651   2.111   3.647   4.965
 5402SOL    HW116652   2.168   3.582   5.015
 5402SOL    HW216653   2.095   3.614   4.872
 5403SOL     OW16654   2.802   3.560   4.628
 5403SOL    HW116655   2.882   3.503   4.649
 5403SOL    HW216656   2.753   3.520   4.551
 5404SOL     OW16657   2.244   2.562   4.204
 5404SOL    HW116658   2.289   2.472   4.201
 5404SOL    HW216659   2.150   2.551   4.237
 5405SOL     OW16660   3.409   2.084   5.453
 5405SOL    HW116661   3.404   2.121   5.545
 5405SOL    HW216662   3.337   2.015   5.441
 5406SOL     OW16663   2.476   1.984   3.841
 5406SOL    HW116664   2.574   1.962   3.848
 5406SOL    HW216665   2.445   1.967   3.748
 5407SOL     OW16666   2.643   2.126   5.473
 5407SOL    HW116667   2.710   2.065   5.516
 5407SOL    HW216668   2.570   2.145   5.538
 5408SOL     OW16669   2.750   3.376   4.919
 5408SOL    HW116670   2.727   3.351   4.825
 5408SOL    HW216671   2.811   3.307   4.958
 5409SOL     OW16672   3.213   2.452   5.157
 5409SOL    HW116673   3.241   2.409   5.242
 5409SOL    HW216674   3.238   2.548   5.158
 5410SOL     OW16675   2.665   3.264   4.648
 5410SOL    HW116676   2.755   3.278   4.606
 5410SOL    HW216677   2.594   3.266   4.577
 5411SOL     OW16678   2.784   2.365   4.623
 5411SOL    HW116679   2.759   2.356   4.527
 5411SOL    HW216680   2.832   2.283   4.654
 5412SOL     OW16681   2.401   1.926   4.236
 5412SOL    HW116682   2.320   1.927   4.294
 5412SOL    HW216683   2.404   2.009   4.181
 5413SOL     OW16684   3.296   3.050   3.765
 5413SOL    HW116685   3.328   2.974   3.822
 5413SOL    HW216686   3.204   3.077   3.795
 5414SOL     OW16687   2.797   2.098   4.204
 5414SOL    HW116688   2.749   2.139   4.126
 5414SOL    HW216689   2.896   2.096   4.185
 5415SOL     OW16690   2.938   2.545   5.188
 5415SOL    HW116691   2.858   2.484   5.191
 5415SOL    HW216692   3.019   2.492   5.164
 5416SOL     OW16693   3.089   3.432   4.517
 5416SOL    HW116694   3.110   3.506   4.452
 5416SOL    HW216695   3.157   3.432   4.590
 5417SOL     OW16696   2.321   3.014   4.465
 5417SOL    HW116697   2.250   2.987   4.530
 5417SOL    HW216698   2.295   2.986   4.372
 5418SOL     OW16699   3.133   3.659   4.315
 5418SOL    HW116700   3.177   3.723   4.251
 5418SOL    HW216701   3.083   3.711   4.385
 5419SOL     OW16702   2.894   2.411   3.740
 5419SOL    HW116703   2.853   2.493   3.701
 5419SOL    HW216704   2.958   2.437   3.813
 5420SOL     OW16705   1.940   2.418   5.110
 5420SOL    HW116706   2.032   2.417   5.069
 5420SOL    HW216707   1.934   2.492   5.177
 5421SOL     OW16708   2.423   2.084   4.871
 5421SOL    HW116709   2.461   2.000   4.908
 5421SOL    HW216710   2.335   2.103   4.915
 5422SOL     OW16711   2.728   2.316   4.366
 5422SOL    HW116712   2.696   2.388   4.304
 5422SOL    HW216713   2.752   2.235   4.313
 5423SOL     OW16714   2.879   1.901   4.477
 5423SOL    HW116715   2.807   1.906   4.408
 5423SOL    HW216716   2.855   1.832   4.546
 5424SOL     OW16717   3.291   3.035   4.591
 5424SOL    HW116718   3.236   2.951   4.584
 5424SOL    HW216719   3.317   3.064   4.499
 5425SOL     OW16720   3.328   2.452   4.716
 5425SOL    HW116721   3.298   2.357   4.723
 5425SOL    HW216722   3.401   2.468   4.782
 5426SOL     OW16723   3.719   2.695   4.101
 5426SOL    HW116724   3.761   2.631   4.165
 5426SOL    HW216725   3.681   2.644   4.023
 5427SOL     OW16726   2.350   3.247   3.898
 5427SOL    HW116727   2.263   3.232   3.945
 5427SOL    HW216728   2.333   3.273   3.803
 5428SOL     OW16729   3.526   3.142   4.381
 5428SOL    HW116730   3.625   3.150   4.395
 5428SOL    HW216731   3.481   3.226   4.412
 5429SOL     OW16732   3.252   2.437   3.802
 5429SOL    HW116733   3.198   2.416   3.883
 5429SOL    HW216734   3.343   2.396   3.811
 5430SOL     OW16735   2.389   2.118   4.052
 5430SOL    HW116736   2.416   2.059   3.977
 5430SOL    HW216737   2.389   2.213   4.021
 5431SOL     OW16738   3.616   3.085   5.312
 5431SOL    HW116739   3.707   3.046   5.299
 5431SOL    HW216740   3.624   3.181   5.336
 5432SOL     OW16741   2.926   3.209   5.064
 5432SOL    HW116742   2.846   3.186   5.119
 5432SOL    HW216743   3.009   3.183   5.113
 5433SOL     OW16744   3.454   3.491   5.349
 5433SOL    HW116745   3.481   3.525   5.259
 5433SOL    HW216746   3.533   3.453   5.395
 5434SOL     OW16747   2.973   3.057   4.824
 5434SOL    HW116748   2.933   3.101   4.905
 5434SOL    HW216749   2.932   3.094   4.741
 5435SOL     OW16750   3.500   2.961   4.803
 5435SOL    HW116751   3.505   3.042   4.862
 5435SOL    HW216752   3.414   2.963   4.752
 5436SOL     OW16753   2.777   1.951   5.126
 5436SOL    HW116754   2.802   1.931   5.031
 5436SOL    HW216755   2.849   2.007   5.168
 5437SOL     OW16756   2.842   2.978   5.443
 5437SOL    HW116757   2.743   2.984   5.453
 5437SOL    HW216758   2.865   2.898   5.387
 5438SOL     OW16759   2.567   2.912   4.092
 5438SOL    HW116760   2.553   2.919   4.191
 5438SOL    HW216761   2.651   2.861   4.074
 5439SOL     OW16762   2.272   2.675   4.975
 5439SOL    HW116763   2.358   2.687   5.025
 5439SOL    HW216764   2.230   2.588   5.002
 5440SOL     OW16765   3.136   2.248   4.986
 5440SOL    HW116766   3.157   2.322   5.050
 5440SOL    HW216767   3.047   2.265   4.943
 5441SOL     OW16768   1.926   3.426   5.055
 5441SOL    HW116769   1.880   3.508   5.021
 5441SOL    HW216770   2.024   3.445   5.064
 5442SOL     OW16771   2.229   2.962   4.225
 5442SOL    HW116772   2.222   3.045   4.169
 5442SOL    HW216773   2.233   2.882   4.165
 5443SOL     OW16774   2.428   2.399   4.589
 5443SOL    HW116775   2.440   2.465   4.515
 5443SOL    HW216776   2.474   2.433   4.672
 5444SOL     OW16777   3.114   3.210   4.112
 5444SOL    HW116778   3.164   3.287   4.152
 5444SOL    HW216779   3.019   3.212   4.144
 5445SOL     OW16780   3.134   3.307   4.866
 5445SOL    HW116781   3.181   3.320   4.953
 5445SOL    HW216782   3.068   3.233   4.875
 5446SOL     OW16783   3.444   2.501   4.196
 5446SOL    HW116784   3.413   2.562   4.269
 5446SOL    HW216785   3.494   2.553   4.127
 5447SOL     OW16786   2.216   3.372   5.053
 5447SOL    HW116787   2.195   3.328   4.966
 5447SOL    HW216788   2.313   3.398   5.056
 5448SOL     OW16789   2.264   2.613   5.322
 5448SOL    HW116790   2.332   2.668   5.275
 5448SOL    HW216791   2.304   2.525   5.349
 5449SOL     OW16792   3.449   2.641   5.394
 5449SOL    HW116793   3.357   2.679   5.389
 5449SOL    HW216794   3.509   2.688   5.329
 5450SOL     OW16795   2.875   1.967   5.494
 5450SOL    HW116796   2.881   2.052   5.442
 5450SOL    HW216797   2.907   1.891   5.437
 5451SOL     OW16798   2.366   1.912   5.464
 5451SOL    HW116799   2.324   1.855   5.394
 5451SOL    HW216800   2.300   1.981   5.496
 5452SOL     OW16801   2.435   2.732   4.753
 5452SOL    HW116802   2.479   2.821   4.744
 5452SOL    HW216803   2.372   2.732   4.830
 5453SOL     OW16804   3.222   2.724   4.769
 5453SOL    HW116805   3.147   2.724   4.703
 5453SOL    HW216806   3.259   2.632   4.778
 5454SOL     OW16807   3.071   2.387   3.999
 5454SOL    HW116808   3.084   2.303   4.053
 5454SOL    HW216809   3.042   2.461   4.059
 5455SOL     OW16810   1.899   3.172   5.006
 5455SOL    HW116811   1.952   3.123   5.074
 5455SOL    HW216812   1.921   3.270   5.011
 5456SOL     OW16813   2.594   2.496   4.788
 5456SOL    HW116814   2.653   2.470   4.712
 5456SOL    HW216815   2.566   2.592   4.777
 5457SOL     OW16816   3.590   2.797   5.578
 5457SOL    HW116817   3.544   2.790   5.489
 5457SOL    HW216818   3.528   2.841   5.644
 5458SOL     OW16819   2.169   1.925   4.342
 5458SOL    HW116820   2.158   2.019   4.375
 5458SOL    HW216821   2.164   1.862   4.419
 5459SOL     OW16822   3.484   2.229   4.098
 5459SOL    HW116823   3.486   2.153   4.162
 5459SOL    HW216824   3.436   2.306   4.138
 5460SOL     OW16825   2.885   2.628   4.690
 5460SOL    HW116826   2.900   2.649   4.786
 5460SOL    HW216827   2.855   2.533   4.681
 5461SOL     OW16828   2.842   3.435   5.424
 5461SOL    HW116829   2.822   3.479   5.336
 5461SOL    HW216830   2.881   3.344   5.408
 5462SOL     OW16831   3.721   3.380   5.329
 5462SOL    HW116832   3.735   3.407   5.234
 5462SOL    HW216833   3.804   3.402   5.382
 5463SOL     OW16834   2.212   2.760   5.528
 5463SOL    HW116835   2.288   2.804   5.576
 5463SOL    HW216836   2.247   2.713   5.446
 5464SOL     OW16837   3.402   2.136   3.849
 5464SOL    HW116838   3.341   2.061   3.872
 5464SOL    HW216839   3.424   2.188   3.932
 5465SOL     OW16840   3.165   2.700   3.766
 5465SOL    HW116841   3.199   2.607   3.781
 5465SOL    HW216842   3.183   2.727   3.671
 5466SOL     OW16843   2.930   3.195   4.573
 5466SOL    HW116844   2.937   3.111   4.518
 5466SOL    HW216845   2.992   3.264   4.537
 5467SOL     OW16846   2.181   2.672   4.673
 5467SOL    HW116847   2.274   2.708   4.678
 5467SOL    HW216848   2.175   2.587   4.725
 5468SOL     OW16849   2.201   2.371   4.730
 5468SOL    HW116850   2.149   2.288   4.713
 5468SOL    HW216851   2.278   2.376   4.666
 5469SOL     OW16852   3.000   2.242   5.402
 5469SOL    HW116853   2.955   2.305   5.466
 5469SOL    HW216854   3.093   2.273   5.385
 5470SOL     OW16855   3.022   2.069   5.201
 5470SOL    HW116856   3.022   2.133   5.278
 5470SOL    HW216857   3.050   2.117   5.118
 5471SOL     OW16858   1.870   3.188   3.924
 5471SOL    HW116859   1.777   3.209   3.893
 5471SOL    HW216860   1.880   3.089   3.937
 5472SOL     OW16861   1.950   3.663   4.651
 5472SOL    HW116862   1.908   3.577   4.624
 5472SOL    HW216863   2.044   3.666   4.617
 5473SOL     OW16864   2.366   3.430   4.634
 5473SOL    HW116865   2.432   3.504   4.643
 5473SOL    HW216866   2.410   3.351   4.592
 5474SOL     OW16867   2.864   2.658   4.962
 5474SOL    HW116868   2.905   2.626   5.048
 5474SOL    HW216869   2.768   2.631   4.959
 5475SOL     OW16870   1.902   2.406   4.838
 5475SOL    HW116871   1.987   2.373   4.797
 5475SOL    HW216872   1.915   2.421   4.936
 5476SOL     OW16873   2.051   2.382   5.446
 5476SOL    HW116874   2.110   2.342   5.376
 5476SOL    HW216875   1.993   2.453   5.405
 5477SOL     OW16876   3.231   2.812   5.384
 5477SOL    HW116877   3.270   2.901   5.404
 5477SOL    HW216878   3.241   2.792   5.287
 5478SOL     OW16879   2.677   2.434   4.049
 5478SOL    HW116880   2.684   2.345   4.003
 5478SOL    HW216881   2.583   2.468   4.041
 5479SOL     OW16882   3.519   2.466   4.930
 5479SOL    HW116883   3.481   2.397   4.992
 5479SOL    HW216884   3.601   2.430   4.886
 5480SOL     OW16885   2.114   3.426   5.468
 5480SOL    HW116886   2.084   3.483   5.544
 5480SOL    HW216887   2.107   3.329   5.494
 5481SOL     OW16888   2.533   2.326   4.993
 5481SOL    HW116889   2.499   2.237   4.963
 5481SOL    HW216890   2.559   2.380   4.913
 5482SOL     OW16891   2.792   3.540   5.189
 5482SOL    HW116892   2.768   3.522   5.094
 5482SOL    HW216893   2.822   3.634   5.199
 5483SOL     OW16894   2.335   2.362   3.915
 5483SOL    HW116895   2.396   2.442   3.919
 5483SOL    HW216896   2.240   2.393   3.922
 5484SOL     OW16897   2.021   2.999   5.190
 5484SOL    HW116898   2.043   2.938   5.266
 5484SOL    HW216899   2.031   2.950   5.104
 5485SOL     OW16900   3.209   2.921   4.958
 5485SOL    HW116901   3.233   2.858   4.884
 5485SOL    HW216902   3.119   2.961   4.940
 5486SOL     OW16903   3.164   2.717   4.033
 5486SOL    HW116904   3.078   2.686   4.075
 5486SOL    HW216905   3.160   2.703   3.934
 5487SOL     OW16906   3.621   3.609   4.878
 5487SOL    HW116907   3.682   3.639   4.805
 5487SOL    HW216908   3.583   3.520   4.856
 5488SOL     OW16909   3.114   3.593   4.852
 5488SOL    HW116910   3.198   3.598   4.798
 5488SOL    HW216911   3.091   3.497   4.870
 5489SOL     OW16912   1.945   3.120   4.746
 5489SOL    HW116913   1.940   3.119   4.846
 5489SOL    HW216914   1.862   3.079   4.708
 5490SOL     OW16915   2.550   3.524   5.440
 5490SOL    HW116916   2.494   3.605   5.449
 5490SOL    HW216917   2.602   3.528   5.354
 5491SOL     OW16918   3.588   1.997   4.247
 5491SOL    HW116919   3.661   1.980   4.180
 5491SOL    HW216920   3.557   1.910   4.285
 5492SOL     OW16921   3.250   3.435   4.201
 5492SOL    HW116922   3.317   3.447   4.127
 5492SOL    HW216923   3.210   3.524   4.224
 5493SOL     OW16924   1.992   3.656   5.575
 5493SOL    HW116925   1.951   3.582   5.628
 5493SOL    HW216926   2.056   3.707   5.633
 5494SOL     OW16927   3.142   2.789   4.396
 5494SOL    HW116928   3.202   2.708   4.398
 5494SOL    HW216929   3.182   2.858   4.336
 5495SOL     OW16930   2.692   3.135   5.146
 5495SOL    HW116931   2.687   3.168   5.241
 5495SOL    HW216932   2.606   3.154   5.100
 5496SOL     OW16933   2.534   3.478   3.878
 5496SOL    HW116934   2.543   3.488   3.779
 5496SOL    HW216935   2.494   3.389   3.899
 5497SOL     OW16936   3.512   3.582   5.118
 5497SOL    HW116937   3.565   3.592   5.034
 5497SOL    HW216938   3.485   3.672   5.152
 5498SOL     OW16939   3.703   2.037   4.687
 5498SOL    HW116940   3.742   1.952   4.651
 5498SOL    HW216941   3.605   2.039   4.668
 5499SOL     OW16942   3.056   3.474   3.755
 5499SOL    HW116943   3.062   3.381   3.792
 5499SOL    HW216944   2.997   3.474   3.675
 5500SOL     OW16945   2.684   2.864   5.096
 5500SOL    HW116946   2.724   2.863   5.004
 5500SOL    HW216947   2.694   2.956   5.136
 5501SOL     OW16948   2.778   2.772   4.015
 5501SOL    HW116949   2.841   2.810   3.947
 5501SOL    HW216950   2.818   2.689   4.054
 5502SOL     OW16951   3.366   3.469   3.768
 5502SOL    HW116952   3.274   3.506   3.775
 5502SOL    HW216953   3.404   3.489   3.678
 5503SOL     OW16954   2.234   3.150   5.214
 5503SOL    HW116955   2.221   3.243   5.180
 5503SOL    HW216956   2.150   3.098   5.201
 5504SOL     OW16957   3.476   3.154   5.013
 5504SOL    HW116958   3.536   3.157   5.093
 5504SOL    HW216959   3.401   3.218   5.026
 5505SOL     OW16960   2.901   2.960   4.420
 5505SOL    HW116961   2.831   2.913   4.474
 5505SOL    HW216962   2.960   2.892   4.377
 5506SOL     OW16963   2.876   2.098   4.695
 5506SOL    HW116964   2.868   2.062   4.602
 5506SOL    HW216965   2.874   2.022   4.760
 5507SOL     OW16966   2.452   3.349   4.215
 5507SOL    HW116967   2.494   3.291   4.145
 5507SOL    HW216968   2.408   3.428   4.171
 5508SOL     OW16969   3.571   2.247   5.105
 5508SOL    HW116970   3.644   2.316   5.109
 5508SOL    HW216971   3.599   2.172   5.046
 5509SOL     OW16972   2.117   3.210   4.014
 5509SOL    HW116973   2.021   3.211   3.987
 5509SOL    HW216974   2.129   3.263   4.098
 5510SOL     OW16975   1.967   2.875   5.450
 5510SOL    HW116976   1.890   2.842   5.504
 5510SOL    HW216977   2.052   2.845   5.492
 5511SOL     OW16978   2.534   2.065   5.213
 5511SOL    HW116979   2.624   2.049   5.173
 5511SOL    HW216980   2.542   2.070   5.312
 5512SOL     OW16981   1.937   2.207   3.757
 5512SOL    HW116982   1.845   2.179   3.728
 5512SOL    HW216983   1.968   2.284   3.701
 5513SOL     OW16984   3.302   2.718   5.122
 5513SOL    HW116985   3.245   2.770   5.059
 5513SOL    HW216986   3.398   2.730   5.098
 5514SOL     OW16987   3.045   3.197   3.843
 5514SOL    HW116988   2.946   3.186   3.845
 5514SOL    HW216989   3.079   3.212   3.936
 5515SOL     OW16990   2.475   2.704   5.155
 5515SOL    HW116991   2.531   2.785   5.138
 5515SOL    HW216992   2.534   2.624   5.158
 5516SOL     OW16993   3.355   3.629   4.683
 5516SOL    HW116994   3.388   3.693   4.614
 5516SOL    HW216995   3.421   3.623   4.758
 5517SOL     OW16996   2.578   2.427   5.432
 5517SOL    HW116997   2.597   2.492   5.506
 5517SOL    HW216998   2.638   2.347   5.441
 5518SOL     OW16999   3.312   3.082   5.357
 5518SOL    HW117000   3.303   3.072   5.456
 5518SOL    HW217001   3.408   3.075   5.331
 5519SOL     OW17002   2.252   3.603   5.284
 5519SOL    HW117003   2.161   3.644   5.282
 5519SOL    HW217004   2.245   3.509   5.316
 5520SOL     OW17005   3.536   2.745   4.978
 5520SOL    HW117006   3.509   2.656   4.941
 5520SOL    HW217007   3.537   2.813   4.905
 5521SOL     OW17008   3.087   2.187   4.173
 5521SOL    HW117009   3.152   2.113   4.162
 5521SOL    HW217010   3.107   2.237   4.257
 5522SOL     OW17011   2.456   2.607   4.376
 5522SOL    HW117012   2.506   2.692   4.357
 5522SOL    HW217013   2.368   2.609   4.328
 5523SOL     OW17014   3.639   2.204   5.366
 5523SOL    HW117015   3.622   2.235   5.272
 5523SOL    HW217016   3.555   2.167   5.404
 5524SOL     OW17017   3.592   2.796   5.241
 5524SOL    HW117018   3.630   2.887   5.256
 5524SOL    HW217019   3.584   2.779   5.142
 5525SOL     OW17020   2.721   3.236   3.740
 5525SOL    HW117021   2.675   3.251   3.828
 5525SOL    HW217022   2.765   3.321   3.710
 5526SOL     OW17023   2.523   3.652   4.677
 5526SOL    HW117024   2.477   3.740   4.664
 5526SOL    HW217025   2.622   3.664   4.670
 5527SOL     OW17026   2.721   2.818   4.585
 5527SOL    HW117027   2.775   2.749   4.633
 5527SOL    HW217028   2.689   2.887   4.651
 5528SOL     OW17029   2.945   2.846   3.811
 5528SOL    HW117030   2.922   2.899   3.729
 5528SOL    HW217031   3.026   2.790   3.792
 5529SOL     OW17032   3.723   3.431   4.575
 5529SOL    HW117033   3.652   3.419   4.505
 5529SOL    HW217034   3.724   3.352   4.635
 5530SOL     OW17035   2.083   3.176   5.568
 5530SOL    HW117036   2.018   3.103   5.547
 5530SOL    HW217037   2.087   3.190   5.666
 5531SOL     OW17038   1.941   3.102   4.377
 5531SOL    HW117039   1.940   3.055   4.465
 5531SOL    HW217040   2.023   3.074   4.326
 5532SOL     OW17041   2.534   3.253   5.348
 5532SOL    HW117042   2.456   3.203   5.386
 5532SOL    HW217043   2.531   3.348   5.379
 5533SOL     OW17044   3.686   2.054   4.951
 5533SOL    HW117045   3.682   1.964   4.995
 5533SOL    HW217046   3.689   2.043   4.852
 5534SOL     OW17047   2.290   2.286   4.244
 5534SOL    HW117048   2.320   2.214   4.182
 5534SOL    HW217049   2.251   2.246   4.327
 5535SOL     OW17050   3.567   3.349   4.828
 5535SOL    HW117051   3.474   3.324   4.801
 5535SOL    HW217052   3.593   3.299   4.910
 5536SOL     OW17053   2.179   2.409   5.004
 5536SOL    HW117054   2.217   2.350   5.076
 5536SOL    HW217055   2.219   2.383   4.916
 5537SOL     OW17056   2.674   3.448   4.411
 5537SOL    HW117057   2.706   3.458   4.317
 5537SOL    HW217058   2.595   3.386   4.413
 5538SOL     OW17059   3.286   2.076   4.836
 5538SOL    HW117060   3.338   2.011   4.891
 5538SOL    HW217061   3.237   2.139   4.897
 5539SOL     OW17062   2.863   1.896   4.878
 5539SOL    HW117063   2.800   1.824   4.847
 5539SOL    HW217064   2.956   1.860   4.878
 5540SOL     OW17065   2.632   3.192   4.025
 5540SOL    HW117066   2.586   3.105   4.042
 5540SOL    HW217067   2.723   3.189   4.066
 5541SOL     OW17068   2.480   3.429   5.008
 5541SOL    HW117069   2.475   3.511   5.065
 5541SOL    HW217070   2.569   3.426   4.963
 5542SOL     OW17071   3.214   1.914   3.892
 5542SOL    HW117072   3.249   1.873   3.808
 5542SOL    HW217073   3.124   1.876   3.912
 5543SOL     OW17074   3.162   2.315   4.415
 5543SOL    HW117075   3.103   2.395   4.419
 5543SOL    HW217076   3.177   2.280   4.508
 5544SOL     OW17077   3.455   2.083   4.606
 5544SOL    HW117078   3.371   2.082   4.660
 5544SOL    HW217079   3.457   2.166   4.550
 5545SOL     OW17080   1.901   2.939   4.024
 5545SOL    HW117081   2.000   2.928   4.015
 5545SOL    HW217082   1.861   2.853   4.056
 5546SOL     OW17083   2.737   3.508   4.061
 5546SOL    HW117084   2.660   3.473   4.007
 5546SOL    HW217085   2.705   3.579   4.123
 5547SOL     OW17086   2.092   2.490   5.699
 5547SOL    HW117087   1.999   2.488   5.736
 5547SOL    HW217088   2.093   2.451   5.607
 5548SOL     OW17089   1.881   2.230   6.233
 5548SOL    HW117090   1.799   2.273   6.272
 5548SOL    HW217091   1.853   2.157   6.170
 5549SOL     OW17092   2.431   3.137   6.751
 5549SOL    HW117093   2.338   3.130   6.714
 5549SOL    HW217094   2.442   3.226   6.795
 5550SOL     OW17095   3.417   3.373   6.289
 5550SOL    HW117096   3.360   3.357   6.370
 5550SOL    HW217097   3.358   3.383   6.209
 5551SOL     OW17098   2.997   2.565   6.303
 5551SOL    HW117099   3.054   2.643   6.278
 5551SOL    HW217100   2.937   2.591   6.379
 5552SOL     OW17101   3.617   2.469   5.817
 5552SOL    HW117102   3.605   2.456   5.718
 5552SOL    HW217103   3.587   2.388   5.866
 5553SOL     OW17104   2.630   3.006   6.609
 5553SOL    HW117105   2.552   3.023   6.669
 5553SOL    HW217106   2.664   3.093   6.573
 5554SOL     OW17107   2.712   2.660   7.409
 5554SOL    HW117108   2.708   2.736   7.474
 5554SOL    HW217109   2.734   2.696   7.318
 5555SOL     OW17110   2.547   2.874   6.251
 5555SOL    HW117111   2.616   2.858   6.321
 5555SOL    HW217112   2.474   2.931   6.289
 5556SOL     OW17113   2.548   3.023   7.389
 5556SOL    HW117114   2.608   3.102   7.403
 5556SOL    HW217115   2.462   3.054   7.348
 5557SOL     OW17116   2.197   3.297   6.647
 5557SOL    HW117117   2.119   3.266   6.594
 5557SOL    HW217118   2.255   3.355   6.590
 5558SOL     OW17119   3.322   3.367   6.925
 5558SOL    HW117120   3.346   3.461   6.951
 5558SOL    HW217121   3.306   3.313   7.007
 5559SOL     OW17122   3.465   2.309   6.323
 5559SOL    HW117123   3.391   2.355   6.273
 5559SOL    HW217124   3.516   2.377   6.376
 5560SOL     OW17125   2.093   3.575   6.069
 5560SOL    HW117126   2.127   3.652   6.123
 5560SOL    HW217127   2.137   3.575   5.979
 5561SOL     OW17128   2.989   3.203   7.276
 5561SOL    HW117129   3.036   3.203   7.364
 5561SOL    HW217130   2.941   3.116   7.265
 5562SOL     OW17131   2.092   3.296   6.124
 5562SOL    HW117132   2.066   3.392   6.124
 5562SOL    HW217133   2.021   3.242   6.169
 5563SOL     OW17134   2.102   2.953   6.472
 5563SOL    HW117135   2.116   2.869   6.524
 5563SOL    HW217136   2.047   3.017   6.527
 5564SOL     OW17137   2.482   3.648   7.025
 5564SOL    HW117138   2.390   3.631   7.060
 5564SOL    HW217139   2.510   3.740   7.051
 5565SOL     OW17140   2.468   2.826   5.709
 5565SOL    HW117141   2.475   2.910   5.655
 5565SOL    HW217142   2.514   2.839   5.797
 5566SOL     OW17143   3.456   1.976   7.066
 5566SOL    HW117144   3.438   2.043   6.994
 5566SOL    HW217145   3.453   2.022   7.155
 5567SOL     OW17146   1.984   2.505   6.149
 5567SOL    HW117147   1.939   2.417   6.166
 5567SOL    HW217148   1.983   2.559   6.233
 5568SOL     OW17149   3.704   3.629   5.945
 5568SOL    HW117150   3.758   3.600   6.025
 5568SOL    HW217151   3.734   3.719   5.916
 5569SOL     OW17152   1.889   3.458   5.703
 5569SOL    HW117153   1.870   3.362   5.724
 5569SOL    HW217154   1.856   3.516   5.778
 5570SOL     OW17155   3.551   2.784   6.198
 5570SOL    HW117156   3.646   2.755   6.206
 5570SOL    HW217157   3.543   2.849   6.123
 5571SOL     OW17158   3.503   2.970   6.018
 5571SOL    HW117159   3.589   2.972   5.966
 5571SOL    HW217160   3.517   3.017   6.106
 5572SOL     OW17161   2.475   3.227   6.312
 5572SOL    HW117162   2.426   3.140   6.321
 5572SOL    HW217163   2.452   3.270   6.225
 5573SOL     OW17164   3.155   3.090   7.009
 5573SOL    HW117165   3.192   3.017   6.951
 5573SOL    HW217166   3.207   3.095   7.094
 5574SOL     OW17167   2.671   1.866   6.088
 5574SOL    HW117168   2.711   1.957   6.079
 5574SOL    HW217169   2.571   1.874   6.094
 5575SOL     OW17170   3.387   2.861   5.776
 5575SOL    HW117171   3.324   2.785   5.789
 5575SOL    HW217172   3.435   2.879   5.862
 5576SOL     OW17173   3.049   3.654   7.202
 5576SOL    HW117174   3.073   3.714   7.126
 5576SOL    HW217175   3.056   3.559   7.172
 5577SOL     OW17176   2.179   2.113   7.387
 5577SOL    HW117177   2.250   2.184   7.393
 5577SOL    HW217178   2.091   2.152   7.415
 5578SOL     OW17179   3.328   3.279   6.539
 5578SOL    HW117180   3.269   3.285   6.619
 5578SOL    HW217181   3.313   3.191   6.493
 5579SOL     OW17182   3.529   3.576   6.158
 5579SOL    HW117183   3.488   3.553   6.070
 5579SOL    HW217184   3.511   3.502   6.223
 5580SOL     OW17185   2.460   2.591   5.856
 5580SOL    HW117186   2.484   2.660   5.788
 5580SOL    HW217187   2.382   2.624   5.910
 5581SOL     OW17188   3.143   2.207   6.530
 5581SOL    HW117189   3.057   2.157   6.517
 5581SOL    HW217190   3.205   2.153   6.586
 5582SOL     OW17191   3.438   3.524   5.893
 5582SOL    HW117192   3.527   3.570   5.896
 5582SOL    HW217193   3.417   3.500   5.798
 5583SOL     OW17194   3.256   2.331   7.260
 5583SOL    HW117195   3.236   2.374   7.348
 5583SOL    HW217196   3.334   2.269   7.269
 5584SOL     OW17197   2.835   2.752   7.158
 5584SOL    HW117198   2.881   2.668   7.129
 5584SOL    HW217199   2.779   2.786   7.083
 5585SOL     OW17200   2.903   2.563   6.015
 5585SOL    HW117201   2.929   2.559   6.111
 5585SOL    HW217202   2.818   2.512   6.001
 5586SOL     OW17203   1.992   3.683   7.157
 5586SOL    HW117204   1.982   3.668   7.256
 5586SOL    HW217205   1.906   3.719   7.121
 5587SOL     OW17206   2.727   2.210   5.781
 5587SOL    HW117207   2.786   2.273   5.732
 5587SOL    HW217208   2.746   2.116   5.752
 5588SOL     OW17209   3.581   2.447   7.417
 5588SOL    HW117210   3.555   2.536   7.381
 5588SOL    HW217211   3.579   2.379   7.344
 5589SOL     OW17212   3.224   3.006   6.131
 5589SOL    HW117213   3.307   2.977   6.083
 5589SOL    HW217214   3.175   3.073   6.075
 5590SOL     OW17215   2.412   2.058   6.471
 5590SOL    HW117216   2.407   2.053   6.571
 5590SOL    HW217217   2.414   2.154   6.442
 5591SOL     OW17218   2.870   3.318   6.063
 5591SOL    HW117219   2.824   3.390   6.011
 5591SOL    HW217220   2.866   3.338   6.161
 5592SOL     OW17221   2.213   3.663   6.439
 5592SOL    HW117222   2.263   3.577   6.445
 5592SOL    HW217223   2.278   3.740   6.436
 5593SOL     OW17224   3.657   2.928   6.459
 5593SOL    HW117225   3.595   2.913   6.383
 5593SOL    HW217226   3.605   2.939   6.544
 5594SOL     OW17227   3.089   3.412   7.092
 5594SOL    HW117228   3.095   3.335   7.156
 5594SOL    HW217229   3.037   3.386   7.012
 5595SOL     OW17230   2.183   2.805   5.828
 5595SOL    HW117231   2.265   2.844   5.786
 5595SOL    HW217232   2.156   2.723   5.779
 5596SOL     OW17233   3.320   2.597   6.314
 5596SOL    HW117234   3.315   2.532   6.389
 5596SOL    HW217235   3.400   2.656   6.327
 5597SOL     OW17236   2.323   3.128   7.313
 5597SOL    HW117237   2.273   3.129   7.227
 5597SOL    HW217238   2.260   3.110   7.389
 5598SOL     OW17239   2.973   3.638   5.823
 5598SOL    HW117240   2.913   3.576   5.873
 5598SOL    HW217241   3.004   3.594   5.738
 5599SOL     OW17242   3.494   3.239   5.667
 5599SOL    HW117243   3.462   3.333   5.657
 5599SOL    HW217244   3.418   3.176   5.655
 5600SOL     OW17245   2.326   3.605   5.909
 5600SOL    HW117246   2.359   3.644   5.995
 5600SOL    HW217247   2.402   3.598   5.844
 5601SOL     OW17248   3.262   1.969   6.012
 5601SOL    HW117249   3.238   1.932   5.922
 5601SOL    HW217250   3.361   1.985   6.016
 5602SOL     OW17251   2.111   3.647   6.827
 5602SOL    HW117252   2.168   3.582   6.877
 5602SOL    HW217253   2.095   3.614   6.734
 5603SOL     OW17254   2.802   3.560   6.490
 5603SOL    HW117255   2.882   3.503   6.511
 5603SOL    HW217256   2.753   3.520   6.413
 5604SOL     OW17257   2.244   2.562   6.066
 5604SOL    HW117258   2.289   2.472   6.063
 5604SOL    HW217259   2.150   2.551   6.099
 5605SOL     OW17260   3.409   2.084   7.315
 5605SOL    HW117261   3.404   2.121   7.407
 5605SOL    HW217262   3.337   2.015   7.303
 5606SOL     OW17263   2.476   1.984   5.703
 5606SOL    HW117264   2.574   1.962   5.710
 5606SOL    HW217265   2.445   1.967   5.610
 5607SOL     OW17266   2.750   3.376   6.781
 5607SOL    HW117267   2.727   3.351   6.687
 5607SOL    HW217268   2.811   3.307   6.820
 5608SOL     OW17269   3.213   2.452   7.019
 5608SOL    HW117270   3.241   2.409   7.104
 5608SOL    HW217271   3.238   2.548   7.020
 5609SOL     OW17272   2.665   3.264   6.510
 5609SOL    HW117273   2.755   3.278   6.468
 5609SOL    HW217274   2.594   3.266   6.439
 5610SOL     OW17275   2.784   2.365   6.485
 5610SOL    HW117276   2.759   2.356   6.389
 5610SOL    HW217277   2.832   2.283   6.516
 5611SOL     OW17278   2.401   1.926   6.098
 5611SOL    HW117279   2.320   1.927   6.156
 5611SOL    HW217280   2.404   2.009   6.043
 5612SOL     OW17281   3.296   3.050   5.627
 5612SOL    HW117282   3.328   2.974   5.684
 5612SOL    HW217283   3.204   3.077   5.657
 5613SOL     OW17284   2.797   2.098   6.066
 5613SOL    HW117285   2.749   2.139   5.988
 5613SOL    HW217286   2.896   2.096   6.047
 5614SOL     OW17287   2.938   2.545   7.050
 5614SOL    HW117288   2.858   2.484   7.053
 5614SOL    HW217289   3.019   2.492   7.026
 5615SOL     OW17290   3.089   3.432   6.379
 5615SOL    HW117291   3.110   3.506   6.314
 5615SOL    HW217292   3.157   3.432   6.452
 5616SOL     OW17293   2.321   3.014   6.327
 5616SOL    HW117294   2.250   2.987   6.392
 5616SOL    HW217295   2.295   2.986   6.234
 5617SOL     OW17296   3.133   3.659   6.177
 5617SOL    HW117297   3.177   3.723   6.113
 5617SOL    HW217298   3.083   3.711   6.247
 5618SOL     OW17299   2.894   2.411   5.602
 5618SOL    HW117300   2.853   2.493   5.563
 5618SOL    HW217301   2.958   2.437   5.675
 5619SOL     OW17302   2.728   2.316   6.228
 5619SOL    HW117303   2.696   2.388   6.166
 5619SOL    HW217304   2.752   2.235   6.175
 5620SOL     OW17305   2.879   1.901   6.339
 5620SOL    HW117306   2.807   1.906   6.270
 5620SOL    HW217307   2.855   1.832   6.408
 5621SOL     OW17308   3.291   3.035   6.453
 5621SOL    HW117309   3.236   2.951   6.446
 5621SOL    HW217310   3.317   3.064   6.361
 5622SOL     OW17311   3.328   2.452   6.578
 5622SOL    HW117312   3.298   2.357   6.585
 5622SOL    HW217313   3.401   2.468   6.644
 5623SOL     OW17314   3.719   2.695   5.963
 5623SOL    HW117315   3.761   2.631   6.027
 5623SOL    HW217316   3.681   2.644   5.885
 5624SOL     OW17317   2.350   3.247   5.760
 5624SOL    HW117318   2.263   3.232   5.807
 5624SOL    HW217319   2.333   3.273   5.665
 5625SOL     OW17320   3.526   3.142   6.243
 5625SOL    HW117321   3.625   3.150   6.257
 5625SOL    HW217322   3.481   3.226   6.274
 5626SOL     OW17323   3.252   2.437   5.664
 5626SOL    HW117324   3.198   2.416   5.745
 5626SOL    HW217325   3.343   2.396   5.673
 5627SOL     OW17326   2.389   2.118   5.914
 5627SOL    HW117327   2.416   2.059   5.839
 5627SOL    HW217328   2.389   2.213   5.883
 5628SOL     OW17329   3.616   3.085   7.174
 5628SOL    HW117330   3.707   3.046   7.161
 5628SOL    HW217331   3.624   3.181   7.198
 5629SOL     OW17332   2.926   3.209   6.926
 5629SOL    HW117333   2.846   3.186   6.981
 5629SOL    HW217334   3.009   3.183   6.975
 5630SOL     OW17335   3.454   3.491   7.211
 5630SOL    HW117336   3.481   3.525   7.121
 5630SOL    HW217337   3.533   3.453   7.257
 5631SOL     OW17338   2.973   3.057   6.686
 5631SOL    HW117339   2.933   3.101   6.767
 5631SOL    HW217340   2.932   3.094   6.603
 5632SOL     OW17341   3.500   2.961   6.665
 5632SOL    HW117342   3.505   3.042   6.724
 5632SOL    HW217343   3.414   2.963   6.614
 5633SOL     OW17344   2.842   2.978   7.305
 5633SOL    HW117345   2.743   2.984   7.315
 5633SOL    HW217346   2.865   2.898   7.249
 5634SOL     OW17347   2.567   2.912   5.954
 5634SOL    HW117348   2.553   2.919   6.053
 5634SOL    HW217349   2.651   2.861   5.936
 5635SOL     OW17350   3.136   2.248   6.848
 5635SOL    HW117351   3.157   2.322   6.912
 5635SOL    HW217352   3.047   2.265   6.805
 5636SOL     OW17353   1.926   3.426   6.917
 5636SOL    HW117354   1.880   3.508   6.883
 5636SOL    HW217355   2.024   3.445   6.926
 5637SOL     OW17356   2.229   2.962   6.087
 5637SOL    HW117357   2.222   3.045   6.031
 5637SOL    HW217358   2.233   2.882   6.027
 5638SOL     OW17359   3.114   3.210   5.974
 5638SOL    HW117360   3.164   3.287   6.014
 5638SOL    HW217361   3.019   3.212   6.006
 5639SOL     OW17362   3.134   3.307   6.728
 5639SOL    HW117363   3.181   3.320   6.815
 5639SOL    HW217364   3.068   3.233   6.737
 5640SOL     OW17365   3.444   2.501   6.058
 5640SOL    HW117366   3.413   2.562   6.131
 5640SOL    HW217367   3.494   2.553   5.989
 5641SOL     OW17368   2.216   3.372   6.915
 5641SOL    HW117369   2.195   3.328   6.828
 5641SOL    HW217370   2.313   3.398   6.918
 5642SOL     OW17371   3.449   2.641   7.256
 5642SOL    HW117372   3.357   2.679   7.251
 5642SOL    HW217373   3.509   2.688   7.191
 5643SOL     OW17374   2.875   1.967   7.356
 5643SOL    HW117375   2.881   2.052   7.304
 5643SOL    HW217376   2.907   1.891   7.299
 5644SOL     OW17377   2.435   2.732   6.615
 5644SOL    HW117378   2.479   2.821   6.606
 5644SOL    HW217379   2.372   2.732   6.692
 5645SOL     OW17380   3.222   2.724   6.631
 5645SOL    HW117381   3.147   2.724   6.565
 5645SOL    HW217382   3.259   2.632   6.640
 5646SOL     OW17383   3.071   2.387   5.861
 5646SOL    HW117384   3.084   2.303   5.915
 5646SOL    HW217385   3.042   2.461   5.921
 5647SOL     OW17386   2.169   2.075   6.817
 5647SOL    HW117387   2.146   2.112   6.907
 5647SOL    HW217388   2.139   1.980   6.811
 5648SOL     OW17389   1.899   3.172   6.868
 5648SOL    HW117390   1.952   3.123   6.936
 5648SOL    HW217391   1.921   3.270   6.873
 5649SOL     OW17392   3.590   2.797   7.440
 5649SOL    HW117393   3.544   2.790   7.351
 5649SOL    HW217394   3.528   2.841   7.506
 5650SOL     OW17395   3.484   2.229   5.960
 5650SOL    HW117396   3.486   2.153   6.024
 5650SOL    HW217397   3.436   2.306   6.000
 5651SOL     OW17398   2.885   2.628   6.552
 5651SOL    HW117399   2.900   2.649   6.648
 5651SOL    HW217400   2.855   2.533   6.543
 5652SOL     OW17401   2.842   3.435   7.286
 5652SOL    HW117402   2.822   3.479   7.198
 5652SOL    HW217403   2.881   3.344   7.270
 5653SOL     OW17404   3.721   3.380   7.191
 5653SOL    HW117405   3.735   3.407   7.096
 5653SOL    HW217406   3.804   3.402   7.244
 5654SOL     OW17407   2.212   2.760   7.390
 5654SOL    HW117408   2.288   2.804   7.438
 5654SOL    HW217409   2.247   2.713   7.308
 5655SOL     OW17410   3.402   2.136   5.711
 5655SOL    HW117411   3.341   2.061   5.734
 5655SOL    HW217412   3.424   2.188   5.794
 5656SOL     OW17413   3.165   2.700   5.628
 5656SOL    HW117414   3.199   2.607   5.643
 5656SOL    HW217415   3.183   2.727   5.533
 5657SOL     OW17416   2.930   3.195   6.435
 5657SOL    HW117417   2.937   3.111   6.380
 5657SOL    HW217418   2.992   3.264   6.399
 5658SOL     OW17419   3.000   2.242   7.264
 5658SOL    HW117420   2.955   2.305   7.328
 5658SOL    HW217421   3.093   2.273   7.247
 5659SOL     OW17422   3.022   2.069   7.063
 5659SOL    HW117423   3.022   2.133   7.140
 5659SOL    HW217424   3.050   2.117   6.980
 5660SOL     OW17425   1.870   3.188   5.786
 5660SOL    HW117426   1.777   3.209   5.755
 5660SOL    HW217427   1.880   3.089   5.799
 5661SOL     OW17428   1.950   3.663   6.513
 5661SOL    HW117429   1.908   3.577   6.486
 5661SOL    HW217430   2.044   3.666   6.479
 5662SOL     OW17431   2.366   3.430   6.496
 5662SOL    HW117432   2.432   3.504   6.505
 5662SOL    HW217433   2.410   3.351   6.454
 5663SOL     OW17434   2.864   2.658   6.824
 5663SOL    HW117435   2.905   2.626   6.910
 5663SOL    HW217436   2.768   2.631   6.821
 5664SOL     OW17437   3.231   2.812   7.246
 5664SOL    HW117438   3.270   2.901   7.266
 5664SOL    HW217439   3.241   2.792   7.149
 5665SOL     OW17440   2.677   2.434   5.911
 5665SOL    HW117441   2.684   2.345   5.865
 5665SOL    HW217442   2.583   2.468   5.903
 5666SOL     OW17443   3.519   2.466   6.792
 5666SOL    HW117444   3.481   2.397   6.854
 5666SOL    HW217445   3.601   2.430   6.748
 5667SOL     OW17446   2.114   3.426   7.330
 5667SOL    HW117447   2.084   3.483   7.406
 5667SOL    HW217448   2.107   3.329   7.356
 5668SOL     OW17449   2.792   3.540   7.051
 5668SOL    HW117450   2.768   3.522   6.956
 5668SOL    HW217451   2.822   3.634   7.061
 5669SOL     OW17452   2.335   2.362   5.777
 5669SOL    HW117453   2.396   2.442   5.781
 5669SOL    HW217454   2.240   2.393   5.784
 5670SOL     OW17455   2.021   2.999   7.052
 5670SOL    HW117456   2.043   2.938   7.128
 5670SOL    HW217457   2.031   2.950   6.966
 5671SOL     OW17458   3.209   2.921   6.820
 5671SOL    HW117459   3.233   2.858   6.746
 5671SOL    HW217460   3.119   2.961   6.802
 5672SOL     OW17461   3.164   2.717   5.895
 5672SOL    HW117462   3.078   2.686   5.937
 5672SOL    HW217463   3.160   2.703   5.796
 5673SOL     OW17464   3.621   3.609   6.740
 5673SOL    HW117465   3.682   3.639   6.667
 5673SOL    HW217466   3.583   3.520   6.718
 5674SOL     OW17467   3.114   3.593   6.714
 5674SOL    HW117468   3.198   3.598   6.660
 5674SOL    HW217469   3.091   3.497   6.732
 5675SOL     OW17470   1.945   3.120   6.608
 5675SOL    HW117471   1.940   3.119   6.708
 5675SOL    HW217472   1.862   3.079   6.570
 5676SOL     OW17473   2.550   3.524   7.302
 5676SOL    HW117474   2.494   3.605   7.311
 5676SOL    HW217475   2.602   3.528   7.216
 5677SOL     OW17476   3.588   1.997   6.109
 5677SOL    HW117477   3.661   1.980   6.042
 5677SOL    HW217478   3.557   1.910   6.147
 5678SOL     OW17479   3.250   3.435   6.063
 5678SOL    HW117480   3.317   3.447   5.989
 5678SOL    HW217481   3.210   3.524   6.086
 5679SOL     OW17482   1.992   3.656   7.437
 5679SOL    HW117483   1.951   3.582   7.490
 5679SOL    HW217484   2.056   3.707   7.495
 5680SOL     OW17485   3.142   2.789   6.258
 5680SOL    HW117486   3.202   2.708   6.260
 5680SOL    HW217487   3.182   2.858   6.198
 5681SOL     OW17488   2.692   3.135   7.008
 5681SOL    HW117489   2.687   3.168   7.103
 5681SOL    HW217490   2.606   3.154   6.962
 5682SOL     OW17491   2.534   3.478   5.740
 5682SOL    HW117492   2.543   3.488   5.641
 5682SOL    HW217493   2.494   3.389   5.761
 5683SOL     OW17494   3.512   3.582   6.980
 5683SOL    HW117495   3.565   3.592   6.896
 5683SOL    HW217496   3.485   3.672   7.014
 5684SOL     OW17497   3.703   2.037   6.549
 5684SOL    HW117498   3.742   1.952   6.513
 5684SOL    HW217499   3.605   2.039   6.530
 5685SOL     OW17500   3.056   3.474   5.617
 5685SOL    HW117501   3.062   3.381   5.654
 5685SOL    HW217502   2.997   3.474   5.537
 5686SOL     OW17503   2.684   2.864   6.958
 5686SOL    HW117504   2.724   2.863   6.866
 5686SOL    HW217505   2.694   2.956   6.998
 5687SOL     OW17506   2.778   2.772   5.877
 5687SOL    HW117507   2.841   2.810   5.809
 5687SOL    HW217508   2.818   2.689   5.916
 5688SOL     OW17509   3.366   3.469   5.630
 5688SOL    HW117510   3.274   3.506   5.637
 5688SOL    HW217511   3.404   3.489   5.540
 5689SOL     OW17512   2.234   3.150   7.076
 5689SOL    HW117513   2.221   3.243   7.042
 5689SOL    HW217514   2.150   3.098   7.063
 5690SOL     OW17515   3.476   3.154   6.875
 5690SOL    HW117516   3.536   3.157   6.955
 5690SOL    HW217517   3.401   3.218   6.888
 5691SOL     OW17518   2.901   2.960   6.282
 5691SOL    HW117519   2.831   2.913   6.336
 5691SOL    HW217520   2.960   2.892   6.239
 5692SOL     OW17521   2.452   3.349   6.077
 5692SOL    HW117522   2.494   3.291   6.007
 5692SOL    HW217523   2.408   3.428   6.033
 5693SOL     OW17524   3.571   2.247   6.967
 5693SOL    HW117525   3.644   2.316   6.971
 5693SOL    HW217526   3.599   2.172   6.908
 5694SOL     OW17527   2.117   3.210   5.876
 5694SOL    HW117528   2.021   3.211   5.849
 5694SOL    HW217529   2.129   3.263   5.960
 5695SOL     OW17530   1.967   2.875   7.312
 5695SOL    HW117531   1.890   2.842   7.366
 5695SOL    HW217532   2.052   2.845   7.354
 5696SOL     OW17533   1.937   2.207   5.619
 5696SOL    HW117534   1.845   2.179   5.590
 5696SOL    HW217535   1.968   2.284   5.563
 5697SOL     OW17536   3.302   2.718   6.984
 5697SOL    HW117537   3.245   2.770   6.921
 5697SOL    HW217538   3.398   2.730   6.960
 5698SOL     OW17539   3.045   3.197   5.705
 5698SOL    HW117540   2.946   3.186   5.707
 5698SOL    HW217541   3.079   3.212   5.798
 5699SOL     OW17542   3.355   3.629   6.545
 5699SOL    HW117543   3.388   3.693   6.476
 5699SOL    HW217544   3.421   3.623   6.620
 5700SOL     OW17545   3.312   3.082   7.219
 5700SOL    HW117546   3.303   3.072   7.318
 5700SOL    HW217547   3.408   3.075   7.193
 5701SOL     OW17548   2.252   3.603   7.146
 5701SOL    HW117549   2.161   3.644   7.144
 5701SOL    HW217550   2.245   3.509   7.178
 5702SOL     OW17551   3.536   2.745   6.840
 5702SOL    HW117552   3.509   2.656   6.803
 5702SOL    HW217553   3.537   2.813   6.767
 5703SOL     OW17554   3.087   2.187   6.035
 5703SOL    HW117555   3.152   2.113   6.024
 5703SOL    HW217556   3.107   2.237   6.119
 5704SOL     OW17557   2.456   2.607   6.238
 5704SOL    HW117558   2.506   2.692   6.219
 5704SOL    HW217559   2.368   2.609   6.190
 5705SOL     OW17560   3.639   2.204   7.228
 5705SOL    HW117561   3.622   2.235   7.134
 5705SOL    HW217562   3.555   2.167   7.266
 5706SOL     OW17563   3.592   2.796   7.103
 5706SOL    HW117564   3.630   2.887   7.118
 5706SOL    HW217565   3.584   2.779   7.004
 5707SOL     OW17566   2.721   3.236   5.602
 5707SOL    HW117567   2.675   3.251   5.690
 5707SOL    HW217568   2.765   3.321   5.572
 5708SOL     OW17569   2.523   3.652   6.539
 5708SOL    HW117570   2.477   3.740   6.526
 5708SOL    HW217571   2.622   3.664   6.532
 5709SOL     OW17572   2.721   2.818   6.447
 5709SOL    HW117573   2.775   2.749   6.495
 5709SOL    HW217574   2.689   2.887   6.513
 5710SOL     OW17575   2.945   2.846   5.673
 5710SOL    HW117576   2.922   2.899   5.591
 5710SOL    HW217577   3.026   2.790   5.654
 5711SOL     OW17578   3.723   3.431   6.437
 5711SOL    HW117579   3.652   3.419   6.367
 5711SOL    HW217580   3.724   3.352   6.497
 5712SOL     OW17581   2.083   3.176   7.430
 5712SOL    HW117582   2.018   3.103   7.409
 5712SOL    HW217583   2.087   3.190   7.528
 5713SOL     OW17584   1.941   3.102   6.239
 5713SOL    HW117585   1.940   3.055   6.327
 5713SOL    HW217586   2.023   3.074   6.188
 5714SOL     OW17587   2.534   3.253   7.210
 5714SOL    HW117588   2.456   3.203   7.248
 5714SOL    HW217589   2.531   3.348   7.241
 5715SOL     OW17590   3.686   2.054   6.813
 5715SOL    HW117591   3.682   1.964   6.857
 5715SOL    HW217592   3.689   2.043   6.714
 5716SOL     OW17593   2.290   2.286   6.106
 5716SOL    HW117594   2.320   2.214   6.044
 5716SOL    HW217595   2.251   2.246   6.189
 5717SOL     OW17596   3.567   3.349   6.690
 5717SOL    HW117597   3.474   3.324   6.663
 5717SOL    HW217598   3.593   3.299   6.772
 5718SOL     OW17599   2.674   3.448   6.273
 5718SOL    HW117600   2.706   3.458   6.179
 5718SOL    HW217601   2.595   3.386   6.275
 5719SOL     OW17602   3.286   2.076   6.698
 5719SOL    HW117603   3.338   2.011   6.753
 5719SOL    HW217604   3.237   2.139   6.759
 5720SOL     OW17605   2.632   3.192   5.887
 5720SOL    HW117606   2.586   3.105   5.904
 5720SOL    HW217607   2.723   3.189   5.928
 5721SOL     OW17608   2.480   3.429   6.870
 5721SOL    HW117609   2.475   3.511   6.927
 5721SOL    HW217610   2.569   3.426   6.825
 5722SOL     OW17611   3.214   1.914   5.754
 5722SOL    HW117612   3.249   1.873   5.670
 5722SOL    HW217613   3.124   1.876   5.774
 5723SOL     OW17614   3.162   2.315   6.277
 5723SOL    HW117615   3.103   2.395   6.281
 5723SOL    HW217616   3.177   2.280   6.370
 5724SOL     OW17617   3.455   2.083   6.468
 5724SOL    HW117618   3.371   2.082   6.522
 5724SOL    HW217619   3.457   2.166   6.412
 5725SOL     OW17620   1.901   2.939   5.886
 5725SOL    HW117621   2.000   2.928   5.877
 5725SOL    HW217622   1.861   2.853   5.918
 5726SOL     OW17623   2.737   3.508   5.923
 5726SOL    HW117624   2.660   3.473   5.869
 5726SOL    HW217625   2.705   3.579   5.985
 5727SOL     OW17626   1.881   2.230   8.095
 5727SOL    HW117627   1.799   2.273   8.134
 5727SOL    HW217628   1.853   2.157   8.032
 5728SOL     OW17629   2.431   3.137   8.613
 5728SOL    HW117630   2.338   3.130   8.576
 5728SOL    HW217631   2.442   3.226   8.657
 5729SOL     OW17632   3.417   3.373   8.151
 5729SOL    HW117633   3.360   3.357   8.232
 5729SOL    HW217634   3.358   3.383   8.071
 5730SOL     OW17635   2.997   2.565   8.165
 5730SOL    HW117636   3.054   2.643   8.140
 5730SOL    HW217637   2.937   2.591   8.241
 5731SOL     OW17638   3.617   2.469   7.679
 5731SOL    HW117639   3.605   2.456   7.580
 5731SOL    HW217640   3.587   2.388   7.728
 5732SOL     OW17641   2.630   3.006   8.471
 5732SOL    HW117642   2.552   3.023   8.531
 5732SOL    HW217643   2.664   3.093   8.435
 5733SOL     OW17644   2.712   2.660   9.271
 5733SOL    HW117645   2.708   2.736   9.336
 5733SOL    HW217646   2.734   2.696   9.180
 5734SOL     OW17647   2.547   2.874   8.113
 5734SOL    HW117648   2.616   2.858   8.183
 5734SOL    HW217649   2.474   2.931   8.151
 5735SOL     OW17650   2.548   3.023   9.251
 5735SOL    HW117651   2.608   3.102   9.265
 5735SOL    HW217652   2.462   3.054   9.210
 5736SOL     OW17653   2.197   3.297   8.509
 5736SOL    HW117654   2.119   3.266   8.456
 5736SOL    HW217655   2.255   3.355   8.452
 5737SOL     OW17656   3.322   3.367   8.787
 5737SOL    HW117657   3.346   3.461   8.813
 5737SOL    HW217658   3.306   3.313   8.869
 5738SOL     OW17659   2.300   2.254   8.947
 5738SOL    HW117660   2.382   2.198   8.956
 5738SOL    HW217661   2.219   2.196   8.951
 5739SOL     OW17662   3.465   2.309   8.185
 5739SOL    HW117663   3.391   2.355   8.135
 5739SOL    HW217664   3.516   2.377   8.238
 5740SOL     OW17665   2.093   3.575   7.931
 5740SOL    HW117666   2.127   3.652   7.985
 5740SOL    HW217667   2.137   3.575   7.841
 5741SOL     OW17668   2.989   3.203   9.138
 5741SOL    HW117669   3.036   3.203   9.226
 5741SOL    HW217670   2.941   3.116   9.127
 5742SOL     OW17671   2.092   3.296   7.986
 5742SOL    HW117672   2.066   3.392   7.986
 5742SOL    HW217673   2.021   3.242   8.031
 5743SOL     OW17674   2.102   2.953   8.334
 5743SOL    HW117675   2.116   2.869   8.386
 5743SOL    HW217676   2.047   3.017   8.389
 5744SOL     OW17677   2.482   3.648   8.887
 5744SOL    HW117678   2.390   3.631   8.922
 5744SOL    HW217679   2.510   3.740   8.913
 5745SOL     OW17680   2.468   2.826   7.571
 5745SOL    HW117681   2.475   2.910   7.517
 5745SOL    HW217682   2.514   2.839   7.659
 5746SOL     OW17683   3.456   1.976   8.928
 5746SOL    HW117684   3.438   2.043   8.856
 5746SOL    HW217685   3.453   2.022   9.017
 5747SOL     OW17686   1.984   2.505   8.011
 5747SOL    HW117687   1.939   2.417   8.028
 5747SOL    HW217688   1.983   2.559   8.095
 5748SOL     OW17689   3.704   3.629   7.807
 5748SOL    HW117690   3.758   3.600   7.887
 5748SOL    HW217691   3.734   3.719   7.778
 5749SOL     OW17692   1.889   3.458   7.565
 5749SOL    HW117693   1.870   3.362   7.586
 5749SOL    HW217694   1.856   3.516   7.640
 5750SOL     OW17695   3.551   2.784   8.060
 5750SOL    HW117696   3.646   2.755   8.068
 5750SOL    HW217697   3.543   2.849   7.985
 5751SOL     OW17698   3.503   2.970   7.880
 5751SOL    HW117699   3.589   2.972   7.828
 5751SOL    HW217700   3.517   3.017   7.968
 5752SOL     OW17701   1.975   2.599   9.045
 5752SOL    HW117702   2.063   2.586   9.090
 5752SOL    HW217703   1.962   2.696   9.023
 5753SOL     OW17704   2.475   3.227   8.174
 5753SOL    HW117705   2.426   3.140   8.183
 5753SOL    HW217706   2.452   3.270   8.087
 5754SOL     OW17707   3.155   3.090   8.871
 5754SOL    HW117708   3.192   3.017   8.813
 5754SOL    HW217709   3.207   3.095   8.956
 5755SOL     OW17710   2.671   1.866   7.950
 5755SOL    HW117711   2.711   1.957   7.941
 5755SOL    HW217712   2.571   1.874   7.956
 5756SOL     OW17713   2.059   2.838   8.712
 5756SOL    HW117714   2.148   2.793   8.698
 5756SOL    HW217715   1.986   2.773   8.693
 5757SOL     OW17716   3.387   2.861   7.638
 5757SOL    HW117717   3.324   2.785   7.651
 5757SOL    HW217718   3.435   2.879   7.724
 5758SOL     OW17719   3.049   3.654   9.064
 5758SOL    HW117720   3.073   3.714   8.988
 5758SOL    HW217721   3.056   3.559   9.034
 5759SOL     OW17722   2.179   2.113   9.249
 5759SOL    HW117723   2.250   2.184   9.255
 5759SOL    HW217724   2.091   2.152   9.277
 5760SOL     OW17725   3.328   3.279   8.401
 5760SOL    HW117726   3.269   3.285   8.481
 5760SOL    HW217727   3.313   3.191   8.355
 5761SOL     OW17728   3.529   3.576   8.020
 5761SOL    HW117729   3.488   3.553   7.932
 5761SOL    HW217730   3.511   3.502   8.085
 5762SOL     OW17731   2.460   2.591   7.718
 5762SOL    HW117732   2.484   2.660   7.650
 5762SOL    HW217733   2.382   2.624   7.772
 5763SOL     OW17734   3.143   2.207   8.392
 5763SOL    HW117735   3.057   2.157   8.379
 5763SOL    HW217736   3.205   2.153   8.448
 5764SOL     OW17737   3.438   3.524   7.755
 5764SOL    HW117738   3.527   3.570   7.758
 5764SOL    HW217739   3.417   3.500   7.660
 5765SOL     OW17740   2.669   2.467   8.913
 5765SOL    HW117741   2.622   2.464   9.002
 5765SOL    HW217742   2.618   2.412   8.847
 5766SOL     OW17743   3.256   2.331   9.122
 5766SOL    HW117744   3.236   2.374   9.210
 5766SOL    HW217745   3.334   2.269   9.131
 5767SOL     OW17746   2.835   2.752   9.020
 5767SOL    HW117747   2.881   2.668   8.991
 5767SOL    HW217748   2.779   2.786   8.945
 5768SOL     OW17749   2.853   2.272   8.690
 5768SOL    HW117750   2.776   2.306   8.744
 5768SOL    HW217751   2.819   2.221   8.611
 5769SOL     OW17752   2.903   2.563   7.877
 5769SOL    HW117753   2.929   2.559   7.973
 5769SOL    HW217754   2.818   2.512   7.863
 5770SOL     OW17755   1.938   2.673   8.237
 5770SOL    HW117756   2.037   2.661   8.246
 5770SOL    HW217757   1.914   2.768   8.258
 5771SOL     OW17758   1.992   3.683   9.019
 5771SOL    HW117759   1.982   3.668   9.118
 5771SOL    HW217760   1.906   3.719   8.983
 5772SOL     OW17761   2.727   2.210   7.643
 5772SOL    HW117762   2.786   2.273   7.594
 5772SOL    HW217763   2.746   2.116   7.614
 5773SOL     OW17764   3.581   2.447   9.279
 5773SOL    HW117765   3.555   2.536   9.243
 5773SOL    HW217766   3.579   2.379   9.206
 5774SOL     OW17767   3.224   3.006   7.993
 5774SOL    HW117768   3.307   2.977   7.945
 5774SOL    HW217769   3.175   3.073   7.937
 5775SOL     OW17770   2.412   2.058   8.333
 5775SOL    HW117771   2.407   2.053   8.433
 5775SOL    HW217772   2.414   2.154   8.304
 5776SOL     OW17773   2.870   3.318   7.925
 5776SOL    HW117774   2.824   3.390   7.873
 5776SOL    HW217775   2.866   3.338   8.023
 5777SOL     OW17776   2.213   3.663   8.301
 5777SOL    HW117777   2.263   3.577   8.307
 5777SOL    HW217778   2.278   3.740   8.298
 5778SOL     OW17779   3.657   2.928   8.321
 5778SOL    HW117780   3.595   2.913   8.245
 5778SOL    HW217781   3.605   2.939   8.406
 5779SOL     OW17782   3.089   3.412   8.954
 5779SOL    HW117783   3.095   3.335   9.018
 5779SOL    HW217784   3.037   3.386   8.874
 5780SOL     OW17785   2.183   2.805   7.690
 5780SOL    HW117786   2.265   2.844   7.648
 5780SOL    HW217787   2.156   2.723   7.641
 5781SOL     OW17788   3.320   2.597   8.176
 5781SOL    HW117789   3.315   2.532   8.251
 5781SOL    HW217790   3.400   2.656   8.189
 5782SOL     OW17791   2.323   3.128   9.175
 5782SOL    HW117792   2.273   3.129   9.089
 5782SOL    HW217793   2.260   3.110   9.251
 5783SOL     OW17794   2.973   3.638   7.685
 5783SOL    HW117795   2.913   3.576   7.735
 5783SOL    HW217796   3.004   3.594   7.600
 5784SOL     OW17797   3.494   3.239   7.529
 5784SOL    HW117798   3.462   3.333   7.519
 5784SOL    HW217799   3.418   3.176   7.517
 5785SOL     OW17800   2.326   3.605   7.771
 5785SOL    HW117801   2.359   3.644   7.857
 5785SOL    HW217802   2.402   3.598   7.706
 5786SOL     OW17803   3.262   1.969   7.874
 5786SOL    HW117804   3.238   1.932   7.784
 5786SOL    HW217805   3.361   1.985   7.878
 5787SOL     OW17806   2.111   3.647   8.689
 5787SOL    HW117807   2.168   3.582   8.739
 5787SOL    HW217808   2.095   3.614   8.596
 5788SOL     OW17809   2.802   3.560   8.352
 5788SOL    HW117810   2.882   3.503   8.373
 5788SOL    HW217811   2.753   3.520   8.275
 5789SOL     OW17812   2.244   2.562   7.928
 5789SOL    HW117813   2.289   2.472   7.925
 5789SOL    HW217814   2.150   2.551   7.961
 5790SOL     OW17815   3.409   2.084   9.177
 5790SOL    HW117816   3.404   2.121   9.269
 5790SOL    HW217817   3.337   2.015   9.165
 5791SOL     OW17818   2.476   1.984   7.565
 5791SOL    HW117819   2.574   1.962   7.572
 5791SOL    HW217820   2.445   1.967   7.472
 5792SOL     OW17821   2.643   2.126   9.197
 5792SOL    HW117822   2.710   2.065   9.240
 5792SOL    HW217823   2.570   2.145   9.262
 5793SOL     OW17824   2.750   3.376   8.643
 5793SOL    HW117825   2.727   3.351   8.549
 5793SOL    HW217826   2.811   3.307   8.682
 5794SOL     OW17827   3.213   2.452   8.881
 5794SOL    HW117828   3.241   2.409   8.966
 5794SOL    HW217829   3.238   2.548   8.882
 5795SOL     OW17830   2.665   3.264   8.372
 5795SOL    HW117831   2.755   3.278   8.330
 5795SOL    HW217832   2.594   3.266   8.301
 5796SOL     OW17833   2.784   2.365   8.347
 5796SOL    HW117834   2.759   2.356   8.251
 5796SOL    HW217835   2.832   2.283   8.378
 5797SOL     OW17836   2.401   1.926   7.960
 5797SOL    HW117837   2.320   1.927   8.018
 5797SOL    HW217838   2.404   2.009   7.905
 5798SOL     OW17839   3.296   3.050   7.489
 5798SOL    HW117840   3.328   2.974   7.546
 5798SOL    HW217841   3.204   3.077   7.519
 5799SOL     OW17842   2.797   2.098   7.928
 5799SOL    HW117843   2.749   2.139   7.850
 5799SOL    HW217844   2.896   2.096   7.909
 5800SOL     OW17845   2.938   2.545   8.912
 5800SOL    HW117846   2.858   2.484   8.915
 5800SOL    HW217847   3.019   2.492   8.888
 5801SOL     OW17848   3.089   3.432   8.241
 5801SOL    HW117849   3.110   3.506   8.176
 5801SOL    HW217850   3.157   3.432   8.314
 5802SOL     OW17851   2.321   3.014   8.189
 5802SOL    HW117852   2.250   2.987   8.254
 5802SOL    HW217853   2.295   2.986   8.096
 5803SOL     OW17854   3.133   3.659   8.039
 5803SOL    HW117855   3.177   3.723   7.975
 5803SOL    HW217856   3.083   3.711   8.109
 5804SOL     OW17857   2.894   2.411   7.464
 5804SOL    HW117858   2.853   2.493   7.425
 5804SOL    HW217859   2.958   2.437   7.537
 5805SOL     OW17860   1.940   2.418   8.834
 5805SOL    HW117861   2.032   2.417   8.793
 5805SOL    HW217862   1.934   2.492   8.901
 5806SOL     OW17863   2.423   2.084   8.595
 5806SOL    HW117864   2.461   2.000   8.632
 5806SOL    HW217865   2.335   2.103   8.639
 5807SOL     OW17866   2.728   2.316   8.090
 5807SOL    HW117867   2.696   2.388   8.028
 5807SOL    HW217868   2.752   2.235   8.037
 5808SOL     OW17869   2.879   1.901   8.201
 5808SOL    HW117870   2.807   1.906   8.132
 5808SOL    HW217871   2.855   1.832   8.270
 5809SOL     OW17872   3.291   3.035   8.315
 5809SOL    HW117873   3.236   2.951   8.308
 5809SOL    HW217874   3.317   3.064   8.223
 5810SOL     OW17875   3.328   2.452   8.440
 5810SOL    HW117876   3.298   2.357   8.447
 5810SOL    HW217877   3.401   2.468   8.506
 5811SOL     OW17878   3.719   2.695   7.825
 5811SOL    HW117879   3.761   2.631   7.889
 5811SOL    HW217880   3.681   2.644   7.747
 5812SOL     OW17881   2.350   3.247   7.622
 5812SOL    HW117882   2.263   3.232   7.669
 5812SOL    HW217883   2.333   3.273   7.527
 5813SOL     OW17884   3.526   3.142   8.105
 5813SOL    HW117885   3.625   3.150   8.119
 5813SOL    HW217886   3.481   3.226   8.136
 5814SOL     OW17887   3.252   2.437   7.526
 5814SOL    HW117888   3.198   2.416   7.607
 5814SOL    HW217889   3.343   2.396   7.535
 5815SOL     OW17890   2.389   2.118   7.776
 5815SOL    HW117891   2.416   2.059   7.701
 5815SOL    HW217892   2.389   2.213   7.745
 5816SOL     OW17893   3.616   3.085   9.036
 5816SOL    HW117894   3.707   3.046   9.023
 5816SOL    HW217895   3.624   3.181   9.060
 5817SOL     OW17896   2.926   3.209   8.788
 5817SOL    HW117897   2.846   3.186   8.843
 5817SOL    HW217898   3.009   3.183   8.837
 5818SOL     OW17899   3.454   3.491   9.073
 5818SOL    HW117900   3.481   3.525   8.983
 5818SOL    HW217901   3.533   3.453   9.119
 5819SOL     OW17902   2.973   3.057   8.548
 5819SOL    HW117903   2.933   3.101   8.629
 5819SOL    HW217904   2.932   3.094   8.465
 5820SOL     OW17905   3.500   2.961   8.527
 5820SOL    HW117906   3.505   3.042   8.586
 5820SOL    HW217907   3.414   2.963   8.476
 5821SOL     OW17908   2.777   1.951   8.850
 5821SOL    HW117909   2.802   1.931   8.755
 5821SOL    HW217910   2.849   2.007   8.892
 5822SOL     OW17911   2.842   2.978   9.167
 5822SOL    HW117912   2.743   2.984   9.177
 5822SOL    HW217913   2.865   2.898   9.111
 5823SOL     OW17914   2.567   2.912   7.816
 5823SOL    HW117915   2.553   2.919   7.915
 5823SOL    HW217916   2.651   2.861   7.798
 5824SOL     OW17917   2.272   2.675   8.699
 5824SOL    HW117918   2.358   2.687   8.749
 5824SOL    HW217919   2.230   2.588   8.726
 5825SOL     OW17920   3.136   2.248   8.710
 5825SOL    HW117921   3.157   2.322   8.774
 5825SOL    HW217922   3.047   2.265   8.667
 5826SOL     OW17923   1.926   3.426   8.779
 5826SOL    HW117924   1.880   3.508   8.745
 5826SOL    HW217925   2.024   3.445   8.788
 5827SOL     OW17926   2.229   2.962   7.949
 5827SOL    HW117927   2.222   3.045   7.893
 5827SOL    HW217928   2.233   2.882   7.889
 5828SOL     OW17929   2.428   2.399   8.313
 5828SOL    HW117930   2.440   2.465   8.239
 5828SOL    HW217931   2.474   2.433   8.396
 5829SOL     OW17932   3.114   3.210   7.836
 5829SOL    HW117933   3.164   3.287   7.876
 5829SOL    HW217934   3.019   3.212   7.868
 5830SOL     OW17935   3.134   3.307   8.590
 5830SOL    HW117936   3.181   3.320   8.677
 5830SOL    HW217937   3.068   3.233   8.599
 5831SOL     OW17938   3.444   2.501   7.920
 5831SOL    HW117939   3.413   2.562   7.993
 5831SOL    HW217940   3.494   2.553   7.851
 5832SOL     OW17941   2.216   3.372   8.777
 5832SOL    HW117942   2.195   3.328   8.690
 5832SOL    HW217943   2.313   3.398   8.780
 5833SOL     OW17944   2.264   2.613   9.046
 5833SOL    HW117945   2.332   2.668   8.999
 5833SOL    HW217946   2.304   2.525   9.073
 5834SOL     OW17947   3.449   2.641   9.118
 5834SOL    HW117948   3.357   2.679   9.113
 5834SOL    HW217949   3.509   2.688   9.053
 5835SOL     OW17950   2.875   1.967   9.218
 5835SOL    HW117951   2.881   2.052   9.166
 5835SOL    HW217952   2.907   1.891   9.161
 5836SOL     OW17953   2.366   1.912   9.188
 5836SOL    HW117954   2.324   1.855   9.118
 5836SOL    HW217955   2.300   1.981   9.220
 5837SOL     OW17956   2.435   2.732   8.477
 5837SOL    HW117957   2.479   2.821   8.468
 5837SOL    HW217958   2.372   2.732   8.554
 5838SOL     OW17959   3.222   2.724   8.493
 5838SOL    HW117960   3.147   2.724   8.427
 5838SOL    HW217961   3.259   2.632   8.502
 5839SOL     OW17962   3.071   2.387   7.723
 5839SOL    HW117963   3.084   2.303   7.777
 5839SOL    HW217964   3.042   2.461   7.783
 5840SOL     OW17965   2.169   2.075   8.679
 5840SOL    HW117966   2.146   2.112   8.769
 5840SOL    HW217967   2.139   1.980   8.673
 5841SOL     OW17968   1.899   3.172   8.730
 5841SOL    HW117969   1.952   3.123   8.798
 5841SOL    HW217970   1.921   3.270   8.735
 5842SOL     OW17971   2.594   2.496   8.512
 5842SOL    HW117972   2.653   2.470   8.436
 5842SOL    HW217973   2.566   2.592   8.501
 5843SOL     OW17974   3.590   2.797   9.302
 5843SOL    HW117975   3.544   2.790   9.213
 5843SOL    HW217976   3.528   2.841   9.368
 5844SOL     OW17977   3.484   2.229   7.822
 5844SOL    HW117978   3.486   2.153   7.886
 5844SOL    HW217979   3.436   2.306   7.862
 5845SOL     OW17980   2.885   2.628   8.414
 5845SOL    HW117981   2.900   2.649   8.510
 5845SOL    HW217982   2.855   2.533   8.405
 5846SOL     OW17983   2.842   3.435   9.148
 5846SOL    HW117984   2.822   3.479   9.060
 5846SOL    HW217985   2.881   3.344   9.132
 5847SOL     OW17986   3.721   3.380   9.053
 5847SOL    HW117987   3.735   3.407   8.958
 5847SOL    HW217988   3.804   3.402   9.106
 5848SOL     OW17989   2.212   2.760   9.252
 5848SOL    HW117990   2.288   2.804   9.300
 5848SOL    HW217991   2.247   2.713   9.170
 5849SOL     OW17992   3.402   2.136   7.573
 5849SOL    HW117993   3.341   2.061   7.596
 5849SOL    HW217994   3.424   2.188   7.656
 5850SOL     OW17995   3.165   2.700   7.490
 5850SOL    HW117996   3.199   2.607   7.505
 5850SOL    HW217997   3.183   2.727   7.395
 5851SOL     OW17998   2.930   3.195   8.297
 5851SOL    HW117999   2.937   3.111   8.242
 5851SOL    HW218000   2.992   3.264   8.261
 5852SOL     OW18001   2.181   2.672   8.397
 5852SOL    HW118002   2.274   2.708   8.402
 5852SOL    HW218003   2.175   2.587   8.449
 5853SOL     OW18004   2.201   2.371   8.454
 5853SOL    HW118005   2.149   2.288   8.437
 5853SOL    HW218006   2.278   2.376   8.390
 5854SOL     OW18007   3.000   2.242   9.126
 5854SOL    HW118008   2.955   2.305   9.190
 5854SOL    HW218009   3.093   2.273   9.109
 5855SOL     OW18010   3.022   2.069   8.925
 5855SOL    HW118011   3.022   2.133   9.002
 5855SOL    HW218012   3.050   2.117   8.842
 5856SOL     OW18013   1.870   3.188   7.648
 5856SOL    HW118014   1.777   3.209   7.617
 5856SOL    HW218015   1.880   3.089   7.661
 5857SOL     OW18016   1.950   3.663   8.375
 5857SOL    HW118017   1.908   3.577   8.348
 5857SOL    HW218018   2.044   3.666   8.341
 5858SOL     OW18019   2.366   3.430   8.358
 5858SOL    HW118020   2.432   3.504   8.367
 5858SOL    HW218021   2.410   3.351   8.316
 5859SOL     OW18022   2.864   2.658   8.686
 5859SOL    HW118023   2.905   2.626   8.772
 5859SOL    HW218024   2.768   2.631   8.683
 5860SOL     OW18025   1.902   2.406   8.562
 5860SOL    HW118026   1.987   2.373   8.521
 5860SOL    HW218027   1.915   2.421   8.660
 5861SOL     OW18028   2.051   2.382   9.170
 5861SOL    HW118029   2.110   2.342   9.100
 5861SOL    HW218030   1.993   2.453   9.129
 5862SOL     OW18031   3.231   2.812   9.108
 5862SOL    HW118032   3.270   2.901   9.128
 5862SOL    HW218033   3.241   2.792   9.011
 5863SOL     OW18034   2.677   2.434   7.773
 5863SOL    HW118035   2.684   2.345   7.727
 5863SOL    HW218036   2.583   2.468   7.765
 5864SOL     OW18037   3.519   2.466   8.654
 5864SOL    HW118038   3.481   2.397   8.716
 5864SOL    HW218039   3.601   2.430   8.610
 5865SOL     OW18040   2.114   3.426   9.192
 5865SOL    HW118041   2.084   3.483   9.268
 5865SOL    HW218042   2.107   3.329   9.218
 5866SOL     OW18043   2.533   2.326   8.717
 5866SOL    HW118044   2.499   2.237   8.687
 5866SOL    HW218045   2.559   2.380   8.637
 5867SOL     OW18046   2.792   3.540   8.913
 5867SOL    HW118047   2.768   3.522   8.818
 5867SOL    HW218048   2.822   3.634   8.923
 5868SOL     OW18049   2.335   2.362   7.639
 5868SOL    HW118050   2.396   2.442   7.643
 5868SOL    HW218051   2.240   2.393   7.646
 5869SOL     OW18052   2.021   2.999   8.914
 5869SOL    HW118053   2.043   2.938   8.990
 5869SOL    HW218054   2.031   2.950   8.828
 5870SOL     OW18055   3.209   2.921   8.682
 5870SOL    HW118056   3.233   2.858   8.608
 5870SOL    HW218057   3.119   2.961   8.664
 5871SOL     OW18058   3.164   2.717   7.757
 5871SOL    HW118059   3.078   2.686   7.799
 5871SOL    HW218060   3.160   2.703   7.658
 5872SOL     OW18061   3.621   3.609   8.602
 5872SOL    HW118062   3.682   3.639   8.529
 5872SOL    HW218063   3.583   3.520   8.580
 5873SOL     OW18064   3.114   3.593   8.576
 5873SOL    HW118065   3.198   3.598   8.522
 5873SOL    HW218066   3.091   3.497   8.594
 5874SOL     OW18067   1.945   3.120   8.470
 5874SOL    HW118068   1.940   3.119   8.570
 5874SOL    HW218069   1.862   3.079   8.432
 5875SOL     OW18070   2.550   3.524   9.164
 5875SOL    HW118071   2.494   3.605   9.173
 5875SOL    HW218072   2.602   3.528   9.078
 5876SOL     OW18073   3.588   1.997   7.971
 5876SOL    HW118074   3.661   1.980   7.904
 5876SOL    HW218075   3.557   1.910   8.009
 5877SOL     OW18076   3.250   3.435   7.925
 5877SOL    HW118077   3.317   3.447   7.851
 5877SOL    HW218078   3.210   3.524   7.948
 5878SOL     OW18079   1.992   3.656   9.299
 5878SOL    HW118080   1.951   3.582   9.352
 5878SOL    HW218081   2.056   3.707   9.357
 5879SOL     OW18082   3.142   2.789   8.120
 5879SOL    HW118083   3.202   2.708   8.122
 5879SOL    HW218084   3.182   2.858   8.060
 5880SOL     OW18085   2.692   3.135   8.870
 5880SOL    HW118086   2.687   3.168   8.965
 5880SOL    HW218087   2.606   3.154   8.824
 5881SOL     OW18088   2.534   3.478   7.602
 5881SOL    HW118089   2.543   3.488   7.503
 5881SOL    HW218090   2.494   3.389   7.623
 5882SOL     OW18091   3.512   3.582   8.842
 5882SOL    HW118092   3.565   3.592   8.758
 5882SOL    HW218093   3.485   3.672   8.876
 5883SOL     OW18094   3.703   2.037   8.411
 5883SOL    HW118095   3.742   1.952   8.375
 5883SOL    HW218096   3.605   2.039   8.392
 5884SOL     OW18097   3.056   3.474   7.479
 5884SOL    HW118098   3.062   3.381   7.516
 5884SOL    HW218099   2.997   3.474   7.399
 5885SOL     OW18100   2.684   2.864   8.820
 5885SOL    HW118101   2.724   2.863   8.728
 5885SOL    HW218102   2.694   2.956   8.860
 5886SOL     OW18103   2.778   2.772   7.739
 5886SOL    HW118104   2.841   2.810   7.671
 5886SOL    HW218105   2.818   2.689   7.778
 5887SOL     OW18106   3.366   3.469   7.492
 5887SOL    HW118107   3.274   3.506   7.499
 5887SOL    HW218108   3.404   3.489   7.402
 5888SOL     OW18109   2.234   3.150   8.938
 5888SOL    HW118110   2.221   3.243   8.904
 5888SOL    HW218111   2.150   3.098   8.925
 5889SOL     OW18112   3.476   3.154   8.737
 5889SOL    HW118113   3.536   3.157   8.817
 5889SOL    HW218114   3.401   3.218   8.750
 5890SOL     OW18115   2.901   2.960   8.144
 5890SOL    HW118116   2.831   2.913   8.198
 5890SOL    HW218117   2.960   2.892   8.101
 5891SOL     OW18118   2.876   2.098   8.419
 5891SOL    HW118119   2.868   2.062   8.326
 5891SOL    HW218120   2.874   2.022   8.484
 5892SOL     OW18121   2.452   3.349   7.939
 5892SOL    HW118122   2.494   3.291   7.869
 5892SOL    HW218123   2.408   3.428   7.895
 5893SOL     OW18124   3.571   2.247   8.829
 5893SOL    HW118125   3.644   2.316   8.833
 5893SOL    HW218126   3.599   2.172   8.770
 5894SOL     OW18127   2.117   3.210   7.738
 5894SOL    HW118128   2.021   3.211   7.711
 5894SOL    HW218129   2.129   3.263   7.822
 5895SOL     OW18130   1.967   2.875   9.174
 5895SOL    HW118131   1.890   2.842   9.228
 5895SOL    HW218132   2.052   2.845   9.216
 5896SOL     OW18133   2.534   2.065   8.937
 5896SOL    HW118134   2.624   2.049   8.897
 5896SOL    HW218135   2.542   2.070   9.036
 5897SOL     OW18136   3.302   2.718   8.846
 5897SOL    HW118137   3.245   2.770   8.783
 5897SOL    HW218138   3.398   2.730   8.822
 5898SOL     OW18139   3.045   3.197   7.567
 5898SOL    HW118140   2.946   3.186   7.569
 5898SOL    HW218141   3.079   3.212   7.660
 5899SOL     OW18142   2.475   2.704   8.879
 5899SOL    HW118143   2.531   2.785   8.862
 5899SOL    HW218144   2.534   2.624   8.882
 5900SOL     OW18145   3.355   3.629   8.407
 5900SOL    HW118146   3.388   3.693   8.338
 5900SOL    HW218147   3.421   3.623   8.482
 5901SOL     OW18148   2.578   2.427   9.156
 5901SOL    HW118149   2.597   2.492   9.230
 5901SOL    HW218150   2.638   2.347   9.165
 5902SOL     OW18151   3.312   3.082   9.081
 5902SOL    HW118152   3.303   3.072   9.180
 5902SOL    HW218153   3.408   3.075   9.055
 5903SOL     OW18154   2.252   3.603   9.008
 5903SOL    HW118155   2.161   3.644   9.006
 5903SOL    HW218156   2.245   3.509   9.040
 5904SOL     OW18157   3.536   2.745   8.702
 5904SOL    HW118158   3.509   2.656   8.665
 5904SOL    HW218159   3.537   2.813   8.629
 5905SOL     OW18160   3.087   2.187   7.897
 5905SOL    HW118161   3.152   2.113   7.886
 5905SOL    HW218162   3.107   2.237   7.981
 5906SOL     OW18163   2.456   2.607   8.100
 5906SOL    HW118164   2.506   2.692   8.081
 5906SOL    HW218165   2.368   2.609   8.052
 5907SOL     OW18166   3.639   2.204   9.090
 5907SOL    HW118167   3.622   2.235   8.996
 5907SOL    HW218168   3.555   2.167   9.128
 5908SOL     OW18169   3.592   2.796   8.965
 5908SOL    HW118170   3.630   2.887   8.980
 5908SOL    HW218171   3.584   2.779   8.866
 5909SOL     OW18172   2.721   3.236   7.464
 5909SOL    HW118173   2.675   3.251   7.552
 5909SOL    HW218174   2.765   3.321   7.434
 5910SOL     OW18175   2.523   3.652   8.401
 5910SOL    HW118176   2.477   3.740   8.388
 5910SOL    HW218177   2.622   3.664   8.394
 5911SOL     OW18178   2.721   2.818   8.309
 5911SOL    HW118179   2.775   2.749   8.357
 5911SOL    HW218180   2.689   2.887   8.375
 5912SOL     OW18181   2.945   2.846   7.535
 5912SOL    HW118182   2.922   2.899   7.453
 5912SOL    HW218183   3.026   2.790   7.516
 5913SOL     OW18184   3.723   3.431   8.299
 5913SOL    HW118185   3.652   3.419   8.229
 5913SOL    HW218186   3.724   3.352   8.359
 5914SOL     OW18187   2.083   3.176   9.292
 5914SOL    HW118188   2.018   3.103   9.271
 5914SOL    HW218189   2.087   3.190   9.390
 5915SOL     OW18190   1.941   3.102   8.101
 5915SOL    HW118191   1.940   3.055   8.189
 5915SOL    HW218192   2.023   3.074   8.050
 5916SOL     OW18193   2.534   3.253   9.072
 5916SOL    HW118194   2.456   3.203   9.110
 5916SOL    HW218195   2.531   3.348   9.103
 5917SOL     OW18196   3.686   2.054   8.675
 5917SOL    HW118197   3.682   1.964   8.719
 5917SOL    HW218198   3.689   2.043   8.576
 5918SOL     OW18199   2.290   2.286   7.968
 5918SOL    HW118200   2.320   2.214   7.906
 5918SOL    HW218201   2.251   2.246   8.051
 5919SOL     OW18202   3.567   3.349   8.552
 5919SOL    HW118203   3.474   3.324   8.525
 5919SOL    HW218204   3.593   3.299   8.634
 5920SOL     OW18205   2.179   2.409   8.728
 5920SOL    HW118206   2.217   2.350   8.800
 5920SOL    HW218207   2.219   2.383   8.640
 5921SOL     OW18208   2.674   3.448   8.135
 5921SOL    HW118209   2.706   3.458   8.041
 5921SOL    HW218210   2.595   3.386   8.137
 5922SOL     OW18211   3.286   2.076   8.560
 5922SOL    HW118212   3.338   2.011   8.615
 5922SOL    HW218213   3.237   2.139   8.621
 5923SOL     OW18214   2.863   1.896   8.602
 5923SOL    HW118215   2.800   1.824   8.571
 5923SOL    HW218216   2.956   1.860   8.602
 5924SOL     OW18217   2.632   3.192   7.749
 5924SOL    HW118218   2.586   3.105   7.766
 5924SOL    HW218219   2.723   3.189   7.790
 5925SOL     OW18220   2.480   3.429   8.732
 5925SOL    HW118221   2.475   3.511   8.789
 5925SOL    HW218222   2.569   3.426   8.687
 5926SOL     OW18223   3.214   1.914   7.616
 5926SOL    HW118224   3.249   1.873   7.532
 5926SOL    HW218225   3.124   1.876   7.636
 5927SOL     OW18226   3.162   2.315   8.139
 5927SOL    HW118227   3.103   2.395   8.143
 5927SOL    HW218228   3.177   2.280   8.232
 5928SOL     OW18229   3.455   2.083   8.330
 5928SOL    HW118230   3.371   2.082   8.384
 5928SOL    HW218231   3.457   2.166   8.274
 5929SOL     OW18232   1.901   2.939   7.748
 5929SOL    HW118233   2.000   2.928   7.739
 5929SOL    HW218234   1.861   2.853   7.780
 5930SOL     OW18235   2.737   3.508   7.785
 5930SOL    HW118236   2.660   3.473   7.731
 5930SOL    HW218237   2.705   3.579   7.847
 5931SOL     OW18238   2.092   2.490   9.423
 5931SOL    HW118239   1.999   2.488   9.460
 5931SOL    HW218240   2.093   2.451   9.331
 5932SOL     OW18241   1.881   2.230   9.957
 5932SOL    HW118242   1.799   2.273   9.996
 5932SOL    HW218243   1.853   2.157   9.894
 5933SOL     OW18244   2.431   3.137  10.475
 5933SOL    HW118245   2.338   3.130  10.438
 5933SOL    HW218246   2.442   3.226  10.519
 5934SOL     OW18247   3.417   3.373  10.013
 5934SOL    HW118248   3.360   3.357  10.094
 5934SOL    HW218249   3.358   3.383   9.933
 5935SOL     OW18250   2.997   2.565  10.027
 5935SOL    HW118251   3.054   2.643  10.002
 5935SOL    HW218252   2.937   2.591  10.103
 5936SOL     OW18253   3.617   2.469   9.541
 5936SOL    HW118254   3.605   2.456   9.442
 5936SOL    HW218255   3.587   2.388   9.590
 5937SOL     OW18256   2.630   3.006  10.333
 5937SOL    HW118257   2.552   3.023  10.393
 5937SOL    HW218258   2.664   3.093  10.297
 5938SOL     OW18259   2.712   2.660  11.133
 5938SOL    HW118260   2.708   2.736  11.198
 5938SOL    HW218261   2.734   2.696  11.042
 5939SOL     OW18262   2.547   2.874   9.975
 5939SOL    HW118263   2.616   2.858  10.045
 5939SOL    HW218264   2.474   2.931  10.013
 5940SOL     OW18265   2.548   3.023  11.113
 5940SOL    HW118266   2.608   3.102  11.127
 5940SOL    HW218267   2.462   3.054  11.072
 5941SOL     OW18268   2.197   3.297  10.371
 5941SOL    HW118269   2.119   3.266  10.318
 5941SOL    HW218270   2.255   3.355  10.314
 5942SOL     OW18271   3.322   3.367  10.649
 5942SOL    HW118272   3.346   3.461  10.675
 5942SOL    HW218273   3.306   3.313  10.731
 5943SOL     OW18274   2.300   2.254  10.809
 5943SOL    HW118275   2.382   2.198  10.818
 5943SOL    HW218276   2.219   2.196  10.813
 5944SOL     OW18277   3.465   2.309  10.047
 5944SOL    HW118278   3.391   2.355   9.997
 5944SOL    HW218279   3.516   2.377  10.100
 5945SOL     OW18280   2.093   3.575   9.793
 5945SOL    HW118281   2.127   3.652   9.847
 5945SOL    HW218282   2.137   3.575   9.703
 5946SOL     OW18283   2.989   3.203  11.000
 5946SOL    HW118284   3.036   3.203  11.088
 5946SOL    HW218285   2.941   3.116  10.989
 5947SOL     OW18286   2.092   3.296   9.848
 5947SOL    HW118287   2.066   3.392   9.848
 5947SOL    HW218288   2.021   3.242   9.893
 5948SOL     OW18289   2.102   2.953  10.196
 5948SOL    HW118290   2.116   2.869  10.248
 5948SOL    HW218291   2.047   3.017  10.251
 5949SOL     OW18292   2.482   3.648  10.749
 5949SOL    HW118293   2.390   3.631  10.784
 5949SOL    HW218294   2.510   3.740  10.775
 5950SOL     OW18295   2.468   2.826   9.433
 5950SOL    HW118296   2.475   2.910   9.379
 5950SOL    HW218297   2.514   2.839   9.521
 5951SOL     OW18298   3.456   1.976  10.790
 5951SOL    HW118299   3.438   2.043  10.718
 5951SOL    HW218300   3.453   2.022  10.879
 5952SOL     OW18301   1.984   2.505   9.873
 5952SOL    HW118302   1.939   2.417   9.890
 5952SOL    HW218303   1.983   2.559   9.957
 5953SOL     OW18304   3.704   3.629   9.669
 5953SOL    HW118305   3.758   3.600   9.749
 5953SOL    HW218306   3.734   3.719   9.640
 5954SOL     OW18307   1.889   3.458   9.427
 5954SOL    HW118308   1.870   3.362   9.448
 5954SOL    HW218309   1.856   3.516   9.502
 5955SOL     OW18310   3.551   2.784   9.922
 5955SOL    HW118311   3.646   2.755   9.930
 5955SOL    HW218312   3.543   2.849   9.847
 5956SOL     OW18313   3.503   2.970   9.742
 5956SOL    HW118314   3.589   2.972   9.690
 5956SOL    HW218315   3.517   3.017   9.830
 5957SOL     OW18316   1.975   2.599  10.907
 5957SOL    HW118317   2.063   2.586  10.952
 5957SOL    HW218318   1.962   2.696  10.885
 5958SOL     OW18319   2.475   3.227  10.036
 5958SOL    HW118320   2.426   3.140  10.045
 5958SOL    HW218321   2.452   3.270   9.949
 5959SOL     OW18322   3.155   3.090  10.733
 5959SOL    HW118323   3.192   3.017  10.675
 5959SOL    HW218324   3.207   3.095  10.818
 5960SOL     OW18325   2.671   1.866   9.812
 5960SOL    HW118326   2.711   1.957   9.803
 5960SOL    HW218327   2.571   1.874   9.818
 5961SOL     OW18328   2.059   2.838  10.574
 5961SOL    HW118329   2.148   2.793  10.560
 5961SOL    HW218330   1.986   2.773  10.555
 5962SOL     OW18331   3.387   2.861   9.500
 5962SOL    HW118332   3.324   2.785   9.513
 5962SOL    HW218333   3.435   2.879   9.586
 5963SOL     OW18334   3.049   3.654  10.926
 5963SOL    HW118335   3.073   3.714  10.850
 5963SOL    HW218336   3.056   3.559  10.896
 5964SOL     OW18337   2.179   2.113  11.111
 5964SOL    HW118338   2.250   2.184  11.117
 5964SOL    HW218339   2.091   2.152  11.139
 5965SOL     OW18340   3.328   3.279  10.263
 5965SOL    HW118341   3.269   3.285  10.343
 5965SOL    HW218342   3.313   3.191  10.217
 5966SOL     OW18343   3.529   3.576   9.882
 5966SOL    HW118344   3.488   3.553   9.794
 5966SOL    HW218345   3.511   3.502   9.947
 5967SOL     OW18346   2.460   2.591   9.580
 5967SOL    HW118347   2.484   2.660   9.512
 5967SOL    HW218348   2.382   2.624   9.634
 5968SOL     OW18349   3.143   2.207  10.254
 5968SOL    HW118350   3.057   2.157  10.241
 5968SOL    HW218351   3.205   2.153  10.310
 5969SOL     OW18352   3.438   3.524   9.617
 5969SOL    HW118353   3.527   3.570   9.620
 5969SOL    HW218354   3.417   3.500   9.522
 5970SOL     OW18355   2.669   2.467  10.775
 5970SOL    HW118356   2.622   2.464  10.864
 5970SOL    HW218357   2.618   2.412  10.709
 5971SOL     OW18358   3.256   2.331  10.984
 5971SOL    HW118359   3.236   2.374  11.072
 5971SOL    HW218360   3.334   2.269  10.993
 5972SOL     OW18361   2.835   2.752  10.882
 5972SOL    HW118362   2.881   2.668  10.853
 5972SOL    HW218363   2.779   2.786  10.807
 5973SOL     OW18364   2.853   2.272  10.552
 5973SOL    HW118365   2.776   2.306  10.606
 5973SOL    HW218366   2.819   2.221  10.473
 5974SOL     OW18367   2.903   2.563   9.739
 5974SOL    HW118368   2.929   2.559   9.835
 5974SOL    HW218369   2.818   2.512   9.725
 5975SOL     OW18370   1.938   2.673  10.099
 5975SOL    HW118371   2.037   2.661  10.108
 5975SOL    HW218372   1.914   2.768  10.120
 5976SOL     OW18373   1.992   3.683  10.881
 5976SOL    HW118374   1.982   3.668  10.980
 5976SOL    HW218375   1.906   3.719  10.845
 5977SOL     OW18376   2.727   2.210   9.505
 5977SOL    HW118377   2.786   2.273   9.456
 5977SOL    HW218378   2.746   2.116   9.476
 5978SOL     OW18379   3.581   2.447  11.141
 5978SOL    HW118380   3.555   2.536  11.105
 5978SOL    HW218381   3.579   2.379  11.068
 5979SOL     OW18382   3.224   3.006   9.855
 5979SOL    HW118383   3.307   2.977   9.807
 5979SOL    HW218384   3.175   3.073   9.799
 5980SOL     OW18385   2.412   2.058  10.195
 5980SOL    HW118386   2.407   2.053  10.295
 5980SOL    HW218387   2.414   2.154  10.166
 5981SOL     OW18388   2.870   3.318   9.787
 5981SOL    HW118389   2.824   3.390   9.735
 5981SOL    HW218390   2.866   3.338   9.885
 5982SOL     OW18391   2.213   3.663  10.163
 5982SOL    HW118392   2.263   3.577  10.169
 5982SOL    HW218393   2.278   3.740  10.160
 5983SOL     OW18394   3.657   2.928  10.183
 5983SOL    HW118395   3.595   2.913  10.107
 5983SOL    HW218396   3.605   2.939  10.268
 5984SOL     OW18397   3.089   3.412  10.816
 5984SOL    HW118398   3.095   3.335  10.880
 5984SOL    HW218399   3.037   3.386  10.736
 5985SOL     OW18400   2.183   2.805   9.552
 5985SOL    HW118401   2.265   2.844   9.510
 5985SOL    HW218402   2.156   2.723   9.503
 5986SOL     OW18403   3.320   2.597  10.038
 5986SOL    HW118404   3.315   2.532  10.113
 5986SOL    HW218405   3.400   2.656  10.051
 5987SOL     OW18406   2.323   3.128  11.037
 5987SOL    HW118407   2.273   3.129  10.951
 5987SOL    HW218408   2.260   3.110  11.113
 5988SOL     OW18409   2.973   3.638   9.547
 5988SOL    HW118410   2.913   3.576   9.597
 5988SOL    HW218411   3.004   3.594   9.462
 5989SOL     OW18412   3.494   3.239   9.391
 5989SOL    HW118413   3.462   3.333   9.381
 5989SOL    HW218414   3.418   3.176   9.379
 5990SOL     OW18415   2.326   3.605   9.633
 5990SOL    HW118416   2.359   3.644   9.719
 5990SOL    HW218417   2.402   3.598   9.568
 5991SOL     OW18418   3.262   1.969   9.736
 5991SOL    HW118419   3.238   1.932   9.646
 5991SOL    HW218420   3.361   1.985   9.740
 5992SOL     OW18421   2.111   3.647  10.551
 5992SOL    HW118422   2.168   3.582  10.601
 5992SOL    HW218423   2.095   3.614  10.458
 5993SOL     OW18424   2.802   3.560  10.214
 5993SOL    HW118425   2.882   3.503  10.235
 5993SOL    HW218426   2.753   3.520  10.137
 5994SOL     OW18427   2.244   2.562   9.790
 5994SOL    HW118428   2.289   2.472   9.787
 5994SOL    HW218429   2.150   2.551   9.823
 5995SOL     OW18430   3.409   2.084  11.039
 5995SOL    HW118431   3.404   2.121  11.131
 5995SOL    HW218432   3.337   2.015  11.027
 5996SOL     OW18433   2.476   1.984   9.427
 5996SOL    HW118434   2.574   1.962   9.434
 5996SOL    HW218435   2.445   1.967   9.334
 5997SOL     OW18436   2.643   2.126  11.059
 5997SOL    HW118437   2.710   2.065  11.102
 5997SOL    HW218438   2.570   2.145  11.124
 5998SOL     OW18439   2.750   3.376  10.505
 5998SOL    HW118440   2.727   3.351  10.411
 5998SOL    HW218441   2.811   3.307  10.544
 5999SOL     OW18442   3.213   2.452  10.743
 5999SOL    HW118443   3.241   2.409  10.828
 5999SOL    HW218444   3.238   2.548  10.744
 6000SOL     OW18445   2.665   3.264  10.234
 6000SOL    HW118446   2.755   3.278  10.192
 6000SOL    HW218447   2.594   3.266  10.163
 6001SOL     OW18448   2.784   2.365  10.209
 6001SOL    HW118449   2.759   2.356  10.113
 6001SOL    HW218450   2.832   2.283  10.240
 6002SOL     OW18451   2.401   1.926   9.822
 6002SOL    HW118452   2.320   1.927   9.880
 6002SOL    HW218453   2.404   2.009   9.767
 6003SOL     OW18454   3.296   3.050   9.351
 6003SOL    HW118455   3.328   2.974   9.408
 6003SOL    HW218456   3.204   3.077   9.381
 6004SOL     OW18457   2.797   2.098   9.790
 6004SOL    HW118458   2.749   2.139   9.712
 6004SOL    HW218459   2.896   2.096   9.771
 6005SOL     OW18460   2.938   2.545  10.774
 6005SOL    HW118461   2.858   2.484  10.777
 6005SOL    HW218462   3.019   2.492  10.750
 6006SOL     OW18463   3.089   3.432  10.103
 6006SOL    HW118464   3.110   3.506  10.038
 6006SOL    HW218465   3.157   3.432  10.176
 6007SOL     OW18466   2.321   3.014  10.051
 6007SOL    HW118467   2.250   2.987  10.116
 6007SOL    HW218468   2.295   2.986   9.958
 6008SOL     OW18469   3.133   3.659   9.901
 6008SOL    HW118470   3.177   3.723   9.837
 6008SOL    HW218471   3.083   3.711   9.971
 6009SOL     OW18472   2.894   2.411   9.326
 6009SOL    HW118473   2.853   2.493   9.287
 6009SOL    HW218474   2.958   2.437   9.399
 6010SOL     OW18475   1.940   2.418  10.696
 6010SOL    HW118476   2.032   2.417  10.655
 6010SOL    HW218477   1.934   2.492  10.763
 6011SOL     OW18478   2.423   2.084  10.457
 6011SOL    HW118479   2.461   2.000  10.494
 6011SOL    HW218480   2.335   2.103  10.501
 6012SOL     OW18481   2.728   2.316   9.952
 6012SOL    HW118482   2.696   2.388   9.890
 6012SOL    HW218483   2.752   2.235   9.899
 6013SOL     OW18484   2.879   1.901  10.063
 6013SOL    HW118485   2.807   1.906   9.994
 6013SOL    HW218486   2.855   1.832  10.132
 6014SOL     OW18487   3.291   3.035  10.177
 6014SOL    HW118488   3.236   2.951  10.170
 6014SOL    HW218489   3.317   3.064  10.085
 6015SOL     OW18490   3.328   2.452  10.302
 6015SOL    HW118491   3.298   2.357  10.309
 6015SOL    HW218492   3.401   2.468  10.368
 6016SOL     OW18493   3.719   2.695   9.687
 6016SOL    HW118494   3.761   2.631   9.751
 6016SOL    HW218495   3.681   2.644   9.609
 6017SOL     OW18496   2.350   3.247   9.484
 6017SOL    HW118497   2.263   3.232   9.531
 6017SOL    HW218498   2.333   3.273   9.389
 6018SOL     OW18499   3.526   3.142   9.967
 6018SOL    HW118500   3.625   3.150   9.981
 6018SOL    HW218501   3.481   3.226   9.998
 6019SOL     OW18502   3.252   2.437   9.388
 6019SOL    HW118503   3.198   2.416   9.469
 6019SOL    HW218504   3.343   2.396   9.397
 6020SOL     OW18505   2.389   2.118   9.638
 6020SOL    HW118506   2.416   2.059   9.563
 6020SOL    HW218507   2.389   2.213   9.607
 6021SOL     OW18508   3.616   3.085  10.898
 6021SOL    HW118509   3.707   3.046  10.885
 6021SOL    HW218510   3.624   3.181  10.922
 6022SOL     OW18511   2.926   3.209  10.650
 6022SOL    HW118512   2.846   3.186  10.705
 6022SOL    HW218513   3.009   3.183  10.699
 6023SOL     OW18514   3.454   3.491  10.935
 6023SOL    HW118515   3.481   3.525  10.845
 6023SOL    HW218516   3.533   3.453  10.981
 6024SOL     OW18517   2.973   3.057  10.410
 6024SOL    HW118518   2.933   3.101  10.491
 6024SOL    HW218519   2.932   3.094  10.327
 6025SOL     OW18520   3.500   2.961  10.389
 6025SOL    HW118521   3.505   3.042  10.448
 6025SOL    HW218522   3.414   2.963  10.338
 6026SOL     OW18523   2.777   1.951  10.712
 6026SOL    HW118524   2.802   1.931  10.617
 6026SOL    HW218525   2.849   2.007  10.754
 6027SOL     OW18526   2.842   2.978  11.029
 6027SOL    HW118527   2.743   2.984  11.039
 6027SOL    HW218528   2.865   2.898  10.973
 6028SOL     OW18529   2.567   2.912   9.678
 6028SOL    HW118530   2.553   2.919   9.777
 6028SOL    HW218531   2.651   2.861   9.660
 6029SOL     OW18532   2.272   2.675  10.561
 6029SOL    HW118533   2.358   2.687  10.611
 6029SOL    HW218534   2.230   2.588  10.588
 6030SOL     OW18535   3.136   2.248  10.572
 6030SOL    HW118536   3.157   2.322  10.636
 6030SOL    HW218537   3.047   2.265  10.529
 6031SOL     OW18538   1.926   3.426  10.641
 6031SOL    HW118539   1.880   3.508  10.607
 6031SOL    HW218540   2.024   3.445  10.650
 6032SOL     OW18541   2.229   2.962   9.811
 6032SOL    HW118542   2.222   3.045   9.755
 6032SOL    HW218543   2.233   2.882   9.751
 6033SOL     OW18544   2.428   2.399  10.175
 6033SOL    HW118545   2.440   2.465  10.101
 6033SOL    HW218546   2.474   2.433  10.258
 6034SOL     OW18547   3.114   3.210   9.698
 6034SOL    HW118548   3.164   3.287   9.738
 6034SOL    HW218549   3.019   3.212   9.730
 6035SOL     OW18550   3.134   3.307  10.452
 6035SOL    HW118551   3.181   3.320  10.539
 6035SOL    HW218552   3.068   3.233  10.461
 6036SOL     OW18553   3.444   2.501   9.782
 6036SOL    HW118554   3.413   2.562   9.855
 6036SOL    HW218555   3.494   2.553   9.713
 6037SOL     OW18556   2.216   3.372  10.639
 6037SOL    HW118557   2.195   3.328  10.552
 6037SOL    HW218558   2.313   3.398  10.642
 6038SOL     OW18559   2.264   2.613  10.908
 6038SOL    HW118560   2.332   2.668  10.861
 6038SOL    HW218561   2.304   2.525  10.935
 6039SOL     OW18562   3.449   2.641  10.980
 6039SOL    HW118563   3.357   2.679  10.975
 6039SOL    HW218564   3.509   2.688  10.915
 6040SOL     OW18565   2.875   1.967  11.080
 6040SOL    HW118566   2.881   2.052  11.028
 6040SOL    HW218567   2.907   1.891  11.023
 6041SOL     OW18568   2.366   1.912  11.050
 6041SOL    HW118569   2.324   1.855  10.980
 6041SOL    HW218570   2.300   1.981  11.082
 6042SOL     OW18571   2.435   2.732  10.339
 6042SOL    HW118572   2.479   2.821  10.330
 6042SOL    HW218573   2.372   2.732  10.416
 6043SOL     OW18574   3.222   2.724  10.355
 6043SOL    HW118575   3.147   2.724  10.289
 6043SOL    HW218576   3.259   2.632  10.364
 6044SOL     OW18577   3.071   2.387   9.585
 6044SOL    HW118578   3.084   2.303   9.639
 6044SOL    HW218579   3.042   2.461   9.645
 6045SOL     OW18580   1.899   3.172  10.592
 6045SOL    HW118581   1.952   3.123  10.660
 6045SOL    HW218582   1.921   3.270  10.597
 6046SOL     OW18583   2.594   2.496  10.374
 6046SOL    HW118584   2.653   2.470  10.298
 6046SOL    HW218585   2.566   2.592  10.363
 6047SOL     OW18586   3.590   2.797  11.164
 6047SOL    HW118587   3.544   2.790  11.075
 6047SOL    HW218588   3.528   2.841  11.230
 6048SOL     OW18589   3.484   2.229   9.684
 6048SOL    HW118590   3.486   2.153   9.748
 6048SOL    HW218591   3.436   2.306   9.724
 6049SOL     OW18592   2.885   2.628  10.276
 6049SOL    HW118593   2.900   2.649  10.372
 6049SOL    HW218594   2.855   2.533  10.267
 6050SOL     OW18595   2.842   3.435  11.010
 6050SOL    HW118596   2.822   3.479  10.922
 6050SOL    HW218597   2.881   3.344  10.994
 6051SOL     OW18598   3.721   3.380  10.915
 6051SOL    HW118599   3.735   3.407  10.820
 6051SOL    HW218600   3.804   3.402  10.968
 6052SOL     OW18601   2.212   2.760  11.114
 6052SOL    HW118602   2.288   2.804  11.162
 6052SOL    HW218603   2.247   2.713  11.032
 6053SOL     OW18604   3.402   2.136   9.435
 6053SOL    HW118605   3.341   2.061   9.458
 6053SOL    HW218606   3.424   2.188   9.518
 6054SOL     OW18607   3.165   2.700   9.352
 6054SOL    HW118608   3.199   2.607   9.367
 6054SOL    HW218609   3.183   2.727   9.257
 6055SOL     OW18610   2.930   3.195  10.159
 6055SOL    HW118611   2.937   3.111  10.104
 6055SOL    HW218612   2.992   3.264  10.123
 6056SOL     OW18613   2.181   2.672  10.259
 6056SOL    HW118614   2.274   2.708  10.264
 6056SOL    HW218615   2.175   2.587  10.311
 6057SOL     OW18616   2.201   2.371  10.316
 6057SOL    HW118617   2.149   2.288  10.299
 6057SOL    HW218618   2.278   2.376  10.252
 6058SOL     OW18619   3.000   2.242  10.988
 6058SOL    HW118620   2.955   2.305  11.052
 6058SOL    HW218621   3.093   2.273  10.971
 6059SOL     OW18622   3.022   2.069  10.787
 6059SOL    HW118623   3.022   2.133  10.864
 6059SOL    HW218624   3.050   2.117  10.704
 6060SOL     OW18625   1.870   3.188   9.510
 6060SOL    HW118626   1.777   3.209   9.479
 6060SOL    HW218627   1.880   3.089   9.523
 6061SOL     OW18628   1.950   3.663  10.237
 6061SOL    HW118629   1.908   3.577  10.210
 6061SOL    HW218630   2.044   3.666  10.203
 6062SOL     OW18631   2.366   3.430  10.220
 6062SOL    HW118632   2.432   3.504  10.229
 6062SOL    HW218633   2.410   3.351  10.178
 6063SOL     OW18634   2.864   2.658  10.548
 6063SOL    HW118635   2.905   2.626  10.634
 6063SOL    HW218636   2.768   2.631  10.545
 6064SOL     OW18637   1.902   2.406  10.424
 6064SOL    HW118638   1.987   2.373  10.383
 6064SOL    HW218639   1.915   2.421  10.522
 6065SOL     OW18640   2.051   2.382  11.032
 6065SOL    HW118641   2.110   2.342  10.962
 6065SOL    HW218642   1.993   2.453  10.991
 6066SOL     OW18643   3.231   2.812  10.970
 6066SOL    HW118644   3.270   2.901  10.990
 6066SOL    HW218645   3.241   2.792  10.873
 6067SOL     OW18646   2.677   2.434   9.635
 6067SOL    HW118647   2.684   2.345   9.589
 6067SOL    HW218648   2.583   2.468   9.627
 6068SOL     OW18649   3.519   2.466  10.516
 6068SOL    HW118650   3.481   2.397  10.578
 6068SOL    HW218651   3.601   2.430  10.472
 6069SOL     OW18652   2.114   3.426  11.054
 6069SOL    HW118653   2.084   3.483  11.130
 6069SOL    HW218654   2.107   3.329  11.080
 6070SOL     OW18655   2.533   2.326  10.579
 6070SOL    HW118656   2.499   2.237  10.549
 6070SOL    HW218657   2.559   2.380  10.499
 6071SOL     OW18658   2.792   3.540  10.775
 6071SOL    HW118659   2.768   3.522  10.680
 6071SOL    HW218660   2.822   3.634  10.785
 6072SOL     OW18661   2.335   2.362   9.501
 6072SOL    HW118662   2.396   2.442   9.505
 6072SOL    HW218663   2.240   2.393   9.508
 6073SOL     OW18664   2.021   2.999  10.776
 6073SOL    HW118665   2.043   2.938  10.852
 6073SOL    HW218666   2.031   2.950  10.690
 6074SOL     OW18667   3.209   2.921  10.544
 6074SOL    HW118668   3.233   2.858  10.470
 6074SOL    HW218669   3.119   2.961  10.526
 6075SOL     OW18670   3.164   2.717   9.619
 6075SOL    HW118671   3.078   2.686   9.661
 6075SOL    HW218672   3.160   2.703   9.520
 6076SOL     OW18673   3.621   3.609  10.464
 6076SOL    HW118674   3.682   3.639  10.391
 6076SOL    HW218675   3.583   3.520  10.442
 6077SOL     OW18676   3.114   3.593  10.438
 6077SOL    HW118677   3.198   3.598  10.384
 6077SOL    HW218678   3.091   3.497  10.456
 6078SOL     OW18679   1.945   3.120  10.332
 6078SOL    HW118680   1.940   3.119  10.432
 6078SOL    HW218681   1.862   3.079  10.294
 6079SOL     OW18682   2.550   3.524  11.026
 6079SOL    HW118683   2.494   3.605  11.035
 6079SOL    HW218684   2.602   3.528  10.940
 6080SOL     OW18685   3.588   1.997   9.833
 6080SOL    HW118686   3.661   1.980   9.766
 6080SOL    HW218687   3.557   1.910   9.871
 6081SOL     OW18688   3.250   3.435   9.787
 6081SOL    HW118689   3.317   3.447   9.713
 6081SOL    HW218690   3.210   3.524   9.810
 6082SOL     OW18691   1.992   3.656  11.161
 6082SOL    HW118692   1.951   3.582  11.214
 6082SOL    HW218693   2.056   3.707  11.219
 6083SOL     OW18694   3.142   2.789   9.982
 6083SOL    HW118695   3.202   2.708   9.984
 6083SOL    HW218696   3.182   2.858   9.922
 6084SOL     OW18697   2.692   3.135  10.732
 6084SOL    HW118698   2.687   3.168  10.827
 6084SOL    HW218699   2.606   3.154  10.686
 6085SOL     OW18700   2.534   3.478   9.464
 6085SOL    HW118701   2.543   3.488   9.365
 6085SOL    HW218702   2.494   3.389   9.485
 6086SOL     OW18703   3.512   3.582  10.704
 6086SOL    HW118704   3.565   3.592  10.620
 6086SOL    HW218705   3.485   3.672  10.738
 6087SOL     OW18706   3.703   2.037  10.273
 6087SOL    HW118707   3.742   1.952  10.237
 6087SOL    HW218708   3.605   2.039  10.254
 6088SOL     OW18709   3.056   3.474   9.341
 6088SOL    HW118710   3.062   3.381   9.378
 6088SOL    HW218711   2.997   3.474   9.261
 6089SOL     OW18712   2.684   2.864  10.682
 6089SOL    HW118713   2.724   2.863  10.590
 6089SOL    HW218714   2.694   2.956  10.722
 6090SOL     OW18715   2.778   2.772   9.601
 6090SOL    HW118716   2.841   2.810   9.533
 6090SOL    HW218717   2.818   2.689   9.640
 6091SOL     OW18718   3.366   3.469   9.354
 6091SOL    HW118719   3.274   3.506   9.361
 6091SOL    HW218720   3.404   3.489   9.264
 6092SOL     OW18721   2.234   3.150  10.800
 6092SOL    HW118722   2.221   3.243  10.766
 6092SOL    HW218723   2.150   3.098  10.787
 6093SOL     OW18724   3.476   3.154  10.599
 6093SOL    HW118725   3.536   3.157  10.679
 6093SOL    HW218726   3.401   3.218  10.612
 6094SOL     OW18727   2.901   2.960  10.006
 6094SOL    HW118728   2.831   2.913  10.060
 6094SOL    HW218729   2.960   2.892   9.963
 6095SOL     OW18730   2.876   2.098  10.281
 6095SOL    HW118731   2.868   2.062  10.188
 6095SOL    HW218732   2.874   2.022  10.346
 6096SOL     OW18733   2.452   3.349   9.801
 6096SOL    HW118734   2.494   3.291   9.731
 6096SOL    HW218735   2.408   3.428   9.757
 6097SOL     OW18736   3.571   2.247  10.691
 6097SOL    HW118737   3.644   2.316  10.695
 6097SOL    HW218738   3.599   2.172  10.632
 6098SOL     OW18739   2.117   3.210   9.600
 6098SOL    HW118740   2.021   3.211   9.573
 6098SOL    HW218741   2.129   3.263   9.684
 6099SOL     OW18742   1.967   2.875  11.036
 6099SOL    HW118743   1.890   2.842  11.090
 6099SOL    HW218744   2.052   2.845  11.078
 6100SOL     OW18745   2.534   2.065  10.799
 6100SOL    HW118746   2.624   2.049  10.759
 6100SOL    HW218747   2.542   2.070  10.898
 6101SOL     OW18748   3.302   2.718  10.708
 6101SOL    HW118749   3.245   2.770  10.645
 6101SOL    HW218750   3.398   2.730  10.684
 6102SOL     OW18751   3.045   3.197   9.429
 6102SOL    HW118752   2.946   3.186   9.431
 6102SOL    HW218753   3.079   3.212   9.522
 6103SOL     OW18754   2.475   2.704  10.741
 6103SOL    HW118755   2.531   2.785  10.724
 6103SOL    HW218756   2.534   2.624  10.744
 6104SOL     OW18757   3.355   3.629  10.269
 6104SOL    HW118758   3.388   3.693  10.200
 6104SOL    HW218759   3.421   3.623  10.344
 6105SOL     OW18760   2.578   2.427  11.018
 6105SOL    HW118761   2.597   2.492  11.092
 6105SOL    HW218762   2.638   2.347  11.027
 6106SOL     OW18763   3.312   3.082  10.943
 6106SOL    HW118764   3.303   3.072  11.042
 6106SOL    HW218765   3.408   3.075  10.917
 6107SOL     OW18766   2.252   3.603  10.870
 6107SOL    HW118767   2.161   3.644  10.868
 6107SOL    HW218768   2.245   3.509  10.902
 6108SOL     OW18769   3.536   2.745  10.564
 6108SOL    HW118770   3.509   2.656  10.527
 6108SOL    HW218771   3.537   2.813  10.491
 6109SOL     OW18772   3.087   2.187   9.759
 6109SOL    HW118773   3.152   2.113   9.748
 6109SOL    HW218774   3.107   2.237   9.843
 6110SOL     OW18775   2.456   2.607   9.962
 6110SOL    HW118776   2.506   2.692   9.943
 6110SOL    HW218777   2.368   2.609   9.914
 6111SOL     OW18778   3.639   2.204  10.952
 6111SOL    HW118779   3.622   2.235  10.858
 6111SOL    HW218780   3.555   2.167  10.990
 6112SOL     OW18781   3.592   2.796  10.827
 6112SOL    HW118782   3.630   2.887  10.842
 6112SOL    HW218783   3.584   2.779  10.728
 6113SOL     OW18784   2.721   3.236   9.326
 6113SOL    HW118785   2.675   3.251   9.414
 6113SOL    HW218786   2.765   3.321   9.296
 6114SOL     OW18787   2.523   3.652  10.263
 6114SOL    HW118788   2.477   3.740  10.250
 6114SOL    HW218789   2.622   3.664  10.256
 6115SOL     OW18790   2.721   2.818  10.171
 6115SOL    HW118791   2.775   2.749  10.219
 6115SOL    HW218792   2.689   2.887  10.237
 6116SOL     OW18793   2.945   2.846   9.397
 6116SOL    HW118794   2.922   2.899   9.315
 6116SOL    HW218795   3.026   2.790   9.378
 6117SOL     OW18796   3.723   3.431  10.161
 6117SOL    HW118797   3.652   3.419  10.091
 6117SOL    HW218798   3.724   3.352  10.221
 6118SOL     OW18799   2.083   3.176  11.154
 6118SOL    HW118800   2.018   3.103  11.133
 6118SOL    HW218801   2.087   3.190  11.252
 6119SOL     OW18802   1.941   3.102   9.963
 6119SOL    HW118803   1.940   3.055  10.051
 6119SOL    HW218804   2.023   3.074   9.912
 6120SOL     OW18805   2.534   3.253  10.934
 6120SOL    HW118806   2.456   3.203  10.972
 6120SOL    HW218807   2.531   3.348  10.965
 6121SOL     OW18808   3.686   2.054  10.537
 6121SOL    HW118809   3.682   1.964  10.581
 6121SOL    HW218810   3.689   2.043  10.438
 6122SOL     OW18811   2.290   2.286   9.830
 6122SOL    HW118812   2.320   2.214   9.768
 6122SOL    HW218813   2.251   2.246   9.913
 6123SOL     OW18814   3.567   3.349  10.414
 6123SOL    HW118815   3.474   3.324  10.387
 6123SOL    HW218816   3.593   3.299  10.496
 6124SOL     OW18817   2.179   2.409  10.590
 6124SOL    HW118818   2.217   2.350  10.662
 6124SOL    HW218819   2.219   2.383  10.502
 6125SOL     OW18820   2.674   3.448   9.997
 6125SOL    HW118821   2.706   3.458   9.903
 6125SOL    HW218822   2.595   3.386   9.999
 6126SOL     OW18823   3.286   2.076  10.422
 6126SOL    HW118824   3.338   2.011  10.477
 6126SOL    HW218825   3.237   2.139  10.483
 6127SOL     OW18826   2.863   1.896  10.464
 6127SOL    HW118827   2.800   1.824  10.433
 6127SOL    HW218828   2.956   1.860  10.464
 6128SOL     OW18829   2.632   3.192   9.611
 6128SOL    HW118830   2.586   3.105   9.628
 6128SOL    HW218831   2.723   3.189   9.652
 6129SOL     OW18832   2.480   3.429  10.594
 6129SOL    HW118833   2.475   3.511  10.651
 6129SOL    HW218834   2.569   3.426  10.549
 6130SOL     OW18835   3.214   1.914   9.478
 6130SOL    HW118836   3.249   1.873   9.394
 6130SOL    HW218837   3.124   1.876   9.498
 6131SOL     OW18838   3.162   2.315  10.001
 6131SOL    HW118839   3.103   2.395  10.005
 6131SOL    HW218840   3.177   2.280  10.094
 6132SOL     OW18841   3.455   2.083  10.192
 6132SOL    HW118842   3.371   2.082  10.246
 6132SOL    HW218843   3.457   2.166  10.136
 6133SOL     OW18844   1.901   2.939   9.610
 6133SOL    HW118845   2.000   2.928   9.601
 6133SOL    HW218846   1.861   2.853   9.642
 6134SOL     OW18847   2.737   3.508   9.647
 6134SOL    HW118848   2.660   3.473   9.593
 6134SOL    HW218849   2.705   3.579   9.709
 6135SOL     OW18850   2.092   2.490  11.285
 6135SOL    HW118851   1.999   2.488  11.322
 6135SOL    HW218852   2.093   2.451  11.193
 6136SOL     OW18853   1.881   2.230  11.819
 6136SOL    HW118854   1.799   2.273  11.858
 6136SOL    HW218855   1.853   2.157  11.756
 6137SOL     OW18856   2.431   3.137  12.337
 6137SOL    HW118857   2.338   3.130  12.300
 6137SOL    HW218858   2.442   3.226  12.381
 6138SOL     OW18859   3.417   3.373  11.875
 6138SOL    HW118860   3.360   3.357  11.956
 6138SOL    HW218861   3.358   3.383  11.795
 6139SOL     OW18862   2.997   2.565  11.889
 6139SOL    HW118863   3.054   2.643  11.864
 6139SOL    HW218864   2.937   2.591  11.965
 6140SOL     OW18865   3.617   2.469  11.403
 6140SOL    HW118866   3.605   2.456  11.304
 6140SOL    HW218867   3.587   2.388  11.452
 6141SOL     OW18868   2.630   3.006  12.195
 6141SOL    HW118869   2.552   3.023  12.255
 6141SOL    HW218870   2.664   3.093  12.159
 6142SOL     OW18871   2.712   2.660  12.995
 6142SOL    HW118872   2.708   2.736  13.060
 6142SOL    HW218873   2.734   2.696  12.904
 6143SOL     OW18874   2.547   2.874  11.837
 6143SOL    HW118875   2.616   2.858  11.907
 6143SOL    HW218876   2.474   2.931  11.875
 6144SOL     OW18877   2.548   3.023  12.975
 6144SOL    HW118878   2.608   3.102  12.989
 6144SOL    HW218879   2.462   3.054  12.934
 6145SOL     OW18880   2.197   3.297  12.233
 6145SOL    HW118881   2.119   3.266  12.180
 6145SOL    HW218882   2.255   3.355  12.176
 6146SOL     OW18883   3.322   3.367  12.511
 6146SOL    HW118884   3.346   3.461  12.537
 6146SOL    HW218885   3.306   3.313  12.593
 6147SOL     OW18886   2.300   2.254  12.671
 6147SOL    HW118887   2.382   2.198  12.680
 6147SOL    HW218888   2.219   2.196  12.675
 6148SOL     OW18889   3.465   2.309  11.909
 6148SOL    HW118890   3.391   2.355  11.859
 6148SOL    HW218891   3.516   2.377  11.962
 6149SOL     OW18892   2.093   3.575  11.655
 6149SOL    HW118893   2.127   3.652  11.709
 6149SOL    HW218894   2.137   3.575  11.565
 6150SOL     OW18895   2.989   3.203  12.862
 6150SOL    HW118896   3.036   3.203  12.950
 6150SOL    HW218897   2.941   3.116  12.851
 6151SOL     OW18898   2.092   3.296  11.710
 6151SOL    HW118899   2.066   3.392  11.710
 6151SOL    HW218900   2.021   3.242  11.755
 6152SOL     OW18901   2.102   2.953  12.058
 6152SOL    HW118902   2.116   2.869  12.110
 6152SOL    HW218903   2.047   3.017  12.113
 6153SOL     OW18904   2.482   3.648  12.611
 6153SOL    HW118905   2.390   3.631  12.646
 6153SOL    HW218906   2.510   3.740  12.637
 6154SOL     OW18907   2.468   2.826  11.295
 6154SOL    HW118908   2.475   2.910  11.241
 6154SOL    HW218909   2.514   2.839  11.383
 6155SOL     OW18910   3.456   1.976  12.652
 6155SOL    HW118911   3.438   2.043  12.580
 6155SOL    HW218912   3.453   2.022  12.741
 6156SOL     OW18913   1.984   2.505  11.735
 6156SOL    HW118914   1.939   2.417  11.752
 6156SOL    HW218915   1.983   2.559  11.819
 6157SOL     OW18916   3.704   3.629  11.531
 6157SOL    HW118917   3.758   3.600  11.611
 6157SOL    HW218918   3.734   3.719  11.502
 6158SOL     OW18919   1.889   3.458  11.289
 6158SOL    HW118920   1.870   3.362  11.310
 6158SOL    HW218921   1.856   3.516  11.364
 6159SOL     OW18922   3.551   2.784  11.784
 6159SOL    HW118923   3.646   2.755  11.792
 6159SOL    HW218924   3.543   2.849  11.709
 6160SOL     OW18925   3.503   2.970  11.604
 6160SOL    HW118926   3.589   2.972  11.552
 6160SOL    HW218927   3.517   3.017  11.692
 6161SOL     OW18928   1.975   2.599  12.769
 6161SOL    HW118929   2.063   2.586  12.814
 6161SOL    HW218930   1.962   2.696  12.747
 6162SOL     OW18931   2.475   3.227  11.898
 6162SOL    HW118932   2.426   3.140  11.907
 6162SOL    HW218933   2.452   3.270  11.811
 6163SOL     OW18934   3.155   3.090  12.595
 6163SOL    HW118935   3.192   3.017  12.537
 6163SOL    HW218936   3.207   3.095  12.680
 6164SOL     OW18937   2.671   1.866  11.674
 6164SOL    HW118938   2.711   1.957  11.665
 6164SOL    HW218939   2.571   1.874  11.680
 6165SOL     OW18940   2.059   2.838  12.436
 6165SOL    HW118941   2.148   2.793  12.422
 6165SOL    HW218942   1.986   2.773  12.417
 6166SOL     OW18943   3.387   2.861  11.362
 6166SOL    HW118944   3.324   2.785  11.375
 6166SOL    HW218945   3.435   2.879  11.448
 6167SOL     OW18946   3.049   3.654  12.788
 6167SOL    HW118947   3.073   3.714  12.712
 6167SOL    HW218948   3.056   3.559  12.758
 6168SOL     OW18949   2.179   2.113  12.973
 6168SOL    HW118950   2.250   2.184  12.979
 6168SOL    HW218951   2.091   2.152  13.001
 6169SOL     OW18952   3.328   3.279  12.125
 6169SOL    HW118953   3.269   3.285  12.205
 6169SOL    HW218954   3.313   3.191  12.079
 6170SOL     OW18955   3.529   3.576  11.744
 6170SOL    HW118956   3.488   3.553  11.656
 6170SOL    HW218957   3.511   3.502  11.809
 6171SOL     OW18958   2.460   2.591  11.442
 6171SOL    HW118959   2.484   2.660  11.374
 6171SOL    HW218960   2.382   2.624  11.496
 6172SOL     OW18961   3.143   2.207  12.116
 6172SOL    HW118962   3.057   2.157  12.103
 6172SOL    HW218963   3.205   2.153  12.172
 6173SOL     OW18964   3.438   3.524  11.479
 6173SOL    HW118965   3.527   3.570  11.482
 6173SOL    HW218966   3.417   3.500  11.384
 6174SOL     OW18967   2.669   2.467  12.637
 6174SOL    HW118968   2.622   2.464  12.726
 6174SOL    HW218969   2.618   2.412  12.571
 6175SOL     OW18970   3.256   2.331  12.846
 6175SOL    HW118971   3.236   2.374  12.934
 6175SOL    HW218972   3.334   2.269  12.855
 6176SOL     OW18973   2.835   2.752  12.744
 6176SOL    HW118974   2.881   2.668  12.715
 6176SOL    HW218975   2.779   2.786  12.669
 6177SOL     OW18976   2.853   2.272  12.414
 6177SOL    HW118977   2.776   2.306  12.468
 6177SOL    HW218978   2.819   2.221  12.335
 6178SOL     OW18979   2.903   2.563  11.601
 6178SOL    HW118980   2.929   2.559  11.697
 6178SOL    HW218981   2.818   2.512  11.587
 6179SOL     OW18982   1.938   2.673  11.961
 6179SOL    HW118983   2.037   2.661  11.970
 6179SOL    HW218984   1.914   2.768  11.982
 6180SOL     OW18985   1.992   3.683  12.743
 6180SOL    HW118986   1.982   3.668  12.842
 6180SOL    HW218987   1.906   3.719  12.707
 6181SOL     OW18988   2.727   2.210  11.367
 6181SOL    HW118989   2.786   2.273  11.318
 6181SOL    HW218990   2.746   2.116  11.338
 6182SOL     OW18991   3.581   2.447  13.003
 6182SOL    HW118992   3.555   2.536  12.967
 6182SOL    HW218993   3.579   2.379  12.930
 6183SOL     OW18994   3.224   3.006  11.717
 6183SOL    HW118995   3.307   2.977  11.669
 6183SOL    HW218996   3.175   3.073  11.661
 6184SOL     OW18997   2.412   2.058  12.057
 6184SOL    HW118998   2.407   2.053  12.157
 6184SOL    HW218999   2.414   2.154  12.028
 6185SOL     OW19000   2.870   3.318  11.649
 6185SOL    HW119001   2.824   3.390  11.597
 6185SOL    HW219002   2.866   3.338  11.747
 6186SOL     OW19003   2.213   3.663  12.025
 6186SOL    HW119004   2.263   3.577  12.031
 6186SOL    HW219005   2.278   3.740  12.022
 6187SOL     OW19006   3.657   2.928  12.045
 6187SOL    HW119007   3.595   2.913  11.969
 6187SOL    HW219008   3.605   2.939  12.130
 6188SOL     OW19009   3.089   3.412  12.678
 6188SOL    HW119010   3.095   3.335  12.742
 6188SOL    HW219011   3.037   3.386  12.598
 6189SOL     OW19012   2.183   2.805  11.414
 6189SOL    HW119013   2.265   2.844  11.372
 6189SOL    HW219014   2.156   2.723  11.365
 6190SOL     OW19015   3.320   2.597  11.900
 6190SOL    HW119016   3.315   2.532  11.975
 6190SOL    HW219017   3.400   2.656  11.913
 6191SOL     OW19018   2.323   3.128  12.899
 6191SOL    HW119019   2.273   3.129  12.813
 6191SOL    HW219020   2.260   3.110  12.975
 6192SOL     OW19021   2.973   3.638  11.409
 6192SOL    HW119022   2.913   3.576  11.459
 6192SOL    HW219023   3.004   3.594  11.324
 6193SOL     OW19024   3.494   3.239  11.253
 6193SOL    HW119025   3.462   3.333  11.243
 6193SOL    HW219026   3.418   3.176  11.241
 6194SOL     OW19027   2.326   3.605  11.495
 6194SOL    HW119028   2.359   3.644  11.581
 6194SOL    HW219029   2.402   3.598  11.430
 6195SOL     OW19030   3.262   1.969  11.598
 6195SOL    HW119031   3.238   1.932  11.508
 6195SOL    HW219032   3.361   1.985  11.602
 6196SOL     OW19033   2.111   3.647  12.413
 6196SOL    HW119034   2.168   3.582  12.463
 6196SOL    HW219035   2.095   3.614  12.320
 6197SOL     OW19036   2.802   3.560  12.076
 6197SOL    HW119037   2.882   3.503  12.097
 6197SOL    HW219038   2.753   3.520  11.999
 6198SOL     OW19039   2.244   2.562  11.652
 6198SOL    HW119040   2.289   2.472  11.649
 6198SOL    HW219041   2.150   2.551  11.685
 6199SOL     OW19042   3.409   2.084  12.901
 6199SOL    HW119043   3.404   2.121  12.993
 6199SOL    HW219044   3.337   2.015  12.889
 6200SOL     OW19045   2.476   1.984  11.289
 6200SOL    HW119046   2.574   1.962  11.296
 6200SOL    HW219047   2.445   1.967  11.196
 6201SOL     OW19048   2.643   2.126  12.921
 6201SOL    HW119049   2.710   2.065  12.964
 6201SOL    HW219050   2.570   2.145  12.986
 6202SOL     OW19051   2.750   3.376  12.367
 6202SOL    HW119052   2.727   3.351  12.273
 6202SOL    HW219053   2.811   3.307  12.406
 6203SOL     OW19054   3.213   2.452  12.605
 6203SOL    HW119055   3.241   2.409  12.690
 6203SOL    HW219056   3.238   2.548  12.606
 6204SOL     OW19057   2.665   3.264  12.096
 6204SOL    HW119058   2.755   3.278  12.054
 6204SOL    HW219059   2.594   3.266  12.025
 6205SOL     OW19060   2.784   2.365  12.071
 6205SOL    HW119061   2.759   2.356  11.975
 6205SOL    HW219062   2.832   2.283  12.102
 6206SOL     OW19063   2.401   1.926  11.684
 6206SOL    HW119064   2.320   1.927  11.742
 6206SOL    HW219065   2.404   2.009  11.629
 6207SOL     OW19066   3.296   3.050  11.213
 6207SOL    HW119067   3.328   2.974  11.270
 6207SOL    HW219068   3.204   3.077  11.243
 6208SOL     OW19069   2.797   2.098  11.652
 6208SOL    HW119070   2.749   2.139  11.574
 6208SOL    HW219071   2.896   2.096  11.633
 6209SOL     OW19072   2.938   2.545  12.636
 6209SOL    HW119073   2.858   2.484  12.639
 6209SOL    HW219074   3.019   2.492  12.612
 6210SOL     OW19075   3.089   3.432  11.965
 6210SOL    HW119076   3.110   3.506  11.900
 6210SOL    HW219077   3.157   3.432  12.038
 6211SOL     OW19078   2.321   3.014  11.913
 6211SOL    HW119079   2.250   2.987  11.978
 6211SOL    HW219080   2.295   2.986  11.820
 6212SOL     OW19081   3.133   3.659  11.763
 6212SOL    HW119082   3.177   3.723  11.699
 6212SOL    HW219083   3.083   3.711  11.833
 6213SOL     OW19084   2.894   2.411  11.188
 6213SOL    HW119085   2.853   2.493  11.149
 6213SOL    HW219086   2.958   2.437  11.261
 6214SOL     OW19087   1.940   2.418  12.558
 6214SOL    HW119088   2.032   2.417  12.517
 6214SOL    HW219089   1.934   2.492  12.625
 6215SOL     OW19090   2.423   2.084  12.319
 6215SOL    HW119091   2.461   2.000  12.356
 6215SOL    HW219092   2.335   2.103  12.363
 6216SOL     OW19093   2.728   2.316  11.814
 6216SOL    HW119094   2.696   2.388  11.752
 6216SOL    HW219095   2.752   2.235  11.761
 6217SOL     OW19096   2.879   1.901  11.925
 6217SOL    HW119097   2.807   1.906  11.856
 6217SOL    HW219098   2.855   1.832  11.994
 6218SOL     OW19099   3.291   3.035  12.039
 6218SOL    HW119100   3.236   2.951  12.032
 6218SOL    HW219101   3.317   3.064  11.947
 6219SOL     OW19102   3.328   2.452  12.164
 6219SOL    HW119103   3.298   2.357  12.171
 6219SOL    HW219104   3.401   2.468  12.230
 6220SOL     OW19105   3.719   2.695  11.549
 6220SOL    HW119106   3.761   2.631  11.613
 6220SOL    HW219107   3.681   2.644  11.471
 6221SOL     OW19108   2.350   3.247  11.346
 6221SOL    HW119109   2.263   3.232  11.393
 6221SOL    HW219110   2.333   3.273  11.251
 6222SOL     OW19111   3.526   3.142  11.829
 6222SOL    HW119112   3.625   3.150  11.843
 6222SOL    HW219113   3.481   3.226  11.860
 6223SOL     OW19114   3.252   2.437  11.250
 6223SOL    HW119115   3.198   2.416  11.331
 6223SOL    HW219116   3.343   2.396  11.259
 6224SOL     OW19117   2.389   2.118  11.500
 6224SOL    HW119118   2.416   2.059  11.425
 6224SOL    HW219119   2.389   2.213  11.469
 6225SOL     OW19120   3.616   3.085  12.760
 6225SOL    HW119121   3.707   3.046  12.747
 6225SOL    HW219122   3.624   3.181  12.784
 6226SOL     OW19123   2.926   3.209  12.512
 6226SOL    HW119124   2.846   3.186  12.567
 6226SOL    HW219125   3.009   3.183  12.561
 6227SOL     OW19126   3.454   3.491  12.797
 6227SOL    HW119127   3.481   3.525  12.707
 6227SOL    HW219128   3.533   3.453  12.843
 6228SOL     OW19129   2.973   3.057  12.272
 6228SOL    HW119130   2.933   3.101  12.353
 6228SOL    HW219131   2.932   3.094  12.189
 6229SOL     OW19132   3.500   2.961  12.251
 6229SOL    HW119133   3.505   3.042  12.310
 6229SOL    HW219134   3.414   2.963  12.200
 6230SOL     OW19135   2.777   1.951  12.574
 6230SOL    HW119136   2.802   1.931  12.479
 6230SOL    HW219137   2.849   2.007  12.616
 6231SOL     OW19138   2.842   2.978  12.891
 6231SOL    HW119139   2.743   2.984  12.901
 6231SOL    HW219140   2.865   2.898  12.835
 6232SOL     OW19141   2.567   2.912  11.540
 6232SOL    HW119142   2.553   2.919  11.639
 6232SOL    HW219143   2.651   2.861  11.522
 6233SOL     OW19144   2.272   2.675  12.423
 6233SOL    HW119145   2.358   2.687  12.473
 6233SOL    HW219146   2.230   2.588  12.450
 6234SOL     OW19147   3.136   2.248  12.434
 6234SOL    HW119148   3.157   2.322  12.498
 6234SOL    HW219149   3.047   2.265  12.391
 6235SOL     OW19150   1.926   3.426  12.503
 6235SOL    HW119151   1.880   3.508  12.469
 6235SOL    HW219152   2.024   3.445  12.512
 6236SOL     OW19153   2.229   2.962  11.673
 6236SOL    HW119154   2.222   3.045  11.617
 6236SOL    HW219155   2.233   2.882  11.613
 6237SOL     OW19156   2.428   2.399  12.037
 6237SOL    HW119157   2.440   2.465  11.963
 6237SOL    HW219158   2.474   2.433  12.120
 6238SOL     OW19159   3.114   3.210  11.560
 6238SOL    HW119160   3.164   3.287  11.600
 6238SOL    HW219161   3.019   3.212  11.592
 6239SOL     OW19162   3.134   3.307  12.314
 6239SOL    HW119163   3.181   3.320  12.401
 6239SOL    HW219164   3.068   3.233  12.323
 6240SOL     OW19165   3.444   2.501  11.644
 6240SOL    HW119166   3.413   2.562  11.717
 6240SOL    HW219167   3.494   2.553  11.575
 6241SOL     OW19168   2.216   3.372  12.501
 6241SOL    HW119169   2.195   3.328  12.414
 6241SOL    HW219170   2.313   3.398  12.504
 6242SOL     OW19171   2.264   2.613  12.770
 6242SOL    HW119172   2.332   2.668  12.723
 6242SOL    HW219173   2.304   2.525  12.797
 6243SOL     OW19174   3.449   2.641  12.842
 6243SOL    HW119175   3.357   2.679  12.837
 6243SOL    HW219176   3.509   2.688  12.777
 6244SOL     OW19177   2.875   1.967  12.942
 6244SOL    HW119178   2.881   2.052  12.890
 6244SOL    HW219179   2.907   1.891  12.885
 6245SOL     OW19180   2.366   1.912  12.912
 6245SOL    HW119181   2.324   1.855  12.842
 6245SOL    HW219182   2.300   1.981  12.944
 6246SOL     OW19183   2.435   2.732  12.201
 6246SOL    HW119184   2.479   2.821  12.192
 6246SOL    HW219185   2.372   2.732  12.278
 6247SOL     OW19186   3.222   2.724  12.217
 6247SOL    HW119187   3.147   2.724  12.151
 6247SOL    HW219188   3.259   2.632  12.226
 6248SOL     OW19189   3.071   2.387  11.447
 6248SOL    HW119190   3.084   2.303  11.501
 6248SOL    HW219191   3.042   2.461  11.507
 6249SOL     OW19192   1.899   3.172  12.454
 6249SOL    HW119193   1.952   3.123  12.522
 6249SOL    HW219194   1.921   3.270  12.459
 6250SOL     OW19195   2.594   2.496  12.236
 6250SOL    HW119196   2.653   2.470  12.160
 6250SOL    HW219197   2.566   2.592  12.225
 6251SOL     OW19198   3.590   2.797  13.026
 6251SOL    HW119199   3.544   2.790  12.937
 6251SOL    HW219200   3.528   2.841  13.092
 6252SOL     OW19201   3.484   2.229  11.546
 6252SOL    HW119202   3.486   2.153  11.610
 6252SOL    HW219203   3.436   2.306  11.586
 6253SOL     OW19204   2.885   2.628  12.138
 6253SOL    HW119205   2.900   2.649  12.234
 6253SOL    HW219206   2.855   2.533  12.129
 6254SOL     OW19207   2.842   3.435  12.872
 6254SOL    HW119208   2.822   3.479  12.784
 6254SOL    HW219209   2.881   3.344  12.856
 6255SOL     OW19210   3.721   3.380  12.777
 6255SOL    HW119211   3.735   3.407  12.682
 6255SOL    HW219212   3.804   3.402  12.830
 6256SOL     OW19213   2.212   2.760  12.976
 6256SOL    HW119214   2.288   2.804  13.024
 6256SOL    HW219215   2.247   2.713  12.894
 6257SOL     OW19216   3.402   2.136  11.297
 6257SOL    HW119217   3.341   2.061  11.320
 6257SOL    HW219218   3.424   2.188  11.380
 6258SOL     OW19219   3.165   2.700  11.214
 6258SOL    HW119220   3.199   2.607  11.229
 6258SOL    HW219221   3.183   2.727  11.119
 6259SOL     OW19222   2.930   3.195  12.021
 6259SOL    HW119223   2.937   3.111  11.966
 6259SOL    HW219224   2.992   3.264  11.985
 6260SOL     OW19225   2.181   2.672  12.121
 6260SOL    HW119226   2.274   2.708  12.126
 6260SOL    HW219227   2.175   2.587  12.173
 6261SOL     OW19228   2.201   2.371  12.178
 6261SOL    HW119229   2.149   2.288  12.161
 6261SOL    HW219230   2.278   2.376  12.114
 6262SOL     OW19231   3.000   2.242  12.850
 6262SOL    HW119232   2.955   2.305  12.914
 6262SOL    HW219233   3.093   2.273  12.833
 6263SOL     OW19234   3.022   2.069  12.649
 6263SOL    HW119235   3.022   2.133  12.726
 6263SOL    HW219236   3.050   2.117  12.566
 6264SOL     OW19237   1.870   3.188  11.372
 6264SOL    HW119238   1.777   3.209  11.341
 6264SOL    HW219239   1.880   3.089  11.385
 6265SOL     OW19240   1.950   3.663  12.099
 6265SOL    HW119241   1.908   3.577  12.072
 6265SOL    HW219242   2.044   3.666  12.065
 6266SOL     OW19243   2.366   3.430  12.082
 6266SOL    HW119244   2.432   3.504  12.091
 6266SOL    HW219245   2.410   3.351  12.040
 6267SOL     OW19246   2.864   2.658  12.410
 6267SOL    HW119247   2.905   2.626  12.496
 6267SOL    HW219248   2.768   2.631  12.407
 6268SOL     OW19249   1.902   2.406  12.286
 6268SOL    HW119250   1.987   2.373  12.245
 6268SOL    HW219251   1.915   2.421  12.384
 6269SOL     OW19252   2.051   2.382  12.894
 6269SOL    HW119253   2.110   2.342  12.824
 6269SOL    HW219254   1.993   2.453  12.853
 6270SOL     OW19255   3.231   2.812  12.832
 6270SOL    HW119256   3.270   2.901  12.852
 6270SOL    HW219257   3.241   2.792  12.735
 6271SOL     OW19258   2.677   2.434  11.497
 6271SOL    HW119259   2.684   2.345  11.451
 6271SOL    HW219260   2.583   2.468  11.489
 6272SOL     OW19261   3.519   2.466  12.378
 6272SOL    HW119262   3.481   2.397  12.440
 6272SOL    HW219263   3.601   2.430  12.334
 6273SOL     OW19264   2.114   3.426  12.916
 6273SOL    HW119265   2.084   3.483  12.992
 6273SOL    HW219266   2.107   3.329  12.942
 6274SOL     OW19267   2.533   2.326  12.441
 6274SOL    HW119268   2.499   2.237  12.411
 6274SOL    HW219269   2.559   2.380  12.361
 6275SOL     OW19270   2.792   3.540  12.637
 6275SOL    HW119271   2.768   3.522  12.542
 6275SOL    HW219272   2.822   3.634  12.647
 6276SOL     OW19273   2.335   2.362  11.363
 6276SOL    HW119274   2.396   2.442  11.367
 6276SOL    HW219275   2.240   2.393  11.370
 6277SOL     OW19276   2.021   2.999  12.638
 6277SOL    HW119277   2.043   2.938  12.714
 6277SOL    HW219278   2.031   2.950  12.552
 6278SOL     OW19279   3.209   2.921  12.406
 6278SOL    HW119280   3.233   2.858  12.332
 6278SOL    HW219281   3.119   2.961  12.388
 6279SOL     OW19282   3.164   2.717  11.481
 6279SOL    HW119283   3.078   2.686  11.523
 6279SOL    HW219284   3.160   2.703  11.382
 6280SOL     OW19285   3.621   3.609  12.326
 6280SOL    HW119286   3.682   3.639  12.253
 6280SOL    HW219287   3.583   3.520  12.304
 6281SOL     OW19288   3.114   3.593  12.300
 6281SOL    HW119289   3.198   3.598  12.246
 6281SOL    HW219290   3.091   3.497  12.318
 6282SOL     OW19291   1.945   3.120  12.194
 6282SOL    HW119292   1.940   3.119  12.294
 6282SOL    HW219293   1.862   3.079  12.156
 6283SOL     OW19294   2.550   3.524  12.888
 6283SOL    HW119295   2.494   3.605  12.897
 6283SOL    HW219296   2.602   3.528  12.802
 6284SOL     OW19297   3.588   1.997  11.695
 6284SOL    HW119298   3.661   1.980  11.628
 6284SOL    HW219299   3.557   1.910  11.733
 6285SOL     OW19300   3.250   3.435  11.649
 6285SOL    HW119301   3.317   3.447  11.575
 6285SOL    HW219302   3.210   3.524  11.672
 6286SOL     OW19303   1.992   3.656  13.023
 6286SOL    HW119304   1.951   3.582  13.076
 6286SOL    HW219305   2.056   3.707  13.081
 6287SOL     OW19306   3.142   2.789  11.844
 6287SOL    HW119307   3.202   2.708  11.846
 6287SOL    HW219308   3.182   2.858  11.784
 6288SOL     OW19309   2.692   3.135  12.594
 6288SOL    HW119310   2.687   3.168  12.689
 6288SOL    HW219311   2.606   3.154  12.548
 6289SOL     OW19312   2.534   3.478  11.326
 6289SOL    HW119313   2.543   3.488  11.227
 6289SOL    HW219314   2.494   3.389  11.347
 6290SOL     OW19315   3.512   3.582  12.566
 6290SOL    HW119316   3.565   3.592  12.482
 6290SOL    HW219317   3.485   3.672  12.600
 6291SOL     OW19318   3.703   2.037  12.135
 6291SOL    HW119319   3.742   1.952  12.099
 6291SOL    HW219320   3.605   2.039  12.116
 6292SOL     OW19321   3.056   3.474  11.203
 6292SOL    HW119322   3.062   3.381  11.240
 6292SOL    HW219323   2.997   3.474  11.123
 6293SOL     OW19324   2.684   2.864  12.544
 6293SOL    HW119325   2.724   2.863  12.452
 6293SOL    HW219326   2.694   2.956  12.584
 6294SOL     OW19327   2.778   2.772  11.463
 6294SOL    HW119328   2.841   2.810  11.395
 6294SOL    HW219329   2.818   2.689  11.502
 6295SOL     OW19330   3.366   3.469  11.216
 6295SOL    HW119331   3.274   3.506  11.223
 6295SOL    HW219332   3.404   3.489  11.126
 6296SOL     OW19333   2.234   3.150  12.662
 6296SOL    HW119334   2.221   3.243  12.628
 6296SOL    HW219335   2.150   3.098  12.649
 6297SOL     OW19336   3.476   3.154  12.461
 6297SOL    HW119337   3.536   3.157  12.541
 6297SOL    HW219338   3.401   3.218  12.474
 6298SOL     OW19339   2.901   2.960  11.868
 6298SOL    HW119340   2.831   2.913  11.922
 6298SOL    HW219341   2.960   2.892  11.825
 6299SOL     OW19342   2.876   2.098  12.143
 6299SOL    HW119343   2.868   2.062  12.050
 6299SOL    HW219344   2.874   2.022  12.208
 6300SOL     OW19345   2.452   3.349  11.663
 6300SOL    HW119346   2.494   3.291  11.593
 6300SOL    HW219347   2.408   3.428  11.619
 6301SOL     OW19348   3.571   2.247  12.553
 6301SOL    HW119349   3.644   2.316  12.557
 6301SOL    HW219350   3.599   2.172  12.494
 6302SOL     OW19351   2.117   3.210  11.462
 6302SOL    HW119352   2.021   3.211  11.435
 6302SOL    HW219353   2.129   3.263  11.546
 6303SOL     OW19354   1.967   2.875  12.898
 6303SOL    HW119355   1.890   2.842  12.952
 6303SOL    HW219356   2.052   2.845  12.940
 6304SOL     OW19357   2.534   2.065  12.661
 6304SOL    HW119358   2.624   2.049  12.621
 6304SOL    HW219359   2.542   2.070  12.760
 6305SOL     OW19360   3.302   2.718  12.570
 6305SOL    HW119361   3.245   2.770  12.507
 6305SOL    HW219362   3.398   2.730  12.546
 6306SOL     OW19363   3.045   3.197  11.291
 6306SOL    HW119364   2.946   3.186  11.293
 6306SOL    HW219365   3.079   3.212  11.384
 6307SOL     OW19366   2.475   2.704  12.603
 6307SOL    HW119367   2.531   2.785  12.586
 6307SOL    HW219368   2.534   2.624  12.606
 6308SOL     OW19369   3.355   3.629  12.131
 6308SOL    HW119370   3.388   3.693  12.062
 6308SOL    HW219371   3.421   3.623  12.206
 6309SOL     OW19372   2.578   2.427  12.880
 6309SOL    HW119373   2.597   2.492  12.954
 6309SOL    HW219374   2.638   2.347  12.889
 6310SOL     OW19375   3.312   3.082  12.805
 6310SOL    HW119376   3.303   3.072  12.904
 6310SOL    HW219377   3.408   3.075  12.779
 6311SOL     OW19378   2.252   3.603  12.732
 6311SOL    HW119379   2.161   3.644  12.730
 6311SOL    HW219380   2.245   3.509  12.764
 6312SOL     OW19381   3.536   2.745  12.426
 6312SOL    HW119382   3.509   2.656  12.389
 6312SOL    HW219383   3.537   2.813  12.353
 6313SOL     OW19384   3.087   2.187  11.621
 6313SOL    HW119385   3.152   2.113  11.610
 6313SOL    HW219386   3.107   2.237  11.705
 6314SOL     OW19387   2.456   2.607  11.824
 6314SOL    HW119388   2.506   2.692  11.805
 6314SOL    HW219389   2.368   2.609  11.776
 6315SOL     OW19390   3.639   2.204  12.814
 6315SOL    HW119391   3.622   2.235  12.720
 6315SOL    HW219392   3.555   2.167  12.852
 6316SOL     OW19393   3.592   2.796  12.689
 6316SOL    HW119394   3.630   2.887  12.704
 6316SOL    HW219395   3.584   2.779  12.590
 6317SOL     OW19396   2.721   3.236  11.188
 6317SOL    HW119397   2.675   3.251  11.276
 6317SOL    HW219398   2.765   3.321  11.158
 6318SOL     OW19399   2.523   3.652  12.125
 6318SOL    HW119400   2.477   3.740  12.112
 6318SOL    HW219401   2.622   3.664  12.118
 6319SOL     OW19402   2.721   2.818  12.033
 6319SOL    HW119403   2.775   2.749  12.081
 6319SOL    HW219404   2.689   2.887  12.099
 6320SOL     OW19405   2.945   2.846  11.259
 6320SOL    HW119406   2.922   2.899  11.177
 6320SOL    HW219407   3.026   2.790  11.240
 6321SOL     OW19408   3.723   3.431  12.023
 6321SOL    HW119409   3.652   3.419  11.953
 6321SOL    HW219410   3.724   3.352  12.083
 6322SOL     OW19411   2.083   3.176  13.016
 6322SOL    HW119412   2.018   3.103  12.995
 6322SOL    HW219413   2.087   3.190  13.114
 6323SOL     OW19414   1.941   3.102  11.825
 6323SOL    HW119415   1.940   3.055  11.913
 6323SOL    HW219416   2.023   3.074  11.774
 6324SOL     OW19417   2.534   3.253  12.796
 6324SOL    HW119418   2.456   3.203  12.834
 6324SOL    HW219419   2.531   3.348  12.827
 6325SOL     OW19420   3.686   2.054  12.399
 6325SOL    HW119421   3.682   1.964  12.443
 6325SOL    HW219422   3.689   2.043  12.300
 6326SOL     OW19423   2.290   2.286  11.692
 6326SOL    HW119424   2.320   2.214  11.630
 6326SOL    HW219425   2.251   2.246  11.775
 6327SOL     OW19426   3.567   3.349  12.276
 6327SOL    HW119427   3.474   3.324  12.249
 6327SOL    HW219428   3.593   3.299  12.358
 6328SOL     OW19429   2.179   2.409  12.452
 6328SOL    HW119430   2.217   2.350  12.524
 6328SOL    HW219431   2.219   2.383  12.364
 6329SOL     OW19432   2.674   3.448  11.859
 6329SOL    HW119433   2.706   3.458  11.765
 6329SOL    HW219434   2.595   3.386  11.861
 6330SOL     OW19435   3.286   2.076  12.284
 6330SOL    HW119436   3.338   2.011  12.339
 6330SOL    HW219437   3.237   2.139  12.345
 6331SOL     OW19438   2.863   1.896  12.326
 6331SOL    HW119439   2.800   1.824  12.295
 6331SOL    HW219440   2.956   1.860  12.326
 6332SOL     OW19441   2.632   3.192  11.473
 6332SOL    HW119442   2.586   3.105  11.490
 6332SOL    HW219443   2.723   3.189  11.514
 6333SOL     OW19444   2.480   3.429  12.456
 6333SOL    HW119445   2.475   3.511  12.513
 6333SOL    HW219446   2.569   3.426  12.411
 6334SOL     OW19447   3.214   1.914  11.340
 6334SOL    HW119448   3.249   1.873  11.256
 6334SOL    HW219449   3.124   1.876  11.360
 6335SOL     OW19450   3.162   2.315  11.863
 6335SOL    HW119451   3.103   2.395  11.867
 6335SOL    HW219452   3.177   2.280  11.956
 6336SOL     OW19453   3.455   2.083  12.054
 6336SOL    HW119454   3.371   2.082  12.108
 6336SOL    HW219455   3.457   2.166  11.998
 6337SOL     OW19456   1.901   2.939  11.472
 6337SOL    HW119457   2.000   2.928  11.463
 6337SOL    HW219458   1.861   2.853  11.504
 6338SOL     OW19459   2.737   3.508  11.509
 6338SOL    HW119460   2.660   3.473  11.455
 6338SOL    HW219461   2.705   3.579  11.571
 6339SOL     OW19462   2.092   2.490  13.147
 6339SOL    HW119463   1.999   2.488  13.184
 6339SOL    HW219464   2.093   2.451  13.055
 6340SOL     OW19465   1.881   2.230  13.681
 6340SOL    HW119466   1.799   2.273  13.720
 6340SOL    HW219467   1.853   2.157  13.618
 6341SOL     OW19468   3.417   3.373  13.737
 6341SOL    HW119469   3.360   3.357  13.818
 6341SOL    HW219470   3.358   3.383  13.657
 6342SOL     OW19471   2.997   2.565  13.751
 6342SOL    HW119472   3.054   2.643  13.726
 6342SOL    HW219473   2.937   2.591  13.827
 6343SOL     OW19474   3.617   2.469  13.265
 6343SOL    HW119475   3.605   2.456  13.166
 6343SOL    HW219476   3.587   2.388  13.314
 6344SOL     OW19477   2.547   2.874  13.699
 6344SOL    HW119478   2.616   2.858  13.769
 6344SOL    HW219479   2.474   2.931  13.737
 6345SOL     OW19480   3.465   2.309  13.771
 6345SOL    HW119481   3.391   2.355  13.721
 6345SOL    HW219482   3.516   2.377  13.824
 6346SOL     OW19483   2.093   3.575  13.517
 6346SOL    HW119484   2.127   3.652  13.571
 6346SOL    HW219485   2.137   3.575  13.427
 6347SOL     OW19486   2.092   3.296  13.572
 6347SOL    HW119487   2.066   3.392  13.572
 6347SOL    HW219488   2.021   3.242  13.617
 6348SOL     OW19489   2.102   2.953  13.920
 6348SOL    HW119490   2.116   2.869  13.972
 6348SOL    HW219491   2.047   3.017  13.975
 6349SOL     OW19492   2.468   2.826  13.157
 6349SOL    HW119493   2.475   2.910  13.103
 6349SOL    HW219494   2.514   2.839  13.245
 6350SOL     OW19495   1.984   2.505  13.597
 6350SOL    HW119496   1.939   2.417  13.614
 6350SOL    HW219497   1.983   2.559  13.681
 6351SOL     OW19498   3.704   3.629  13.393
 6351SOL    HW119499   3.758   3.600  13.473
 6351SOL    HW219500   3.734   3.719  13.364
 6352SOL     OW19501   1.889   3.458  13.151
 6352SOL    HW119502   1.870   3.362  13.172
 6352SOL    HW219503   1.856   3.516  13.226
 6353SOL     OW19504   3.551   2.784  13.646
 6353SOL    HW119505   3.646   2.755  13.654
 6353SOL    HW219506   3.543   2.849  13.571
 6354SOL     OW19507   3.503   2.970  13.466
 6354SOL    HW119508   3.589   2.972  13.414
 6354SOL    HW219509   3.517   3.017  13.554
 6355SOL     OW19510   2.475   3.227  13.760
 6355SOL    HW119511   2.426   3.140  13.769
 6355SOL    HW219512   2.452   3.270  13.673
 6356SOL     OW19513   2.671   1.866  13.536
 6356SOL    HW119514   2.711   1.957  13.527
 6356SOL    HW219515   2.571   1.874  13.542
 6357SOL     OW19516   3.387   2.861  13.224
 6357SOL    HW119517   3.324   2.785  13.237
 6357SOL    HW219518   3.435   2.879  13.310
 6358SOL     OW19519   3.529   3.576  13.606
 6358SOL    HW119520   3.488   3.553  13.518
 6358SOL    HW219521   3.511   3.502  13.671
 6359SOL     OW19522   2.460   2.591  13.304
 6359SOL    HW119523   2.484   2.660  13.236
 6359SOL    HW219524   2.382   2.624  13.358
 6360SOL     OW19525   3.143   2.207  13.978
 6360SOL    HW119526   3.057   2.157  13.965
 6360SOL    HW219527   3.205   2.153  14.034
 6361SOL     OW19528   3.438   3.524  13.341
 6361SOL    HW119529   3.527   3.570  13.344
 6361SOL    HW219530   3.417   3.500  13.246
 6362SOL     OW19531   2.903   2.563  13.463
 6362SOL    HW119532   2.929   2.559  13.559
 6362SOL    HW219533   2.818   2.512  13.449
 6363SOL     OW19534   1.938   2.673  13.823
 6363SOL    HW119535   2.037   2.661  13.832
 6363SOL    HW219536   1.914   2.768  13.844
 6364SOL     OW19537   2.727   2.210  13.229
 6364SOL    HW119538   2.786   2.273  13.180
 6364SOL    HW219539   2.746   2.116  13.200
 6365SOL     OW19540   3.224   3.006  13.579
 6365SOL    HW119541   3.307   2.977  13.531
 6365SOL    HW219542   3.175   3.073  13.523
 6366SOL     OW19543   2.870   3.318  13.511
 6366SOL    HW119544   2.824   3.390  13.459
 6366SOL    HW219545   2.866   3.338  13.609
 6367SOL     OW19546   2.213   3.663  13.887
 6367SOL    HW119547   2.263   3.577  13.893
 6367SOL    HW219548   2.278   3.740  13.884
 6368SOL     OW19549   3.657   2.928  13.907
 6368SOL    HW119550   3.595   2.913  13.831
 6368SOL    HW219551   3.605   2.939  13.992
 6369SOL     OW19552   2.183   2.805  13.276
 6369SOL    HW119553   2.265   2.844  13.234
 6369SOL    HW219554   2.156   2.723  13.227
 6370SOL     OW19555   3.320   2.597  13.762
 6370SOL    HW119556   3.315   2.532  13.837
 6370SOL    HW219557   3.400   2.656  13.775
 6371SOL     OW19558   2.973   3.638  13.271
 6371SOL    HW119559   2.913   3.576  13.321
 6371SOL    HW219560   3.004   3.594  13.186
 6372SOL     OW19561   3.494   3.239  13.115
 6372SOL    HW119562   3.462   3.333  13.105
 6372SOL    HW219563   3.418   3.176  13.103
 6373SOL     OW19564   2.326   3.605  13.357
 6373SOL    HW119565   2.359   3.644  13.443
 6373SOL    HW219566   2.402   3.598  13.292
 6374SOL     OW19567   3.262   1.969  13.460
 6374SOL    HW119568   3.238   1.932  13.370
 6374SOL    HW219569   3.361   1.985  13.464
 6375SOL     OW19570   2.802   3.560  13.938
 6375SOL    HW119571   2.882   3.503  13.959
 6375SOL    HW219572   2.753   3.520  13.861
 6376SOL     OW19573   2.244   2.562  13.514
 6376SOL    HW119574   2.289   2.472  13.511
 6376SOL    HW219575   2.150   2.551  13.547
 6377SOL     OW19576   2.476   1.984  13.151
 6377SOL    HW119577   2.574   1.962  13.158
 6377SOL    HW219578   2.445   1.967  13.058
 6378SOL     OW19579   2.401   1.926  13.546
 6378SOL    HW119580   2.320   1.927  13.604
 6378SOL    HW219581   2.404   2.009  13.491
 6379SOL     OW19582   3.296   3.050  13.075
 6379SOL    HW119583   3.328   2.974  13.132
 6379SOL    HW219584   3.204   3.077  13.105
 6380SOL     OW19585   2.797   2.098  13.514
 6380SOL    HW119586   2.749   2.139  13.436
 6380SOL    HW219587   2.896   2.096  13.495
 6381SOL     OW19588   2.321   3.014  13.775
 6381SOL    HW119589   2.250   2.987  13.840
 6381SOL    HW219590   2.295   2.986  13.682
 6382SOL     OW19591   3.133   3.659  13.625
 6382SOL    HW119592   3.177   3.723  13.561
 6382SOL    HW219593   3.083   3.711  13.695
 6383SOL     OW19594   2.894   2.411  13.050
 6383SOL    HW119595   2.853   2.493  13.011
 6383SOL    HW219596   2.958   2.437  13.123
 6384SOL     OW19597   2.728   2.316  13.676
 6384SOL    HW119598   2.696   2.388  13.614
 6384SOL    HW219599   2.752   2.235  13.623
 6385SOL     OW19600   2.879   1.901  13.787
 6385SOL    HW119601   2.807   1.906  13.718
 6385SOL    HW219602   2.855   1.832  13.856
 6386SOL     OW19603   3.719   2.695  13.411
 6386SOL    HW119604   3.761   2.631  13.475
 6386SOL    HW219605   3.681   2.644  13.333
 6387SOL     OW19606   2.350   3.247  13.208
 6387SOL    HW119607   2.263   3.232  13.255
 6387SOL    HW219608   2.333   3.273  13.113
 6388SOL     OW19609   3.526   3.142  13.691
 6388SOL    HW119610   3.625   3.150  13.705
 6388SOL    HW219611   3.481   3.226  13.722
 6389SOL     OW19612   3.252   2.437  13.112
 6389SOL    HW119613   3.198   2.416  13.193
 6389SOL    HW219614   3.343   2.396  13.121
 6390SOL     OW19615   2.389   2.118  13.362
 6390SOL    HW119616   2.416   2.059  13.287
 6390SOL    HW219617   2.389   2.213  13.331
 6391SOL     OW19618   2.567   2.912  13.402
 6391SOL    HW119619   2.553   2.919  13.501
 6391SOL    HW219620   2.651   2.861  13.384
 6392SOL     OW19621   2.229   2.962  13.535
 6392SOL    HW119622   2.222   3.045  13.479
 6392SOL    HW219623   2.233   2.882  13.475
 6393SOL     OW19624   2.428   2.399  13.899
 6393SOL    HW119625   2.440   2.465  13.825
 6393SOL    HW219626   2.474   2.433  13.982
 6394SOL     OW19627   3.114   3.210  13.422
 6394SOL    HW119628   3.164   3.287  13.462
 6394SOL    HW219629   3.019   3.212  13.454
 6395SOL     OW19630   3.444   2.501  13.506
 6395SOL    HW119631   3.413   2.562  13.579
 6395SOL    HW219632   3.494   2.553  13.437
 6396SOL     OW19633   3.071   2.387  13.309
 6396SOL    HW119634   3.084   2.303  13.363
 6396SOL    HW219635   3.042   2.461  13.369
 6397SOL     OW19636   3.484   2.229  13.408
 6397SOL    HW119637   3.486   2.153  13.472
 6397SOL    HW219638   3.436   2.306  13.448
 6398SOL     OW19639   3.402   2.136  13.159
 6398SOL    HW119640   3.341   2.061  13.182
 6398SOL    HW219641   3.424   2.188  13.242
 6399SOL     OW19642   3.165   2.700  13.076
 6399SOL    HW119643   3.199   2.607  13.091
 6399SOL    HW219644   3.183   2.727  12.981
 6400SOL     OW19645   1.870   3.188  13.234
 6400SOL    HW119646   1.777   3.209  13.203
 6400SOL    HW219647   1.880   3.089  13.247
 6401SOL     OW19648   2.677   2.434  13.359
 6401SOL    HW119649   2.684   2.345  13.313
 6401SOL    HW219650   2.583   2.468  13.351
 6402SOL     OW19651   2.335   2.362  13.225
 6402SOL    HW119652   2.396   2.442  13.229
 6402SOL    HW219653   2.240   2.393  13.232
 6403SOL     OW19654   3.164   2.717  13.343
 6403SOL    HW119655   3.078   2.686  13.385
 6403SOL    HW219656   3.160   2.703  13.244
 6404SOL     OW19657   3.588   1.997  13.557
 6404SOL    HW119658   3.661   1.980  13.490
 6404SOL    HW219659   3.557   1.910  13.595
 6405SOL     OW19660   3.250   3.435  13.511
 6405SOL    HW119661   3.317   3.447  13.437
 6405SOL    HW219662   3.210   3.524  13.534
 6406SOL     OW19663   3.142   2.789  13.706
 6406SOL    HW119664   3.202   2.708  13.708
 6406SOL    HW219665   3.182   2.858  13.646
 6407SOL     OW19666   2.534   3.478  13.188
 6407SOL    HW119667   2.543   3.488  13.089
 6407SOL    HW219668   2.494   3.389  13.209
 6408SOL     OW19669   3.703   2.037  13.997
 6408SOL    HW119670   3.742   1.952  13.961
 6408SOL    HW219671   3.605   2.039  13.978
 6409SOL     OW19672   2.125   2.188  13.754
 6409SOL    HW119673   2.046   2.239  13.720
 6409SOL    HW219674   2.116   2.173  13.852
 6410SOL     OW19675   3.056   3.474  13.065
 6410SOL    HW119676   3.062   3.381  13.102
 6410SOL    HW219677   2.997   3.474  12.985
 6411SOL     OW19678   2.778   2.772  13.325
 6411SOL    HW119679   2.841   2.810  13.257
 6411SOL    HW219680   2.818   2.689  13.364
 6412SOL     OW19681   3.366   3.469  13.078
 6412SOL    HW119682   3.274   3.506  13.085
 6412SOL    HW219683   3.404   3.489  12.988
 6413SOL     OW19684   2.901   2.960  13.730
 6413SOL    HW119685   2.831   2.913  13.784
 6413SOL    HW219686   2.960   2.892  13.687
 6414SOL     OW19687   2.452   3.349  13.525
 6414SOL    HW119688   2.494   3.291  13.455
 6414SOL    HW219689   2.408   3.428  13.481
 6415SOL     OW19690   2.117   3.210  13.324
 6415SOL    HW119691   2.021   3.211  13.297
 6415SOL    HW219692   2.129   3.263  13.408
 6416SOL     OW19693   3.045   3.197  13.153
 6416SOL    HW119694   2.946   3.186  13.155
 6416SOL    HW219695   3.079   3.212  13.246
 6417SOL     OW19696   3.087   2.187  13.483
 6417SOL    HW119697   3.152   2.113  13.472
 6417SOL    HW219698   3.107   2.237  13.567
 6418SOL     OW19699   2.456   2.607  13.686
 6418SOL    HW119700   2.506   2.692  13.667
 6418SOL    HW219701   2.368   2.609  13.638
 6419SOL     OW19702   2.721   3.236  13.050
 6419SOL    HW119703   2.675   3.251  13.138
 6419SOL    HW219704   2.765   3.321  13.020
 6420SOL     OW19705   2.523   3.652  13.987
 6420SOL    HW119706   2.477   3.740  13.974
 6420SOL    HW219707   2.622   3.664  13.980
 6421SOL     OW19708   2.721   2.818  13.895
 6421SOL    HW119709   2.775   2.749  13.943
 6421SOL    HW219710   2.689   2.887  13.961
 6422SOL     OW19711   2.945   2.846  13.121
 6422SOL    HW119712   2.922   2.899  13.039
 6422SOL    HW219713   3.026   2.790  13.102
 6423SOL     OW19714   1.941   3.102  13.687
 6423SOL    HW119715   1.940   3.055  13.775
 6423SOL    HW219716   2.023   3.074  13.636
 6424SOL     OW19717   2.290   2.286  13.554
 6424SOL    HW119718   2.320   2.214  13.492
 6424SOL    HW219719   2.251   2.246  13.637
 6425SOL     OW19720   3.567   3.349  14.138
 6425SOL    HW119721   3.474   3.324  14.111
 6425SOL    HW219722   3.593   3.299  14.220
 6426SOL     OW19723   2.674   3.448  13.721
 6426SOL    HW119724   2.706   3.458  13.627
 6426SOL    HW219725   2.595   3.386  13.723
 6427SOL     OW19726   2.632   3.192  13.335
 6427SOL    HW119727   2.586   3.105  13.352
 6427SOL    HW219728   2.723   3.189  13.376
 6428SOL     OW19729   3.214   1.914  13.202
 6428SOL    HW119730   3.249   1.873  13.118
 6428SOL    HW219731   3.124   1.876  13.222
 6429SOL     OW19732   3.162   2.315  13.725
 6429SOL    HW119733   3.103   2.395  13.729
 6429SOL    HW219734   3.177   2.280  13.818
 6430SOL     OW19735   1.901   2.939  13.334
 6430SOL    HW119736   2.000   2.928  13.325
 6430SOL    HW219737   1.861   2.853  13.366
 6431SOL     OW19738   2.737   3.508  13.371
 6431SOL    HW119739   2.660   3.473  13.317
 6431SOL    HW219740   2.705   3.579  13.433
 6432SOL     OW19741   2.087   3.999   0.996
 6432SOL    HW119742   2.122   3.982   1.088
 6432SOL    HW219743   1.999   3.954   0.984
 6433SOL     OW19744   1.881   4.092   0.647
 6433SOL    HW119745   1.799   4.135   0.686
 6433SOL    HW219746   1.853   4.019   0.584
 6434SOL     OW19747   3.617   4.331   0.231
 6434SOL    HW119748   3.605   4.318   0.132
 6434SOL    HW219749   3.587   4.250   0.280
 6435SOL     OW19750   2.300   4.116   1.499
 6435SOL    HW119751   2.382   4.060   1.508
 6435SOL    HW219752   2.219   4.058   1.503
 6436SOL     OW19753   3.456   3.838   1.480
 6436SOL    HW119754   3.438   3.905   1.408
 6436SOL    HW219755   3.453   3.884   1.569
 6437SOL     OW19756   2.671   3.728   0.502
 6437SOL    HW119757   2.711   3.819   0.493
 6437SOL    HW219758   2.571   3.736   0.508
 6438SOL     OW19759   3.143   4.069   0.944
 6438SOL    HW119760   3.057   4.019   0.931
 6438SOL    HW219761   3.205   4.015   1.000
 6439SOL     OW19762   2.412   3.920   0.885
 6439SOL    HW119763   2.407   3.915   0.985
 6439SOL    HW219764   2.414   4.016   0.856
 6440SOL     OW19765   2.064   4.009   1.498
 6440SOL    HW119766   1.984   4.069   1.485
 6440SOL    HW219767   2.054   3.960   1.584
 6441SOL     OW19768   3.262   3.831   0.426
 6441SOL    HW119769   3.238   3.794   0.336
 6441SOL    HW219770   3.361   3.847   0.430
 6442SOL     OW19771   3.409   3.946   1.729
 6442SOL    HW119772   3.404   3.983   1.821
 6442SOL    HW219773   3.337   3.877   1.717
 6443SOL     OW19774   2.643   3.988   1.749
 6443SOL    HW119775   2.710   3.927   1.792
 6443SOL    HW219776   2.570   4.007   1.814
 6444SOL     OW19777   2.401   3.788   0.512
 6444SOL    HW119778   2.320   3.789   0.570
 6444SOL    HW219779   2.404   3.871   0.457
 6445SOL     OW19780   2.159   3.759   0.171
 6445SOL    HW119781   2.208   3.843   0.150
 6445SOL    HW219782   2.221   3.694   0.216
 6446SOL     OW19783   2.423   3.946   1.147
 6446SOL    HW119784   2.461   3.862   1.184
 6446SOL    HW219785   2.335   3.965   1.191
 6447SOL     OW19786   2.879   3.763   0.753
 6447SOL    HW119787   2.807   3.768   0.684
 6447SOL    HW219788   2.855   3.694   0.822
 6448SOL     OW19789   2.777   3.813   1.402
 6448SOL    HW119790   2.802   3.793   1.307
 6448SOL    HW219791   2.849   3.869   1.444
 6449SOL     OW19792   3.136   4.110   1.262
 6449SOL    HW119793   3.157   4.184   1.326
 6449SOL    HW219794   3.047   4.127   1.219
 6450SOL     OW19795   2.366   3.774   1.740
 6450SOL    HW119796   2.324   3.717   1.670
 6450SOL    HW219797   2.300   3.843   1.772
 6451SOL     OW19798   2.169   3.937   1.231
 6451SOL    HW119799   2.146   3.974   1.321
 6451SOL    HW219800   2.139   3.842   1.225
 6452SOL     OW19801   3.402   3.998   0.125
 6452SOL    HW119802   3.341   3.923   0.148
 6452SOL    HW219803   3.424   4.050   0.208
 6453SOL     OW19804   3.022   3.931   1.477
 6453SOL    HW119805   3.022   3.995   1.554
 6453SOL    HW219806   3.050   3.979   1.394
 6454SOL     OW19807   2.765   3.810   0.133
 6454SOL    HW119808   2.816   3.811   0.047
 6454SOL    HW219809   2.821   3.768   0.204
 6455SOL     OW19810   3.588   3.859   0.523
 6455SOL    HW119811   3.661   3.842   0.456
 6455SOL    HW219812   3.557   3.772   0.561
 6456SOL     OW19813   3.703   3.899   0.963
 6456SOL    HW119814   3.742   3.814   0.927
 6456SOL    HW219815   3.605   3.901   0.944
 6457SOL     OW19816   2.534   3.927   1.489
 6457SOL    HW119817   2.624   3.911   1.449
 6457SOL    HW219818   2.542   3.932   1.588
 6458SOL     OW19819   1.934   3.890   0.318
 6458SOL    HW119820   1.917   3.973   0.264
 6458SOL    HW219821   2.024   3.853   0.296
 6459SOL     OW19822   3.087   4.049   0.449
 6459SOL    HW119823   3.152   3.975   0.438
 6459SOL    HW219824   3.107   4.099   0.533
 6460SOL     OW19825   3.639   4.066   1.642
 6460SOL    HW119826   3.622   4.097   1.548
 6460SOL    HW219827   3.555   4.029   1.680
 6461SOL     OW19828   3.686   3.916   1.227
 6461SOL    HW119829   3.682   3.826   1.271
 6461SOL    HW219830   3.689   3.905   1.128
 6462SOL     OW19831   3.286   3.938   1.112
 6462SOL    HW119832   3.338   3.873   1.167
 6462SOL    HW219833   3.237   4.001   1.173
 6463SOL     OW19834   2.863   3.758   1.154
 6463SOL    HW119835   2.800   3.686   1.123
 6463SOL    HW219836   2.956   3.722   1.154
 6464SOL     OW19837   3.214   3.776   0.168
 6464SOL    HW119838   3.249   3.735   0.084
 6464SOL    HW219839   3.124   3.738   0.188
 6465SOL     OW19840   3.162   4.177   0.691
 6465SOL    HW119841   3.103   4.257   0.695
 6465SOL    HW219842   3.177   4.142   0.784
 6466SOL     OW19843   3.455   3.945   0.882
 6466SOL    HW119844   3.371   3.944   0.936
 6466SOL    HW219845   3.457   4.028   0.826
 6467SOL     OW19846   2.087   3.999   2.858
 6467SOL    HW119847   2.122   3.982   2.950
 6467SOL    HW219848   1.999   3.954   2.846
 6468SOL     OW19849   1.881   4.092   2.509
 6468SOL    HW119850   1.799   4.135   2.548
 6468SOL    HW219851   1.853   4.019   2.446
 6469SOL     OW19852   3.617   4.331   2.093
 6469SOL    HW119853   3.605   4.318   1.994
 6469SOL    HW219854   3.587   4.250   2.142
 6470SOL     OW19855   2.300   4.116   3.361
 6470SOL    HW119856   2.382   4.060   3.370
 6470SOL    HW219857   2.219   4.058   3.365
 6471SOL     OW19858   3.456   3.838   3.342
 6471SOL    HW119859   3.438   3.905   3.270
 6471SOL    HW219860   3.453   3.884   3.431
 6472SOL     OW19861   2.671   3.728   2.364
 6472SOL    HW119862   2.711   3.819   2.355
 6472SOL    HW219863   2.571   3.736   2.370
 6473SOL     OW19864   3.143   4.069   2.806
 6473SOL    HW119865   3.057   4.019   2.793
 6473SOL    HW219866   3.205   4.015   2.862
 6474SOL     OW19867   2.412   3.920   2.747
 6474SOL    HW119868   2.407   3.915   2.847
 6474SOL    HW219869   2.414   4.016   2.718
 6475SOL     OW19870   2.064   4.009   3.360
 6475SOL    HW119871   1.984   4.069   3.347
 6475SOL    HW219872   2.054   3.960   3.446
 6476SOL     OW19873   3.262   3.831   2.288
 6476SOL    HW119874   3.238   3.794   2.198
 6476SOL    HW219875   3.361   3.847   2.292
 6477SOL     OW19876   3.409   3.946   3.591
 6477SOL    HW119877   3.404   3.983   3.683
 6477SOL    HW219878   3.337   3.877   3.579
 6478SOL     OW19879   2.476   3.846   1.979
 6478SOL    HW119880   2.574   3.824   1.986
 6478SOL    HW219881   2.445   3.829   1.886
 6479SOL     OW19882   2.643   3.988   3.611
 6479SOL    HW119883   2.710   3.927   3.654
 6479SOL    HW219884   2.570   4.007   3.676
 6480SOL     OW19885   2.401   3.788   2.374
 6480SOL    HW119886   2.320   3.789   2.432
 6480SOL    HW219887   2.404   3.871   2.319
 6481SOL     OW19888   2.159   3.759   2.033
 6481SOL    HW119889   2.208   3.843   2.012
 6481SOL    HW219890   2.221   3.694   2.078
 6482SOL     OW19891   2.423   3.946   3.009
 6482SOL    HW119892   2.461   3.862   3.046
 6482SOL    HW219893   2.335   3.965   3.053
 6483SOL     OW19894   2.879   3.763   2.615
 6483SOL    HW119895   2.807   3.768   2.546
 6483SOL    HW219896   2.855   3.694   2.684
 6484SOL     OW19897   2.777   3.813   3.264
 6484SOL    HW119898   2.802   3.793   3.169
 6484SOL    HW219899   2.849   3.869   3.306
 6485SOL     OW19900   3.136   4.110   3.124
 6485SOL    HW119901   3.157   4.184   3.188
 6485SOL    HW219902   3.047   4.127   3.081
 6486SOL     OW19903   2.366   3.774   3.602
 6486SOL    HW119904   2.324   3.717   3.532
 6486SOL    HW219905   2.300   3.843   3.634
 6487SOL     OW19906   2.169   3.937   3.093
 6487SOL    HW119907   2.146   3.974   3.183
 6487SOL    HW219908   2.139   3.842   3.087
 6488SOL     OW19909   3.402   3.998   1.987
 6488SOL    HW119910   3.341   3.923   2.010
 6488SOL    HW219911   3.424   4.050   2.070
 6489SOL     OW19912   3.022   3.931   3.339
 6489SOL    HW119913   3.022   3.995   3.416
 6489SOL    HW219914   3.050   3.979   3.256
 6490SOL     OW19915   2.765   3.810   1.995
 6490SOL    HW119916   2.816   3.811   1.909
 6490SOL    HW219917   2.821   3.768   2.066
 6491SOL     OW19918   3.588   3.859   2.385
 6491SOL    HW119919   3.661   3.842   2.318
 6491SOL    HW219920   3.557   3.772   2.423
 6492SOL     OW19921   3.703   3.899   2.825
 6492SOL    HW119922   3.742   3.814   2.789
 6492SOL    HW219923   3.605   3.901   2.806
 6493SOL     OW19924   2.534   3.927   3.351
 6493SOL    HW119925   2.624   3.911   3.311
 6493SOL    HW219926   2.542   3.932   3.450
 6494SOL     OW19927   1.937   4.069   1.895
 6494SOL    HW119928   1.845   4.041   1.866
 6494SOL    HW219929   1.968   4.146   1.839
 6495SOL     OW19930   1.934   3.890   2.180
 6495SOL    HW119931   1.917   3.973   2.126
 6495SOL    HW219932   2.024   3.853   2.158
 6496SOL     OW19933   3.087   4.049   2.311
 6496SOL    HW119934   3.152   3.975   2.300
 6496SOL    HW219935   3.107   4.099   2.395
 6497SOL     OW19936   3.639   4.066   3.504
 6497SOL    HW119937   3.622   4.097   3.410
 6497SOL    HW219938   3.555   4.029   3.542
 6498SOL     OW19939   3.686   3.916   3.089
 6498SOL    HW119940   3.682   3.826   3.133
 6498SOL    HW219941   3.689   3.905   2.990
 6499SOL     OW19942   3.286   3.938   2.974
 6499SOL    HW119943   3.338   3.873   3.029
 6499SOL    HW219944   3.237   4.001   3.035
 6500SOL     OW19945   2.863   3.758   3.016
 6500SOL    HW119946   2.800   3.686   2.985
 6500SOL    HW219947   2.956   3.722   3.016
 6501SOL     OW19948   3.214   3.776   2.030
 6501SOL    HW119949   3.249   3.735   1.946
 6501SOL    HW219950   3.124   3.738   2.050
 6502SOL     OW19951   3.162   4.177   2.553
 6502SOL    HW119952   3.103   4.257   2.557
 6502SOL    HW219953   3.177   4.142   2.646
 6503SOL     OW19954   3.455   3.945   2.744
 6503SOL    HW119955   3.371   3.944   2.798
 6503SOL    HW219956   3.457   4.028   2.688
 6504SOL     OW19957   2.087   3.999   4.720
 6504SOL    HW119958   2.122   3.982   4.812
 6504SOL    HW219959   1.999   3.954   4.708
 6505SOL     OW19960   1.881   4.092   4.371
 6505SOL    HW119961   1.799   4.135   4.410
 6505SOL    HW219962   1.853   4.019   4.308
 6506SOL     OW19963   3.617   4.331   3.955
 6506SOL    HW119964   3.605   4.318   3.856
 6506SOL    HW219965   3.587   4.250   4.004
 6507SOL     OW19966   2.300   4.116   5.223
 6507SOL    HW119967   2.382   4.060   5.232
 6507SOL    HW219968   2.219   4.058   5.227
 6508SOL     OW19969   3.456   3.838   5.204
 6508SOL    HW119970   3.438   3.905   5.132
 6508SOL    HW219971   3.453   3.884   5.293
 6509SOL     OW19972   2.671   3.728   4.226
 6509SOL    HW119973   2.711   3.819   4.217
 6509SOL    HW219974   2.571   3.736   4.232
 6510SOL     OW19975   3.143   4.069   4.668
 6510SOL    HW119976   3.057   4.019   4.655
 6510SOL    HW219977   3.205   4.015   4.724
 6511SOL     OW19978   2.412   3.920   4.609
 6511SOL    HW119979   2.407   3.915   4.709
 6511SOL    HW219980   2.414   4.016   4.580
 6512SOL     OW19981   2.064   4.009   5.222
 6512SOL    HW119982   1.984   4.069   5.209
 6512SOL    HW219983   2.054   3.960   5.308
 6513SOL     OW19984   3.262   3.831   4.150
 6513SOL    HW119985   3.238   3.794   4.060
 6513SOL    HW219986   3.361   3.847   4.154
 6514SOL     OW19987   3.409   3.946   5.453
 6514SOL    HW119988   3.404   3.983   5.545
 6514SOL    HW219989   3.337   3.877   5.441
 6515SOL     OW19990   2.476   3.846   3.841
 6515SOL    HW119991   2.574   3.824   3.848
 6515SOL    HW219992   2.445   3.829   3.748
 6516SOL     OW19993   2.643   3.988   5.473
 6516SOL    HW119994   2.710   3.927   5.516
 6516SOL    HW219995   2.570   4.007   5.538
 6517SOL     OW19996   2.401   3.788   4.236
 6517SOL    HW119997   2.320   3.789   4.294
 6517SOL    HW219998   2.404   3.871   4.181
 6518SOL     OW19999   2.159   3.759   3.895
 6518SOL    HW120000   2.208   3.843   3.874
 6518SOL    HW220001   2.221   3.694   3.940
 6519SOL     OW20002   2.423   3.946   4.871
 6519SOL    HW120003   2.461   3.862   4.908
 6519SOL    HW220004   2.335   3.965   4.915
 6520SOL     OW20005   2.879   3.763   4.477
 6520SOL    HW120006   2.807   3.768   4.408
 6520SOL    HW220007   2.855   3.694   4.546
 6521SOL     OW20008   2.777   3.813   5.126
 6521SOL    HW120009   2.802   3.793   5.031
 6521SOL    HW220010   2.849   3.869   5.168
 6522SOL     OW20011   3.136   4.110   4.986
 6522SOL    HW120012   3.157   4.184   5.050
 6522SOL    HW220013   3.047   4.127   4.943
 6523SOL     OW20014   2.366   3.774   5.464
 6523SOL    HW120015   2.324   3.717   5.394
 6523SOL    HW220016   2.300   3.843   5.496
 6524SOL     OW20017   2.169   3.937   4.955
 6524SOL    HW120018   2.146   3.974   5.045
 6524SOL    HW220019   2.139   3.842   4.949
 6525SOL     OW20020   3.402   3.998   3.849
 6525SOL    HW120021   3.341   3.923   3.872
 6525SOL    HW220022   3.424   4.050   3.932
 6526SOL     OW20023   3.022   3.931   5.201
 6526SOL    HW120024   3.022   3.995   5.278
 6526SOL    HW220025   3.050   3.979   5.118
 6527SOL     OW20026   2.765   3.810   3.857
 6527SOL    HW120027   2.816   3.811   3.771
 6527SOL    HW220028   2.821   3.768   3.928
 6528SOL     OW20029   3.588   3.859   4.247
 6528SOL    HW120030   3.661   3.842   4.180
 6528SOL    HW220031   3.557   3.772   4.285
 6529SOL     OW20032   3.703   3.899   4.687
 6529SOL    HW120033   3.742   3.814   4.651
 6529SOL    HW220034   3.605   3.901   4.668
 6530SOL     OW20035   2.534   3.927   5.213
 6530SOL    HW120036   2.624   3.911   5.173
 6530SOL    HW220037   2.542   3.932   5.312
 6531SOL     OW20038   1.937   4.069   3.757
 6531SOL    HW120039   1.845   4.041   3.728
 6531SOL    HW220040   1.968   4.146   3.701
 6532SOL     OW20041   1.934   3.890   4.042
 6532SOL    HW120042   1.917   3.973   3.988
 6532SOL    HW220043   2.024   3.853   4.020
 6533SOL     OW20044   3.087   4.049   4.173
 6533SOL    HW120045   3.152   3.975   4.162
 6533SOL    HW220046   3.107   4.099   4.257
 6534SOL     OW20047   3.639   4.066   5.366
 6534SOL    HW120048   3.622   4.097   5.272
 6534SOL    HW220049   3.555   4.029   5.404
 6535SOL     OW20050   3.686   3.916   4.951
 6535SOL    HW120051   3.682   3.826   4.995
 6535SOL    HW220052   3.689   3.905   4.852
 6536SOL     OW20053   3.286   3.938   4.836
 6536SOL    HW120054   3.338   3.873   4.891
 6536SOL    HW220055   3.237   4.001   4.897
 6537SOL     OW20056   2.863   3.758   4.878
 6537SOL    HW120057   2.800   3.686   4.847
 6537SOL    HW220058   2.956   3.722   4.878
 6538SOL     OW20059   3.214   3.776   3.892
 6538SOL    HW120060   3.249   3.735   3.808
 6538SOL    HW220061   3.124   3.738   3.912
 6539SOL     OW20062   3.162   4.177   4.415
 6539SOL    HW120063   3.103   4.257   4.419
 6539SOL    HW220064   3.177   4.142   4.508
 6540SOL     OW20065   3.455   3.945   4.606
 6540SOL    HW120066   3.371   3.944   4.660
 6540SOL    HW220067   3.457   4.028   4.550
 6541SOL     OW20068   2.087   3.999   6.582
 6541SOL    HW120069   2.122   3.982   6.674
 6541SOL    HW220070   1.999   3.954   6.570
 6542SOL     OW20071   1.881   4.092   6.233
 6542SOL    HW120072   1.799   4.135   6.272
 6542SOL    HW220073   1.853   4.019   6.170
 6543SOL     OW20074   3.617   4.331   5.817
 6543SOL    HW120075   3.605   4.318   5.718
 6543SOL    HW220076   3.587   4.250   5.866
 6544SOL     OW20077   2.300   4.116   7.085
 6544SOL    HW120078   2.382   4.060   7.094
 6544SOL    HW220079   2.219   4.058   7.089
 6545SOL     OW20080   3.456   3.838   7.066
 6545SOL    HW120081   3.438   3.905   6.994
 6545SOL    HW220082   3.453   3.884   7.155
 6546SOL     OW20083   2.671   3.728   6.088
 6546SOL    HW120084   2.711   3.819   6.079
 6546SOL    HW220085   2.571   3.736   6.094
 6547SOL     OW20086   3.143   4.069   6.530
 6547SOL    HW120087   3.057   4.019   6.517
 6547SOL    HW220088   3.205   4.015   6.586
 6548SOL     OW20089   2.412   3.920   6.471
 6548SOL    HW120090   2.407   3.915   6.571
 6548SOL    HW220091   2.414   4.016   6.442
 6549SOL     OW20092   2.064   4.009   7.084
 6549SOL    HW120093   1.984   4.069   7.071
 6549SOL    HW220094   2.054   3.960   7.170
 6550SOL     OW20095   3.262   3.831   6.012
 6550SOL    HW120096   3.238   3.794   5.922
 6550SOL    HW220097   3.361   3.847   6.016
 6551SOL     OW20098   3.409   3.946   7.315
 6551SOL    HW120099   3.404   3.983   7.407
 6551SOL    HW220100   3.337   3.877   7.303
 6552SOL     OW20101   2.476   3.846   5.703
 6552SOL    HW120102   2.574   3.824   5.710
 6552SOL    HW220103   2.445   3.829   5.610
 6553SOL     OW20104   2.643   3.988   7.335
 6553SOL    HW120105   2.710   3.927   7.378
 6553SOL    HW220106   2.570   4.007   7.400
 6554SOL     OW20107   2.401   3.788   6.098
 6554SOL    HW120108   2.320   3.789   6.156
 6554SOL    HW220109   2.404   3.871   6.043
 6555SOL     OW20110   2.159   3.759   5.757
 6555SOL    HW120111   2.208   3.843   5.736
 6555SOL    HW220112   2.221   3.694   5.802
 6556SOL     OW20113   2.423   3.946   6.733
 6556SOL    HW120114   2.461   3.862   6.770
 6556SOL    HW220115   2.335   3.965   6.777
 6557SOL     OW20116   2.879   3.763   6.339
 6557SOL    HW120117   2.807   3.768   6.270
 6557SOL    HW220118   2.855   3.694   6.408
 6558SOL     OW20119   2.777   3.813   6.988
 6558SOL    HW120120   2.802   3.793   6.893
 6558SOL    HW220121   2.849   3.869   7.030
 6559SOL     OW20122   3.136   4.110   6.848
 6559SOL    HW120123   3.157   4.184   6.912
 6559SOL    HW220124   3.047   4.127   6.805
 6560SOL     OW20125   2.366   3.774   7.326
 6560SOL    HW120126   2.324   3.717   7.256
 6560SOL    HW220127   2.300   3.843   7.358
 6561SOL     OW20128   2.169   3.937   6.817
 6561SOL    HW120129   2.146   3.974   6.907
 6561SOL    HW220130   2.139   3.842   6.811
 6562SOL     OW20131   3.402   3.998   5.711
 6562SOL    HW120132   3.341   3.923   5.734
 6562SOL    HW220133   3.424   4.050   5.794
 6563SOL     OW20134   3.022   3.931   7.063
 6563SOL    HW120135   3.022   3.995   7.140
 6563SOL    HW220136   3.050   3.979   6.980
 6564SOL     OW20137   2.765   3.810   5.719
 6564SOL    HW120138   2.816   3.811   5.633
 6564SOL    HW220139   2.821   3.768   5.790
 6565SOL     OW20140   3.588   3.859   6.109
 6565SOL    HW120141   3.661   3.842   6.042
 6565SOL    HW220142   3.557   3.772   6.147
 6566SOL     OW20143   3.703   3.899   6.549
 6566SOL    HW120144   3.742   3.814   6.513
 6566SOL    HW220145   3.605   3.901   6.530
 6567SOL     OW20146   2.534   3.927   7.075
 6567SOL    HW120147   2.624   3.911   7.035
 6567SOL    HW220148   2.542   3.932   7.174
 6568SOL     OW20149   1.937   4.069   5.619
 6568SOL    HW120150   1.845   4.041   5.590
 6568SOL    HW220151   1.968   4.146   5.563
 6569SOL     OW20152   1.934   3.890   5.904
 6569SOL    HW120153   1.917   3.973   5.850
 6569SOL    HW220154   2.024   3.853   5.882
 6570SOL     OW20155   3.087   4.049   6.035
 6570SOL    HW120156   3.152   3.975   6.024
 6570SOL    HW220157   3.107   4.099   6.119
 6571SOL     OW20158   3.639   4.066   7.228
 6571SOL    HW120159   3.622   4.097   7.134
 6571SOL    HW220160   3.555   4.029   7.266
 6572SOL     OW20161   3.686   3.916   6.813
 6572SOL    HW120162   3.682   3.826   6.857
 6572SOL    HW220163   3.689   3.905   6.714
 6573SOL     OW20164   3.286   3.938   6.698
 6573SOL    HW120165   3.338   3.873   6.753
 6573SOL    HW220166   3.237   4.001   6.759
 6574SOL     OW20167   2.863   3.758   6.740
 6574SOL    HW120168   2.800   3.686   6.709
 6574SOL    HW220169   2.956   3.722   6.740
 6575SOL     OW20170   3.214   3.776   5.754
 6575SOL    HW120171   3.249   3.735   5.670
 6575SOL    HW220172   3.124   3.738   5.774
 6576SOL     OW20173   3.162   4.177   6.277
 6576SOL    HW120174   3.103   4.257   6.281
 6576SOL    HW220175   3.177   4.142   6.370
 6577SOL     OW20176   3.455   3.945   6.468
 6577SOL    HW120177   3.371   3.944   6.522
 6577SOL    HW220178   3.457   4.028   6.412
 6578SOL     OW20179   2.087   3.999   8.444
 6578SOL    HW120180   2.122   3.982   8.536
 6578SOL    HW220181   1.999   3.954   8.432
 6579SOL     OW20182   1.881   4.092   8.095
 6579SOL    HW120183   1.799   4.135   8.134
 6579SOL    HW220184   1.853   4.019   8.032
 6580SOL     OW20185   3.617   4.331   7.679
 6580SOL    HW120186   3.605   4.318   7.580
 6580SOL    HW220187   3.587   4.250   7.728
 6581SOL     OW20188   2.300   4.116   8.947
 6581SOL    HW120189   2.382   4.060   8.956
 6581SOL    HW220190   2.219   4.058   8.951
 6582SOL     OW20191   3.456   3.838   8.928
 6582SOL    HW120192   3.438   3.905   8.856
 6582SOL    HW220193   3.453   3.884   9.017
 6583SOL     OW20194   2.671   3.728   7.950
 6583SOL    HW120195   2.711   3.819   7.941
 6583SOL    HW220196   2.571   3.736   7.956
 6584SOL     OW20197   3.143   4.069   8.392
 6584SOL    HW120198   3.057   4.019   8.379
 6584SOL    HW220199   3.205   4.015   8.448
 6585SOL     OW20200   2.412   3.920   8.333
 6585SOL    HW120201   2.407   3.915   8.433
 6585SOL    HW220202   2.414   4.016   8.304
 6586SOL     OW20203   2.064   4.009   8.946
 6586SOL    HW120204   1.984   4.069   8.933
 6586SOL    HW220205   2.054   3.960   9.032
 6587SOL     OW20206   3.262   3.831   7.874
 6587SOL    HW120207   3.238   3.794   7.784
 6587SOL    HW220208   3.361   3.847   7.878
 6588SOL     OW20209   3.409   3.946   9.177
 6588SOL    HW120210   3.404   3.983   9.269
 6588SOL    HW220211   3.337   3.877   9.165
 6589SOL     OW20212   2.476   3.846   7.565
 6589SOL    HW120213   2.574   3.824   7.572
 6589SOL    HW220214   2.445   3.829   7.472
 6590SOL     OW20215   2.643   3.988   9.197
 6590SOL    HW120216   2.710   3.927   9.240
 6590SOL    HW220217   2.570   4.007   9.262
 6591SOL     OW20218   2.401   3.788   7.960
 6591SOL    HW120219   2.320   3.789   8.018
 6591SOL    HW220220   2.404   3.871   7.905
 6592SOL     OW20221   2.159   3.759   7.619
 6592SOL    HW120222   2.208   3.843   7.598
 6592SOL    HW220223   2.221   3.694   7.664
 6593SOL     OW20224   2.423   3.946   8.595
 6593SOL    HW120225   2.461   3.862   8.632
 6593SOL    HW220226   2.335   3.965   8.639
 6594SOL     OW20227   2.879   3.763   8.201
 6594SOL    HW120228   2.807   3.768   8.132
 6594SOL    HW220229   2.855   3.694   8.270
 6595SOL     OW20230   2.777   3.813   8.850
 6595SOL    HW120231   2.802   3.793   8.755
 6595SOL    HW220232   2.849   3.869   8.892
 6596SOL     OW20233   3.136   4.110   8.710
 6596SOL    HW120234   3.157   4.184   8.774
 6596SOL    HW220235   3.047   4.127   8.667
 6597SOL     OW20236   2.366   3.774   9.188
 6597SOL    HW120237   2.324   3.717   9.118
 6597SOL    HW220238   2.300   3.843   9.220
 6598SOL     OW20239   2.169   3.937   8.679
 6598SOL    HW120240   2.146   3.974   8.769
 6598SOL    HW220241   2.139   3.842   8.673
 6599SOL     OW20242   3.402   3.998   7.573
 6599SOL    HW120243   3.341   3.923   7.596
 6599SOL    HW220244   3.424   4.050   7.656
 6600SOL     OW20245   3.022   3.931   8.925
 6600SOL    HW120246   3.022   3.995   9.002
 6600SOL    HW220247   3.050   3.979   8.842
 6601SOL     OW20248   2.765   3.810   7.581
 6601SOL    HW120249   2.816   3.811   7.495
 6601SOL    HW220250   2.821   3.768   7.652
 6602SOL     OW20251   3.588   3.859   7.971
 6602SOL    HW120252   3.661   3.842   7.904
 6602SOL    HW220253   3.557   3.772   8.009
 6603SOL     OW20254   3.703   3.899   8.411
 6603SOL    HW120255   3.742   3.814   8.375
 6603SOL    HW220256   3.605   3.901   8.392
 6604SOL     OW20257   2.534   3.927   8.937
 6604SOL    HW120258   2.624   3.911   8.897
 6604SOL    HW220259   2.542   3.932   9.036
 6605SOL     OW20260   1.937   4.069   7.481
 6605SOL    HW120261   1.845   4.041   7.452
 6605SOL    HW220262   1.968   4.146   7.425
 6606SOL     OW20263   1.934   3.890   7.766
 6606SOL    HW120264   1.917   3.973   7.712
 6606SOL    HW220265   2.024   3.853   7.744
 6607SOL     OW20266   3.087   4.049   7.897
 6607SOL    HW120267   3.152   3.975   7.886
 6607SOL    HW220268   3.107   4.099   7.981
 6608SOL     OW20269   3.639   4.066   9.090
 6608SOL    HW120270   3.622   4.097   8.996
 6608SOL    HW220271   3.555   4.029   9.128
 6609SOL     OW20272   3.686   3.916   8.675
 6609SOL    HW120273   3.682   3.826   8.719
 6609SOL    HW220274   3.689   3.905   8.576
 6610SOL     OW20275   3.286   3.938   8.560
 6610SOL    HW120276   3.338   3.873   8.615
 6610SOL    HW220277   3.237   4.001   8.621
 6611SOL     OW20278   2.863   3.758   8.602
 6611SOL    HW120279   2.800   3.686   8.571
 6611SOL    HW220280   2.956   3.722   8.602
 6612SOL     OW20281   3.214   3.776   7.616
 6612SOL    HW120282   3.249   3.735   7.532
 6612SOL    HW220283   3.124   3.738   7.636
 6613SOL     OW20284   3.162   4.177   8.139
 6613SOL    HW120285   3.103   4.257   8.143
 6613SOL    HW220286   3.177   4.142   8.232
 6614SOL     OW20287   3.455   3.945   8.330
 6614SOL    HW120288   3.371   3.944   8.384
 6614SOL    HW220289   3.457   4.028   8.274
 6615SOL     OW20290   2.087   3.999  10.306
 6615SOL    HW120291   2.122   3.982  10.398
 6615SOL    HW220292   1.999   3.954  10.294
 6616SOL     OW20293   1.881   4.092   9.957
 6616SOL    HW120294   1.799   4.135   9.996
 6616SOL    HW220295   1.853   4.019   9.894
 6617SOL     OW20296   3.617   4.331   9.541
 6617SOL    HW120297   3.605   4.318   9.442
 6617SOL    HW220298   3.587   4.250   9.590
 6618SOL     OW20299   2.300   4.116  10.809
 6618SOL    HW120300   2.382   4.060  10.818
 6618SOL    HW220301   2.219   4.058  10.813
 6619SOL     OW20302   3.456   3.838  10.790
 6619SOL    HW120303   3.438   3.905  10.718
 6619SOL    HW220304   3.453   3.884  10.879
 6620SOL     OW20305   2.671   3.728   9.812
 6620SOL    HW120306   2.711   3.819   9.803
 6620SOL    HW220307   2.571   3.736   9.818
 6621SOL     OW20308   3.143   4.069  10.254
 6621SOL    HW120309   3.057   4.019  10.241
 6621SOL    HW220310   3.205   4.015  10.310
 6622SOL     OW20311   2.412   3.920  10.195
 6622SOL    HW120312   2.407   3.915  10.295
 6622SOL    HW220313   2.414   4.016  10.166
 6623SOL     OW20314   2.064   4.009  10.808
 6623SOL    HW120315   1.984   4.069  10.795
 6623SOL    HW220316   2.054   3.960  10.894
 6624SOL     OW20317   3.262   3.831   9.736
 6624SOL    HW120318   3.238   3.794   9.646
 6624SOL    HW220319   3.361   3.847   9.740
 6625SOL     OW20320   3.409   3.946  11.039
 6625SOL    HW120321   3.404   3.983  11.131
 6625SOL    HW220322   3.337   3.877  11.027
 6626SOL     OW20323   2.476   3.846   9.427
 6626SOL    HW120324   2.574   3.824   9.434
 6626SOL    HW220325   2.445   3.829   9.334
 6627SOL     OW20326   2.643   3.988  11.059
 6627SOL    HW120327   2.710   3.927  11.102
 6627SOL    HW220328   2.570   4.007  11.124
 6628SOL     OW20329   2.401   3.788   9.822
 6628SOL    HW120330   2.320   3.789   9.880
 6628SOL    HW220331   2.404   3.871   9.767
 6629SOL     OW20332   2.159   3.759   9.481
 6629SOL    HW120333   2.208   3.843   9.460
 6629SOL    HW220334   2.221   3.694   9.526
 6630SOL     OW20335   2.423   3.946  10.457
 6630SOL    HW120336   2.461   3.862  10.494
 6630SOL    HW220337   2.335   3.965  10.501
 6631SOL     OW20338   2.879   3.763  10.063
 6631SOL    HW120339   2.807   3.768   9.994
 6631SOL    HW220340   2.855   3.694  10.132
 6632SOL     OW20341   2.777   3.813  10.712
 6632SOL    HW120342   2.802   3.793  10.617
 6632SOL    HW220343   2.849   3.869  10.754
 6633SOL     OW20344   3.136   4.110  10.572
 6633SOL    HW120345   3.157   4.184  10.636
 6633SOL    HW220346   3.047   4.127  10.529
 6634SOL     OW20347   2.366   3.774  11.050
 6634SOL    HW120348   2.324   3.717  10.980
 6634SOL    HW220349   2.300   3.843  11.082
 6635SOL     OW20350   2.169   3.937  10.541
 6635SOL    HW120351   2.146   3.974  10.631
 6635SOL    HW220352   2.139   3.842  10.535
 6636SOL     OW20353   3.402   3.998   9.435
 6636SOL    HW120354   3.341   3.923   9.458
 6636SOL    HW220355   3.424   4.050   9.518
 6637SOL     OW20356   3.022   3.931  10.787
 6637SOL    HW120357   3.022   3.995  10.864
 6637SOL    HW220358   3.050   3.979  10.704
 6638SOL     OW20359   2.765   3.810   9.443
 6638SOL    HW120360   2.816   3.811   9.357
 6638SOL    HW220361   2.821   3.768   9.514
 6639SOL     OW20362   3.588   3.859   9.833
 6639SOL    HW120363   3.661   3.842   9.766
 6639SOL    HW220364   3.557   3.772   9.871
 6640SOL     OW20365   3.703   3.899  10.273
 6640SOL    HW120366   3.742   3.814  10.237
 6640SOL    HW220367   3.605   3.901  10.254
 6641SOL     OW20368   2.534   3.927  10.799
 6641SOL    HW120369   2.624   3.911  10.759
 6641SOL    HW220370   2.542   3.932  10.898
 6642SOL     OW20371   1.937   4.069   9.343
 6642SOL    HW120372   1.845   4.041   9.314
 6642SOL    HW220373   1.968   4.146   9.287
 6643SOL     OW20374   1.934   3.890   9.628
 6643SOL    HW120375   1.917   3.973   9.574
 6643SOL    HW220376   2.024   3.853   9.606
 6644SOL     OW20377   3.087   4.049   9.759
 6644SOL    HW120378   3.152   3.975   9.748
 6644SOL    HW220379   3.107   4.099   9.843
 6645SOL     OW20380   3.639   4.066  10.952
 6645SOL    HW120381   3.622   4.097  10.858
 6645SOL    HW220382   3.555   4.029  10.990
 6646SOL     OW20383   3.686   3.916  10.537
 6646SOL    HW120384   3.682   3.826  10.581
 6646SOL    HW220385   3.689   3.905  10.438
 6647SOL     OW20386   3.286   3.938  10.422
 6647SOL    HW120387   3.338   3.873  10.477
 6647SOL    HW220388   3.237   4.001  10.483
 6648SOL     OW20389   2.863   3.758  10.464
 6648SOL    HW120390   2.800   3.686  10.433
 6648SOL    HW220391   2.956   3.722  10.464
 6649SOL     OW20392   3.214   3.776   9.478
 6649SOL    HW120393   3.249   3.735   9.394
 6649SOL    HW220394   3.124   3.738   9.498
 6650SOL     OW20395   3.162   4.177  10.001
 6650SOL    HW120396   3.103   4.257  10.005
 6650SOL    HW220397   3.177   4.142  10.094
 6651SOL     OW20398   3.455   3.945  10.192
 6651SOL    HW120399   3.371   3.944  10.246
 6651SOL    HW220400   3.457   4.028  10.136
 6652SOL     OW20401   2.087   3.999  12.168
 6652SOL    HW120402   2.122   3.982  12.260
 6652SOL    HW220403   1.999   3.954  12.156
 6653SOL     OW20404   1.881   4.092  11.819
 6653SOL    HW120405   1.799   4.135  11.858
 6653SOL    HW220406   1.853   4.019  11.756
 6654SOL     OW20407   3.617   4.331  11.403
 6654SOL    HW120408   3.605   4.318  11.304
 6654SOL    HW220409   3.587   4.250  11.452
 6655SOL     OW20410   2.300   4.116  12.671
 6655SOL    HW120411   2.382   4.060  12.680
 6655SOL    HW220412   2.219   4.058  12.675
 6656SOL     OW20413   3.456   3.838  12.652
 6656SOL    HW120414   3.438   3.905  12.580
 6656SOL    HW220415   3.453   3.884  12.741
 6657SOL     OW20416   2.671   3.728  11.674
 6657SOL    HW120417   2.711   3.819  11.665
 6657SOL    HW220418   2.571   3.736  11.680
 6658SOL     OW20419   3.143   4.069  12.116
 6658SOL    HW120420   3.057   4.019  12.103
 6658SOL    HW220421   3.205   4.015  12.172
 6659SOL     OW20422   2.412   3.920  12.057
 6659SOL    HW120423   2.407   3.915  12.157
 6659SOL    HW220424   2.414   4.016  12.028
 6660SOL     OW20425   2.064   4.009  12.670
 6660SOL    HW120426   1.984   4.069  12.657
 6660SOL    HW220427   2.054   3.960  12.756
 6661SOL     OW20428   3.262   3.831  11.598
 6661SOL    HW120429   3.238   3.794  11.508
 6661SOL    HW220430   3.361   3.847  11.602
 6662SOL     OW20431   3.409   3.946  12.901
 6662SOL    HW120432   3.404   3.983  12.993
 6662SOL    HW220433   3.337   3.877  12.889
 6663SOL     OW20434   2.476   3.846  11.289
 6663SOL    HW120435   2.574   3.824  11.296
 6663SOL    HW220436   2.445   3.829  11.196
 6664SOL     OW20437   2.643   3.988  12.921
 6664SOL    HW120438   2.710   3.927  12.964
 6664SOL    HW220439   2.570   4.007  12.986
 6665SOL     OW20440   2.401   3.788  11.684
 6665SOL    HW120441   2.320   3.789  11.742
 6665SOL    HW220442   2.404   3.871  11.629
 6666SOL     OW20443   2.159   3.759  11.343
 6666SOL    HW120444   2.208   3.843  11.322
 6666SOL    HW220445   2.221   3.694  11.388
 6667SOL     OW20446   2.423   3.946  12.319
 6667SOL    HW120447   2.461   3.862  12.356
 6667SOL    HW220448   2.335   3.965  12.363
 6668SOL     OW20449   2.879   3.763  11.925
 6668SOL    HW120450   2.807   3.768  11.856
 6668SOL    HW220451   2.855   3.694  11.994
 6669SOL     OW20452   2.777   3.813  12.574
 6669SOL    HW120453   2.802   3.793  12.479
 6669SOL    HW220454   2.849   3.869  12.616
 6670SOL     OW20455   3.136   4.110  12.434
 6670SOL    HW120456   3.157   4.184  12.498
 6670SOL    HW220457   3.047   4.127  12.391
 6671SOL     OW20458   2.366   3.774  12.912
 6671SOL    HW120459   2.324   3.717  12.842
 6671SOL    HW220460   2.300   3.843  12.944
 6672SOL     OW20461   2.169   3.937  12.403
 6672SOL    HW120462   2.146   3.974  12.493
 6672SOL    HW220463   2.139   3.842  12.397
 6673SOL     OW20464   3.402   3.998  11.297
 6673SOL    HW120465   3.341   3.923  11.320
 6673SOL    HW220466   3.424   4.050  11.380
 6674SOL     OW20467   3.022   3.931  12.649
 6674SOL    HW120468   3.022   3.995  12.726
 6674SOL    HW220469   3.050   3.979  12.566
 6675SOL     OW20470   2.765   3.810  11.305
 6675SOL    HW120471   2.816   3.811  11.219
 6675SOL    HW220472   2.821   3.768  11.376
 6676SOL     OW20473   3.588   3.859  11.695
 6676SOL    HW120474   3.661   3.842  11.628
 6676SOL    HW220475   3.557   3.772  11.733
 6677SOL     OW20476   3.703   3.899  12.135
 6677SOL    HW120477   3.742   3.814  12.099
 6677SOL    HW220478   3.605   3.901  12.116
 6678SOL     OW20479   2.534   3.927  12.661
 6678SOL    HW120480   2.624   3.911  12.621
 6678SOL    HW220481   2.542   3.932  12.760
 6679SOL     OW20482   1.937   4.069  11.205
 6679SOL    HW120483   1.845   4.041  11.176
 6679SOL    HW220484   1.968   4.146  11.149
 6680SOL     OW20485   1.934   3.890  11.490
 6680SOL    HW120486   1.917   3.973  11.436
 6680SOL    HW220487   2.024   3.853  11.468
 6681SOL     OW20488   3.087   4.049  11.621
 6681SOL    HW120489   3.152   3.975  11.610
 6681SOL    HW220490   3.107   4.099  11.705
 6682SOL     OW20491   3.639   4.066  12.814
 6682SOL    HW120492   3.622   4.097  12.720
 6682SOL    HW220493   3.555   4.029  12.852
 6683SOL     OW20494   3.686   3.916  12.399
 6683SOL    HW120495   3.682   3.826  12.443
 6683SOL    HW220496   3.689   3.905  12.300
 6684SOL     OW20497   3.286   3.938  12.284
 6684SOL    HW120498   3.338   3.873  12.339
 6684SOL    HW220499   3.237   4.001  12.345
 6685SOL     OW20500   2.863   3.758  12.326
 6685SOL    HW120501   2.800   3.686  12.295
 6685SOL    HW220502   2.956   3.722  12.326
 6686SOL     OW20503   3.214   3.776  11.340
 6686SOL    HW120504   3.249   3.735  11.256
 6686SOL    HW220505   3.124   3.738  11.360
 6687SOL     OW20506   3.162   4.177  11.863
 6687SOL    HW120507   3.103   4.257  11.867
 6687SOL    HW220508   3.177   4.142  11.956
 6688SOL     OW20509   3.455   3.945  12.054
 6688SOL    HW120510   3.371   3.944  12.108
 6688SOL    HW220511   3.457   4.028  11.998
 6689SOL     OW20512   1.881   4.092  13.681
 6689SOL    HW120513   1.799   4.135  13.720
 6689SOL    HW220514   1.853   4.019  13.618
 6690SOL     OW20515   3.617   4.331  13.265
 6690SOL    HW120516   3.605   4.318  13.166
 6690SOL    HW220517   3.587   4.250  13.314
 6691SOL     OW20518   3.465   4.171  13.771
 6691SOL    HW120519   3.391   4.217  13.721
 6691SOL    HW220520   3.516   4.239  13.824
 6692SOL     OW20521   2.671   3.728  13.536
 6692SOL    HW120522   2.711   3.819  13.527
 6692SOL    HW220523   2.571   3.736  13.542
 6693SOL     OW20524   3.262   3.831  13.460
 6693SOL    HW120525   3.238   3.794  13.370
 6693SOL    HW220526   3.361   3.847  13.464
 6694SOL     OW20527   2.476   3.846  13.151
 6694SOL    HW120528   2.574   3.824  13.158
 6694SOL    HW220529   2.445   3.829  13.058
 6695SOL     OW20530   2.401   3.788  13.546
 6695SOL    HW120531   2.320   3.789  13.604
 6695SOL    HW220532   2.404   3.871  13.491
 6696SOL     OW20533   2.159   3.759  13.205
 6696SOL    HW120534   2.208   3.843  13.184
 6696SOL    HW220535   2.221   3.694  13.250
 6697SOL     OW20536   2.879   3.763  13.787
 6697SOL    HW120537   2.807   3.768  13.718
 6697SOL    HW220538   2.855   3.694  13.856
 6698SOL     OW20539   3.402   3.998  13.159
 6698SOL    HW120540   3.341   3.923  13.182
 6698SOL    HW220541   3.424   4.050  13.242
 6699SOL     OW20542   2.765   3.810  13.167
 6699SOL    HW120543   2.816   3.811  13.081
 6699SOL    HW220544   2.821   3.768  13.238
 6700SOL     OW20545   3.588   3.859  13.557
 6700SOL    HW120546   3.661   3.842  13.490
 6700SOL    HW220547   3.557   3.772  13.595
 6701SOL     OW20548   3.703   3.899  13.997
 6701SOL    HW120549   3.742   3.814  13.961
 6701SOL    HW220550   3.605   3.901  13.978
 6702SOL     OW20551   1.937   4.069  13.067
 6702SOL    HW120552   1.845   4.041  13.038
 6702SOL    HW220553   1.968   4.146  13.011
 6703SOL     OW20554   1.934   3.890  13.352
 6703SOL    HW120555   1.917   3.973  13.298
 6703SOL    HW220556   2.024   3.853  13.330
 6704SOL     OW20557   3.087   4.049  13.483
 6704SOL    HW120558   3.152   3.975  13.472
 6704SOL    HW220559   3.107   4.099  13.567
 6705SOL     OW20560   3.214   3.776  13.202
 6705SOL    HW120561   3.249   3.735  13.118
 6705SOL    HW220562   3.124   3.738  13.222
 6706SOL     OW20563   3.162   4.177  13.725
 6706SOL    HW120564   3.103   4.257  13.729
 6706SOL    HW220565   3.177   4.142  13.818
 6707SOL     OW20566   3.954   0.628   0.113
 6707SOL    HW120567   3.861   0.626   0.150
 6707SOL    HW220568   3.955   0.589   0.021
 6708SOL     OW20569   3.949   0.275   0.996
 6708SOL    HW120570   3.984   0.258   1.088
 6708SOL    HW220571   3.861   0.230   0.984
 6709SOL     OW20572   3.743   0.368   0.647
 6709SOL    HW120573   3.661   0.411   0.686
 6709SOL    HW220574   3.715   0.295   0.584
 6710SOL     OW20575   4.059   1.435   1.061
 6710SOL    HW120576   3.981   1.404   1.008
 6710SOL    HW220577   4.117   1.493   1.004
 6711SOL     OW20578   3.955   1.713   0.483
 6711SOL    HW120579   3.989   1.790   0.537
 6711SOL    HW220580   3.999   1.713   0.393
 6712SOL     OW20581   3.954   1.434   0.538
 6712SOL    HW120582   3.928   1.530   0.538
 6712SOL    HW220583   3.883   1.380   0.583
 6713SOL     OW20584   3.846   0.643   0.563
 6713SOL    HW120585   3.801   0.555   0.580
 6713SOL    HW220586   3.845   0.697   0.647
 6714SOL     OW20587   3.751   1.596   0.117
 6714SOL    HW120588   3.732   1.500   0.138
 6714SOL    HW220589   3.718   1.654   0.192
 6715SOL     OW20590   3.837   0.737   1.597
 6715SOL    HW120591   3.925   0.724   1.642
 6715SOL    HW220592   3.824   0.834   1.575
 6716SOL     OW20593   3.800   0.811   0.789
 6716SOL    HW120594   3.899   0.799   0.798
 6716SOL    HW220595   3.776   0.906   0.810
 6717SOL     OW20596   3.854   1.821   1.571
 6717SOL    HW120597   3.844   1.806   1.670
 6717SOL    HW220598   3.768   1.857   1.535
 6718SOL     OW20599   3.926   0.285   1.498
 6718SOL    HW120600   3.846   0.345   1.485
 6718SOL    HW220601   3.916   0.236   1.584
 6719SOL     OW20602   3.802   0.556   1.386
 6719SOL    HW120603   3.894   0.555   1.345
 6719SOL    HW220604   3.796   0.630   1.453
 6720SOL     OW20605   3.788   1.564   1.331
 6720SOL    HW120606   3.742   1.646   1.297
 6720SOL    HW220607   3.886   1.583   1.340
 6721SOL     OW20608   4.091   1.100   0.501
 6721SOL    HW120609   4.084   1.183   0.445
 6721SOL    HW220610   4.095   1.020   0.441
 6722SOL     OW20611   4.031   0.213   1.231
 6722SOL    HW120612   4.008   0.250   1.321
 6722SOL    HW220613   4.001   0.118   1.225
 6723SOL     OW20614   3.761   1.310   1.282
 6723SOL    HW120615   3.814   1.261   1.350
 6723SOL    HW220616   3.783   1.408   1.287
 6724SOL     OW20617   3.732   1.326   0.200
 6724SOL    HW120618   3.639   1.347   0.169
 6724SOL    HW220619   3.742   1.227   0.213
 6725SOL     OW20620   3.812   1.801   0.927
 6725SOL    HW120621   3.770   1.715   0.900
 6725SOL    HW220622   3.906   1.804   0.893
 6726SOL     OW20623   4.228   1.568   0.910
 6726SOL    HW120624   4.294   1.642   0.919
 6726SOL    HW220625   4.272   1.489   0.868
 6727SOL     OW20626   3.764   0.544   1.114
 6727SOL    HW120627   3.849   0.511   1.073
 6727SOL    HW220628   3.777   0.559   1.212
 6728SOL     OW20629   3.913   0.520   1.722
 6728SOL    HW120630   3.972   0.480   1.652
 6728SOL    HW220631   3.855   0.591   1.681
 6729SOL     OW20632   3.976   1.564   1.744
 6729SOL    HW120633   3.946   1.621   1.820
 6729SOL    HW220634   3.969   1.467   1.770
 6730SOL     OW20635   3.883   1.137   1.466
 6730SOL    HW120636   3.905   1.076   1.542
 6730SOL    HW220637   3.893   1.088   1.380
 6731SOL     OW20638   3.807   1.258   1.022
 6731SOL    HW120639   3.802   1.257   1.122
 6731SOL    HW220640   3.724   1.217   0.984
 6732SOL     OW20641   3.854   1.794   1.851
 6732SOL    HW120642   3.813   1.720   1.904
 6732SOL    HW220643   3.918   1.845   1.909
 6733SOL     OW20644   3.799   0.345   0.033
 6733SOL    HW120645   3.707   0.317   0.004
 6733SOL    HW220646   3.830   0.422  -0.023
 6734SOL     OW20647   3.796   0.166   0.318
 6734SOL    HW120648   3.779   0.249   0.264
 6734SOL    HW220649   3.886   0.129   0.296
 6735SOL     OW20650   3.803   1.240   0.653
 6735SOL    HW120651   3.802   1.193   0.741
 6735SOL    HW220652   3.885   1.212   0.602
 6736SOL     OW20653   3.763   1.077   0.300
 6736SOL    HW120654   3.862   1.066   0.291
 6736SOL    HW220655   3.723   0.991   0.332
 6737SOL     OW20656   3.954   0.628   1.975
 6737SOL    HW120657   3.861   0.626   2.012
 6737SOL    HW220658   3.955   0.589   1.883
 6738SOL     OW20659   3.949   0.275   2.858
 6738SOL    HW120660   3.984   0.258   2.950
 6738SOL    HW220661   3.861   0.230   2.846
 6739SOL     OW20662   3.743   0.368   2.509
 6739SOL    HW120663   3.661   0.411   2.548
 6739SOL    HW220664   3.715   0.295   2.446
 6740SOL     OW20665   4.059   1.435   2.923
 6740SOL    HW120666   3.981   1.404   2.870
 6740SOL    HW220667   4.117   1.493   2.866
 6741SOL     OW20668   3.955   1.713   2.345
 6741SOL    HW120669   3.989   1.790   2.399
 6741SOL    HW220670   3.999   1.713   2.255
 6742SOL     OW20671   3.954   1.434   2.400
 6742SOL    HW120672   3.928   1.530   2.400
 6742SOL    HW220673   3.883   1.380   2.445
 6743SOL     OW20674   3.846   0.643   2.425
 6743SOL    HW120675   3.801   0.555   2.442
 6743SOL    HW220676   3.845   0.697   2.509
 6744SOL     OW20677   3.751   1.596   1.979
 6744SOL    HW120678   3.732   1.500   2.000
 6744SOL    HW220679   3.718   1.654   2.054
 6745SOL     OW20680   3.837   0.737   3.459
 6745SOL    HW120681   3.925   0.724   3.504
 6745SOL    HW220682   3.824   0.834   3.437
 6746SOL     OW20683   3.800   0.811   2.651
 6746SOL    HW120684   3.899   0.799   2.660
 6746SOL    HW220685   3.776   0.906   2.672
 6747SOL     OW20686   3.854   1.821   3.433
 6747SOL    HW120687   3.844   1.806   3.532
 6747SOL    HW220688   3.768   1.857   3.397
 6748SOL     OW20689   3.926   0.285   3.360
 6748SOL    HW120690   3.846   0.345   3.347
 6748SOL    HW220691   3.916   0.236   3.446
 6749SOL     OW20692   3.802   0.556   3.248
 6749SOL    HW120693   3.894   0.555   3.207
 6749SOL    HW220694   3.796   0.630   3.315
 6750SOL     OW20695   4.251   0.256   2.190
 6750SOL    HW120696   4.278   0.197   2.115
 6750SOL    HW220697   4.251   0.351   2.159
 6751SOL     OW20698   3.788   1.564   3.193
 6751SOL    HW120699   3.742   1.646   3.159
 6751SOL    HW220700   3.886   1.583   3.202
 6752SOL     OW20701   4.091   1.100   2.363
 6752SOL    HW120702   4.084   1.183   2.307
 6752SOL    HW220703   4.095   1.020   2.303
 6753SOL     OW20704   4.031   0.213   3.093
 6753SOL    HW120705   4.008   0.250   3.183
 6753SOL    HW220706   4.001   0.118   3.087
 6754SOL     OW20707   3.761   1.310   3.144
 6754SOL    HW120708   3.814   1.261   3.212
 6754SOL    HW220709   3.783   1.408   3.149
 6755SOL     OW20710   3.732   1.326   2.062
 6755SOL    HW120711   3.639   1.347   2.031
 6755SOL    HW220712   3.742   1.227   2.075
 6756SOL     OW20713   3.812   1.801   2.789
 6756SOL    HW120714   3.770   1.715   2.762
 6756SOL    HW220715   3.906   1.804   2.755
 6757SOL     OW20716   4.228   1.568   2.772
 6757SOL    HW120717   4.294   1.642   2.781
 6757SOL    HW220718   4.272   1.489   2.730
 6758SOL     OW20719   3.764   0.544   2.976
 6758SOL    HW120720   3.849   0.511   2.935
 6758SOL    HW220721   3.777   0.559   3.074
 6759SOL     OW20722   3.913   0.520   3.584
 6759SOL    HW120723   3.972   0.480   3.514
 6759SOL    HW220724   3.855   0.591   3.543
 6760SOL     OW20725   3.976   1.564   3.606
 6760SOL    HW120726   3.946   1.621   3.682
 6760SOL    HW220727   3.969   1.467   3.632
 6761SOL     OW20728   3.883   1.137   3.328
 6761SOL    HW120729   3.905   1.076   3.404
 6761SOL    HW220730   3.893   1.088   3.242
 6762SOL     OW20731   3.807   1.258   2.884
 6762SOL    HW120732   3.802   1.257   2.984
 6762SOL    HW220733   3.724   1.217   2.846
 6763SOL     OW20734   3.854   1.794   3.713
 6763SOL    HW120735   3.813   1.720   3.766
 6763SOL    HW220736   3.918   1.845   3.771
 6764SOL     OW20737   3.799   0.345   1.895
 6764SOL    HW120738   3.707   0.317   1.866
 6764SOL    HW220739   3.830   0.422   1.839
 6765SOL     OW20740   3.796   0.166   2.180
 6765SOL    HW120741   3.779   0.249   2.126
 6765SOL    HW220742   3.886   0.129   2.158
 6766SOL     OW20743   3.803   1.240   2.515
 6766SOL    HW120744   3.802   1.193   2.603
 6766SOL    HW220745   3.885   1.212   2.464
 6767SOL     OW20746   3.763   1.077   2.162
 6767SOL    HW120747   3.862   1.066   2.153
 6767SOL    HW220748   3.723   0.991   2.194
 6768SOL     OW20749   3.954   0.628   3.837
 6768SOL    HW120750   3.861   0.626   3.874
 6768SOL    HW220751   3.955   0.589   3.745
 6769SOL     OW20752   3.949   0.275   4.720
 6769SOL    HW120753   3.984   0.258   4.812
 6769SOL    HW220754   3.861   0.230   4.708
 6770SOL     OW20755   3.743   0.368   4.371
 6770SOL    HW120756   3.661   0.411   4.410
 6770SOL    HW220757   3.715   0.295   4.308
 6771SOL     OW20758   4.059   1.435   4.785
 6771SOL    HW120759   3.981   1.404   4.732
 6771SOL    HW220760   4.117   1.493   4.728
 6772SOL     OW20761   3.955   1.713   4.207
 6772SOL    HW120762   3.989   1.790   4.261
 6772SOL    HW220763   3.999   1.713   4.117
 6773SOL     OW20764   3.954   1.434   4.262
 6773SOL    HW120765   3.928   1.530   4.262
 6773SOL    HW220766   3.883   1.380   4.307
 6774SOL     OW20767   3.846   0.643   4.287
 6774SOL    HW120768   3.801   0.555   4.304
 6774SOL    HW220769   3.845   0.697   4.371
 6775SOL     OW20770   3.751   1.596   3.841
 6775SOL    HW120771   3.732   1.500   3.862
 6775SOL    HW220772   3.718   1.654   3.916
 6776SOL     OW20773   3.837   0.737   5.321
 6776SOL    HW120774   3.925   0.724   5.366
 6776SOL    HW220775   3.824   0.834   5.299
 6777SOL     OW20776   3.800   0.811   4.513
 6777SOL    HW120777   3.899   0.799   4.522
 6777SOL    HW220778   3.776   0.906   4.534
 6778SOL     OW20779   3.854   1.821   5.295
 6778SOL    HW120780   3.844   1.806   5.394
 6778SOL    HW220781   3.768   1.857   5.259
 6779SOL     OW20782   3.926   0.285   5.222
 6779SOL    HW120783   3.846   0.345   5.209
 6779SOL    HW220784   3.916   0.236   5.308
 6780SOL     OW20785   3.802   0.556   5.110
 6780SOL    HW120786   3.894   0.555   5.069
 6780SOL    HW220787   3.796   0.630   5.177
 6781SOL     OW20788   4.251   0.256   4.052
 6781SOL    HW120789   4.278   0.197   3.977
 6781SOL    HW220790   4.251   0.351   4.021
 6782SOL     OW20791   3.788   1.564   5.055
 6782SOL    HW120792   3.742   1.646   5.021
 6782SOL    HW220793   3.886   1.583   5.064
 6783SOL     OW20794   4.091   1.100   4.225
 6783SOL    HW120795   4.084   1.183   4.169
 6783SOL    HW220796   4.095   1.020   4.165
 6784SOL     OW20797   4.031   0.213   4.955
 6784SOL    HW120798   4.008   0.250   5.045
 6784SOL    HW220799   4.001   0.118   4.949
 6785SOL     OW20800   3.761   1.310   5.006
 6785SOL    HW120801   3.814   1.261   5.074
 6785SOL    HW220802   3.783   1.408   5.011
 6786SOL     OW20803   3.732   1.326   3.924
 6786SOL    HW120804   3.639   1.347   3.893
 6786SOL    HW220805   3.742   1.227   3.937
 6787SOL     OW20806   3.812   1.801   4.651
 6787SOL    HW120807   3.770   1.715   4.624
 6787SOL    HW220808   3.906   1.804   4.617
 6788SOL     OW20809   4.228   1.568   4.634
 6788SOL    HW120810   4.294   1.642   4.643
 6788SOL    HW220811   4.272   1.489   4.592
 6789SOL     OW20812   3.764   0.544   4.838
 6789SOL    HW120813   3.849   0.511   4.797
 6789SOL    HW220814   3.777   0.559   4.936
 6790SOL     OW20815   3.913   0.520   5.446
 6790SOL    HW120816   3.972   0.480   5.376
 6790SOL    HW220817   3.855   0.591   5.405
 6791SOL     OW20818   3.976   1.564   5.468
 6791SOL    HW120819   3.946   1.621   5.544
 6791SOL    HW220820   3.969   1.467   5.494
 6792SOL     OW20821   3.883   1.137   5.190
 6792SOL    HW120822   3.905   1.076   5.266
 6792SOL    HW220823   3.893   1.088   5.104
 6793SOL     OW20824   3.807   1.258   4.746
 6793SOL    HW120825   3.802   1.257   4.846
 6793SOL    HW220826   3.724   1.217   4.708
 6794SOL     OW20827   3.854   1.794   5.575
 6794SOL    HW120828   3.813   1.720   5.628
 6794SOL    HW220829   3.918   1.845   5.633
 6795SOL     OW20830   3.799   0.345   3.757
 6795SOL    HW120831   3.707   0.317   3.728
 6795SOL    HW220832   3.830   0.422   3.701
 6796SOL     OW20833   3.796   0.166   4.042
 6796SOL    HW120834   3.779   0.249   3.988
 6796SOL    HW220835   3.886   0.129   4.020
 6797SOL     OW20836   3.803   1.240   4.377
 6797SOL    HW120837   3.802   1.193   4.465
 6797SOL    HW220838   3.885   1.212   4.326
 6798SOL     OW20839   3.763   1.077   4.024
 6798SOL    HW120840   3.862   1.066   4.015
 6798SOL    HW220841   3.723   0.991   4.056
 6799SOL     OW20842   3.954   0.628   5.699
 6799SOL    HW120843   3.861   0.626   5.736
 6799SOL    HW220844   3.955   0.589   5.607
 6800SOL     OW20845   3.949   0.275   6.582
 6800SOL    HW120846   3.984   0.258   6.674
 6800SOL    HW220847   3.861   0.230   6.570
 6801SOL     OW20848   3.743   0.368   6.233
 6801SOL    HW120849   3.661   0.411   6.272
 6801SOL    HW220850   3.715   0.295   6.170
 6802SOL     OW20851   4.059   1.435   6.647
 6802SOL    HW120852   3.981   1.404   6.594
 6802SOL    HW220853   4.117   1.493   6.590
 6803SOL     OW20854   3.955   1.713   6.069
 6803SOL    HW120855   3.989   1.790   6.123
 6803SOL    HW220856   3.999   1.713   5.979
 6804SOL     OW20857   3.954   1.434   6.124
 6804SOL    HW120858   3.928   1.530   6.124
 6804SOL    HW220859   3.883   1.380   6.169
 6805SOL     OW20860   3.846   0.643   6.149
 6805SOL    HW120861   3.801   0.555   6.166
 6805SOL    HW220862   3.845   0.697   6.233
 6806SOL     OW20863   3.751   1.596   5.703
 6806SOL    HW120864   3.732   1.500   5.724
 6806SOL    HW220865   3.718   1.654   5.778
 6807SOL     OW20866   3.837   0.737   7.183
 6807SOL    HW120867   3.925   0.724   7.228
 6807SOL    HW220868   3.824   0.834   7.161
 6808SOL     OW20869   3.800   0.811   6.375
 6808SOL    HW120870   3.899   0.799   6.384
 6808SOL    HW220871   3.776   0.906   6.396
 6809SOL     OW20872   3.854   1.821   7.157
 6809SOL    HW120873   3.844   1.806   7.256
 6809SOL    HW220874   3.768   1.857   7.121
 6810SOL     OW20875   3.926   0.285   7.084
 6810SOL    HW120876   3.846   0.345   7.071
 6810SOL    HW220877   3.916   0.236   7.170
 6811SOL     OW20878   3.802   0.556   6.972
 6811SOL    HW120879   3.894   0.555   6.931
 6811SOL    HW220880   3.796   0.630   7.039
 6812SOL     OW20881   4.251   0.256   5.914
 6812SOL    HW120882   4.278   0.197   5.839
 6812SOL    HW220883   4.251   0.351   5.883
 6813SOL     OW20884   3.788   1.564   6.917
 6813SOL    HW120885   3.742   1.646   6.883
 6813SOL    HW220886   3.886   1.583   6.926
 6814SOL     OW20887   4.091   1.100   6.087
 6814SOL    HW120888   4.084   1.183   6.031
 6814SOL    HW220889   4.095   1.020   6.027
 6815SOL     OW20890   4.031   0.213   6.817
 6815SOL    HW120891   4.008   0.250   6.907
 6815SOL    HW220892   4.001   0.118   6.811
 6816SOL     OW20893   3.761   1.310   6.868
 6816SOL    HW120894   3.814   1.261   6.936
 6816SOL    HW220895   3.783   1.408   6.873
 6817SOL     OW20896   3.732   1.326   5.786
 6817SOL    HW120897   3.639   1.347   5.755
 6817SOL    HW220898   3.742   1.227   5.799
 6818SOL     OW20899   3.812   1.801   6.513
 6818SOL    HW120900   3.770   1.715   6.486
 6818SOL    HW220901   3.906   1.804   6.479
 6819SOL     OW20902   4.228   1.568   6.496
 6819SOL    HW120903   4.294   1.642   6.505
 6819SOL    HW220904   4.272   1.489   6.454
 6820SOL     OW20905   3.764   0.544   6.700
 6820SOL    HW120906   3.849   0.511   6.659
 6820SOL    HW220907   3.777   0.559   6.798
 6821SOL     OW20908   3.913   0.520   7.308
 6821SOL    HW120909   3.972   0.480   7.238
 6821SOL    HW220910   3.855   0.591   7.267
 6822SOL     OW20911   3.976   1.564   7.330
 6822SOL    HW120912   3.946   1.621   7.406
 6822SOL    HW220913   3.969   1.467   7.356
 6823SOL     OW20914   3.883   1.137   7.052
 6823SOL    HW120915   3.905   1.076   7.128
 6823SOL    HW220916   3.893   1.088   6.966
 6824SOL     OW20917   3.807   1.258   6.608
 6824SOL    HW120918   3.802   1.257   6.708
 6824SOL    HW220919   3.724   1.217   6.570
 6825SOL     OW20920   3.854   1.794   7.437
 6825SOL    HW120921   3.813   1.720   7.490
 6825SOL    HW220922   3.918   1.845   7.495
 6826SOL     OW20923   3.799   0.345   5.619
 6826SOL    HW120924   3.707   0.317   5.590
 6826SOL    HW220925   3.830   0.422   5.563
 6827SOL     OW20926   3.796   0.166   5.904
 6827SOL    HW120927   3.779   0.249   5.850
 6827SOL    HW220928   3.886   0.129   5.882
 6828SOL     OW20929   3.803   1.240   6.239
 6828SOL    HW120930   3.802   1.193   6.327
 6828SOL    HW220931   3.885   1.212   6.188
 6829SOL     OW20932   3.763   1.077   5.886
 6829SOL    HW120933   3.862   1.066   5.877
 6829SOL    HW220934   3.723   0.991   5.918
 6830SOL     OW20935   3.954   0.628   7.561
 6830SOL    HW120936   3.861   0.626   7.598
 6830SOL    HW220937   3.955   0.589   7.469
 6831SOL     OW20938   3.949   0.275   8.444
 6831SOL    HW120939   3.984   0.258   8.536
 6831SOL    HW220940   3.861   0.230   8.432
 6832SOL     OW20941   3.743   0.368   8.095
 6832SOL    HW120942   3.661   0.411   8.134
 6832SOL    HW220943   3.715   0.295   8.032
 6833SOL     OW20944   4.059   1.435   8.509
 6833SOL    HW120945   3.981   1.404   8.456
 6833SOL    HW220946   4.117   1.493   8.452
 6834SOL     OW20947   3.955   1.713   7.931
 6834SOL    HW120948   3.989   1.790   7.985
 6834SOL    HW220949   3.999   1.713   7.841
 6835SOL     OW20950   3.954   1.434   7.986
 6835SOL    HW120951   3.928   1.530   7.986
 6835SOL    HW220952   3.883   1.380   8.031
 6836SOL     OW20953   3.846   0.643   8.011
 6836SOL    HW120954   3.801   0.555   8.028
 6836SOL    HW220955   3.845   0.697   8.095
 6837SOL     OW20956   3.751   1.596   7.565
 6837SOL    HW120957   3.732   1.500   7.586
 6837SOL    HW220958   3.718   1.654   7.640
 6838SOL     OW20959   3.837   0.737   9.045
 6838SOL    HW120960   3.925   0.724   9.090
 6838SOL    HW220961   3.824   0.834   9.023
 6839SOL     OW20962   3.800   0.811   8.237
 6839SOL    HW120963   3.899   0.799   8.246
 6839SOL    HW220964   3.776   0.906   8.258
 6840SOL     OW20965   3.854   1.821   9.019
 6840SOL    HW120966   3.844   1.806   9.118
 6840SOL    HW220967   3.768   1.857   8.983
 6841SOL     OW20968   3.926   0.285   8.946
 6841SOL    HW120969   3.846   0.345   8.933
 6841SOL    HW220970   3.916   0.236   9.032
 6842SOL     OW20971   3.802   0.556   8.834
 6842SOL    HW120972   3.894   0.555   8.793
 6842SOL    HW220973   3.796   0.630   8.901
 6843SOL     OW20974   4.251   0.256   7.776
 6843SOL    HW120975   4.278   0.197   7.701
 6843SOL    HW220976   4.251   0.351   7.745
 6844SOL     OW20977   3.788   1.564   8.779
 6844SOL    HW120978   3.742   1.646   8.745
 6844SOL    HW220979   3.886   1.583   8.788
 6845SOL     OW20980   4.091   1.100   7.949
 6845SOL    HW120981   4.084   1.183   7.893
 6845SOL    HW220982   4.095   1.020   7.889
 6846SOL     OW20983   4.031   0.213   8.679
 6846SOL    HW120984   4.008   0.250   8.769
 6846SOL    HW220985   4.001   0.118   8.673
 6847SOL     OW20986   3.761   1.310   8.730
 6847SOL    HW120987   3.814   1.261   8.798
 6847SOL    HW220988   3.783   1.408   8.735
 6848SOL     OW20989   3.732   1.326   7.648
 6848SOL    HW120990   3.639   1.347   7.617
 6848SOL    HW220991   3.742   1.227   7.661
 6849SOL     OW20992   3.812   1.801   8.375
 6849SOL    HW120993   3.770   1.715   8.348
 6849SOL    HW220994   3.906   1.804   8.341
 6850SOL     OW20995   4.228   1.568   8.358
 6850SOL    HW120996   4.294   1.642   8.367
 6850SOL    HW220997   4.272   1.489   8.316
 6851SOL     OW20998   3.764   0.544   8.562
 6851SOL    HW120999   3.849   0.511   8.521
 6851SOL    HW221000   3.777   0.559   8.660
 6852SOL     OW21001   3.913   0.520   9.170
 6852SOL    HW121002   3.972   0.480   9.100
 6852SOL    HW221003   3.855   0.591   9.129
 6853SOL     OW21004   3.976   1.564   9.192
 6853SOL    HW121005   3.946   1.621   9.268
 6853SOL    HW221006   3.969   1.467   9.218
 6854SOL     OW21007   3.883   1.137   8.914
 6854SOL    HW121008   3.905   1.076   8.990
 6854SOL    HW221009   3.893   1.088   8.828
 6855SOL     OW21010   3.807   1.258   8.470
 6855SOL    HW121011   3.802   1.257   8.570
 6855SOL    HW221012   3.724   1.217   8.432
 6856SOL     OW21013   3.854   1.794   9.299
 6856SOL    HW121014   3.813   1.720   9.352
 6856SOL    HW221015   3.918   1.845   9.357
 6857SOL     OW21016   3.799   0.345   7.481
 6857SOL    HW121017   3.707   0.317   7.452
 6857SOL    HW221018   3.830   0.422   7.425
 6858SOL     OW21019   3.796   0.166   7.766
 6858SOL    HW121020   3.779   0.249   7.712
 6858SOL    HW221021   3.886   0.129   7.744
 6859SOL     OW21022   3.803   1.240   8.101
 6859SOL    HW121023   3.802   1.193   8.189
 6859SOL    HW221024   3.885   1.212   8.050
 6860SOL     OW21025   3.763   1.077   7.748
 6860SOL    HW121026   3.862   1.066   7.739
 6860SOL    HW221027   3.723   0.991   7.780
 6861SOL     OW21028   3.954   0.628   9.423
 6861SOL    HW121029   3.861   0.626   9.460
 6861SOL    HW221030   3.955   0.589   9.331
 6862SOL     OW21031   3.949   0.275  10.306
 6862SOL    HW121032   3.984   0.258  10.398
 6862SOL    HW221033   3.861   0.230  10.294
 6863SOL     OW21034   3.743   0.368   9.957
 6863SOL    HW121035   3.661   0.411   9.996
 6863SOL    HW221036   3.715   0.295   9.894
 6864SOL     OW21037   4.059   1.435  10.371
 6864SOL    HW121038   3.981   1.404  10.318
 6864SOL    HW221039   4.117   1.493  10.314
 6865SOL     OW21040   3.955   1.713   9.793
 6865SOL    HW121041   3.989   1.790   9.847
 6865SOL    HW221042   3.999   1.713   9.703
 6866SOL     OW21043   3.954   1.434   9.848
 6866SOL    HW121044   3.928   1.530   9.848
 6866SOL    HW221045   3.883   1.380   9.893
 6867SOL     OW21046   3.846   0.643   9.873
 6867SOL    HW121047   3.801   0.555   9.890
 6867SOL    HW221048   3.845   0.697   9.957
 6868SOL     OW21049   3.751   1.596   9.427
 6868SOL    HW121050   3.732   1.500   9.448
 6868SOL    HW221051   3.718   1.654   9.502
 6869SOL     OW21052   3.837   0.737  10.907
 6869SOL    HW121053   3.925   0.724  10.952
 6869SOL    HW221054   3.824   0.834  10.885
 6870SOL     OW21055   3.800   0.811  10.099
 6870SOL    HW121056   3.899   0.799  10.108
 6870SOL    HW221057   3.776   0.906  10.120
 6871SOL     OW21058   3.854   1.821  10.881
 6871SOL    HW121059   3.844   1.806  10.980
 6871SOL    HW221060   3.768   1.857  10.845
 6872SOL     OW21061   3.926   0.285  10.808
 6872SOL    HW121062   3.846   0.345  10.795
 6872SOL    HW221063   3.916   0.236  10.894
 6873SOL     OW21064   3.802   0.556  10.696
 6873SOL    HW121065   3.894   0.555  10.655
 6873SOL    HW221066   3.796   0.630  10.763
 6874SOL     OW21067   4.251   0.256   9.638
 6874SOL    HW121068   4.278   0.197   9.563
 6874SOL    HW221069   4.251   0.351   9.607
 6875SOL     OW21070   3.788   1.564  10.641
 6875SOL    HW121071   3.742   1.646  10.607
 6875SOL    HW221072   3.886   1.583  10.650
 6876SOL     OW21073   4.091   1.100   9.811
 6876SOL    HW121074   4.084   1.183   9.755
 6876SOL    HW221075   4.095   1.020   9.751
 6877SOL     OW21076   4.031   0.213  10.541
 6877SOL    HW121077   4.008   0.250  10.631
 6877SOL    HW221078   4.001   0.118  10.535
 6878SOL     OW21079   3.761   1.310  10.592
 6878SOL    HW121080   3.814   1.261  10.660
 6878SOL    HW221081   3.783   1.408  10.597
 6879SOL     OW21082   3.732   1.326   9.510
 6879SOL    HW121083   3.639   1.347   9.479
 6879SOL    HW221084   3.742   1.227   9.523
 6880SOL     OW21085   3.812   1.801  10.237
 6880SOL    HW121086   3.770   1.715  10.210
 6880SOL    HW221087   3.906   1.804  10.203
 6881SOL     OW21088   4.228   1.568  10.220
 6881SOL    HW121089   4.294   1.642  10.229
 6881SOL    HW221090   4.272   1.489  10.178
 6882SOL     OW21091   3.764   0.544  10.424
 6882SOL    HW121092   3.849   0.511  10.383
 6882SOL    HW221093   3.777   0.559  10.522
 6883SOL     OW21094   3.913   0.520  11.032
 6883SOL    HW121095   3.972   0.480  10.962
 6883SOL    HW221096   3.855   0.591  10.991
 6884SOL     OW21097   3.976   1.564  11.054
 6884SOL    HW121098   3.946   1.621  11.130
 6884SOL    HW221099   3.969   1.467  11.080
 6885SOL     OW21100   3.883   1.137  10.776
 6885SOL    HW121101   3.905   1.076  10.852
 6885SOL    HW221102   3.893   1.088  10.690
 6886SOL     OW21103   3.807   1.258  10.332
 6886SOL    HW121104   3.802   1.257  10.432
 6886SOL    HW221105   3.724   1.217  10.294
 6887SOL     OW21106   3.854   1.794  11.161
 6887SOL    HW121107   3.813   1.720  11.214
 6887SOL    HW221108   3.918   1.845  11.219
 6888SOL     OW21109   3.799   0.345   9.343
 6888SOL    HW121110   3.707   0.317   9.314
 6888SOL    HW221111   3.830   0.422   9.287
 6889SOL     OW21112   3.796   0.166   9.628
 6889SOL    HW121113   3.779   0.249   9.574
 6889SOL    HW221114   3.886   0.129   9.606
 6890SOL     OW21115   3.803   1.240   9.963
 6890SOL    HW121116   3.802   1.193  10.051
 6890SOL    HW221117   3.885   1.212   9.912
 6891SOL     OW21118   3.763   1.077   9.610
 6891SOL    HW121119   3.862   1.066   9.601
 6891SOL    HW221120   3.723   0.991   9.642
 6892SOL     OW21121   3.954   0.628  11.285
 6892SOL    HW121122   3.861   0.626  11.322
 6892SOL    HW221123   3.955   0.589  11.193
 6893SOL     OW21124   3.949   0.275  12.168
 6893SOL    HW121125   3.984   0.258  12.260
 6893SOL    HW221126   3.861   0.230  12.156
 6894SOL     OW21127   3.743   0.368  11.819
 6894SOL    HW121128   3.661   0.411  11.858
 6894SOL    HW221129   3.715   0.295  11.756
 6895SOL     OW21130   4.059   1.435  12.233
 6895SOL    HW121131   3.981   1.404  12.180
 6895SOL    HW221132   4.117   1.493  12.176
 6896SOL     OW21133   3.955   1.713  11.655
 6896SOL    HW121134   3.989   1.790  11.709
 6896SOL    HW221135   3.999   1.713  11.565
 6897SOL     OW21136   3.954   1.434  11.710
 6897SOL    HW121137   3.928   1.530  11.710
 6897SOL    HW221138   3.883   1.380  11.755
 6898SOL     OW21139   3.846   0.643  11.735
 6898SOL    HW121140   3.801   0.555  11.752
 6898SOL    HW221141   3.845   0.697  11.819
 6899SOL     OW21142   3.751   1.596  11.289
 6899SOL    HW121143   3.732   1.500  11.310
 6899SOL    HW221144   3.718   1.654  11.364
 6900SOL     OW21145   3.837   0.737  12.769
 6900SOL    HW121146   3.925   0.724  12.814
 6900SOL    HW221147   3.824   0.834  12.747
 6901SOL     OW21148   3.800   0.811  11.961
 6901SOL    HW121149   3.899   0.799  11.970
 6901SOL    HW221150   3.776   0.906  11.982
 6902SOL     OW21151   3.854   1.821  12.743
 6902SOL    HW121152   3.844   1.806  12.842
 6902SOL    HW221153   3.768   1.857  12.707
 6903SOL     OW21154   3.926   0.285  12.670
 6903SOL    HW121155   3.846   0.345  12.657
 6903SOL    HW221156   3.916   0.236  12.756
 6904SOL     OW21157   3.802   0.556  12.558
 6904SOL    HW121158   3.894   0.555  12.517
 6904SOL    HW221159   3.796   0.630  12.625
 6905SOL     OW21160   4.251   0.256  11.500
 6905SOL    HW121161   4.278   0.197  11.425
 6905SOL    HW221162   4.251   0.351  11.469
 6906SOL     OW21163   3.788   1.564  12.503
 6906SOL    HW121164   3.742   1.646  12.469
 6906SOL    HW221165   3.886   1.583  12.512
 6907SOL     OW21166   4.091   1.100  11.673
 6907SOL    HW121167   4.084   1.183  11.617
 6907SOL    HW221168   4.095   1.020  11.613
 6908SOL     OW21169   4.031   0.213  12.403
 6908SOL    HW121170   4.008   0.250  12.493
 6908SOL    HW221171   4.001   0.118  12.397
 6909SOL     OW21172   3.761   1.310  12.454
 6909SOL    HW121173   3.814   1.261  12.522
 6909SOL    HW221174   3.783   1.408  12.459
 6910SOL     OW21175   3.732   1.326  11.372
 6910SOL    HW121176   3.639   1.347  11.341
 6910SOL    HW221177   3.742   1.227  11.385
 6911SOL     OW21178   3.812   1.801  12.099
 6911SOL    HW121179   3.770   1.715  12.072
 6911SOL    HW221180   3.906   1.804  12.065
 6912SOL     OW21181   4.228   1.568  12.082
 6912SOL    HW121182   4.294   1.642  12.091
 6912SOL    HW221183   4.272   1.489  12.040
 6913SOL     OW21184   3.764   0.544  12.286
 6913SOL    HW121185   3.849   0.511  12.245
 6913SOL    HW221186   3.777   0.559  12.384
 6914SOL     OW21187   3.913   0.520  12.894
 6914SOL    HW121188   3.972   0.480  12.824
 6914SOL    HW221189   3.855   0.591  12.853
 6915SOL     OW21190   3.976   1.564  12.916
 6915SOL    HW121191   3.946   1.621  12.992
 6915SOL    HW221192   3.969   1.467  12.942
 6916SOL     OW21193   3.883   1.137  12.638
 6916SOL    HW121194   3.905   1.076  12.714
 6916SOL    HW221195   3.893   1.088  12.552
 6917SOL     OW21196   3.807   1.258  12.194
 6917SOL    HW121197   3.802   1.257  12.294
 6917SOL    HW221198   3.724   1.217  12.156
 6918SOL     OW21199   3.854   1.794  13.023
 6918SOL    HW121200   3.813   1.720  13.076
 6918SOL    HW221201   3.918   1.845  13.081
 6919SOL     OW21202   3.799   0.345  11.205
 6919SOL    HW121203   3.707   0.317  11.176
 6919SOL    HW221204   3.830   0.422  11.149
 6920SOL     OW21205   3.796   0.166  11.490
 6920SOL    HW121206   3.779   0.249  11.436
 6920SOL    HW221207   3.886   0.129  11.468
 6921SOL     OW21208   3.803   1.240  11.825
 6921SOL    HW121209   3.802   1.193  11.913
 6921SOL    HW221210   3.885   1.212  11.774
 6922SOL     OW21211   3.763   1.077  11.472
 6922SOL    HW121212   3.862   1.066  11.463
 6922SOL    HW221213   3.723   0.991  11.504
 6923SOL     OW21214   3.954   0.628  13.147
 6923SOL    HW121215   3.861   0.626  13.184
 6923SOL    HW221216   3.955   0.589  13.055
 6924SOL     OW21217   3.743   0.368  13.681
 6924SOL    HW121218   3.661   0.411  13.720
 6924SOL    HW221219   3.715   0.295  13.618
 6925SOL     OW21220   3.955   1.713  13.517
 6925SOL    HW121221   3.989   1.790  13.571
 6925SOL    HW221222   3.999   1.713  13.427
 6926SOL     OW21223   3.954   1.434  13.572
 6926SOL    HW121224   3.928   1.530  13.572
 6926SOL    HW221225   3.883   1.380  13.617
 6927SOL     OW21226   3.964   1.091  13.920
 6927SOL    HW121227   3.978   1.007  13.972
 6927SOL    HW221228   3.909   1.155  13.975
 6928SOL     OW21229   3.846   0.643  13.597
 6928SOL    HW121230   3.801   0.555  13.614
 6928SOL    HW221231   3.845   0.697  13.681
 6929SOL     OW21232   3.751   1.596  13.151
 6929SOL    HW121233   3.732   1.500  13.172
 6929SOL    HW221234   3.718   1.654  13.226
 6930SOL     OW21235   3.800   0.811  13.823
 6930SOL    HW121236   3.899   0.799  13.832
 6930SOL    HW221237   3.776   0.906  13.844
 6931SOL     OW21238   4.075   1.801  13.887
 6931SOL    HW121239   4.125   1.715  13.893
 6931SOL    HW221240   4.140   1.878  13.884
 6932SOL     OW21241   4.251   0.256  13.362
 6932SOL    HW121242   4.278   0.197  13.287
 6932SOL    HW221243   4.251   0.351  13.331
 6933SOL     OW21244   4.091   1.100  13.535
 6933SOL    HW121245   4.084   1.183  13.479
 6933SOL    HW221246   4.095   1.020  13.475
 6934SOL     OW21247   3.732   1.326  13.234
 6934SOL    HW121248   3.639   1.347  13.203
 6934SOL    HW221249   3.742   1.227  13.247
 6935SOL     OW21250   4.228   1.568  13.944
 6935SOL    HW121251   4.294   1.642  13.953
 6935SOL    HW221252   4.272   1.489  13.902
 6936SOL     OW21253   3.799   0.345  13.067
 6936SOL    HW121254   3.707   0.317  13.038
 6936SOL    HW221255   3.830   0.422  13.011
 6937SOL     OW21256   3.796   0.166  13.352
 6937SOL    HW121257   3.779   0.249  13.298
 6937SOL    HW221258   3.886   0.129  13.330
 6938SOL     OW21259   3.803   1.240  13.687
 6938SOL    HW121260   3.802   1.193  13.775
 6938SOL    HW221261   3.885   1.212  13.636
 6939SOL     OW21262   3.763   1.077  13.334
 6939SOL    HW121263   3.862   1.066  13.325
 6939SOL    HW221264   3.723   0.991  13.366
 6940SOL     OW21265   3.954   2.490   0.113
 6940SOL    HW121266   3.861   2.488   0.150
 6940SOL    HW221267   3.955   2.451   0.021
 6941SOL     OW21268   3.949   2.137   0.996
 6941SOL    HW121269   3.984   2.120   1.088
 6941SOL    HW221270   3.861   2.092   0.984
 6942SOL     OW21271   3.743   2.230   0.647
 6942SOL    HW121272   3.661   2.273   0.686
 6942SOL    HW221273   3.715   2.157   0.584
 6943SOL     OW21274   4.059   3.297   1.061
 6943SOL    HW121275   3.981   3.266   1.008
 6943SOL    HW221276   4.117   3.355   1.004
 6944SOL     OW21277   3.955   3.575   0.483
 6944SOL    HW121278   3.989   3.652   0.537
 6944SOL    HW221279   3.999   3.575   0.393
 6945SOL     OW21280   3.954   3.296   0.538
 6945SOL    HW121281   3.928   3.392   0.538
 6945SOL    HW221282   3.883   3.242   0.583
 6946SOL     OW21283   3.846   2.505   0.563
 6946SOL    HW121284   3.801   2.417   0.580
 6946SOL    HW221285   3.845   2.559   0.647
 6947SOL     OW21286   3.751   3.458   0.117
 6947SOL    HW121287   3.732   3.362   0.138
 6947SOL    HW221288   3.718   3.516   0.192
 6948SOL     OW21289   3.837   2.599   1.597
 6948SOL    HW121290   3.925   2.586   1.642
 6948SOL    HW221291   3.824   2.696   1.575
 6949SOL     OW21292   3.800   2.673   0.789
 6949SOL    HW121293   3.899   2.661   0.798
 6949SOL    HW221294   3.776   2.768   0.810
 6950SOL     OW21295   3.854   3.683   1.571
 6950SOL    HW121296   3.844   3.668   1.670
 6950SOL    HW221297   3.768   3.719   1.535
 6951SOL     OW21298   3.926   2.147   1.498
 6951SOL    HW121299   3.846   2.207   1.485
 6951SOL    HW221300   3.916   2.098   1.584
 6952SOL     OW21301   3.802   2.418   1.386
 6952SOL    HW121302   3.894   2.417   1.345
 6952SOL    HW221303   3.796   2.492   1.453
 6953SOL     OW21304   3.788   3.426   1.331
 6953SOL    HW121305   3.742   3.508   1.297
 6953SOL    HW221306   3.886   3.445   1.340
 6954SOL     OW21307   4.091   2.962   0.501
 6954SOL    HW121308   4.084   3.045   0.445
 6954SOL    HW221309   4.095   2.882   0.441
 6955SOL     OW21310   4.031   2.075   1.231
 6955SOL    HW121311   4.008   2.112   1.321
 6955SOL    HW221312   4.001   1.980   1.225
 6956SOL     OW21313   3.761   3.172   1.282
 6956SOL    HW121314   3.814   3.123   1.350
 6956SOL    HW221315   3.783   3.270   1.287
 6957SOL     OW21316   4.031   1.925   0.618
 6957SOL    HW121317   4.020   2.019   0.651
 6957SOL    HW221318   4.026   1.862   0.695
 6958SOL     OW21319   3.732   3.188   0.200
 6958SOL    HW121320   3.639   3.209   0.169
 6958SOL    HW221321   3.742   3.089   0.213
 6959SOL     OW21322   3.812   3.663   0.927
 6959SOL    HW121323   3.770   3.577   0.900
 6959SOL    HW221324   3.906   3.666   0.893
 6960SOL     OW21325   4.228   3.430   0.910
 6960SOL    HW121326   4.294   3.504   0.919
 6960SOL    HW221327   4.272   3.351   0.868
 6961SOL     OW21328   3.764   2.406   1.114
 6961SOL    HW121329   3.849   2.373   1.073
 6961SOL    HW221330   3.777   2.421   1.212
 6962SOL     OW21331   3.913   2.382   1.722
 6962SOL    HW121332   3.972   2.342   1.652
 6962SOL    HW221333   3.855   2.453   1.681
 6963SOL     OW21334   3.976   3.426   1.744
 6963SOL    HW121335   3.946   3.483   1.820
 6963SOL    HW221336   3.969   3.329   1.770
 6964SOL     OW21337   3.883   2.999   1.466
 6964SOL    HW121338   3.905   2.938   1.542
 6964SOL    HW221339   3.893   2.950   1.380
 6965SOL     OW21340   3.807   3.120   1.022
 6965SOL    HW121341   3.802   3.119   1.122
 6965SOL    HW221342   3.724   3.079   0.984
 6966SOL     OW21343   3.854   3.656   1.851
 6966SOL    HW121344   3.813   3.582   1.904
 6966SOL    HW221345   3.918   3.707   1.909
 6967SOL     OW21346   3.799   2.207   0.033
 6967SOL    HW121347   3.707   2.179   0.004
 6967SOL    HW221348   3.830   2.284  -0.023
 6968SOL     OW21349   3.796   2.028   0.318
 6968SOL    HW121350   3.779   2.111   0.264
 6968SOL    HW221351   3.886   1.991   0.296
 6969SOL     OW21352   3.803   3.102   0.653
 6969SOL    HW121353   3.802   3.055   0.741
 6969SOL    HW221354   3.885   3.074   0.602
 6970SOL     OW21355   3.763   2.939   0.300
 6970SOL    HW121356   3.862   2.928   0.291
 6970SOL    HW221357   3.723   2.853   0.332
 6971SOL     OW21358   3.954   2.490   1.975
 6971SOL    HW121359   3.861   2.488   2.012
 6971SOL    HW221360   3.955   2.451   1.883
 6972SOL     OW21361   3.949   2.137   2.858
 6972SOL    HW121362   3.984   2.120   2.950
 6972SOL    HW221363   3.861   2.092   2.846
 6973SOL     OW21364   3.743   2.230   2.509
 6973SOL    HW121365   3.661   2.273   2.548
 6973SOL    HW221366   3.715   2.157   2.446
 6974SOL     OW21367   4.059   3.297   2.923
 6974SOL    HW121368   3.981   3.266   2.870
 6974SOL    HW221369   4.117   3.355   2.866
 6975SOL     OW21370   3.955   3.575   2.345
 6975SOL    HW121371   3.989   3.652   2.399
 6975SOL    HW221372   3.999   3.575   2.255
 6976SOL     OW21373   3.954   3.296   2.400
 6976SOL    HW121374   3.928   3.392   2.400
 6976SOL    HW221375   3.883   3.242   2.445
 6977SOL     OW21376   3.846   2.505   2.425
 6977SOL    HW121377   3.801   2.417   2.442
 6977SOL    HW221378   3.845   2.559   2.509
 6978SOL     OW21379   3.751   3.458   1.979
 6978SOL    HW121380   3.732   3.362   2.000
 6978SOL    HW221381   3.718   3.516   2.054
 6979SOL     OW21382   3.837   2.599   3.459
 6979SOL    HW121383   3.925   2.586   3.504
 6979SOL    HW221384   3.824   2.696   3.437
 6980SOL     OW21385   3.800   2.673   2.651
 6980SOL    HW121386   3.899   2.661   2.660
 6980SOL    HW221387   3.776   2.768   2.672
 6981SOL     OW21388   3.854   3.683   3.433
 6981SOL    HW121389   3.844   3.668   3.532
 6981SOL    HW221390   3.768   3.719   3.397
 6982SOL     OW21391   3.926   2.147   3.360
 6982SOL    HW121392   3.846   2.207   3.347
 6982SOL    HW221393   3.916   2.098   3.446
 6983SOL     OW21394   4.021   1.897   2.033
 6983SOL    HW121395   4.070   1.981   2.012
 6983SOL    HW221396   4.083   1.832   2.078
 6984SOL     OW21397   3.802   2.418   3.248
 6984SOL    HW121398   3.894   2.417   3.207
 6984SOL    HW221399   3.796   2.492   3.315
 6985SOL     OW21400   4.251   2.118   2.190
 6985SOL    HW121401   4.278   2.059   2.115
 6985SOL    HW221402   4.251   2.213   2.159
 6986SOL     OW21403   3.788   3.426   3.193
 6986SOL    HW121404   3.742   3.508   3.159
 6986SOL    HW221405   3.886   3.445   3.202
 6987SOL     OW21406   4.091   2.962   2.363
 6987SOL    HW121407   4.084   3.045   2.307
 6987SOL    HW221408   4.095   2.882   2.303
 6988SOL     OW21409   4.031   2.075   3.093
 6988SOL    HW121410   4.008   2.112   3.183
 6988SOL    HW221411   4.001   1.980   3.087
 6989SOL     OW21412   3.761   3.172   3.144
 6989SOL    HW121413   3.814   3.123   3.212
 6989SOL    HW221414   3.783   3.270   3.149
 6990SOL     OW21415   4.031   1.925   2.480
 6990SOL    HW121416   4.020   2.019   2.513
 6990SOL    HW221417   4.026   1.862   2.557
 6991SOL     OW21418   3.732   3.188   2.062
 6991SOL    HW121419   3.639   3.209   2.031
 6991SOL    HW221420   3.742   3.089   2.075
 6992SOL     OW21421   3.812   3.663   2.789
 6992SOL    HW121422   3.770   3.577   2.762
 6992SOL    HW221423   3.906   3.666   2.755
 6993SOL     OW21424   4.228   3.430   2.772
 6993SOL    HW121425   4.294   3.504   2.781
 6993SOL    HW221426   4.272   3.351   2.730
 6994SOL     OW21427   3.764   2.406   2.976
 6994SOL    HW121428   3.849   2.373   2.935
 6994SOL    HW221429   3.777   2.421   3.074
 6995SOL     OW21430   3.913   2.382   3.584
 6995SOL    HW121431   3.972   2.342   3.514
 6995SOL    HW221432   3.855   2.453   3.543
 6996SOL     OW21433   3.976   3.426   3.606
 6996SOL    HW121434   3.946   3.483   3.682
 6996SOL    HW221435   3.969   3.329   3.632
 6997SOL     OW21436   3.883   2.999   3.328
 6997SOL    HW121437   3.905   2.938   3.404
 6997SOL    HW221438   3.893   2.950   3.242
 6998SOL     OW21439   3.807   3.120   2.884
 6998SOL    HW121440   3.802   3.119   2.984
 6998SOL    HW221441   3.724   3.079   2.846
 6999SOL     OW21442   3.854   3.656   3.713
 6999SOL    HW121443   3.813   3.582   3.766
 6999SOL    HW221444   3.918   3.707   3.771
 7000SOL     OW21445   3.799   2.207   1.895
 7000SOL    HW121446   3.707   2.179   1.866
 7000SOL    HW221447   3.830   2.284   1.839
 7001SOL     OW21448   3.796   2.028   2.180
 7001SOL    HW121449   3.779   2.111   2.126
 7001SOL    HW221450   3.886   1.991   2.158
 7002SOL     OW21451   3.803   3.102   2.515
 7002SOL    HW121452   3.802   3.055   2.603
 7002SOL    HW221453   3.885   3.074   2.464
 7003SOL     OW21454   3.763   2.939   2.162
 7003SOL    HW121455   3.862   2.928   2.153
 7003SOL    HW221456   3.723   2.853   2.194
 7004SOL     OW21457   3.954   2.490   3.837
 7004SOL    HW121458   3.861   2.488   3.874
 7004SOL    HW221459   3.955   2.451   3.745
 7005SOL     OW21460   3.949   2.137   4.720
 7005SOL    HW121461   3.984   2.120   4.812
 7005SOL    HW221462   3.861   2.092   4.708
 7006SOL     OW21463   3.743   2.230   4.371
 7006SOL    HW121464   3.661   2.273   4.410
 7006SOL    HW221465   3.715   2.157   4.308
 7007SOL     OW21466   4.059   3.297   4.785
 7007SOL    HW121467   3.981   3.266   4.732
 7007SOL    HW221468   4.117   3.355   4.728
 7008SOL     OW21469   3.955   3.575   4.207
 7008SOL    HW121470   3.989   3.652   4.261
 7008SOL    HW221471   3.999   3.575   4.117
 7009SOL     OW21472   3.954   3.296   4.262
 7009SOL    HW121473   3.928   3.392   4.262
 7009SOL    HW221474   3.883   3.242   4.307
 7010SOL     OW21475   3.846   2.505   4.287
 7010SOL    HW121476   3.801   2.417   4.304
 7010SOL    HW221477   3.845   2.559   4.371
 7011SOL     OW21478   3.751   3.458   3.841
 7011SOL    HW121479   3.732   3.362   3.862
 7011SOL    HW221480   3.718   3.516   3.916
 7012SOL     OW21481   3.837   2.599   5.321
 7012SOL    HW121482   3.925   2.586   5.366
 7012SOL    HW221483   3.824   2.696   5.299
 7013SOL     OW21484   3.800   2.673   4.513
 7013SOL    HW121485   3.899   2.661   4.522
 7013SOL    HW221486   3.776   2.768   4.534
 7014SOL     OW21487   3.854   3.683   5.295
 7014SOL    HW121488   3.844   3.668   5.394
 7014SOL    HW221489   3.768   3.719   5.259
 7015SOL     OW21490   3.926   2.147   5.222
 7015SOL    HW121491   3.846   2.207   5.209
 7015SOL    HW221492   3.916   2.098   5.308
 7016SOL     OW21493   4.021   1.897   3.895
 7016SOL    HW121494   4.070   1.981   3.874
 7016SOL    HW221495   4.083   1.832   3.940
 7017SOL     OW21496   3.802   2.418   5.110
 7017SOL    HW121497   3.894   2.417   5.069
 7017SOL    HW221498   3.796   2.492   5.177
 7018SOL     OW21499   4.251   2.118   4.052
 7018SOL    HW121500   4.278   2.059   3.977
 7018SOL    HW221501   4.251   2.213   4.021
 7019SOL     OW21502   3.788   3.426   5.055
 7019SOL    HW121503   3.742   3.508   5.021
 7019SOL    HW221504   3.886   3.445   5.064
 7020SOL     OW21505   4.091   2.962   4.225
 7020SOL    HW121506   4.084   3.045   4.169
 7020SOL    HW221507   4.095   2.882   4.165
 7021SOL     OW21508   4.031   2.075   4.955
 7021SOL    HW121509   4.008   2.112   5.045
 7021SOL    HW221510   4.001   1.980   4.949
 7022SOL     OW21511   3.761   3.172   5.006
 7022SOL    HW121512   3.814   3.123   5.074
 7022SOL    HW221513   3.783   3.270   5.011
 7023SOL     OW21514   4.031   1.925   4.342
 7023SOL    HW121515   4.020   2.019   4.375
 7023SOL    HW221516   4.026   1.862   4.419
 7024SOL     OW21517   3.732   3.188   3.924
 7024SOL    HW121518   3.639   3.209   3.893
 7024SOL    HW221519   3.742   3.089   3.937
 7025SOL     OW21520   3.812   3.663   4.651
 7025SOL    HW121521   3.770   3.577   4.624
 7025SOL    HW221522   3.906   3.666   4.617
 7026SOL     OW21523   4.228   3.430   4.634
 7026SOL    HW121524   4.294   3.504   4.643
 7026SOL    HW221525   4.272   3.351   4.592
 7027SOL     OW21526   3.764   2.406   4.838
 7027SOL    HW121527   3.849   2.373   4.797
 7027SOL    HW221528   3.777   2.421   4.936
 7028SOL     OW21529   3.913   2.382   5.446
 7028SOL    HW121530   3.972   2.342   5.376
 7028SOL    HW221531   3.855   2.453   5.405
 7029SOL     OW21532   3.976   3.426   5.468
 7029SOL    HW121533   3.946   3.483   5.544
 7029SOL    HW221534   3.969   3.329   5.494
 7030SOL     OW21535   3.883   2.999   5.190
 7030SOL    HW121536   3.905   2.938   5.266
 7030SOL    HW221537   3.893   2.950   5.104
 7031SOL     OW21538   3.807   3.120   4.746
 7031SOL    HW121539   3.802   3.119   4.846
 7031SOL    HW221540   3.724   3.079   4.708
 7032SOL     OW21541   3.854   3.656   5.575
 7032SOL    HW121542   3.813   3.582   5.628
 7032SOL    HW221543   3.918   3.707   5.633
 7033SOL     OW21544   3.799   2.207   3.757
 7033SOL    HW121545   3.707   2.179   3.728
 7033SOL    HW221546   3.830   2.284   3.701
 7034SOL     OW21547   3.796   2.028   4.042
 7034SOL    HW121548   3.779   2.111   3.988
 7034SOL    HW221549   3.886   1.991   4.020
 7035SOL     OW21550   3.803   3.102   4.377
 7035SOL    HW121551   3.802   3.055   4.465
 7035SOL    HW221552   3.885   3.074   4.326
 7036SOL     OW21553   3.763   2.939   4.024
 7036SOL    HW121554   3.862   2.928   4.015
 7036SOL    HW221555   3.723   2.853   4.056
 7037SOL     OW21556   3.954   2.490   5.699
 7037SOL    HW121557   3.861   2.488   5.736
 7037SOL    HW221558   3.955   2.451   5.607
 7038SOL     OW21559   3.949   2.137   6.582
 7038SOL    HW121560   3.984   2.120   6.674
 7038SOL    HW221561   3.861   2.092   6.570
 7039SOL     OW21562   3.743   2.230   6.233
 7039SOL    HW121563   3.661   2.273   6.272
 7039SOL    HW221564   3.715   2.157   6.170
 7040SOL     OW21565   4.059   3.297   6.647
 7040SOL    HW121566   3.981   3.266   6.594
 7040SOL    HW221567   4.117   3.355   6.590
 7041SOL     OW21568   3.955   3.575   6.069
 7041SOL    HW121569   3.989   3.652   6.123
 7041SOL    HW221570   3.999   3.575   5.979
 7042SOL     OW21571   3.954   3.296   6.124
 7042SOL    HW121572   3.928   3.392   6.124
 7042SOL    HW221573   3.883   3.242   6.169
 7043SOL     OW21574   3.846   2.505   6.149
 7043SOL    HW121575   3.801   2.417   6.166
 7043SOL    HW221576   3.845   2.559   6.233
 7044SOL     OW21577   3.751   3.458   5.703
 7044SOL    HW121578   3.732   3.362   5.724
 7044SOL    HW221579   3.718   3.516   5.778
 7045SOL     OW21580   3.837   2.599   7.183
 7045SOL    HW121581   3.925   2.586   7.228
 7045SOL    HW221582   3.824   2.696   7.161
 7046SOL     OW21583   3.800   2.673   6.375
 7046SOL    HW121584   3.899   2.661   6.384
 7046SOL    HW221585   3.776   2.768   6.396
 7047SOL     OW21586   3.854   3.683   7.157
 7047SOL    HW121587   3.844   3.668   7.256
 7047SOL    HW221588   3.768   3.719   7.121
 7048SOL     OW21589   3.926   2.147   7.084
 7048SOL    HW121590   3.846   2.207   7.071
 7048SOL    HW221591   3.916   2.098   7.170
 7049SOL     OW21592   4.021   1.897   5.757
 7049SOL    HW121593   4.070   1.981   5.736
 7049SOL    HW221594   4.083   1.832   5.802
 7050SOL     OW21595   3.802   2.418   6.972
 7050SOL    HW121596   3.894   2.417   6.931
 7050SOL    HW221597   3.796   2.492   7.039
 7051SOL     OW21598   4.251   2.118   5.914
 7051SOL    HW121599   4.278   2.059   5.839
 7051SOL    HW221600   4.251   2.213   5.883
 7052SOL     OW21601   3.788   3.426   6.917
 7052SOL    HW121602   3.742   3.508   6.883
 7052SOL    HW221603   3.886   3.445   6.926
 7053SOL     OW21604   4.091   2.962   6.087
 7053SOL    HW121605   4.084   3.045   6.031
 7053SOL    HW221606   4.095   2.882   6.027
 7054SOL     OW21607   4.031   2.075   6.817
 7054SOL    HW121608   4.008   2.112   6.907
 7054SOL    HW221609   4.001   1.980   6.811
 7055SOL     OW21610   3.761   3.172   6.868
 7055SOL    HW121611   3.814   3.123   6.936
 7055SOL    HW221612   3.783   3.270   6.873
 7056SOL     OW21613   4.031   1.925   6.204
 7056SOL    HW121614   4.020   2.019   6.237
 7056SOL    HW221615   4.026   1.862   6.281
 7057SOL     OW21616   3.732   3.188   5.786
 7057SOL    HW121617   3.639   3.209   5.755
 7057SOL    HW221618   3.742   3.089   5.799
 7058SOL     OW21619   3.812   3.663   6.513
 7058SOL    HW121620   3.770   3.577   6.486
 7058SOL    HW221621   3.906   3.666   6.479
 7059SOL     OW21622   4.228   3.430   6.496
 7059SOL    HW121623   4.294   3.504   6.505
 7059SOL    HW221624   4.272   3.351   6.454
 7060SOL     OW21625   3.764   2.406   6.700
 7060SOL    HW121626   3.849   2.373   6.659
 7060SOL    HW221627   3.777   2.421   6.798
 7061SOL     OW21628   3.913   2.382   7.308
 7061SOL    HW121629   3.972   2.342   7.238
 7061SOL    HW221630   3.855   2.453   7.267
 7062SOL     OW21631   3.976   3.426   7.330
 7062SOL    HW121632   3.946   3.483   7.406
 7062SOL    HW221633   3.969   3.329   7.356
 7063SOL     OW21634   3.883   2.999   7.052
 7063SOL    HW121635   3.905   2.938   7.128
 7063SOL    HW221636   3.893   2.950   6.966
 7064SOL     OW21637   3.807   3.120   6.608
 7064SOL    HW121638   3.802   3.119   6.708
 7064SOL    HW221639   3.724   3.079   6.570
 7065SOL     OW21640   3.854   3.656   7.437
 7065SOL    HW121641   3.813   3.582   7.490
 7065SOL    HW221642   3.918   3.707   7.495
 7066SOL     OW21643   3.799   2.207   5.619
 7066SOL    HW121644   3.707   2.179   5.590
 7066SOL    HW221645   3.830   2.284   5.563
 7067SOL     OW21646   3.796   2.028   5.904
 7067SOL    HW121647   3.779   2.111   5.850
 7067SOL    HW221648   3.886   1.991   5.882
 7068SOL     OW21649   3.803   3.102   6.239
 7068SOL    HW121650   3.802   3.055   6.327
 7068SOL    HW221651   3.885   3.074   6.188
 7069SOL     OW21652   3.763   2.939   5.886
 7069SOL    HW121653   3.862   2.928   5.877
 7069SOL    HW221654   3.723   2.853   5.918
 7070SOL     OW21655   3.954   2.490   7.561
 7070SOL    HW121656   3.861   2.488   7.598
 7070SOL    HW221657   3.955   2.451   7.469
 7071SOL     OW21658   3.949   2.137   8.444
 7071SOL    HW121659   3.984   2.120   8.536
 7071SOL    HW221660   3.861   2.092   8.432
 7072SOL     OW21661   3.743   2.230   8.095
 7072SOL    HW121662   3.661   2.273   8.134
 7072SOL    HW221663   3.715   2.157   8.032
 7073SOL     OW21664   4.059   3.297   8.509
 7073SOL    HW121665   3.981   3.266   8.456
 7073SOL    HW221666   4.117   3.355   8.452
 7074SOL     OW21667   3.955   3.575   7.931
 7074SOL    HW121668   3.989   3.652   7.985
 7074SOL    HW221669   3.999   3.575   7.841
 7075SOL     OW21670   3.954   3.296   7.986
 7075SOL    HW121671   3.928   3.392   7.986
 7075SOL    HW221672   3.883   3.242   8.031
 7076SOL     OW21673   3.846   2.505   8.011
 7076SOL    HW121674   3.801   2.417   8.028
 7076SOL    HW221675   3.845   2.559   8.095
 7077SOL     OW21676   3.751   3.458   7.565
 7077SOL    HW121677   3.732   3.362   7.586
 7077SOL    HW221678   3.718   3.516   7.640
 7078SOL     OW21679   3.837   2.599   9.045
 7078SOL    HW121680   3.925   2.586   9.090
 7078SOL    HW221681   3.824   2.696   9.023
 7079SOL     OW21682   3.800   2.673   8.237
 7079SOL    HW121683   3.899   2.661   8.246
 7079SOL    HW221684   3.776   2.768   8.258
 7080SOL     OW21685   3.854   3.683   9.019
 7080SOL    HW121686   3.844   3.668   9.118
 7080SOL    HW221687   3.768   3.719   8.983
 7081SOL     OW21688   3.926   2.147   8.946
 7081SOL    HW121689   3.846   2.207   8.933
 7081SOL    HW221690   3.916   2.098   9.032
 7082SOL     OW21691   4.021   1.897   7.619
 7082SOL    HW121692   4.070   1.981   7.598
 7082SOL    HW221693   4.083   1.832   7.664
 7083SOL     OW21694   3.802   2.418   8.834
 7083SOL    HW121695   3.894   2.417   8.793
 7083SOL    HW221696   3.796   2.492   8.901
 7084SOL     OW21697   4.251   2.118   7.776
 7084SOL    HW121698   4.278   2.059   7.701
 7084SOL    HW221699   4.251   2.213   7.745
 7085SOL     OW21700   3.788   3.426   8.779
 7085SOL    HW121701   3.742   3.508   8.745
 7085SOL    HW221702   3.886   3.445   8.788
 7086SOL     OW21703   4.091   2.962   7.949
 7086SOL    HW121704   4.084   3.045   7.893
 7086SOL    HW221705   4.095   2.882   7.889
 7087SOL     OW21706   4.031   2.075   8.679
 7087SOL    HW121707   4.008   2.112   8.769
 7087SOL    HW221708   4.001   1.980   8.673
 7088SOL     OW21709   3.761   3.172   8.730
 7088SOL    HW121710   3.814   3.123   8.798
 7088SOL    HW221711   3.783   3.270   8.735
 7089SOL     OW21712   4.031   1.925   8.066
 7089SOL    HW121713   4.020   2.019   8.099
 7089SOL    HW221714   4.026   1.862   8.143
 7090SOL     OW21715   3.732   3.188   7.648
 7090SOL    HW121716   3.639   3.209   7.617
 7090SOL    HW221717   3.742   3.089   7.661
 7091SOL     OW21718   3.812   3.663   8.375
 7091SOL    HW121719   3.770   3.577   8.348
 7091SOL    HW221720   3.906   3.666   8.341
 7092SOL     OW21721   4.228   3.430   8.358
 7092SOL    HW121722   4.294   3.504   8.367
 7092SOL    HW221723   4.272   3.351   8.316
 7093SOL     OW21724   3.764   2.406   8.562
 7093SOL    HW121725   3.849   2.373   8.521
 7093SOL    HW221726   3.777   2.421   8.660
 7094SOL     OW21727   3.913   2.382   9.170
 7094SOL    HW121728   3.972   2.342   9.100
 7094SOL    HW221729   3.855   2.453   9.129
 7095SOL     OW21730   3.976   3.426   9.192
 7095SOL    HW121731   3.946   3.483   9.268
 7095SOL    HW221732   3.969   3.329   9.218
 7096SOL     OW21733   3.883   2.999   8.914
 7096SOL    HW121734   3.905   2.938   8.990
 7096SOL    HW221735   3.893   2.950   8.828
 7097SOL     OW21736   3.807   3.120   8.470
 7097SOL    HW121737   3.802   3.119   8.570
 7097SOL    HW221738   3.724   3.079   8.432
 7098SOL     OW21739   3.854   3.656   9.299
 7098SOL    HW121740   3.813   3.582   9.352
 7098SOL    HW221741   3.918   3.707   9.357
 7099SOL     OW21742   3.799   2.207   7.481
 7099SOL    HW121743   3.707   2.179   7.452
 7099SOL    HW221744   3.830   2.284   7.425
 7100SOL     OW21745   3.796   2.028   7.766
 7100SOL    HW121746   3.779   2.111   7.712
 7100SOL    HW221747   3.886   1.991   7.744
 7101SOL     OW21748   3.803   3.102   8.101
 7101SOL    HW121749   3.802   3.055   8.189
 7101SOL    HW221750   3.885   3.074   8.050
 7102SOL     OW21751   3.763   2.939   7.748
 7102SOL    HW121752   3.862   2.928   7.739
 7102SOL    HW221753   3.723   2.853   7.780
 7103SOL     OW21754   3.954   2.490   9.423
 7103SOL    HW121755   3.861   2.488   9.460
 7103SOL    HW221756   3.955   2.451   9.331
 7104SOL     OW21757   3.949   2.137  10.306
 7104SOL    HW121758   3.984   2.120  10.398
 7104SOL    HW221759   3.861   2.092  10.294
 7105SOL     OW21760   3.743   2.230   9.957
 7105SOL    HW121761   3.661   2.273   9.996
 7105SOL    HW221762   3.715   2.157   9.894
 7106SOL     OW21763   4.059   3.297  10.371
 7106SOL    HW121764   3.981   3.266  10.318
 7106SOL    HW221765   4.117   3.355  10.314
 7107SOL     OW21766   3.955   3.575   9.793
 7107SOL    HW121767   3.989   3.652   9.847
 7107SOL    HW221768   3.999   3.575   9.703
 7108SOL     OW21769   3.954   3.296   9.848
 7108SOL    HW121770   3.928   3.392   9.848
 7108SOL    HW221771   3.883   3.242   9.893
 7109SOL     OW21772   3.846   2.505   9.873
 7109SOL    HW121773   3.801   2.417   9.890
 7109SOL    HW221774   3.845   2.559   9.957
 7110SOL     OW21775   3.751   3.458   9.427
 7110SOL    HW121776   3.732   3.362   9.448
 7110SOL    HW221777   3.718   3.516   9.502
 7111SOL     OW21778   3.837   2.599  10.907
 7111SOL    HW121779   3.925   2.586  10.952
 7111SOL    HW221780   3.824   2.696  10.885
 7112SOL     OW21781   3.800   2.673  10.099
 7112SOL    HW121782   3.899   2.661  10.108
 7112SOL    HW221783   3.776   2.768  10.120
 7113SOL     OW21784   3.854   3.683  10.881
 7113SOL    HW121785   3.844   3.668  10.980
 7113SOL    HW221786   3.768   3.719  10.845
 7114SOL     OW21787   3.926   2.147  10.808
 7114SOL    HW121788   3.846   2.207  10.795
 7114SOL    HW221789   3.916   2.098  10.894
 7115SOL     OW21790   4.021   1.897   9.481
 7115SOL    HW121791   4.070   1.981   9.460
 7115SOL    HW221792   4.083   1.832   9.526
 7116SOL     OW21793   3.802   2.418  10.696
 7116SOL    HW121794   3.894   2.417  10.655
 7116SOL    HW221795   3.796   2.492  10.763
 7117SOL     OW21796   4.251   2.118   9.638
 7117SOL    HW121797   4.278   2.059   9.563
 7117SOL    HW221798   4.251   2.213   9.607
 7118SOL     OW21799   3.788   3.426  10.641
 7118SOL    HW121800   3.742   3.508  10.607
 7118SOL    HW221801   3.886   3.445  10.650
 7119SOL     OW21802   4.091   2.962   9.811
 7119SOL    HW121803   4.084   3.045   9.755
 7119SOL    HW221804   4.095   2.882   9.751
 7120SOL     OW21805   4.031   2.075  10.541
 7120SOL    HW121806   4.008   2.112  10.631
 7120SOL    HW221807   4.001   1.980  10.535
 7121SOL     OW21808   3.761   3.172  10.592
 7121SOL    HW121809   3.814   3.123  10.660
 7121SOL    HW221810   3.783   3.270  10.597
 7122SOL     OW21811   4.031   1.925   9.928
 7122SOL    HW121812   4.020   2.019   9.961
 7122SOL    HW221813   4.026   1.862  10.005
 7123SOL     OW21814   3.732   3.188   9.510
 7123SOL    HW121815   3.639   3.209   9.479
 7123SOL    HW221816   3.742   3.089   9.523
 7124SOL     OW21817   3.812   3.663  10.237
 7124SOL    HW121818   3.770   3.577  10.210
 7124SOL    HW221819   3.906   3.666  10.203
 7125SOL     OW21820   4.228   3.430  10.220
 7125SOL    HW121821   4.294   3.504  10.229
 7125SOL    HW221822   4.272   3.351  10.178
 7126SOL     OW21823   3.764   2.406  10.424
 7126SOL    HW121824   3.849   2.373  10.383
 7126SOL    HW221825   3.777   2.421  10.522
 7127SOL     OW21826   3.913   2.382  11.032
 7127SOL    HW121827   3.972   2.342  10.962
 7127SOL    HW221828   3.855   2.453  10.991
 7128SOL     OW21829   3.976   3.426  11.054
 7128SOL    HW121830   3.946   3.483  11.130
 7128SOL    HW221831   3.969   3.329  11.080
 7129SOL     OW21832   3.883   2.999  10.776
 7129SOL    HW121833   3.905   2.938  10.852
 7129SOL    HW221834   3.893   2.950  10.690
 7130SOL     OW21835   3.807   3.120  10.332
 7130SOL    HW121836   3.802   3.119  10.432
 7130SOL    HW221837   3.724   3.079  10.294
 7131SOL     OW21838   3.854   3.656  11.161
 7131SOL    HW121839   3.813   3.582  11.214
 7131SOL    HW221840   3.918   3.707  11.219
 7132SOL     OW21841   3.799   2.207   9.343
 7132SOL    HW121842   3.707   2.179   9.314
 7132SOL    HW221843   3.830   2.284   9.287
 7133SOL     OW21844   3.796   2.028   9.628
 7133SOL    HW121845   3.779   2.111   9.574
 7133SOL    HW221846   3.886   1.991   9.606
 7134SOL     OW21847   3.803   3.102   9.963
 7134SOL    HW121848   3.802   3.055  10.051
 7134SOL    HW221849   3.885   3.074   9.912
 7135SOL     OW21850   3.763   2.939   9.610
 7135SOL    HW121851   3.862   2.928   9.601
 7135SOL    HW221852   3.723   2.853   9.642
 7136SOL     OW21853   3.954   2.490  11.285
 7136SOL    HW121854   3.861   2.488  11.322
 7136SOL    HW221855   3.955   2.451  11.193
 7137SOL     OW21856   3.949   2.137  12.168
 7137SOL    HW121857   3.984   2.120  12.260
 7137SOL    HW221858   3.861   2.092  12.156
 7138SOL     OW21859   3.743   2.230  11.819
 7138SOL    HW121860   3.661   2.273  11.858
 7138SOL    HW221861   3.715   2.157  11.756
 7139SOL     OW21862   4.059   3.297  12.233
 7139SOL    HW121863   3.981   3.266  12.180
 7139SOL    HW221864   4.117   3.355  12.176
 7140SOL     OW21865   3.955   3.575  11.655
 7140SOL    HW121866   3.989   3.652  11.709
 7140SOL    HW221867   3.999   3.575  11.565
 7141SOL     OW21868   3.954   3.296  11.710
 7141SOL    HW121869   3.928   3.392  11.710
 7141SOL    HW221870   3.883   3.242  11.755
 7142SOL     OW21871   3.846   2.505  11.735
 7142SOL    HW121872   3.801   2.417  11.752
 7142SOL    HW221873   3.845   2.559  11.819
 7143SOL     OW21874   3.751   3.458  11.289
 7143SOL    HW121875   3.732   3.362  11.310
 7143SOL    HW221876   3.718   3.516  11.364
 7144SOL     OW21877   3.837   2.599  12.769
 7144SOL    HW121878   3.925   2.586  12.814
 7144SOL    HW221879   3.824   2.696  12.747
 7145SOL     OW21880   3.800   2.673  11.961
 7145SOL    HW121881   3.899   2.661  11.970
 7145SOL    HW221882   3.776   2.768  11.982
 7146SOL     OW21883   3.854   3.683  12.743
 7146SOL    HW121884   3.844   3.668  12.842
 7146SOL    HW221885   3.768   3.719  12.707
 7147SOL     OW21886   3.926   2.147  12.670
 7147SOL    HW121887   3.846   2.207  12.657
 7147SOL    HW221888   3.916   2.098  12.756
 7148SOL     OW21889   4.021   1.897  11.343
 7148SOL    HW121890   4.070   1.981  11.322
 7148SOL    HW221891   4.083   1.832  11.388
 7149SOL     OW21892   3.802   2.418  12.558
 7149SOL    HW121893   3.894   2.417  12.517
 7149SOL    HW221894   3.796   2.492  12.625
 7150SOL     OW21895   4.251   2.118  11.500
 7150SOL    HW121896   4.278   2.059  11.425
 7150SOL    HW221897   4.251   2.213  11.469
 7151SOL     OW21898   3.788   3.426  12.503
 7151SOL    HW121899   3.742   3.508  12.469
 7151SOL    HW221900   3.886   3.445  12.512
 7152SOL     OW21901   4.091   2.962  11.673
 7152SOL    HW121902   4.084   3.045  11.617
 7152SOL    HW221903   4.095   2.882  11.613
 7153SOL     OW21904   4.031   2.075  12.403
 7153SOL    HW121905   4.008   2.112  12.493
 7153SOL    HW221906   4.001   1.980  12.397
 7154SOL     OW21907   3.761   3.172  12.454
 7154SOL    HW121908   3.814   3.123  12.522
 7154SOL    HW221909   3.783   3.270  12.459
 7155SOL     OW21910   4.031   1.925  11.790
 7155SOL    HW121911   4.020   2.019  11.823
 7155SOL    HW221912   4.026   1.862  11.867
 7156SOL     OW21913   3.732   3.188  11.372
 7156SOL    HW121914   3.639   3.209  11.341
 7156SOL    HW221915   3.742   3.089  11.385
 7157SOL     OW21916   3.812   3.663  12.099
 7157SOL    HW121917   3.770   3.577  12.072
 7157SOL    HW221918   3.906   3.666  12.065
 7158SOL     OW21919   4.228   3.430  12.082
 7158SOL    HW121920   4.294   3.504  12.091
 7158SOL    HW221921   4.272   3.351  12.040
 7159SOL     OW21922   3.764   2.406  12.286
 7159SOL    HW121923   3.849   2.373  12.245
 7159SOL    HW221924   3.777   2.421  12.384
 7160SOL     OW21925   3.913   2.382  12.894
 7160SOL    HW121926   3.972   2.342  12.824
 7160SOL    HW221927   3.855   2.453  12.853
 7161SOL     OW21928   3.976   3.426  12.916
 7161SOL    HW121929   3.946   3.483  12.992
 7161SOL    HW221930   3.969   3.329  12.942
 7162SOL     OW21931   3.883   2.999  12.638
 7162SOL    HW121932   3.905   2.938  12.714
 7162SOL    HW221933   3.893   2.950  12.552
 7163SOL     OW21934   3.807   3.120  12.194
 7163SOL    HW121935   3.802   3.119  12.294
 7163SOL    HW221936   3.724   3.079  12.156
 7164SOL     OW21937   3.854   3.656  13.023
 7164SOL    HW121938   3.813   3.582  13.076
 7164SOL    HW221939   3.918   3.707  13.081
 7165SOL     OW21940   3.799   2.207  11.205
 7165SOL    HW121941   3.707   2.179  11.176
 7165SOL    HW221942   3.830   2.284  11.149
 7166SOL     OW21943   3.796   2.028  11.490
 7166SOL    HW121944   3.779   2.111  11.436
 7166SOL    HW221945   3.886   1.991  11.468
 7167SOL     OW21946   3.803   3.102  11.825
 7167SOL    HW121947   3.802   3.055  11.913
 7167SOL    HW221948   3.885   3.074  11.774
 7168SOL     OW21949   3.763   2.939  11.472
 7168SOL    HW121950   3.862   2.928  11.463
 7168SOL    HW221951   3.723   2.853  11.504
 7169SOL     OW21952   3.954   2.490  13.147
 7169SOL    HW121953   3.861   2.488  13.184
 7169SOL    HW221954   3.955   2.451  13.055
 7170SOL     OW21955   3.743   2.230  13.681
 7170SOL    HW121956   3.661   2.273  13.720
 7170SOL    HW221957   3.715   2.157  13.618
 7171SOL     OW21958   3.955   3.575  13.517
 7171SOL    HW121959   3.989   3.652  13.571
 7171SOL    HW221960   3.999   3.575  13.427
 7172SOL     OW21961   3.954   3.296  13.572
 7172SOL    HW121962   3.928   3.392  13.572
 7172SOL    HW221963   3.883   3.242  13.617
 7173SOL     OW21964   3.964   2.953  13.920
 7173SOL    HW121965   3.978   2.869  13.972
 7173SOL    HW221966   3.909   3.017  13.975
 7174SOL     OW21967   3.846   2.505  13.597
 7174SOL    HW121968   3.801   2.417  13.614
 7174SOL    HW221969   3.845   2.559  13.681
 7175SOL     OW21970   3.751   3.458  13.151
 7175SOL    HW121971   3.732   3.362  13.172
 7175SOL    HW221972   3.718   3.516  13.226
 7176SOL     OW21973   3.800   2.673  13.823
 7176SOL    HW121974   3.899   2.661  13.832
 7176SOL    HW221975   3.776   2.768  13.844
 7177SOL     OW21976   4.075   3.663  13.887
 7177SOL    HW121977   4.125   3.577  13.893
 7177SOL    HW221978   4.140   3.740  13.884
 7178SOL     OW21979   4.021   1.897  13.205
 7178SOL    HW121980   4.070   1.981  13.184
 7178SOL    HW221981   4.083   1.832  13.250
 7179SOL     OW21982   4.251   2.118  13.362
 7179SOL    HW121983   4.278   2.059  13.287
 7179SOL    HW221984   4.251   2.213  13.331
 7180SOL     OW21985   4.091   2.962  13.535
 7180SOL    HW121986   4.084   3.045  13.479
 7180SOL    HW221987   4.095   2.882  13.475
 7181SOL     OW21988   4.031   1.925  13.652
 7181SOL    HW121989   4.020   2.019  13.685
 7181SOL    HW221990   4.026   1.862  13.729
 7182SOL     OW21991   3.732   3.188  13.234
 7182SOL    HW121992   3.639   3.209  13.203
 7182SOL    HW221993   3.742   3.089  13.247
 7183SOL     OW21994   4.228   3.430  13.944
 7183SOL    HW121995   4.294   3.504  13.953
 7183SOL    HW221996   4.272   3.351  13.902
 7184SOL     OW21997   3.799   2.207  13.067
 7184SOL    HW121998   3.707   2.179  13.038
 7184SOL    HW221999   3.830   2.284  13.011
 7185SOL     OW22000   3.796   2.028  13.352
 7185SOL    HW122001   3.779   2.111  13.298
 7185SOL    HW222002   3.886   1.991  13.330
 7186SOL     OW22003   3.803   3.102  13.687
 7186SOL    HW122004   3.802   3.055  13.775
 7186SOL    HW222005   3.885   3.074  13.636
 7187SOL     OW22006   3.763   2.939  13.334
 7187SOL    HW122007   3.862   2.928  13.325
 7187SOL    HW222008   3.723   2.853  13.366
 7188SOL     OW22009   3.949   3.999   0.996
 7188SOL    HW122010   3.984   3.982   1.088
 7188SOL    HW222011   3.861   3.954   0.984
 7189SOL     OW22012   3.743   4.092   0.647
 7189SOL    HW122013   3.661   4.135   0.686
 7189SOL    HW222014   3.715   4.019   0.584
 7190SOL     OW22015   3.926   4.009   1.498
 7190SOL    HW122016   3.846   4.069   1.485
 7190SOL    HW222017   3.916   3.960   1.584
 7191SOL     OW22018   4.021   3.759   0.171
 7191SOL    HW122019   4.070   3.843   0.150
 7191SOL    HW222020   4.083   3.694   0.216
 7192SOL     OW22021   4.031   3.937   1.231
 7192SOL    HW122022   4.008   3.974   1.321
 7192SOL    HW222023   4.001   3.842   1.225
 7193SOL     OW22024   4.031   3.787   0.618
 7193SOL    HW122025   4.020   3.881   0.651
 7193SOL    HW222026   4.026   3.724   0.695
 7194SOL     OW22027   3.796   3.890   0.318
 7194SOL    HW122028   3.779   3.973   0.264
 7194SOL    HW222029   3.886   3.853   0.296
 7195SOL     OW22030   3.949   3.999   2.858
 7195SOL    HW122031   3.984   3.982   2.950
 7195SOL    HW222032   3.861   3.954   2.846
 7196SOL     OW22033   3.743   4.092   2.509
 7196SOL    HW122034   3.661   4.135   2.548
 7196SOL    HW222035   3.715   4.019   2.446
 7197SOL     OW22036   3.926   4.009   3.360
 7197SOL    HW122037   3.846   4.069   3.347
 7197SOL    HW222038   3.916   3.960   3.446
 7198SOL     OW22039   4.021   3.759   2.033
 7198SOL    HW122040   4.070   3.843   2.012
 7198SOL    HW222041   4.083   3.694   2.078
 7199SOL     OW22042   4.031   3.937   3.093
 7199SOL    HW122043   4.008   3.974   3.183
 7199SOL    HW222044   4.001   3.842   3.087
 7200SOL     OW22045   4.031   3.787   2.480
 7200SOL    HW122046   4.020   3.881   2.513
 7200SOL    HW222047   4.026   3.724   2.557
 7201SOL     OW22048   3.799   4.069   1.895
 7201SOL    HW122049   3.707   4.041   1.866
 7201SOL    HW222050   3.830   4.146   1.839
 7202SOL     OW22051   3.796   3.890   2.180
 7202SOL    HW122052   3.779   3.973   2.126
 7202SOL    HW222053   3.886   3.853   2.158
 7203SOL     OW22054   3.949   3.999   4.720
 7203SOL    HW122055   3.984   3.982   4.812
 7203SOL    HW222056   3.861   3.954   4.708
 7204SOL     OW22057   3.743   4.092   4.371
 7204SOL    HW122058   3.661   4.135   4.410
 7204SOL    HW222059   3.715   4.019   4.308
 7205SOL     OW22060   3.926   4.009   5.222
 7205SOL    HW122061   3.846   4.069   5.209
 7205SOL    HW222062   3.916   3.960   5.308
 7206SOL     OW22063   4.021   3.759   3.895
 7206SOL    HW122064   4.070   3.843   3.874
 7206SOL    HW222065   4.083   3.694   3.940
 7207SOL     OW22066   4.031   3.937   4.955
 7207SOL    HW122067   4.008   3.974   5.045
 7207SOL    HW222068   4.001   3.842   4.949
 7208SOL     OW22069   4.031   3.787   4.342
 7208SOL    HW122070   4.020   3.881   4.375
 7208SOL    HW222071   4.026   3.724   4.419
 7209SOL     OW22072   3.799   4.069   3.757
 7209SOL    HW122073   3.707   4.041   3.728
 7209SOL    HW222074   3.830   4.146   3.701
 7210SOL     OW22075   3.796   3.890   4.042
 7210SOL    HW122076   3.779   3.973   3.988
 7210SOL    HW222077   3.886   3.853   4.020
 7211SOL     OW22078   3.949   3.999   6.582
 7211SOL    HW122079   3.984   3.982   6.674
 7211SOL    HW222080   3.861   3.954   6.570
 7212SOL     OW22081   3.743   4.092   6.233
 7212SOL    HW122082   3.661   4.135   6.272
 7212SOL    HW222083   3.715   4.019   6.170
 7213SOL     OW22084   3.926   4.009   7.084
 7213SOL    HW122085   3.846   4.069   7.071
 7213SOL    HW222086   3.916   3.960   7.170
 7214SOL     OW22087   4.021   3.759   5.757
 7214SOL    HW122088   4.070   3.843   5.736
 7214SOL    HW222089   4.083   3.694   5.802
 7215SOL     OW22090   4.031   3.937   6.817
 7215SOL    HW122091   4.008   3.974   6.907
 7215SOL    HW222092   4.001   3.842   6.811
 7216SOL     OW22093   4.031   3.787   6.204
 7216SOL    HW122094   4.020   3.881   6.237
 7216SOL    HW222095   4.026   3.724   6.281
 7217SOL     OW22096   3.799   4.069   5.619
 7217SOL    HW122097   3.707   4.041   5.590
 7217SOL    HW222098   3.830   4.146   5.563
 7218SOL     OW22099   3.796   3.890   5.904
 7218SOL    HW122100   3.779   3.973   5.850
 7218SOL    HW222101   3.886   3.853   5.882
 7219SOL     OW22102   3.949   3.999   8.444
 7219SOL    HW122103   3.984   3.982   8.536
 7219SOL    HW222104   3.861   3.954   8.432
 7220SOL     OW22105   3.743   4.092   8.095
 7220SOL    HW122106   3.661   4.135   8.134
 7220SOL    HW222107   3.715   4.019   8.032
 7221SOL     OW22108   3.926   4.009   8.946
 7221SOL    HW122109   3.846   4.069   8.933
 7221SOL    HW222110   3.916   3.960   9.032
 7222SOL     OW22111   4.021   3.759   7.619
 7222SOL    HW122112   4.070   3.843   7.598
 7222SOL    HW222113   4.083   3.694   7.664
 7223SOL     OW22114   4.031   3.937   8.679
 7223SOL    HW122115   4.008   3.974   8.769
 7223SOL    HW222116   4.001   3.842   8.673
 7224SOL     OW22117   4.031   3.787   8.066
 7224SOL    HW122118   4.020   3.881   8.099
 7224SOL    HW222119   4.026   3.724   8.143
 7225SOL     OW22120   3.799   4.069   7.481
 7225SOL    HW122121   3.707   4.041   7.452
 7225SOL    HW222122   3.830   4.146   7.425
 7226SOL     OW22123   3.796   3.890   7.766
 7226SOL    HW122124   3.779   3.973   7.712
 7226SOL    HW222125   3.886   3.853   7.744
 7227SOL     OW22126   3.949   3.999  10.306
 7227SOL    HW122127   3.984   3.982  10.398
 7227SOL    HW222128   3.861   3.954  10.294
 7228SOL     OW22129   3.743   4.092   9.957
 7228SOL    HW122130   3.661   4.135   9.996
 7228SOL    HW222131   3.715   4.019   9.894
 7229SOL     OW22132   3.926   4.009  10.808
 7229SOL    HW122133   3.846   4.069  10.795
 7229SOL    HW222134   3.916   3.960  10.894
 7230SOL     OW22135   4.021   3.759   9.481
 7230SOL    HW122136   4.070   3.843   9.460
 7230SOL    HW222137   4.083   3.694   9.526
 7231SOL     OW22138   4.031   3.937  10.541
 7231SOL    HW122139   4.008   3.974  10.631
 7231SOL    HW222140   4.001   3.842  10.535
 7232SOL     OW22141   4.031   3.787   9.928
 7232SOL    HW122142   4.020   3.881   9.961
 7232SOL    HW222143   4.026   3.724  10.005
 7233SOL     OW22144   3.799   4.069   9.343
 7233SOL    HW122145   3.707   4.041   9.314
 7233SOL    HW222146   3.830   4.146   9.287
 7234SOL     OW22147   3.796   3.890   9.628
 7234SOL    HW122148   3.779   3.973   9.574
 7234SOL    HW222149   3.886   3.853   9.606
 7235SOL     OW22150   3.949   3.999  12.168
 7235SOL    HW122151   3.984   3.982  12.260
 7235SOL    HW222152   3.861   3.954  12.156
 7236SOL     OW22153   3.743   4.092  11.819
 7236SOL    HW122154   3.661   4.135  11.858
 7236SOL    HW222155   3.715   4.019  11.756
 7237SOL     OW22156   3.926   4.009  12.670
 7237SOL    HW122157   3.846   4.069  12.657
 7237SOL    HW222158   3.916   3.960  12.756
 7238SOL     OW22159   4.021   3.759  11.343
 7238SOL    HW122160   4.070   3.843  11.322
 7238SOL    HW222161   4.083   3.694  11.388
 7239SOL     OW22162   4.031   3.937  12.403
 7239SOL    HW122163   4.008   3.974  12.493
 7239SOL    HW222164   4.001   3.842  12.397
 7240SOL     OW22165   4.031   3.787  11.790
 7240SOL    HW122166   4.020   3.881  11.823
 7240SOL    HW222167   4.026   3.724  11.867
 7241SOL     OW22168   3.799   4.069  11.205
 7241SOL    HW122169   3.707   4.041  11.176
 7241SOL    HW222170   3.830   4.146  11.149
 7242SOL     OW22171   3.796   3.890  11.490
 7242SOL    HW122172   3.779   3.973  11.436
 7242SOL    HW222173   3.886   3.853  11.468
 7243SOL     OW22174   3.743   4.092  13.681
 7243SOL    HW122175   3.661   4.135  13.720
 7243SOL    HW222176   3.715   4.019  13.618
 7244SOL     OW22177   4.021   3.759  13.205
 7244SOL    HW122178   4.070   3.843  13.184
 7244SOL    HW222179   4.083   3.694  13.250
 7245SOL     OW22180   4.031   3.787  13.652
 7245SOL    HW122181   4.020   3.881  13.685
 7245SOL    HW222182   4.026   3.724  13.729
 7246SOL     OW22183   3.799   4.069  13.067
 7246SOL    HW122184   3.707   4.041  13.038
 7246SOL    HW222185   3.830   4.146  13.011
 7247SOL     OW22186   3.796   3.890  13.352
 7247SOL    HW122187   3.779   3.973  13.298
 7247SOL    HW222188   3.886   3.853  13.330
   4.00000   4.00000  13.90000
