2aCDOC_1PEG_l11
21954
    1LIG      O    1   2.213   2.278   0.025
    1LIG      C    2   2.295   2.293   0.149
    1LIG     C1    3   2.222   2.238   0.280
    1LIG     O1    4   2.282   2.289   0.405
    1LIG     C2    5   2.222   2.234   0.528
    1LIG     C3    6   2.296   2.281   0.661
    1LIG     O2    7   2.234   2.222   0.780
    1LIG     C4    8   2.289   2.274   0.906
    1LIG     C5    9   2.209   2.221   1.032
    1LIG     O3   10   2.268   2.272   1.156
    1LIG     C6   11   2.210   2.220   1.280
    1LIG     C7   12   2.286   2.279   1.404
    1LIG     O4   13   2.217   2.244   1.527
    1LIG     C8   14   2.293   2.276   1.647
    1LIG     C9   15   2.217   2.225   1.774
    1LIG     O5   16   2.282   2.272   1.894
    1LIG    C10   17   2.222   2.221   2.016
    1LIG    C11   18   2.298   2.275   2.142
    1LIG     O6   19   2.244   2.215   2.263
    1LIG    C12   20   2.293   2.280   2.383
    1LIG    C13   21   2.216   2.227   2.509
    1LIG     O7   22   2.285   2.271   2.630
    1LIG    C14   23   2.213   2.245   2.754
    1LIG    C15   24   2.296   2.301   2.876
    1LIG     O8   25   2.246   2.248   3.003
    1LIG    C16   26   2.306   2.302   3.123
    1LIG    C17   27   2.234   2.240   3.247
    1LIG     O9   28   2.281   2.300   3.370
    1LIG    C18   29   2.223   2.240   3.489
    1LIG    C19   30   2.298   2.288   3.618
    1LIG    O10   31   2.231   2.240   3.737
    1LIG    C20   32   2.296   2.287   3.859
    1LIG    C21   33   2.217   2.237   3.985
    1LIG    O11   34   2.274   2.288   4.109
    1LIG    C22   35   2.209   2.232   4.227
    1LIG    C23   36   2.284   2.276   4.357
    1LIG    O12   37   2.217   2.224   4.476
    1LIG    C24   38   2.283   2.270   4.598
    1LIG    C25   39   2.206   2.232   4.729
    1LIG    O13   40   2.275   2.288   4.844
    1LIG    C26   41   2.228   2.242   4.974
    1LIG    C27   42   2.322   2.294   5.089
    1LIG    O14   43   2.300   2.219   5.212
    1LIG    C28   44   2.324   2.295   5.335
    1LIG    C29   45   2.239   2.236   5.454
    1LIG    O15   46   2.292   2.279   5.582
    1LIG    C30   47   2.219   2.228   5.697
    1LIG    C31   48   2.287   2.282   5.827
    1LIG    O16   49   2.219   2.235   5.947
    1LIG    C32   50   2.280   2.283   6.070
    1LIG    C33   51   2.201   2.229   6.194
    1LIG    O17   52   2.244   2.291   6.319
    1LIG    C34   53   2.179   2.228   6.435
    1LIG    C35   54   2.236   2.287   6.570
    1LIG    O18   55   2.176   2.239   6.691
    1LIG    C36   56   2.248   2.291   6.806
    1LIG    C37   57   2.198   2.222   6.936
    1LIG    O19   58   2.256   2.287   7.052
    1LIG    C38   59   2.209   2.226   7.175
    1LIG    C39   60   2.290   2.278   7.297
    1LIG    O20   61   2.228   2.232   7.420
    1LIG    C40   62   2.295   2.282   7.540
    1LIG    C41   63   2.219   2.232   7.666
    1LIG    O21   64   2.285   2.272   7.788
    1LIG    C42   65   2.214   2.229   7.906
    1LIG    C43   66   2.287   2.281   8.034
    1LIG    O22   67   2.232   2.218   8.153
    1LIG    C44   68   2.286   2.276   8.274
    1LIG    C45   69   2.210   2.221   8.400
    1LIG    O23   70   2.269   2.276   8.521
    1LIG    C46   71   2.215   2.220   8.643
    1LIG    C47   72   2.291   2.280   8.767
    1LIG    O24   73   2.219   2.250   8.890
    1LIG    C48   74   2.296   2.282   9.010
    1LIG    C49   75   2.224   2.227   9.137
    1LIG    O25   76   2.292   2.272   9.257
    1LIG    C50   77   2.231   2.227   9.381
    1LIG    C51   78   2.307   2.279   9.507
    1LIG    O26   79   2.247   2.225   9.628
    1LIG    C52   80   2.293   2.287   9.752
    1LIG    C53   81   2.211   2.232   9.874
    1LIG    O27   82   2.271   2.269  10.002
    1LIG    C54   83   2.205   2.219  10.123
    1LIG    C55   84   2.278   2.274  10.252
    1LIG    O28   85   2.214   2.235  10.379
    1LIG    C56   86   2.276   2.290  10.500
    1LIG    C57   87   2.213   2.223  10.629
    1LIG    O29   88   2.262   2.278  10.757
    1LIG    C58   89   2.197   2.216  10.875
    1LIG    C59   90   2.283   2.216  11.010
    1LIG      H   91   2.316   2.399   0.163
    1LIG     H1   92   2.391   2.242   0.137
    1LIG     H2   93   2.230   2.129   0.281
    1LIG     H3   94   2.116   2.265   0.278
    1LIG     H4   95   2.227   2.125   0.523
    1LIG     H5   96   2.116   2.263   0.533
    1LIG     H6   97   2.290   2.390   0.669
    1LIG     H7   98   2.401   2.252   0.657
    1LIG     H8   99   2.284   2.384   0.906
    1LIG     H9  100   2.394   2.245   0.916
    1LIG    H10  101   2.211   2.111   1.033
    1LIG    H11  102   2.104   2.253   1.026
    1LIG    H12  103   2.218   2.111   1.281
    1LIG    H13  104   2.104   2.248   1.284
    1LIG    H14  105   2.291   2.389   1.396
    1LIG    H15  106   2.388   2.240   1.407
    1LIG    H16  107   2.307   2.384   1.655
    1LIG    H17  108   2.392   2.229   1.643
    1LIG    H18  109   2.215   2.115   1.773
    1LIG    H19  110   2.114   2.263   1.770
    1LIG    H20  111   2.225   2.112   2.016
    1LIG    H21  112   2.118   2.254   2.023
    1LIG    H22  113   2.286   2.384   2.146
    1LIG    H23  114   2.405   2.252   2.134
    1LIG    H24  115   2.280   2.388   2.376
    1LIG    H25  116   2.400   2.258   2.394
    1LIG    H26  117   2.213   2.118   2.507
    1LIG    H27  118   2.114   2.266   2.508
    1LIG    H28  119   2.199   2.137   2.764
    1LIG    H29  120   2.115   2.293   2.750
    1LIG    H30  121   2.289   2.410   2.877
    1LIG    H31  122   2.401   2.272   2.866
    1LIG    H32  123   2.294   2.411   3.125
    1LIG    H33  124   2.413   2.278   3.126
    1LIG    H34  125   2.251   2.131   3.249
    1LIG    H35  126   2.127   2.258   3.237
    1LIG    H36  127   2.230   2.130   3.483
    1LIG    H37  128   2.117   2.267   3.496
    1LIG    H38  129   2.300   2.398   3.619
    1LIG    H39  130   2.401   2.250   3.616
    1LIG    H40  131   2.299   2.396   3.859
    1LIG    H41  132   2.399   2.249   3.863
    1LIG    H42  133   2.220   2.128   3.987
    1LIG    H43  134   2.112   2.268   3.978
    1LIG    H44  135   2.212   2.123   4.219
    1LIG    H45  136   2.105   2.264   4.229
    1LIG    H46  137   2.286   2.385   4.362
    1LIG    H47  138   2.387   2.239   4.354
    1LIG    H48  139   2.291   2.378   4.594
    1LIG    H49  140   2.384   2.227   4.602
    1LIG    H50  141   2.201   2.123   4.738
    1LIG    H51  142   2.103   2.270   4.724
    1LIG    H52  143   2.227   2.133   4.975
    1LIG    H53  144   2.126   2.277   4.990
    1LIG    H54  145   2.302   2.401   5.104
    1LIG    H55  146   2.426   2.281   5.060
    1LIG    H56  147   2.297   2.400   5.321
    1LIG    H57  148   2.431   2.290   5.360
    1LIG    H58  149   2.239   2.126   5.449
    1LIG    H59  150   2.135   2.271   5.446
    1LIG    H60  151   2.221   2.118   5.697
    1LIG    H61  152   2.114   2.261   5.693
    1LIG    H62  153   2.284   2.392   5.825
    1LIG    H63  154   2.391   2.250   5.829
    1LIG    H64  155   2.279   2.392   6.069
    1LIG    H65  156   2.384   2.250   6.074
    1LIG    H66  157   2.214   2.121   6.201
    1LIG    H67  158   2.094   2.249   6.181
    1LIG    H68  159   2.198   2.121   6.432
    1LIG    H69  160   2.071   2.244   6.430
    1LIG    H70  161   2.228   2.396   6.567
    1LIG    H71  162   2.341   2.262   6.579
    1LIG    H72  163   2.232   2.400   6.813
    1LIG    H73  164   2.356   2.275   6.795
    1LIG    H74  165   2.226   2.116   6.934
    1LIG    H75  166   2.089   2.230   6.940
    1LIG    H76  167   2.220   2.117   7.169
    1LIG    H77  168   2.102   2.249   7.188
    1LIG    H78  169   2.291   2.388   7.297
    1LIG    H79  170   2.393   2.242   7.292
    1LIG    H80  171   2.296   2.392   7.538
    1LIG    H81  172   2.399   2.247   7.541
    1LIG    H82  173   2.216   2.122   7.663
    1LIG    H83  174   2.116   2.269   7.665
    1LIG    H84  175   2.210   2.120   7.907
    1LIG    H85  176   2.111   2.267   7.904
    1LIG    H86  177   2.276   2.390   8.040
    1LIG    H87  178   2.394   2.256   8.026
    1LIG    H88  179   2.276   2.385   8.271
    1LIG    H89  180   2.393   2.251   8.282
    1LIG    H90  181   2.218   2.111   8.402
    1LIG    H91  182   2.104   2.249   8.394
    1LIG    H92  183   2.227   2.111   8.643
    1LIG    H93  184   2.109   2.244   8.650
    1LIG    H94  185   2.297   2.389   8.756
    1LIG    H95  186   2.393   2.241   8.770
    1LIG    H96  187   2.306   2.390   9.017
    1LIG    H97  188   2.397   2.240   9.003
    1LIG    H98  189   2.222   2.117   9.134
    1LIG    H99  190   2.120   2.263   9.139
    1LIG   H100  191   2.228   2.117   9.381
    1LIG   H101  192   2.128   2.265   9.385
    1LIG   H102  193   2.302   2.388   9.509
    1LIG   H103  194   2.413   2.249   9.502
    1LIG   H104  195   2.282   2.396   9.745
    1LIG   H105  196   2.399   2.264   9.765
    1LIG   H106  197   2.209   2.124   9.865
    1LIG   H107  198   2.108   2.269   9.869
    1LIG   H108  199   2.208   2.109  10.123
    1LIG   H109  200   2.100   2.250  10.123
    1LIG   H110  201   2.281   2.384  10.247
    1LIG   H111  202   2.381   2.236  10.253
    1LIG   H112  203   2.261   2.399  10.502
    1LIG   H113  204   2.384   2.271  10.498
    1LIG   H114  205   2.234   2.116  10.626
    1LIG   H115  206   2.104   2.237  10.625
    1LIG   H116  207   2.177   2.111  10.850
    1LIG   H117  208   2.100   2.264  10.892
    1LIG   H118  209   2.380   2.263  10.993
    1LIG   H119  210   2.302   2.111  11.036
    2MOL     C1  211   2.598   1.834   5.054
    2MOL     H1  212   2.606   1.726   5.038
    2MOL     O1  213   2.636   1.904   4.935
    2MOL     C2  214   2.633   2.050   4.938
    2MOL     H2  215   2.530   2.085   4.950
    2MOL     C3  216   2.691   2.102   4.805
    2MOL     H3  217   2.797   2.076   4.798
    2MOL     H4  218   2.682   2.211   4.802
    2MOL     O2  219   2.619   2.046   4.695
    2MOL     C4  220   2.667   2.090   4.568
    2MOL     C5  221   2.694   1.876   5.168
    2MOL     H5  222   2.796   1.847   5.141
    2MOL     O3  223   2.657   1.812   5.292
    2MOL     C6  224   2.695   1.674   5.303
    2MOL     C7  225   2.691   2.029   5.189
    2MOL     H6  226   2.592   2.059   5.224
    2MOL     O4  227   2.795   2.065   5.283
    2MOL     C8  228   2.745   2.098   5.413
    2MOL     C9  229   2.719   2.103   5.057
    2MOL     H7  230   2.826   2.092   5.033
    2MOL     O5  231   2.684   2.242   5.080
    2MOL    C10  232   2.785   2.341   5.048
    2MOL     H8  233   2.883   2.294   5.039
    2MOL     O6  234   2.748   2.406   4.925
    2MOL    C11  235   2.615   2.466   4.926
    2MOL     H9  236   2.539   2.390   4.946
    2MOL    C12  237   2.583   2.523   4.788
    2MOL    H10  238   2.661   2.593   4.756
    2MOL    H11  239   2.488   2.578   4.791
    2MOL     O7  240   2.571   2.415   4.696
    2MOL    C13  241   2.541   2.461   4.564
    2MOL    C14  242   2.790   2.449   5.160
    2MOL    H12  243   2.867   2.523   5.134
    2MOL     O8  244   2.821   2.389   5.287
    2MOL    C15  245   2.957   2.347   5.304
    2MOL    C16  246   2.654   2.523   5.172
    2MOL    H13  247   2.579   2.453   5.210
    2MOL     O9  248   2.669   2.638   5.258
    2MOL    C17  249   2.630   2.618   5.395
    2MOL    C18  250   2.608   2.576   5.035
    2MOL    H14  251   2.673   2.659   5.005
    2MOL    O10  252   2.471   2.619   5.051
    2MOL    C19  253   2.441   2.754   5.009
    2MOL    H15  254   2.533   2.809   4.983
    2MOL    O11  255   2.355   2.749   4.894
    2MOL    C20  256   2.231   2.675   4.912
    2MOL    H16  257   2.253   2.569   4.931
    2MOL    C21  258   2.154   2.687   4.779
    2MOL    H17  259   2.151   2.793   4.748
    2MOL    H18  260   2.051   2.653   4.791
    2MOL    O12  261   2.219   2.608   4.679
    2MOL    C22  262   2.154   2.612   4.551
    2MOL    C23  263   2.366   2.830   5.121
    2MOL    H19  264   2.345   2.932   5.086
    2MOL    O13  265   2.448   2.833   5.238
    2MOL    C24  266   2.554   2.929   5.231
    2MOL    C25  267   2.234   2.762   5.157
    2MOL    H20  268   2.256   2.666   5.205
    2MOL    O14  269   2.158   2.850   5.244
    2MOL    C26  270   2.164   2.815   5.384
    2MOL    C27  271   2.149   2.734   5.031
    2MOL    H21  272   2.103   2.828   4.998
    2MOL    O15  273   2.050   2.638   5.072
    2MOL    C28  274   1.913   2.672   5.049
    2MOL    H22  275   1.903   2.781   5.031
    2MOL    O16  276   1.868   2.600   4.933
    2MOL    C29  277   1.879   2.454   4.942
    2MOL    H23  278   1.983   2.427   4.959
    2MOL    C30  279   1.835   2.399   4.806
    2MOL    H24  280   1.853   2.291   4.802
    2MOL    H25  281   1.895   2.446   4.726
    2MOL    O17  282   1.695   2.429   4.788
    2MOL    C31  283   1.635   2.357   4.680
    2MOL    C32  284   1.825   2.632   5.170
    2MOL    H26  285   1.722   2.658   5.150
    2MOL    O18  286   1.868   2.699   5.290
    2MOL    C33  287   1.833   2.838   5.296
    2MOL    C34  288   1.828   2.479   5.193
    2MOL    H27  289   1.928   2.450   5.225
    2MOL    O19  290   1.728   2.444   5.290
    2MOL    C35  291   1.779   2.418   5.422
    2MOL    C36  292   1.792   2.404   5.062
    2MOL    H28  293   1.688   2.421   5.041
    2MOL    O20  294   1.817   2.263   5.090
    2MOL    C37  295   1.715   2.169   5.050
    2MOL    H29  296   1.622   2.220   5.027
    2MOL    O21  297   1.765   2.101   4.934
    2MOL    C38  298   1.894   2.037   4.947
    2MOL    H30  299   1.971   2.110   4.977
    2MOL    C39  300   1.933   1.983   4.809
    2MOL    H31  301   2.038   1.953   4.810
    2MOL    H32  302   1.920   2.061   4.734
    2MOL    O22  303   1.847   1.871   4.781
    2MOL    C40  304   1.883   1.797   4.665
    2MOL    C41  305   1.694   2.062   5.161
    2MOL    H33  306   1.611   1.996   5.130
    2MOL    O23  307   1.661   2.125   5.287
    2MOL    C42  308   1.529   2.179   5.298
    2MOL    C43  309   1.820   1.976   5.185
    2MOL    H34  310   1.892   2.040   5.236
    2MOL    O24  311   1.788   1.865   5.272
    2MOL    C44  312   1.846   1.880   5.403
    2MOL    C45  313   1.888   1.925   5.056
    2MOL    H35  314   1.830   1.840   5.018
    2MOL    O25  315   2.023   1.885   5.091
    2MOL    C46  316   2.062   1.752   5.048
    2MOL    H36  317   1.974   1.691   5.024
    2MOL    O26  318   2.144   1.763   4.930
    2MOL    C47  319   2.269   1.836   4.944
    2MOL    H37  320   2.249   1.939   4.971
    2MOL    C48  321   2.342   1.833   4.810
    2MOL    H38  322   2.370   1.730   4.785
    2MOL    H39  323   2.433   1.893   4.816
    2MOL    O27  324   2.258   1.889   4.708
    2MOL    C49  325   2.327   1.913   4.585
    2MOL    C50  326   2.145   1.678   5.157
    2MOL    H40  327   2.168   1.577   5.121
    2MOL    O28  328   2.070   1.671   5.280
    2MOL    C51  329   1.961   1.578   5.281
    2MOL    C52  330   2.280   1.750   5.185
    2MOL    H41  331   2.260   1.847   5.230
    2MOL    O29  332   2.360   1.665   5.272
    2MOL    C53  333   2.362   1.709   5.409
    2MOL    C54  334   2.359   1.774   5.055
    2MOL    H42  335   2.402   1.680   5.019
    2MOL    O30  336   2.462   1.871   5.088
    2MOL    H43  337   2.526   2.377   4.496
    2MOL    H44  338   2.450   2.522   4.565
    2MOL    H45  339   2.624   2.523   4.526
    2MOL    H46  340   2.611   2.041   4.487
    2MOL    H47  341   2.653   2.198   4.559
    2MOL    H48  342   2.773   2.067   4.557
    2MOL    H49  343   2.275   1.992   4.530
    2MOL    H50  344   2.428   1.950   4.603
    2MOL    H51  345   2.333   1.822   4.525
    2MOL    H52  346   1.816   1.711   4.655
    2MOL    H53  347   1.874   1.859   4.575
    2MOL    H54  348   1.986   1.760   4.673
    2MOL    H55  349   1.526   2.371   4.681
    2MOL    H56  350   1.675   2.391   4.584
    2MOL    H57  351   1.655   2.250   4.692
    2MOL    H58  352   2.208   2.550   4.480
    2MOL    H59  353   2.051   2.575   4.560
    2MOL    H60  354   2.152   2.715   4.513
    2MOL    H61  355   1.511   2.210   5.402
    2MOL    H62  356   1.518   2.267   5.234
    2MOL    H63  357   1.453   2.104   5.271
    2MOL    H64  358   1.696   2.405   5.492
    2MOL    H65  359   1.840   2.327   5.422
    2MOL    H66  360   1.840   2.502   5.456
    2MOL    H67  361   1.851   2.876   5.397
    2MOL    H68  362   1.893   2.895   5.225
    2MOL    H69  363   1.727   2.851   5.272
    2MOL    H70  364   2.108   2.888   5.443
    2MOL    H71  365   2.120   2.715   5.400
    2MOL    H72  366   2.268   2.814   5.419
    2MOL    H73  367   2.608   2.931   5.326
    2MOL    H74  368   2.625   2.903   5.152
    2MOL    H75  369   2.512   3.028   5.212
    2MOL    H76  370   2.655   2.707   5.455
    2MOL    H77  371   2.521   2.602   5.401
    2MOL    H78  372   2.682   2.532   5.436
    2MOL    H79  373   2.975   2.317   5.408
    2MOL    H80  374   2.980   2.262   5.240
    2MOL    H81  375   3.025   2.430   5.281
    2MOL    H82  376   2.827   2.112   5.484
    2MOL    H83  377   2.685   2.190   5.410
    2MOL    H84  378   2.681   2.016   5.448
    2MOL    H85  379   2.677   1.639   5.405
    2MOL    H86  380   2.637   1.613   5.233
    2MOL    H87  381   2.802   1.662   5.280
    2MOL    H88  382   2.420   1.640   5.471
    2MOL    H89  383   2.407   1.809   5.416
    2MOL    H90  384   2.259   1.713   5.447
    2MOL    H91  385   1.926   1.565   5.384
    2MOL    H92  386   1.878   1.615   5.219
    2MOL    H93  387   1.994   1.480   5.243
    2MOL    H94  388   1.817   1.798   5.470
    2MOL    H95  389   1.956   1.883   5.397
    2MOL    H96  390   1.813   1.975   5.447
    3MOL     C1  391   1.905   1.838   6.045
    3MOL     H1  392   1.898   1.729   6.060
    3MOL     O1  393   1.862   1.905   6.165
    3MOL     C2  394   1.863   2.050   6.163
    3MOL     H2  395   1.966   2.086   6.155
    3MOL     C3  396   1.801   2.096   6.296
    3MOL     H3  397   1.699   2.056   6.305
    3MOL     H4  398   1.795   2.205   6.298
    3MOL     O2  399   1.880   2.052   6.407
    3MOL     C4  400   1.823   2.089   6.534
    3MOL     C5  401   1.810   1.878   5.930
    3MOL     H5  402   1.708   1.849   5.956
    3MOL     O3  403   1.849   1.814   5.806
    3MOL     C6  404   1.811   1.675   5.795
    3MOL     C7  405   1.811   2.031   5.910
    3MOL     H6  406   1.910   2.062   5.875
    3MOL     O4  407   1.707   2.065   5.815
    3MOL     C8  408   1.756   2.099   5.685
    3MOL     C9  409   1.780   2.104   6.042
    3MOL     H7  410   1.673   2.092   6.064
    3MOL     O5  411   1.814   2.243   6.020
    3MOL    C10  412   1.713   2.341   6.054
    3MOL     H8  413   1.615   2.294   6.067
    3MOL     O6  414   1.753   2.407   6.177
    3MOL    C11  415   1.883   2.470   6.175
    3MOL     H9  416   1.961   2.396   6.153
    3MOL    C12  417   1.910   2.530   6.314
    3MOL    H10  418   1.831   2.602   6.340
    3MOL    H11  419   2.006   2.582   6.315
    3MOL     O7  420   1.912   2.424   6.411
    3MOL    C13  421   1.953   2.466   6.542
    3MOL    C14  422   1.703   2.449   5.943
    3MOL    H12  423   1.625   2.521   5.972
    3MOL     O8  424   1.669   2.389   5.817
    3MOL    C15  425   1.532   2.346   5.803
    3MOL    C16  426   1.836   2.526   5.927
    3MOL    H13  427   1.912   2.459   5.884
    3MOL     O9  428   1.813   2.641   5.843
    3MOL    C17  429   1.856   2.627   5.707
    3MOL    C18  430   1.888   2.578   6.063
    3MOL    H14  431   1.824   2.662   6.092
    3MOL    O10  432   2.024   2.621   6.044
    3MOL    C19  433   2.057   2.755   6.086
    3MOL    H15  434   1.966   2.812   6.111
    3MOL    O11  435   2.143   2.749   6.201
    3MOL    C20  436   2.266   2.673   6.184
    3MOL    H16  437   2.242   2.569   6.165
    3MOL    C21  438   2.345   2.684   6.316
    3MOL    H17  439   2.356   2.790   6.342
    3MOL    H18  440   2.445   2.641   6.304
    3MOL    O12  441   2.275   2.617   6.421
    3MOL    C22  442   2.330   2.649   6.550
    3MOL    C23  443   2.133   2.830   5.974
    3MOL    H19  444   2.156   2.931   6.009
    3MOL    O13  445   2.053   2.837   5.855
    3MOL    C24  446   1.939   2.923   5.863
    3MOL    C25  447   2.265   2.759   5.939
    3MOL    H20  448   2.243   2.664   5.890
    3MOL    O14  449   2.341   2.848   5.853
    3MOL    C26  450   2.338   2.812   5.713
    3MOL    C27  451   2.349   2.732   6.065
    3MOL    H21  452   2.394   2.826   6.096
    3MOL    O15  453   2.450   2.635   6.026
    3MOL    C28  454   2.588   2.675   6.049
    3MOL    H22  455   2.595   2.783   6.066
    3MOL    O16  456   2.638   2.603   6.162
    3MOL    C29  457   2.635   2.459   6.151
    3MOL    H23  458   2.530   2.426   6.142
    3MOL    C30  459   2.688   2.405   6.283
    3MOL    H24  460   2.645   2.306   6.302
    3MOL    H25  461   2.659   2.476   6.360
    3MOL    O17  462   2.830   2.398   6.287
    3MOL    C31  463   2.870   2.334   6.407
    3MOL    C32  464   2.678   2.638   5.929
    3MOL    H26  465   2.781   2.667   5.954
    3MOL    O18  466   2.636   2.709   5.811
    3MOL    C33  467   2.670   2.848   5.812
    3MOL    C34  468   2.678   2.487   5.901
    3MOL    H27  469   2.579   2.456   5.866
    3MOL    O19  470   2.780   2.459   5.803
    3MOL    C35  471   2.729   2.425   5.674
    3MOL    C36  472   2.713   2.407   6.028
    3MOL    H28  473   2.821   2.418   6.045
    3MOL    O20  474   2.676   2.269   6.004
    3MOL    C37  475   2.778   2.170   6.036
    3MOL    H29  476   2.874   2.219   6.053
    3MOL    O21  477   2.738   2.098   6.154
    3MOL    C38  478   2.609   2.032   6.146
    3MOL    H30  479   2.531   2.106   6.125
    3MOL    C39  480   2.577   1.973   6.281
    3MOL    H31  481   2.468   1.960   6.288
    3MOL    H32  482   2.613   2.045   6.355
    3MOL    O22  483   2.643   1.846   6.302
    3MOL    C40  484   2.611   1.792   6.432
    3MOL    C41  485   2.791   2.067   5.921
    3MOL    H33  486   2.871   1.997   5.947
    3MOL    O23  487   2.821   2.133   5.796
    3MOL    C42  488   2.956   2.181   5.784
    3MOL    C43  489   2.660   1.986   5.902
    3MOL    H34  490   2.582   2.053   5.862
    3MOL    O24  491   2.687   1.875   5.813
    3MOL    C44  492   2.636   1.896   5.681
    3MOL    C45  493   2.607   1.927   6.034
    3MOL    H35  494   2.671   1.842   6.060
    3MOL    O25  495   2.470   1.887   6.012
    3MOL    C46  496   2.435   1.752   6.052
    3MOL    H36  497   2.525   1.692   6.070
    3MOL    O26  498   2.356   1.755   6.172
    3MOL    C47  499   2.232   1.833   6.163
    3MOL    H37  500   2.257   1.937   6.141
    3MOL    C48  501   2.160   1.825   6.299
    3MOL    H38  502   2.135   1.721   6.323
    3MOL    H39  503   2.068   1.883   6.297
    3MOL    O27  504   2.247   1.879   6.400
    3MOL    C49  505   2.190   1.890   6.531
    3MOL    C50  506   2.352   1.683   5.941
    3MOL    H40  507   2.330   1.580   5.972
    3MOL    O28  508   2.428   1.682   5.819
    3MOL    C51  509   2.541   1.594   5.820
    3MOL    C52  510   2.219   1.756   5.917
    3MOL    H41  511   2.239   1.854   5.871
    3MOL    O29  512   2.136   1.673   5.832
    3MOL    C53  513   2.137   1.708   5.693
    3MOL    C54  514   2.142   1.780   6.048
    3MOL    H42  515   2.097   1.685   6.080
    3MOL    O30  516   2.041   1.878   6.018
    3MOL    H43  517   1.966   2.378   6.607
    3MOL    H44  518   2.049   2.519   6.537
    3MOL    H45  519   1.878   2.532   6.587
    3MOL    H46  520   1.888   2.057   6.616
    3MOL    H47  521   1.810   2.198   6.539
    3MOL    H48  522   1.725   2.042   6.546
    3MOL    H49  523   2.258   1.943   6.598
    3MOL    H50  524   2.097   1.949   6.528
    3MOL    H51  525   2.171   1.791   6.572
    3MOL    H52  526   2.665   1.699   6.450
    3MOL    H53  527   2.636   1.864   6.511
    3MOL    H54  528   2.503   1.773   6.437
    3MOL    H55  529   2.976   2.349   6.425
    3MOL    H56  530   2.815   2.373   6.494
    3MOL    H57  531   2.849   2.227   6.398
    3MOL    H58  532   2.288   2.584   6.627
    3MOL    H59  533   2.439   2.637   6.549
    3MOL    H60  534   2.308   2.753   6.577
    3MOL    H61  535   2.976   2.209   5.680
    3MOL    H62  536   2.971   2.268   5.848
    3MOL    H63  537   3.027   2.102   5.814
    3MOL    H64  538   2.812   2.412   5.604
    3MOL    H65  539   2.671   2.333   5.679
    3MOL    H66  540   2.664   2.506   5.639
    3MOL    H67  541   2.661   2.888   5.710
    3MOL    H68  542   2.602   2.904   5.878
    3MOL    H69  543   2.773   2.863   5.846
    3MOL    H70  544   2.395   2.885   5.655
    3MOL    H71  545   2.384   2.713   5.699
    3MOL    H72  546   2.235   2.809   5.676
    3MOL    H73  547   1.899   2.939   5.763
    3MOL    H74  548   1.861   2.876   5.925
    3MOL    H75  549   1.968   3.018   5.909
    3MOL    H76  550   1.827   2.715   5.648
    3MOL    H77  551   1.965   2.616   5.702
    3MOL    H78  552   1.809   2.538   5.663
    3MOL    H79  553   1.511   2.321   5.699
    3MOL    H80  554   1.514   2.257   5.864
    3MOL    H81  555   1.464   2.426   5.835
    3MOL    H82  556   1.672   2.114   5.616
    3MOL    H83  557   1.816   2.190   5.689
    3MOL    H84  558   1.819   2.017   5.647
    3MOL    H85  559   1.827   1.640   5.692
    3MOL    H86  560   1.870   1.613   5.862
    3MOL    H87  561   1.704   1.662   5.819
    3MOL    H88  562   2.078   1.636   5.635
    3MOL    H89  563   2.094   1.808   5.679
    3MOL    H90  564   2.240   1.708   5.656
    3MOL    H91  565   2.572   1.573   5.717
    3MOL    H92  566   2.625   1.639   5.874
    3MOL    H93  567   2.514   1.499   5.868
    3MOL    H94  568   2.668   1.815   5.615
    3MOL    H95  569   2.526   1.901   5.683
    3MOL    H96  570   2.674   1.991   5.644
    4SOL     OW  571   0.243   0.599   0.110
    4SOL    HW1  572   0.169   0.596   0.170
    4SOL    HW2  573   0.207   0.635   0.028
    5SOL     OW  574   0.196   0.293   0.990
    5SOL    HW1  575   0.232   0.270   1.075
    5SOL    HW2  576   0.130   0.225   0.972
    6SOL     OW  577   0.005   0.379   0.641
    6SOL    HW1  578   4.428   0.417   0.683
    6SOL    HW2  579   4.470   0.307   0.588
    7SOL     OW  580   0.567   1.285   1.174
    7SOL    HW1  581   0.480   1.290   1.135
    7SOL    HW2  582   0.583   1.372   1.209
    8SOL     OW  583   1.559   1.512   0.706
    8SOL    HW1  584   1.516   1.493   0.790
    8SOL    HW2  585   1.488   1.516   0.643
    9SOL     OW  586   1.133   0.699   0.700
    9SOL    HW1  587   1.181   0.782   0.689
    9SOL    HW2  588   1.083   0.711   0.781
   10SOL     OW  589   1.775   0.603   0.219
   10SOL    HW1  590   1.723   0.604   0.138
   10SOL    HW2  591   1.736   0.533   0.271
   11SOL     OW  592   0.757   1.143   1.039
   11SOL    HW1  593   0.687   1.177   1.095
   11SOL    HW2  594   0.792   1.220   0.994
   12SOL     OW  595   0.864   0.776   1.821
   12SOL    HW1  596   0.851   0.847   1.884
   12SOL    HW2  597   0.888   0.820   1.739
   13SOL     OW  598   0.686   1.005   0.648
   13SOL    HW1  599   0.751   0.991   0.717
   13SOL    HW2  600   0.616   1.055   0.690
   14SOL     OW  601   0.710   1.151   1.811
   14SOL    HW1  602   0.757   1.230   1.837
   14SOL    HW2  603   0.626   1.182   1.776
   15SOL     OW  604   0.336   1.422   1.069
   15SOL    HW1  605   0.254   1.404   1.023
   15SOL    HW2  606   0.386   1.476   1.009
   16SOL     OW  607   1.461   1.499   1.352
   16SOL    HW1  608   1.510   1.581   1.361
   16SOL    HW2  609   1.403   1.497   1.428
   17SOL     OW  610   0.438   0.396   1.492
   17SOL    HW1  611   0.526   0.360   1.493
   17SOL    HW2  612   0.381   0.320   1.511
   18SOL     OW  613   1.612   0.447   0.738
   18SOL    HW1  614   1.530   0.468   0.693
   18SOL    HW2  615   1.630   0.525   0.791
   19SOL     OW  616   0.245   1.691   0.482
   19SOL    HW1  617   0.233   1.778   0.522
   19SOL    HW2  618   0.304   1.706   0.409
   20SOL     OW  619   1.136   1.341   1.692
   20SOL    HW1  620   1.176   1.337   1.779
   20SOL    HW2  621   1.083   1.261   1.686
   21SOL     OW  622   0.243   1.427   0.529
   21SOL    HW1  623   0.239   1.523   0.529
   21SOL    HW2  624   0.178   1.399   0.592
   22SOL     OW  625   0.245   1.081   0.882
   22SOL    HW1  626   0.263   0.993   0.914
   22SOL    HW2  627   0.187   1.119   0.949
   23SOL     OW  628   0.615   1.791   1.432
   23SOL    HW1  629   0.531   1.773   1.475
   23SOL    HW2  630   0.635   1.881   1.455
   24SOL     OW  631   0.574   0.993   0.146
   24SOL    HW1  632   0.621   1.035   0.074
   24SOL    HW2  633   0.624   1.018   0.224
   25SOL     OW  634   1.583   0.115   1.472
   25SOL    HW1  635   1.600   0.184   1.408
   25SOL    HW2  636   1.573   0.162   1.555
   26SOL     OW  637   0.137   0.643   0.575
   26SOL    HW1  638   0.083   0.565   0.591
   26SOL    HW2  639   0.109   0.705   0.642
   27SOL     OW  640   1.841   1.762   0.333
   27SOL    HW1  641   1.901   1.730   0.400
   27SOL    HW2  642   1.869   1.852   0.316
   28SOL     OW  643   0.072   1.592   0.150
   28SOL    HW1  644   0.037   1.503   0.154
   28SOL    HW2  645   0.020   1.641   0.214
   29SOL     OW  646   1.690   0.919   0.640
   29SOL    HW1  647   1.775   0.879   0.619
   29SOL    HW2  648   1.668   0.970   0.562
   30SOL     OW  649   1.646   1.106   0.432
   30SOL    HW1  650   1.728   1.118   0.384
   30SOL    HW2  651   1.650   1.168   0.504
   31SOL     OW  652   0.106   0.763   1.584
   31SOL    HW1  653   0.199   0.761   1.561
   31SOL    HW2  654   0.087   0.855   1.599
   32SOL     OW  655   0.613   1.384   0.736
   32SOL    HW1  656   0.566   1.301   0.745
   32SOL    HW2  657   0.596   1.411   0.646
   33SOL     OW  658   1.289   1.238   1.424
   33SOL    HW1  659   1.322   1.171   1.364
   33SOL    HW2  660   1.346   1.231   1.501
   34SOL     OW  661   0.820   0.010   0.551
   34SOL    HW1  662   0.857   0.089   0.511
   34SOL    HW2  663   0.725   0.021   0.541
   35SOL     OW  664   0.181   0.941   1.280
   35SOL    HW1  665   0.272   0.925   1.258
   35SOL    HW2  666   0.133   0.924   1.198
   36SOL     OW  667   1.519   0.999   0.202
   36SOL    HW1  668   1.454   0.938   0.237
   36SOL    HW2  669   1.567   1.029   0.279
   37SOL     OW  670   1.185   1.805   1.621
   37SOL    HW1  671   1.199   1.863   1.546
   37SOL    HW2  672   1.201   1.717   1.587
   38SOL     OW  673   0.318   0.260   1.770
   38SOL    HW1  674   0.386   0.312   1.813
   38SOL    HW2  675   0.242   0.268   1.828
   39SOL     OW  676   1.466   1.419   0.952
   39SOL    HW1  677   1.398   1.434   1.018
   39SOL    HW2  678   1.454   1.328   0.925
   40SOL     OW  679   1.661   1.736   0.578
   40SOL    HW1  680   1.638   1.708   0.489
   40SOL    HW2  681   1.634   1.663   0.634
   41SOL     OW  682   0.594   0.720   0.263
   41SOL    HW1  683   0.600   0.801   0.213
   41SOL    HW2  684   0.532   0.739   0.333
   42SOL     OW  685   1.289   0.360   0.934
   42SOL    HW1  686   1.199   0.328   0.923
   42SOL    HW2  687   1.328   0.298   0.996
   43SOL     OW  688   1.582   1.669   0.311
   43SOL    HW1  689   1.671   1.702   0.304
   43SOL    HW2  690   1.556   1.651   0.221
   44SOL     OW  691   0.797   0.617   1.454
   44SOL    HW1  692   0.769   0.593   1.542
   44SOL    HW2  693   0.753   0.554   1.397
   45SOL     OW  694   1.389   0.478   1.676
   45SOL    HW1  695   1.392   0.523   1.761
   45SOL    HW2  696   1.455   0.410   1.682
   46SOL     OW  697   0.956   0.888   1.582
   46SOL    HW1  698   1.010   0.817   1.547
   46SOL    HW2  699   0.909   0.922   1.505
   47SOL     OW  700   0.997   0.417   1.237
   47SOL    HW1  701   0.911   0.429   1.278
   47SOL    HW2  702   0.979   0.367   1.157
   48SOL     OW  703   1.049   0.701   0.428
   48SOL    HW1  704   1.066   0.692   0.522
   48SOL    HW2  705   0.967   0.653   0.414
   49SOL     OW  706   0.099   0.823   0.784
   49SOL    HW1  707   0.185   0.808   0.822
   49SOL    HW2  708   0.048   0.863   0.854
   50SOL     OW  709   0.123   1.856   1.576
   50SOL    HW1  710   0.117   1.832   1.669
   50SOL    HW2  711   0.046   1.817   1.536
   51SOL     OW  712   0.878   0.360   0.202
   51SOL    HW1  713   0.931   0.413   0.143
   51SOL    HW2  714   0.906   0.270   0.185
   52SOL     OW  715   1.705   0.574   1.828
   52SOL    HW1  716   1.669   0.650   1.781
   52SOL    HW2  717   1.740   0.518   1.759
   53SOL     OW  718   1.376   1.142   0.541
   53SOL    HW1  719   1.454   1.128   0.488
   53SOL    HW2  720   1.324   1.204   0.492
   54SOL     OW  721   0.542   0.203   0.900
   54SOL    HW1  722   0.562   0.222   0.992
   54SOL    HW2  723   0.536   0.289   0.859
   55SOL     OW  724   1.007   1.445   0.474
   55SOL    HW1  725   0.967   1.517   0.425
   55SOL    HW2  726   0.990   1.467   0.566
   56SOL     OW  727   0.355   1.809   0.858
   56SOL    HW1  728   0.397   1.724   0.868
   56SOL    HW2  729   0.425   1.873   0.872
   57SOL     OW  730   1.799   1.058   0.867
   57SOL    HW1  731   1.743   1.042   0.791
   57SOL    HW2  732   1.738   1.063   0.941
   58SOL     OW  733   1.228   1.539   1.513
   58SOL    HW1  734   1.214   1.466   1.573
   58SOL    HW2  735   1.166   1.524   1.442
   59SOL     OW  736   0.314   0.956   0.277
   59SOL    HW1  737   0.397   0.984   0.239
   59SOL    HW2  738   0.307   0.863   0.254
   60SOL     OW  739   1.479   0.739   0.724
   60SOL    HW1  740   1.465   0.696   0.808
   60SOL    HW2  741   1.554   0.797   0.738
   61SOL     OW  742   0.466   1.262   1.735
   61SOL    HW1  743   0.439   1.268   1.644
   61SOL    HW2  744   0.385   1.267   1.785
   62SOL     OW  745   1.107   1.779   0.227
   62SOL    HW1  746   1.048   1.727   0.281
   62SOL    HW2  747   1.148   1.715   0.168
   63SOL     OW  748   0.164   0.264   1.509
   63SOL    HW1  749   0.135   0.351   1.482
   63SOL    HW2  750   0.198   0.277   1.598
   64SOL     OW  751   1.628   1.375   0.089
   64SOL    HW1  752   1.586   1.460   0.076
   64SOL    HW2  753   1.563   1.311   0.061
   65SOL     OW  754   0.469   1.741   0.318
   65SOL    HW1  755   0.507   1.798   0.385
   65SOL    HW2  756   0.544   1.714   0.264
   66SOL     OW  757   1.418   0.133   0.425
   66SOL    HW1  758   1.396   0.098   0.338
   66SOL    HW2  759   1.514   0.133   0.426
   67SOL     OW  760   0.256   1.790   1.235
   67SOL    HW1  761   0.305   1.716   1.272
   67SOL    HW2  762   0.227   1.759   1.149
   68SOL     OW  763   0.938   1.699   0.900
   68SOL    HW1  764   1.015   1.646   0.921
   68SOL    HW2  765   0.893   1.649   0.831
   69SOL     OW  766   0.392   0.693   0.471
   69SOL    HW1  767   0.419   0.602   0.484
   69SOL    HW2  768   0.301   0.697   0.501
   70SOL     OW  769   1.526   0.233   1.722
   70SOL    HW1  770   1.525   0.256   1.815
   70SOL    HW2  771   1.449   0.176   1.711
   71SOL     OW  772   0.601   0.105   0.119
   71SOL    HW1  773   0.694   0.083   0.118
   71SOL    HW2  774   0.569   0.073   0.034
   72SOL     OW  775   0.768   0.269   1.753
   72SOL    HW1  776   0.835   0.201   1.765
   72SOL    HW2  777   0.727   0.277   1.839
   73SOL     OW  778   0.877   1.521   1.193
   73SOL    HW1  779   0.861   1.485   1.106
   73SOL    HW2  780   0.946   1.467   1.230
   74SOL     OW  781   1.342   0.589   1.429
   74SOL    HW1  782   1.369   0.560   1.516
   74SOL    HW2  783   1.376   0.678   1.422
   75SOL     OW  784   0.814   1.396   0.938
   75SOL    HW1  785   0.898   1.385   0.893
   75SOL    HW2  786   0.749   1.396   0.868
   76SOL     OW  787   0.923   0.515   0.901
   76SOL    HW1  788   0.906   0.516   0.807
   76SOL    HW2  789   0.963   0.430   0.918
   77SOL     OW  790   0.560   0.068   0.512
   77SOL    HW1  791   0.472   0.055   0.548
   77SOL    HW2  792   0.550   0.138   0.448
   78SOL     OW  793   1.426   1.196   0.031
   78SOL    HW1  794   1.458   1.123   0.085
   78SOL    HW2  795   1.343   1.221   0.071
   79SOL     OW  796   0.296   0.055   0.191
   79SOL    HW1  797   0.373   0.093   0.149
   79SOL    HW2  798   0.331   0.001   0.261
   80SOL     OW  799   0.950   0.227   0.445
   80SOL    HW1  800   0.904   0.291   0.391
   80SOL    HW2  801   1.039   0.261   0.452
   81SOL     OW  802   1.080   0.680   1.461
   81SOL    HW1  803   1.009   0.616   1.462
   81SOL    HW2  804   1.160   0.628   1.450
   82SOL     OW  805   1.224   1.569   0.794
   82SOL    HW1  806   1.241   1.636   0.728
   82SOL    HW2  807   1.292   1.583   0.860
   83SOL     OW  808   0.467   1.148   0.740
   83SOL    HW1  809   0.395   1.130   0.800
   83SOL    HW2  810   0.430   1.135   0.653
   84SOL     OW  811   1.270   1.795   0.605
   84SOL    HW1  812   1.315   1.856   0.548
   84SOL    HW2  813   1.205   1.848   0.651
   85SOL     OW  814   1.021   0.533   0.034
   85SOL    HW1  815   0.983   0.618   0.010
   85SOL    HW2  816   1.094   0.554   0.092
   86SOL     OW  817   0.092   0.520   1.412
   86SOL    HW1  818   0.152   0.530   1.338
   86SOL    HW2  819   0.061   0.609   1.429
   87SOL     OW  820   0.562   0.243   1.165
   87SOL    HW1  821   0.593   0.159   1.200
   87SOL    HW2  822   0.469   0.244   1.185
   88SOL     OW  823   0.862   0.509   0.628
   88SOL    HW1  824   0.819   0.544   0.550
   88SOL    HW2  825   0.840   0.415   0.627
   89SOL     OW  826   0.963   0.033   0.780
   89SOL    HW1  827   0.915   0.027   0.697
   89SOL    HW2  828   0.983   4.442   0.803
   90SOL     OW  829   1.437   1.163   0.857
   90SOL    HW1  830   1.368   1.096   0.856
   90SOL    HW2  831   1.460   1.175   0.765
   91SOL     OW  832   1.467   0.604   0.977
   91SOL    HW1  833   1.414   0.524   0.980
   91SOL    HW2  834   1.525   0.597   1.052
   92SOL     OW  835   1.850   0.815   0.378
   92SOL    HW1  836   1.903   0.764   0.440
   92SOL    HW2  837   1.821   0.751   0.313
   93SOL     OW  838   0.494   1.422   0.174
   93SOL    HW1  839   0.415   1.397   0.222
   93SOL    HW2  840   0.489   1.374   0.092
   94SOL     OW  841   1.669   1.265   0.648
   94SOL    HW1  842   1.764   1.270   0.660
   94SOL    HW2  843   1.637   1.353   0.669
   95SOL     OW  844   1.390   0.575   0.077
   95SOL    HW1  845   1.329   0.556   0.147
   95SOL    HW2  846   1.462   0.513   0.090
   96SOL     OW  847   0.524   0.262   0.325
   96SOL    HW1  848   0.558   0.204   0.256
   96SOL    HW2  849   0.512   0.346   0.282
   97SOL     OW  850   1.753   1.237   1.576
   97SOL    HW1  851   1.841   1.199   1.571
   97SOL    HW2  852   1.768   1.328   1.603
   98SOL     OW  853   1.059   1.353   1.334
   98SOL    HW1  854   0.985   1.323   1.385
   98SOL    HW2  855   1.135   1.312   1.375
   99SOL     OW  856   1.607   1.624   1.652
   99SOL    HW1  857   1.603   1.660   1.564
   99SOL    HW2  858   1.691   1.578   1.655
  100SOL     OW  859   1.127   1.202   1.106
  100SOL    HW1  860   1.068   1.240   1.172
  100SOL    HW2  861   1.094   1.234   1.022
  101SOL     OW  862   1.630   1.099   1.078
  101SOL    HW1  863   1.625   1.161   1.150
  101SOL    HW2  864   1.550   1.115   1.027
  102SOL     OW  865   0.903   0.133   1.388
  102SOL    HW1  866   0.925   0.087   1.307
  102SOL    HW2  867   0.987   0.146   1.432
  103SOL     OW  868   0.984   1.114   1.723
  103SOL    HW1  869   0.892   1.130   1.743
  103SOL    HW2  870   0.983   1.037   1.667
  104SOL     OW  871   0.710   1.059   0.374
  104SOL    HW1  872   0.697   1.045   0.468
  104SOL    HW2  873   0.786   1.005   0.352
  105SOL     OW  874   0.430   0.825   1.240
  105SOL    HW1  875   0.498   0.835   1.306
  105SOL    HW2  876   0.370   0.760   1.277
  106SOL     OW  877   1.269   0.376   1.273
  106SOL    HW1  878   1.301   0.455   1.317
  106SOL    HW2  879   1.180   0.399   1.245
  107SOL     OW  880   0.062   1.576   1.342
  107SOL    HW1  881   0.035   1.665   1.317
  107SOL    HW2  882   0.157   1.581   1.347
  108SOL     OW  883   0.349   1.115   0.499
  108SOL    HW1  884   0.353   1.189   0.439
  108SOL    HW2  885   0.343   1.038   0.442
  109SOL     OW  886   0.564   0.528   0.854
  109SOL    HW1  887   0.576   0.588   0.781
  109SOL    HW2  888   0.623   0.559   0.922
  110SOL     OW  889   1.247   1.346   0.394
  110SOL    HW1  890   1.303   1.419   0.422
  110SOL    HW2  891   1.160   1.369   0.426
  111SOL     OW  892   1.279   1.456   1.146
  111SOL    HW1  893   1.334   1.459   1.224
  111SOL    HW2  894   1.224   1.379   1.159
  112SOL     OW  895   1.586   0.628   0.475
  112SOL    HW1  896   1.536   0.672   0.544
  112SOL    HW2  897   1.621   0.699   0.422
  113SOL     OW  898   0.347   1.530   1.316
  113SOL    HW1  899   0.333   1.483   1.234
  113SOL    HW2  900   0.442   1.540   1.322
  114SOL     OW  901   0.481   0.759   1.667
  114SOL    HW1  902   0.506   0.798   1.583
  114SOL    HW2  903   0.521   0.672   1.666
  115SOL     OW  904   1.599   0.777   1.680
  115SOL    HW1  905   1.513   0.819   1.673
  115SOL    HW2  906   1.652   0.820   1.612
  116SOL     OW  907   1.006   0.086   1.722
  116SOL    HW1  908   1.033   0.169   1.684
  116SOL    HW2  909   1.031   0.020   1.657
  117SOL     OW  910   0.496   0.045   1.750
  117SOL    HW1  911   0.479   4.497   1.669
  117SOL    HW2  912   0.429   0.114   1.752
  118SOL     OW  913   0.589   0.874   1.023
  118SOL    HW1  914   0.618   0.965   1.026
  118SOL    HW2  915   0.533   0.865   1.101
  119SOL     OW  916   1.359   0.858   1.032
  119SOL    HW1  917   1.277   0.851   0.983
  119SOL    HW2  918   1.398   0.771   1.026
  120SOL     OW  919   1.201   0.532   0.267
  120SOL    HW1  920   1.210   0.453   0.320
  120SOL    HW2  921   1.160   0.596   0.324
  121SOL     OW  922   0.284   0.217   1.234
  121SOL    HW1  923   0.247   0.235   1.320
  121SOL    HW2  924   0.324   0.130   1.242
  122SOL     OW  925   0.043   1.313   1.285
  122SOL    HW1  926   0.077   1.266   1.361
  122SOL    HW2  927   0.047   1.405   1.310
  123SOL     OW  928   0.724   0.631   1.059
  123SOL    HW1  929   0.798   0.611   1.001
  123SOL    HW2  930   0.699   0.720   1.034
  124SOL     OW  931   1.734   0.959   1.852
  124SOL    HW1  932   1.686   0.901   1.792
  124SOL    HW2  933   1.674   0.971   1.926
  125SOL     OW  934   0.317   0.074   0.629
  125SOL    HW1  935   0.302   0.162   0.663
  125SOL    HW2  936   0.306   0.017   0.705
  126SOL     OW  937   1.616   0.376   0.365
  126SOL    HW1  938   1.644   0.312   0.430
  126SOL    HW2  939   1.591   0.453   0.416
  127SOL     OW  940   1.028   0.761   0.961
  127SOL    HW1  941   1.026   0.777   1.056
  127SOL    HW2  942   1.000   0.670   0.952
  128SOL     OW  943   0.983   1.566   1.716
  128SOL    HW1  944   0.967   1.610   1.632
  128SOL    HW2  945   1.025   1.484   1.692
  129SOL     OW  946   1.856   1.505   1.605
  129SOL    HW1  947   1.870   1.535   1.515
  129SOL    HW2  948   1.937   1.530   1.650
  130SOL     OW  949   0.347   0.932   1.818
  130SOL    HW1  950   0.420   0.961   1.872
  130SOL    HW2  951   0.385   0.865   1.761
  131SOL     OW  952   1.535   0.294   0.112
  131SOL    HW1  953   1.476   0.220   0.126
  131SOL    HW2  954   1.566   0.316   0.200
  132SOL     OW  955   1.288   0.823   0.032
  132SOL    HW1  956   1.332   0.739   0.042
  132SOL    HW2  957   1.321   0.858  11.049
  133SOL     OW  958   1.065   1.335   0.853
  133SOL    HW1  959   1.068   1.262   0.790
  133SOL    HW2  960   1.127   1.399   0.818
  134SOL     OW  961   0.318   0.813   0.948
  134SOL    HW1  962   0.412   0.830   0.945
  134SOL    HW2  963   0.312   0.722   0.979
  135SOL     OW  964   0.336   0.529   0.992
  135SOL    HW1  965   0.291   0.446   0.972
  135SOL    HW2  966   0.413   0.528   0.935
  136SOL     OW  967   1.135   0.374   1.694
  136SOL    HW1  968   1.086   0.439   1.746
  136SOL    HW2  969   1.221   0.414   1.681
  137SOL     OW  970   1.158   0.212   1.473
  137SOL    HW1  971   1.151   0.276   1.544
  137SOL    HW2  972   1.196   0.261   1.400
  138SOL     OW  973   4.496   1.324   0.199
  138SOL    HW1  974   4.402   1.342   0.191
  138SOL    HW2  975   0.000   1.232   0.226
  139SOL     OW  976   0.096   1.778   0.940
  139SOL    HW1  977   0.058   1.723   0.871
  139SOL    HW2  978   0.184   1.799   0.908
  140SOL     OW  979   0.498   1.573   0.907
  140SOL    HW1  980   0.566   1.636   0.930
  140SOL    HW2  981   0.542   1.510   0.850
  141SOL     OW  982   0.986   0.794   1.228
  141SOL    HW1  983   1.040   0.770   1.303
  141SOL    HW2  984   0.900   0.756   1.247
  142SOL     OW  985   0.038   0.566   1.109
  142SOL    HW1  986   0.114   0.524   1.070
  142SOL    HW2  987   0.020   0.514   1.188
  143SOL     OW  988   0.179   0.521   1.711
  143SOL    HW1  989   0.266   0.504   1.675
  143SOL    HW2  990   0.151   0.602   1.669
  144SOL     OW  991   1.377   0.940   1.659
  144SOL    HW1  992   1.397   1.033   1.658
  144SOL    HW2  993   1.374   0.915   1.567
  145SOL     OW  994   0.811   0.576   0.358
  145SOL    HW1  995   0.819   0.500   0.301
  145SOL    HW2  996   0.737   0.625   0.323
  146SOL     OW  997   1.641   0.601   1.188
  146SOL    HW1  998   1.631   0.542   1.262
  146SOL    HW2  999   1.728   0.581   1.153
  147SOL     OW 1000   0.272   1.562   1.741
  147SOL    HW1 1001   0.217   1.614   1.800
  147SOL    HW2 1002   0.252   1.471   1.764
  148SOL     OW 1003   0.684   0.464   1.267
  148SOL    HW1 1004   0.647   0.383   1.231
  148SOL    HW2 1005   0.692   0.523   1.192
  149SOL     OW 1006   0.929   1.679   1.467
  149SOL    HW1 1007   0.903   1.646   1.381
  149SOL    HW2 1008   0.926   1.774   1.458
  150SOL     OW 1009   0.476   0.484   0.183
  150SOL    HW1 1010   0.532   0.559   0.205
  150SOL    HW2 1011   0.390   0.524   0.163
  151SOL     OW 1012   0.162   1.140   1.462
  151SOL    HW1 1013   0.146   1.094   1.545
  151SOL    HW2 1014   0.169   1.071   1.397
  152SOL     OW 1015   1.327   1.048   1.224
  152SOL    HW1 1016   1.351   0.985   1.156
  152SOL    HW2 1017   1.256   1.099   1.186
  153SOL     OW 1018   1.308   0.852   0.310
  153SOL    HW1 1019   1.231   0.822   0.358
  153SOL    HW2 1020   1.285   0.840   0.218
  154SOL     OW 1021   1.764   1.745   1.146
  154SOL    HW1 1022   1.827   1.773   1.080
  154SOL    HW2 1023   1.746   1.653   1.125
  155SOL     OW 1024   1.241   1.733   1.114
  155SOL    HW1 1025   1.323   1.753   1.069
  155SOL    HW2 1026   1.246   1.639   1.132
  156SOL     OW 1027   0.067   1.186   1.049
  156SOL    HW1 1028   0.068   1.219   1.139
  156SOL    HW2 1029   0.019   1.252   1.000
  157SOL     OW 1030   0.679   1.665   1.727
  157SOL    HW1 1031   0.624   1.743   1.723
  157SOL    HW2 1032   0.742   1.675   1.656
  158SOL     OW 1033   0.879   0.064   0.124
  158SOL    HW1 1034   0.964   0.093   0.091
  158SOL    HW2 1035   0.899   0.015   0.204
  159SOL     OW 1036   1.720   0.134   0.498
  159SOL    HW1 1037   1.793   0.138   0.437
  159SOL    HW2 1038   1.737   0.055   0.551
  160SOL     OW 1039   1.390   1.568   0.484
  160SOL    HW1 1040   1.451   1.599   0.417
  160SOL    HW2 1041   1.343   1.646   0.512
  161SOL     OW 1042   0.119   1.808   1.848
  161SOL    HW1 1043   0.080   1.734   1.895
  161SOL    HW2 1044   0.183   1.845   1.909
  162SOL     OW 1045   1.279   0.927   0.673
  162SOL    HW1 1046   1.351   0.864   0.676
  162SOL    HW2 1047   1.312   0.999   0.620
  163SOL     OW 1048   0.816   1.273   1.431
  163SOL    HW1 1049   0.789   1.312   1.514
  163SOL    HW2 1050   0.746   1.295   1.370
  164SOL     OW 1051   0.675   1.619   0.167
  164SOL    HW1 1052   0.684   1.628   0.072
  164SOL    HW2 1053   0.617   1.544   0.178
  165SOL     OW 1054   1.627   1.726   1.390
  165SOL    HW1 1055   1.677   1.734   1.309
  165SOL    HW2 1056   1.615   1.816   1.420
  166SOL     OW 1057   1.839   0.155   0.966
  166SOL    HW1 1058   1.867   0.077   0.918
  166SOL    HW2 1059   1.752   0.175   0.931
  167SOL     OW 1060   0.265   0.324   0.723
  167SOL    HW1 1061   0.183   0.361   0.690
  167SOL    HW2 1062   0.251   0.317   0.818
  168SOL     OW 1063   1.223   1.603   0.051
  168SOL    HW1 1064   1.209   1.510   0.072
  168SOL    HW2 1065   1.157   1.622  11.085
  169SOL     OW 1066   0.825   1.007   1.372
  169SOL    HW1 1067   0.868   1.004   1.286
  169SOL    HW2 1068   0.825   1.099   1.395
  170SOL     OW 1069   0.914   0.907   0.282
  170SOL    HW1 1070   0.981   0.946   0.226
  170SOL    HW2 1071   0.961   0.841   0.334
  171SOL     OW 1072   1.499   1.622   0.046
  171SOL    HW1 1073   1.404   1.618   0.043
  171SOL    HW2 1074   1.526   1.637  11.055
  172SOL     OW 1075   0.373   1.306   1.491
  172SOL    HW1 1076   0.356   1.385   1.439
  172SOL    HW2 1077   0.297   1.250   1.474
  173SOL     OW 1078   1.611   1.283   1.281
  173SOL    HW1 1079   1.671   1.275   1.355
  173SOL    HW2 1080   1.551   1.353   1.307
  174SOL     OW 1081   1.050   1.106   0.705
  174SOL    HW1 1082   0.980   1.055   0.745
  174SOL    HW2 1083   1.113   1.041   0.674
  175SOL     OW 1084   1.011   0.240   0.995
  175SOL    HW1 1085   1.012   0.208   0.905
  175SOL    HW2 1086   1.002   0.162   1.048
  176SOL     OW 1087   0.602   1.490   0.483
  176SOL    HW1 1088   0.641   1.440   0.412
  176SOL    HW2 1089   0.531   1.539   0.442
  177SOL     OW 1090   1.720   0.393   1.377
  177SOL    HW1 1091   1.793   0.456   1.376
  177SOL    HW2 1092   1.750   0.322   1.321
  178SOL     OW 1093   0.262   1.330   0.283
  178SOL    HW1 1094   0.174   1.343   0.247
  178SOL    HW2 1095   0.258   1.370   0.370
  179SOL     OW 1096   0.116   1.007   1.696
  179SOL    HW1 1097   0.052   1.049   1.753
  179SOL    HW2 1098   0.194   0.997   1.750
  180SOL     OW 1099   0.659   0.208   1.497
  180SOL    HW1 1100   0.738   0.182   1.450
  180SOL    HW2 1101   0.687   0.224   1.587
  181SOL     OW 1102   0.052   0.339   0.013
  181SOL    HW1 1103   4.461   0.332   0.041
  181SOL    HW2 1104   0.072   0.432   0.020
  182SOL     OW 1105   1.431   0.858   1.401
  182SOL    HW1 1106   1.382   0.919   1.345
  182SOL    HW2 1107   1.520   0.861   1.367
  183SOL     OW 1108   0.081   0.184   0.297
  183SOL    HW1 1109   0.084   0.263   0.242
  183SOL    HW2 1110   0.158   0.134   0.271
  184SOL     OW 1111   1.182   1.341   0.122
  184SOL    HW1 1112   1.088   1.321   0.116
  184SOL    HW2 1113   1.202   1.334   0.215
  185SOL     OW 1114   0.622   0.830   1.429
  185SOL    HW1 1115   0.677   0.908   1.416
  185SOL    HW2 1116   0.685   0.758   1.438
  186SOL     OW 1117   1.486   1.775   0.977
  186SOL    HW1 1118   1.511   1.835   0.906
  186SOL    HW2 1119   1.566   1.761   1.026
  187SOL     OW 1120   0.714   0.562   1.705
  187SOL    HW1 1121   0.749   0.629   1.764
  187SOL    HW2 1122   0.751   0.480   1.737
  188SOL     OW 1123   1.470   1.201   1.633
  188SOL    HW1 1124   1.458   1.215   1.726
  188SOL    HW2 1125   1.564   1.216   1.618
  189SOL     OW 1126   0.381   1.743   1.564
  189SOL    HW1 1127   0.296   1.783   1.547
  189SOL    HW2 1128   0.360   1.663   1.611
  190SOL     OW 1129   1.671   0.882   1.255
  190SOL    HW1 1130   1.662   0.797   1.212
  190SOL    HW2 1131   1.661   0.946   1.185
  191SOL     OW 1132   1.218   0.327   0.447
  191SOL    HW1 1133   1.284   0.258   0.438
  191SOL    HW2 1134   1.243   0.373   0.527
  192SOL     OW 1135   0.586   0.739   0.670
  192SOL    HW1 1136   0.628   0.823   0.654
  192SOL    HW2 1137   0.519   0.733   0.602
  193SOL     OW 1138   1.764   0.363   1.643
  193SOL    HW1 1139   1.748   0.377   1.550
  193SOL    HW2 1140   1.685   0.319   1.675
  194SOL     OW 1141   1.744   0.933   1.513
  194SOL    HW1 1142   1.744   1.028   1.526
  194SOL    HW2 1143   1.729   0.923   1.419
  195SOL     OW 1144   0.901   1.357   0.065
  195SOL    HW1 1145   0.830   1.358   0.130
  195SOL    HW2 1146   0.891   1.440   0.017
  196SOL     OW 1147   0.660   1.793   0.947
  196SOL    HW1 1148   0.639   1.883   0.922
  196SOL    HW2 1149   0.755   1.787   0.938
  197SOL     OW 1150   0.867   0.966   0.855
  197SOL    HW1 1151   0.917   0.895   0.894
  197SOL    HW2 1152   0.833   1.016   0.929
  198SOL     OW 1153   1.080   0.990   0.086
  198SOL    HW1 1154   1.055   1.024   0.000
  198SOL    HW2 1155   1.156   0.934   0.068
  199SOL     OW 1156   1.857   1.554   0.844
  199SOL    HW1 1157   1.778   1.546   0.790
  199SOL    HW2 1158   1.844   1.491   0.915
  200SOL     OW 1159   0.229   1.306   1.857
  200SOL    HW1 1160   0.157   1.247   1.834
  200SOL    HW2 1161   0.222   1.316   1.952
  201SOL     OW 1162   0.101   1.233   0.667
  201SOL    HW1 1163   0.117   1.188   0.750
  201SOL    HW2 1164   0.167   1.197   0.608
  202SOL     OW 1165   0.681   1.402   1.627
  202SOL    HW1 1166   0.601   1.358   1.656
  202SOL    HW2 1167   0.675   1.490   1.664
  203SOL     OW 1168   1.810   0.182   1.238
  203SOL    HW1 1169   1.807   0.089   1.259
  203SOL    HW2 1170   1.825   0.185   1.144
  204SOL     OW 1171   0.438   0.431   0.529
  204SOL    HW1 1172   0.459   0.360   0.469
  204SOL    HW2 1173   0.382   0.391   0.595
  205SOL     OW 1174   1.704   1.487   1.094
  205SOL    HW1 1175   1.620   1.464   1.052
  205SOL    HW2 1176   1.715   1.421   1.162
  206SOL     OW 1177   0.311   0.503   1.255
  206SOL    HW1 1178   0.384   0.456   1.296
  206SOL    HW2 1179   0.338   0.514   1.164
  207SOL     OW 1180   0.826   1.577   0.679
  207SOL    HW1 1181   0.816   1.627   0.598
  207SOL    HW2 1182   0.749   1.522   0.683
  208SOL     OW 1183   1.432   0.216   1.118
  208SOL    HW1 1184   1.468   0.145   1.171
  208SOL    HW2 1185   1.381   0.269   1.179
  209SOL     OW 1186   0.996   0.011   1.149
  209SOL    HW1 1187   0.952   4.427   1.139
  209SOL    HW2 1188   1.089   4.489   1.161
  210SOL     OW 1189   0.768   1.328   0.314
  210SOL    HW1 1190   0.738   1.238   0.328
  210SOL    HW2 1191   0.852   1.333   0.359
  211SOL     OW 1192   0.621   1.557   1.285
  211SOL    HW1 1193   0.623   1.638   1.335
  211SOL    HW2 1194   0.708   1.550   1.246
  212SOL     OW 1195   1.349   0.059   0.169
  212SOL    HW1 1196   1.385   0.002   0.101
  212SOL    HW2 1197   1.269   0.014   0.198
  213SOL     OW 1198   1.315   0.463   0.679
  213SOL    HW1 1199   1.253   0.536   0.679
  213SOL    HW2 1200   1.302   0.420   0.764
  214SOL     OW 1201   1.586   0.201   0.868
  214SOL    HW1 1202   1.525   0.216   0.940
  214SOL    HW2 1203   1.588   0.285   0.821
  215SOL     OW 1204   0.039   1.050   0.283
  215SOL    HW1 1205   0.134   1.047   0.284
  215SOL    HW2 1206   0.012   1.016   0.369
  216SOL     OW 1207   0.884   1.652   0.347
  216SOL    HW1 1208   0.813   1.632   0.287
  216SOL    HW2 1209   0.852   1.726   0.398
  217SOL     OW 1210   0.247   0.626   1.982
  217SOL    HW1 1211   0.172   0.608   2.039
  217SOL    HW2 1212   0.214   0.612   1.893
  218SOL     OW 1213   0.195   0.293   2.851
  218SOL    HW1 1214   0.231   0.269   2.937
  218SOL    HW2 1215   0.132   0.224   2.831
  219SOL     OW 1216   0.005   0.379   2.503
  219SOL    HW1 1217   4.426   0.416   2.543
  219SOL    HW2 1218   4.472   0.308   2.448
  220SOL     OW 1219   0.567   1.285   3.036
  220SOL    HW1 1220   0.480   1.290   2.998
  220SOL    HW2 1221   0.583   1.372   3.071
  221SOL     OW 1222   1.559   1.512   2.569
  221SOL    HW1 1223   1.516   1.493   2.652
  221SOL    HW2 1224   1.488   1.516   2.505
  222SOL     OW 1225   1.133   0.699   2.562
  222SOL    HW1 1226   1.180   0.782   2.551
  222SOL    HW2 1227   1.083   0.710   2.643
  223SOL     OW 1228   1.766   0.608   2.091
  223SOL    HW1 1229   1.746   0.598   1.997
  223SOL    HW2 1230   1.734   0.527   2.131
  224SOL     OW 1231   0.757   1.143   2.901
  224SOL    HW1 1232   0.687   1.177   2.958
  224SOL    HW2 1233   0.792   1.220   2.857
  225SOL     OW 1234   0.864   0.776   3.683
  225SOL    HW1 1235   0.851   0.847   3.745
  225SOL    HW2 1236   0.888   0.820   3.601
  226SOL     OW 1237   0.686   1.005   2.510
  226SOL    HW1 1238   0.751   0.991   2.579
  226SOL    HW2 1239   0.616   1.055   2.552
  227SOL     OW 1240   0.710   1.151   3.673
  227SOL    HW1 1241   0.757   1.230   3.698
  227SOL    HW2 1242   0.626   1.182   3.638
  228SOL     OW 1243   0.336   1.422   2.932
  228SOL    HW1 1244   0.255   1.403   2.885
  228SOL    HW2 1245   0.386   1.476   2.871
  229SOL     OW 1246   1.461   1.499   3.214
  229SOL    HW1 1247   1.510   1.581   3.223
  229SOL    HW2 1248   1.403   1.497   3.290
  230SOL     OW 1249   0.438   0.396   3.354
  230SOL    HW1 1250   0.526   0.360   3.355
  230SOL    HW2 1251   0.381   0.320   3.372
  231SOL     OW 1252   1.612   0.447   2.600
  231SOL    HW1 1253   1.532   0.469   2.553
  231SOL    HW2 1254   1.631   0.524   2.653
  232SOL     OW 1255   0.245   1.692   2.340
  232SOL    HW1 1256   0.231   1.776   2.382
  232SOL    HW2 1257   0.311   1.709   2.273
  233SOL     OW 1258   1.136   1.341   3.554
  233SOL    HW1 1259   1.176   1.337   3.641
  233SOL    HW2 1260   1.083   1.261   3.548
  234SOL     OW 1261   0.247   1.427   2.390
  234SOL    HW1 1262   0.238   1.522   2.393
  234SOL    HW2 1263   0.183   1.395   2.453
  235SOL     OW 1264   0.246   1.081   2.745
  235SOL    HW1 1265   0.264   0.993   2.776
  235SOL    HW2 1266   0.187   1.119   2.811
  236SOL     OW 1267   0.615   1.791   3.294
  236SOL    HW1 1268   0.531   1.773   3.337
  236SOL    HW2 1269   0.635   1.881   3.317
  237SOL     OW 1270   0.581   0.985   1.999
  237SOL    HW1 1271   0.628   1.030   1.928
  237SOL    HW2 1272   0.626   1.013   2.078
  238SOL     OW 1273   1.583   0.115   3.334
  238SOL    HW1 1274   1.601   0.184   3.270
  238SOL    HW2 1275   1.573   0.161   3.417
  239SOL     OW 1276   0.136   0.643   2.436
  239SOL    HW1 1277   0.083   0.564   2.453
  239SOL    HW2 1278   0.107   0.705   2.503
  240SOL     OW 1279   1.842   1.761   2.196
  240SOL    HW1 1280   1.902   1.733   2.265
  240SOL    HW2 1281   1.867   1.851   2.177
  241SOL     OW 1282   0.033   1.601   2.000
  241SOL    HW1 1283   0.021   1.506   1.999
  241SOL    HW2 1284   0.017   1.627   2.091
  242SOL     OW 1285   1.691   0.920   2.501
  242SOL    HW1 1286   1.774   0.878   2.481
  242SOL    HW2 1287   1.668   0.969   2.423
  243SOL     OW 1288   1.645   1.108   2.291
  243SOL    HW1 1289   1.731   1.115   2.249
  243SOL    HW2 1290   1.650   1.168   2.365
  244SOL     OW 1291   0.106   0.763   3.447
  244SOL    HW1 1292   0.199   0.761   3.422
  244SOL    HW2 1293   0.087   0.855   3.461
  245SOL     OW 1294   0.613   1.384   2.598
  245SOL    HW1 1295   0.566   1.301   2.607
  245SOL    HW2 1296   0.597   1.410   2.507
  246SOL     OW 1297   1.289   1.238   3.286
  246SOL    HW1 1298   1.322   1.171   3.226
  246SOL    HW2 1299   1.346   1.231   3.363
  247SOL     OW 1300   0.819   0.012   2.411
  247SOL    HW1 1301   0.853   0.098   2.387
  247SOL    HW2 1302   0.724   0.020   2.401
  248SOL     OW 1303   0.181   0.942   3.141
  248SOL    HW1 1304   0.272   0.925   3.120
  248SOL    HW2 1305   0.133   0.924   3.060
  249SOL     OW 1306   1.532   0.992   2.060
  249SOL    HW1 1307   1.461   0.935   2.091
  249SOL    HW2 1308   1.572   1.027   2.139
  250SOL     OW 1309   1.185   1.805   3.483
  250SOL    HW1 1310   1.199   1.863   3.408
  250SOL    HW2 1311   1.201   1.717   3.449
  251SOL     OW 1312   0.318   0.260   3.633
  251SOL    HW1 1313   0.386   0.312   3.675
  251SOL    HW2 1314   0.242   0.268   3.690
  252SOL     OW 1315   1.466   1.419   2.814
  252SOL    HW1 1316   1.397   1.434   2.880
  252SOL    HW2 1317   1.454   1.328   2.787
  253SOL     OW 1318   1.661   1.735   2.439
  253SOL    HW1 1319   1.637   1.706   2.351
  253SOL    HW2 1320   1.635   1.663   2.496
  254SOL     OW 1321   0.596   0.723   2.127
  254SOL    HW1 1322   0.600   0.804   2.076
  254SOL    HW2 1323   0.530   0.740   2.194
  255SOL     OW 1324   1.291   0.361   2.796
  255SOL    HW1 1325   1.202   0.330   2.780
  255SOL    HW2 1326   1.327   0.298   2.858
  256SOL     OW 1327   1.580   1.669   2.171
  256SOL    HW1 1328   1.670   1.702   2.164
  256SOL    HW2 1329   1.554   1.652   2.080
  257SOL     OW 1330   0.797   0.617   3.316
  257SOL    HW1 1331   0.769   0.593   3.404
  257SOL    HW2 1332   0.753   0.555   3.259
  258SOL     OW 1333   1.388   0.478   3.538
  258SOL    HW1 1334   1.391   0.523   3.623
  258SOL    HW2 1335   1.456   0.410   3.544
  259SOL     OW 1336   0.956   0.888   3.444
  259SOL    HW1 1337   1.010   0.817   3.409
  259SOL    HW2 1338   0.909   0.922   3.367
  260SOL     OW 1339   0.997   0.417   3.099
  260SOL    HW1 1340   0.911   0.428   3.139
  260SOL    HW2 1341   0.980   0.365   3.020
  261SOL     OW 1342   1.049   0.698   2.289
  261SOL    HW1 1343   1.065   0.690   2.383
  261SOL    HW2 1344   0.967   0.651   2.275
  262SOL     OW 1345   0.098   0.824   2.645
  262SOL    HW1 1346   0.185   0.807   2.683
  262SOL    HW2 1347   0.048   0.861   2.718
  263SOL     OW 1348   0.123   1.856   3.438
  263SOL    HW1 1349   0.117   1.832   3.531
  263SOL    HW2 1350   0.046   1.817   3.398
  264SOL     OW 1351   0.853   0.368   2.040
  264SOL    HW1 1352   0.928   0.403   1.992
  264SOL    HW2 1353   0.871   0.274   2.047
  265SOL     OW 1354   1.705   0.574   3.690
  265SOL    HW1 1355   1.669   0.650   3.643
  265SOL    HW2 1356   1.740   0.518   3.621
  266SOL     OW 1357   1.376   1.143   2.403
  266SOL    HW1 1358   1.455   1.129   2.350
  266SOL    HW2 1359   1.323   1.205   2.353
  267SOL     OW 1360   0.543   0.203   2.763
  267SOL    HW1 1361   0.562   0.222   2.855
  267SOL    HW2 1362   0.533   0.289   2.722
  268SOL     OW 1363   1.007   1.445   2.335
  268SOL    HW1 1364   0.968   1.517   2.286
  268SOL    HW2 1365   0.991   1.467   2.427
  269SOL     OW 1366   0.355   1.809   2.719
  269SOL    HW1 1367   0.398   1.724   2.730
  269SOL    HW2 1368   0.425   1.873   2.734
  270SOL     OW 1369   1.799   1.058   2.729
  270SOL    HW1 1370   1.743   1.041   2.653
  270SOL    HW2 1371   1.738   1.064   2.803
  271SOL     OW 1372   1.228   1.539   3.375
  271SOL    HW1 1373   1.214   1.466   3.435
  271SOL    HW2 1374   1.166   1.524   3.303
  272SOL     OW 1375   0.317   0.954   2.113
  272SOL    HW1 1376   0.401   0.977   2.074
  272SOL    HW2 1377   0.300   0.865   2.085
  273SOL     OW 1378   1.478   0.741   2.587
  273SOL    HW1 1379   1.466   0.696   2.671
  273SOL    HW2 1380   1.554   0.797   2.601
  274SOL     OW 1381   0.467   1.262   3.597
  274SOL    HW1 1382   0.439   1.268   3.506
  274SOL    HW2 1383   0.385   1.267   3.647
  275SOL     OW 1384   1.121   1.778   2.093
  275SOL    HW1 1385   1.049   1.735   2.140
  275SOL    HW2 1386   1.143   1.717   2.023
  276SOL     OW 1387   0.164   0.264   3.371
  276SOL    HW1 1388   0.136   0.351   3.344
  276SOL    HW2 1389   0.198   0.277   3.460
  277SOL     OW 1390   1.629   1.380   1.949
  277SOL    HW1 1391   1.587   1.465   1.933
  277SOL    HW2 1392   1.560   1.316   1.930
  278SOL     OW 1393   0.469   1.743   2.176
  278SOL    HW1 1394   0.510   1.797   2.245
  278SOL    HW2 1395   0.542   1.710   2.125
  279SOL     OW 1396   1.418   0.135   2.280
  279SOL    HW1 1397   1.402   0.086   2.200
  279SOL    HW2 1398   1.513   0.131   2.292
  280SOL     OW 1399   0.256   1.790   3.097
  280SOL    HW1 1400   0.305   1.716   3.134
  280SOL    HW2 1401   0.227   1.759   3.011
  281SOL     OW 1402   0.938   1.699   2.762
  281SOL    HW1 1403   1.015   1.646   2.783
  281SOL    HW2 1404   0.893   1.649   2.693
  282SOL     OW 1405   0.393   0.694   2.335
  282SOL    HW1 1406   0.418   0.602   2.347
  282SOL    HW2 1407   0.301   0.697   2.361
  283SOL     OW 1408   1.526   0.233   3.584
  283SOL    HW1 1409   1.525   0.256   3.677
  283SOL    HW2 1410   1.449   0.177   3.573
  284SOL     OW 1411   0.623   0.122   1.979
  284SOL    HW1 1412   0.711   0.087   1.992
  284SOL    HW2 1413   0.594   0.085   1.896
  285SOL     OW 1414   0.768   0.269   3.615
  285SOL    HW1 1415   0.835   0.201   3.627
  285SOL    HW2 1416   0.727   0.277   3.701
  286SOL     OW 1417   0.877   1.522   3.055
  286SOL    HW1 1418   0.861   1.485   2.968
  286SOL    HW2 1419   0.946   1.467   3.092
  287SOL     OW 1420   1.342   0.589   3.291
  287SOL    HW1 1421   1.369   0.560   3.378
  287SOL    HW2 1422   1.376   0.678   3.284
  288SOL     OW 1423   0.814   1.396   2.800
  288SOL    HW1 1424   0.898   1.385   2.755
  288SOL    HW2 1425   0.749   1.396   2.729
  289SOL     OW 1426   0.922   0.517   2.763
  289SOL    HW1 1427   0.906   0.515   2.669
  289SOL    HW2 1428   0.962   0.431   2.782
  290SOL     OW 1429   0.560   0.068   2.371
  290SOL    HW1 1430   0.473   0.054   2.408
  290SOL    HW2 1431   0.548   0.139   2.308
  291SOL     OW 1432   1.428   1.198   1.903
  291SOL    HW1 1433   1.458   1.122   1.953
  291SOL    HW2 1434   1.343   1.219   1.940
  292SOL     OW 1435   0.304   0.075   2.048
  292SOL    HW1 1436   0.387   0.121   2.045
  292SOL    HW2 1437   0.320   4.499   2.104
  293SOL     OW 1438   0.952   0.240   2.333
  293SOL    HW1 1439   0.900   0.292   2.272
  293SOL    HW2 1440   1.040   0.276   2.325
  294SOL     OW 1441   1.080   0.680   3.323
  294SOL    HW1 1442   1.009   0.616   3.323
  294SOL    HW2 1443   1.160   0.628   3.311
  295SOL     OW 1444   1.225   1.569   2.655
  295SOL    HW1 1445   1.241   1.637   2.590
  295SOL    HW2 1446   1.292   1.583   2.722
  296SOL     OW 1447   0.465   1.149   2.599
  296SOL    HW1 1448   0.394   1.130   2.660
  296SOL    HW2 1449   0.428   1.133   2.512
  297SOL     OW 1450   1.270   1.794   2.469
  297SOL    HW1 1451   1.315   1.856   2.411
  297SOL    HW2 1452   1.205   1.847   2.514
  298SOL     OW 1453   1.030   0.548   1.878
  298SOL    HW1 1454   0.982   0.630   1.862
  298SOL    HW2 1455   1.088   0.569   1.951
  299SOL     OW 1456   0.093   0.520   3.275
  299SOL    HW1 1457   0.152   0.529   3.200
  299SOL    HW2 1458   0.061   0.609   3.291
  300SOL     OW 1459   0.562   0.243   3.028
  300SOL    HW1 1460   0.593   0.159   3.062
  300SOL    HW2 1461   0.469   0.244   3.047
  301SOL     OW 1462   0.866   0.502   2.488
  301SOL    HW1 1463   0.818   0.544   2.417
  301SOL    HW2 1464   0.840   0.410   2.484
  302SOL     OW 1465   0.966   0.028   2.642
  302SOL    HW1 1466   0.917   0.025   2.560
  302SOL    HW2 1467   0.978   4.436   2.665
  303SOL     OW 1468   1.436   1.163   2.719
  303SOL    HW1 1469   1.368   1.096   2.718
  303SOL    HW2 1470   1.459   1.175   2.627
  304SOL     OW 1471   1.467   0.604   2.839
  304SOL    HW1 1472   1.414   0.524   2.841
  304SOL    HW2 1473   1.525   0.597   2.914
  305SOL     OW 1474   1.847   0.818   2.244
  305SOL    HW1 1475   1.903   0.766   2.302
  305SOL    HW2 1476   1.818   0.756   2.177
  306SOL     OW 1477   0.492   1.416   2.022
  306SOL    HW1 1478   0.415   1.386   2.072
  306SOL    HW2 1479   0.473   1.391   1.932
  307SOL     OW 1480   1.670   1.265   2.508
  307SOL    HW1 1481   1.764   1.270   2.522
  307SOL    HW2 1482   1.638   1.353   2.530
  308SOL     OW 1483   1.394   0.570   1.932
  308SOL    HW1 1484   1.333   0.554   2.004
  308SOL    HW2 1485   1.480   0.551   1.969
  309SOL     OW 1486   0.522   0.264   2.184
  309SOL    HW1 1487   0.569   0.214   2.117
  309SOL    HW2 1488   0.507   0.350   2.143
  310SOL     OW 1489   1.753   1.237   3.438
  310SOL    HW1 1490   1.841   1.199   3.433
  310SOL    HW2 1491   1.769   1.328   3.465
  311SOL     OW 1492   1.060   1.354   3.196
  311SOL    HW1 1493   0.985   1.323   3.247
  311SOL    HW2 1494   1.135   1.312   3.237
  312SOL     OW 1495   1.607   1.624   3.514
  312SOL    HW1 1496   1.602   1.660   3.426
  312SOL    HW2 1497   1.691   1.578   3.517
  313SOL     OW 1498   1.127   1.202   2.968
  313SOL    HW1 1499   1.068   1.240   3.034
  313SOL    HW2 1500   1.094   1.233   2.884
  314SOL     OW 1501   1.630   1.099   2.940
  314SOL    HW1 1502   1.625   1.161   3.013
  314SOL    HW2 1503   1.550   1.115   2.890
  315SOL     OW 1504   0.903   0.132   3.251
  315SOL    HW1 1505   0.925   0.088   3.169
  315SOL    HW2 1506   0.987   0.146   3.294
  316SOL     OW 1507   0.984   1.114   3.585
  316SOL    HW1 1508   0.892   1.130   3.605
  316SOL    HW2 1509   0.983   1.037   3.529
  317SOL     OW 1510   0.708   1.060   2.234
  317SOL    HW1 1511   0.696   1.045   2.328
  317SOL    HW2 1512   0.784   1.007   2.211
  318SOL     OW 1513   0.430   0.825   3.102
  318SOL    HW1 1514   0.498   0.835   3.168
  318SOL    HW2 1515   0.371   0.759   3.138
  319SOL     OW 1516   1.269   0.376   3.135
  319SOL    HW1 1517   1.301   0.454   3.179
  319SOL    HW2 1518   1.180   0.398   3.107
  320SOL     OW 1519   0.062   1.576   3.204
  320SOL    HW1 1520   0.035   1.665   3.179
  320SOL    HW2 1521   0.157   1.581   3.209
  321SOL     OW 1522   0.348   1.108   2.355
  321SOL    HW1 1523   0.358   1.181   2.295
  321SOL    HW2 1524   0.350   1.030   2.299
  322SOL     OW 1525   0.564   0.528   2.716
  322SOL    HW1 1526   0.576   0.588   2.643
  322SOL    HW2 1527   0.623   0.560   2.784
  323SOL     OW 1528   1.248   1.348   2.251
  323SOL    HW1 1529   1.303   1.420   2.282
  323SOL    HW2 1530   1.161   1.369   2.285
  324SOL     OW 1531   1.279   1.457   3.008
  324SOL    HW1 1532   1.334   1.459   3.086
  324SOL    HW2 1533   1.224   1.379   3.021
  325SOL     OW 1534   1.583   0.624   2.338
  325SOL    HW1 1535   1.537   0.676   2.404
  325SOL    HW2 1536   1.627   0.689   2.284
  326SOL     OW 1537   0.347   1.530   3.178
  326SOL    HW1 1538   0.333   1.483   3.096
  326SOL    HW2 1539   0.442   1.540   3.184
  327SOL     OW 1540   0.481   0.760   3.529
  327SOL    HW1 1541   0.506   0.798   3.445
  327SOL    HW2 1542   0.520   0.672   3.528
  328SOL     OW 1543   1.599   0.777   3.542
  328SOL    HW1 1544   1.513   0.819   3.535
  328SOL    HW2 1545   1.652   0.820   3.474
  329SOL     OW 1546   1.006   0.086   3.584
  329SOL    HW1 1547   1.033   0.169   3.546
  329SOL    HW2 1548   1.031   0.020   3.519
  330SOL     OW 1549   0.496   0.045   3.613
  330SOL    HW1 1550   0.479   4.497   3.531
  330SOL    HW2 1551   0.429   0.114   3.614
  331SOL     OW 1552   0.589   0.874   2.885
  331SOL    HW1 1553   0.618   0.965   2.888
  331SOL    HW2 1554   0.533   0.865   2.963
  332SOL     OW 1555   1.359   0.858   2.893
  332SOL    HW1 1556   1.277   0.851   2.846
  332SOL    HW2 1557   1.398   0.771   2.888
  333SOL     OW 1558   1.205   0.535   2.126
  333SOL    HW1 1559   1.211   0.454   2.178
  333SOL    HW2 1560   1.162   0.598   2.185
  334SOL     OW 1561   0.285   0.218   3.096
  334SOL    HW1 1562   0.247   0.235   3.182
  334SOL    HW2 1563   0.323   0.130   3.104
  335SOL     OW 1564   0.043   1.313   3.147
  335SOL    HW1 1565   0.077   1.266   3.223
  335SOL    HW2 1566   0.047   1.405   3.172
  336SOL     OW 1567   0.724   0.631   2.921
  336SOL    HW1 1568   0.798   0.611   2.864
  336SOL    HW2 1569   0.699   0.720   2.896
  337SOL     OW 1570   1.734   0.959   3.714
  337SOL    HW1 1571   1.686   0.901   3.654
  337SOL    HW2 1572   1.675   0.971   3.788
  338SOL     OW 1573   0.319   0.075   2.493
  338SOL    HW1 1574   0.302   0.163   2.526
  338SOL    HW2 1575   0.307   0.018   2.569
  339SOL     OW 1576   1.613   0.376   2.226
  339SOL    HW1 1577   1.643   0.313   2.292
  339SOL    HW2 1578   1.590   0.454   2.277
  340SOL     OW 1579   1.028   0.761   2.824
  340SOL    HW1 1580   1.026   0.777   2.918
  340SOL    HW2 1581   0.999   0.670   2.814
  341SOL     OW 1582   0.983   1.566   3.578
  341SOL    HW1 1583   0.967   1.610   3.494
  341SOL    HW2 1584   1.025   1.484   3.554
  342SOL     OW 1585   1.856   1.506   3.467
  342SOL    HW1 1586   1.870   1.535   3.377
  342SOL    HW2 1587   1.937   1.530   3.512
  343SOL     OW 1588   0.347   0.932   3.680
  343SOL    HW1 1589   0.420   0.961   3.735
  343SOL    HW2 1590   0.385   0.865   3.623
  344SOL     OW 1591   1.531   0.266   1.990
  344SOL    HW1 1592   1.459   0.210   2.018
  344SOL    HW2 1593   1.560   0.311   2.069
  345SOL     OW 1594   1.293   0.827   1.893
  345SOL    HW1 1595   1.335   0.741   1.896
  345SOL    HW2 1596   1.324   0.866   1.812
  346SOL     OW 1597   1.065   1.335   2.715
  346SOL    HW1 1598   1.068   1.262   2.653
  346SOL    HW2 1599   1.127   1.399   2.680
  347SOL     OW 1600   0.318   0.813   2.810
  347SOL    HW1 1601   0.412   0.830   2.807
  347SOL    HW2 1602   0.311   0.722   2.841
  348SOL     OW 1603   0.336   0.529   2.854
  348SOL    HW1 1604   0.291   0.446   2.834
  348SOL    HW2 1605   0.413   0.528   2.797
  349SOL     OW 1606   1.135   0.374   3.557
  349SOL    HW1 1607   1.086   0.439   3.608
  349SOL    HW2 1608   1.221   0.414   3.543
  350SOL     OW 1609   1.158   0.212   3.335
  350SOL    HW1 1610   1.151   0.276   3.406
  350SOL    HW2 1611   1.196   0.261   3.262
  351SOL     OW 1612   4.492   1.323   2.065
  351SOL    HW1 1613   4.399   1.338   2.048
  351SOL    HW2 1614   4.497   1.230   2.088
  352SOL     OW 1615   0.096   1.779   2.802
  352SOL    HW1 1616   0.058   1.722   2.734
  352SOL    HW2 1617   0.184   1.799   2.769
  353SOL     OW 1618   0.497   1.573   2.769
  353SOL    HW1 1619   0.566   1.636   2.792
  353SOL    HW2 1620   0.542   1.510   2.713
  354SOL     OW 1621   0.986   0.794   3.090
  354SOL    HW1 1622   1.040   0.770   3.165
  354SOL    HW2 1623   0.900   0.756   3.109
  355SOL     OW 1624   0.039   0.567   2.973
  355SOL    HW1 1625   0.113   0.523   2.931
  355SOL    HW2 1626   0.019   0.513   3.050
  356SOL     OW 1627   0.180   0.521   3.573
  356SOL    HW1 1628   0.266   0.504   3.536
  356SOL    HW2 1629   0.151   0.602   3.531
  357SOL     OW 1630   1.377   0.940   3.521
  357SOL    HW1 1631   1.397   1.033   3.520
  357SOL    HW2 1632   1.374   0.915   3.429
  358SOL     OW 1633   0.812   0.573   2.216
  358SOL    HW1 1634   0.814   0.502   2.152
  358SOL    HW2 1635   0.738   0.628   2.187
  359SOL     OW 1636   1.641   0.601   3.050
  359SOL    HW1 1637   1.631   0.542   3.124
  359SOL    HW2 1638   1.728   0.581   3.015
  360SOL     OW 1639   0.272   1.562   3.603
  360SOL    HW1 1640   0.217   1.614   3.662
  360SOL    HW2 1641   0.252   1.471   3.626
  361SOL     OW 1642   0.685   0.464   3.129
  361SOL    HW1 1643   0.647   0.383   3.093
  361SOL    HW2 1644   0.692   0.523   3.054
  362SOL     OW 1645   0.929   1.679   3.329
  362SOL    HW1 1646   0.903   1.646   3.243
  362SOL    HW2 1647   0.926   1.774   3.320
  363SOL     OW 1648   0.473   0.491   2.046
  363SOL    HW1 1649   0.532   0.562   2.069
  363SOL    HW2 1650   0.388   0.533   2.031
  364SOL     OW 1651   0.162   1.141   3.324
  364SOL    HW1 1652   0.146   1.094   3.406
  364SOL    HW2 1653   0.170   1.071   3.259
  365SOL     OW 1654   1.327   1.048   3.086
  365SOL    HW1 1655   1.351   0.985   3.018
  365SOL    HW2 1656   1.256   1.099   3.048
  366SOL     OW 1657   1.311   0.856   2.169
  366SOL    HW1 1658   1.235   0.827   2.219
  366SOL    HW2 1659   1.285   0.843   2.077
  367SOL     OW 1660   1.765   1.742   3.010
  367SOL    HW1 1661   1.828   1.772   2.945
  367SOL    HW2 1662   1.748   1.651   2.987
  368SOL     OW 1663   1.241   1.733   2.976
  368SOL    HW1 1664   1.323   1.753   2.931
  368SOL    HW2 1665   1.246   1.639   2.995
  369SOL     OW 1666   0.067   1.186   2.911
  369SOL    HW1 1667   0.069   1.219   3.001
  369SOL    HW2 1668   0.017   1.252   2.862
  370SOL     OW 1669   0.679   1.665   3.589
  370SOL    HW1 1670   0.624   1.743   3.584
  370SOL    HW2 1671   0.742   1.675   3.518
  371SOL     OW 1672   1.718   0.130   2.357
  371SOL    HW1 1673   1.791   0.137   2.295
  371SOL    HW2 1674   1.742   0.057   2.414
  372SOL     OW 1675   1.390   1.568   2.346
  372SOL    HW1 1676   1.450   1.600   2.278
  372SOL    HW2 1677   1.342   1.645   2.374
  373SOL     OW 1678   0.119   1.808   3.710
  373SOL    HW1 1679   0.080   1.734   3.757
  373SOL    HW2 1680   0.183   1.844   3.771
  374SOL     OW 1681   1.278   0.927   2.534
  374SOL    HW1 1682   1.351   0.864   2.538
  374SOL    HW2 1683   1.312   0.999   2.482
  375SOL     OW 1684   0.816   1.273   3.293
  375SOL    HW1 1685   0.789   1.312   3.376
  375SOL    HW2 1686   0.746   1.295   3.232
  376SOL     OW 1687   0.673   1.618   2.017
  376SOL    HW1 1688   0.682   1.629   1.923
  376SOL    HW2 1689   0.618   1.540   2.027
  377SOL     OW 1690   1.627   1.726   3.253
  377SOL    HW1 1691   1.677   1.734   3.172
  377SOL    HW2 1692   1.614   1.816   3.282
  378SOL     OW 1693   1.839   0.155   2.828
  378SOL    HW1 1694   1.868   0.078   2.779
  378SOL    HW2 1695   1.752   0.174   2.793
  379SOL     OW 1696   0.265   0.325   2.586
  379SOL    HW1 1697   0.182   0.360   2.552
  379SOL    HW2 1698   0.250   0.316   2.680
  380SOL     OW 1699   1.207   1.607   1.893
  380SOL    HW1 1700   1.198   1.516   1.920
  380SOL    HW2 1701   1.142   1.618   1.824
  381SOL     OW 1702   0.825   1.007   3.234
  381SOL    HW1 1703   0.868   1.003   3.148
  381SOL    HW2 1704   0.825   1.099   3.257
  382SOL     OW 1705   0.915   0.910   2.151
  382SOL    HW1 1706   0.977   0.942   2.086
  382SOL    HW2 1707   0.962   0.840   2.197
  383SOL     OW 1708   1.493   1.625   1.904
  383SOL    HW1 1709   1.399   1.620   1.891
  383SOL    HW2 1710   1.529   1.631   1.815
  384SOL     OW 1711   0.373   1.306   3.353
  384SOL    HW1 1712   0.356   1.385   3.301
  384SOL    HW2 1713   0.297   1.250   3.336
  385SOL     OW 1714   1.611   1.283   3.142
  385SOL    HW1 1715   1.672   1.275   3.216
  385SOL    HW2 1716   1.551   1.353   3.169
  386SOL     OW 1717   1.050   1.106   2.567
  386SOL    HW1 1718   0.980   1.055   2.607
  386SOL    HW2 1719   1.112   1.041   2.535
  387SOL     OW 1720   1.005   0.243   2.864
  387SOL    HW1 1721   1.012   0.218   2.772
  387SOL    HW2 1722   0.999   0.159   2.911
  388SOL     OW 1723   0.603   1.489   2.345
  388SOL    HW1 1724   0.644   1.439   2.274
  388SOL    HW2 1725   0.531   1.536   2.303
  389SOL     OW 1726   1.720   0.393   3.239
  389SOL    HW1 1727   1.793   0.456   3.239
  389SOL    HW2 1728   1.750   0.322   3.183
  390SOL     OW 1729   0.252   1.344   2.139
  390SOL    HW1 1730   0.157   1.345   2.124
  390SOL    HW2 1731   0.263   1.377   2.228
  391SOL     OW 1732   0.116   1.007   3.558
  391SOL    HW1 1733   0.052   1.049   3.615
  391SOL    HW2 1734   0.194   0.997   3.612
  392SOL     OW 1735   0.659   0.208   3.359
  392SOL    HW1 1736   0.738   0.181   3.312
  392SOL    HW2 1737   0.687   0.224   3.449
  393SOL     OW 1738   0.071   0.320   1.888
  393SOL    HW1 1739   4.476   0.329   1.901
  393SOL    HW2 1740   0.099   0.406   1.857
  394SOL     OW 1741   1.431   0.858   3.263
  394SOL    HW1 1742   1.382   0.919   3.207
  394SOL    HW2 1743   1.520   0.861   3.229
  395SOL     OW 1744   0.084   0.188   2.165
  395SOL    HW1 1745   0.078   0.261   2.102
  395SOL    HW2 1746   0.163   0.141   2.139
  396SOL     OW 1747   1.179   1.340   1.979
  396SOL    HW1 1748   1.088   1.311   1.981
  396SOL    HW2 1749   1.208   1.340   2.070
  397SOL     OW 1750   0.622   0.830   3.291
  397SOL    HW1 1751   0.677   0.908   3.278
  397SOL    HW2 1752   0.685   0.758   3.300
  398SOL     OW 1753   1.485   1.774   2.839
  398SOL    HW1 1754   1.508   1.836   2.769
  398SOL    HW2 1755   1.566   1.762   2.887
  399SOL     OW 1756   0.714   0.562   3.567
  399SOL    HW1 1757   0.749   0.629   3.626
  399SOL    HW2 1758   0.751   0.480   3.599
  400SOL     OW 1759   1.470   1.201   3.495
  400SOL    HW1 1760   1.458   1.215   3.589
  400SOL    HW2 1761   1.564   1.215   3.480
  401SOL     OW 1762   0.381   1.743   3.426
  401SOL    HW1 1763   0.296   1.784   3.409
  401SOL    HW2 1764   0.360   1.663   3.474
  402SOL     OW 1765   1.671   0.882   3.117
  402SOL    HW1 1766   1.662   0.797   3.074
  402SOL    HW2 1767   1.661   0.946   3.047
  403SOL     OW 1768   1.218   0.329   2.310
  403SOL    HW1 1769   1.283   0.259   2.300
  403SOL    HW2 1770   1.245   0.376   2.388
  404SOL     OW 1771   0.588   0.738   2.531
  404SOL    HW1 1772   0.628   0.824   2.516
  404SOL    HW2 1773   0.519   0.732   2.465
  405SOL     OW 1774   1.764   0.363   3.505
  405SOL    HW1 1775   1.748   0.377   3.412
  405SOL    HW2 1776   1.685   0.319   3.537
  406SOL     OW 1777   1.744   0.933   3.375
  406SOL    HW1 1778   1.744   1.028   3.388
  406SOL    HW2 1779   1.729   0.922   3.281
  407SOL     OW 1780   0.863   1.368   1.894
  407SOL    HW1 1781   0.824   1.394   1.977
  407SOL    HW2 1782   0.881   1.450   1.848
  408SOL     OW 1783   0.660   1.793   2.809
  408SOL    HW1 1784   0.639   1.883   2.784
  408SOL    HW2 1785   0.755   1.787   2.800
  409SOL     OW 1786   0.867   0.966   2.717
  409SOL    HW1 1787   0.917   0.895   2.756
  409SOL    HW2 1788   0.833   1.016   2.792
  410SOL     OW 1789   1.080   0.988   1.951
  410SOL    HW1 1790   1.057   1.039   1.873
  410SOL    HW2 1791   1.155   0.935   1.924
  411SOL     OW 1792   1.856   1.552   2.704
  411SOL    HW1 1793   1.775   1.543   2.653
  411SOL    HW2 1794   1.845   1.491   2.777
  412SOL     OW 1795   0.229   1.306   3.719
  412SOL    HW1 1796   0.157   1.247   3.696
  412SOL    HW2 1797   0.222   1.316   3.814
  413SOL     OW 1798   0.104   1.237   2.529
  413SOL    HW1 1799   0.113   1.189   2.611
  413SOL    HW2 1800   0.164   1.193   2.469
  414SOL     OW 1801   0.681   1.402   3.489
  414SOL    HW1 1802   0.601   1.358   3.518
  414SOL    HW2 1803   0.675   1.490   3.526
  415SOL     OW 1804   1.810   0.182   3.101
  415SOL    HW1 1805   1.808   0.089   3.121
  415SOL    HW2 1806   1.825   0.185   3.006
  416SOL     OW 1807   0.439   0.431   2.392
  416SOL    HW1 1808   0.458   0.361   2.330
  416SOL    HW2 1809   0.381   0.391   2.457
  417SOL     OW 1810   1.704   1.486   2.955
  417SOL    HW1 1811   1.620   1.464   2.914
  417SOL    HW2 1812   1.716   1.421   3.024
  418SOL     OW 1813   0.312   0.504   3.117
  418SOL    HW1 1814   0.384   0.456   3.157
  418SOL    HW2 1815   0.338   0.514   3.026
  419SOL     OW 1816   0.826   1.578   2.540
  419SOL    HW1 1817   0.816   1.628   2.459
  419SOL    HW2 1818   0.749   1.522   2.544
  420SOL     OW 1819   1.432   0.215   2.980
  420SOL    HW1 1820   1.468   0.145   3.034
  420SOL    HW2 1821   1.381   0.269   3.041
  421SOL     OW 1822   0.996   0.009   3.012
  421SOL    HW1 1823   0.953   4.425   3.002
  421SOL    HW2 1824   1.089   4.487   3.023
  422SOL     OW 1825   0.772   1.332   2.174
  422SOL    HW1 1826   0.740   1.242   2.181
  422SOL    HW2 1827   0.854   1.332   2.223
  423SOL     OW 1828   0.621   1.557   3.147
  423SOL    HW1 1829   0.623   1.639   3.197
  423SOL    HW2 1830   0.708   1.550   3.108
  424SOL     OW 1831   1.341   0.053   2.015
  424SOL    HW1 1832   1.380   4.478   1.970
  424SOL    HW2 1833   1.266   0.017   2.061
  425SOL     OW 1834   1.314   0.462   2.540
  425SOL    HW1 1835   1.254   0.537   2.541
  425SOL    HW2 1836   1.302   0.421   2.626
  426SOL     OW 1837   1.586   0.201   2.730
  426SOL    HW1 1838   1.525   0.216   2.803
  426SOL    HW2 1839   1.588   0.285   2.683
  427SOL     OW 1840   0.041   1.052   2.149
  427SOL    HW1 1841   0.135   1.038   2.141
  427SOL    HW2 1842   0.020   1.017   2.236
  428SOL     OW 1843   0.883   1.651   2.205
  428SOL    HW1 1844   0.811   1.633   2.145
  428SOL    HW2 1845   0.854   1.727   2.256
  429SOL     OW 1846   0.247   0.626   3.844
  429SOL    HW1 1847   0.172   0.608   3.901
  429SOL    HW2 1848   0.214   0.612   3.755
  430SOL     OW 1849   0.195   0.293   4.714
  430SOL    HW1 1850   0.230   0.269   4.799
  430SOL    HW2 1851   0.131   0.224   4.693
  431SOL     OW 1852   0.005   0.379   4.365
  431SOL    HW1 1853   4.426   0.416   4.405
  431SOL    HW2 1854   4.472   0.308   4.310
  432SOL     OW 1855   0.567   1.285   4.898
  432SOL    HW1 1856   0.480   1.289   4.860
  432SOL    HW2 1857   0.583   1.373   4.933
  433SOL     OW 1858   1.558   1.516   4.431
  433SOL    HW1 1859   1.515   1.492   4.513
  433SOL    HW2 1860   1.487   1.517   4.367
  434SOL     OW 1861   1.133   0.699   4.424
  434SOL    HW1 1862   1.180   0.782   4.413
  434SOL    HW2 1863   1.083   0.711   4.505
  435SOL     OW 1864   1.766   0.608   3.952
  435SOL    HW1 1865   1.746   0.598   3.859
  435SOL    HW2 1866   1.733   0.527   3.993
  436SOL     OW 1867   0.757   1.143   4.764
  436SOL    HW1 1868   0.688   1.178   4.820
  436SOL    HW2 1869   0.792   1.220   4.718
  437SOL     OW 1870   0.865   0.776   5.545
  437SOL    HW1 1871   0.850   0.847   5.607
  437SOL    HW2 1872   0.888   0.820   5.463
  438SOL     OW 1873   0.686   1.005   4.372
  438SOL    HW1 1874   0.751   0.991   4.441
  438SOL    HW2 1875   0.616   1.055   4.414
  439SOL     OW 1876   0.710   1.151   5.535
  439SOL    HW1 1877   0.757   1.230   5.560
  439SOL    HW2 1878   0.627   1.182   5.500
  440SOL     OW 1879   0.336   1.422   4.794
  440SOL    HW1 1880   0.254   1.403   4.747
  440SOL    HW2 1881   0.386   1.476   4.733
  441SOL     OW 1882   1.458   1.493   5.078
  441SOL    HW1 1883   1.502   1.578   5.082
  441SOL    HW2 1884   1.396   1.494   5.151
  442SOL     OW 1885   0.438   0.395   5.216
  442SOL    HW1 1886   0.527   0.360   5.217
  442SOL    HW2 1887   0.381   0.320   5.234
  443SOL     OW 1888   1.612   0.447   4.462
  443SOL    HW1 1889   1.532   0.470   4.415
  443SOL    HW2 1890   1.632   0.525   4.514
  444SOL     OW 1891   0.245   1.692   4.202
  444SOL    HW1 1892   0.231   1.777   4.244
  444SOL    HW2 1893   0.311   1.709   4.135
  445SOL     OW 1894   1.136   1.341   5.416
  445SOL    HW1 1895   1.176   1.337   5.503
  445SOL    HW2 1896   1.083   1.262   5.409
  446SOL     OW 1897   0.247   1.427   4.252
  446SOL    HW1 1898   0.238   1.522   4.255
  446SOL    HW2 1899   0.183   1.395   4.315
  447SOL     OW 1900   0.246   1.081   4.607
  447SOL    HW1 1901   0.263   0.993   4.638
  447SOL    HW2 1902   0.187   1.119   4.673
  448SOL     OW 1903   0.615   1.791   5.156
  448SOL    HW1 1904   0.531   1.772   5.199
  448SOL    HW2 1905   0.635   1.881   5.180
  449SOL     OW 1906   0.581   0.985   3.861
  449SOL    HW1 1907   0.628   1.030   3.790
  449SOL    HW2 1908   0.626   1.013   3.940
  450SOL     OW 1909   1.583   0.115   5.196
  450SOL    HW1 1910   1.601   0.184   5.132
  450SOL    HW2 1911   1.573   0.162   5.279
  451SOL     OW 1912   0.136   0.643   4.299
  451SOL    HW1 1913   0.083   0.564   4.314
  451SOL    HW2 1914   0.107   0.705   4.365
  452SOL     OW 1915   1.839   1.763   4.059
  452SOL    HW1 1916   1.901   1.729   4.123
  452SOL    HW2 1917   1.869   1.852   4.042
  453SOL     OW 1918   0.033   1.601   3.862
  453SOL    HW1 1919   0.021   1.506   3.861
  453SOL    HW2 1920   0.016   1.626   3.953
  454SOL     OW 1921   1.689   0.919   4.363
  454SOL    HW1 1922   1.775   0.879   4.344
  454SOL    HW2 1923   1.668   0.970   4.285
  455SOL     OW 1924   1.646   1.109   4.154
  455SOL    HW1 1925   1.732   1.115   4.112
  455SOL    HW2 1926   1.651   1.169   4.228
  456SOL     OW 1927   0.106   0.763   5.308
  456SOL    HW1 1928   0.199   0.761   5.285
  456SOL    HW2 1929   0.087   0.855   5.323
  457SOL     OW 1930   0.613   1.384   4.460
  457SOL    HW1 1931   0.566   1.301   4.469
  457SOL    HW2 1932   0.597   1.410   4.370
  458SOL     OW 1933   1.288   1.238   5.148
  458SOL    HW1 1934   1.321   1.171   5.088
  458SOL    HW2 1935   1.345   1.231   5.225
  459SOL     OW 1936   0.819   0.012   4.273
  459SOL    HW1 1937   0.853   0.098   4.249
  459SOL    HW2 1938   0.724   0.020   4.263
  460SOL     OW 1939   0.181   0.942   5.003
  460SOL    HW1 1940   0.272   0.925   4.982
  460SOL    HW2 1941   0.133   0.924   4.922
  461SOL     OW 1942   1.532   0.992   3.922
  461SOL    HW1 1943   1.462   0.935   3.953
  461SOL    HW2 1944   1.572   1.027   4.002
  462SOL     OW 1945   1.182   1.803   5.345
  462SOL    HW1 1946   1.198   1.862   5.271
  462SOL    HW2 1947   1.199   1.716   5.311
  463SOL     OW 1948   0.318   0.260   5.495
  463SOL    HW1 1949   0.386   0.312   5.537
  463SOL    HW2 1950   0.242   0.268   5.552
  464SOL     OW 1951   1.465   1.421   4.676
  464SOL    HW1 1952   1.398   1.435   4.742
  464SOL    HW2 1953   1.455   1.330   4.649
  465SOL     OW 1954   1.660   1.738   4.301
  465SOL    HW1 1955   1.638   1.708   4.212
  465SOL    HW2 1956   1.635   1.666   4.358
  466SOL     OW 1957   0.596   0.723   3.989
  466SOL    HW1 1958   0.600   0.804   3.938
  466SOL    HW2 1959   0.530   0.740   4.056
  467SOL     OW 1960   1.291   0.361   4.658
  467SOL    HW1 1961   1.202   0.330   4.641
  467SOL    HW2 1962   1.327   0.298   4.720
  468SOL     OW 1963   1.580   1.670   4.033
  468SOL    HW1 1964   1.670   1.702   4.026
  468SOL    HW2 1965   1.554   1.652   3.942
  469SOL     OW 1966   0.797   0.617   5.178
  469SOL    HW1 1967   0.769   0.593   5.266
  469SOL    HW2 1968   0.753   0.555   5.121
  470SOL     OW 1969   1.389   0.479   5.400
  470SOL    HW1 1970   1.392   0.523   5.485
  470SOL    HW2 1971   1.455   0.410   5.406
  471SOL     OW 1972   0.956   0.888   5.306
  471SOL    HW1 1973   1.010   0.817   5.271
  471SOL    HW2 1974   0.909   0.922   5.229
  472SOL     OW 1975   0.997   0.417   4.961
  472SOL    HW1 1976   0.910   0.428   5.001
  472SOL    HW2 1977   0.981   0.366   4.882
  473SOL     OW 1978   1.049   0.698   4.151
  473SOL    HW1 1979   1.065   0.690   4.245
  473SOL    HW2 1980   0.967   0.651   4.137
  474SOL     OW 1981   0.098   0.825   4.507
  474SOL    HW1 1982   0.185   0.808   4.545
  474SOL    HW2 1983   0.048   0.861   4.580
  475SOL     OW 1984   0.123   1.856   5.300
  475SOL    HW1 1985   0.118   1.832   5.393
  475SOL    HW2 1986   0.045   1.818   5.260
  476SOL     OW 1987   0.853   0.368   3.902
  476SOL    HW1 1988   0.928   0.404   3.854
  476SOL    HW2 1989   0.871   0.274   3.909
  477SOL     OW 1990   1.705   0.574   5.552
  477SOL    HW1 1991   1.669   0.650   5.505
  477SOL    HW2 1992   1.740   0.518   5.483
  478SOL     OW 1993   1.376   1.142   4.265
  478SOL    HW1 1994   1.455   1.130   4.213
  478SOL    HW2 1995   1.324   1.204   4.214
  479SOL     OW 1996   0.543   0.203   4.625
  479SOL    HW1 1997   0.562   0.222   4.717
  479SOL    HW2 1998   0.533   0.289   4.583
  480SOL     OW 1999   1.007   1.445   4.197
  480SOL    HW1 2000   0.968   1.517   4.148
  480SOL    HW2 2001   0.990   1.467   4.289
  481SOL     OW 2002   0.355   1.809   4.581
  481SOL    HW1 2003   0.397   1.724   4.592
  481SOL    HW2 2004   0.425   1.872   4.596
  482SOL     OW 2005   1.799   1.057   4.593
  482SOL    HW1 2006   1.744   1.044   4.515
  482SOL    HW2 2007   1.737   1.062   4.666
  483SOL     OW 2008   1.229   1.538   5.236
  483SOL    HW1 2009   1.214   1.466   5.297
  483SOL    HW2 2010   1.165   1.523   5.166
  484SOL     OW 2011   0.317   0.954   3.975
  484SOL    HW1 2012   0.401   0.977   3.936
  484SOL    HW2 2013   0.300   0.865   3.947
  485SOL     OW 2014   1.478   0.740   4.449
  485SOL    HW1 2015   1.466   0.696   4.533
  485SOL    HW2 2016   1.554   0.796   4.462
  486SOL     OW 2017   0.467   1.262   5.459
  486SOL    HW1 2018   0.439   1.268   5.368
  486SOL    HW2 2019   0.385   1.266   5.509
  487SOL     OW 2020   1.121   1.778   3.956
  487SOL    HW1 2021   1.049   1.735   4.002
  487SOL    HW2 2022   1.143   1.717   3.885
  488SOL     OW 2023   0.164   0.264   5.233
  488SOL    HW1 2024   0.136   0.351   5.206
  488SOL    HW2 2025   0.198   0.277   5.322
  489SOL     OW 2026   1.629   1.380   3.811
  489SOL    HW1 2027   1.587   1.465   3.795
  489SOL    HW2 2028   1.560   1.316   3.793
  490SOL     OW 2029   0.469   1.744   4.038
  490SOL    HW1 2030   0.510   1.796   4.107
  490SOL    HW2 2031   0.542   1.710   3.987
  491SOL     OW 2032   1.418   0.135   4.142
  491SOL    HW1 2033   1.402   0.086   4.062
  491SOL    HW2 2034   1.513   0.131   4.154
  492SOL     OW 2035   0.257   1.790   4.959
  492SOL    HW1 2036   0.305   1.716   4.996
  492SOL    HW2 2037   0.227   1.759   4.874
  493SOL     OW 2038   0.938   1.698   4.623
  493SOL    HW1 2039   1.016   1.645   4.643
  493SOL    HW2 2040   0.893   1.649   4.555
  494SOL     OW 2041   0.393   0.694   4.197
  494SOL    HW1 2042   0.419   0.602   4.209
  494SOL    HW2 2043   0.301   0.697   4.223
  495SOL     OW 2044   1.526   0.233   5.446
  495SOL    HW1 2045   1.525   0.256   5.539
  495SOL    HW2 2046   1.449   0.177   5.435
  496SOL     OW 2047   0.623   0.122   3.841
  496SOL    HW1 2048   0.711   0.087   3.853
  496SOL    HW2 2049   0.594   0.085   3.758
  497SOL     OW 2050   0.769   0.269   5.477
  497SOL    HW1 2051   0.835   0.201   5.489
  497SOL    HW2 2052   0.726   0.277   5.563
  498SOL     OW 2053   0.877   1.522   4.917
  498SOL    HW1 2054   0.861   1.486   4.830
  498SOL    HW2 2055   0.946   1.467   4.954
  499SOL     OW 2056   1.342   0.589   5.153
  499SOL    HW1 2057   1.369   0.560   5.240
  499SOL    HW2 2058   1.376   0.678   5.146
  500SOL     OW 2059   0.814   1.397   4.662
  500SOL    HW1 2060   0.898   1.385   4.617
  500SOL    HW2 2061   0.749   1.396   4.592
  501SOL     OW 2062   0.922   0.517   4.625
  501SOL    HW1 2063   0.906   0.515   4.531
  501SOL    HW2 2064   0.962   0.431   4.644
  502SOL     OW 2065   0.560   0.068   4.233
  502SOL    HW1 2066   0.473   0.054   4.270
  502SOL    HW2 2067   0.548   0.139   4.170
  503SOL     OW 2068   1.428   1.198   3.765
  503SOL    HW1 2069   1.459   1.122   3.815
  503SOL    HW2 2070   1.343   1.218   3.802
  504SOL     OW 2071   0.304   0.075   3.910
  504SOL    HW1 2072   0.387   0.121   3.906
  504SOL    HW2 2073   0.320   4.499   3.966
  505SOL     OW 2074   0.952   0.240   4.195
  505SOL    HW1 2075   0.900   0.292   4.134
  505SOL    HW2 2076   1.040   0.276   4.187
  506SOL     OW 2077   1.080   0.680   5.185
  506SOL    HW1 2078   1.009   0.616   5.185
  506SOL    HW2 2079   1.159   0.628   5.173
  507SOL     OW 2080   1.223   1.570   4.518
  507SOL    HW1 2081   1.241   1.637   4.452
  507SOL    HW2 2082   1.293   1.581   4.583
  508SOL     OW 2083   0.466   1.149   4.461
  508SOL    HW1 2084   0.394   1.130   4.522
  508SOL    HW2 2085   0.428   1.133   4.374
  509SOL     OW 2086   1.270   1.794   4.330
  509SOL    HW1 2087   1.314   1.856   4.272
  509SOL    HW2 2088   1.205   1.847   4.376
  510SOL     OW 2089   1.030   0.548   3.740
  510SOL    HW1 2090   0.982   0.630   3.724
  510SOL    HW2 2091   1.088   0.569   3.813
  511SOL     OW 2092   0.093   0.520   5.137
  511SOL    HW1 2093   0.152   0.530   5.062
  511SOL    HW2 2094   0.060   0.609   5.153
  512SOL     OW 2095   0.562   0.243   4.890
  512SOL    HW1 2096   0.593   0.159   4.924
  512SOL    HW2 2097   0.468   0.245   4.909
  513SOL     OW 2098   0.866   0.502   4.350
  513SOL    HW1 2099   0.818   0.544   4.279
  513SOL    HW2 2100   0.840   0.410   4.346
  514SOL     OW 2101   0.966   0.027   4.504
  514SOL    HW1 2102   0.917   0.025   4.422
  514SOL    HW2 2103   0.978   4.435   4.527
  515SOL     OW 2104   1.437   1.163   4.582
  515SOL    HW1 2105   1.368   1.097   4.579
  515SOL    HW2 2106   1.462   1.176   4.491
  516SOL     OW 2107   1.466   0.604   4.701
  516SOL    HW1 2108   1.414   0.524   4.703
  516SOL    HW2 2109   1.525   0.597   4.777
  517SOL     OW 2110   1.847   0.818   4.106
  517SOL    HW1 2111   1.903   0.766   4.164
  517SOL    HW2 2112   1.818   0.756   4.039
  518SOL     OW 2113   0.492   1.416   3.885
  518SOL    HW1 2114   0.415   1.386   3.934
  518SOL    HW2 2115   0.473   1.391   3.794
  519SOL     OW 2116   1.670   1.267   4.373
  519SOL    HW1 2117   1.765   1.269   4.384
  519SOL    HW2 2118   1.641   1.356   4.394
  520SOL     OW 2119   1.394   0.570   3.794
  520SOL    HW1 2120   1.333   0.554   3.866
  520SOL    HW2 2121   1.480   0.551   3.831
  521SOL     OW 2122   0.523   0.264   4.046
  521SOL    HW1 2123   0.569   0.214   3.979
  521SOL    HW2 2124   0.507   0.350   4.005
  522SOL     OW 2125   1.752   1.227   5.299
  522SOL    HW1 2126   1.841   1.193   5.291
  522SOL    HW2 2127   1.759   1.300   5.361
  523SOL     OW 2128   1.059   1.355   5.059
  523SOL    HW1 2129   0.984   1.323   5.110
  523SOL    HW2 2130   1.135   1.312   5.099
  524SOL     OW 2131   1.596   1.621   5.371
  524SOL    HW1 2132   1.594   1.649   5.279
  524SOL    HW2 2133   1.688   1.599   5.387
  525SOL     OW 2134   1.128   1.204   4.831
  525SOL    HW1 2135   1.068   1.240   4.895
  525SOL    HW2 2136   1.094   1.233   4.746
  526SOL     OW 2137   1.628   1.098   4.801
  526SOL    HW1 2138   1.622   1.160   4.874
  526SOL    HW2 2139   1.550   1.114   4.749
  527SOL     OW 2140   0.903   0.132   5.113
  527SOL    HW1 2141   0.925   0.088   5.031
  527SOL    HW2 2142   0.987   0.146   5.156
  528SOL     OW 2143   0.984   1.114   5.447
  528SOL    HW1 2144   0.892   1.130   5.467
  528SOL    HW2 2145   0.983   1.037   5.391
  529SOL     OW 2146   0.708   1.061   4.096
  529SOL    HW1 2147   0.696   1.045   4.190
  529SOL    HW2 2148   0.784   1.007   4.073
  530SOL     OW 2149   0.430   0.825   4.964
  530SOL    HW1 2150   0.498   0.835   5.030
  530SOL    HW2 2151   0.371   0.759   5.000
  531SOL     OW 2152   1.269   0.376   4.997
  531SOL    HW1 2153   1.301   0.454   5.041
  531SOL    HW2 2154   1.180   0.398   4.969
  532SOL     OW 2155   0.062   1.576   5.066
  532SOL    HW1 2156   0.034   1.664   5.041
  532SOL    HW2 2157   0.157   1.581   5.071
  533SOL     OW 2158   0.349   1.108   4.217
  533SOL    HW1 2159   0.358   1.181   4.157
  533SOL    HW2 2160   0.350   1.030   4.161
  534SOL     OW 2161   0.564   0.528   4.578
  534SOL    HW1 2162   0.576   0.588   4.505
  534SOL    HW2 2163   0.623   0.560   4.646
  535SOL     OW 2164   1.248   1.348   4.113
  535SOL    HW1 2165   1.303   1.419   4.144
  535SOL    HW2 2166   1.161   1.369   4.147
  536SOL     OW 2167   1.278   1.457   4.870
  536SOL    HW1 2168   1.333   1.457   4.948
  536SOL    HW2 2169   1.223   1.379   4.879
  537SOL     OW 2170   1.583   0.624   4.200
  537SOL    HW1 2171   1.537   0.676   4.266
  537SOL    HW2 2172   1.628   0.689   4.146
  538SOL     OW 2173   0.347   1.530   5.040
  538SOL    HW1 2174   0.333   1.483   4.958
  538SOL    HW2 2175   0.442   1.540   5.046
  539SOL     OW 2176   0.482   0.760   5.392
  539SOL    HW1 2177   0.506   0.799   5.307
  539SOL    HW2 2178   0.519   0.672   5.389
  540SOL     OW 2179   1.600   0.778   5.404
  540SOL    HW1 2180   1.513   0.819   5.397
  540SOL    HW2 2181   1.652   0.820   5.336
  541SOL     OW 2182   1.006   0.086   5.446
  541SOL    HW1 2183   1.033   0.169   5.408
  541SOL    HW2 2184   1.031   0.020   5.381
  542SOL     OW 2185   0.496   0.045   5.475
  542SOL    HW1 2186   0.479   4.497   5.393
  542SOL    HW2 2187   0.429   0.114   5.476
  543SOL     OW 2188   0.589   0.874   4.748
  543SOL    HW1 2189   0.618   0.965   4.750
  543SOL    HW2 2190   0.533   0.865   4.825
  544SOL     OW 2191   1.359   0.858   4.756
  544SOL    HW1 2192   1.277   0.851   4.707
  544SOL    HW2 2193   1.398   0.771   4.750
  545SOL     OW 2194   1.205   0.535   3.988
  545SOL    HW1 2195   1.211   0.454   4.040
  545SOL    HW2 2196   1.162   0.598   4.047
  546SOL     OW 2197   0.285   0.218   4.958
  546SOL    HW1 2198   0.247   0.235   5.044
  546SOL    HW2 2199   0.323   0.131   4.966
  547SOL     OW 2200   0.044   1.313   5.009
  547SOL    HW1 2201   0.077   1.266   5.085
  547SOL    HW2 2202   0.047   1.405   5.034
  548SOL     OW 2203   0.725   0.632   4.783
  548SOL    HW1 2204   0.798   0.611   4.725
  548SOL    HW2 2205   0.699   0.720   4.758
  549SOL     OW 2206   1.732   0.961   5.574
  549SOL    HW1 2207   1.685   0.900   5.516
  549SOL    HW2 2208   1.674   0.972   5.649
  550SOL     OW 2209   0.319   0.075   4.355
  550SOL    HW1 2210   0.302   0.163   4.388
  550SOL    HW2 2211   0.307   0.018   4.431
  551SOL     OW 2212   1.612   0.376   4.089
  551SOL    HW1 2213   1.643   0.313   4.154
  551SOL    HW2 2214   1.590   0.454   4.139
  552SOL     OW 2215   1.028   0.761   4.686
  552SOL    HW1 2216   1.026   0.777   4.780
  552SOL    HW2 2217   0.999   0.670   4.676
  553SOL     OW 2218   0.983   1.566   5.439
  553SOL    HW1 2219   0.967   1.610   5.356
  553SOL    HW2 2220   1.025   1.484   5.416
  554SOL     OW 2221   0.347   0.932   5.542
  554SOL    HW1 2222   0.420   0.961   5.597
  554SOL    HW2 2223   0.385   0.866   5.485
  555SOL     OW 2224   1.531   0.266   3.852
  555SOL    HW1 2225   1.459   0.210   3.880
  555SOL    HW2 2226   1.560   0.311   3.931
  556SOL     OW 2227   1.293   0.827   3.755
  556SOL    HW1 2228   1.335   0.741   3.758
  556SOL    HW2 2229   1.324   0.866   3.674
  557SOL     OW 2230   1.065   1.335   4.577
  557SOL    HW1 2231   1.068   1.262   4.515
  557SOL    HW2 2232   1.127   1.399   4.542
  558SOL     OW 2233   0.318   0.812   4.673
  558SOL    HW1 2234   0.412   0.830   4.669
  558SOL    HW2 2235   0.311   0.722   4.703
  559SOL     OW 2236   0.336   0.529   4.716
  559SOL    HW1 2237   0.291   0.446   4.696
  559SOL    HW2 2238   0.413   0.528   4.659
  560SOL     OW 2239   1.135   0.374   5.418
  560SOL    HW1 2240   1.086   0.439   5.470
  560SOL    HW2 2241   1.221   0.414   5.405
  561SOL     OW 2242   1.158   0.212   5.197
  561SOL    HW1 2243   1.151   0.276   5.268
  561SOL    HW2 2244   1.196   0.261   5.124
  562SOL     OW 2245   4.492   1.323   3.927
  562SOL    HW1 2246   4.399   1.338   3.910
  562SOL    HW2 2247   4.497   1.230   3.950
  563SOL     OW 2248   0.097   1.779   4.664
  563SOL    HW1 2249   0.058   1.722   4.597
  563SOL    HW2 2250   0.184   1.799   4.631
  564SOL     OW 2251   0.498   1.573   4.630
  564SOL    HW1 2252   0.566   1.636   4.655
  564SOL    HW2 2253   0.542   1.510   4.575
  565SOL     OW 2254   0.986   0.794   4.952
  565SOL    HW1 2255   1.040   0.770   5.027
  565SOL    HW2 2256   0.900   0.756   4.970
  566SOL     OW 2257   0.040   0.567   4.835
  566SOL    HW1 2258   0.113   0.523   4.793
  566SOL    HW2 2259   0.019   0.513   4.911
  567SOL     OW 2260   0.180   0.521   5.435
  567SOL    HW1 2261   0.266   0.504   5.398
  567SOL    HW2 2262   0.151   0.602   5.393
  568SOL     OW 2263   1.376   0.940   5.383
  568SOL    HW1 2264   1.395   1.033   5.382
  568SOL    HW2 2265   1.374   0.915   5.291
  569SOL     OW 2266   0.811   0.573   4.078
  569SOL    HW1 2267   0.814   0.502   4.014
  569SOL    HW2 2268   0.738   0.628   4.049
  570SOL     OW 2269   1.641   0.601   4.912
  570SOL    HW1 2270   1.631   0.541   4.986
  570SOL    HW2 2271   1.728   0.581   4.877
  571SOL     OW 2272   0.272   1.562   5.465
  571SOL    HW1 2273   0.217   1.614   5.523
  571SOL    HW2 2274   0.252   1.471   5.488
  572SOL     OW 2275   0.685   0.464   4.991
  572SOL    HW1 2276   0.647   0.383   4.955
  572SOL    HW2 2277   0.692   0.522   4.916
  573SOL     OW 2278   0.930   1.678   5.190
  573SOL    HW1 2279   0.902   1.645   5.104
  573SOL    HW2 2280   0.925   1.773   5.182
  574SOL     OW 2281   0.473   0.491   3.908
  574SOL    HW1 2282   0.532   0.562   3.931
  574SOL    HW2 2283   0.388   0.533   3.893
  575SOL     OW 2284   0.162   1.140   5.186
  575SOL    HW1 2285   0.146   1.094   5.269
  575SOL    HW2 2286   0.170   1.071   5.121
  576SOL     OW 2287   1.327   1.048   4.948
  576SOL    HW1 2288   1.351   0.985   4.880
  576SOL    HW2 2289   1.256   1.099   4.910
  577SOL     OW 2290   1.311   0.856   4.030
  577SOL    HW1 2291   1.235   0.827   4.081
  577SOL    HW2 2292   1.285   0.843   3.939
  578SOL     OW 2293   1.243   1.735   4.841
  578SOL    HW1 2294   1.324   1.753   4.793
  578SOL    HW2 2295   1.246   1.640   4.857
  579SOL     OW 2296   0.067   1.186   4.773
  579SOL    HW1 2297   0.069   1.219   4.863
  579SOL    HW2 2298   0.017   1.251   4.724
  580SOL     OW 2299   0.679   1.665   5.451
  580SOL    HW1 2300   0.624   1.743   5.447
  580SOL    HW2 2301   0.741   1.675   5.379
  581SOL     OW 2302   1.719   0.130   4.219
  581SOL    HW1 2303   1.791   0.137   4.157
  581SOL    HW2 2304   1.743   0.056   4.276
  582SOL     OW 2305   1.389   1.567   4.207
  582SOL    HW1 2306   1.450   1.599   4.140
  582SOL    HW2 2307   1.342   1.645   4.235
  583SOL     OW 2308   0.120   1.808   5.572
  583SOL    HW1 2309   0.080   1.734   5.619
  583SOL    HW2 2310   0.183   1.844   5.633
  584SOL     OW 2311   1.278   0.927   4.397
  584SOL    HW1 2312   1.351   0.864   4.401
  584SOL    HW2 2313   1.312   0.999   4.344
  585SOL     OW 2314   0.816   1.273   5.155
  585SOL    HW1 2315   0.789   1.312   5.238
  585SOL    HW2 2316   0.745   1.294   5.094
  586SOL     OW 2317   0.673   1.618   3.879
  586SOL    HW1 2318   0.682   1.629   3.785
  586SOL    HW2 2319   0.618   1.540   3.889
  587SOL     OW 2320   1.619   1.716   5.106
  587SOL    HW1 2321   1.673   1.708   5.027
  587SOL    HW2 2322   1.656   1.790   5.153
  588SOL     OW 2323   1.839   0.155   4.690
  588SOL    HW1 2324   1.868   0.078   4.641
  588SOL    HW2 2325   1.752   0.174   4.655
  589SOL     OW 2326   0.265   0.325   4.448
  589SOL    HW1 2327   0.182   0.360   4.414
  589SOL    HW2 2328   0.250   0.316   4.542
  590SOL     OW 2329   1.206   1.607   3.755
  590SOL    HW1 2330   1.198   1.516   3.782
  590SOL    HW2 2331   1.142   1.618   3.686
  591SOL     OW 2332   0.825   1.007   5.096
  591SOL    HW1 2333   0.868   1.003   5.010
  591SOL    HW2 2334   0.825   1.099   5.119
  592SOL     OW 2335   0.915   0.910   4.013
  592SOL    HW1 2336   0.977   0.942   3.948
  592SOL    HW2 2337   0.962   0.840   4.059
  593SOL     OW 2338   1.493   1.625   3.766
  593SOL    HW1 2339   1.399   1.620   3.753
  593SOL    HW2 2340   1.529   1.631   3.677
  594SOL     OW 2341   0.373   1.306   5.215
  594SOL    HW1 2342   0.356   1.385   5.163
  594SOL    HW2 2343   0.298   1.250   5.198
  595SOL     OW 2344   1.608   1.280   5.003
  595SOL    HW1 2345   1.673   1.275   5.073
  595SOL    HW2 2346   1.548   1.349   5.030
  596SOL     OW 2347   1.050   1.106   4.429
  596SOL    HW1 2348   0.980   1.055   4.469
  596SOL    HW2 2349   1.112   1.041   4.397
  597SOL     OW 2350   1.005   0.243   4.726
  597SOL    HW1 2351   1.012   0.218   4.634
  597SOL    HW2 2352   0.999   0.159   4.773
  598SOL     OW 2353   0.604   1.489   4.207
  598SOL    HW1 2354   0.644   1.439   4.136
  598SOL    HW2 2355   0.531   1.535   4.165
  599SOL     OW 2356   1.721   0.393   5.101
  599SOL    HW1 2357   1.793   0.456   5.101
  599SOL    HW2 2358   1.750   0.322   5.045
  600SOL     OW 2359   0.252   1.344   4.001
  600SOL    HW1 2360   0.157   1.344   3.986
  600SOL    HW2 2361   0.262   1.377   4.090
  601SOL     OW 2362   0.116   1.007   5.420
  601SOL    HW1 2363   0.052   1.049   5.477
  601SOL    HW2 2364   0.194   0.997   5.474
  602SOL     OW 2365   0.659   0.208   5.221
  602SOL    HW1 2366   0.738   0.181   5.175
  602SOL    HW2 2367   0.687   0.224   5.311
  603SOL     OW 2368   0.071   0.320   3.750
  603SOL    HW1 2369   4.476   0.329   3.763
  603SOL    HW2 2370   0.099   0.406   3.719
  604SOL     OW 2371   1.431   0.858   5.125
  604SOL    HW1 2372   1.382   0.918   5.069
  604SOL    HW2 2373   1.520   0.861   5.090
  605SOL     OW 2374   0.084   0.188   4.027
  605SOL    HW1 2375   0.078   0.261   3.964
  605SOL    HW2 2376   0.163   0.141   4.001
  606SOL     OW 2377   1.179   1.341   3.841
  606SOL    HW1 2378   1.089   1.311   3.843
  606SOL    HW2 2379   1.208   1.340   3.932
  607SOL     OW 2380   0.622   0.830   5.153
  607SOL    HW1 2381   0.677   0.908   5.140
  607SOL    HW2 2382   0.685   0.758   5.162
  608SOL     OW 2383   1.486   1.778   4.702
  608SOL    HW1 2384   1.509   1.842   4.634
  608SOL    HW2 2385   1.570   1.744   4.732
  609SOL     OW 2386   0.714   0.561   5.429
  609SOL    HW1 2387   0.749   0.628   5.488
  609SOL    HW2 2388   0.752   0.479   5.461
  610SOL     OW 2389   1.467   1.201   5.357
  610SOL    HW1 2390   1.457   1.215   5.451
  610SOL    HW2 2391   1.561   1.209   5.341
  611SOL     OW 2392   0.381   1.743   5.288
  611SOL    HW1 2393   0.296   1.783   5.271
  611SOL    HW2 2394   0.360   1.663   5.336
  612SOL     OW 2395   1.671   0.881   4.979
  612SOL    HW1 2396   1.662   0.796   4.936
  612SOL    HW2 2397   1.661   0.945   4.908
  613SOL     OW 2398   1.218   0.329   4.172
  613SOL    HW1 2399   1.283   0.259   4.162
  613SOL    HW2 2400   1.246   0.376   4.250
  614SOL     OW 2401   0.588   0.739   4.393
  614SOL    HW1 2402   0.628   0.824   4.377
  614SOL    HW2 2403   0.519   0.732   4.327
  615SOL     OW 2404   1.763   0.363   5.368
  615SOL    HW1 2405   1.748   0.377   5.274
  615SOL    HW2 2406   1.685   0.319   5.399
  616SOL     OW 2407   1.744   0.932   5.235
  616SOL    HW1 2408   1.742   1.027   5.248
  616SOL    HW2 2409   1.729   0.920   5.142
  617SOL     OW 2410   0.863   1.368   3.756
  617SOL    HW1 2411   0.824   1.395   3.839
  617SOL    HW2 2412   0.881   1.450   3.710
  618SOL     OW 2413   0.660   1.793   4.672
  618SOL    HW1 2414   0.639   1.883   4.646
  618SOL    HW2 2415   0.755   1.787   4.661
  619SOL     OW 2416   0.867   0.966   4.579
  619SOL    HW1 2417   0.917   0.895   4.618
  619SOL    HW2 2418   0.833   1.016   4.654
  620SOL     OW 2419   1.080   0.988   3.813
  620SOL    HW1 2420   1.057   1.039   3.735
  620SOL    HW2 2421   1.155   0.935   3.787
  621SOL     OW 2422   1.866   1.503   4.532
  621SOL    HW1 2423   1.778   1.535   4.509
  621SOL    HW2 2424   1.859   1.480   4.624
  622SOL     OW 2425   0.229   1.306   5.581
  622SOL    HW1 2426   0.157   1.248   5.558
  622SOL    HW2 2427   0.222   1.316   5.676
  623SOL     OW 2428   0.104   1.237   4.391
  623SOL    HW1 2429   0.112   1.189   4.473
  623SOL    HW2 2430   0.164   1.193   4.331
  624SOL     OW 2431   0.682   1.402   5.352
  624SOL    HW1 2432   0.601   1.358   5.379
  624SOL    HW2 2433   0.675   1.490   5.389
  625SOL     OW 2434   1.809   0.182   4.963
  625SOL    HW1 2435   1.808   0.089   4.983
  625SOL    HW2 2436   1.825   0.186   4.868
  626SOL     OW 2437   0.440   0.431   4.254
  626SOL    HW1 2438   0.458   0.361   4.192
  626SOL    HW2 2439   0.381   0.391   4.319
  627SOL     OW 2440   1.703   1.498   4.826
  627SOL    HW1 2441   1.623   1.473   4.779
  627SOL    HW2 2442   1.718   1.427   4.888
  628SOL     OW 2443   0.312   0.504   4.979
  628SOL    HW1 2444   0.384   0.456   5.019
  628SOL    HW2 2445   0.338   0.514   4.887
  629SOL     OW 2446   0.826   1.578   4.403
  629SOL    HW1 2447   0.816   1.627   4.321
  629SOL    HW2 2448   0.749   1.522   4.406
  630SOL     OW 2449   1.432   0.215   4.842
  630SOL    HW1 2450   1.468   0.145   4.896
  630SOL    HW2 2451   1.381   0.268   4.903
  631SOL     OW 2452   0.996   0.009   4.874
  631SOL    HW1 2453   0.952   4.425   4.863
  631SOL    HW2 2454   1.089   4.487   4.885
  632SOL     OW 2455   0.772   1.332   4.036
  632SOL    HW1 2456   0.739   1.242   4.043
  632SOL    HW2 2457   0.854   1.332   4.085
  633SOL     OW 2458   0.621   1.557   5.009
  633SOL    HW1 2459   0.623   1.638   5.059
  633SOL    HW2 2460   0.708   1.550   4.970
  634SOL     OW 2461   1.341   0.053   3.877
  634SOL    HW1 2462   1.381   4.478   3.832
  634SOL    HW2 2463   1.266   0.017   3.923
  635SOL     OW 2464   1.314   0.462   4.402
  635SOL    HW1 2465   1.254   0.537   4.403
  635SOL    HW2 2466   1.302   0.421   4.488
  636SOL     OW 2467   1.586   0.201   4.591
  636SOL    HW1 2468   1.525   0.216   4.664
  636SOL    HW2 2469   1.588   0.285   4.545
  637SOL     OW 2470   0.041   1.052   4.011
  637SOL    HW1 2471   0.135   1.038   4.003
  637SOL    HW2 2472   0.019   1.017   4.098
  638SOL     OW 2473   0.883   1.651   4.067
  638SOL    HW1 2474   0.811   1.633   4.007
  638SOL    HW2 2475   0.853   1.727   4.118
  639SOL     OW 2476   0.247   0.626   5.706
  639SOL    HW1 2477   0.172   0.608   5.763
  639SOL    HW2 2478   0.214   0.612   5.617
  640SOL     OW 2479   0.195   0.293   6.575
  640SOL    HW1 2480   0.230   0.269   6.661
  640SOL    HW2 2481   0.132   0.224   6.555
  641SOL     OW 2482   0.005   0.379   6.227
  641SOL    HW1 2483   4.426   0.416   6.267
  641SOL    HW2 2484   4.472   0.308   6.172
  642SOL     OW 2485   0.567   1.285   6.760
  642SOL    HW1 2486   0.480   1.290   6.722
  642SOL    HW2 2487   0.583   1.372   6.795
  643SOL     OW 2488   1.553   1.501   6.298
  643SOL    HW1 2489   1.512   1.485   6.383
  643SOL    HW2 2490   1.480   1.509   6.237
  644SOL     OW 2491   1.133   0.699   6.286
  644SOL    HW1 2492   1.180   0.782   6.275
  644SOL    HW2 2493   1.083   0.710   6.367
  645SOL     OW 2494   1.765   0.608   5.814
  645SOL    HW1 2495   1.746   0.597   5.721
  645SOL    HW2 2496   1.734   0.527   5.855
  646SOL     OW 2497   0.757   1.143   6.625
  646SOL    HW1 2498   0.687   1.177   6.682
  646SOL    HW2 2499   0.792   1.220   6.581
  647SOL     OW 2500   0.864   0.776   7.407
  647SOL    HW1 2501   0.851   0.847   7.470
  647SOL    HW2 2502   0.888   0.820   7.325
  648SOL     OW 2503   0.686   1.005   6.234
  648SOL    HW1 2504   0.751   0.991   6.303
  648SOL    HW2 2505   0.616   1.055   6.276
  649SOL     OW 2506   0.710   1.151   7.397
  649SOL    HW1 2507   0.757   1.230   7.423
  649SOL    HW2 2508   0.626   1.182   7.362
  650SOL     OW 2509   0.336   1.422   6.656
  650SOL    HW1 2510   0.254   1.403   6.609
  650SOL    HW2 2511   0.386   1.476   6.595
  651SOL     OW 2512   1.462   1.499   6.938
  651SOL    HW1 2513   1.509   1.582   6.948
  651SOL    HW2 2514   1.403   1.496   7.013
  652SOL     OW 2515   0.438   0.396   7.078
  652SOL    HW1 2516   0.527   0.360   7.079
  652SOL    HW2 2517   0.381   0.320   7.096
  653SOL     OW 2518   1.612   0.447   6.324
  653SOL    HW1 2519   1.532   0.469   6.277
  653SOL    HW2 2520   1.631   0.524   6.377
  654SOL     OW 2521   0.245   1.692   6.064
  654SOL    HW1 2522   0.231   1.776   6.106
  654SOL    HW2 2523   0.311   1.709   5.997
  655SOL     OW 2524   1.136   1.341   7.278
  655SOL    HW1 2525   1.176   1.337   7.365
  655SOL    HW2 2526   1.083   1.261   7.272
  656SOL     OW 2527   0.247   1.427   6.114
  656SOL    HW1 2528   0.239   1.522   6.117
  656SOL    HW2 2529   0.183   1.395   6.177
  657SOL     OW 2530   0.246   1.081   6.469
  657SOL    HW1 2531   0.263   0.993   6.500
  657SOL    HW2 2532   0.187   1.119   6.535
  658SOL     OW 2533   0.615   1.791   7.018
  658SOL    HW1 2534   0.531   1.773   7.061
  658SOL    HW2 2535   0.635   1.881   7.041
  659SOL     OW 2536   0.581   0.985   5.723
  659SOL    HW1 2537   0.628   1.030   5.652
  659SOL    HW2 2538   0.626   1.013   5.802
  660SOL     OW 2539   1.583   0.115   7.058
  660SOL    HW1 2540   1.600   0.184   6.994
  660SOL    HW2 2541   1.573   0.161   7.141
  661SOL     OW 2542   0.136   0.643   6.161
  661SOL    HW1 2543   0.083   0.564   6.176
  661SOL    HW2 2544   0.107   0.705   6.227
  662SOL     OW 2545   0.033   1.601   5.724
  662SOL    HW1 2546   0.021   1.506   5.723
  662SOL    HW2 2547   0.016   1.627   5.815
  663SOL     OW 2548   1.691   0.921   6.225
  663SOL    HW1 2549   1.774   0.878   6.204
  663SOL    HW2 2550   1.668   0.969   6.146
  664SOL     OW 2551   1.645   1.108   6.014
  664SOL    HW1 2552   1.731   1.113   5.972
  664SOL    HW2 2553   1.651   1.168   6.088
  665SOL     OW 2554   0.106   0.763   7.171
  665SOL    HW1 2555   0.199   0.761   7.147
  665SOL    HW2 2556   0.087   0.855   7.185
  666SOL     OW 2557   0.613   1.384   6.322
  666SOL    HW1 2558   0.566   1.301   6.331
  666SOL    HW2 2559   0.597   1.410   6.232
  667SOL     OW 2560   1.290   1.239   7.010
  667SOL    HW1 2561   1.322   1.171   6.950
  667SOL    HW2 2562   1.346   1.232   7.087
  668SOL     OW 2563   0.819   0.012   6.135
  668SOL    HW1 2564   0.853   0.098   6.111
  668SOL    HW2 2565   0.724   0.020   6.125
  669SOL     OW 2566   0.181   0.942   6.865
  669SOL    HW1 2567   0.272   0.925   6.844
  669SOL    HW2 2568   0.133   0.924   6.784
  670SOL     OW 2569   1.532   0.992   5.783
  670SOL    HW1 2570   1.461   0.935   5.815
  670SOL    HW2 2571   1.572   1.026   5.863
  671SOL     OW 2572   1.186   1.805   7.207
  671SOL    HW1 2573   1.198   1.863   7.132
  671SOL    HW2 2574   1.201   1.717   7.173
  672SOL     OW 2575   0.318   0.260   7.357
  672SOL    HW1 2576   0.386   0.312   7.399
  672SOL    HW2 2577   0.242   0.268   7.414
  673SOL     OW 2578   1.465   1.417   6.542
  673SOL    HW1 2579   1.396   1.433   6.606
  673SOL    HW2 2580   1.452   1.327   6.514
  674SOL     OW 2581   1.647   1.706   6.155
  674SOL    HW1 2582   1.612   1.672   6.073
  674SOL    HW2 2583   1.624   1.640   6.221
  675SOL     OW 2584   0.596   0.723   5.851
  675SOL    HW1 2585   0.599   0.804   5.800
  675SOL    HW2 2586   0.530   0.740   5.918
  676SOL     OW 2587   1.291   0.361   6.520
  676SOL    HW1 2588   1.202   0.330   6.504
  676SOL    HW2 2589   1.327   0.298   6.582
  677SOL     OW 2590   0.797   0.617   7.040
  677SOL    HW1 2591   0.769   0.593   7.128
  677SOL    HW2 2592   0.753   0.555   6.983
  678SOL     OW 2593   1.389   0.479   7.262
  678SOL    HW1 2594   1.391   0.523   7.347
  678SOL    HW2 2595   1.455   0.410   7.268
  679SOL     OW 2596   0.956   0.888   7.168
  679SOL    HW1 2597   1.010   0.817   7.133
  679SOL    HW2 2598   0.909   0.922   7.091
  680SOL     OW 2599   0.997   0.417   6.823
  680SOL    HW1 2600   0.911   0.428   6.863
  680SOL    HW2 2601   0.980   0.365   6.744
  681SOL     OW 2602   1.049   0.698   6.013
  681SOL    HW1 2603   1.065   0.690   6.107
  681SOL    HW2 2604   0.967   0.651   5.999
  682SOL     OW 2605   0.098   0.825   6.369
  682SOL    HW1 2606   0.185   0.808   6.407
  682SOL    HW2 2607   0.048   0.861   6.442
  683SOL     OW 2608   0.123   1.856   7.162
  683SOL    HW1 2609   0.117   1.832   7.255
  683SOL    HW2 2610   0.045   1.817   7.122
  684SOL     OW 2611   0.853   0.368   5.765
  684SOL    HW1 2612   0.928   0.403   5.716
  684SOL    HW2 2613   0.871   0.274   5.771
  685SOL     OW 2614   1.705   0.574   7.414
  685SOL    HW1 2615   1.669   0.650   7.367
  685SOL    HW2 2616   1.740   0.518   7.345
  686SOL     OW 2617   1.377   1.143   6.128
  686SOL    HW1 2618   1.455   1.129   6.075
  686SOL    HW2 2619   1.323   1.203   6.076
  687SOL     OW 2620   0.543   0.203   6.487
  687SOL    HW1 2621   0.562   0.222   6.578
  687SOL    HW2 2622   0.533   0.289   6.446
  688SOL     OW 2623   1.009   1.447   6.060
  688SOL    HW1 2624   0.968   1.518   6.010
  688SOL    HW2 2625   0.988   1.466   6.151
  689SOL     OW 2626   0.355   1.809   6.443
  689SOL    HW1 2627   0.398   1.724   6.454
  689SOL    HW2 2628   0.425   1.873   6.458
  690SOL     OW 2629   1.799   1.059   6.452
  690SOL    HW1 2630   1.743   1.040   6.377
  690SOL    HW2 2631   1.738   1.064   6.526
  691SOL     OW 2632   1.228   1.539   7.099
  691SOL    HW1 2633   1.214   1.466   7.159
  691SOL    HW2 2634   1.166   1.524   7.028
  692SOL     OW 2635   0.317   0.954   5.838
  692SOL    HW1 2636   0.401   0.977   5.798
  692SOL    HW2 2637   0.300   0.865   5.809
  693SOL     OW 2638   1.478   0.741   6.311
  693SOL    HW1 2639   1.465   0.695   6.394
  693SOL    HW2 2640   1.555   0.797   6.326
  694SOL     OW 2641   0.467   1.262   7.321
  694SOL    HW1 2642   0.439   1.268   7.230
  694SOL    HW2 2643   0.385   1.267   7.371
  695SOL     OW 2644   1.117   1.773   5.818
  695SOL    HW1 2645   1.043   1.731   5.862
  695SOL    HW2 2646   1.138   1.713   5.746
  696SOL     OW 2647   0.164   0.264   7.095
  696SOL    HW1 2648   0.136   0.351   7.068
  696SOL    HW2 2649   0.198   0.277   7.184
  697SOL     OW 2650   1.632   1.382   5.663
  697SOL    HW1 2651   1.587   1.466   5.659
  697SOL    HW2 2652   1.563   1.317   5.652
  698SOL     OW 2653   0.469   1.743   5.900
  698SOL    HW1 2654   0.510   1.797   5.969
  698SOL    HW2 2655   0.543   1.710   5.849
  699SOL     OW 2656   1.419   0.135   6.004
  699SOL    HW1 2657   1.402   0.086   5.924
  699SOL    HW2 2658   1.513   0.131   6.016
  700SOL     OW 2659   0.256   1.790   6.821
  700SOL    HW1 2660   0.305   1.716   6.858
  700SOL    HW2 2661   0.227   1.759   6.735
  701SOL     OW 2662   0.937   1.699   6.485
  701SOL    HW1 2663   1.013   1.645   6.509
  701SOL    HW2 2664   0.893   1.649   6.417
  702SOL     OW 2665   0.393   0.694   6.059
  702SOL    HW1 2666   0.419   0.602   6.071
  702SOL    HW2 2667   0.301   0.697   6.085
  703SOL     OW 2668   1.526   0.233   7.308
  703SOL    HW1 2669   1.525   0.256   7.401
  703SOL    HW2 2670   1.449   0.176   7.297
  704SOL     OW 2671   0.623   0.122   5.703
  704SOL    HW1 2672   0.711   0.086   5.715
  704SOL    HW2 2673   0.594   0.085   5.620
  705SOL     OW 2674   0.768   0.269   7.339
  705SOL    HW1 2675   0.835   0.201   7.351
  705SOL    HW2 2676   0.727   0.277   7.425
  706SOL     OW 2677   0.877   1.522   6.779
  706SOL    HW1 2678   0.861   1.485   6.692
  706SOL    HW2 2679   0.946   1.467   6.816
  707SOL     OW 2680   1.342   0.589   7.015
  707SOL    HW1 2681   1.369   0.560   7.102
  707SOL    HW2 2682   1.376   0.678   7.008
  708SOL     OW 2683   0.814   1.397   6.524
  708SOL    HW1 2684   0.898   1.385   6.479
  708SOL    HW2 2685   0.749   1.396   6.454
  709SOL     OW 2686   0.923   0.517   6.487
  709SOL    HW1 2687   0.906   0.515   6.393
  709SOL    HW2 2688   0.962   0.431   6.506
  710SOL     OW 2689   0.560   0.068   6.095
  710SOL    HW1 2690   0.473   0.054   6.132
  710SOL    HW2 2691   0.548   0.139   6.031
  711SOL     OW 2692   1.430   1.199   5.628
  711SOL    HW1 2693   1.459   1.122   5.678
  711SOL    HW2 2694   1.343   1.218   5.663
  712SOL     OW 2695   0.304   0.075   5.772
  712SOL    HW1 2696   0.387   0.121   5.769
  712SOL    HW2 2697   0.320   4.499   5.828
  713SOL     OW 2698   0.952   0.240   6.057
  713SOL    HW1 2699   0.900   0.293   5.996
  713SOL    HW2 2700   1.040   0.276   6.049
  714SOL     OW 2701   1.080   0.680   7.047
  714SOL    HW1 2702   1.009   0.616   7.048
  714SOL    HW2 2703   1.160   0.628   7.035
  715SOL     OW 2704   1.228   1.567   6.377
  715SOL    HW1 2705   1.242   1.639   6.315
  715SOL    HW2 2706   1.291   1.583   6.447
  716SOL     OW 2707   0.466   1.149   6.323
  716SOL    HW1 2708   0.394   1.130   6.384
  716SOL    HW2 2709   0.428   1.133   6.236
  717SOL     OW 2710   1.271   1.794   6.191
  717SOL    HW1 2711   1.315   1.856   6.133
  717SOL    HW2 2712   1.204   1.846   6.236
  718SOL     OW 2713   1.030   0.548   5.602
  718SOL    HW1 2714   0.981   0.630   5.586
  718SOL    HW2 2715   1.088   0.569   5.675
  719SOL     OW 2716   0.093   0.520   6.999
  719SOL    HW1 2717   0.152   0.529   6.924
  719SOL    HW2 2718   0.060   0.609   7.015
  720SOL     OW 2719   0.562   0.243   6.752
  720SOL    HW1 2720   0.593   0.159   6.786
  720SOL    HW2 2721   0.468   0.245   6.771
  721SOL     OW 2722   0.866   0.502   6.212
  721SOL    HW1 2723   0.818   0.544   6.141
  721SOL    HW2 2724   0.839   0.411   6.208
  722SOL     OW 2725   0.966   0.028   6.366
  722SOL    HW1 2726   0.917   0.025   6.283
  722SOL    HW2 2727   0.978   4.436   6.389
  723SOL     OW 2728   1.436   1.163   6.443
  723SOL    HW1 2729   1.368   1.095   6.443
  723SOL    HW2 2730   1.458   1.174   6.351
  724SOL     OW 2731   1.467   0.604   6.563
  724SOL    HW1 2732   1.414   0.524   6.565
  724SOL    HW2 2733   1.525   0.597   6.638
  725SOL     OW 2734   1.846   0.817   5.969
  725SOL    HW1 2735   1.903   0.765   6.026
  725SOL    HW2 2736   1.817   0.755   5.902
  726SOL     OW 2737   0.492   1.415   5.746
  726SOL    HW1 2738   0.415   1.386   5.796
  726SOL    HW2 2739   0.472   1.392   5.656
  727SOL     OW 2740   1.672   1.264   6.231
  727SOL    HW1 2741   1.766   1.271   6.246
  727SOL    HW2 2742   1.637   1.349   6.257
  728SOL     OW 2743   1.394   0.570   5.656
  728SOL    HW1 2744   1.333   0.554   5.728
  728SOL    HW2 2745   1.480   0.550   5.693
  729SOL     OW 2746   0.523   0.264   5.908
  729SOL    HW1 2747   0.570   0.214   5.841
  729SOL    HW2 2748   0.507   0.350   5.867
  730SOL     OW 2749   1.753   1.237   7.161
  730SOL    HW1 2750   1.841   1.199   7.157
  730SOL    HW2 2751   1.768   1.327   7.190
  731SOL     OW 2752   1.059   1.353   6.920
  731SOL    HW1 2753   0.985   1.323   6.971
  731SOL    HW2 2754   1.135   1.312   6.961
  732SOL     OW 2755   1.607   1.625   7.239
  732SOL    HW1 2756   1.603   1.660   7.150
  732SOL    HW2 2757   1.690   1.578   7.242
  733SOL     OW 2758   1.128   1.202   6.692
  733SOL    HW1 2759   1.069   1.240   6.758
  733SOL    HW2 2760   1.093   1.233   6.609
  734SOL     OW 2761   1.630   1.099   6.664
  734SOL    HW1 2762   1.626   1.161   6.736
  734SOL    HW2 2763   1.550   1.115   6.614
  735SOL     OW 2764   0.903   0.132   6.974
  735SOL    HW1 2765   0.925   0.088   6.893
  735SOL    HW2 2766   0.987   0.146   7.018
  736SOL     OW 2767   0.984   1.114   7.309
  736SOL    HW1 2768   0.892   1.130   7.329
  736SOL    HW2 2769   0.983   1.037   7.253
  737SOL     OW 2770   0.708   1.061   5.958
  737SOL    HW1 2771   0.695   1.045   6.052
  737SOL    HW2 2772   0.784   1.007   5.935
  738SOL     OW 2773   0.430   0.825   6.826
  738SOL    HW1 2774   0.498   0.835   6.892
  738SOL    HW2 2775   0.371   0.759   6.862
  739SOL     OW 2776   1.269   0.376   6.859
  739SOL    HW1 2777   1.301   0.454   6.903
  739SOL    HW2 2778   1.180   0.398   6.831
  740SOL     OW 2779   0.062   1.576   6.928
  740SOL    HW1 2780   0.035   1.665   6.903
  740SOL    HW2 2781   0.157   1.581   6.933
  741SOL     OW 2782   0.349   1.107   6.079
  741SOL    HW1 2783   0.357   1.181   6.019
  741SOL    HW2 2784   0.350   1.030   6.023
  742SOL     OW 2785   0.564   0.528   6.440
  742SOL    HW1 2786   0.576   0.588   6.367
  742SOL    HW2 2787   0.623   0.560   6.508
  743SOL     OW 2788   1.248   1.348   5.976
  743SOL    HW1 2789   1.304   1.418   6.011
  743SOL    HW2 2790   1.161   1.369   6.009
  744SOL     OW 2791   1.278   1.457   6.733
  744SOL    HW1 2792   1.334   1.459   6.811
  744SOL    HW2 2793   1.223   1.379   6.746
  745SOL     OW 2794   1.582   0.624   6.062
  745SOL    HW1 2795   1.537   0.676   6.128
  745SOL    HW2 2796   1.628   0.689   6.008
  746SOL     OW 2797   0.347   1.530   6.902
  746SOL    HW1 2798   0.333   1.483   6.820
  746SOL    HW2 2799   0.442   1.540   6.908
  747SOL     OW 2800   0.481   0.760   7.253
  747SOL    HW1 2801   0.506   0.798   7.169
  747SOL    HW2 2802   0.520   0.672   7.252
  748SOL     OW 2803   1.599   0.777   7.266
  748SOL    HW1 2804   1.513   0.819   7.259
  748SOL    HW2 2805   1.652   0.820   7.198
  749SOL     OW 2806   1.006   0.086   7.308
  749SOL    HW1 2807   1.033   0.169   7.270
  749SOL    HW2 2808   1.031   0.020   7.243
  750SOL     OW 2809   0.496   0.045   7.337
  750SOL    HW1 2810   0.479   4.497   7.255
  750SOL    HW2 2811   0.429   0.114   7.338
  751SOL     OW 2812   0.589   0.874   6.609
  751SOL    HW1 2813   0.618   0.965   6.612
  751SOL    HW2 2814   0.533   0.865   6.686
  752SOL     OW 2815   1.359   0.859   6.617
  752SOL    HW1 2816   1.276   0.851   6.570
  752SOL    HW2 2817   1.398   0.771   6.612
  753SOL     OW 2818   1.205   0.535   5.850
  753SOL    HW1 2819   1.211   0.455   5.902
  753SOL    HW2 2820   1.162   0.598   5.909
  754SOL     OW 2821   0.285   0.218   6.820
  754SOL    HW1 2822   0.247   0.235   6.906
  754SOL    HW2 2823   0.323   0.130   6.828
  755SOL     OW 2824   0.043   1.313   6.871
  755SOL    HW1 2825   0.077   1.266   6.947
  755SOL    HW2 2826   0.047   1.405   6.896
  756SOL     OW 2827   0.724   0.631   6.645
  756SOL    HW1 2828   0.798   0.611   6.587
  756SOL    HW2 2829   0.699   0.720   6.620
  757SOL     OW 2830   1.734   0.959   7.438
  757SOL    HW1 2831   1.686   0.901   7.378
  757SOL    HW2 2832   1.674   0.971   7.512
  758SOL     OW 2833   0.319   0.075   6.217
  758SOL    HW1 2834   0.302   0.163   6.250
  758SOL    HW2 2835   0.306   0.018   6.293
  759SOL     OW 2836   1.613   0.376   5.950
  759SOL    HW1 2837   1.643   0.313   6.016
  759SOL    HW2 2838   1.590   0.454   6.001
  760SOL     OW 2839   1.028   0.761   6.548
  760SOL    HW1 2840   1.026   0.777   6.642
  760SOL    HW2 2841   0.999   0.670   6.538
  761SOL     OW 2842   0.983   1.567   7.302
  761SOL    HW1 2843   0.967   1.610   7.218
  761SOL    HW2 2844   1.025   1.484   7.278
  762SOL     OW 2845   1.856   1.507   7.191
  762SOL    HW1 2846   1.872   1.534   7.100
  762SOL    HW2 2847   1.937   1.528   7.237
  763SOL     OW 2848   0.347   0.932   7.404
  763SOL    HW1 2849   0.420   0.961   7.459
  763SOL    HW2 2850   0.385   0.865   7.347
  764SOL     OW 2851   1.531   0.266   5.714
  764SOL    HW1 2852   1.459   0.210   5.742
  764SOL    HW2 2853   1.560   0.311   5.793
  765SOL     OW 2854   1.293   0.827   5.618
  765SOL    HW1 2855   1.335   0.740   5.620
  765SOL    HW2 2856   1.324   0.866   5.536
  766SOL     OW 2857   1.065   1.335   6.438
  766SOL    HW1 2858   1.068   1.262   6.377
  766SOL    HW2 2859   1.128   1.398   6.404
  767SOL     OW 2860   0.318   0.813   6.535
  767SOL    HW1 2861   0.412   0.830   6.531
  767SOL    HW2 2862   0.311   0.722   6.565
  768SOL     OW 2863   0.336   0.529   6.578
  768SOL    HW1 2864   0.291   0.446   6.558
  768SOL    HW2 2865   0.413   0.528   6.521
  769SOL     OW 2866   1.135   0.374   7.280
  769SOL    HW1 2867   1.086   0.439   7.332
  769SOL    HW2 2868   1.221   0.414   7.267
  770SOL     OW 2869   1.158   0.212   7.059
  770SOL    HW1 2870   1.151   0.276   7.130
  770SOL    HW2 2871   1.196   0.261   6.986
  771SOL     OW 2872   4.492   1.322   5.789
  771SOL    HW1 2873   4.399   1.338   5.771
  771SOL    HW2 2874   4.497   1.230   5.812
  772SOL     OW 2875   0.096   1.778   6.526
  772SOL    HW1 2876   0.058   1.722   6.458
  772SOL    HW2 2877   0.184   1.799   6.493
  773SOL     OW 2878   0.497   1.573   6.493
  773SOL    HW1 2879   0.566   1.636   6.516
  773SOL    HW2 2880   0.542   1.510   6.437
  774SOL     OW 2881   0.986   0.794   6.814
  774SOL    HW1 2882   1.040   0.770   6.889
  774SOL    HW2 2883   0.900   0.756   6.833
  775SOL     OW 2884   0.039   0.567   6.697
  775SOL    HW1 2885   0.113   0.523   6.655
  775SOL    HW2 2886   0.019   0.513   6.774
  776SOL     OW 2887   0.180   0.521   7.297
  776SOL    HW1 2888   0.266   0.504   7.260
  776SOL    HW2 2889   0.151   0.602   7.255
  777SOL     OW 2890   1.377   0.940   7.245
  777SOL    HW1 2891   1.397   1.033   7.244
  777SOL    HW2 2892   1.374   0.915   7.153
  778SOL     OW 2893   0.812   0.574   5.940
  778SOL    HW1 2894   0.814   0.502   5.876
  778SOL    HW2 2895   0.738   0.628   5.911
  779SOL     OW 2896   1.641   0.601   6.774
  779SOL    HW1 2897   1.630   0.542   6.848
  779SOL    HW2 2898   1.728   0.581   6.739
  780SOL     OW 2899   0.272   1.562   7.327
  780SOL    HW1 2900   0.217   1.614   7.386
  780SOL    HW2 2901   0.252   1.471   7.350
  781SOL     OW 2902   0.685   0.464   6.853
  781SOL    HW1 2903   0.647   0.383   6.817
  781SOL    HW2 2904   0.692   0.522   6.778
  782SOL     OW 2905   0.930   1.679   7.053
  782SOL    HW1 2906   0.903   1.646   6.967
  782SOL    HW2 2907   0.926   1.774   7.044
  783SOL     OW 2908   0.473   0.491   5.770
  783SOL    HW1 2909   0.532   0.562   5.793
  783SOL    HW2 2910   0.389   0.533   5.755
  784SOL     OW 2911   0.162   1.141   7.048
  784SOL    HW1 2912   0.146   1.094   7.130
  784SOL    HW2 2913   0.169   1.071   6.983
  785SOL     OW 2914   1.328   1.048   6.810
  785SOL    HW1 2915   1.351   0.984   6.742
  785SOL    HW2 2916   1.256   1.099   6.772
  786SOL     OW 2917   1.310   0.857   5.893
  786SOL    HW1 2918   1.235   0.827   5.943
  786SOL    HW2 2919   1.285   0.843   5.801
  787SOL     OW 2920   1.745   1.743   6.736
  787SOL    HW1 2921   1.811   1.772   6.674
  787SOL    HW2 2922   1.733   1.650   6.716
  788SOL     OW 2923   1.241   1.732   6.700
  788SOL    HW1 2924   1.324   1.752   6.656
  788SOL    HW2 2925   1.246   1.639   6.719
  789SOL     OW 2926   0.067   1.186   6.635
  789SOL    HW1 2927   0.069   1.219   6.725
  789SOL    HW2 2928   0.018   1.252   6.586
  790SOL     OW 2929   0.679   1.665   7.313
  790SOL    HW1 2930   0.624   1.743   7.309
  790SOL    HW2 2931   0.742   1.675   7.242
  791SOL     OW 2932   1.718   0.130   6.081
  791SOL    HW1 2933   1.791   0.137   6.019
  791SOL    HW2 2934   1.742   0.057   6.138
  792SOL     OW 2935   1.394   1.573   6.063
  792SOL    HW1 2936   1.414   1.601   5.973
  792SOL    HW2 2937   1.345   1.647   6.100
  793SOL     OW 2938   0.119   1.808   7.434
  793SOL    HW1 2939   0.080   1.735   7.481
  793SOL    HW2 2940   0.183   1.845   7.495
  794SOL     OW 2941   1.278   0.927   6.258
  794SOL    HW1 2942   1.351   0.864   6.263
  794SOL    HW2 2943   1.312   0.999   6.206
  795SOL     OW 2944   0.816   1.273   7.017
  795SOL    HW1 2945   0.789   1.312   7.100
  795SOL    HW2 2946   0.745   1.295   6.956
  796SOL     OW 2947   0.673   1.618   5.741
  796SOL    HW1 2948   0.681   1.629   5.646
  796SOL    HW2 2949   0.618   1.540   5.751
  797SOL     OW 2950   1.628   1.728   6.981
  797SOL    HW1 2951   1.673   1.734   6.897
  797SOL    HW2 2952   1.617   1.819   7.009
  798SOL     OW 2953   1.839   0.155   6.552
  798SOL    HW1 2954   1.868   0.078   6.503
  798SOL    HW2 2955   1.752   0.174   6.517
  799SOL     OW 2956   0.265   0.325   6.310
  799SOL    HW1 2957   0.182   0.360   6.276
  799SOL    HW2 2958   0.250   0.316   6.404
  800SOL     OW 2959   1.203   1.607   5.618
  800SOL    HW1 2960   1.197   1.514   5.643
  800SOL    HW2 2961   1.139   1.617   5.548
  801SOL     OW 2962   0.825   1.007   6.958
  801SOL    HW1 2963   0.868   1.003   6.872
  801SOL    HW2 2964   0.825   1.099   6.981
  802SOL     OW 2965   0.915   0.910   5.875
  802SOL    HW1 2966   0.977   0.942   5.810
  802SOL    HW2 2967   0.962   0.840   5.921
  803SOL     OW 2968   1.490   1.615   5.624
  803SOL    HW1 2969   1.394   1.623   5.621
  803SOL    HW2 2970   1.518   1.627   5.533
  804SOL     OW 2971   0.373   1.306   7.077
  804SOL    HW1 2972   0.356   1.385   7.025
  804SOL    HW2 2973   0.297   1.250   7.060
  805SOL     OW 2974   1.611   1.283   6.866
  805SOL    HW1 2975   1.671   1.275   6.940
  805SOL    HW2 2976   1.551   1.353   6.893
  806SOL     OW 2977   1.050   1.106   6.291
  806SOL    HW1 2978   0.980   1.056   6.331
  806SOL    HW2 2979   1.112   1.040   6.260
  807SOL     OW 2980   1.006   0.243   6.588
  807SOL    HW1 2981   1.012   0.217   6.496
  807SOL    HW2 2982   0.999   0.159   6.635
  808SOL     OW 2983   0.604   1.489   6.069
  808SOL    HW1 2984   0.643   1.439   5.997
  808SOL    HW2 2985   0.531   1.536   6.028
  809SOL     OW 2986   1.720   0.393   6.963
  809SOL    HW1 2987   1.793   0.456   6.963
  809SOL    HW2 2988   1.750   0.322   6.907
  810SOL     OW 2989   0.252   1.344   5.863
  810SOL    HW1 2990   0.157   1.345   5.848
  810SOL    HW2 2991   0.262   1.377   5.952
  811SOL     OW 2992   0.116   1.007   7.282
  811SOL    HW1 2993   0.052   1.049   7.340
  811SOL    HW2 2994   0.194   0.997   7.336
  812SOL     OW 2995   0.659   0.208   7.083
  812SOL    HW1 2996   0.738   0.181   7.036
  812SOL    HW2 2997   0.687   0.224   7.173
  813SOL     OW 2998   0.071   0.320   5.612
  813SOL    HW1 2999   4.476   0.329   5.625
  813SOL    HW2 3000   0.099   0.407   5.581
  814SOL     OW 3001   1.431   0.858   6.987
  814SOL    HW1 3002   1.382   0.919   6.931
  814SOL    HW2 3003   1.520   0.861   6.953
  815SOL     OW 3004   0.084   0.188   5.889
  815SOL    HW1 3005   0.078   0.260   5.826
  815SOL    HW2 3006   0.163   0.141   5.863
  816SOL     OW 3007   1.179   1.340   5.702
  816SOL    HW1 3008   1.088   1.311   5.704
  816SOL    HW2 3009   1.207   1.339   5.794
  817SOL     OW 3010   0.622   0.830   7.015
  817SOL    HW1 3011   0.677   0.908   7.002
  817SOL    HW2 3012   0.685   0.758   7.024
  818SOL     OW 3013   1.486   1.769   6.566
  818SOL    HW1 3014   1.511   1.821   6.489
  818SOL    HW2 3015   1.567   1.760   6.616
  819SOL     OW 3016   0.714   0.562   7.291
  819SOL    HW1 3017   0.749   0.629   7.350
  819SOL    HW2 3018   0.751   0.480   7.323
  820SOL     OW 3019   1.470   1.201   7.219
  820SOL    HW1 3020   1.458   1.215   7.312
  820SOL    HW2 3021   1.564   1.215   7.204
  821SOL     OW 3022   0.381   1.743   7.150
  821SOL    HW1 3023   0.296   1.783   7.133
  821SOL    HW2 3024   0.360   1.663   7.197
  822SOL     OW 3025   1.671   0.882   6.841
  822SOL    HW1 3026   1.662   0.797   6.798
  822SOL    HW2 3027   1.661   0.945   6.771
  823SOL     OW 3028   1.218   0.329   6.034
  823SOL    HW1 3029   1.283   0.259   6.024
  823SOL    HW2 3030   1.245   0.376   6.112
  824SOL     OW 3031   0.588   0.739   6.255
  824SOL    HW1 3032   0.628   0.824   6.239
  824SOL    HW2 3033   0.519   0.732   6.189
  825SOL     OW 3034   1.764   0.363   7.229
  825SOL    HW1 3035   1.748   0.377   7.136
  825SOL    HW2 3036   1.685   0.319   7.261
  826SOL     OW 3037   1.745   0.933   7.099
  826SOL    HW1 3038   1.744   1.028   7.112
  826SOL    HW2 3039   1.729   0.922   7.005
  827SOL     OW 3040   0.864   1.368   5.619
  827SOL    HW1 3041   0.823   1.394   5.701
  827SOL    HW2 3042   0.881   1.450   5.573
  828SOL     OW 3043   0.660   1.793   6.532
  828SOL    HW1 3044   0.638   1.883   6.508
  828SOL    HW2 3045   0.755   1.788   6.524
  829SOL     OW 3046   0.867   0.967   6.441
  829SOL    HW1 3047   0.917   0.895   6.480
  829SOL    HW2 3048   0.833   1.016   6.516
  830SOL     OW 3049   1.080   0.989   5.675
  830SOL    HW1 3050   1.057   1.038   5.597
  830SOL    HW2 3051   1.155   0.935   5.649
  831SOL     OW 3052   1.856   1.539   6.414
  831SOL    HW1 3053   1.769   1.539   6.374
  831SOL    HW2 3054   1.846   1.484   6.492
  832SOL     OW 3055   0.229   1.306   7.443
  832SOL    HW1 3056   0.158   1.247   7.420
  832SOL    HW2 3057   0.222   1.316   7.538
  833SOL     OW 3058   0.104   1.237   6.253
  833SOL    HW1 3059   0.113   1.189   6.335
  833SOL    HW2 3060   0.164   1.193   6.193
  834SOL     OW 3061   0.681   1.402   7.213
  834SOL    HW1 3062   0.601   1.358   7.242
  834SOL    HW2 3063   0.675   1.490   7.250
  835SOL     OW 3064   1.810   0.182   6.825
  835SOL    HW1 3065   1.808   0.089   6.846
  835SOL    HW2 3066   1.825   0.185   6.730
  836SOL     OW 3067   0.440   0.431   6.117
  836SOL    HW1 3068   0.458   0.361   6.054
  836SOL    HW2 3069   0.381   0.392   6.181
  837SOL     OW 3070   1.704   1.484   6.677
  837SOL    HW1 3071   1.620   1.462   6.638
  837SOL    HW2 3072   1.717   1.419   6.746
  838SOL     OW 3073   0.312   0.504   6.841
  838SOL    HW1 3074   0.384   0.456   6.881
  838SOL    HW2 3075   0.338   0.514   6.750
  839SOL     OW 3076   0.827   1.577   6.264
  839SOL    HW1 3077   0.816   1.629   6.184
  839SOL    HW2 3078   0.749   1.522   6.268
  840SOL     OW 3079   1.432   0.215   6.704
  840SOL    HW1 3080   1.468   0.145   6.758
  840SOL    HW2 3081   1.381   0.269   6.765
  841SOL     OW 3082   0.996   0.009   6.736
  841SOL    HW1 3083   0.952   4.425   6.726
  841SOL    HW2 3084   1.089   4.487   6.748
  842SOL     OW 3085   0.772   1.332   5.898
  842SOL    HW1 3086   0.739   1.242   5.904
  842SOL    HW2 3087   0.854   1.331   5.947
  843SOL     OW 3088   0.621   1.557   6.871
  843SOL    HW1 3089   0.623   1.638   6.921
  843SOL    HW2 3090   0.708   1.550   6.832
  844SOL     OW 3091   1.341   0.053   5.739
  844SOL    HW1 3092   1.380   4.478   5.694
  844SOL    HW2 3093   1.266   0.017   5.785
  845SOL     OW 3094   1.314   0.463   6.264
  845SOL    HW1 3095   1.254   0.537   6.265
  845SOL    HW2 3096   1.302   0.421   6.350
  846SOL     OW 3097   1.586   0.201   6.454
  846SOL    HW1 3098   1.525   0.216   6.527
  846SOL    HW2 3099   1.588   0.285   6.407
  847SOL     OW 3100   0.041   1.052   5.873
  847SOL    HW1 3101   0.136   1.038   5.865
  847SOL    HW2 3102   0.019   1.017   5.959
  848SOL     OW 3103   0.883   1.651   5.929
  848SOL    HW1 3104   0.810   1.633   5.869
  848SOL    HW2 3105   0.853   1.726   5.980
  849SOL     OW 3106   0.247   0.627   7.568
  849SOL    HW1 3107   0.172   0.608   7.625
  849SOL    HW2 3108   0.214   0.612   7.479
  850SOL     OW 3109   0.195   0.293   8.437
  850SOL    HW1 3110   0.230   0.269   8.523
  850SOL    HW2 3111   0.132   0.224   8.417
  851SOL     OW 3112   0.005   0.379   8.089
  851SOL    HW1 3113   4.426   0.416   8.129
  851SOL    HW2 3114   4.473   0.308   8.034
  852SOL     OW 3115   0.567   1.285   8.622
  852SOL    HW1 3116   0.480   1.290   8.584
  852SOL    HW2 3117   0.583   1.372   8.657
  853SOL     OW 3118   1.559   1.512   8.154
  853SOL    HW1 3119   1.516   1.493   8.238
  853SOL    HW2 3120   1.487   1.516   8.091
  854SOL     OW 3121   1.133   0.699   8.148
  854SOL    HW1 3122   1.180   0.782   8.137
  854SOL    HW2 3123   1.083   0.710   8.229
  855SOL     OW 3124   1.766   0.608   7.677
  855SOL    HW1 3125   1.746   0.598   7.583
  855SOL    HW2 3126   1.733   0.527   7.717
  856SOL     OW 3127   0.757   1.143   8.487
  856SOL    HW1 3128   0.687   1.177   8.544
  856SOL    HW2 3129   0.792   1.220   8.443
  857SOL     OW 3130   0.864   0.776   9.269
  857SOL    HW1 3131   0.851   0.847   9.331
  857SOL    HW2 3132   0.888   0.820   9.187
  858SOL     OW 3133   0.686   1.005   8.096
  858SOL    HW1 3134   0.751   0.991   8.165
  858SOL    HW2 3135   0.616   1.055   8.138
  859SOL     OW 3136   0.709   1.151   9.259
  859SOL    HW1 3137   0.757   1.230   9.285
  859SOL    HW2 3138   0.626   1.182   9.224
  860SOL     OW 3139   0.336   1.422   8.518
  860SOL    HW1 3140   0.255   1.403   8.471
  860SOL    HW2 3141   0.386   1.476   8.457
  861SOL     OW 3142   1.461   1.499   8.800
  861SOL    HW1 3143   1.510   1.581   8.809
  861SOL    HW2 3144   1.403   1.497   8.876
  862SOL     OW 3145   0.438   0.396   8.940
  862SOL    HW1 3146   0.526   0.360   8.941
  862SOL    HW2 3147   0.381   0.320   8.958
  863SOL     OW 3148   1.612   0.447   8.186
  863SOL    HW1 3149   1.532   0.469   8.139
  863SOL    HW2 3150   1.631   0.524   8.239
  864SOL     OW 3151   0.245   1.692   7.926
  864SOL    HW1 3152   0.231   1.776   7.968
  864SOL    HW2 3153   0.311   1.709   7.859
  865SOL     OW 3154   1.136   1.341   9.140
  865SOL    HW1 3155   1.176   1.337   9.227
  865SOL    HW2 3156   1.083   1.261   9.134
  866SOL     OW 3157   0.246   1.427   7.976
  866SOL    HW1 3158   0.238   1.522   7.979
  866SOL    HW2 3159   0.183   1.395   8.039
  867SOL     OW 3160   0.246   1.081   8.331
  867SOL    HW1 3161   0.264   0.993   8.362
  867SOL    HW2 3162   0.187   1.119   8.397
  868SOL     OW 3163   0.615   1.791   8.880
  868SOL    HW1 3164   0.531   1.773   8.923
  868SOL    HW2 3165   0.635   1.881   8.903
  869SOL     OW 3166   0.581   0.985   7.585
  869SOL    HW1 3167   0.628   1.030   7.514
  869SOL    HW2 3168   0.626   1.013   7.664
  870SOL     OW 3169   1.583   0.115   8.920
  870SOL    HW1 3170   1.600   0.184   8.856
  870SOL    HW2 3171   1.573   0.161   9.003
  871SOL     OW 3172   0.136   0.643   8.022
  871SOL    HW1 3173   0.083   0.564   8.039
  871SOL    HW2 3174   0.107   0.705   8.089
  872SOL     OW 3175   1.842   1.760   7.783
  872SOL    HW1 3176   1.901   1.731   7.852
  872SOL    HW2 3177   1.867   1.851   7.766
  873SOL     OW 3178   0.033   1.601   7.586
  873SOL    HW1 3179   0.021   1.506   7.585
  873SOL    HW2 3180   0.017   1.627   7.677
  874SOL     OW 3181   1.691   0.920   8.087
  874SOL    HW1 3182   1.774   0.878   8.066
  874SOL    HW2 3183   1.668   0.969   8.009
  875SOL     OW 3184   1.645   1.108   7.877
  875SOL    HW1 3185   1.731   1.115   7.835
  875SOL    HW2 3186   1.650   1.168   7.951
  876SOL     OW 3187   0.106   0.763   9.033
  876SOL    HW1 3188   0.199   0.761   9.008
  876SOL    HW2 3189   0.087   0.856   9.047
  877SOL     OW 3190   0.613   1.384   8.184
  877SOL    HW1 3191   0.566   1.301   8.193
  877SOL    HW2 3192   0.597   1.410   8.093
  878SOL     OW 3193   1.289   1.238   8.872
  878SOL    HW1 3194   1.322   1.171   8.812
  878SOL    HW2 3195   1.346   1.231   8.949
  879SOL     OW 3196   0.819   0.012   7.997
  879SOL    HW1 3197   0.853   0.098   7.973
  879SOL    HW2 3198   0.724   0.020   7.987
  880SOL     OW 3199   0.181   0.942   8.727
  880SOL    HW1 3200   0.273   0.925   8.706
  880SOL    HW2 3201   0.133   0.923   8.646
  881SOL     OW 3202   1.532   0.992   7.646
  881SOL    HW1 3203   1.461   0.935   7.677
  881SOL    HW2 3204   1.572   1.027   7.725
  882SOL     OW 3205   1.184   1.805   9.069
  882SOL    HW1 3206   1.200   1.863   8.994
  882SOL    HW2 3207   1.201   1.717   9.035
  883SOL     OW 3208   0.318   0.260   9.219
  883SOL    HW1 3209   0.386   0.312   9.261
  883SOL    HW2 3210   0.242   0.268   9.276
  884SOL     OW 3211   1.466   1.419   8.400
  884SOL    HW1 3212   1.398   1.434   8.466
  884SOL    HW2 3213   1.454   1.328   8.373
  885SOL     OW 3214   1.662   1.734   8.025
  885SOL    HW1 3215   1.638   1.706   7.937
  885SOL    HW2 3216   1.635   1.663   8.082
  886SOL     OW 3217   0.596   0.723   7.713
  886SOL    HW1 3218   0.600   0.804   7.662
  886SOL    HW2 3219   0.530   0.740   7.780
  887SOL     OW 3220   1.291   0.361   8.382
  887SOL    HW1 3221   1.202   0.330   8.366
  887SOL    HW2 3222   1.327   0.298   8.444
  888SOL     OW 3223   1.581   1.669   7.757
  888SOL    HW1 3224   1.670   1.703   7.750
  888SOL    HW2 3225   1.555   1.652   7.666
  889SOL     OW 3226   0.797   0.617   8.902
  889SOL    HW1 3227   0.769   0.593   8.990
  889SOL    HW2 3228   0.753   0.555   8.845
  890SOL     OW 3229   1.389   0.478   9.124
  890SOL    HW1 3230   1.391   0.523   9.209
  890SOL    HW2 3231   1.455   0.410   9.130
  891SOL     OW 3232   0.956   0.888   9.030
  891SOL    HW1 3233   1.010   0.817   8.995
  891SOL    HW2 3234   0.909   0.922   8.953
  892SOL     OW 3235   0.997   0.417   8.685
  892SOL    HW1 3236   0.911   0.428   8.725
  892SOL    HW2 3237   0.980   0.365   8.606
  893SOL     OW 3238   1.049   0.698   7.875
  893SOL    HW1 3239   1.065   0.690   7.969
  893SOL    HW2 3240   0.967   0.651   7.861
  894SOL     OW 3241   0.098   0.824   8.231
  894SOL    HW1 3242   0.185   0.807   8.268
  894SOL    HW2 3243   0.048   0.862   8.304
  895SOL     OW 3244   0.123   1.856   9.024
  895SOL    HW1 3245   0.117   1.832   9.117
  895SOL    HW2 3246   0.045   1.817   8.984
  896SOL     OW 3247   0.853   0.368   7.626
  896SOL    HW1 3248   0.928   0.403   7.578
  896SOL    HW2 3249   0.871   0.274   7.633
  897SOL     OW 3250   1.705   0.574   9.276
  897SOL    HW1 3251   1.669   0.650   9.229
  897SOL    HW2 3252   1.740   0.518   9.207
  898SOL     OW 3253   1.376   1.142   7.989
  898SOL    HW1 3254   1.455   1.129   7.936
  898SOL    HW2 3255   1.323   1.205   7.939
  899SOL     OW 3256   0.543   0.203   8.349
  899SOL    HW1 3257   0.562   0.222   8.440
  899SOL    HW2 3258   0.533   0.289   8.308
  900SOL     OW 3259   1.007   1.445   7.921
  900SOL    HW1 3260   0.968   1.517   7.872
  900SOL    HW2 3261   0.991   1.467   8.013
  901SOL     OW 3262   0.355   1.809   8.305
  901SOL    HW1 3263   0.398   1.724   8.316
  901SOL    HW2 3264   0.425   1.873   8.321
  902SOL     OW 3265   1.799   1.058   8.315
  902SOL    HW1 3266   1.743   1.041   8.239
  902SOL    HW2 3267   1.738   1.064   8.389
  903SOL     OW 3268   1.228   1.539   8.961
  903SOL    HW1 3269   1.214   1.466   9.021
  903SOL    HW2 3270   1.166   1.524   8.889
  904SOL     OW 3271   0.317   0.954   7.699
  904SOL    HW1 3272   0.401   0.977   7.660
  904SOL    HW2 3273   0.300   0.864   7.671
  905SOL     OW 3274   1.478   0.741   8.173
  905SOL    HW1 3275   1.465   0.696   8.257
  905SOL    HW2 3276   1.554   0.797   8.187
  906SOL     OW 3277   0.466   1.262   9.183
  906SOL    HW1 3278   0.439   1.268   9.092
  906SOL    HW2 3279   0.385   1.267   9.233
  907SOL     OW 3280   1.121   1.778   7.679
  907SOL    HW1 3281   1.049   1.735   7.726
  907SOL    HW2 3282   1.143   1.717   7.609
  908SOL     OW 3283   0.164   0.264   8.957
  908SOL    HW1 3284   0.136   0.351   8.930
  908SOL    HW2 3285   0.198   0.277   9.046
  909SOL     OW 3286   1.629   1.379   7.535
  909SOL    HW1 3287   1.588   1.465   7.520
  909SOL    HW2 3288   1.560   1.316   7.516
  910SOL     OW 3289   0.469   1.743   7.762
  910SOL    HW1 3290   0.510   1.797   7.831
  910SOL    HW2 3291   0.542   1.710   7.711
  911SOL     OW 3292   1.419   0.135   7.866
  911SOL    HW1 3293   1.402   0.086   7.786
  911SOL    HW2 3294   1.513   0.131   7.878
  912SOL     OW 3295   0.256   1.790   8.683
  912SOL    HW1 3296   0.305   1.716   8.720
  912SOL    HW2 3297   0.227   1.758   8.597
  913SOL     OW 3298   0.938   1.699   8.348
  913SOL    HW1 3299   1.015   1.646   8.369
  913SOL    HW2 3300   0.893   1.649   8.279
  914SOL     OW 3301   0.393   0.694   7.921
  914SOL    HW1 3302   0.418   0.602   7.933
  914SOL    HW2 3303   0.301   0.697   7.947
  915SOL     OW 3304   1.526   0.233   9.170
  915SOL    HW1 3305   1.525   0.256   9.263
  915SOL    HW2 3306   1.449   0.176   9.159
  916SOL     OW 3307   0.623   0.122   7.565
  916SOL    HW1 3308   0.711   0.087   7.577
  916SOL    HW2 3309   0.594   0.085   7.482
  917SOL     OW 3310   0.768   0.269   9.201
  917SOL    HW1 3311   0.835   0.201   9.213
  917SOL    HW2 3312   0.727   0.277   9.287
  918SOL     OW 3313   0.877   1.521   8.641
  918SOL    HW1 3314   0.861   1.485   8.554
  918SOL    HW2 3315   0.946   1.467   8.678
  919SOL     OW 3316   1.342   0.589   8.877
  919SOL    HW1 3317   1.369   0.560   8.964
  919SOL    HW2 3318   1.376   0.678   8.870
  920SOL     OW 3319   0.814   1.396   8.386
  920SOL    HW1 3320   0.898   1.385   8.341
  920SOL    HW2 3321   0.749   1.396   8.315
  921SOL     OW 3322   0.922   0.517   8.349
  921SOL    HW1 3323   0.906   0.515   8.255
  921SOL    HW2 3324   0.962   0.431   8.368
  922SOL     OW 3325   0.560   0.068   7.956
  922SOL    HW1 3326   0.473   0.054   7.994
  922SOL    HW2 3327   0.548   0.139   7.894
  923SOL     OW 3328   1.428   1.198   7.489
  923SOL    HW1 3329   1.458   1.122   7.539
  923SOL    HW2 3330   1.343   1.219   7.526
  924SOL     OW 3331   0.304   0.075   7.634
  924SOL    HW1 3332   0.387   0.121   7.631
  924SOL    HW2 3333   0.320   4.499   7.690
  925SOL     OW 3334   0.952   0.240   7.919
  925SOL    HW1 3335   0.900   0.293   7.858
  925SOL    HW2 3336   1.040   0.276   7.911
  926SOL     OW 3337   1.080   0.680   8.909
  926SOL    HW1 3338   1.009   0.616   8.909
  926SOL    HW2 3339   1.160   0.628   8.897
  927SOL     OW 3340   1.225   1.569   8.241
  927SOL    HW1 3341   1.242   1.637   8.176
  927SOL    HW2 3342   1.292   1.583   8.308
  928SOL     OW 3343   0.465   1.149   8.185
  928SOL    HW1 3344   0.394   1.130   8.246
  928SOL    HW2 3345   0.428   1.133   8.098
  929SOL     OW 3346   1.270   1.794   8.055
  929SOL    HW1 3347   1.315   1.856   7.997
  929SOL    HW2 3348   1.205   1.848   8.100
  930SOL     OW 3349   1.030   0.548   7.464
  930SOL    HW1 3350   0.982   0.630   7.448
  930SOL    HW2 3351   1.088   0.569   7.537
  931SOL     OW 3352   0.093   0.520   8.861
  931SOL    HW1 3353   0.152   0.529   8.786
  931SOL    HW2 3354   0.061   0.609   8.877
  932SOL     OW 3355   0.562   0.243   8.614
  932SOL    HW1 3356   0.593   0.159   8.648
  932SOL    HW2 3357   0.469   0.244   8.633
  933SOL     OW 3358   0.866   0.502   8.074
  933SOL    HW1 3359   0.818   0.544   8.003
  933SOL    HW2 3360   0.840   0.410   8.070
  934SOL     OW 3361   0.966   0.028   8.228
  934SOL    HW1 3362   0.917   0.025   8.146
  934SOL    HW2 3363   0.978   4.436   8.251
  935SOL     OW 3364   1.436   1.162   8.305
  935SOL    HW1 3365   1.368   1.096   8.304
  935SOL    HW2 3366   1.459   1.175   8.213
  936SOL     OW 3367   1.467   0.604   8.425
  936SOL    HW1 3368   1.414   0.524   8.427
  936SOL    HW2 3369   1.525   0.597   8.500
  937SOL     OW 3370   1.847   0.818   7.830
  937SOL    HW1 3371   1.903   0.766   7.888
  937SOL    HW2 3372   1.818   0.756   7.763
  938SOL     OW 3373   0.492   1.416   7.608
  938SOL    HW1 3374   0.415   1.386   7.658
  938SOL    HW2 3375   0.473   1.391   7.518
  939SOL     OW 3376   1.669   1.265   8.094
  939SOL    HW1 3377   1.764   1.270   8.108
  939SOL    HW2 3378   1.637   1.353   8.116
  940SOL     OW 3379   1.394   0.570   7.518
  940SOL    HW1 3380   1.333   0.554   7.589
  940SOL    HW2 3381   1.480   0.551   7.555
  941SOL     OW 3382   0.523   0.264   7.770
  941SOL    HW1 3383   0.569   0.214   7.703
  941SOL    HW2 3384   0.507   0.350   7.729
  942SOL     OW 3385   1.754   1.237   9.024
  942SOL    HW1 3386   1.841   1.199   9.019
  942SOL    HW2 3387   1.768   1.328   9.051
  943SOL     OW 3388   1.060   1.353   8.782
  943SOL    HW1 3389   0.985   1.323   8.833
  943SOL    HW2 3390   1.135   1.312   8.823
  944SOL     OW 3391   1.607   1.624   9.100
  944SOL    HW1 3392   1.603   1.660   9.012
  944SOL    HW2 3393   1.691   1.578   9.103
  945SOL     OW 3394   1.127   1.202   8.554
  945SOL    HW1 3395   1.069   1.240   8.620
  945SOL    HW2 3396   1.094   1.234   8.470
  946SOL     OW 3397   1.630   1.099   8.526
  946SOL    HW1 3398   1.626   1.161   8.599
  946SOL    HW2 3399   1.550   1.115   8.476
  947SOL     OW 3400   0.903   0.132   8.836
  947SOL    HW1 3401   0.925   0.088   8.755
  947SOL    HW2 3402   0.987   0.146   8.880
  948SOL     OW 3403   0.984   1.114   9.171
  948SOL    HW1 3404   0.892   1.130   9.191
  948SOL    HW2 3405   0.983   1.037   9.115
  949SOL     OW 3406   0.708   1.061   7.820
  949SOL    HW1 3407   0.696   1.045   7.914
  949SOL    HW2 3408   0.784   1.007   7.797
  950SOL     OW 3409   0.430   0.825   8.688
  950SOL    HW1 3410   0.498   0.835   8.754
  950SOL    HW2 3411   0.371   0.759   8.724
  951SOL     OW 3412   1.269   0.376   8.721
  951SOL    HW1 3413   1.301   0.454   8.765
  951SOL    HW2 3414   1.180   0.398   8.693
  952SOL     OW 3415   0.062   1.576   8.790
  952SOL    HW1 3416   0.035   1.665   8.765
  952SOL    HW2 3417   0.157   1.581   8.795
  953SOL     OW 3418   0.348   1.108   7.941
  953SOL    HW1 3419   0.358   1.181   7.881
  953SOL    HW2 3420   0.350   1.030   7.885
  954SOL     OW 3421   0.564   0.528   8.302
  954SOL    HW1 3422   0.576   0.588   8.229
  954SOL    HW2 3423   0.623   0.560   8.370
  955SOL     OW 3424   1.248   1.348   7.837
  955SOL    HW1 3425   1.303   1.420   7.868
  955SOL    HW2 3426   1.161   1.369   7.871
  956SOL     OW 3427   1.279   1.456   8.594
  956SOL    HW1 3428   1.334   1.459   8.672
  956SOL    HW2 3429   1.224   1.379   8.607
  957SOL     OW 3430   1.583   0.624   7.924
  957SOL    HW1 3431   1.537   0.676   7.990
  957SOL    HW2 3432   1.627   0.689   7.870
  958SOL     OW 3433   0.347   1.530   8.764
  958SOL    HW1 3434   0.333   1.483   8.682
  958SOL    HW2 3435   0.442   1.540   8.770
  959SOL     OW 3436   0.481   0.760   9.115
  959SOL    HW1 3437   0.506   0.798   9.031
  959SOL    HW2 3438   0.520   0.672   9.114
  960SOL     OW 3439   1.599   0.777   9.128
  960SOL    HW1 3440   1.513   0.819   9.121
  960SOL    HW2 3441   1.652   0.820   9.060
  961SOL     OW 3442   1.006   0.086   9.170
  961SOL    HW1 3443   1.033   0.169   9.132
  961SOL    HW2 3444   1.031   0.020   9.105
  962SOL     OW 3445   0.496   0.045   9.199
  962SOL    HW1 3446   0.479   4.497   9.117
  962SOL    HW2 3447   0.429   0.114   9.200
  963SOL     OW 3448   0.589   0.874   8.471
  963SOL    HW1 3449   0.618   0.965   8.474
  963SOL    HW2 3450   0.533   0.865   8.549
  964SOL     OW 3451   1.359   0.858   8.479
  964SOL    HW1 3452   1.277   0.851   8.432
  964SOL    HW2 3453   1.398   0.771   8.474
  965SOL     OW 3454   1.205   0.535   7.712
  965SOL    HW1 3455   1.211   0.454   7.764
  965SOL    HW2 3456   1.162   0.598   7.771
  966SOL     OW 3457   0.285   0.218   8.682
  966SOL    HW1 3458   0.247   0.235   8.768
  966SOL    HW2 3459   0.324   0.130   8.690
  967SOL     OW 3460   0.043   1.313   8.733
  967SOL    HW1 3461   0.077   1.266   8.809
  967SOL    HW2 3462   0.047   1.405   8.758
  968SOL     OW 3463   0.724   0.631   8.507
  968SOL    HW1 3464   0.798   0.611   8.450
  968SOL    HW2 3465   0.699   0.720   8.482
  969SOL     OW 3466   1.734   0.959   9.300
  969SOL    HW1 3467   1.686   0.902   9.240
  969SOL    HW2 3468   1.674   0.971   9.374
  970SOL     OW 3469   0.319   0.075   8.079
  970SOL    HW1 3470   0.302   0.163   8.112
  970SOL    HW2 3471   0.307   0.018   8.155
  971SOL     OW 3472   1.613   0.376   7.812
  971SOL    HW1 3473   1.643   0.313   7.878
  971SOL    HW2 3474   1.590   0.454   7.863
  972SOL     OW 3475   1.028   0.761   8.410
  972SOL    HW1 3476   1.026   0.777   8.504
  972SOL    HW2 3477   0.999   0.670   8.400
  973SOL     OW 3478   0.982   1.566   9.164
  973SOL    HW1 3479   0.967   1.610   9.080
  973SOL    HW2 3480   1.025   1.484   9.140
  974SOL     OW 3481   1.856   1.506   9.053
  974SOL    HW1 3482   1.870   1.534   8.963
  974SOL    HW2 3483   1.937   1.530   9.099
  975SOL     OW 3484   0.347   0.932   9.266
  975SOL    HW1 3485   0.420   0.961   9.321
  975SOL    HW2 3486   0.385   0.865   9.209
  976SOL     OW 3487   1.531   0.266   7.576
  976SOL    HW1 3488   1.459   0.210   7.604
  976SOL    HW2 3489   1.560   0.311   7.655
  977SOL     OW 3490   1.293   0.827   7.479
  977SOL    HW1 3491   1.335   0.741   7.482
  977SOL    HW2 3492   1.324   0.866   7.398
  978SOL     OW 3493   1.065   1.335   8.301
  978SOL    HW1 3494   1.068   1.262   8.239
  978SOL    HW2 3495   1.128   1.399   8.266
  979SOL     OW 3496   0.318   0.813   8.397
  979SOL    HW1 3497   0.412   0.830   8.393
  979SOL    HW2 3498   0.311   0.722   8.427
  980SOL     OW 3499   0.336   0.529   8.440
  980SOL    HW1 3500   0.291   0.446   8.420
  980SOL    HW2 3501   0.413   0.528   8.383
  981SOL     OW 3502   1.135   0.374   9.142
  981SOL    HW1 3503   1.086   0.439   9.194
  981SOL    HW2 3504   1.221   0.414   9.129
  982SOL     OW 3505   1.158   0.212   8.921
  982SOL    HW1 3506   1.151   0.276   8.992
  982SOL    HW2 3507   1.196   0.261   8.848
  983SOL     OW 3508   4.492   1.323   7.651
  983SOL    HW1 3509   4.399   1.338   7.634
  983SOL    HW2 3510   4.497   1.230   7.674
  984SOL     OW 3511   0.096   1.779   8.388
  984SOL    HW1 3512   0.058   1.722   8.320
  984SOL    HW2 3513   0.184   1.799   8.355
  985SOL     OW 3514   0.497   1.573   8.355
  985SOL    HW1 3515   0.566   1.636   8.378
  985SOL    HW2 3516   0.542   1.510   8.299
  986SOL     OW 3517   0.986   0.794   8.676
  986SOL    HW1 3518   1.040   0.770   8.751
  986SOL    HW2 3519   0.900   0.756   8.695
  987SOL     OW 3520   0.039   0.567   8.559
  987SOL    HW1 3521   0.113   0.523   8.517
  987SOL    HW2 3522   0.019   0.513   8.636
  988SOL     OW 3523   0.180   0.521   9.160
  988SOL    HW1 3524   0.266   0.504   9.123
  988SOL    HW2 3525   0.151   0.602   9.117
  989SOL     OW 3526   1.377   0.940   9.107
  989SOL    HW1 3527   1.397   1.033   9.106
  989SOL    HW2 3528   1.374   0.915   9.015
  990SOL     OW 3529   0.812   0.573   7.802
  990SOL    HW1 3530   0.814   0.502   7.738
  990SOL    HW2 3531   0.738   0.628   7.773
  991SOL     OW 3532   1.641   0.601   8.636
  991SOL    HW1 3533   1.630   0.542   8.710
  991SOL    HW2 3534   1.728   0.581   8.601
  992SOL     OW 3535   0.271   1.562   9.189
  992SOL    HW1 3536   0.217   1.614   9.248
  992SOL    HW2 3537   0.252   1.471   9.212
  993SOL     OW 3538   0.685   0.464   8.715
  993SOL    HW1 3539   0.647   0.383   8.679
  993SOL    HW2 3540   0.692   0.523   8.640
  994SOL     OW 3541   0.929   1.679   8.915
  994SOL    HW1 3542   0.903   1.646   8.829
  994SOL    HW2 3543   0.926   1.774   8.906
  995SOL     OW 3544   0.473   0.491   7.632
  995SOL    HW1 3545   0.532   0.562   7.655
  995SOL    HW2 3546   0.388   0.534   7.617
  996SOL     OW 3547   0.162   1.141   8.910
  996SOL    HW1 3548   0.146   1.094   8.992
  996SOL    HW2 3549   0.169   1.071   8.845
  997SOL     OW 3550   1.327   1.048   8.672
  997SOL    HW1 3551   1.351   0.985   8.604
  997SOL    HW2 3552   1.256   1.099   8.634
  998SOL     OW 3553   1.311   0.856   7.755
  998SOL    HW1 3554   1.235   0.827   7.805
  998SOL    HW2 3555   1.285   0.843   7.663
  999SOL     OW 3556   1.761   1.744   8.593
  999SOL    HW1 3557   1.827   1.773   8.529
  999SOL    HW2 3558   1.745   1.653   8.572
 1000SOL     OW 3559   1.241   1.733   8.562
 1000SOL    HW1 3560   1.323   1.753   8.517
 1000SOL    HW2 3561   1.246   1.639   8.580
 1001SOL     OW 3562   0.067   1.186   8.497
 1001SOL    HW1 3563   0.069   1.219   8.587
 1001SOL    HW2 3564   0.018   1.252   8.448
 1002SOL     OW 3565   0.679   1.665   9.175
 1002SOL    HW1 3566   0.625   1.743   9.170
 1002SOL    HW2 3567   0.742   1.675   9.104
 1003SOL     OW 3568   1.718   0.130   7.943
 1003SOL    HW1 3569   1.791   0.137   7.881
 1003SOL    HW2 3570   1.742   0.057   8.000
 1004SOL     OW 3571   1.390   1.568   7.932
 1004SOL    HW1 3572   1.450   1.600   7.864
 1004SOL    HW2 3573   1.342   1.645   7.960
 1005SOL     OW 3574   0.119   1.808   9.296
 1005SOL    HW1 3575   0.080   1.735   9.343
 1005SOL    HW2 3576   0.183   1.845   9.357
 1006SOL     OW 3577   1.278   0.926   8.120
 1006SOL    HW1 3578   1.351   0.864   8.124
 1006SOL    HW2 3579   1.312   0.999   8.068
 1007SOL     OW 3580   0.816   1.273   8.879
 1007SOL    HW1 3581   0.789   1.312   8.962
 1007SOL    HW2 3582   0.746   1.295   8.818
 1008SOL     OW 3583   0.673   1.618   7.603
 1008SOL    HW1 3584   0.682   1.629   7.509
 1008SOL    HW2 3585   0.618   1.540   7.613
 1009SOL     OW 3586   1.628   1.726   8.838
 1009SOL    HW1 3587   1.677   1.735   8.756
 1009SOL    HW2 3588   1.614   1.816   8.868
 1010SOL     OW 3589   1.839   0.155   8.414
 1010SOL    HW1 3590   1.868   0.077   8.366
 1010SOL    HW2 3591   1.752   0.175   8.379
 1011SOL     OW 3592   0.265   0.325   8.172
 1011SOL    HW1 3593   0.182   0.360   8.138
 1011SOL    HW2 3594   0.250   0.316   8.266
 1012SOL     OW 3595   1.207   1.607   7.479
 1012SOL    HW1 3596   1.198   1.516   7.506
 1012SOL    HW2 3597   1.142   1.618   7.410
 1013SOL     OW 3598   0.825   1.007   8.820
 1013SOL    HW1 3599   0.868   1.003   8.734
 1013SOL    HW2 3600   0.825   1.099   8.843
 1014SOL     OW 3601   0.915   0.910   7.737
 1014SOL    HW1 3602   0.977   0.942   7.672
 1014SOL    HW2 3603   0.962   0.840   7.783
 1015SOL     OW 3604   1.493   1.624   7.490
 1015SOL    HW1 3605   1.399   1.619   7.478
 1015SOL    HW2 3606   1.529   1.631   7.402
 1016SOL     OW 3607   0.373   1.306   8.939
 1016SOL    HW1 3608   0.356   1.385   8.887
 1016SOL    HW2 3609   0.297   1.250   8.922
 1017SOL     OW 3610   1.611   1.283   8.729
 1017SOL    HW1 3611   1.672   1.275   8.802
 1017SOL    HW2 3612   1.551   1.353   8.755
 1018SOL     OW 3613   1.050   1.106   8.153
 1018SOL    HW1 3614   0.980   1.055   8.193
 1018SOL    HW2 3615   1.112   1.041   8.121
 1019SOL     OW 3616   1.005   0.243   8.450
 1019SOL    HW1 3617   1.012   0.217   8.358
 1019SOL    HW2 3618   0.999   0.159   8.497
 1020SOL     OW 3619   0.603   1.489   7.931
 1020SOL    HW1 3620   0.644   1.439   7.860
 1020SOL    HW2 3621   0.531   1.536   7.889
 1021SOL     OW 3622   1.720   0.393   8.825
 1021SOL    HW1 3623   1.793   0.456   8.825
 1021SOL    HW2 3624   1.750   0.322   8.769
 1022SOL     OW 3625   0.252   1.344   7.725
 1022SOL    HW1 3626   0.157   1.345   7.710
 1022SOL    HW2 3627   0.263   1.377   7.814
 1023SOL     OW 3628   0.116   1.007   9.143
 1023SOL    HW1 3629   0.052   1.049   9.202
 1023SOL    HW2 3630   0.194   0.997   9.197
 1024SOL     OW 3631   0.659   0.208   8.945
 1024SOL    HW1 3632   0.738   0.181   8.898
 1024SOL    HW2 3633   0.687   0.224   9.035
 1025SOL     OW 3634   0.071   0.320   7.474
 1025SOL    HW1 3635   4.476   0.329   7.487
 1025SOL    HW2 3636   0.099   0.406   7.443
 1026SOL     OW 3637   1.431   0.858   8.849
 1026SOL    HW1 3638   1.382   0.919   8.793
 1026SOL    HW2 3639   1.520   0.861   8.815
 1027SOL     OW 3640   0.084   0.188   7.751
 1027SOL    HW1 3641   0.078   0.261   7.688
 1027SOL    HW2 3642   0.163   0.141   7.725
 1028SOL     OW 3643   1.179   1.340   7.565
 1028SOL    HW1 3644   1.088   1.311   7.568
 1028SOL    HW2 3645   1.208   1.340   7.656
 1029SOL     OW 3646   0.622   0.830   8.877
 1029SOL    HW1 3647   0.677   0.908   8.864
 1029SOL    HW2 3648   0.685   0.758   8.886
 1030SOL     OW 3649   1.486   1.774   8.425
 1030SOL    HW1 3650   1.511   1.835   8.355
 1030SOL    HW2 3651   1.567   1.761   8.475
 1031SOL     OW 3652   0.714   0.562   9.153
 1031SOL    HW1 3653   0.749   0.629   9.212
 1031SOL    HW2 3654   0.751   0.480   9.185
 1032SOL     OW 3655   1.470   1.201   9.081
 1032SOL    HW1 3656   1.458   1.215   9.174
 1032SOL    HW2 3657   1.564   1.216   9.066
 1033SOL     OW 3658   0.381   1.743   9.012
 1033SOL    HW1 3659   0.296   1.783   8.995
 1033SOL    HW2 3660   0.360   1.663   9.059
 1034SOL     OW 3661   1.671   0.882   8.703
 1034SOL    HW1 3662   1.662   0.797   8.660
 1034SOL    HW2 3663   1.661   0.946   8.633
 1035SOL     OW 3664   1.218   0.329   7.896
 1035SOL    HW1 3665   1.283   0.259   7.886
 1035SOL    HW2 3666   1.245   0.376   7.974
 1036SOL     OW 3667   0.588   0.738   8.117
 1036SOL    HW1 3668   0.628   0.824   8.102
 1036SOL    HW2 3669   0.519   0.732   8.051
 1037SOL     OW 3670   1.764   0.363   9.091
 1037SOL    HW1 3671   1.748   0.377   8.998
 1037SOL    HW2 3672   1.685   0.319   9.123
 1038SOL     OW 3673   1.744   0.933   8.961
 1038SOL    HW1 3674   1.744   1.028   8.974
 1038SOL    HW2 3675   1.729   0.923   8.867
 1039SOL     OW 3676   0.863   1.368   7.480
 1039SOL    HW1 3677   0.824   1.394   7.563
 1039SOL    HW2 3678   0.881   1.450   7.435
 1040SOL     OW 3679   0.660   1.793   8.395
 1040SOL    HW1 3680   0.639   1.883   8.370
 1040SOL    HW2 3681   0.755   1.787   8.386
 1041SOL     OW 3682   0.867   0.966   8.303
 1041SOL    HW1 3683   0.917   0.895   8.342
 1041SOL    HW2 3684   0.833   1.016   8.378
 1042SOL     OW 3685   1.080   0.988   7.537
 1042SOL    HW1 3686   1.057   1.039   7.459
 1042SOL    HW2 3687   1.155   0.935   7.510
 1043SOL     OW 3688   1.857   1.554   8.292
 1043SOL    HW1 3689   1.777   1.545   8.239
 1043SOL    HW2 3690   1.844   1.492   8.364
 1044SOL     OW 3691   0.229   1.306   9.305
 1044SOL    HW1 3692   0.158   1.247   9.282
 1044SOL    HW2 3693   0.222   1.316   9.400
 1045SOL     OW 3694   0.104   1.237   8.115
 1045SOL    HW1 3695   0.114   1.189   8.198
 1045SOL    HW2 3696   0.164   1.194   8.055
 1046SOL     OW 3697   0.681   1.401   9.075
 1046SOL    HW1 3698   0.601   1.358   9.104
 1046SOL    HW2 3699   0.675   1.490   9.112
 1047SOL     OW 3700   1.810   0.182   8.687
 1047SOL    HW1 3701   1.807   0.089   8.707
 1047SOL    HW2 3702   1.825   0.185   8.592
 1048SOL     OW 3703   0.439   0.431   7.978
 1048SOL    HW1 3704   0.458   0.361   7.916
 1048SOL    HW2 3705   0.381   0.391   8.043
 1049SOL     OW 3706   1.704   1.486   8.541
 1049SOL    HW1 3707   1.620   1.464   8.500
 1049SOL    HW2 3708   1.716   1.421   8.610
 1050SOL     OW 3709   0.312   0.504   8.703
 1050SOL    HW1 3710   0.384   0.456   8.743
 1050SOL    HW2 3711   0.338   0.514   8.612
 1051SOL     OW 3712   0.827   1.578   8.126
 1051SOL    HW1 3713   0.817   1.628   8.046
 1051SOL    HW2 3714   0.749   1.522   8.130
 1052SOL     OW 3715   1.432   0.215   8.566
 1052SOL    HW1 3716   1.468   0.145   8.620
 1052SOL    HW2 3717   1.381   0.269   8.627
 1053SOL     OW 3718   0.996   0.009   8.598
 1053SOL    HW1 3719   0.952   4.425   8.588
 1053SOL    HW2 3720   1.089   4.487   8.609
 1054SOL     OW 3721   0.772   1.332   7.760
 1054SOL    HW1 3722   0.740   1.242   7.767
 1054SOL    HW2 3723   0.854   1.332   7.810
 1055SOL     OW 3724   0.621   1.557   8.733
 1055SOL    HW1 3725   0.623   1.639   8.783
 1055SOL    HW2 3726   0.708   1.550   8.694
 1056SOL     OW 3727   1.341   0.053   7.601
 1056SOL    HW1 3728   1.380   4.478   7.556
 1056SOL    HW2 3729   1.266   0.017   7.647
 1057SOL     OW 3730   1.314   0.462   8.126
 1057SOL    HW1 3731   1.254   0.537   8.127
 1057SOL    HW2 3732   1.302   0.421   8.212
 1058SOL     OW 3733   1.586   0.201   8.316
 1058SOL    HW1 3734   1.525   0.216   8.389
 1058SOL    HW2 3735   1.588   0.285   8.269
 1059SOL     OW 3736   0.041   1.052   7.735
 1059SOL    HW1 3737   0.136   1.038   7.727
 1059SOL    HW2 3738   0.020   1.017   7.822
 1060SOL     OW 3739   0.883   1.651   7.791
 1060SOL    HW1 3740   0.811   1.633   7.731
 1060SOL    HW2 3741   0.854   1.727   7.842
 1061SOL     OW 3742   0.247   0.627   9.430
 1061SOL    HW1 3743   0.172   0.608   9.486
 1061SOL    HW2 3744   0.215   0.612   9.341
 1062SOL     OW 3745   0.197   0.293  10.300
 1062SOL    HW1 3746   0.232   0.269  10.386
 1062SOL    HW2 3747   0.133   0.224  10.281
 1063SOL     OW 3748   0.005   0.379   9.951
 1063SOL    HW1 3749   4.426   0.417   9.991
 1063SOL    HW2 3750   4.473   0.308   9.896
 1064SOL     OW 3751   0.567   1.285  10.485
 1064SOL    HW1 3752   0.480   1.289  10.445
 1064SOL    HW2 3753   0.582   1.373  10.519
 1065SOL     OW 3754   1.559   1.512  10.016
 1065SOL    HW1 3755   1.516   1.493  10.099
 1065SOL    HW2 3756   1.488   1.516   9.953
 1066SOL     OW 3757   1.133   0.699  10.010
 1066SOL    HW1 3758   1.180   0.782   9.999
 1066SOL    HW2 3759   1.083   0.710  10.091
 1067SOL     OW 3760   1.766   0.608   9.539
 1067SOL    HW1 3761   1.746   0.598   9.446
 1067SOL    HW2 3762   1.733   0.527   9.579
 1068SOL     OW 3763   0.758   1.144  10.350
 1068SOL    HW1 3764   0.688   1.178  10.406
 1068SOL    HW2 3765   0.792   1.221  10.304
 1069SOL     OW 3766   0.852   0.778   0.021
 1069SOL    HW1 3767   0.860   0.835   0.098
 1069SOL    HW2 3768   0.885   0.831  11.048
 1070SOL     OW 3769   0.686   1.005   9.958
 1070SOL    HW1 3770   0.751   0.991  10.027
 1070SOL    HW2 3771   0.616   1.055  10.000
 1071SOL     OW 3772   0.337   1.422  10.379
 1071SOL    HW1 3773   0.255   1.403  10.333
 1071SOL    HW2 3774   0.386   1.476  10.318
 1072SOL     OW 3775   1.464   1.500  10.658
 1072SOL    HW1 3776   1.517   1.579  10.667
 1072SOL    HW2 3777   1.413   1.496  10.739
 1073SOL     OW 3778   0.441   0.391  10.786
 1073SOL    HW1 3779   0.528   0.352  10.791
 1073SOL    HW2 3780   0.388   0.339  10.846
 1074SOL     OW 3781   1.612   0.447  10.048
 1074SOL    HW1 3782   1.532   0.469  10.001
 1074SOL    HW2 3783   1.632   0.524  10.101
 1075SOL     OW 3784   0.245   1.692   9.788
 1075SOL    HW1 3785   0.231   1.776   9.830
 1075SOL    HW2 3786   0.311   1.709   9.721
 1076SOL     OW 3787   0.247   1.427   9.838
 1076SOL    HW1 3788   0.238   1.522   9.841
 1076SOL    HW2 3789   0.183   1.395   9.901
 1077SOL     OW 3790   0.246   1.081  10.193
 1077SOL    HW1 3791   0.263   0.993  10.224
 1077SOL    HW2 3792   0.187   1.119  10.259
 1078SOL     OW 3793   0.613   1.790  10.740
 1078SOL    HW1 3794   0.532   1.771  10.787
 1078SOL    HW2 3795   0.635   1.880  10.764
 1079SOL     OW 3796   0.581   0.985   9.447
 1079SOL    HW1 3797   0.628   1.030   9.376
 1079SOL    HW2 3798   0.626   1.013   9.526
 1080SOL     OW 3799   1.555   0.135  10.783
 1080SOL    HW1 3800   1.602   0.192  10.722
 1080SOL    HW2 3801   1.612   0.128  10.858
 1081SOL     OW 3802   0.135   0.643   9.884
 1081SOL    HW1 3803   0.084   0.564   9.901
 1081SOL    HW2 3804   0.107   0.705   9.951
 1082SOL     OW 3805   1.840   1.761   9.644
 1082SOL    HW1 3806   1.902   1.730   9.710
 1082SOL    HW2 3807   1.867   1.851   9.626
 1083SOL     OW 3808   0.032   1.601   9.448
 1083SOL    HW1 3809   0.021   1.506   9.447
 1083SOL    HW2 3810   0.017   1.626   9.539
 1084SOL     OW 3811   1.691   0.920   9.950
 1084SOL    HW1 3812   1.774   0.878   9.929
 1084SOL    HW2 3813   1.668   0.969   9.871
 1085SOL     OW 3814   1.645   1.108   9.739
 1085SOL    HW1 3815   1.731   1.115   9.697
 1085SOL    HW2 3816   1.650   1.168   9.813
 1086SOL     OW 3817   0.097   0.759  10.911
 1086SOL    HW1 3818   0.188   0.743  10.886
 1086SOL    HW2 3819   0.087   0.854  10.905
 1087SOL     OW 3820   0.613   1.384  10.046
 1087SOL    HW1 3821   0.566   1.301  10.055
 1087SOL    HW2 3822   0.597   1.410   9.956
 1088SOL     OW 3823   1.295   1.237  10.751
 1088SOL    HW1 3824   1.320   1.177  10.681
 1088SOL    HW2 3825   1.351   1.213  10.825
 1089SOL     OW 3826   0.819   0.012   9.859
 1089SOL    HW1 3827   0.853   0.098   9.835
 1089SOL    HW2 3828   0.724   0.020   9.849
 1090SOL     OW 3829   0.180   0.941  10.589
 1090SOL    HW1 3830   0.272   0.924  10.569
 1090SOL    HW2 3831   0.133   0.922  10.508
 1091SOL     OW 3832   1.532   0.992   9.508
 1091SOL    HW1 3833   1.461   0.935   9.539
 1091SOL    HW2 3834   1.572   1.027   9.587
 1092SOL     OW 3835   1.195   1.805  10.927
 1092SOL    HW1 3836   1.196   1.868  10.854
 1092SOL    HW2 3837   1.204   1.720  10.885
 1093SOL     OW 3838   0.326   0.290  11.063
 1093SOL    HW1 3839   0.389   0.333   0.021
 1093SOL    HW2 3840   0.246   0.284   0.016
 1094SOL     OW 3841   1.466   1.419  10.262
 1094SOL    HW1 3842   1.397   1.435  10.326
 1094SOL    HW2 3843   1.454   1.328  10.235
 1095SOL     OW 3844   1.661   1.735   9.887
 1095SOL    HW1 3845   1.638   1.707   9.799
 1095SOL    HW2 3846   1.635   1.663   9.944
 1096SOL     OW 3847   0.596   0.723   9.575
 1096SOL    HW1 3848   0.600   0.804   9.524
 1096SOL    HW2 3849   0.530   0.740   9.642
 1097SOL     OW 3850   1.291   0.361  10.244
 1097SOL    HW1 3851   1.202   0.330  10.228
 1097SOL    HW2 3852   1.327   0.298  10.306
 1098SOL     OW 3853   1.581   1.669   9.619
 1098SOL    HW1 3854   1.670   1.703   9.612
 1098SOL    HW2 3855   1.554   1.652   9.528
 1099SOL     OW 3856   0.797   0.618  10.765
 1099SOL    HW1 3857   0.768   0.592  10.852
 1099SOL    HW2 3858   0.755   0.554  10.706
 1100SOL     OW 3859   0.966   0.898  10.901
 1100SOL    HW1 3860   1.014   0.825  10.861
 1100SOL    HW2 3861   0.915   0.936  10.828
 1101SOL     OW 3862   0.997   0.419  10.546
 1101SOL    HW1 3863   0.910   0.428  10.586
 1101SOL    HW2 3864   0.981   0.365  10.468
 1102SOL     OW 3865   1.049   0.698   9.737
 1102SOL    HW1 3866   1.065   0.690   9.831
 1102SOL    HW2 3867   0.967   0.651   9.723
 1103SOL     OW 3868   0.098   0.825  10.093
 1103SOL    HW1 3869   0.185   0.807  10.130
 1103SOL    HW2 3870   0.048   0.861  10.166
 1104SOL     OW 3871   0.118   1.851  10.900
 1104SOL    HW1 3872   0.115   1.790  10.974
 1104SOL    HW2 3873   0.052   1.818  10.839
 1105SOL     OW 3874   0.853   0.368   9.488
 1105SOL    HW1 3875   0.928   0.403   9.440
 1105SOL    HW2 3876   0.871   0.274   9.495
 1106SOL     OW 3877   1.376   1.143   9.851
 1106SOL    HW1 3878   1.455   1.129   9.798
 1106SOL    HW2 3879   1.323   1.205   9.801
 1107SOL     OW 3880   0.543   0.204  10.211
 1107SOL    HW1 3881   0.561   0.222  10.303
 1107SOL    HW2 3882   0.534   0.290  10.170
 1108SOL     OW 3883   1.007   1.445   9.783
 1108SOL    HW1 3884   0.968   1.517   9.734
 1108SOL    HW2 3885   0.991   1.467   9.875
 1109SOL     OW 3886   0.355   1.809  10.167
 1109SOL    HW1 3887   0.398   1.724  10.178
 1109SOL    HW2 3888   0.425   1.873  10.183
 1110SOL     OW 3889   1.799   1.058  10.177
 1110SOL    HW1 3890   1.743   1.040  10.101
 1110SOL    HW2 3891   1.738   1.064  10.251
 1111SOL     OW 3892   1.227   1.539  10.824
 1111SOL    HW1 3893   1.235   1.451  10.862
 1111SOL    HW2 3894   1.167   1.528  10.751
 1112SOL     OW 3895   0.317   0.954   9.561
 1112SOL    HW1 3896   0.401   0.977   9.522
 1112SOL    HW2 3897   0.300   0.864   9.533
 1113SOL     OW 3898   1.478   0.741  10.035
 1113SOL    HW1 3899   1.465   0.696  10.119
 1113SOL    HW2 3900   1.555   0.797  10.050
 1114SOL     OW 3901   0.455   1.268  11.052
 1114SOL    HW1 3902   0.426   1.279  10.961
 1114SOL    HW2 3903   0.387   1.214  11.092
 1115SOL     OW 3904   1.121   1.777   9.541
 1115SOL    HW1 3905   1.049   1.735   9.587
 1115SOL    HW2 3906   1.143   1.717   9.471
 1116SOL     OW 3907   0.165   0.260  10.820
 1116SOL    HW1 3908   0.140   0.350  10.796
 1116SOL    HW2 3909   0.205   0.269  10.906
 1117SOL     OW 3910   1.629   1.380   9.398
 1117SOL    HW1 3911   1.588   1.465   9.382
 1117SOL    HW2 3912   1.560   1.316   9.378
 1118SOL     OW 3913   0.469   1.743   9.624
 1118SOL    HW1 3914   0.510   1.797   9.692
 1118SOL    HW2 3915   0.542   1.710   9.572
 1119SOL     OW 3916   1.419   0.136   9.728
 1119SOL    HW1 3917   1.402   0.086   9.648
 1119SOL    HW2 3918   1.513   0.131   9.740
 1120SOL     OW 3919   0.254   1.790  10.547
 1120SOL    HW1 3920   0.305   1.719  10.585
 1120SOL    HW2 3921   0.229   1.757  10.460
 1121SOL     OW 3922   0.938   1.698  10.210
 1121SOL    HW1 3923   1.016   1.646  10.229
 1121SOL    HW2 3924   0.893   1.649  10.141
 1122SOL     OW 3925   0.393   0.694   9.783
 1122SOL    HW1 3926   0.418   0.602   9.795
 1122SOL    HW2 3927   0.301   0.697   9.809
 1123SOL     OW 3928   0.623   0.122   9.427
 1123SOL    HW1 3929   0.711   0.087   9.440
 1123SOL    HW2 3930   0.594   0.085   9.344
 1124SOL     OW 3931   0.768   0.272  11.043
 1124SOL    HW1 3932   0.829   0.205  11.073
 1124SOL    HW2 3933   0.712   0.289   0.018
 1125SOL     OW 3934   0.876   1.521  10.503
 1125SOL    HW1 3935   0.861   1.486  10.416
 1125SOL    HW2 3936   0.948   1.469  10.538
 1126SOL     OW 3937   1.344   0.589  10.753
 1126SOL    HW1 3938   1.393   0.572  10.833
 1126SOL    HW2 3939   1.370   0.678  10.728
 1127SOL     OW 3940   0.814   1.396  10.248
 1127SOL    HW1 3941   0.898   1.385  10.203
 1127SOL    HW2 3942   0.749   1.396  10.178
 1128SOL     OW 3943   0.923   0.517  10.211
 1128SOL    HW1 3944   0.906   0.515  10.116
 1128SOL    HW2 3945   0.961   0.432  10.230
 1129SOL     OW 3946   0.560   0.068   9.819
 1129SOL    HW1 3947   0.473   0.054   9.856
 1129SOL    HW2 3948   0.548   0.139   9.756
 1130SOL     OW 3949   1.428   1.198   9.351
 1130SOL    HW1 3950   1.458   1.122   9.401
 1130SOL    HW2 3951   1.343   1.219   9.388
 1131SOL     OW 3952   0.304   0.075   9.496
 1131SOL    HW1 3953   0.387   0.121   9.493
 1131SOL    HW2 3954   0.320   4.499   9.552
 1132SOL     OW 3955   0.952   0.240   9.781
 1132SOL    HW1 3956   0.900   0.293   9.720
 1132SOL    HW2 3957   1.040   0.276   9.773
 1133SOL     OW 3958   1.079   0.684  10.772
 1133SOL    HW1 3959   1.006   0.621  10.773
 1133SOL    HW2 3960   1.157   0.630  10.766
 1134SOL     OW 3961   1.224   1.570  10.104
 1134SOL    HW1 3962   1.241   1.637  10.038
 1134SOL    HW2 3963   1.292   1.583  10.170
 1135SOL     OW 3964   0.465   1.149  10.047
 1135SOL    HW1 3965   0.394   1.130  10.108
 1135SOL    HW2 3966   0.428   1.133   9.960
 1136SOL     OW 3967   1.270   1.794   9.917
 1136SOL    HW1 3968   1.315   1.856   9.858
 1136SOL    HW2 3969   1.205   1.848   9.962
 1137SOL     OW 3970   1.030   0.548   9.326
 1137SOL    HW1 3971   0.982   0.630   9.310
 1137SOL    HW2 3972   1.088   0.569   9.399
 1138SOL     OW 3973   0.086   0.521  10.723
 1138SOL    HW1 3974   0.151   0.530  10.653
 1138SOL    HW2 3975   0.064   0.611  10.748
 1139SOL     OW 3976   0.561   0.245  10.476
 1139SOL    HW1 3977   0.590   0.158  10.504
 1139SOL    HW2 3978   0.468   0.247  10.498
 1140SOL     OW 3979   0.866   0.503   9.936
 1140SOL    HW1 3980   0.818   0.544   9.865
 1140SOL    HW2 3981   0.840   0.411   9.932
 1141SOL     OW 3982   0.967   0.028  10.089
 1141SOL    HW1 3983   0.917   0.025  10.007
 1141SOL    HW2 3984   0.978   4.436  10.113
 1142SOL     OW 3985   1.436   1.163  10.167
 1142SOL    HW1 3986   1.368   1.095  10.166
 1142SOL    HW2 3987   1.459   1.175  10.075
 1143SOL     OW 3988   1.466   0.604  10.287
 1143SOL    HW1 3989   1.414   0.524  10.289
 1143SOL    HW2 3990   1.525   0.597  10.362
 1144SOL     OW 3991   1.847   0.818   9.692
 1144SOL    HW1 3992   1.903   0.766   9.750
 1144SOL    HW2 3993   1.818   0.756   9.625
 1145SOL     OW 3994   0.492   1.416   9.470
 1145SOL    HW1 3995   0.415   1.386   9.520
 1145SOL    HW2 3996   0.473   1.391   9.380
 1146SOL     OW 3997   1.669   1.265   9.957
 1146SOL    HW1 3998   1.764   1.269   9.970
 1146SOL    HW2 3999   1.638   1.353   9.978
 1147SOL     OW 4000   1.394   0.570   9.380
 1147SOL    HW1 4001   1.333   0.554   9.452
 1147SOL    HW2 4002   1.480   0.551   9.417
 1148SOL     OW 4003   0.522   0.264   9.632
 1148SOL    HW1 4004   0.569   0.214   9.565
 1148SOL    HW2 4005   0.507   0.350   9.591
 1149SOL     OW 4006   1.760   1.229  10.871
 1149SOL    HW1 4007   1.851   1.200  10.874
 1149SOL    HW2 4008   1.761   1.316  10.911
 1150SOL     OW 4009   1.064   1.354  10.650
 1150SOL    HW1 4010   0.986   1.321  10.694
 1150SOL    HW2 4011   1.137   1.306  10.690
 1151SOL     OW 4012   1.128   1.205  10.417
 1151SOL    HW1 4013   1.063   1.240  10.478
 1151SOL    HW2 4014   1.096   1.233  10.331
 1152SOL     OW 4015   1.630   1.099  10.388
 1152SOL    HW1 4016   1.626   1.161  10.461
 1152SOL    HW2 4017   1.550   1.116  10.338
 1153SOL     OW 4018   0.899   0.127  10.698
 1153SOL    HW1 4019   0.926   0.088  10.615
 1153SOL    HW2 4020   0.980   0.144  10.745
 1154SOL     OW 4021   0.708   1.061   9.682
 1154SOL    HW1 4022   0.696   1.045   9.776
 1154SOL    HW2 4023   0.784   1.007   9.659
 1155SOL     OW 4024   0.428   0.824  10.551
 1155SOL    HW1 4025   0.497   0.832  10.617
 1155SOL    HW2 4026   0.369   0.757  10.585
 1156SOL     OW 4027   1.270   0.382  10.581
 1156SOL    HW1 4028   1.300   0.459  10.629
 1156SOL    HW2 4029   1.182   0.404  10.553
 1157SOL     OW 4030   0.063   1.578  10.656
 1157SOL    HW1 4031   0.038   1.664  10.621
 1157SOL    HW2 4032   0.159   1.580  10.657
 1158SOL     OW 4033   0.348   1.108   9.803
 1158SOL    HW1 4034   0.358   1.181   9.743
 1158SOL    HW2 4035   0.350   1.030   9.747
 1159SOL     OW 4036   0.564   0.527  10.164
 1159SOL    HW1 4037   0.576   0.588  10.091
 1159SOL    HW2 4038   0.623   0.559  10.232
 1160SOL     OW 4039   1.248   1.348   9.699
 1160SOL    HW1 4040   1.304   1.420   9.730
 1160SOL    HW2 4041   1.161   1.369   9.733
 1161SOL     OW 4042   1.278   1.458  10.454
 1161SOL    HW1 4043   1.335   1.461  10.532
 1161SOL    HW2 4044   1.225   1.379  10.467
 1162SOL     OW 4045   1.583   0.624   9.786
 1162SOL    HW1 4046   1.537   0.676   9.852
 1162SOL    HW2 4047   1.627   0.689   9.731
 1163SOL     OW 4048   0.346   1.527  10.626
 1163SOL    HW1 4049   0.334   1.481  10.542
 1163SOL    HW2 4050   0.441   1.540  10.632
 1164SOL     OW 4051   0.486   0.748  10.970
 1164SOL    HW1 4052   0.518   0.785  10.888
 1164SOL    HW2 4053   0.522   0.659  10.972
 1165SOL     OW 4054   1.593   0.761  10.970
 1165SOL    HW1 4055   1.516   0.817  10.965
 1165SOL    HW2 4056   1.662   0.810  10.926
 1166SOL     OW 4057   0.588   0.874  10.334
 1166SOL    HW1 4058   0.617   0.965  10.337
 1166SOL    HW2 4059   0.532   0.864  10.411
 1167SOL     OW 4060   1.359   0.860  10.345
 1167SOL    HW1 4061   1.277   0.853  10.295
 1167SOL    HW2 4062   1.399   0.773  10.339
 1168SOL     OW 4063   1.205   0.535   9.574
 1168SOL    HW1 4064   1.211   0.455   9.626
 1168SOL    HW2 4065   1.162   0.598   9.633
 1169SOL     OW 4066   0.285   0.216  10.545
 1169SOL    HW1 4067   0.253   0.234  10.634
 1169SOL    HW2 4068   0.319   0.127  10.550
 1170SOL     OW 4069   0.044   1.315  10.594
 1170SOL    HW1 4070   0.076   1.266  10.670
 1170SOL    HW2 4071   0.046   1.406  10.623
 1171SOL     OW 4072   0.724   0.632  10.369
 1171SOL    HW1 4073   0.798   0.611  10.311
 1171SOL    HW2 4074   0.699   0.720  10.343
 1172SOL     OW 4075   0.319   0.075   9.941
 1172SOL    HW1 4076   0.302   0.163   9.974
 1172SOL    HW2 4077   0.307   0.018  10.018
 1173SOL     OW 4078   1.613   0.376   9.674
 1173SOL    HW1 4079   1.643   0.313   9.740
 1173SOL    HW2 4080   1.590   0.454   9.725
 1174SOL     OW 4081   1.028   0.761  10.272
 1174SOL    HW1 4082   1.026   0.777  10.366
 1174SOL    HW2 4083   0.999   0.670  10.262
 1175SOL     OW 4084   0.973   1.572  11.004
 1175SOL    HW1 4085   0.959   1.622  10.924
 1175SOL    HW2 4086   1.005   1.487  10.974
 1176SOL     OW 4087   1.859   1.494  10.911
 1176SOL    HW1 4088   1.872   1.529  10.823
 1176SOL    HW2 4089   1.924   1.540  10.965
 1177SOL     OW 4090   0.348   0.934  11.095
 1177SOL    HW1 4091   0.422   0.962   0.048
 1177SOL    HW2 4092   0.383   0.861  11.043
 1178SOL     OW 4093   1.531   0.266   9.438
 1178SOL    HW1 4094   1.459   0.210   9.466
 1178SOL    HW2 4095   1.560   0.311   9.517
 1179SOL     OW 4096   1.293   0.827   9.342
 1179SOL    HW1 4097   1.335   0.741   9.344
 1179SOL    HW2 4098   1.324   0.866   9.260
 1180SOL     OW 4099   1.066   1.335  10.163
 1180SOL    HW1 4100   1.068   1.262  10.101
 1180SOL    HW2 4101   1.128   1.399  10.128
 1181SOL     OW 4102   0.317   0.812  10.259
 1181SOL    HW1 4103   0.412   0.830  10.255
 1181SOL    HW2 4104   0.311   0.722  10.289
 1182SOL     OW 4105   0.336   0.529  10.302
 1182SOL    HW1 4106   0.291   0.446  10.284
 1182SOL    HW2 4107   0.413   0.528  10.245
 1183SOL     OW 4108   1.152   0.217  10.770
 1183SOL    HW1 4109   1.169   0.265  10.850
 1183SOL    HW2 4110   1.192   0.270  10.701
 1184SOL     OW 4111   4.492   1.323   9.513
 1184SOL    HW1 4112   4.399   1.338   9.496
 1184SOL    HW2 4113   4.497   1.230   9.536
 1185SOL     OW 4114   0.096   1.778  10.249
 1185SOL    HW1 4115   0.058   1.722  10.181
 1185SOL    HW2 4116   0.183   1.799  10.217
 1186SOL     OW 4117   0.498   1.573  10.217
 1186SOL    HW1 4118   0.566   1.636  10.240
 1186SOL    HW2 4119   0.542   1.510  10.160
 1187SOL     OW 4120   0.985   0.796  10.538
 1187SOL    HW1 4121   1.039   0.772  10.614
 1187SOL    HW2 4122   0.900   0.756  10.555
 1188SOL     OW 4123   0.035   0.564  10.417
 1188SOL    HW1 4124   0.114   0.524  10.380
 1188SOL    HW2 4125   0.023   0.520  10.501
 1189SOL     OW 4126   0.812   0.573   9.664
 1189SOL    HW1 4127   0.814   0.502   9.600
 1189SOL    HW2 4128   0.738   0.628   9.635
 1190SOL     OW 4129   1.641   0.601  10.497
 1190SOL    HW1 4130   1.632   0.543  10.572
 1190SOL    HW2 4131   1.728   0.582  10.463
 1191SOL     OW 4132   0.263   1.573  11.056
 1191SOL    HW1 4133   0.210   1.600   0.031
 1191SOL    HW2 4134   0.245   1.480  11.046
 1192SOL     OW 4135   0.691   0.462  10.576
 1192SOL    HW1 4136   0.648   0.383  10.543
 1192SOL    HW2 4137   0.695   0.521  10.501
 1193SOL     OW 4138   0.940   1.682  10.759
 1193SOL    HW1 4139   0.902   1.650  10.677
 1193SOL    HW2 4140   0.926   1.777  10.756
 1194SOL     OW 4141   0.473   0.491   9.494
 1194SOL    HW1 4142   0.532   0.562   9.517
 1194SOL    HW2 4143   0.388   0.534   9.479
 1195SOL     OW 4144   0.162   1.142  10.770
 1195SOL    HW1 4145   0.139   1.100  10.853
 1195SOL    HW2 4146   0.169   1.069  10.707
 1196SOL     OW 4147   1.326   1.053  10.538
 1196SOL    HW1 4148   1.352   0.988  10.473
 1196SOL    HW2 4149   1.255   1.101  10.496
 1197SOL     OW 4150   1.311   0.856   9.617
 1197SOL    HW1 4151   1.235   0.827   9.667
 1197SOL    HW2 4152   1.285   0.843   9.525
 1198SOL     OW 4153   1.766   1.747  10.459
 1198SOL    HW1 4154   1.828   1.774  10.391
 1198SOL    HW2 4155   1.746   1.656  10.438
 1199SOL     OW 4156   1.241   1.734  10.424
 1199SOL    HW1 4157   1.323   1.754  10.379
 1199SOL    HW2 4158   1.246   1.640  10.442
 1200SOL     OW 4159   0.067   1.186  10.359
 1200SOL    HW1 4160   0.070   1.220  10.449
 1200SOL    HW2 4161   0.017   1.252  10.310
 1201SOL     OW 4162   1.718   0.130   9.805
 1201SOL    HW1 4163   1.791   0.137   9.743
 1201SOL    HW2 4164   1.742   0.057   9.862
 1202SOL     OW 4165   1.390   1.568   9.794
 1202SOL    HW1 4166   1.450   1.599   9.726
 1202SOL    HW2 4167   1.342   1.646   9.822
 1203SOL     OW 4168   1.278   0.927   9.983
 1203SOL    HW1 4169   1.351   0.864   9.987
 1203SOL    HW2 4170   1.312   0.999   9.930
 1204SOL     OW 4171   0.820   1.273  10.738
 1204SOL    HW1 4172   0.789   1.307  10.823
 1204SOL    HW2 4173   0.749   1.295  10.677
 1205SOL     OW 4174   0.673   1.618   9.465
 1205SOL    HW1 4175   0.682   1.629   9.371
 1205SOL    HW2 4176   0.618   1.540   9.475
 1206SOL     OW 4177   1.624   1.720  10.698
 1206SOL    HW1 4178   1.677   1.735  10.620
 1206SOL    HW2 4179   1.609   1.807  10.734
 1207SOL     OW 4180   1.839   0.155  10.276
 1207SOL    HW1 4181   1.868   0.077  10.229
 1207SOL    HW2 4182   1.752   0.175  10.241
 1208SOL     OW 4183   0.265   0.325  10.034
 1208SOL    HW1 4184   0.182   0.360  10.001
 1208SOL    HW2 4185   0.251   0.317  10.128
 1209SOL     OW 4186   1.206   1.607   9.341
 1209SOL    HW1 4187   1.198   1.516   9.368
 1209SOL    HW2 4188   1.142   1.618   9.272
 1210SOL     OW 4189   0.825   1.006  10.685
 1210SOL    HW1 4190   0.868   1.000  10.600
 1210SOL    HW2 4191   0.826   1.100  10.705
 1211SOL     OW 4192   0.915   0.910   9.600
 1211SOL    HW1 4193   0.977   0.942   9.534
 1211SOL    HW2 4194   0.962   0.840   9.645
 1212SOL     OW 4195   1.493   1.624   9.352
 1212SOL    HW1 4196   1.399   1.620   9.339
 1212SOL    HW2 4197   1.529   1.631   9.263
 1213SOL     OW 4198   0.368   1.310  10.806
 1213SOL    HW1 4199   0.355   1.385  10.747
 1213SOL    HW2 4200   0.296   1.250  10.785
 1214SOL     OW 4201   1.613   1.282  10.593
 1214SOL    HW1 4202   1.670   1.271  10.669
 1214SOL    HW2 4203   1.556   1.355  10.616
 1215SOL     OW 4204   1.050   1.106  10.016
 1215SOL    HW1 4205   0.980   1.055  10.055
 1215SOL    HW2 4206   1.112   1.041   9.983
 1216SOL     OW 4207   1.006   0.243  10.312
 1216SOL    HW1 4208   1.012   0.218  10.219
 1216SOL    HW2 4209   0.999   0.160  10.359
 1217SOL     OW 4210   0.603   1.489   9.793
 1217SOL    HW1 4211   0.644   1.439   9.722
 1217SOL    HW2 4212   0.531   1.536   9.751
 1218SOL     OW 4213   1.718   0.394  10.689
 1218SOL    HW1 4214   1.790   0.457  10.690
 1218SOL    HW2 4215   1.748   0.324  10.631
 1219SOL     OW 4216   0.252   1.344   9.587
 1219SOL    HW1 4217   0.157   1.344   9.572
 1219SOL    HW2 4218   0.263   1.377   9.676
 1220SOL     OW 4219   0.110   1.019  11.004
 1220SOL    HW1 4220   0.052   1.022  11.080
 1220SOL    HW2 4221   0.196   1.000  11.041
 1221SOL     OW 4222   0.655   0.198  10.803
 1221SOL    HW1 4223   0.734   0.172  10.755
 1221SOL    HW2 4224   0.688   0.225  10.889
 1222SOL     OW 4225   0.071   0.320   9.336
 1222SOL    HW1 4226   4.476   0.329   9.349
 1222SOL    HW2 4227   0.099   0.406   9.305
 1223SOL     OW 4228   1.430   0.849  10.709
 1223SOL    HW1 4229   1.382   0.917  10.662
 1223SOL    HW2 4230   1.520   0.858  10.680
 1224SOL     OW 4231   0.084   0.188   9.613
 1224SOL    HW1 4232   0.078   0.261   9.550
 1224SOL    HW2 4233   0.163   0.141   9.587
 1225SOL     OW 4234   1.179   1.340   9.427
 1225SOL    HW1 4235   1.089   1.311   9.429
 1225SOL    HW2 4236   1.208   1.340   9.518
 1226SOL     OW 4237   0.623   0.829  10.739
 1226SOL    HW1 4238   0.677   0.907  10.725
 1226SOL    HW2 4239   0.685   0.757  10.747
 1227SOL     OW 4240   1.485   1.775  10.287
 1227SOL    HW1 4241   1.511   1.835  10.216
 1227SOL    HW2 4242   1.566   1.759  10.335
 1228SOL     OW 4243   0.713   0.562  11.014
 1228SOL    HW1 4244   0.747   0.634  11.068
 1228SOL    HW2 4245   0.763   0.485  11.043
 1229SOL     OW 4246   0.383   1.737  10.871
 1229SOL    HW1 4247   0.307   1.794  10.865
 1229SOL    HW2 4248   0.356   1.666  10.930
 1230SOL     OW 4249   1.672   0.882  10.567
 1230SOL    HW1 4250   1.662   0.797  10.524
 1230SOL    HW2 4251   1.662   0.946  10.496
 1231SOL     OW 4252   1.218   0.329   9.758
 1231SOL    HW1 4253   1.283   0.259   9.748
 1231SOL    HW2 4254   1.245   0.376   9.837
 1232SOL     OW 4255   0.588   0.739   9.979
 1232SOL    HW1 4256   0.629   0.824   9.963
 1232SOL    HW2 4257   0.519   0.732   9.913
 1233SOL     OW 4258   1.752   0.314  10.950
 1233SOL    HW1 4259   1.734   0.354  10.865
 1233SOL    HW2 4260   1.674   0.332  11.003
 1234SOL     OW 4261   1.749   0.936  10.825
 1234SOL    HW1 4262   1.742   1.030  10.839
 1234SOL    HW2 4263   1.731   0.924  10.732
 1235SOL     OW 4264   0.863   1.368   9.342
 1235SOL    HW1 4265   0.824   1.395   9.425
 1235SOL    HW2 4266   0.881   1.450   9.296
 1236SOL     OW 4267   0.660   1.793  10.257
 1236SOL    HW1 4268   0.638   1.883  10.232
 1236SOL    HW2 4269   0.755   1.788  10.248
 1237SOL     OW 4270   0.867   0.967  10.165
 1237SOL    HW1 4271   0.917   0.895  10.204
 1237SOL    HW2 4272   0.833   1.015  10.240
 1238SOL     OW 4273   1.080   0.988   9.399
 1238SOL    HW1 4274   1.057   1.039   9.321
 1238SOL    HW2 4275   1.155   0.935   9.372
 1239SOL     OW 4276   1.857   1.555  10.154
 1239SOL    HW1 4277   1.778   1.545  10.101
 1239SOL    HW2 4278   1.847   1.491  10.225
 1240SOL     OW 4279   0.104   1.237   9.978
 1240SOL    HW1 4280   0.113   1.188  10.059
 1240SOL    HW2 4281   0.164   1.194   9.917
 1241SOL     OW 4282   0.680   1.395  10.937
 1241SOL    HW1 4283   0.607   1.344  10.974
 1241SOL    HW2 4284   0.648   1.485  10.936
 1242SOL     OW 4285   1.804   0.181  10.549
 1242SOL    HW1 4286   1.815   0.088  10.570
 1242SOL    HW2 4287   1.821   0.187  10.455
 1243SOL     OW 4288   0.439   0.431   9.840
 1243SOL    HW1 4289   0.458   0.361   9.778
 1243SOL    HW2 4290   0.381   0.391   9.905
 1244SOL     OW 4291   1.703   1.489  10.405
 1244SOL    HW1 4292   1.621   1.464  10.364
 1244SOL    HW2 4293   1.717   1.422  10.473
 1245SOL     OW 4294   0.307   0.505  10.567
 1245SOL    HW1 4295   0.374   0.455  10.613
 1245SOL    HW2 4296   0.339   0.512  10.477
 1246SOL     OW 4297   0.827   1.578   9.989
 1246SOL    HW1 4298   0.817   1.628   9.908
 1246SOL    HW2 4299   0.749   1.522   9.992
 1247SOL     OW 4300   1.431   0.215  10.429
 1247SOL    HW1 4301   1.471   0.147  10.484
 1247SOL    HW2 4302   1.382   0.269  10.490
 1248SOL     OW 4303   0.996   0.010  10.459
 1248SOL    HW1 4304   0.952   4.425  10.449
 1248SOL    HW2 4305   1.088   4.488  10.473
 1249SOL     OW 4306   0.772   1.332   9.622
 1249SOL    HW1 4307   0.739   1.242   9.629
 1249SOL    HW2 4308   0.854   1.332   9.671
 1250SOL     OW 4309   0.620   1.556  10.596
 1250SOL    HW1 4310   0.621   1.639  10.644
 1250SOL    HW2 4311   0.707   1.550  10.556
 1251SOL     OW 4312   1.341   0.053   9.463
 1251SOL    HW1 4313   1.380   4.478   9.418
 1251SOL    HW2 4314   1.266   0.017   9.509
 1252SOL     OW 4315   1.314   0.463   9.988
 1252SOL    HW1 4316   1.254   0.537   9.989
 1252SOL    HW2 4317   1.302   0.421  10.074
 1253SOL     OW 4318   1.586   0.201  10.178
 1253SOL    HW1 4319   1.525   0.215  10.251
 1253SOL    HW2 4320   1.588   0.285  10.132
 1254SOL     OW 4321   0.041   1.052   9.597
 1254SOL    HW1 4322   0.136   1.038   9.588
 1254SOL    HW2 4323   0.020   1.017   9.684
 1255SOL     OW 4324   0.883   1.651   9.653
 1255SOL    HW1 4325   0.811   1.633   9.593
 1255SOL    HW2 4326   0.853   1.727   9.704
 1256SOL     OW 4327   0.242   2.459   0.107
 1256SOL    HW1 4328   0.169   2.457   0.170
 1256SOL    HW2 4329   0.206   2.499   0.028
 1257SOL     OW 4330   0.212   2.138   0.992
 1257SOL    HW1 4331   0.249   2.111   1.076
 1257SOL    HW2 4332   0.137   2.080   0.979
 1258SOL     OW 4333   0.009   2.252   0.638
 1258SOL    HW1 4334   4.429   2.281   0.681
 1258SOL    HW2 4335   4.484   2.169   0.596
 1259SOL     OW 4336   0.567   3.147   1.174
 1259SOL    HW1 4337   0.480   3.151   1.135
 1259SOL    HW2 4338   0.583   3.234   1.209
 1260SOL     OW 4339   1.559   3.373   0.706
 1260SOL    HW1 4340   1.515   3.354   0.789
 1260SOL    HW2 4341   1.488   3.377   0.642
 1261SOL     OW 4342   1.130   2.561   0.702
 1261SOL    HW1 4343   1.180   2.641   0.688
 1261SOL    HW2 4344   1.083   2.575   0.785
 1262SOL     OW 4345   1.769   2.467   0.225
 1262SOL    HW1 4346   1.734   2.461   0.137
 1262SOL    HW2 4347   1.733   2.390   0.270
 1263SOL     OW 4348   0.757   3.005   1.039
 1263SOL    HW1 4349   0.688   3.039   1.095
 1263SOL    HW2 4350   0.792   3.083   0.994
 1264SOL     OW 4351   0.864   2.638   1.821
 1264SOL    HW1 4352   0.851   2.710   1.883
 1264SOL    HW2 4353   0.888   2.682   1.739
 1265SOL     OW 4354   0.686   2.867   0.648
 1265SOL    HW1 4355   0.751   2.854   0.717
 1265SOL    HW2 4356   0.616   2.917   0.690
 1266SOL     OW 4357   0.710   3.013   1.811
 1266SOL    HW1 4358   0.757   3.092   1.836
 1266SOL    HW2 4359   0.626   3.044   1.776
 1267SOL     OW 4360   0.336   3.284   1.070
 1267SOL    HW1 4361   0.254   3.265   1.023
 1267SOL    HW2 4362   0.386   3.338   1.009
 1268SOL     OW 4363   1.461   3.360   1.352
 1268SOL    HW1 4364   1.508   3.443   1.363
 1268SOL    HW2 4365   1.402   3.357   1.427
 1269SOL     OW 4366   0.443   2.267   1.494
 1269SOL    HW1 4367   0.523   2.214   1.497
 1269SOL    HW2 4368   0.372   2.203   1.498
 1270SOL     OW 4369   1.611   2.310   0.742
 1270SOL    HW1 4370   1.536   2.333   0.687
 1270SOL    HW2 4371   1.630   2.389   0.792
 1271SOL     OW 4372   0.245   3.553   0.483
 1271SOL    HW1 4373   0.232   3.640   0.522
 1271SOL    HW2 4374   0.303   3.569   0.408
 1272SOL     OW 4375   1.136   3.203   1.692
 1272SOL    HW1 4376   1.176   3.199   1.779
 1272SOL    HW2 4377   1.083   3.124   1.686
 1273SOL     OW 4378   0.244   3.289   0.529
 1273SOL    HW1 4379   0.239   3.385   0.530
 1273SOL    HW2 4380   0.178   3.261   0.592
 1274SOL     OW 4381   0.246   2.944   0.883
 1274SOL    HW1 4382   0.263   2.855   0.914
 1274SOL    HW2 4383   0.187   2.981   0.949
 1275SOL     OW 4384   0.615   3.653   1.432
 1275SOL    HW1 4385   0.532   3.634   1.475
 1275SOL    HW2 4386   0.635   3.743   1.456
 1276SOL     OW 4387   0.574   2.855   0.146
 1276SOL    HW1 4388   0.621   2.897   0.074
 1276SOL    HW2 4389   0.624   2.879   0.224
 1277SOL     OW 4390   1.591   1.984   1.468
 1277SOL    HW1 4391   1.603   2.063   1.415
 1277SOL    HW2 4392   1.583   2.015   1.558
 1278SOL     OW 4393   0.136   2.508   0.573
 1278SOL    HW1 4394   0.088   2.426   0.590
 1278SOL    HW2 4395   0.107   2.567   0.642
 1279SOL     OW 4396   1.842   3.623   0.335
 1279SOL    HW1 4397   1.904   3.592   0.401
 1279SOL    HW2 4398   1.869   3.712   0.316
 1280SOL     OW 4399   0.072   3.454   0.151
 1280SOL    HW1 4400   0.037   3.365   0.154
 1280SOL    HW2 4401   0.018   3.504   0.212
 1281SOL     OW 4402   1.690   2.781   0.640
 1281SOL    HW1 4403   1.773   2.740   0.617
 1281SOL    HW2 4404   1.667   2.832   0.562
 1282SOL     OW 4405   1.646   2.968   0.432
 1282SOL    HW1 4406   1.728   2.979   0.385
 1282SOL    HW2 4407   1.651   3.030   0.505
 1283SOL     OW 4408   0.112   2.623   1.587
 1283SOL    HW1 4409   0.205   2.623   1.564
 1283SOL    HW2 4410   0.090   2.715   1.599
 1284SOL     OW 4411   0.613   3.246   0.736
 1284SOL    HW1 4412   0.567   3.163   0.745
 1284SOL    HW2 4413   0.596   3.273   0.646
 1285SOL     OW 4414   1.290   3.101   1.424
 1285SOL    HW1 4415   1.322   3.033   1.364
 1285SOL    HW2 4416   1.346   3.093   1.501
 1286SOL     OW 4417   0.815   1.862   0.507
 1286SOL    HW1 4418   0.853   1.948   0.491
 1286SOL    HW2 4419   0.721   1.879   0.516
 1287SOL     OW 4420   0.181   2.804   1.279
 1287SOL    HW1 4421   0.273   2.787   1.258
 1287SOL    HW2 4422   0.133   2.785   1.199
 1288SOL     OW 4423   1.518   2.863   0.201
 1288SOL    HW1 4424   1.455   2.800   0.235
 1288SOL    HW2 4425   1.568   2.891   0.278
 1289SOL     OW 4426   1.186   3.667   1.621
 1289SOL    HW1 4427   1.198   3.725   1.545
 1289SOL    HW2 4428   1.201   3.579   1.587
 1290SOL     OW 4429   0.330   2.118   1.797
 1290SOL    HW1 4430   0.380   2.191   1.832
 1290SOL    HW2 4431   0.243   2.127   1.837
 1291SOL     OW 4432   1.466   3.281   0.953
 1291SOL    HW1 4433   1.398   3.296   1.018
 1291SOL    HW2 4434   1.454   3.191   0.925
 1292SOL     OW 4435   1.660   3.599   0.579
 1292SOL    HW1 4436   1.639   3.571   0.490
 1292SOL    HW2 4437   1.634   3.524   0.634
 1293SOL     OW 4438   0.595   2.581   0.264
 1293SOL    HW1 4439   0.601   2.662   0.213
 1293SOL    HW2 4440   0.533   2.600   0.333
 1294SOL     OW 4441   1.279   2.213   0.932
 1294SOL    HW1 4442   1.190   2.179   0.941
 1294SOL    HW2 4443   1.330   2.160   0.994
 1295SOL     OW 4444   1.582   3.532   0.312
 1295SOL    HW1 4445   1.672   3.563   0.305
 1295SOL    HW2 4446   1.556   3.513   0.221
 1296SOL     OW 4447   0.794   2.478   1.452
 1296SOL    HW1 4448   0.767   2.455   1.541
 1296SOL    HW2 4449   0.750   2.414   1.396
 1297SOL     OW 4450   1.393   2.336   1.678
 1297SOL    HW1 4451   1.395   2.380   1.763
 1297SOL    HW2 4452   1.457   2.265   1.686
 1298SOL     OW 4453   0.956   2.750   1.581
 1298SOL    HW1 4454   1.011   2.679   1.546
 1298SOL    HW2 4455   0.909   2.784   1.505
 1299SOL     OW 4456   0.993   2.276   1.239
 1299SOL    HW1 4457   0.909   2.298   1.279
 1299SOL    HW2 4458   0.970   2.228   1.159
 1300SOL     OW 4459   1.050   2.563   0.427
 1300SOL    HW1 4460   1.066   2.555   0.521
 1300SOL    HW2 4461   0.968   2.516   0.413
 1301SOL     OW 4462   0.098   2.687   0.784
 1301SOL    HW1 4463   0.184   2.669   0.821
 1301SOL    HW2 4464   0.047   2.725   0.856
 1302SOL     OW 4465   0.125   3.714   1.576
 1302SOL    HW1 4466   0.118   3.692   1.669
 1302SOL    HW2 4467   0.044   3.681   1.537
 1303SOL     OW 4468   0.887   2.217   0.208
 1303SOL    HW1 4469   0.935   2.272   0.146
 1303SOL    HW2 4470   0.901   2.127   0.176
 1304SOL     OW 4471   1.712   2.443   1.829
 1304SOL    HW1 4472   1.673   2.516   1.782
 1304SOL    HW2 4473   1.729   2.377   1.762
 1305SOL     OW 4474   1.376   3.004   0.542
 1305SOL    HW1 4475   1.454   2.989   0.488
 1305SOL    HW2 4476   1.324   3.066   0.492
 1306SOL     OW 4477   0.551   2.045   0.893
 1306SOL    HW1 4478   0.554   2.075   0.984
 1306SOL    HW2 4479   0.552   2.125   0.841
 1307SOL     OW 4480   1.007   3.307   0.474
 1307SOL    HW1 4481   0.967   3.379   0.425
 1307SOL    HW2 4482   0.989   3.329   0.566
 1308SOL     OW 4483   0.355   3.671   0.859
 1308SOL    HW1 4484   0.397   3.586   0.868
 1308SOL    HW2 4485   0.425   3.734   0.871
 1309SOL     OW 4486   1.799   2.919   0.868
 1309SOL    HW1 4487   1.744   2.903   0.791
 1309SOL    HW2 4488   1.738   2.925   0.941
 1310SOL     OW 4489   1.228   3.401   1.513
 1310SOL    HW1 4490   1.214   3.328   1.573
 1310SOL    HW2 4491   1.166   3.386   1.442
 1311SOL     OW 4492   0.314   2.818   0.277
 1311SOL    HW1 4493   0.397   2.845   0.239
 1311SOL    HW2 4494   0.306   2.725   0.255
 1312SOL     OW 4495   1.477   2.602   0.727
 1312SOL    HW1 4496   1.467   2.558   0.811
 1312SOL    HW2 4497   1.554   2.658   0.738
 1313SOL     OW 4498   0.467   3.124   1.735
 1313SOL    HW1 4499   0.439   3.130   1.644
 1313SOL    HW2 4500   0.385   3.129   1.785
 1314SOL     OW 4501   1.107   3.640   0.227
 1314SOL    HW1 4502   1.048   3.589   0.281
 1314SOL    HW2 4503   1.148   3.577   0.168
 1315SOL     OW 4504   0.195   2.139   1.486
 1315SOL    HW1 4505   0.135   2.213   1.492
 1315SOL    HW2 4506   0.184   2.093   1.569
 1316SOL     OW 4507   1.628   3.237   0.089
 1316SOL    HW1 4508   1.586   3.322   0.077
 1316SOL    HW2 4509   1.562   3.173   0.061
 1317SOL     OW 4510   0.470   3.604   0.317
 1317SOL    HW1 4511   0.507   3.660   0.385
 1317SOL    HW2 4512   0.545   3.576   0.265
 1318SOL     OW 4513   1.401   1.970   0.431
 1318SOL    HW1 4514   1.392   1.947   0.338
 1318SOL    HW2 4515   1.496   1.978   0.444
 1319SOL     OW 4516   0.261   3.656   1.232
 1319SOL    HW1 4517   0.306   3.581   1.272
 1319SOL    HW2 4518   0.227   3.622   1.149
 1320SOL     OW 4519   0.938   3.561   0.899
 1320SOL    HW1 4520   1.015   3.507   0.920
 1320SOL    HW2 4521   0.893   3.511   0.831
 1321SOL     OW 4522   0.392   2.557   0.471
 1321SOL    HW1 4523   0.417   2.465   0.483
 1321SOL    HW2 4524   0.301   2.561   0.500
 1322SOL     OW 4525   1.536   2.086   1.726
 1322SOL    HW1 4526   1.542   2.106   1.820
 1322SOL    HW2 4527   1.468   2.019   1.721
 1323SOL     OW 4528   0.614   1.968   0.123
 1323SOL    HW1 4529   0.705   1.938   0.123
 1323SOL    HW2 4530   0.583   1.953   0.034
 1324SOL     OW 4531   0.768   2.139   1.754
 1324SOL    HW1 4532   0.842   2.078   1.757
 1324SOL    HW2 4533   0.718   2.120   1.833
 1325SOL     OW 4534   0.877   3.384   1.193
 1325SOL    HW1 4535   0.861   3.348   1.106
 1325SOL    HW2 4536   0.946   3.329   1.230
 1326SOL     OW 4537   1.341   2.451   1.432
 1326SOL    HW1 4538   1.372   2.418   1.517
 1326SOL    HW2 4539   1.377   2.539   1.425
 1327SOL     OW 4540   0.814   3.259   0.938
 1327SOL    HW1 4541   0.898   3.247   0.893
 1327SOL    HW2 4542   0.749   3.258   0.868
 1328SOL     OW 4543   0.927   2.371   0.904
 1328SOL    HW1 4544   0.904   2.363   0.811
 1328SOL    HW2 4545   0.960   2.284   0.928
 1329SOL     OW 4546   0.552   1.923   0.505
 1329SOL    HW1 4547   0.470   1.921   0.554
 1329SOL    HW2 4548   0.546   2.002   0.451
 1330SOL     OW 4549   1.426   3.058   0.030
 1330SOL    HW1 4550   1.458   2.986   0.084
 1330SOL    HW2 4551   1.342   3.083   0.071
 1331SOL     OW 4552   0.286   1.911   0.192
 1331SOL    HW1 4553   0.336   1.961   0.127
 1331SOL    HW2 4554   0.348   1.845   0.224
 1332SOL     OW 4555   0.939   2.107   0.463
 1332SOL    HW1 4556   0.910   2.153   0.384
 1332SOL    HW2 4557   1.033   2.122   0.466
 1333SOL     OW 4558   1.080   2.542   1.460
 1333SOL    HW1 4559   1.011   2.476   1.465
 1333SOL    HW2 4560   1.161   2.491   1.453
 1334SOL     OW 4561   1.224   3.431   0.794
 1334SOL    HW1 4562   1.241   3.498   0.728
 1334SOL    HW2 4563   1.292   3.445   0.860
 1335SOL     OW 4564   0.468   3.010   0.740
 1335SOL    HW1 4565   0.396   2.992   0.800
 1335SOL    HW2 4566   0.430   2.997   0.653
 1336SOL     OW 4567   1.270   3.657   0.606
 1336SOL    HW1 4568   1.316   3.718   0.548
 1336SOL    HW2 4569   1.205   3.710   0.651
 1337SOL     OW 4570   1.013   2.399   0.037
 1337SOL    HW1 4571   0.981   2.487   0.015
 1337SOL    HW2 4572   1.092   2.415   0.087
 1338SOL     OW 4573   0.082   2.392   1.409
 1338SOL    HW1 4574   0.148   2.391   1.340
 1338SOL    HW2 4575   0.069   2.485   1.427
 1339SOL     OW 4576   0.561   2.090   1.165
 1339SOL    HW1 4577   0.602   2.010   1.198
 1339SOL    HW2 4578   0.469   2.082   1.192
 1340SOL     OW 4579   0.869   2.322   0.640
 1340SOL    HW1 4580   0.823   2.376   0.576
 1340SOL    HW2 4581   0.888   2.240   0.594
 1341SOL     OW 4582   1.015   1.915   0.753
 1341SOL    HW1 4583   0.956   1.907   0.677
 1341SOL    HW2 4584   0.994   1.839   0.807
 1342SOL     OW 4585   1.436   3.025   0.857
 1342SOL    HW1 4586   1.368   2.958   0.856
 1342SOL    HW2 4587   1.460   3.037   0.765
 1343SOL     OW 4588   1.466   2.466   0.979
 1343SOL    HW1 4589   1.417   2.384   0.982
 1343SOL    HW2 4590   1.525   2.461   1.054
 1344SOL     OW 4591   1.850   2.677   0.383
 1344SOL    HW1 4592   1.905   2.624   0.440
 1344SOL    HW2 4593   1.820   2.616   0.315
 1345SOL     OW 4594   0.494   3.284   0.175
 1345SOL    HW1 4595   0.415   3.259   0.222
 1345SOL    HW2 4596   0.489   3.237   0.092
 1346SOL     OW 4597   1.669   3.127   0.649
 1346SOL    HW1 4598   1.764   3.132   0.660
 1346SOL    HW2 4599   1.638   3.215   0.668
 1347SOL     OW 4600   1.390   2.440   0.080
 1347SOL    HW1 4601   1.331   2.417   0.151
 1347SOL    HW2 4602   1.460   2.375   0.085
 1348SOL     OW 4603   0.529   2.125   0.328
 1348SOL    HW1 4604   0.556   2.065   0.257
 1348SOL    HW2 4605   0.512   2.208   0.284
 1349SOL     OW 4606   1.753   3.100   1.574
 1349SOL    HW1 4607   1.840   3.060   1.572
 1349SOL    HW2 4608   1.768   3.190   1.604
 1350SOL     OW 4609   1.059   3.216   1.335
 1350SOL    HW1 4610   0.985   3.185   1.385
 1350SOL    HW2 4611   1.135   3.174   1.375
 1351SOL     OW 4612   1.607   3.488   1.653
 1351SOL    HW1 4613   1.602   3.521   1.563
 1351SOL    HW2 4614   1.690   3.440   1.656
 1352SOL     OW 4615   1.128   3.065   1.106
 1352SOL    HW1 4616   1.068   3.102   1.171
 1352SOL    HW2 4617   1.094   3.096   1.022
 1353SOL     OW 4618   1.630   2.961   1.078
 1353SOL    HW1 4619   1.625   3.023   1.150
 1353SOL    HW2 4620   1.550   2.977   1.028
 1354SOL     OW 4621   0.917   1.960   1.398
 1354SOL    HW1 4622   0.940   1.940   1.307
 1354SOL    HW2 4623   0.997   1.999   1.434
 1355SOL     OW 4624   0.984   2.976   1.722
 1355SOL    HW1 4625   0.892   2.992   1.743
 1355SOL    HW2 4626   0.983   2.899   1.666
 1356SOL     OW 4627   0.710   2.921   0.374
 1356SOL    HW1 4628   0.696   2.907   0.467
 1356SOL    HW2 4629   0.786   2.868   0.352
 1357SOL     OW 4630   0.430   2.687   1.240
 1357SOL    HW1 4631   0.499   2.698   1.305
 1357SOL    HW2 4632   0.371   2.622   1.279
 1358SOL     OW 4633   1.266   2.240   1.274
 1358SOL    HW1 4634   1.299   2.317   1.320
 1358SOL    HW2 4635   1.177   2.262   1.250
 1359SOL     OW 4636   0.062   3.438   1.341
 1359SOL    HW1 4637   0.034   3.527   1.319
 1359SOL    HW2 4638   0.157   3.443   1.347
 1360SOL     OW 4639   0.350   2.977   0.499
 1360SOL    HW1 4640   0.353   3.051   0.438
 1360SOL    HW2 4641   0.343   2.900   0.443
 1361SOL     OW 4642   0.561   2.396   0.856
 1361SOL    HW1 4643   0.575   2.456   0.783
 1361SOL    HW2 4644   0.622   2.427   0.924
 1362SOL     OW 4645   1.247   3.208   0.394
 1362SOL    HW1 4646   1.303   3.281   0.422
 1362SOL    HW2 4647   1.160   3.231   0.426
 1363SOL     OW 4648   1.279   3.319   1.146
 1363SOL    HW1 4649   1.334   3.320   1.224
 1363SOL    HW2 4650   1.223   3.241   1.157
 1364SOL     OW 4651   1.584   2.487   0.478
 1364SOL    HW1 4652   1.536   2.539   0.543
 1364SOL    HW2 4653   1.622   2.553   0.419
 1365SOL     OW 4654   0.347   3.393   1.316
 1365SOL    HW1 4655   0.333   3.346   1.234
 1365SOL    HW2 4656   0.442   3.403   1.322
 1366SOL     OW 4657   0.476   2.620   1.663
 1366SOL    HW1 4658   0.505   2.659   1.581
 1366SOL    HW2 4659   0.516   2.533   1.665
 1367SOL     OW 4660   1.600   2.641   1.682
 1367SOL    HW1 4661   1.513   2.681   1.674
 1367SOL    HW2 4662   1.651   2.683   1.613
 1368SOL     OW 4663   0.996   1.983   1.755
 1368SOL    HW1 4664   1.050   2.055   1.725
 1368SOL    HW2 4665   1.045   1.904   1.730
 1369SOL     OW 4666   0.498   1.905   1.746
 1369SOL    HW1 4667   0.457   1.848   1.681
 1369SOL    HW2 4668   0.438   1.979   1.755
 1370SOL     OW 4669   0.589   2.735   1.024
 1370SOL    HW1 4670   0.617   2.827   1.026
 1370SOL    HW2 4671   0.533   2.726   1.100
 1371SOL     OW 4672   1.360   2.721   1.032
 1371SOL    HW1 4673   1.277   2.713   0.983
 1371SOL    HW2 4674   1.398   2.633   1.028
 1372SOL     OW 4675   1.203   2.388   0.271
 1372SOL    HW1 4676   1.212   2.311   0.327
 1372SOL    HW2 4677   1.161   2.453   0.327
 1373SOL     OW 4678   0.302   2.054   1.242
 1373SOL    HW1 4679   0.263   2.088   1.322
 1373SOL    HW2 4680   0.285   1.960   1.245
 1374SOL     OW 4681   0.043   3.175   1.285
 1374SOL    HW1 4682   0.077   3.128   1.361
 1374SOL    HW2 4683   0.047   3.267   1.310
 1375SOL     OW 4684   0.726   2.494   1.060
 1375SOL    HW1 4685   0.799   2.475   1.001
 1375SOL    HW2 4686   0.699   2.583   1.036
 1376SOL     OW 4687   1.733   2.823   1.851
 1376SOL    HW1 4688   1.687   2.762   1.793
 1376SOL    HW2 4689   1.674   2.834   1.925
 1377SOL     OW 4690   0.310   1.933   0.620
 1377SOL    HW1 4691   0.287   2.021   0.648
 1377SOL    HW2 4692   0.305   1.880   0.700
 1378SOL     OW 4693   1.614   2.235   0.368
 1378SOL    HW1 4694   1.644   2.172   0.434
 1378SOL    HW2 4695   1.592   2.313   0.418
 1379SOL     OW 4696   1.027   2.621   0.961
 1379SOL    HW1 4697   1.026   2.639   1.055
 1379SOL    HW2 4698   1.001   2.530   0.954
 1380SOL     OW 4699   0.983   3.429   1.716
 1380SOL    HW1 4700   0.967   3.472   1.632
 1380SOL    HW2 4701   1.025   3.346   1.692
 1381SOL     OW 4702   1.855   3.370   1.606
 1381SOL    HW1 4703   1.873   3.395   1.515
 1381SOL    HW2 4704   1.937   3.389   1.652
 1382SOL     OW 4705   0.347   2.794   1.818
 1382SOL    HW1 4706   0.421   2.822   1.872
 1382SOL    HW2 4707   0.384   2.727   1.760
 1383SOL     OW 4708   1.534   2.150   0.117
 1383SOL    HW1 4709   1.475   2.077   0.134
 1383SOL    HW2 4710   1.566   2.175   0.204
 1384SOL     OW 4711   1.288   2.686   0.033
 1384SOL    HW1 4712   1.332   2.602   0.045
 1384SOL    HW2 4713   1.323   2.720  11.050
 1385SOL     OW 4714   1.065   3.197   0.853
 1385SOL    HW1 4715   1.068   3.124   0.790
 1385SOL    HW2 4716   1.127   3.261   0.818
 1386SOL     OW 4717   0.317   2.674   0.949
 1386SOL    HW1 4718   0.412   2.691   0.945
 1386SOL    HW2 4719   0.311   2.583   0.978
 1387SOL     OW 4720   0.332   2.386   0.991
 1387SOL    HW1 4721   0.294   2.300   0.976
 1387SOL    HW2 4722   0.410   2.388   0.936
 1388SOL     OW 4723   1.134   2.239   1.681
 1388SOL    HW1 4724   1.088   2.294   1.744
 1388SOL    HW2 4725   1.222   2.276   1.677
 1389SOL     OW 4726   1.159   2.066   1.470
 1389SOL    HW1 4727   1.150   2.129   1.541
 1389SOL    HW2 4728   1.200   2.116   1.399
 1390SOL     OW 4729   4.496   3.186   0.199
 1390SOL    HW1 4730   4.402   3.204   0.191
 1390SOL    HW2 4731   0.000   3.094   0.226
 1391SOL     OW 4732   0.096   3.641   0.940
 1391SOL    HW1 4733   0.057   3.585   0.873
 1391SOL    HW2 4734   0.184   3.661   0.908
 1392SOL     OW 4735   0.498   3.435   0.907
 1392SOL    HW1 4736   0.566   3.498   0.931
 1392SOL    HW2 4737   0.542   3.372   0.850
 1393SOL     OW 4738   0.986   2.655   1.227
 1393SOL    HW1 4739   1.040   2.631   1.302
 1393SOL    HW2 4740   0.899   2.619   1.247
 1394SOL     OW 4741   0.035   2.424   1.105
 1394SOL    HW1 4742   0.119   2.389   1.073
 1394SOL    HW2 4743   0.023   2.383   1.190
 1395SOL     OW 4744   0.179   2.379   1.714
 1395SOL    HW1 4745   0.259   2.350   1.670
 1395SOL    HW2 4746   0.155   2.461   1.670
 1396SOL     OW 4747   1.376   2.802   1.659
 1396SOL    HW1 4748   1.397   2.896   1.658
 1396SOL    HW2 4749   1.374   2.777   1.567
 1397SOL     OW 4750   0.815   2.436   0.363
 1397SOL    HW1 4751   0.824   2.361   0.304
 1397SOL    HW2 4752   0.740   2.485   0.329
 1398SOL     OW 4753   1.641   2.465   1.189
 1398SOL    HW1 4754   1.632   2.402   1.261
 1398SOL    HW2 4755   1.729   2.450   1.154
 1399SOL     OW 4756   0.273   3.423   1.741
 1399SOL    HW1 4757   0.217   3.476   1.798
 1399SOL    HW2 4758   0.252   3.333   1.764
 1400SOL     OW 4759   0.689   2.317   1.263
 1400SOL    HW1 4760   0.645   2.239   1.229
 1400SOL    HW2 4761   0.691   2.378   1.189
 1401SOL     OW 4762   0.930   3.541   1.466
 1401SOL    HW1 4763   0.903   3.508   1.381
 1401SOL    HW2 4764   0.925   3.636   1.458
 1402SOL     OW 4765   0.476   2.346   0.183
 1402SOL    HW1 4766   0.532   2.420   0.206
 1402SOL    HW2 4767   0.390   2.385   0.166
 1403SOL     OW 4768   0.162   3.003   1.462
 1403SOL    HW1 4769   0.146   2.957   1.544
 1403SOL    HW2 4770   0.170   2.933   1.397
 1404SOL     OW 4771   1.328   2.910   1.224
 1404SOL    HW1 4772   1.351   2.847   1.156
 1404SOL    HW2 4773   1.256   2.961   1.186
 1405SOL     OW 4774   1.307   2.715   0.310
 1405SOL    HW1 4775   1.230   2.683   0.357
 1405SOL    HW2 4776   1.286   2.701   0.218
 1406SOL     OW 4777   1.770   3.607   1.149
 1406SOL    HW1 4778   1.830   3.633   1.079
 1406SOL    HW2 4779   1.746   3.517   1.128
 1407SOL     OW 4780   1.242   3.595   1.116
 1407SOL    HW1 4781   1.323   3.615   1.069
 1407SOL    HW2 4782   1.245   3.501   1.133
 1408SOL     OW 4783   0.067   3.048   1.049
 1408SOL    HW1 4784   0.069   3.081   1.139
 1408SOL    HW2 4785   0.019   3.114   1.000
 1409SOL     OW 4786   0.679   3.527   1.728
 1409SOL    HW1 4787   0.624   3.605   1.723
 1409SOL    HW2 4788   0.741   3.537   1.655
 1410SOL     OW 4789   0.917   1.954   0.110
 1410SOL    HW1 4790   0.968   1.918   0.037
 1410SOL    HW2 4791   0.953   1.912   0.187
 1411SOL     OW 4792   1.719   2.006   0.511
 1411SOL    HW1 4793   1.791   1.991   0.450
 1411SOL    HW2 4794   1.703   1.920   0.551
 1412SOL     OW 4795   1.390   3.430   0.484
 1412SOL    HW1 4796   1.451   3.461   0.418
 1412SOL    HW2 4797   1.343   3.508   0.512
 1413SOL     OW 4798   0.120   3.669   1.847
 1413SOL    HW1 4799   0.080   3.596   1.894
 1413SOL    HW2 4800   0.183   3.706   1.909
 1414SOL     OW 4801   1.277   2.787   0.671
 1414SOL    HW1 4802   1.350   2.726   0.676
 1414SOL    HW2 4803   1.311   2.860   0.619
 1415SOL     OW 4804   0.816   3.135   1.430
 1415SOL    HW1 4805   0.789   3.174   1.514
 1415SOL    HW2 4806   0.745   3.156   1.370
 1416SOL     OW 4807   0.675   3.481   0.167
 1416SOL    HW1 4808   0.684   3.490   0.072
 1416SOL    HW2 4809   0.617   3.406   0.178
 1417SOL     OW 4810   1.630   3.588   1.392
 1417SOL    HW1 4811   1.678   3.596   1.310
 1417SOL    HW2 4812   1.616   3.679   1.420
 1418SOL     OW 4813   1.846   2.044   0.966
 1418SOL    HW1 4814   1.880   1.958   0.941
 1418SOL    HW2 4815   1.760   2.049   0.925
 1419SOL     OW 4816   0.265   2.182   0.720
 1419SOL    HW1 4817   0.183   2.221   0.691
 1419SOL    HW2 4818   0.254   2.170   0.814
 1420SOL     OW 4819   1.222   3.465   0.051
 1420SOL    HW1 4820   1.209   3.372   0.072
 1420SOL    HW2 4821   1.156   3.484  11.085
 1421SOL     OW 4822   0.825   2.869   1.372
 1421SOL    HW1 4823   0.868   2.865   1.286
 1421SOL    HW2 4824   0.825   2.961   1.395
 1422SOL     OW 4825   0.914   2.769   0.282
 1422SOL    HW1 4826   0.981   2.809   0.226
 1422SOL    HW2 4827   0.961   2.704   0.333
 1423SOL     OW 4828   1.499   3.484   0.046
 1423SOL    HW1 4829   1.403   3.480   0.043
 1423SOL    HW2 4830   1.526   3.497  11.056
 1424SOL     OW 4831   0.373   3.168   1.491
 1424SOL    HW1 4832   0.356   3.247   1.439
 1424SOL    HW2 4833   0.298   3.112   1.474
 1425SOL     OW 4834   1.612   3.145   1.281
 1425SOL    HW1 4835   1.670   3.135   1.357
 1425SOL    HW2 4836   1.551   3.214   1.307
 1426SOL     OW 4837   1.050   2.968   0.705
 1426SOL    HW1 4838   0.980   2.917   0.745
 1426SOL    HW2 4839   1.112   2.903   0.673
 1427SOL     OW 4840   1.020   2.102   0.966
 1427SOL    HW1 4841   1.015   2.054   0.883
 1427SOL    HW2 4842   1.015   2.034   1.033
 1428SOL     OW 4843   0.603   3.353   0.483
 1428SOL    HW1 4844   0.641   3.302   0.412
 1428SOL    HW2 4845   0.530   3.400   0.443
 1429SOL     OW 4846   1.718   2.257   1.380
 1429SOL    HW1 4847   1.793   2.316   1.381
 1429SOL    HW2 4848   1.747   2.183   1.326
 1430SOL     OW 4849   0.262   3.193   0.284
 1430SOL    HW1 4850   0.174   3.205   0.247
 1430SOL    HW2 4851   0.258   3.232   0.371
 1431SOL     OW 4852   0.117   2.870   1.695
 1431SOL    HW1 4853   0.052   2.910   1.753
 1431SOL    HW2 4854   0.195   2.858   1.749
 1432SOL     OW 4855   0.673   2.061   1.499
 1432SOL    HW1 4856   0.757   2.039   1.457
 1432SOL    HW2 4857   0.697   2.088   1.587
 1433SOL     OW 4858   0.059   2.203   0.004
 1433SOL    HW1 4859   4.470   2.193   0.039
 1433SOL    HW2 4860   0.079   2.296   0.017
 1434SOL     OW 4861   1.431   2.721   1.401
 1434SOL    HW1 4862   1.383   2.781   1.345
 1434SOL    HW2 4863   1.521   2.723   1.368
 1435SOL     OW 4864   0.079   2.033   0.307
 1435SOL    HW1 4865   0.084   2.115   0.257
 1435SOL    HW2 4866   0.154   1.983   0.277
 1436SOL     OW 4867   1.182   3.203   0.122
 1436SOL    HW1 4868   1.088   3.183   0.116
 1436SOL    HW2 4869   1.202   3.196   0.215
 1437SOL     OW 4870   0.622   2.693   1.430
 1437SOL    HW1 4871   0.678   2.770   1.417
 1437SOL    HW2 4872   0.684   2.620   1.438
 1438SOL     OW 4873   1.484   3.638   0.977
 1438SOL    HW1 4874   1.509   3.695   0.905
 1438SOL    HW2 4875   1.566   3.620   1.023
 1439SOL     OW 4876   0.715   2.425   1.704
 1439SOL    HW1 4877   0.753   2.489   1.764
 1439SOL    HW2 4878   0.749   2.341   1.735
 1440SOL     OW 4879   1.470   3.064   1.633
 1440SOL    HW1 4880   1.458   3.077   1.727
 1440SOL    HW2 4881   1.564   3.077   1.619
 1441SOL     OW 4882   0.381   3.605   1.564
 1441SOL    HW1 4883   0.296   3.645   1.548
 1441SOL    HW2 4884   0.361   3.524   1.612
 1442SOL     OW 4885   1.672   2.744   1.255
 1442SOL    HW1 4886   1.662   2.659   1.213
 1442SOL    HW2 4887   1.661   2.807   1.184
 1443SOL     OW 4888   1.217   2.180   0.459
 1443SOL    HW1 4889   1.281   2.110   0.449
 1443SOL    HW2 4890   1.246   2.229   0.536
 1444SOL     OW 4891   0.590   2.601   0.668
 1444SOL    HW1 4892   0.628   2.687   0.653
 1444SOL    HW2 4893   0.521   2.593   0.602
 1445SOL     OW 4894   1.752   2.235   1.658
 1445SOL    HW1 4895   1.753   2.235   1.562
 1445SOL    HW2 4896   1.684   2.172   1.681
 1446SOL     OW 4897   1.744   2.796   1.512
 1446SOL    HW1 4898   1.743   2.891   1.525
 1446SOL    HW2 4899   1.729   2.784   1.418
 1447SOL     OW 4900   0.900   3.219   0.065
 1447SOL    HW1 4901   0.830   3.220   0.130
 1447SOL    HW2 4902   0.890   3.302   0.018
 1448SOL     OW 4903   0.660   3.655   0.948
 1448SOL    HW1 4904   0.639   3.744   0.922
 1448SOL    HW2 4905   0.755   3.649   0.938
 1449SOL     OW 4906   0.867   2.828   0.855
 1449SOL    HW1 4907   0.917   2.757   0.895
 1449SOL    HW2 4908   0.833   2.878   0.929
 1450SOL     OW 4909   1.079   2.852   0.085
 1450SOL    HW1 4910   1.055   2.886  11.099
 1450SOL    HW2 4911   1.156   2.797   0.069
 1451SOL     OW 4912   1.855   3.418   0.845
 1451SOL    HW1 4913   1.779   3.406   0.789
 1451SOL    HW2 4914   1.846   3.350   0.912
 1452SOL     OW 4915   0.229   3.168   1.857
 1452SOL    HW1 4916   0.158   3.109   1.833
 1452SOL    HW2 4917   0.222   3.178   1.952
 1453SOL     OW 4918   0.102   3.097   0.668
 1453SOL    HW1 4919   0.115   3.050   0.750
 1453SOL    HW2 4920   0.166   3.058   0.608
 1454SOL     OW 4921   0.682   3.264   1.627
 1454SOL    HW1 4922   0.601   3.220   1.655
 1454SOL    HW2 4923   0.675   3.352   1.665
 1455SOL     OW 4924   1.806   2.055   1.232
 1455SOL    HW1 4925   1.840   1.971   1.261
 1455SOL    HW2 4926   1.820   2.055   1.137
 1456SOL     OW 4927   0.433   2.296   0.526
 1456SOL    HW1 4928   0.462   2.224   0.470
 1456SOL    HW2 4929   0.384   2.255   0.596
 1457SOL     OW 4930   1.700   3.352   1.098
 1457SOL    HW1 4931   1.620   3.328   1.053
 1457SOL    HW2 4932   1.713   3.283   1.164
 1458SOL     OW 4933   0.303   2.350   1.255
 1458SOL    HW1 4934   0.377   2.309   1.300
 1458SOL    HW2 4935   0.334   2.365   1.166
 1459SOL     OW 4936   0.826   3.440   0.679
 1459SOL    HW1 4937   0.815   3.489   0.597
 1459SOL    HW2 4938   0.749   3.383   0.683
 1460SOL     OW 4939   1.432   2.086   1.117
 1460SOL    HW1 4940   1.465   2.010   1.165
 1460SOL    HW2 4941   1.380   2.134   1.182
 1461SOL     OW 4942   1.008   1.881   1.144
 1461SOL    HW1 4943   0.954   1.813   1.105
 1461SOL    HW2 4944   1.096   1.844   1.146
 1462SOL     OW 4945   0.768   3.190   0.314
 1462SOL    HW1 4946   0.738   3.100   0.328
 1462SOL    HW2 4947   0.852   3.194   0.359
 1463SOL     OW 4948   0.621   3.419   1.285
 1463SOL    HW1 4949   0.623   3.500   1.335
 1463SOL    HW2 4950   0.708   3.412   1.246
 1464SOL     OW 4951   1.351   1.916   0.164
 1464SOL    HW1 4952   1.372   1.867   0.085
 1464SOL    HW2 4953   1.264   1.883   0.190
 1465SOL     OW 4954   1.297   2.322   0.682
 1465SOL    HW1 4955   1.243   2.401   0.690
 1465SOL    HW2 4956   1.293   2.282   0.769
 1466SOL     OW 4957   1.588   2.064   0.878
 1466SOL    HW1 4958   1.526   2.083   0.948
 1466SOL    HW2 4959   1.587   2.143   0.823
 1467SOL     OW 4960   0.039   2.912   0.283
 1467SOL    HW1 4961   0.134   2.908   0.284
 1467SOL    HW2 4962   0.012   2.878   0.368
 1468SOL     OW 4963   0.884   3.514   0.347
 1468SOL    HW1 4964   0.813   3.494   0.287
 1468SOL    HW2 4965   0.852   3.588   0.398
 1469SOL     OW 4966   0.248   2.490   1.981
 1469SOL    HW1 4967   0.174   2.472   2.038
 1469SOL    HW2 4968   0.216   2.471   1.893
 1470SOL     OW 4969   0.213   2.138   2.854
 1470SOL    HW1 4970   0.249   2.111   2.938
 1470SOL    HW2 4971   0.137   2.080   2.841
 1471SOL     OW 4972   0.009   2.251   2.502
 1471SOL    HW1 4973   4.428   2.282   2.543
 1471SOL    HW2 4974   4.483   2.171   2.456
 1472SOL     OW 4975   0.567   3.147   3.036
 1472SOL    HW1 4976   0.480   3.151   2.998
 1472SOL    HW2 4977   0.583   3.234   3.071
 1473SOL     OW 4978   1.559   3.374   2.568
 1473SOL    HW1 4979   1.515   3.354   2.651
 1473SOL    HW2 4980   1.488   3.378   2.504
 1474SOL     OW 4981   1.130   2.560   2.565
 1474SOL    HW1 4982   1.179   2.641   2.550
 1474SOL    HW2 4983   1.083   2.575   2.647
 1475SOL     OW 4984   1.769   2.468   2.091
 1475SOL    HW1 4985   1.746   2.460   1.999
 1475SOL    HW2 4986   1.731   2.389   2.131
 1476SOL     OW 4987   0.757   3.005   2.901
 1476SOL    HW1 4988   0.688   3.039   2.957
 1476SOL    HW2 4989   0.792   3.083   2.856
 1477SOL     OW 4990   0.865   2.638   3.683
 1477SOL    HW1 4991   0.850   2.710   3.745
 1477SOL    HW2 4992   0.888   2.682   3.601
 1478SOL     OW 4993   0.686   2.867   2.510
 1478SOL    HW1 4994   0.750   2.854   2.579
 1478SOL    HW2 4995   0.616   2.918   2.552
 1479SOL     OW 4996   0.710   3.013   3.673
 1479SOL    HW1 4997   0.757   3.092   3.698
 1479SOL    HW2 4998   0.626   3.044   3.638
 1480SOL     OW 4999   0.336   3.284   2.932
 1480SOL    HW1 5000   0.254   3.265   2.885
 1480SOL    HW2 5001   0.386   3.338   2.871
 1481SOL     OW 5002   1.461   3.360   3.214
 1481SOL    HW1 5003   1.508   3.443   3.225
 1481SOL    HW2 5004   1.402   3.357   3.289
 1482SOL     OW 5005   0.444   2.267   3.356
 1482SOL    HW1 5006   0.523   2.213   3.359
 1482SOL    HW2 5007   0.372   2.203   3.360
 1483SOL     OW 5008   1.609   2.312   2.604
 1483SOL    HW1 5009   1.534   2.336   2.549
 1483SOL    HW2 5010   1.631   2.391   2.652
 1484SOL     OW 5011   0.246   3.553   2.340
 1484SOL    HW1 5012   0.231   3.638   2.382
 1484SOL    HW2 5013   0.311   3.571   2.272
 1485SOL     OW 5014   1.136   3.203   3.554
 1485SOL    HW1 5015   1.176   3.199   3.641
 1485SOL    HW2 5016   1.083   3.123   3.548
 1486SOL     OW 5017   0.247   3.289   2.390
 1486SOL    HW1 5018   0.239   3.384   2.393
 1486SOL    HW2 5019   0.183   3.257   2.453
 1487SOL     OW 5020   0.247   2.944   2.746
 1487SOL    HW1 5021   0.263   2.854   2.776
 1487SOL    HW2 5022   0.188   2.981   2.811
 1488SOL     OW 5023   0.615   3.652   3.294
 1488SOL    HW1 5024   0.532   3.634   3.337
 1488SOL    HW2 5025   0.635   3.743   3.318
 1489SOL     OW 5026   0.582   2.847   1.998
 1489SOL    HW1 5027   0.628   2.892   1.928
 1489SOL    HW2 5028   0.626   2.875   2.078
 1490SOL     OW 5029   1.589   1.982   3.333
 1490SOL    HW1 5030   1.604   2.057   3.276
 1490SOL    HW2 5031   1.582   2.019   3.421
 1491SOL     OW 5032   0.136   2.507   2.436
 1491SOL    HW1 5033   0.087   2.426   2.452
 1491SOL    HW2 5034   0.106   2.567   2.504
 1492SOL     OW 5035   1.842   3.622   2.198
 1492SOL    HW1 5036   1.903   3.593   2.265
 1492SOL    HW2 5037   1.867   3.712   2.179
 1493SOL     OW 5038   0.033   3.463   2.000
 1493SOL    HW1 5039   0.021   3.368   2.000
 1493SOL    HW2 5040   0.015   3.489   2.091
 1494SOL     OW 5041   1.691   2.782   2.502
 1494SOL    HW1 5042   1.773   2.737   2.480
 1494SOL    HW2 5043   1.668   2.831   2.423
 1495SOL     OW 5044   1.645   2.969   2.292
 1495SOL    HW1 5045   1.730   2.976   2.249
 1495SOL    HW2 5046   1.650   3.030   2.365
 1496SOL     OW 5047   0.111   2.623   3.448
 1496SOL    HW1 5048   0.204   2.623   3.426
 1496SOL    HW2 5049   0.089   2.715   3.461
 1497SOL     OW 5050   0.613   3.246   2.598
 1497SOL    HW1 5051   0.566   3.163   2.607
 1497SOL    HW2 5052   0.597   3.272   2.508
 1498SOL     OW 5053   1.290   3.101   3.286
 1498SOL    HW1 5054   1.322   3.033   3.226
 1498SOL    HW2 5055   1.346   3.093   3.363
 1499SOL     OW 5056   0.814   1.861   2.369
 1499SOL    HW1 5057   0.854   1.946   2.352
 1499SOL    HW2 5058   0.721   1.880   2.379
 1500SOL     OW 5059   0.181   2.804   3.141
 1500SOL    HW1 5060   0.273   2.787   3.120
 1500SOL    HW2 5061   0.133   2.785   3.061
 1501SOL     OW 5062   1.532   2.854   2.059
 1501SOL    HW1 5063   1.462   2.797   2.090
 1501SOL    HW2 5064   1.571   2.888   2.140
 1502SOL     OW 5065   1.186   3.667   3.483
 1502SOL    HW1 5066   1.198   3.725   3.408
 1502SOL    HW2 5067   1.201   3.579   3.449
 1503SOL     OW 5068   0.330   2.118   3.659
 1503SOL    HW1 5069   0.380   2.191   3.694
 1503SOL    HW2 5070   0.243   2.127   3.699
 1504SOL     OW 5071   1.467   3.281   2.815
 1504SOL    HW1 5072   1.398   3.296   2.880
 1504SOL    HW2 5073   1.454   3.190   2.787
 1505SOL     OW 5074   1.661   3.598   2.440
 1505SOL    HW1 5075   1.638   3.569   2.351
 1505SOL    HW2 5076   1.634   3.525   2.496
 1506SOL     OW 5077   0.598   2.583   2.127
 1506SOL    HW1 5078   0.601   2.664   2.076
 1506SOL    HW2 5079   0.532   2.601   2.195
 1507SOL     OW 5080   1.278   2.214   2.795
 1507SOL    HW1 5081   1.189   2.179   2.803
 1507SOL    HW2 5082   1.329   2.160   2.856
 1508SOL     OW 5083   1.581   3.531   2.171
 1508SOL    HW1 5084   1.671   3.565   2.164
 1508SOL    HW2 5085   1.555   3.514   2.080
 1509SOL     OW 5086   0.794   2.478   3.314
 1509SOL    HW1 5087   0.768   2.455   3.403
 1509SOL    HW2 5088   0.750   2.414   3.258
 1510SOL     OW 5089   1.394   2.336   3.539
 1510SOL    HW1 5090   1.395   2.380   3.624
 1510SOL    HW2 5091   1.455   2.264   3.548
 1511SOL     OW 5092   0.956   2.750   3.443
 1511SOL    HW1 5093   1.010   2.679   3.408
 1511SOL    HW2 5094   0.909   2.784   3.367
 1512SOL     OW 5095   0.993   2.276   3.101
 1512SOL    HW1 5096   0.909   2.298   3.141
 1512SOL    HW2 5097   0.970   2.228   3.021
 1513SOL     OW 5098   1.050   2.561   2.289
 1513SOL    HW1 5099   1.065   2.554   2.383
 1513SOL    HW2 5100   0.968   2.513   2.274
 1514SOL     OW 5101   0.097   2.688   2.646
 1514SOL    HW1 5102   0.184   2.669   2.682
 1514SOL    HW2 5103   0.048   2.724   2.720
 1515SOL     OW 5104   0.125   3.713   3.437
 1515SOL    HW1 5105   0.118   3.692   3.531
 1515SOL    HW2 5106   0.044   3.681   3.399
 1516SOL     OW 5107   0.890   2.209   2.056
 1516SOL    HW1 5108   0.932   2.270   1.996
 1516SOL    HW2 5109   0.907   2.123   2.018
 1517SOL     OW 5110   1.710   2.441   3.691
 1517SOL    HW1 5111   1.672   2.515   3.644
 1517SOL    HW2 5112   1.733   2.378   3.623
 1518SOL     OW 5113   1.376   3.004   2.404
 1518SOL    HW1 5114   1.454   2.990   2.351
 1518SOL    HW2 5115   1.323   3.066   2.354
 1519SOL     OW 5116   0.551   2.045   2.755
 1519SOL    HW1 5117   0.553   2.074   2.846
 1519SOL    HW2 5118   0.552   2.126   2.703
 1520SOL     OW 5119   1.008   3.307   2.335
 1520SOL    HW1 5120   0.968   3.379   2.286
 1520SOL    HW2 5121   0.990   3.329   2.427
 1521SOL     OW 5122   0.355   3.671   2.719
 1521SOL    HW1 5123   0.397   3.586   2.730
 1521SOL    HW2 5124   0.425   3.734   2.734
 1522SOL     OW 5125   1.799   2.920   2.729
 1522SOL    HW1 5126   1.744   2.902   2.653
 1522SOL    HW2 5127   1.738   2.926   2.802
 1523SOL     OW 5128   1.228   3.401   3.375
 1523SOL    HW1 5129   1.214   3.328   3.435
 1523SOL    HW2 5130   1.165   3.386   3.304
 1524SOL     OW 5131   0.316   2.816   2.113
 1524SOL    HW1 5132   0.401   2.839   2.073
 1524SOL    HW2 5133   0.300   2.727   2.085
 1525SOL     OW 5134   1.477   2.602   2.589
 1525SOL    HW1 5135   1.466   2.558   2.673
 1525SOL    HW2 5136   1.554   2.658   2.602
 1526SOL     OW 5137   0.467   3.124   3.597
 1526SOL    HW1 5138   0.439   3.130   3.506
 1526SOL    HW2 5139   0.385   3.128   3.647
 1527SOL     OW 5140   1.121   3.640   2.093
 1527SOL    HW1 5141   1.049   3.597   2.140
 1527SOL    HW2 5142   1.143   3.579   2.023
 1528SOL     OW 5143   0.196   2.139   3.348
 1528SOL    HW1 5144   0.135   2.213   3.354
 1528SOL    HW2 5145   0.184   2.092   3.431
 1529SOL     OW 5146   1.629   3.242   1.949
 1529SOL    HW1 5147   1.587   3.327   1.934
 1529SOL    HW2 5148   1.560   3.178   1.931
 1530SOL     OW 5149   0.469   3.606   2.176
 1530SOL    HW1 5150   0.510   3.658   2.245
 1530SOL    HW2 5151   0.543   3.572   2.125
 1531SOL     OW 5152   1.400   1.970   2.293
 1531SOL    HW1 5153   1.390   1.944   2.202
 1531SOL    HW2 5154   1.495   1.977   2.305
 1532SOL     OW 5155   0.261   3.656   3.094
 1532SOL    HW1 5156   0.306   3.581   3.134
 1532SOL    HW2 5157   0.227   3.622   3.011
 1533SOL     OW 5158   0.938   3.561   2.761
 1533SOL    HW1 5159   1.015   3.507   2.783
 1533SOL    HW2 5160   0.893   3.511   2.693
 1534SOL     OW 5161   0.394   2.557   2.336
 1534SOL    HW1 5162   0.418   2.465   2.346
 1534SOL    HW2 5163   0.301   2.561   2.361
 1535SOL     OW 5164   1.537   2.089   3.588
 1535SOL    HW1 5165   1.543   2.108   3.682
 1535SOL    HW2 5166   1.471   2.020   3.582
 1536SOL     OW 5167   0.632   1.988   1.966
 1536SOL    HW1 5168   0.703   1.925   1.981
 1536SOL    HW2 5169   0.585   1.953   1.890
 1537SOL     OW 5170   0.768   2.139   3.616
 1537SOL    HW1 5171   0.842   2.079   3.619
 1537SOL    HW2 5172   0.718   2.119   3.695
 1538SOL     OW 5173   0.877   3.384   3.055
 1538SOL    HW1 5174   0.861   3.348   2.968
 1538SOL    HW2 5175   0.946   3.329   3.092
 1539SOL     OW 5176   1.341   2.451   3.294
 1539SOL    HW1 5177   1.372   2.419   3.378
 1539SOL    HW2 5178   1.377   2.539   3.287
 1540SOL     OW 5179   0.814   3.259   2.800
 1540SOL    HW1 5180   0.898   3.247   2.755
 1540SOL    HW2 5181   0.749   3.258   2.730
 1541SOL     OW 5182   0.927   2.371   2.766
 1541SOL    HW1 5183   0.904   2.363   2.673
 1541SOL    HW2 5184   0.960   2.284   2.790
 1542SOL     OW 5185   0.551   1.924   2.365
 1542SOL    HW1 5186   0.470   1.923   2.416
 1542SOL    HW2 5187   0.544   2.002   2.311
 1543SOL     OW 5188   1.429   3.060   1.903
 1543SOL    HW1 5189   1.459   2.984   1.953
 1543SOL    HW2 5190   1.342   3.080   1.940
 1544SOL     OW 5191   0.295   1.908   2.040
 1544SOL    HW1 5192   0.357   1.975   2.013
 1544SOL    HW2 5193   0.348   1.842   2.085
 1545SOL     OW 5194   0.937   2.107   2.324
 1545SOL    HW1 5195   0.909   2.149   2.243
 1545SOL    HW2 5196   1.032   2.120   2.327
 1546SOL     OW 5197   1.080   2.542   3.322
 1546SOL    HW1 5198   1.010   2.476   3.327
 1546SOL    HW2 5199   1.161   2.491   3.314
 1547SOL     OW 5200   1.225   3.431   2.655
 1547SOL    HW1 5201   1.241   3.499   2.590
 1547SOL    HW2 5202   1.292   3.445   2.722
 1548SOL     OW 5203   0.466   3.011   2.599
 1548SOL    HW1 5204   0.394   2.992   2.660
 1548SOL    HW2 5205   0.428   2.995   2.512
 1549SOL     OW 5206   1.270   3.656   2.469
 1549SOL    HW1 5207   1.315   3.717   2.411
 1549SOL    HW2 5208   1.204   3.710   2.513
 1550SOL     OW 5209   1.024   2.406   1.883
 1550SOL    HW1 5210   0.981   2.489   1.863
 1550SOL    HW2 5211   1.089   2.427   1.950
 1551SOL     OW 5212   0.082   2.392   3.271
 1551SOL    HW1 5213   0.148   2.391   3.202
 1551SOL    HW2 5214   0.068   2.485   3.289
 1552SOL     OW 5215   0.561   2.090   3.027
 1552SOL    HW1 5216   0.602   2.010   3.060
 1552SOL    HW2 5217   0.469   2.082   3.054
 1553SOL     OW 5218   0.869   2.322   2.502
 1553SOL    HW1 5219   0.822   2.375   2.438
 1553SOL    HW2 5220   0.889   2.241   2.455
 1554SOL     OW 5221   1.015   1.915   2.615
 1554SOL    HW1 5222   0.956   1.907   2.539
 1554SOL    HW2 5223   0.994   1.839   2.669
 1555SOL     OW 5224   1.436   3.025   2.719
 1555SOL    HW1 5225   1.368   2.958   2.719
 1555SOL    HW2 5226   1.459   3.037   2.627
 1556SOL     OW 5227   1.466   2.467   2.842
 1556SOL    HW1 5228   1.417   2.384   2.844
 1556SOL    HW2 5229   1.527   2.461   2.916
 1557SOL     OW 5230   1.847   2.679   2.245
 1557SOL    HW1 5231   1.903   2.626   2.303
 1557SOL    HW2 5232   1.819   2.618   2.177
 1558SOL     OW 5233   0.492   3.278   2.023
 1558SOL    HW1 5234   0.415   3.248   2.072
 1558SOL    HW2 5235   0.473   3.254   1.932
 1559SOL     OW 5236   1.669   3.127   2.509
 1559SOL    HW1 5237   1.764   3.132   2.522
 1559SOL    HW2 5238   1.637   3.215   2.530
 1560SOL     OW 5239   1.394   2.434   1.933
 1560SOL    HW1 5240   1.333   2.415   2.005
 1560SOL    HW2 5241   1.478   2.400   1.964
 1561SOL     OW 5242   0.524   2.122   2.181
 1561SOL    HW1 5243   0.569   2.075   2.110
 1561SOL    HW2 5244   0.506   2.209   2.144
 1562SOL     OW 5245   1.753   3.100   3.437
 1562SOL    HW1 5246   1.840   3.061   3.434
 1562SOL    HW2 5247   1.768   3.190   3.466
 1563SOL     OW 5248   1.059   3.216   3.197
 1563SOL    HW1 5249   0.985   3.185   3.247
 1563SOL    HW2 5250   1.135   3.174   3.237
 1564SOL     OW 5251   1.607   3.487   3.515
 1564SOL    HW1 5252   1.602   3.521   3.425
 1564SOL    HW2 5253   1.690   3.440   3.518
 1565SOL     OW 5254   1.128   3.065   2.968
 1565SOL    HW1 5255   1.068   3.102   3.033
 1565SOL    HW2 5256   1.094   3.095   2.884
 1566SOL     OW 5257   1.630   2.961   2.940
 1566SOL    HW1 5258   1.625   3.023   3.012
 1566SOL    HW2 5259   1.550   2.977   2.890
 1567SOL     OW 5260   0.917   1.961   3.259
 1567SOL    HW1 5261   0.940   1.940   3.169
 1567SOL    HW2 5262   0.997   1.999   3.296
 1568SOL     OW 5263   0.984   2.976   3.585
 1568SOL    HW1 5264   0.892   2.992   3.605
 1568SOL    HW2 5265   0.983   2.899   3.529
 1569SOL     OW 5266   0.708   2.923   2.234
 1569SOL    HW1 5267   0.695   2.907   2.328
 1569SOL    HW2 5268   0.784   2.869   2.211
 1570SOL     OW 5269   0.430   2.687   3.102
 1570SOL    HW1 5270   0.499   2.698   3.167
 1570SOL    HW2 5271   0.371   2.622   3.141
 1571SOL     OW 5272   1.267   2.239   3.136
 1571SOL    HW1 5273   1.299   2.317   3.182
 1571SOL    HW2 5274   1.177   2.262   3.112
 1572SOL     OW 5275   0.062   3.438   3.202
 1572SOL    HW1 5276   0.034   3.527   3.181
 1572SOL    HW2 5277   0.157   3.444   3.209
 1573SOL     OW 5278   0.349   2.969   2.355
 1573SOL    HW1 5279   0.357   3.043   2.294
 1573SOL    HW2 5280   0.350   2.892   2.299
 1574SOL     OW 5281   0.561   2.396   2.718
 1574SOL    HW1 5282   0.575   2.456   2.645
 1574SOL    HW2 5283   0.622   2.427   2.786
 1575SOL     OW 5284   1.248   3.210   2.251
 1575SOL    HW1 5285   1.304   3.282   2.282
 1575SOL    HW2 5286   1.161   3.231   2.285
 1576SOL     OW 5287   1.279   3.319   3.008
 1576SOL    HW1 5288   1.334   3.320   3.086
 1576SOL    HW2 5289   1.223   3.242   3.019
 1577SOL     OW 5290   1.581   2.486   2.338
 1577SOL    HW1 5291   1.536   2.540   2.403
 1577SOL    HW2 5292   1.629   2.548   2.284
 1578SOL     OW 5293   0.347   3.393   3.178
 1578SOL    HW1 5294   0.333   3.346   3.096
 1578SOL    HW2 5295   0.442   3.403   3.184
 1579SOL     OW 5296   0.476   2.620   3.525
 1579SOL    HW1 5297   0.505   2.659   3.443
 1579SOL    HW2 5298   0.515   2.533   3.526
 1580SOL     OW 5299   1.600   2.641   3.543
 1580SOL    HW1 5300   1.513   2.681   3.536
 1580SOL    HW2 5301   1.652   2.683   3.474
 1581SOL     OW 5302   0.996   1.983   3.618
 1581SOL    HW1 5303   1.050   2.055   3.587
 1581SOL    HW2 5304   1.044   1.904   3.592
 1582SOL     OW 5305   0.498   1.905   3.608
 1582SOL    HW1 5306   0.457   1.848   3.543
 1582SOL    HW2 5307   0.437   1.979   3.617
 1583SOL     OW 5308   0.590   2.735   2.886
 1583SOL    HW1 5309   0.617   2.827   2.888
 1583SOL    HW2 5310   0.533   2.726   2.962
 1584SOL     OW 5311   1.359   2.721   2.894
 1584SOL    HW1 5312   1.277   2.713   2.846
 1584SOL    HW2 5313   1.398   2.633   2.889
 1585SOL     OW 5314   1.206   2.391   2.130
 1585SOL    HW1 5315   1.214   2.313   2.184
 1585SOL    HW2 5316   1.163   2.455   2.187
 1586SOL     OW 5317   0.302   2.054   3.104
 1586SOL    HW1 5318   0.263   2.088   3.184
 1586SOL    HW2 5319   0.285   1.960   3.107
 1587SOL     OW 5320   0.043   3.175   3.147
 1587SOL    HW1 5321   0.077   3.128   3.223
 1587SOL    HW2 5322   0.047   3.267   3.172
 1588SOL     OW 5323   0.726   2.494   2.922
 1588SOL    HW1 5324   0.799   2.475   2.863
 1588SOL    HW2 5325   0.699   2.582   2.898
 1589SOL     OW 5326   1.733   2.822   3.714
 1589SOL    HW1 5327   1.688   2.762   3.655
 1589SOL    HW2 5328   1.672   2.835   3.787
 1590SOL     OW 5329   0.309   1.932   2.481
 1590SOL    HW1 5330   0.287   2.021   2.509
 1590SOL    HW2 5331   0.306   1.880   2.561
 1591SOL     OW 5332   1.614   2.235   2.231
 1591SOL    HW1 5333   1.643   2.173   2.298
 1591SOL    HW2 5334   1.592   2.314   2.279
 1592SOL     OW 5335   1.027   2.621   2.823
 1592SOL    HW1 5336   1.026   2.639   2.917
 1592SOL    HW2 5337   1.001   2.530   2.816
 1593SOL     OW 5338   0.983   3.429   3.577
 1593SOL    HW1 5339   0.967   3.473   3.494
 1593SOL    HW2 5340   1.025   3.346   3.554
 1594SOL     OW 5341   1.855   3.369   3.468
 1594SOL    HW1 5342   1.873   3.395   3.377
 1594SOL    HW2 5343   1.937   3.389   3.514
 1595SOL     OW 5344   0.347   2.794   3.680
 1595SOL    HW1 5345   0.421   2.822   3.734
 1595SOL    HW2 5346   0.384   2.727   3.622
 1596SOL     OW 5347   1.530   2.135   1.990
 1596SOL    HW1 5348   1.465   2.070   2.016
 1596SOL    HW2 5349   1.562   2.171   2.073
 1597SOL     OW 5350   1.293   2.689   1.894
 1597SOL    HW1 5351   1.336   2.603   1.897
 1597SOL    HW2 5352   1.324   2.728   1.812
 1598SOL     OW 5353   1.065   3.197   2.715
 1598SOL    HW1 5354   1.068   3.124   2.653
 1598SOL    HW2 5355   1.127   3.261   2.680
 1599SOL     OW 5356   0.317   2.674   2.811
 1599SOL    HW1 5357   0.411   2.691   2.807
 1599SOL    HW2 5358   0.310   2.583   2.840
 1600SOL     OW 5359   0.332   2.386   2.854
 1600SOL    HW1 5360   0.294   2.300   2.838
 1600SOL    HW2 5361   0.410   2.388   2.798
 1601SOL     OW 5362   1.134   2.239   3.543
 1601SOL    HW1 5363   1.088   2.294   3.606
 1601SOL    HW2 5364   1.222   2.277   3.539
 1602SOL     OW 5365   1.159   2.066   3.332
 1602SOL    HW1 5366   1.150   2.129   3.403
 1602SOL    HW2 5367   1.200   2.116   3.261
 1603SOL     OW 5368   4.492   3.185   2.066
 1603SOL    HW1 5369   4.399   3.200   2.048
 1603SOL    HW2 5370   4.497   3.092   2.088
 1604SOL     OW 5371   0.096   3.641   2.802
 1604SOL    HW1 5372   0.058   3.584   2.735
 1604SOL    HW2 5373   0.184   3.661   2.769
 1605SOL     OW 5374   0.497   3.435   2.768
 1605SOL    HW1 5375   0.566   3.498   2.792
 1605SOL    HW2 5376   0.542   3.372   2.713
 1606SOL     OW 5377   0.986   2.655   3.089
 1606SOL    HW1 5378   1.040   2.631   3.165
 1606SOL    HW2 5379   0.900   2.619   3.109
 1607SOL     OW 5380   0.036   2.425   2.967
 1607SOL    HW1 5381   0.119   2.389   2.935
 1607SOL    HW2 5382   0.023   2.382   3.052
 1608SOL     OW 5383   0.179   2.379   3.576
 1608SOL    HW1 5384   0.259   2.350   3.531
 1608SOL    HW2 5385   0.155   2.461   3.532
 1609SOL     OW 5386   1.376   2.802   3.521
 1609SOL    HW1 5387   1.397   2.896   3.519
 1609SOL    HW2 5388   1.373   2.777   3.429
 1610SOL     OW 5389   0.816   2.431   2.220
 1610SOL    HW1 5390   0.819   2.356   2.160
 1610SOL    HW2 5391   0.742   2.483   2.189
 1611SOL     OW 5392   1.647   2.465   3.048
 1611SOL    HW1 5393   1.636   2.403   3.121
 1611SOL    HW2 5394   1.734   2.445   3.013
 1612SOL     OW 5395   0.273   3.423   3.604
 1612SOL    HW1 5396   0.217   3.476   3.660
 1612SOL    HW2 5397   0.252   3.333   3.627
 1613SOL     OW 5398   0.689   2.317   3.125
 1613SOL    HW1 5399   0.645   2.239   3.091
 1613SOL    HW2 5400   0.691   2.378   3.051
 1614SOL     OW 5401   0.930   3.541   3.328
 1614SOL    HW1 5402   0.903   3.508   3.243
 1614SOL    HW2 5403   0.925   3.636   3.320
 1615SOL     OW 5404   0.472   2.352   2.049
 1615SOL    HW1 5405   0.531   2.424   2.071
 1615SOL    HW2 5406   0.388   2.395   2.033
 1616SOL     OW 5407   0.162   3.003   3.324
 1616SOL    HW1 5408   0.146   2.956   3.406
 1616SOL    HW2 5409   0.170   2.933   3.259
 1617SOL     OW 5410   1.328   2.910   3.086
 1617SOL    HW1 5411   1.351   2.847   3.018
 1617SOL    HW2 5412   1.256   2.961   3.048
 1618SOL     OW 5413   1.310   2.719   2.169
 1618SOL    HW1 5414   1.234   2.688   2.218
 1618SOL    HW2 5415   1.286   2.705   2.077
 1619SOL     OW 5416   1.770   3.607   3.011
 1619SOL    HW1 5417   1.830   3.633   2.941
 1619SOL    HW2 5418   1.746   3.517   2.990
 1620SOL     OW 5419   1.242   3.595   2.977
 1620SOL    HW1 5420   1.323   3.614   2.931
 1620SOL    HW2 5421   1.245   3.501   2.995
 1621SOL     OW 5422   0.067   3.048   2.911
 1621SOL    HW1 5423   0.069   3.081   3.001
 1621SOL    HW2 5424   0.017   3.114   2.862
 1622SOL     OW 5425   0.679   3.527   3.589
 1622SOL    HW1 5426   0.623   3.605   3.585
 1622SOL    HW2 5427   0.741   3.537   3.517
 1623SOL     OW 5428   1.719   2.005   2.374
 1623SOL    HW1 5429   1.789   1.988   2.312
 1623SOL    HW2 5430   1.701   1.919   2.414
 1624SOL     OW 5431   1.391   3.430   2.346
 1624SOL    HW1 5432   1.451   3.461   2.279
 1624SOL    HW2 5433   1.342   3.507   2.374
 1625SOL     OW 5434   0.120   3.669   3.709
 1625SOL    HW1 5435   0.080   3.596   3.756
 1625SOL    HW2 5436   0.183   3.706   3.771
 1626SOL     OW 5437   1.277   2.787   2.533
 1626SOL    HW1 5438   1.351   2.726   2.539
 1626SOL    HW2 5439   1.311   2.860   2.481
 1627SOL     OW 5440   0.816   3.135   3.292
 1627SOL    HW1 5441   0.789   3.174   3.376
 1627SOL    HW2 5442   0.745   3.156   3.232
 1628SOL     OW 5443   0.673   3.480   2.017
 1628SOL    HW1 5444   0.682   3.491   1.922
 1628SOL    HW2 5445   0.618   3.402   2.027
 1629SOL     OW 5446   1.630   3.588   3.254
 1629SOL    HW1 5447   1.678   3.596   3.172
 1629SOL    HW2 5448   1.616   3.679   3.282
 1630SOL     OW 5449   1.805   2.004   2.831
 1630SOL    HW1 5450   1.844   1.928   2.789
 1630SOL    HW2 5451   1.725   2.020   2.781
 1631SOL     OW 5452   0.265   2.182   2.581
 1631SOL    HW1 5453   0.183   2.221   2.553
 1631SOL    HW2 5454   0.255   2.169   2.675
 1632SOL     OW 5455   1.207   3.469   1.893
 1632SOL    HW1 5456   1.198   3.378   1.921
 1632SOL    HW2 5457   1.141   3.480   1.824
 1633SOL     OW 5458   0.825   2.869   3.234
 1633SOL    HW1 5459   0.868   2.865   3.148
 1633SOL    HW2 5460   0.825   2.961   3.257
 1634SOL     OW 5461   0.916   2.773   2.152
 1634SOL    HW1 5462   0.977   2.804   2.085
 1634SOL    HW2 5463   0.963   2.702   2.196
 1635SOL     OW 5464   1.493   3.487   1.904
 1635SOL    HW1 5465   1.398   3.481   1.892
 1635SOL    HW2 5466   1.529   3.493   1.816
 1636SOL     OW 5467   0.373   3.168   3.353
 1636SOL    HW1 5468   0.356   3.247   3.301
 1636SOL    HW2 5469   0.298   3.112   3.336
 1637SOL     OW 5470   1.612   3.145   3.143
 1637SOL    HW1 5471   1.670   3.135   3.219
 1637SOL    HW2 5472   1.551   3.214   3.168
 1638SOL     OW 5473   1.050   2.968   2.568
 1638SOL    HW1 5474   0.980   2.917   2.607
 1638SOL    HW2 5475   1.112   2.903   2.535
 1639SOL     OW 5476   1.020   2.102   2.828
 1639SOL    HW1 5477   1.015   2.054   2.745
 1639SOL    HW2 5478   1.015   2.034   2.895
 1640SOL     OW 5479   0.604   3.352   2.345
 1640SOL    HW1 5480   0.644   3.301   2.274
 1640SOL    HW2 5481   0.530   3.397   2.304
 1641SOL     OW 5482   1.718   2.258   3.247
 1641SOL    HW1 5483   1.793   2.318   3.241
 1641SOL    HW2 5484   1.743   2.183   3.193
 1642SOL     OW 5485   0.252   3.206   2.139
 1642SOL    HW1 5486   0.157   3.206   2.125
 1642SOL    HW2 5487   0.262   3.239   2.229
 1643SOL     OW 5488   0.117   2.869   3.557
 1643SOL    HW1 5489   0.052   2.910   3.615
 1643SOL    HW2 5490   0.194   2.858   3.611
 1644SOL     OW 5491   0.673   2.061   3.361
 1644SOL    HW1 5492   0.757   2.039   3.319
 1644SOL    HW2 5493   0.697   2.089   3.449
 1645SOL     OW 5494   0.072   2.188   1.895
 1645SOL    HW1 5495   4.477   2.198   1.897
 1645SOL    HW2 5496   0.104   2.269   1.856
 1646SOL     OW 5497   1.431   2.721   3.263
 1646SOL    HW1 5498   1.383   2.781   3.207
 1646SOL    HW2 5499   1.521   2.723   3.229
 1647SOL     OW 5500   0.085   2.039   2.167
 1647SOL    HW1 5501   0.079   2.111   2.104
 1647SOL    HW2 5502   0.161   1.988   2.139
 1648SOL     OW 5503   1.179   3.203   1.979
 1648SOL    HW1 5504   1.088   3.173   1.981
 1648SOL    HW2 5505   1.207   3.202   2.070
 1649SOL     OW 5506   0.622   2.693   3.292
 1649SOL    HW1 5507   0.678   2.770   3.278
 1649SOL    HW2 5508   0.684   2.620   3.300
 1650SOL     OW 5509   1.484   3.637   2.839
 1650SOL    HW1 5510   1.509   3.696   2.767
 1650SOL    HW2 5511   1.566   3.621   2.885
 1651SOL     OW 5512   0.715   2.424   3.566
 1651SOL    HW1 5513   0.753   2.489   3.626
 1651SOL    HW2 5514   0.749   2.340   3.597
 1652SOL     OW 5515   1.470   3.064   3.494
 1652SOL    HW1 5516   1.458   3.077   3.588
 1652SOL    HW2 5517   1.564   3.077   3.480
 1653SOL     OW 5518   0.381   3.605   3.426
 1653SOL    HW1 5519   0.296   3.645   3.410
 1653SOL    HW2 5520   0.361   3.524   3.474
 1654SOL     OW 5521   1.672   2.744   3.117
 1654SOL    HW1 5522   1.663   2.658   3.075
 1654SOL    HW2 5523   1.661   2.807   3.046
 1655SOL     OW 5524   1.218   2.182   2.319
 1655SOL    HW1 5525   1.281   2.110   2.311
 1655SOL    HW2 5526   1.247   2.230   2.397
 1656SOL     OW 5527   0.591   2.601   2.530
 1656SOL    HW1 5528   0.629   2.687   2.514
 1656SOL    HW2 5529   0.521   2.593   2.465
 1657SOL     OW 5530   1.762   2.228   3.518
 1657SOL    HW1 5531   1.746   2.241   3.424
 1657SOL    HW2 5532   1.691   2.171   3.547
 1658SOL     OW 5533   1.744   2.796   3.374
 1658SOL    HW1 5534   1.743   2.891   3.387
 1658SOL    HW2 5535   1.729   2.784   3.280
 1659SOL     OW 5536   0.864   3.230   1.894
 1659SOL    HW1 5537   0.823   3.256   1.977
 1659SOL    HW2 5538   0.881   3.312   1.849
 1660SOL     OW 5539   0.660   3.655   2.809
 1660SOL    HW1 5540   0.639   3.745   2.784
 1660SOL    HW2 5541   0.755   3.649   2.800
 1661SOL     OW 5542   0.867   2.828   2.717
 1661SOL    HW1 5543   0.917   2.757   2.757
 1661SOL    HW2 5544   0.833   2.878   2.792
 1662SOL     OW 5545   1.080   2.851   1.951
 1662SOL    HW1 5546   1.058   2.900   1.872
 1662SOL    HW2 5547   1.155   2.797   1.925
 1663SOL     OW 5548   1.855   3.417   2.707
 1663SOL    HW1 5549   1.778   3.406   2.651
 1663SOL    HW2 5550   1.845   3.351   2.775
 1664SOL     OW 5551   0.229   3.168   3.719
 1664SOL    HW1 5552   0.158   3.109   3.695
 1664SOL    HW2 5553   0.222   3.178   3.814
 1665SOL     OW 5554   0.104   3.099   2.530
 1665SOL    HW1 5555   0.113   3.050   2.611
 1665SOL    HW2 5556   0.164   3.055   2.469
 1666SOL     OW 5557   0.682   3.264   3.490
 1666SOL    HW1 5558   0.601   3.220   3.517
 1666SOL    HW2 5559   0.675   3.352   3.527
 1667SOL     OW 5560   1.782   2.044   3.104
 1667SOL    HW1 5561   1.835   1.970   3.135
 1667SOL    HW2 5562   1.791   2.041   3.009
 1668SOL     OW 5563   0.435   2.295   2.387
 1668SOL    HW1 5564   0.459   2.222   2.331
 1668SOL    HW2 5565   0.384   2.256   2.458
 1669SOL     OW 5566   1.701   3.352   2.960
 1669SOL    HW1 5567   1.620   3.328   2.915
 1669SOL    HW2 5568   1.713   3.283   3.026
 1670SOL     OW 5569   0.303   2.350   3.117
 1670SOL    HW1 5570   0.377   2.309   3.161
 1670SOL    HW2 5571   0.334   2.365   3.028
 1671SOL     OW 5572   0.826   3.440   2.540
 1671SOL    HW1 5573   0.816   3.489   2.459
 1671SOL    HW2 5574   0.749   3.384   2.544
 1672SOL     OW 5575   1.433   2.087   2.979
 1672SOL    HW1 5576   1.466   2.011   3.026
 1672SOL    HW2 5577   1.381   2.135   3.043
 1673SOL     OW 5578   1.008   1.881   3.006
 1673SOL    HW1 5579   0.954   1.813   2.967
 1673SOL    HW2 5580   1.096   1.844   3.008
 1674SOL     OW 5581   0.772   3.194   2.174
 1674SOL    HW1 5582   0.739   3.105   2.180
 1674SOL    HW2 5583   0.854   3.193   2.223
 1675SOL     OW 5584   0.621   3.419   3.147
 1675SOL    HW1 5585   0.623   3.500   3.197
 1675SOL    HW2 5586   0.708   3.412   3.108
 1676SOL     OW 5587   1.352   1.915   2.026
 1676SOL    HW1 5588   1.378   1.854   1.958
 1676SOL    HW2 5589   1.265   1.885   2.053
 1677SOL     OW 5590   1.297   2.323   2.544
 1677SOL    HW1 5591   1.243   2.401   2.552
 1677SOL    HW2 5592   1.293   2.282   2.631
 1678SOL     OW 5593   1.567   2.063   2.726
 1678SOL    HW1 5594   1.514   2.085   2.803
 1678SOL    HW2 5595   1.575   2.146   2.678
 1679SOL     OW 5596   0.041   2.914   2.150
 1679SOL    HW1 5597   0.136   2.900   2.140
 1679SOL    HW2 5598   0.020   2.878   2.235
 1680SOL     OW 5599   0.883   3.513   2.205
 1680SOL    HW1 5600   0.811   3.495   2.145
 1680SOL    HW2 5601   0.853   3.589   2.256
 1681SOL     OW 5602   0.248   2.490   3.843
 1681SOL    HW1 5603   0.174   2.472   3.900
 1681SOL    HW2 5604   0.216   2.471   3.755
 1682SOL     OW 5605   0.213   2.138   4.716
 1682SOL    HW1 5606   0.249   2.111   4.800
 1682SOL    HW2 5607   0.137   2.081   4.703
 1683SOL     OW 5608   0.009   2.251   4.364
 1683SOL    HW1 5609   4.428   2.282   4.405
 1683SOL    HW2 5610   4.483   2.171   4.318
 1684SOL     OW 5611   0.568   3.147   4.898
 1684SOL    HW1 5612   0.480   3.151   4.860
 1684SOL    HW2 5613   0.582   3.234   4.933
 1685SOL     OW 5614   1.558   3.373   4.430
 1685SOL    HW1 5615   1.515   3.355   4.513
 1685SOL    HW2 5616   1.487   3.379   4.366
 1686SOL     OW 5617   1.132   2.560   4.428
 1686SOL    HW1 5618   1.178   2.642   4.411
 1686SOL    HW2 5619   1.084   2.575   4.509
 1687SOL     OW 5620   1.769   2.467   3.953
 1687SOL    HW1 5621   1.747   2.460   3.861
 1687SOL    HW2 5622   1.732   2.388   3.993
 1688SOL     OW 5623   0.758   3.006   4.763
 1688SOL    HW1 5624   0.688   3.039   4.819
 1688SOL    HW2 5625   0.792   3.083   4.718
 1689SOL     OW 5626   0.865   2.638   5.546
 1689SOL    HW1 5627   0.850   2.709   5.609
 1689SOL    HW2 5628   0.888   2.683   5.464
 1690SOL     OW 5629   0.686   2.867   4.372
 1690SOL    HW1 5630   0.750   2.854   4.442
 1690SOL    HW2 5631   0.616   2.918   4.414
 1691SOL     OW 5632   0.710   3.013   5.535
 1691SOL    HW1 5633   0.757   3.092   5.560
 1691SOL    HW2 5634   0.626   3.044   5.500
 1692SOL     OW 5635   0.336   3.284   4.794
 1692SOL    HW1 5636   0.254   3.265   4.748
 1692SOL    HW2 5637   0.386   3.338   4.733
 1693SOL     OW 5638   1.460   3.361   5.076
 1693SOL    HW1 5639   1.507   3.443   5.086
 1693SOL    HW2 5640   1.400   3.358   5.151
 1694SOL     OW 5641   0.444   2.266   5.217
 1694SOL    HW1 5642   0.523   2.213   5.221
 1694SOL    HW2 5643   0.372   2.204   5.222
 1695SOL     OW 5644   0.246   3.553   4.202
 1695SOL    HW1 5645   0.231   3.638   4.244
 1695SOL    HW2 5646   0.310   3.571   4.134
 1696SOL     OW 5647   1.137   3.203   5.416
 1696SOL    HW1 5648   1.175   3.200   5.503
 1696SOL    HW2 5649   1.083   3.123   5.410
 1697SOL     OW 5650   0.248   3.289   4.252
 1697SOL    HW1 5651   0.239   3.384   4.255
 1697SOL    HW2 5652   0.183   3.257   4.315
 1698SOL     OW 5653   0.248   2.944   4.608
 1698SOL    HW1 5654   0.263   2.854   4.639
 1698SOL    HW2 5655   0.188   2.981   4.673
 1699SOL     OW 5656   0.616   3.652   5.157
 1699SOL    HW1 5657   0.532   3.634   5.199
 1699SOL    HW2 5658   0.635   3.743   5.180
 1700SOL     OW 5659   0.582   2.847   3.860
 1700SOL    HW1 5660   0.628   2.892   3.790
 1700SOL    HW2 5661   0.626   2.875   3.940
 1701SOL     OW 5662   0.137   2.507   4.299
 1701SOL    HW1 5663   0.087   2.426   4.313
 1701SOL    HW2 5664   0.106   2.567   4.366
 1702SOL     OW 5665   1.842   3.622   4.060
 1702SOL    HW1 5666   1.903   3.593   4.127
 1702SOL    HW2 5667   1.867   3.712   4.041
 1703SOL     OW 5668   0.033   3.463   3.862
 1703SOL    HW1 5669   0.021   3.368   3.862
 1703SOL    HW2 5670   0.015   3.489   3.952
 1704SOL     OW 5671   1.701   2.783   4.361
 1704SOL    HW1 5672   1.775   2.742   4.316
 1704SOL    HW2 5673   1.659   2.837   4.294
 1705SOL     OW 5674   1.644   2.969   4.154
 1705SOL    HW1 5675   1.729   2.976   4.110
 1705SOL    HW2 5676   1.649   3.032   4.226
 1706SOL     OW 5677   0.111   2.623   5.309
 1706SOL    HW1 5678   0.205   2.624   5.289
 1706SOL    HW2 5679   0.089   2.715   5.322
 1707SOL     OW 5680   0.613   3.245   4.460
 1707SOL    HW1 5681   0.566   3.163   4.469
 1707SOL    HW2 5682   0.597   3.273   4.370
 1708SOL     OW 5683   1.290   3.102   5.147
 1708SOL    HW1 5684   1.320   3.034   5.088
 1708SOL    HW2 5685   1.346   3.094   5.224
 1709SOL     OW 5686   0.815   1.861   4.231
 1709SOL    HW1 5687   0.854   1.947   4.214
 1709SOL    HW2 5688   0.721   1.880   4.241
 1710SOL     OW 5689   0.181   2.804   5.004
 1710SOL    HW1 5690   0.273   2.787   4.981
 1710SOL    HW2 5691   0.133   2.785   4.923
 1711SOL     OW 5692   1.532   2.854   3.921
 1711SOL    HW1 5693   1.461   2.796   3.951
 1711SOL    HW2 5694   1.570   2.889   4.002
 1712SOL     OW 5695   1.187   3.667   5.345
 1712SOL    HW1 5696   1.197   3.725   5.270
 1712SOL    HW2 5697   1.201   3.579   5.311
 1713SOL     OW 5698   0.330   2.118   5.521
 1713SOL    HW1 5699   0.380   2.191   5.557
 1713SOL    HW2 5700   0.243   2.126   5.561
 1714SOL     OW 5701   1.467   3.281   4.677
 1714SOL    HW1 5702   1.398   3.296   4.742
 1714SOL    HW2 5703   1.454   3.191   4.649
 1715SOL     OW 5704   1.661   3.598   4.302
 1715SOL    HW1 5705   1.639   3.569   4.213
 1715SOL    HW2 5706   1.634   3.524   4.358
 1716SOL     OW 5707   0.598   2.584   3.990
 1716SOL    HW1 5708   0.601   2.664   3.938
 1716SOL    HW2 5709   0.532   2.601   4.057
 1717SOL     OW 5710   1.275   2.209   4.651
 1717SOL    HW1 5711   1.188   2.173   4.665
 1717SOL    HW2 5712   1.331   2.164   4.715
 1718SOL     OW 5713   1.581   3.531   4.033
 1718SOL    HW1 5714   1.671   3.564   4.026
 1718SOL    HW2 5715   1.555   3.514   3.942
 1719SOL     OW 5716   0.797   2.477   5.176
 1719SOL    HW1 5717   0.769   2.455   5.265
 1719SOL    HW2 5718   0.752   2.414   5.120
 1720SOL     OW 5719   0.957   2.750   5.305
 1720SOL    HW1 5720   1.010   2.679   5.270
 1720SOL    HW2 5721   0.909   2.784   5.229
 1721SOL     OW 5722   0.994   2.274   4.963
 1721SOL    HW1 5723   0.911   2.298   5.003
 1721SOL    HW2 5724   0.970   2.227   4.883
 1722SOL     OW 5725   1.050   2.560   4.150
 1722SOL    HW1 5726   1.065   2.553   4.245
 1722SOL    HW2 5727   0.968   2.513   4.135
 1723SOL     OW 5728   0.097   2.689   4.508
 1723SOL    HW1 5729   0.183   2.670   4.544
 1723SOL    HW2 5730   0.047   2.723   4.582
 1724SOL     OW 5731   0.125   3.713   5.299
 1724SOL    HW1 5732   0.118   3.692   5.393
 1724SOL    HW2 5733   0.044   3.681   5.261
 1725SOL     OW 5734   0.891   2.209   3.919
 1725SOL    HW1 5735   0.932   2.270   3.857
 1725SOL    HW2 5736   0.905   2.123   3.880
 1726SOL     OW 5737   1.376   3.005   4.266
 1726SOL    HW1 5738   1.454   2.992   4.211
 1726SOL    HW2 5739   1.323   3.067   4.216
 1727SOL     OW 5740   0.552   2.045   4.617
 1727SOL    HW1 5741   0.554   2.075   4.708
 1727SOL    HW2 5742   0.552   2.126   4.565
 1728SOL     OW 5743   1.008   3.308   4.197
 1728SOL    HW1 5744   0.968   3.379   4.148
 1728SOL    HW2 5745   0.989   3.329   4.289
 1729SOL     OW 5746   0.355   3.671   4.581
 1729SOL    HW1 5747   0.397   3.586   4.592
 1729SOL    HW2 5748   0.425   3.734   4.596
 1730SOL     OW 5749   1.804   2.939   4.587
 1730SOL    HW1 5750   1.754   2.901   4.515
 1730SOL    HW2 5751   1.744   2.941   4.661
 1731SOL     OW 5752   1.229   3.401   5.236
 1731SOL    HW1 5753   1.214   3.328   5.297
 1731SOL    HW2 5754   1.165   3.387   5.167
 1732SOL     OW 5755   0.317   2.816   3.976
 1732SOL    HW1 5756   0.401   2.839   3.935
 1732SOL    HW2 5757   0.299   2.727   3.947
 1733SOL     OW 5758   1.473   2.615   4.440
 1733SOL    HW1 5759   1.471   2.540   4.499
 1733SOL    HW2 5760   1.556   2.657   4.458
 1734SOL     OW 5761   0.467   3.124   5.459
 1734SOL    HW1 5762   0.439   3.130   5.368
 1734SOL    HW2 5763   0.386   3.128   5.509
 1735SOL     OW 5764   1.121   3.639   3.956
 1735SOL    HW1 5765   1.049   3.597   4.002
 1735SOL    HW2 5766   1.143   3.579   3.885
 1736SOL     OW 5767   0.196   2.140   5.211
 1736SOL    HW1 5768   0.135   2.213   5.215
 1736SOL    HW2 5769   0.184   2.093   5.293
 1737SOL     OW 5770   1.629   3.241   3.811
 1737SOL    HW1 5771   1.588   3.327   3.796
 1737SOL    HW2 5772   1.560   3.178   3.792
 1738SOL     OW 5773   0.469   3.606   4.037
 1738SOL    HW1 5774   0.510   3.659   4.107
 1738SOL    HW2 5775   0.543   3.572   3.987
 1739SOL     OW 5776   1.401   1.971   4.154
 1739SOL    HW1 5777   1.388   1.945   4.063
 1739SOL    HW2 5778   1.496   1.970   4.166
 1740SOL     OW 5779   0.261   3.656   4.956
 1740SOL    HW1 5780   0.305   3.581   4.996
 1740SOL    HW2 5781   0.226   3.622   4.873
 1741SOL     OW 5782   0.938   3.561   4.623
 1741SOL    HW1 5783   1.015   3.507   4.645
 1741SOL    HW2 5784   0.893   3.511   4.555
 1742SOL     OW 5785   0.394   2.557   4.198
 1742SOL    HW1 5786   0.418   2.465   4.208
 1742SOL    HW2 5787   0.302   2.561   4.224
 1743SOL     OW 5788   0.633   1.988   3.828
 1743SOL    HW1 5789   0.703   1.924   3.843
 1743SOL    HW2 5790   0.586   1.954   3.752
 1744SOL     OW 5791   0.768   2.139   5.478
 1744SOL    HW1 5792   0.842   2.077   5.482
 1744SOL    HW2 5793   0.718   2.121   5.557
 1745SOL     OW 5794   0.877   3.384   4.917
 1745SOL    HW1 5795   0.861   3.348   4.830
 1745SOL    HW2 5796   0.946   3.328   4.954
 1746SOL     OW 5797   1.349   2.455   5.165
 1746SOL    HW1 5798   1.404   2.435   5.240
 1746SOL    HW2 5799   1.367   2.546   5.144
 1747SOL     OW 5800   0.814   3.259   4.662
 1747SOL    HW1 5801   0.898   3.248   4.616
 1747SOL    HW2 5802   0.749   3.258   4.592
 1748SOL     OW 5803   0.928   2.372   4.627
 1748SOL    HW1 5804   0.904   2.364   4.535
 1748SOL    HW2 5805   0.959   2.285   4.652
 1749SOL     OW 5806   0.551   1.924   4.227
 1749SOL    HW1 5807   0.471   1.922   4.278
 1749SOL    HW2 5808   0.544   2.002   4.173
 1750SOL     OW 5809   1.428   3.060   3.765
 1750SOL    HW1 5810   1.458   2.984   3.815
 1750SOL    HW2 5811   1.342   3.080   3.802
 1751SOL     OW 5812   0.295   1.908   3.902
 1751SOL    HW1 5813   0.357   1.975   3.875
 1751SOL    HW2 5814   0.348   1.842   3.946
 1752SOL     OW 5815   0.937   2.108   4.186
 1752SOL    HW1 5816   0.909   2.149   4.105
 1752SOL    HW2 5817   1.032   2.121   4.189
 1753SOL     OW 5818   1.080   2.541   5.182
 1753SOL    HW1 5819   1.006   2.481   5.190
 1753SOL    HW2 5820   1.157   2.485   5.181
 1754SOL     OW 5821   1.225   3.431   4.517
 1754SOL    HW1 5822   1.241   3.499   4.451
 1754SOL    HW2 5823   1.292   3.446   4.584
 1755SOL     OW 5824   0.466   3.010   4.461
 1755SOL    HW1 5825   0.395   2.992   4.522
 1755SOL    HW2 5826   0.428   2.995   4.374
 1756SOL     OW 5827   1.270   3.656   4.331
 1756SOL    HW1 5828   1.315   3.717   4.273
 1756SOL    HW2 5829   1.204   3.710   4.375
 1757SOL     OW 5830   1.024   2.406   3.745
 1757SOL    HW1 5831   0.981   2.489   3.724
 1757SOL    HW2 5832   1.089   2.428   3.812
 1758SOL     OW 5833   0.083   2.392   5.134
 1758SOL    HW1 5834   0.149   2.392   5.064
 1758SOL    HW2 5835   0.067   2.485   5.151
 1759SOL     OW 5836   0.561   2.090   4.890
 1759SOL    HW1 5837   0.602   2.010   4.922
 1759SOL    HW2 5838   0.469   2.082   4.916
 1760SOL     OW 5839   0.870   2.322   4.364
 1760SOL    HW1 5840   0.821   2.375   4.300
 1760SOL    HW2 5841   0.889   2.241   4.317
 1761SOL     OW 5842   1.014   1.916   4.477
 1761SOL    HW1 5843   0.956   1.907   4.401
 1761SOL    HW2 5844   0.994   1.839   4.531
 1762SOL     OW 5845   1.436   3.026   4.581
 1762SOL    HW1 5846   1.368   2.958   4.582
 1762SOL    HW2 5847   1.457   3.038   4.489
 1763SOL     OW 5848   1.847   2.678   4.112
 1763SOL    HW1 5849   1.905   2.622   4.163
 1763SOL    HW2 5850   1.818   2.622   4.040
 1764SOL     OW 5851   0.492   3.278   3.884
 1764SOL    HW1 5852   0.415   3.248   3.934
 1764SOL    HW2 5853   0.472   3.254   3.794
 1765SOL     OW 5854   1.668   3.129   4.368
 1765SOL    HW1 5855   1.762   3.135   4.384
 1765SOL    HW2 5856   1.634   3.216   4.391
 1766SOL     OW 5857   1.394   2.434   3.795
 1766SOL    HW1 5858   1.333   2.415   3.867
 1766SOL    HW2 5859   1.478   2.398   3.825
 1767SOL     OW 5860   0.525   2.122   4.043
 1767SOL    HW1 5861   0.569   2.075   3.972
 1767SOL    HW2 5862   0.506   2.209   4.006
 1768SOL     OW 5863   1.733   3.131   5.301
 1768SOL    HW1 5864   1.809   3.074   5.311
 1768SOL    HW2 5865   1.766   3.219   5.323
 1769SOL     OW 5866   1.059   3.215   5.058
 1769SOL    HW1 5867   0.984   3.185   5.109
 1769SOL    HW2 5868   1.135   3.175   5.099
 1770SOL     OW 5869   1.607   3.487   5.377
 1770SOL    HW1 5870   1.603   3.521   5.288
 1770SOL    HW2 5871   1.692   3.442   5.381
 1771SOL     OW 5872   1.127   3.064   4.830
 1771SOL    HW1 5873   1.068   3.102   4.895
 1771SOL    HW2 5874   1.093   3.096   4.746
 1772SOL     OW 5875   1.632   2.972   4.797
 1772SOL    HW1 5876   1.626   3.034   4.870
 1772SOL    HW2 5877   1.553   2.988   4.746
 1773SOL     OW 5878   0.917   1.960   5.122
 1773SOL    HW1 5879   0.940   1.940   5.031
 1773SOL    HW2 5880   0.997   1.998   5.159
 1774SOL     OW 5881   0.984   2.977   5.446
 1774SOL    HW1 5882   0.892   2.992   5.468
 1774SOL    HW2 5883   0.983   2.899   5.391
 1775SOL     OW 5884   0.708   2.923   4.096
 1775SOL    HW1 5885   0.695   2.907   4.190
 1775SOL    HW2 5886   0.784   2.869   4.073
 1776SOL     OW 5887   0.430   2.686   4.964
 1776SOL    HW1 5888   0.499   2.698   5.029
 1776SOL    HW2 5889   0.371   2.621   5.003
 1777SOL     OW 5890   1.268   2.240   5.001
 1777SOL    HW1 5891   1.298   2.320   5.045
 1777SOL    HW2 5892   1.179   2.260   4.974
 1778SOL     OW 5893   0.061   3.438   5.064
 1778SOL    HW1 5894   0.033   3.527   5.044
 1778SOL    HW2 5895   0.157   3.444   5.071
 1779SOL     OW 5896   0.350   2.969   4.217
 1779SOL    HW1 5897   0.357   3.043   4.156
 1779SOL    HW2 5898   0.350   2.892   4.161
 1780SOL     OW 5899   0.562   2.396   4.580
 1780SOL    HW1 5900   0.575   2.456   4.507
 1780SOL    HW2 5901   0.621   2.428   4.648
 1781SOL     OW 5902   1.248   3.210   4.114
 1781SOL    HW1 5903   1.303   3.282   4.144
 1781SOL    HW2 5904   1.161   3.231   4.147
 1782SOL     OW 5905   1.279   3.318   4.870
 1782SOL    HW1 5906   1.333   3.321   4.949
 1782SOL    HW2 5907   1.222   3.242   4.882
 1783SOL     OW 5908   1.592   2.486   4.207
 1783SOL    HW1 5909   1.534   2.537   4.263
 1783SOL    HW2 5910   1.625   2.549   4.143
 1784SOL     OW 5911   0.347   3.393   5.040
 1784SOL    HW1 5912   0.333   3.346   4.958
 1784SOL    HW2 5913   0.442   3.403   5.046
 1785SOL     OW 5914   0.477   2.621   5.388
 1785SOL    HW1 5915   0.505   2.659   5.304
 1785SOL    HW2 5916   0.513   2.533   5.387
 1786SOL     OW 5917   1.565   2.644   5.429
 1786SOL    HW1 5918   1.500   2.710   5.407
 1786SOL    HW2 5919   1.633   2.653   5.362
 1787SOL     OW 5920   0.995   1.981   5.479
 1787SOL    HW1 5921   1.051   2.052   5.448
 1787SOL    HW2 5922   1.043   1.901   5.455
 1788SOL     OW 5923   0.498   1.905   5.470
 1788SOL    HW1 5924   0.457   1.848   5.405
 1788SOL    HW2 5925   0.438   1.979   5.479
 1789SOL     OW 5926   0.591   2.735   4.749
 1789SOL    HW1 5927   0.616   2.827   4.749
 1789SOL    HW2 5928   0.533   2.725   4.824
 1790SOL     OW 5929   1.357   2.728   4.750
 1790SOL    HW1 5930   1.275   2.713   4.703
 1790SOL    HW2 5931   1.384   2.641   4.780
 1791SOL     OW 5932   1.207   2.391   3.993
 1791SOL    HW1 5933   1.214   2.313   4.047
 1791SOL    HW2 5934   1.163   2.455   4.049
 1792SOL     OW 5935   0.303   2.055   4.966
 1792SOL    HW1 5936   0.263   2.089   5.046
 1792SOL    HW2 5937   0.285   1.960   4.969
 1793SOL     OW 5938   0.044   3.174   5.009
 1793SOL    HW1 5939   0.077   3.128   5.085
 1793SOL    HW2 5940   0.047   3.267   5.033
 1794SOL     OW 5941   0.727   2.494   4.784
 1794SOL    HW1 5942   0.799   2.476   4.724
 1794SOL    HW2 5943   0.698   2.583   4.761
 1795SOL     OW 5944   0.310   1.932   4.343
 1795SOL    HW1 5945   0.286   2.021   4.371
 1795SOL    HW2 5946   0.306   1.880   4.423
 1796SOL     OW 5947   1.616   2.236   4.092
 1796SOL    HW1 5948   1.642   2.170   4.157
 1796SOL    HW2 5949   1.593   2.313   4.143
 1797SOL     OW 5950   1.030   2.620   4.686
 1797SOL    HW1 5951   1.025   2.638   4.780
 1797SOL    HW2 5952   1.001   2.530   4.677
 1798SOL     OW 5953   0.984   3.429   5.439
 1798SOL    HW1 5954   0.968   3.473   5.356
 1798SOL    HW2 5955   1.025   3.346   5.416
 1799SOL     OW 5956   1.860   3.372   5.329
 1799SOL    HW1 5957   1.875   3.399   5.238
 1799SOL    HW2 5958   1.941   3.394   5.375
 1800SOL     OW 5959   0.347   2.794   5.542
 1800SOL    HW1 5960   0.421   2.823   5.597
 1800SOL    HW2 5961   0.385   2.728   5.484
 1801SOL     OW 5962   1.529   2.136   3.852
 1801SOL    HW1 5963   1.465   2.070   3.878
 1801SOL    HW2 5964   1.562   2.171   3.934
 1802SOL     OW 5965   1.294   2.689   3.756
 1802SOL    HW1 5966   1.336   2.603   3.759
 1802SOL    HW2 5967   1.324   2.728   3.674
 1803SOL     OW 5968   1.066   3.197   4.578
 1803SOL    HW1 5969   1.068   3.125   4.515
 1803SOL    HW2 5970   1.128   3.261   4.542
 1804SOL     OW 5971   0.317   2.673   4.673
 1804SOL    HW1 5972   0.411   2.690   4.668
 1804SOL    HW2 5973   0.310   2.583   4.702
 1805SOL     OW 5974   0.333   2.386   4.715
 1805SOL    HW1 5975   0.294   2.300   4.700
 1805SOL    HW2 5976   0.410   2.387   4.660
 1806SOL     OW 5977   1.139   2.245   5.403
 1806SOL    HW1 5978   1.084   2.294   5.464
 1806SOL    HW2 5979   1.227   2.279   5.417
 1807SOL     OW 5980   1.161   2.066   5.194
 1807SOL    HW1 5981   1.150   2.130   5.265
 1807SOL    HW2 5982   1.197   2.117   5.122
 1808SOL     OW 5983   4.492   3.184   3.927
 1808SOL    HW1 5984   4.399   3.200   3.909
 1808SOL    HW2 5985   4.497   3.092   3.950
 1809SOL     OW 5986   0.096   3.641   4.665
 1809SOL    HW1 5987   0.058   3.584   4.598
 1809SOL    HW2 5988   0.184   3.661   4.631
 1810SOL     OW 5989   0.498   3.435   4.630
 1810SOL    HW1 5990   0.566   3.498   4.654
 1810SOL    HW2 5991   0.542   3.372   4.575
 1811SOL     OW 5992   0.987   2.654   4.950
 1811SOL    HW1 5993   1.038   2.629   5.028
 1811SOL    HW2 5994   0.898   2.621   4.969
 1812SOL     OW 5995   0.036   2.426   4.830
 1812SOL    HW1 5996   0.119   2.389   4.798
 1812SOL    HW2 5997   0.022   2.382   4.914
 1813SOL     OW 5998   0.179   2.380   5.438
 1813SOL    HW1 5999   0.258   2.350   5.393
 1813SOL    HW2 6000   0.154   2.461   5.393
 1814SOL     OW 6001   1.362   2.813   5.380
 1814SOL    HW1 6002   1.387   2.905   5.377
 1814SOL    HW2 6003   1.363   2.786   5.288
 1815SOL     OW 6004   0.817   2.431   4.081
 1815SOL    HW1 6005   0.819   2.356   4.022
 1815SOL    HW2 6006   0.742   2.483   4.051
 1816SOL     OW 6007   0.274   3.423   5.466
 1816SOL    HW1 6008   0.217   3.476   5.522
 1816SOL    HW2 6009   0.252   3.333   5.489
 1817SOL     OW 6010   0.691   2.317   4.987
 1817SOL    HW1 6011   0.645   2.240   4.954
 1817SOL    HW2 6012   0.692   2.378   4.913
 1818SOL     OW 6013   0.931   3.541   5.190
 1818SOL    HW1 6014   0.902   3.508   5.105
 1818SOL    HW2 6015   0.925   3.636   5.182
 1819SOL     OW 6016   0.472   2.352   3.911
 1819SOL    HW1 6017   0.531   2.424   3.933
 1819SOL    HW2 6018   0.388   2.394   3.895
 1820SOL     OW 6019   0.163   3.003   5.187
 1820SOL    HW1 6020   0.146   2.956   5.269
 1820SOL    HW2 6021   0.170   2.933   5.121
 1821SOL     OW 6022   1.324   2.911   4.950
 1821SOL    HW1 6023   1.354   2.853   4.881
 1821SOL    HW2 6024   1.252   2.961   4.909
 1822SOL     OW 6025   1.311   2.717   4.031
 1822SOL    HW1 6026   1.234   2.689   4.081
 1822SOL    HW2 6027   1.287   2.705   3.939
 1823SOL     OW 6028   1.769   3.607   4.873
 1823SOL    HW1 6029   1.830   3.633   4.804
 1823SOL    HW2 6030   1.746   3.517   4.852
 1824SOL     OW 6031   1.242   3.595   4.839
 1824SOL    HW1 6032   1.323   3.614   4.793
 1824SOL    HW2 6033   1.246   3.501   4.857
 1825SOL     OW 6034   0.067   3.048   4.773
 1825SOL    HW1 6035   0.069   3.081   4.862
 1825SOL    HW2 6036   0.017   3.113   4.724
 1826SOL     OW 6037   0.679   3.527   5.451
 1826SOL    HW1 6038   0.623   3.605   5.447
 1826SOL    HW2 6039   0.740   3.538   5.379
 1827SOL     OW 6040   1.723   2.009   4.241
 1827SOL    HW1 6041   1.791   1.991   4.176
 1827SOL    HW2 6042   1.702   1.924   4.279
 1828SOL     OW 6043   1.391   3.430   4.208
 1828SOL    HW1 6044   1.451   3.461   4.141
 1828SOL    HW2 6045   1.342   3.507   4.236
 1829SOL     OW 6046   0.121   3.669   5.571
 1829SOL    HW1 6047   0.080   3.596   5.618
 1829SOL    HW2 6048   0.183   3.706   5.633
 1830SOL     OW 6049   1.272   2.791   4.393
 1830SOL    HW1 6050   1.346   2.730   4.402
 1830SOL    HW2 6051   1.306   2.864   4.341
 1831SOL     OW 6052   0.816   3.135   5.154
 1831SOL    HW1 6053   0.789   3.174   5.238
 1831SOL    HW2 6054   0.745   3.157   5.094
 1832SOL     OW 6055   0.673   3.480   3.879
 1832SOL    HW1 6056   0.682   3.491   3.784
 1832SOL    HW2 6057   0.618   3.402   3.889
 1833SOL     OW 6058   1.631   3.588   5.116
 1833SOL    HW1 6059   1.678   3.596   5.033
 1833SOL    HW2 6060   1.617   3.679   5.144
 1834SOL     OW 6061   0.265   2.182   4.443
 1834SOL    HW1 6062   0.183   2.221   4.415
 1834SOL    HW2 6063   0.255   2.169   4.537
 1835SOL     OW 6064   1.207   3.469   3.755
 1835SOL    HW1 6065   1.197   3.378   3.782
 1835SOL    HW2 6066   1.141   3.480   3.686
 1836SOL     OW 6067   0.827   2.869   5.095
 1836SOL    HW1 6068   0.866   2.868   5.008
 1836SOL    HW2 6069   0.825   2.961   5.120
 1837SOL     OW 6070   0.916   2.773   4.014
 1837SOL    HW1 6071   0.977   2.805   3.947
 1837SOL    HW2 6072   0.963   2.702   4.058
 1838SOL     OW 6073   1.493   3.486   3.766
 1838SOL    HW1 6074   1.398   3.481   3.754
 1838SOL    HW2 6075   1.529   3.493   3.678
 1839SOL     OW 6076   0.374   3.168   5.214
 1839SOL    HW1 6077   0.355   3.247   5.163
 1839SOL    HW2 6078   0.298   3.111   5.198
 1840SOL     OW 6079   1.615   3.149   5.008
 1840SOL    HW1 6080   1.663   3.136   5.089
 1840SOL    HW2 6081   1.550   3.217   5.029
 1841SOL     OW 6082   1.049   2.969   4.429
 1841SOL    HW1 6083   0.979   2.918   4.469
 1841SOL    HW2 6084   1.111   2.903   4.397
 1842SOL     OW 6085   1.019   2.101   4.692
 1842SOL    HW1 6086   1.014   2.054   4.608
 1842SOL    HW2 6087   1.014   2.032   4.758
 1843SOL     OW 6088   0.604   3.352   4.207
 1843SOL    HW1 6089   0.644   3.302   4.136
 1843SOL    HW2 6090   0.530   3.397   4.166
 1844SOL     OW 6091   0.252   3.206   4.001
 1844SOL    HW1 6092   0.157   3.206   3.987
 1844SOL    HW2 6093   0.262   3.239   4.091
 1845SOL     OW 6094   0.116   2.869   5.419
 1845SOL    HW1 6095   0.052   2.910   5.477
 1845SOL    HW2 6096   0.194   2.858   5.473
 1846SOL     OW 6097   0.673   2.061   5.223
 1846SOL    HW1 6098   0.757   2.039   5.181
 1846SOL    HW2 6099   0.697   2.088   5.311
 1847SOL     OW 6100   0.072   2.188   3.757
 1847SOL    HW1 6101   4.477   2.198   3.759
 1847SOL    HW2 6102   0.104   2.269   3.719
 1848SOL     OW 6103   1.425   2.722   5.124
 1848SOL    HW1 6104   1.369   2.783   5.076
 1848SOL    HW2 6105   1.508   2.722   5.076
 1849SOL     OW 6106   0.085   2.039   4.030
 1849SOL    HW1 6107   0.079   2.111   3.966
 1849SOL    HW2 6108   0.161   1.988   4.001
 1850SOL     OW 6109   1.179   3.202   3.841
 1850SOL    HW1 6110   1.088   3.173   3.843
 1850SOL    HW2 6111   1.207   3.202   3.932
 1851SOL     OW 6112   0.623   2.693   5.153
 1851SOL    HW1 6113   0.678   2.770   5.140
 1851SOL    HW2 6114   0.684   2.620   5.162
 1852SOL     OW 6115   1.485   3.637   4.701
 1852SOL    HW1 6116   1.508   3.696   4.629
 1852SOL    HW2 6117   1.567   3.621   4.747
 1853SOL     OW 6118   0.717   2.424   5.427
 1853SOL    HW1 6119   0.752   2.488   5.489
 1853SOL    HW2 6120   0.748   2.340   5.460
 1854SOL     OW 6121   1.468   3.065   5.356
 1854SOL    HW1 6122   1.456   3.077   5.451
 1854SOL    HW2 6123   1.558   3.092   5.340
 1855SOL     OW 6124   0.381   3.605   5.288
 1855SOL    HW1 6125   0.296   3.645   5.272
 1855SOL    HW2 6126   0.361   3.524   5.336
 1856SOL     OW 6127   1.625   2.741   4.943
 1856SOL    HW1 6128   1.690   2.681   4.906
 1856SOL    HW2 6129   1.633   2.821   4.890
 1857SOL     OW 6130   1.218   2.182   4.182
 1857SOL    HW1 6131   1.281   2.111   4.173
 1857SOL    HW2 6132   1.247   2.230   4.259
 1858SOL     OW 6133   0.591   2.601   4.392
 1858SOL    HW1 6134   0.629   2.687   4.376
 1858SOL    HW2 6135   0.521   2.592   4.327
 1859SOL     OW 6136   0.865   3.230   3.757
 1859SOL    HW1 6137   0.823   3.256   3.839
 1859SOL    HW2 6138   0.881   3.312   3.711
 1860SOL     OW 6139   0.660   3.655   4.671
 1860SOL    HW1 6140   0.638   3.744   4.646
 1860SOL    HW2 6141   0.755   3.650   4.662
 1861SOL     OW 6142   0.867   2.828   4.580
 1861SOL    HW1 6143   0.917   2.757   4.620
 1861SOL    HW2 6144   0.833   2.878   4.653
 1862SOL     OW 6145   1.080   2.851   3.813
 1862SOL    HW1 6146   1.057   2.900   3.735
 1862SOL    HW2 6147   1.155   2.797   3.787
 1863SOL     OW 6148   1.855   3.418   4.570
 1863SOL    HW1 6149   1.778   3.405   4.514
 1863SOL    HW2 6150   1.850   3.347   4.634
 1864SOL     OW 6151   0.229   3.168   5.581
 1864SOL    HW1 6152   0.157   3.109   5.557
 1864SOL    HW2 6153   0.222   3.178   5.676
 1865SOL     OW 6154   0.104   3.100   4.391
 1865SOL    HW1 6155   0.111   3.051   4.473
 1865SOL    HW2 6156   0.164   3.055   4.331
 1866SOL     OW 6157   0.682   3.264   5.352
 1866SOL    HW1 6158   0.602   3.220   5.379
 1866SOL    HW2 6159   0.675   3.352   5.389
 1867SOL     OW 6160   0.436   2.295   4.250
 1867SOL    HW1 6161   0.459   2.222   4.193
 1867SOL    HW2 6162   0.384   2.256   4.320
 1868SOL     OW 6163   1.699   3.352   4.824
 1868SOL    HW1 6164   1.620   3.330   4.774
 1868SOL    HW2 6165   1.706   3.282   4.889
 1869SOL     OW 6166   0.303   2.351   4.979
 1869SOL    HW1 6167   0.377   2.308   5.023
 1869SOL    HW2 6168   0.334   2.365   4.889
 1870SOL     OW 6169   0.827   3.439   4.402
 1870SOL    HW1 6170   0.816   3.490   4.321
 1870SOL    HW2 6171   0.749   3.384   4.406
 1871SOL     OW 6172   1.435   2.090   4.839
 1871SOL    HW1 6173   1.457   2.006   4.881
 1871SOL    HW2 6174   1.381   2.136   4.903
 1872SOL     OW 6175   1.009   1.881   4.868
 1872SOL    HW1 6176   0.954   1.813   4.829
 1872SOL    HW2 6177   1.097   1.843   4.870
 1873SOL     OW 6178   0.772   3.194   4.036
 1873SOL    HW1 6179   0.739   3.105   4.042
 1873SOL    HW2 6180   0.854   3.193   4.085
 1874SOL     OW 6181   0.621   3.419   5.009
 1874SOL    HW1 6182   0.623   3.500   5.059
 1874SOL    HW2 6183   0.708   3.412   4.970
 1875SOL     OW 6184   1.352   1.915   3.888
 1875SOL    HW1 6185   1.379   1.854   3.820
 1875SOL    HW2 6186   1.265   1.885   3.915
 1876SOL     OW 6187   1.295   2.324   4.407
 1876SOL    HW1 6188   1.237   2.400   4.414
 1876SOL    HW2 6189   1.289   2.282   4.493
 1877SOL     OW 6190   1.564   2.038   4.591
 1877SOL    HW1 6191   1.522   2.060   4.675
 1877SOL    HW2 6192   1.558   2.118   4.539
 1878SOL     OW 6193   0.041   2.914   4.012
 1878SOL    HW1 6194   0.135   2.900   4.003
 1878SOL    HW2 6195   0.019   2.879   4.097
 1879SOL     OW 6196   0.883   3.513   4.067
 1879SOL    HW1 6197   0.811   3.495   4.007
 1879SOL    HW2 6198   0.853   3.589   4.118
 1880SOL     OW 6199   0.248   2.489   5.705
 1880SOL    HW1 6200   0.174   2.472   5.762
 1880SOL    HW2 6201   0.216   2.471   5.617
 1881SOL     OW 6202   0.213   2.138   6.578
 1881SOL    HW1 6203   0.249   2.111   6.662
 1881SOL    HW2 6204   0.137   2.081   6.565
 1882SOL     OW 6205   0.009   2.251   6.226
 1882SOL    HW1 6206   4.428   2.282   6.267
 1882SOL    HW2 6207   4.483   2.171   6.179
 1883SOL     OW 6208   0.567   3.147   6.760
 1883SOL    HW1 6209   0.480   3.151   6.722
 1883SOL    HW2 6210   0.582   3.235   6.795
 1884SOL     OW 6211   1.558   3.376   6.294
 1884SOL    HW1 6212   1.515   3.355   6.377
 1884SOL    HW2 6213   1.487   3.379   6.230
 1885SOL     OW 6214   1.126   2.561   6.287
 1885SOL    HW1 6215   1.179   2.640   6.274
 1885SOL    HW2 6216   1.082   2.576   6.371
 1886SOL     OW 6217   0.757   3.006   6.625
 1886SOL    HW1 6218   0.688   3.040   6.682
 1886SOL    HW2 6219   0.792   3.083   6.580
 1887SOL     OW 6220   0.864   2.638   7.407
 1887SOL    HW1 6221   0.851   2.710   7.469
 1887SOL    HW2 6222   0.888   2.682   7.325
 1888SOL     OW 6223   0.686   2.868   6.234
 1888SOL    HW1 6224   0.750   2.854   6.303
 1888SOL    HW2 6225   0.616   2.917   6.276
 1889SOL     OW 6226   0.710   3.013   7.397
 1889SOL    HW1 6227   0.757   3.092   7.422
 1889SOL    HW2 6228   0.626   3.044   7.362
 1890SOL     OW 6229   0.336   3.284   6.656
 1890SOL    HW1 6230   0.254   3.265   6.610
 1890SOL    HW2 6231   0.386   3.338   6.595
 1891SOL     OW 6232   1.461   3.361   6.938
 1891SOL    HW1 6233   1.508   3.443   6.949
 1891SOL    HW2 6234   1.402   3.357   7.013
 1892SOL     OW 6235   0.443   2.267   7.080
 1892SOL    HW1 6236   0.523   2.214   7.083
 1892SOL    HW2 6237   0.372   2.203   7.084
 1893SOL     OW 6238   1.572   2.319   6.370
 1893SOL    HW1 6239   1.503   2.334   6.305
 1893SOL    HW2 6240   1.651   2.353   6.329
 1894SOL     OW 6241   0.246   3.553   6.064
 1894SOL    HW1 6242   0.231   3.638   6.106
 1894SOL    HW2 6243   0.310   3.572   5.996
 1895SOL     OW 6244   1.136   3.203   7.278
 1895SOL    HW1 6245   1.176   3.199   7.365
 1895SOL    HW2 6246   1.083   3.124   7.272
 1896SOL     OW 6247   0.248   3.289   6.114
 1896SOL    HW1 6248   0.239   3.384   6.118
 1896SOL    HW2 6249   0.183   3.256   6.177
 1897SOL     OW 6250   0.247   2.944   6.470
 1897SOL    HW1 6251   0.263   2.854   6.500
 1897SOL    HW2 6252   0.188   2.981   6.535
 1898SOL     OW 6253   0.615   3.652   7.018
 1898SOL    HW1 6254   0.532   3.634   7.061
 1898SOL    HW2 6255   0.635   3.743   7.042
 1899SOL     OW 6256   0.582   2.847   5.722
 1899SOL    HW1 6257   0.628   2.892   5.652
 1899SOL    HW2 6258   0.626   2.875   5.802
 1900SOL     OW 6259   1.599   1.987   7.055
 1900SOL    HW1 6260   1.579   2.067   7.006
 1900SOL    HW2 6261   1.587   2.012   7.147
 1901SOL     OW 6262   0.137   2.507   6.160
 1901SOL    HW1 6263   0.087   2.426   6.176
 1901SOL    HW2 6264   0.106   2.567   6.228
 1902SOL     OW 6265   1.843   3.623   5.922
 1902SOL    HW1 6266   1.903   3.594   5.991
 1902SOL    HW2 6267   1.868   3.713   5.904
 1903SOL     OW 6268   0.033   3.463   5.724
 1903SOL    HW1 6269   0.021   3.368   5.724
 1903SOL    HW2 6270   0.015   3.489   5.814
 1904SOL     OW 6271   1.679   2.797   6.244
 1904SOL    HW1 6272   1.764   2.761   6.217
 1904SOL    HW2 6273   1.646   2.841   6.166
 1905SOL     OW 6274   1.640   2.967   6.025
 1905SOL    HW1 6275   1.708   3.001   5.967
 1905SOL    HW2 6276   1.639   3.027   6.099
 1906SOL     OW 6277   0.112   2.623   7.173
 1906SOL    HW1 6278   0.205   2.623   7.150
 1906SOL    HW2 6279   0.090   2.715   7.185
 1907SOL     OW 6280   0.613   3.246   6.322
 1907SOL    HW1 6281   0.566   3.163   6.331
 1907SOL    HW2 6282   0.597   3.272   6.232
 1908SOL     OW 6283   1.290   3.101   7.009
 1908SOL    HW1 6284   1.322   3.033   6.950
 1908SOL    HW2 6285   1.346   3.093   7.087
 1909SOL     OW 6286   0.814   1.860   6.093
 1909SOL    HW1 6287   0.855   1.946   6.076
 1909SOL    HW2 6288   0.721   1.880   6.103
 1910SOL     OW 6289   0.181   2.804   6.865
 1910SOL    HW1 6290   0.273   2.787   6.844
 1910SOL    HW2 6291   0.133   2.785   6.785
 1911SOL     OW 6292   1.522   2.864   5.791
 1911SOL    HW1 6293   1.456   2.797   5.811
 1911SOL    HW2 6294   1.565   2.882   5.874
 1912SOL     OW 6295   1.186   3.667   7.207
 1912SOL    HW1 6296   1.198   3.725   7.131
 1912SOL    HW2 6297   1.201   3.579   7.173
 1913SOL     OW 6298   0.330   2.118   7.383
 1913SOL    HW1 6299   0.380   2.191   7.418
 1913SOL    HW2 6300   0.244   2.127   7.423
 1914SOL     OW 6301   1.467   3.281   6.539
 1914SOL    HW1 6302   1.398   3.296   6.604
 1914SOL    HW2 6303   1.454   3.190   6.511
 1915SOL     OW 6304   1.662   3.596   6.163
 1915SOL    HW1 6305   1.638   3.568   6.075
 1915SOL    HW2 6306   1.634   3.525   6.220
 1916SOL     OW 6307   0.597   2.583   5.851
 1916SOL    HW1 6308   0.601   2.664   5.800
 1916SOL    HW2 6309   0.532   2.600   5.919
 1917SOL     OW 6310   1.282   2.211   6.514
 1917SOL    HW1 6311   1.196   2.173   6.534
 1917SOL    HW2 6312   1.343   2.162   6.570
 1918SOL     OW 6313   1.582   3.530   5.895
 1918SOL    HW1 6314   1.671   3.565   5.888
 1918SOL    HW2 6315   1.555   3.515   5.804
 1919SOL     OW 6316   0.794   2.478   7.038
 1919SOL    HW1 6317   0.768   2.455   7.127
 1919SOL    HW2 6318   0.750   2.414   6.982
 1920SOL     OW 6319   1.394   2.336   7.264
 1920SOL    HW1 6320   1.395   2.380   7.349
 1920SOL    HW2 6321   1.456   2.264   7.273
 1921SOL     OW 6322   0.957   2.750   7.167
 1921SOL    HW1 6323   1.011   2.679   7.132
 1921SOL    HW2 6324   0.909   2.783   7.091
 1922SOL     OW 6325   0.992   2.275   6.825
 1922SOL    HW1 6326   0.907   2.297   6.864
 1922SOL    HW2 6327   0.970   2.229   6.744
 1923SOL     OW 6328   1.049   2.563   6.014
 1923SOL    HW1 6329   1.065   2.556   6.108
 1923SOL    HW2 6330   0.968   2.515   5.999
 1924SOL     OW 6331   0.097   2.688   6.370
 1924SOL    HW1 6332   0.184   2.669   6.406
 1924SOL    HW2 6333   0.048   2.724   6.444
 1925SOL     OW 6334   0.125   3.714   7.162
 1925SOL    HW1 6335   0.118   3.692   7.255
 1925SOL    HW2 6336   0.044   3.681   7.123
 1926SOL     OW 6337   0.888   2.208   5.781
 1926SOL    HW1 6338   0.934   2.269   5.722
 1926SOL    HW2 6339   0.906   2.122   5.744
 1927SOL     OW 6340   1.707   2.440   7.415
 1927SOL    HW1 6341   1.671   2.514   7.366
 1927SOL    HW2 6342   1.735   2.377   7.348
 1928SOL     OW 6343   1.375   3.006   6.130
 1928SOL    HW1 6344   1.448   2.987   6.071
 1928SOL    HW2 6345   1.320   3.068   6.081
 1929SOL     OW 6346   0.551   2.045   6.479
 1929SOL    HW1 6347   0.554   2.074   6.570
 1929SOL    HW2 6348   0.552   2.126   6.427
 1930SOL     OW 6349   1.008   3.308   6.059
 1930SOL    HW1 6350   0.968   3.380   6.010
 1930SOL    HW2 6351   0.989   3.328   6.151
 1931SOL     OW 6352   0.355   3.671   6.443
 1931SOL    HW1 6353   0.397   3.586   6.454
 1931SOL    HW2 6354   0.425   3.734   6.458
 1932SOL     OW 6355   1.794   2.940   6.454
 1932SOL    HW1 6356   1.742   2.902   6.383
 1932SOL    HW2 6357   1.736   2.936   6.530
 1933SOL     OW 6358   1.228   3.401   7.098
 1933SOL    HW1 6359   1.214   3.328   7.159
 1933SOL    HW2 6360   1.165   3.386   7.028
 1934SOL     OW 6361   0.316   2.816   5.837
 1934SOL    HW1 6362   0.401   2.838   5.798
 1934SOL    HW2 6363   0.299   2.726   5.810
 1935SOL     OW 6364   1.464   2.606   6.322
 1935SOL    HW1 6365   1.466   2.548   6.398
 1935SOL    HW2 6366   1.549   2.651   6.325
 1936SOL     OW 6367   0.467   3.124   7.321
 1936SOL    HW1 6368   0.439   3.130   7.230
 1936SOL    HW2 6369   0.385   3.129   7.371
 1937SOL     OW 6370   1.121   3.639   5.818
 1937SOL    HW1 6371   1.049   3.598   5.864
 1937SOL    HW2 6372   1.143   3.579   5.747
 1938SOL     OW 6373   0.195   2.139   7.072
 1938SOL    HW1 6374   0.135   2.213   7.078
 1938SOL    HW2 6375   0.184   2.093   7.155
 1939SOL     OW 6376   1.623   3.242   5.668
 1939SOL    HW1 6377   1.581   3.328   5.655
 1939SOL    HW2 6378   1.553   3.179   5.651
 1940SOL     OW 6379   0.469   3.606   5.899
 1940SOL    HW1 6380   0.510   3.659   5.969
 1940SOL    HW2 6381   0.543   3.572   5.849
 1941SOL     OW 6382   1.402   1.971   6.014
 1941SOL    HW1 6383   1.382   1.952   5.923
 1941SOL    HW2 6384   1.497   1.981   6.016
 1942SOL     OW 6385   0.261   3.656   6.818
 1942SOL    HW1 6386   0.306   3.581   6.858
 1942SOL    HW2 6387   0.227   3.622   6.735
 1943SOL     OW 6388   0.938   3.561   6.485
 1943SOL    HW1 6389   1.014   3.507   6.508
 1943SOL    HW2 6390   0.893   3.511   6.417
 1944SOL     OW 6391   0.394   2.557   6.059
 1944SOL    HW1 6392   0.418   2.465   6.070
 1944SOL    HW2 6393   0.301   2.561   6.085
 1945SOL     OW 6394   1.536   2.086   7.311
 1945SOL    HW1 6395   1.545   2.108   7.404
 1945SOL    HW2 6396   1.467   2.020   7.309
 1946SOL     OW 6397   0.633   1.988   5.690
 1946SOL    HW1 6398   0.702   1.924   5.705
 1946SOL    HW2 6399   0.585   1.953   5.614
 1947SOL     OW 6400   0.767   2.138   7.339
 1947SOL    HW1 6401   0.842   2.078   7.343
 1947SOL    HW2 6402   0.718   2.120   7.420
 1948SOL     OW 6403   0.878   3.384   6.779
 1948SOL    HW1 6404   0.861   3.347   6.692
 1948SOL    HW2 6405   0.946   3.329   6.816
 1949SOL     OW 6406   1.343   2.451   7.018
 1949SOL    HW1 6407   1.372   2.420   7.104
 1949SOL    HW2 6408   1.377   2.540   7.012
 1950SOL     OW 6409   0.814   3.259   6.524
 1950SOL    HW1 6410   0.898   3.247   6.479
 1950SOL    HW2 6411   0.749   3.258   6.454
 1951SOL     OW 6412   0.926   2.371   6.490
 1951SOL    HW1 6413   0.904   2.363   6.398
 1951SOL    HW2 6414   0.962   2.285   6.514
 1952SOL     OW 6415   0.551   1.924   6.089
 1952SOL    HW1 6416   0.471   1.922   6.140
 1952SOL    HW2 6417   0.544   2.002   6.035
 1953SOL     OW 6418   1.427   3.060   5.626
 1953SOL    HW1 6419   1.458   2.985   5.677
 1953SOL    HW2 6420   1.341   3.079   5.663
 1954SOL     OW 6421   0.295   1.908   5.764
 1954SOL    HW1 6422   0.357   1.976   5.738
 1954SOL    HW2 6423   0.348   1.842   5.808
 1955SOL     OW 6424   0.937   2.107   6.048
 1955SOL    HW1 6425   0.909   2.150   5.967
 1955SOL    HW2 6426   1.032   2.121   6.050
 1956SOL     OW 6427   1.080   2.541   7.046
 1956SOL    HW1 6428   1.010   2.476   7.050
 1956SOL    HW2 6429   1.161   2.490   7.038
 1957SOL     OW 6430   1.226   3.430   6.379
 1957SOL    HW1 6431   1.242   3.499   6.314
 1957SOL    HW2 6432   1.292   3.445   6.446
 1958SOL     OW 6433   0.466   3.011   6.323
 1958SOL    HW1 6434   0.395   2.992   6.384
 1958SOL    HW2 6435   0.428   2.995   6.236
 1959SOL     OW 6436   1.270   3.656   6.193
 1959SOL    HW1 6437   1.315   3.718   6.135
 1959SOL    HW2 6438   1.204   3.709   6.237
 1960SOL     OW 6439   1.030   2.406   5.605
 1960SOL    HW1 6440   0.986   2.490   5.590
 1960SOL    HW2 6441   1.088   2.422   5.679
 1961SOL     OW 6442   0.082   2.392   6.995
 1961SOL    HW1 6443   0.148   2.391   6.926
 1961SOL    HW2 6444   0.068   2.485   7.013
 1962SOL     OW 6445   0.561   2.089   6.751
 1962SOL    HW1 6446   0.602   2.010   6.785
 1962SOL    HW2 6447   0.469   2.082   6.778
 1963SOL     OW 6448   0.868   2.321   6.226
 1963SOL    HW1 6449   0.822   2.375   6.162
 1963SOL    HW2 6450   0.889   2.240   6.179
 1964SOL     OW 6451   1.017   1.913   6.338
 1964SOL    HW1 6452   0.957   1.908   6.264
 1964SOL    HW2 6453   0.994   1.839   6.393
 1965SOL     OW 6454   1.435   3.026   6.443
 1965SOL    HW1 6455   1.369   2.956   6.446
 1965SOL    HW2 6456   1.454   3.036   6.349
 1966SOL     OW 6457   1.454   2.473   6.586
 1966SOL    HW1 6458   1.433   2.385   6.555
 1966SOL    HW2 6459   1.525   2.461   6.648
 1967SOL     OW 6460   0.492   3.278   5.746
 1967SOL    HW1 6461   0.415   3.248   5.796
 1967SOL    HW2 6462   0.472   3.254   5.656
 1968SOL     OW 6463   1.666   3.133   6.227
 1968SOL    HW1 6464   1.759   3.133   6.249
 1968SOL    HW2 6465   1.635   3.219   6.255
 1969SOL     OW 6466   0.524   2.122   5.904
 1969SOL    HW1 6467   0.569   2.075   5.834
 1969SOL    HW2 6468   0.506   2.209   5.868
 1970SOL     OW 6469   1.753   3.100   7.160
 1970SOL    HW1 6470   1.840   3.060   7.159
 1970SOL    HW2 6471   1.768   3.190   7.190
 1971SOL     OW 6472   1.059   3.216   6.921
 1971SOL    HW1 6473   0.985   3.185   6.972
 1971SOL    HW2 6474   1.135   3.175   6.962
 1972SOL     OW 6475   1.607   3.488   7.239
 1972SOL    HW1 6476   1.603   3.521   7.149
 1972SOL    HW2 6477   1.690   3.440   7.243
 1973SOL     OW 6478   1.128   3.066   6.693
 1973SOL    HW1 6479   1.068   3.102   6.758
 1973SOL    HW2 6480   1.093   3.095   6.608
 1974SOL     OW 6481   1.628   2.960   6.667
 1974SOL    HW1 6482   1.624   3.023   6.738
 1974SOL    HW2 6483   1.548   2.975   6.617
 1975SOL     OW 6484   0.918   1.960   6.984
 1975SOL    HW1 6485   0.940   1.941   6.893
 1975SOL    HW2 6486   0.997   1.999   7.020
 1976SOL     OW 6487   0.984   2.976   7.308
 1976SOL    HW1 6488   0.892   2.992   7.329
 1976SOL    HW2 6489   0.983   2.899   7.252
 1977SOL     OW 6490   0.708   2.923   5.958
 1977SOL    HW1 6491   0.695   2.908   6.052
 1977SOL    HW2 6492   0.784   2.869   5.935
 1978SOL     OW 6493   0.430   2.687   6.826
 1978SOL    HW1 6494   0.499   2.698   6.891
 1978SOL    HW2 6495   0.371   2.622   6.865
 1979SOL     OW 6496   1.266   2.237   6.863
 1979SOL    HW1 6497   1.300   2.316   6.906
 1979SOL    HW2 6498   1.178   2.261   6.834
 1980SOL     OW 6499   0.062   3.438   6.926
 1980SOL    HW1 6500   0.034   3.527   6.905
 1980SOL    HW2 6501   0.157   3.444   6.933
 1981SOL     OW 6502   0.349   2.969   6.079
 1981SOL    HW1 6503   0.357   3.043   6.018
 1981SOL    HW2 6504   0.350   2.892   6.023
 1982SOL     OW 6505   0.561   2.396   6.442
 1982SOL    HW1 6506   0.575   2.456   6.369
 1982SOL    HW2 6507   0.622   2.427   6.510
 1983SOL     OW 6508   1.248   3.210   5.975
 1983SOL    HW1 6509   1.303   3.282   6.007
 1983SOL    HW2 6510   1.161   3.231   6.009
 1984SOL     OW 6511   1.279   3.319   6.732
 1984SOL    HW1 6512   1.333   3.320   6.811
 1984SOL    HW2 6513   1.223   3.241   6.742
 1985SOL     OW 6514   0.347   3.393   6.902
 1985SOL    HW1 6515   0.333   3.346   6.820
 1985SOL    HW2 6516   0.442   3.403   6.908
 1986SOL     OW 6517   0.476   2.620   7.249
 1986SOL    HW1 6518   0.506   2.659   7.167
 1986SOL    HW2 6519   0.516   2.533   7.251
 1987SOL     OW 6520   1.600   2.641   7.267
 1987SOL    HW1 6521   1.513   2.681   7.260
 1987SOL    HW2 6522   1.652   2.683   7.198
 1988SOL     OW 6523   0.996   1.983   7.341
 1988SOL    HW1 6524   1.050   2.055   7.312
 1988SOL    HW2 6525   1.045   1.904   7.316
 1989SOL     OW 6526   0.498   1.905   7.332
 1989SOL    HW1 6527   0.457   1.848   7.267
 1989SOL    HW2 6528   0.438   1.979   7.341
 1990SOL     OW 6529   0.589   2.735   6.610
 1990SOL    HW1 6530   0.617   2.827   6.612
 1990SOL    HW2 6531   0.532   2.726   6.686
 1991SOL     OW 6532   1.357   2.724   6.619
 1991SOL    HW1 6533   1.277   2.716   6.568
 1991SOL    HW2 6534   1.396   2.636   6.616
 1992SOL     OW 6535   1.189   2.391   5.845
 1992SOL    HW1 6536   1.207   2.314   5.899
 1992SOL    HW2 6537   1.156   2.456   5.908
 1993SOL     OW 6538   0.302   2.054   6.828
 1993SOL    HW1 6539   0.263   2.088   6.908
 1993SOL    HW2 6540   0.285   1.960   6.831
 1994SOL     OW 6541   0.043   3.175   6.871
 1994SOL    HW1 6542   0.077   3.128   6.947
 1994SOL    HW2 6543   0.047   3.267   6.896
 1995SOL     OW 6544   0.726   2.494   6.646
 1995SOL    HW1 6545   0.800   2.475   6.588
 1995SOL    HW2 6546   0.699   2.582   6.622
 1996SOL     OW 6547   1.732   2.824   7.436
 1996SOL    HW1 6548   1.687   2.762   7.379
 1996SOL    HW2 6549   1.674   2.834   7.511
 1997SOL     OW 6550   0.310   1.932   6.205
 1997SOL    HW1 6551   0.287   2.021   6.233
 1997SOL    HW2 6552   0.306   1.880   6.285
 1998SOL     OW 6553   1.025   2.622   6.547
 1998SOL    HW1 6554   1.026   2.639   6.641
 1998SOL    HW2 6555   1.001   2.530   6.540
 1999SOL     OW 6556   0.983   3.429   7.302
 1999SOL    HW1 6557   0.967   3.472   7.218
 1999SOL    HW2 6558   1.025   3.346   7.278
 2000SOL     OW 6559   1.855   3.370   7.192
 2000SOL    HW1 6560   1.873   3.395   7.101
 2000SOL    HW2 6561   1.937   3.389   7.238
 2001SOL     OW 6562   0.347   2.794   7.404
 2001SOL    HW1 6563   0.421   2.822   7.458
 2001SOL    HW2 6564   0.384   2.727   7.346
 2002SOL     OW 6565   1.294   2.686   5.616
 2002SOL    HW1 6566   1.354   2.611   5.621
 2002SOL    HW2 6567   1.320   2.732   5.535
 2003SOL     OW 6568   1.065   3.197   6.438
 2003SOL    HW1 6569   1.068   3.124   6.376
 2003SOL    HW2 6570   1.128   3.260   6.404
 2004SOL     OW 6571   0.317   2.674   6.535
 2004SOL    HW1 6572   0.411   2.691   6.531
 2004SOL    HW2 6573   0.311   2.583   6.564
 2005SOL     OW 6574   0.332   2.386   6.578
 2005SOL    HW1 6575   0.294   2.300   6.562
 2005SOL    HW2 6576   0.410   2.388   6.522
 2006SOL     OW 6577   1.134   2.239   7.267
 2006SOL    HW1 6578   1.088   2.294   7.330
 2006SOL    HW2 6579   1.222   2.277   7.263
 2007SOL     OW 6580   1.161   2.065   7.056
 2007SOL    HW1 6581   1.150   2.128   7.128
 2007SOL    HW2 6582   1.198   2.116   6.985
 2008SOL     OW 6583   4.492   3.184   5.789
 2008SOL    HW1 6584   4.399   3.200   5.771
 2008SOL    HW2 6585   4.497   3.092   5.812
 2009SOL     OW 6586   0.096   3.641   6.526
 2009SOL    HW1 6587   0.058   3.584   6.459
 2009SOL    HW2 6588   0.184   3.661   6.493
 2010SOL     OW 6589   0.497   3.435   6.492
 2010SOL    HW1 6590   0.566   3.498   6.516
 2010SOL    HW2 6591   0.542   3.371   6.437
 2011SOL     OW 6592   0.986   2.657   6.814
 2011SOL    HW1 6593   1.040   2.631   6.888
 2011SOL    HW2 6594   0.900   2.618   6.833
 2012SOL     OW 6595   0.036   2.425   6.691
 2012SOL    HW1 6596   0.119   2.390   6.659
 2012SOL    HW2 6597   0.023   2.382   6.776
 2013SOL     OW 6598   0.179   2.379   7.300
 2013SOL    HW1 6599   0.259   2.350   7.256
 2013SOL    HW2 6600   0.155   2.461   7.256
 2014SOL     OW 6601   1.376   2.802   7.245
 2014SOL    HW1 6602   1.397   2.896   7.244
 2014SOL    HW2 6603   1.374   2.777   7.153
 2015SOL     OW 6604   0.816   2.431   5.943
 2015SOL    HW1 6605   0.819   2.356   5.884
 2015SOL    HW2 6606   0.743   2.483   5.913
 2016SOL     OW 6607   1.653   2.465   6.778
 2016SOL    HW1 6608   1.622   2.413   6.851
 2016SOL    HW2 6609   1.744   2.437   6.765
 2017SOL     OW 6610   0.273   3.423   7.327
 2017SOL    HW1 6611   0.217   3.476   7.384
 2017SOL    HW2 6612   0.252   3.333   7.350
 2018SOL     OW 6613   0.689   2.317   6.849
 2018SOL    HW1 6614   0.645   2.240   6.815
 2018SOL    HW2 6615   0.691   2.378   6.775
 2019SOL     OW 6616   0.930   3.541   7.052
 2019SOL    HW1 6617   0.903   3.508   6.967
 2019SOL    HW2 6618   0.925   3.636   7.044
 2020SOL     OW 6619   0.473   2.352   5.772
 2020SOL    HW1 6620   0.531   2.424   5.795
 2020SOL    HW2 6621   0.388   2.394   5.757
 2021SOL     OW 6622   0.162   3.003   7.048
 2021SOL    HW1 6623   0.146   2.957   7.130
 2021SOL    HW2 6624   0.170   2.933   6.983
 2022SOL     OW 6625   1.328   2.911   6.810
 2022SOL    HW1 6626   1.350   2.846   6.743
 2022SOL    HW2 6627   1.257   2.962   6.772
 2023SOL     OW 6628   1.307   2.715   5.893
 2023SOL    HW1 6629   1.233   2.686   5.946
 2023SOL    HW2 6630   1.279   2.702   5.802
 2024SOL     OW 6631   1.769   3.608   6.734
 2024SOL    HW1 6632   1.830   3.633   6.665
 2024SOL    HW2 6633   1.746   3.517   6.714
 2025SOL     OW 6634   1.242   3.595   6.701
 2025SOL    HW1 6635   1.323   3.614   6.655
 2025SOL    HW2 6636   1.245   3.501   6.719
 2026SOL     OW 6637   0.067   3.048   6.635
 2026SOL    HW1 6638   0.069   3.081   6.724
 2026SOL    HW2 6639   0.017   3.114   6.586
 2027SOL     OW 6640   0.679   3.527   7.314
 2027SOL    HW1 6641   0.624   3.605   7.309
 2027SOL    HW2 6642   0.741   3.537   7.241
 2028SOL     OW 6643   1.391   3.430   6.070
 2028SOL    HW1 6644   1.450   3.462   6.002
 2028SOL    HW2 6645   1.342   3.507   6.098
 2029SOL     OW 6646   0.120   3.669   7.433
 2029SOL    HW1 6647   0.080   3.596   7.480
 2029SOL    HW2 6648   0.183   3.706   7.495
 2030SOL     OW 6649   1.273   2.788   6.257
 2030SOL    HW1 6650   1.345   2.726   6.268
 2030SOL    HW2 6651   1.311   2.860   6.205
 2031SOL     OW 6652   0.816   3.135   7.016
 2031SOL    HW1 6653   0.789   3.174   7.100
 2031SOL    HW2 6654   0.745   3.156   6.956
 2032SOL     OW 6655   0.673   3.480   5.741
 2032SOL    HW1 6656   0.681   3.491   5.646
 2032SOL    HW2 6657   0.618   3.402   5.751
 2033SOL     OW 6658   1.630   3.589   6.978
 2033SOL    HW1 6659   1.678   3.596   6.895
 2033SOL    HW2 6660   1.616   3.679   7.006
 2034SOL     OW 6661   0.265   2.182   6.305
 2034SOL    HW1 6662   0.183   2.221   6.277
 2034SOL    HW2 6663   0.255   2.170   6.399
 2035SOL     OW 6664   1.207   3.469   5.617
 2035SOL    HW1 6665   1.197   3.378   5.645
 2035SOL    HW2 6666   1.142   3.480   5.548
 2036SOL     OW 6667   0.825   2.869   6.958
 2036SOL    HW1 6668   0.868   2.865   6.873
 2036SOL    HW2 6669   0.825   2.962   6.981
 2037SOL     OW 6670   0.915   2.772   5.874
 2037SOL    HW1 6671   0.978   2.804   5.809
 2037SOL    HW2 6672   0.962   2.703   5.921
 2038SOL     OW 6673   1.493   3.486   5.628
 2038SOL    HW1 6674   1.398   3.482   5.616
 2038SOL    HW2 6675   1.528   3.494   5.539
 2039SOL     OW 6676   0.373   3.168   7.077
 2039SOL    HW1 6677   0.355   3.247   7.025
 2039SOL    HW2 6678   0.298   3.112   7.060
 2040SOL     OW 6679   1.613   3.146   6.867
 2040SOL    HW1 6680   1.669   3.135   6.944
 2040SOL    HW2 6681   1.551   3.215   6.893
 2041SOL     OW 6682   1.050   2.968   6.291
 2041SOL    HW1 6683   0.980   2.918   6.331
 2041SOL    HW2 6684   1.113   2.902   6.261
 2042SOL     OW 6685   1.020   2.102   6.554
 2042SOL    HW1 6686   1.017   2.055   6.470
 2042SOL    HW2 6687   1.014   2.033   6.620
 2043SOL     OW 6688   0.604   3.352   6.068
 2043SOL    HW1 6689   0.643   3.302   5.997
 2043SOL    HW2 6690   0.530   3.397   6.028
 2044SOL     OW 6691   1.723   2.247   6.966
 2044SOL    HW1 6692   1.793   2.313   6.965
 2044SOL    HW2 6693   1.755   2.178   6.907
 2045SOL     OW 6694   0.252   3.207   5.863
 2045SOL    HW1 6695   0.157   3.206   5.848
 2045SOL    HW2 6696   0.262   3.239   5.953
 2046SOL     OW 6697   0.117   2.870   7.281
 2046SOL    HW1 6698   0.052   2.910   7.339
 2046SOL    HW2 6699   0.195   2.858   7.335
 2047SOL     OW 6700   0.673   2.061   7.085
 2047SOL    HW1 6701   0.757   2.040   7.043
 2047SOL    HW2 6702   0.697   2.088   7.173
 2048SOL     OW 6703   0.072   2.187   5.618
 2048SOL    HW1 6704   4.477   2.198   5.621
 2048SOL    HW2 6705   0.104   2.269   5.581
 2049SOL     OW 6706   1.432   2.721   6.987
 2049SOL    HW1 6707   1.383   2.780   6.930
 2049SOL    HW2 6708   1.522   2.725   6.955
 2050SOL     OW 6709   0.085   2.039   5.892
 2050SOL    HW1 6710   0.079   2.111   5.829
 2050SOL    HW2 6711   0.161   1.988   5.863
 2051SOL     OW 6712   1.179   3.203   5.703
 2051SOL    HW1 6713   1.088   3.173   5.705
 2051SOL    HW2 6714   1.207   3.202   5.794
 2052SOL     OW 6715   0.622   2.693   7.016
 2052SOL    HW1 6716   0.678   2.770   7.003
 2052SOL    HW2 6717   0.684   2.620   7.024
 2053SOL     OW 6718   1.485   3.637   6.562
 2053SOL    HW1 6719   1.509   3.697   6.492
 2053SOL    HW2 6720   1.566   3.622   6.610
 2054SOL     OW 6721   0.715   2.425   7.290
 2054SOL    HW1 6722   0.753   2.489   7.350
 2054SOL    HW2 6723   0.749   2.341   7.321
 2055SOL     OW 6724   1.470   3.064   7.219
 2055SOL    HW1 6725   1.457   3.077   7.313
 2055SOL    HW2 6726   1.564   3.077   7.205
 2056SOL     OW 6727   0.381   3.605   7.150
 2056SOL    HW1 6728   0.296   3.645   7.134
 2056SOL    HW2 6729   0.361   3.524   7.198
 2057SOL     OW 6730   1.674   2.744   6.840
 2057SOL    HW1 6731   1.660   2.659   6.798
 2057SOL    HW2 6732   1.659   2.808   6.770
 2058SOL     OW 6733   1.217   2.182   6.040
 2058SOL    HW1 6734   1.280   2.111   6.033
 2058SOL    HW2 6735   1.243   2.230   6.118
 2059SOL     OW 6736   0.590   2.601   6.254
 2059SOL    HW1 6737   0.629   2.687   6.238
 2059SOL    HW2 6738   0.521   2.593   6.189
 2060SOL     OW 6739   1.763   2.226   7.243
 2060SOL    HW1 6740   1.755   2.235   7.148
 2060SOL    HW2 6741   1.691   2.168   7.268
 2061SOL     OW 6742   1.743   2.796   7.098
 2061SOL    HW1 6743   1.742   2.891   7.111
 2061SOL    HW2 6744   1.729   2.785   7.004
 2062SOL     OW 6745   0.865   3.230   5.619
 2062SOL    HW1 6746   0.824   3.255   5.701
 2062SOL    HW2 6747   0.880   3.313   5.574
 2063SOL     OW 6748   0.660   3.655   6.533
 2063SOL    HW1 6749   0.639   3.745   6.508
 2063SOL    HW2 6750   0.755   3.649   6.524
 2064SOL     OW 6751   0.867   2.829   6.441
 2064SOL    HW1 6752   0.916   2.757   6.480
 2064SOL    HW2 6753   0.833   2.878   6.516
 2065SOL     OW 6754   1.081   2.851   5.675
 2065SOL    HW1 6755   1.058   2.901   5.596
 2065SOL    HW2 6756   1.154   2.796   5.648
 2066SOL     OW 6757   1.856   3.414   6.429
 2066SOL    HW1 6758   1.775   3.408   6.379
 2066SOL    HW2 6759   1.843   3.353   6.502
 2067SOL     OW 6760   0.229   3.168   7.443
 2067SOL    HW1 6761   0.158   3.109   7.419
 2067SOL    HW2 6762   0.222   3.178   7.538
 2068SOL     OW 6763   0.105   3.100   6.254
 2068SOL    HW1 6764   0.111   3.051   6.335
 2068SOL    HW2 6765   0.164   3.055   6.193
 2069SOL     OW 6766   0.681   3.264   7.213
 2069SOL    HW1 6767   0.601   3.220   7.241
 2069SOL    HW2 6768   0.675   3.352   7.251
 2070SOL     OW 6769   0.435   2.295   6.111
 2070SOL    HW1 6770   0.459   2.221   6.055
 2070SOL    HW2 6771   0.384   2.256   6.182
 2071SOL     OW 6772   1.702   3.352   6.681
 2071SOL    HW1 6773   1.620   3.328   6.639
 2071SOL    HW2 6774   1.715   3.284   6.749
 2072SOL     OW 6775   0.303   2.350   6.841
 2072SOL    HW1 6776   0.377   2.309   6.885
 2072SOL    HW2 6777   0.334   2.365   6.752
 2073SOL     OW 6778   0.827   3.440   6.264
 2073SOL    HW1 6779   0.815   3.489   6.183
 2073SOL    HW2 6780   0.749   3.383   6.269
 2074SOL     OW 6781   1.436   2.087   6.710
 2074SOL    HW1 6782   1.448   2.002   6.753
 2074SOL    HW2 6783   1.380   2.136   6.770
 2075SOL     OW 6784   1.008   1.881   6.730
 2075SOL    HW1 6785   0.954   1.812   6.691
 2075SOL    HW2 6786   1.096   1.844   6.732
 2076SOL     OW 6787   0.772   3.194   5.897
 2076SOL    HW1 6788   0.739   3.104   5.904
 2076SOL    HW2 6789   0.854   3.193   5.947
 2077SOL     OW 6790   0.621   3.419   6.871
 2077SOL    HW1 6791   0.623   3.500   6.921
 2077SOL    HW2 6792   0.708   3.412   6.832
 2078SOL     OW 6793   1.347   1.908   5.759
 2078SOL    HW1 6794   1.372   1.872   5.674
 2078SOL    HW2 6795   1.261   1.870   5.776
 2079SOL     OW 6796   1.293   2.322   6.264
 2079SOL    HW1 6797   1.239   2.400   6.275
 2079SOL    HW2 6798   1.294   2.282   6.351
 2080SOL     OW 6799   0.041   2.915   5.874
 2080SOL    HW1 6800   0.135   2.900   5.865
 2080SOL    HW2 6801   0.019   2.879   5.959
 2081SOL     OW 6802   0.884   3.514   5.929
 2081SOL    HW1 6803   0.811   3.495   5.869
 2081SOL    HW2 6804   0.853   3.589   5.980
 2082SOL     OW 6805   0.248   2.490   7.567
 2082SOL    HW1 6806   0.173   2.472   7.624
 2082SOL    HW2 6807   0.216   2.471   7.479
 2083SOL     OW 6808   0.213   2.138   8.440
 2083SOL    HW1 6809   0.250   2.111   8.524
 2083SOL    HW2 6810   0.137   2.080   8.427
 2084SOL     OW 6811   0.009   2.251   8.088
 2084SOL    HW1 6812   4.428   2.282   8.129
 2084SOL    HW2 6813   4.483   2.171   8.042
 2085SOL     OW 6814   0.567   3.147   8.622
 2085SOL    HW1 6815   0.480   3.151   8.584
 2085SOL    HW2 6816   0.583   3.234   8.657
 2086SOL     OW 6817   1.559   3.374   8.154
 2086SOL    HW1 6818   1.516   3.354   8.237
 2086SOL    HW2 6819   1.488   3.378   8.091
 2087SOL     OW 6820   1.129   2.561   8.150
 2087SOL    HW1 6821   1.179   2.641   8.136
 2087SOL    HW2 6822   1.083   2.575   8.233
 2088SOL     OW 6823   1.767   2.469   7.677
 2088SOL    HW1 6824   1.746   2.460   7.584
 2088SOL    HW2 6825   1.733   2.389   7.718
 2089SOL     OW 6826   0.757   3.005   8.487
 2089SOL    HW1 6827   0.688   3.039   8.543
 2089SOL    HW2 6828   0.792   3.083   8.442
 2090SOL     OW 6829   0.864   2.638   9.269
 2090SOL    HW1 6830   0.851   2.710   9.331
 2090SOL    HW2 6831   0.888   2.682   9.187
 2091SOL     OW 6832   0.686   2.867   8.096
 2091SOL    HW1 6833   0.750   2.854   8.165
 2091SOL    HW2 6834   0.616   2.918   8.138
 2092SOL     OW 6835   0.710   3.013   9.259
 2092SOL    HW1 6836   0.757   3.092   9.284
 2092SOL    HW2 6837   0.626   3.044   9.224
 2093SOL     OW 6838   0.336   3.284   8.518
 2093SOL    HW1 6839   0.254   3.265   8.471
 2093SOL    HW2 6840   0.386   3.338   8.457
 2094SOL     OW 6841   1.461   3.360   8.800
 2094SOL    HW1 6842   1.508   3.443   8.811
 2094SOL    HW2 6843   1.402   3.357   8.875
 2095SOL     OW 6844   0.443   2.267   8.942
 2095SOL    HW1 6845   0.523   2.214   8.945
 2095SOL    HW2 6846   0.372   2.203   8.946
 2096SOL     OW 6847   1.611   2.309   8.189
 2096SOL    HW1 6848   1.537   2.333   8.134
 2096SOL    HW2 6849   1.632   2.389   8.238
 2097SOL     OW 6850   0.246   3.553   7.926
 2097SOL    HW1 6851   0.231   3.638   7.968
 2097SOL    HW2 6852   0.311   3.571   7.858
 2098SOL     OW 6853   1.136   3.203   9.140
 2098SOL    HW1 6854   1.176   3.199   9.227
 2098SOL    HW2 6855   1.083   3.124   9.134
 2099SOL     OW 6856   0.247   3.289   7.976
 2099SOL    HW1 6857   0.239   3.384   7.979
 2099SOL    HW2 6858   0.183   3.257   8.039
 2100SOL     OW 6859   0.247   2.944   8.331
 2100SOL    HW1 6860   0.263   2.854   8.362
 2100SOL    HW2 6861   0.188   2.981   8.397
 2101SOL     OW 6862   0.615   3.653   8.880
 2101SOL    HW1 6863   0.532   3.634   8.923
 2101SOL    HW2 6864   0.635   3.743   8.904
 2102SOL     OW 6865   0.582   2.847   7.584
 2102SOL    HW1 6866   0.628   2.892   7.514
 2102SOL    HW2 6867   0.626   2.875   7.664
 2103SOL     OW 6868   1.590   1.983   8.916
 2103SOL    HW1 6869   1.604   2.062   8.863
 2103SOL    HW2 6870   1.583   2.016   9.006
 2104SOL     OW 6871   0.136   2.507   8.022
 2104SOL    HW1 6872   0.087   2.426   8.038
 2104SOL    HW2 6873   0.106   2.567   8.090
 2105SOL     OW 6874   1.842   3.622   7.783
 2105SOL    HW1 6875   1.903   3.593   7.851
 2105SOL    HW2 6876   1.868   3.712   7.765
 2106SOL     OW 6877   0.033   3.463   7.586
 2106SOL    HW1 6878   0.021   3.368   7.586
 2106SOL    HW2 6879   0.016   3.489   7.677
 2107SOL     OW 6880   1.691   2.782   8.088
 2107SOL    HW1 6881   1.773   2.737   8.065
 2107SOL    HW2 6882   1.668   2.831   8.009
 2108SOL     OW 6883   1.645   2.969   7.877
 2108SOL    HW1 6884   1.730   2.976   7.835
 2108SOL    HW2 6885   1.650   3.030   7.951
 2109SOL     OW 6886   0.112   2.623   9.035
 2109SOL    HW1 6887   0.205   2.623   9.012
 2109SOL    HW2 6888   0.090   2.715   9.047
 2110SOL     OW 6889   0.613   3.246   8.184
 2110SOL    HW1 6890   0.566   3.163   8.193
 2110SOL    HW2 6891   0.597   3.272   8.093
 2111SOL     OW 6892   1.290   3.101   8.871
 2111SOL    HW1 6893   1.322   3.033   8.812
 2111SOL    HW2 6894   1.346   3.093   8.949
 2112SOL     OW 6895   0.814   1.861   7.955
 2112SOL    HW1 6896   0.854   1.946   7.938
 2112SOL    HW2 6897   0.721   1.880   7.965
 2113SOL     OW 6898   0.181   2.804   8.727
 2113SOL    HW1 6899   0.273   2.787   8.706
 2113SOL    HW2 6900   0.134   2.785   8.647
 2114SOL     OW 6901   1.532   2.854   7.645
 2114SOL    HW1 6902   1.462   2.797   7.675
 2114SOL    HW2 6903   1.571   2.888   7.726
 2115SOL     OW 6904   1.186   3.667   9.069
 2115SOL    HW1 6905   1.198   3.725   8.993
 2115SOL    HW2 6906   1.201   3.579   9.035
 2116SOL     OW 6907   0.330   2.118   9.245
 2116SOL    HW1 6908   0.380   2.191   9.280
 2116SOL    HW2 6909   0.243   2.127   9.285
 2117SOL     OW 6910   1.466   3.281   8.401
 2117SOL    HW1 6911   1.398   3.296   8.466
 2117SOL    HW2 6912   1.454   3.191   8.373
 2118SOL     OW 6913   1.661   3.598   8.026
 2118SOL    HW1 6914   1.638   3.569   7.937
 2118SOL    HW2 6915   1.634   3.525   8.082
 2119SOL     OW 6916   0.598   2.583   7.713
 2119SOL    HW1 6917   0.601   2.664   7.662
 2119SOL    HW2 6918   0.532   2.601   7.781
 2120SOL     OW 6919   1.279   2.213   8.380
 2120SOL    HW1 6920   1.190   2.179   8.389
 2120SOL    HW2 6921   1.330   2.160   8.442
 2121SOL     OW 6922   1.581   3.532   7.757
 2121SOL    HW1 6923   1.671   3.564   7.750
 2121SOL    HW2 6924   1.555   3.514   7.666
 2122SOL     OW 6925   0.794   2.478   8.900
 2122SOL    HW1 6926   0.767   2.455   8.989
 2122SOL    HW2 6927   0.750   2.414   8.844
 2123SOL     OW 6928   1.393   2.336   9.126
 2123SOL    HW1 6929   1.396   2.380   9.211
 2123SOL    HW2 6930   1.457   2.265   9.133
 2124SOL     OW 6931   0.956   2.750   9.029
 2124SOL    HW1 6932   1.011   2.679   8.995
 2124SOL    HW2 6933   0.909   2.784   8.953
 2125SOL     OW 6934   0.993   2.276   8.687
 2125SOL    HW1 6935   0.909   2.298   8.727
 2125SOL    HW2 6936   0.970   2.228   8.607
 2126SOL     OW 6937   1.050   2.561   7.875
 2126SOL    HW1 6938   1.065   2.554   7.969
 2126SOL    HW2 6939   0.968   2.513   7.860
 2127SOL     OW 6940   0.097   2.688   8.232
 2127SOL    HW1 6941   0.184   2.669   8.268
 2127SOL    HW2 6942   0.048   2.724   8.305
 2128SOL     OW 6943   0.125   3.713   9.023
 2128SOL    HW1 6944   0.118   3.692   9.117
 2128SOL    HW2 6945   0.044   3.681   8.985
 2129SOL     OW 6946   0.890   2.209   7.642
 2129SOL    HW1 6947   0.932   2.270   7.582
 2129SOL    HW2 6948   0.907   2.123   7.605
 2130SOL     OW 6949   1.714   2.444   9.277
 2130SOL    HW1 6950   1.674   2.517   9.230
 2130SOL    HW2 6951   1.728   2.378   9.210
 2131SOL     OW 6952   1.376   3.005   7.990
 2131SOL    HW1 6953   1.454   2.990   7.937
 2131SOL    HW2 6954   1.323   3.066   7.940
 2132SOL     OW 6955   0.551   2.045   8.341
 2132SOL    HW1 6956   0.553   2.074   8.432
 2132SOL    HW2 6957   0.552   2.126   8.289
 2133SOL     OW 6958   1.007   3.307   7.921
 2133SOL    HW1 6959   0.968   3.379   7.872
 2133SOL    HW2 6960   0.990   3.329   8.013
 2134SOL     OW 6961   0.355   3.671   8.305
 2134SOL    HW1 6962   0.397   3.586   8.316
 2134SOL    HW2 6963   0.425   3.734   8.320
 2135SOL     OW 6964   1.799   2.921   8.315
 2135SOL    HW1 6965   1.744   2.901   8.239
 2135SOL    HW2 6966   1.738   2.926   8.388
 2136SOL     OW 6967   1.228   3.401   8.961
 2136SOL    HW1 6968   1.214   3.328   9.021
 2136SOL    HW2 6969   1.165   3.386   8.890
 2137SOL     OW 6970   0.316   2.816   7.699
 2137SOL    HW1 6971   0.401   2.839   7.660
 2137SOL    HW2 6972   0.300   2.726   7.671
 2138SOL     OW 6973   1.477   2.603   8.176
 2138SOL    HW1 6974   1.466   2.557   8.259
 2138SOL    HW2 6975   1.555   2.658   8.188
 2139SOL     OW 6976   0.467   3.124   9.183
 2139SOL    HW1 6977   0.439   3.130   9.092
 2139SOL    HW2 6978   0.385   3.129   9.233
 2140SOL     OW 6979   1.121   3.640   7.679
 2140SOL    HW1 6980   1.049   3.597   7.726
 2140SOL    HW2 6981   1.143   3.579   7.609
 2141SOL     OW 6982   0.195   2.139   8.934
 2141SOL    HW1 6983   0.135   2.213   8.940
 2141SOL    HW2 6984   0.184   2.093   9.017
 2142SOL     OW 6985   1.629   3.242   7.535
 2142SOL    HW1 6986   1.587   3.327   7.520
 2142SOL    HW2 6987   1.560   3.178   7.517
 2143SOL     OW 6988   0.469   3.606   7.762
 2143SOL    HW1 6989   0.510   3.659   7.831
 2143SOL    HW2 6990   0.543   3.572   7.711
 2144SOL     OW 6991   1.401   1.970   7.879
 2144SOL    HW1 6992   1.391   1.945   7.788
 2144SOL    HW2 6993   1.496   1.978   7.892
 2145SOL     OW 6994   0.261   3.656   8.680
 2145SOL    HW1 6995   0.306   3.581   8.720
 2145SOL    HW2 6996   0.227   3.622   8.597
 2146SOL     OW 6997   0.938   3.561   8.347
 2146SOL    HW1 6998   1.015   3.507   8.369
 2146SOL    HW2 6999   0.893   3.511   8.279
 2147SOL     OW 7000   0.393   2.557   7.922
 2147SOL    HW1 7001   0.418   2.465   7.932
 2147SOL    HW2 7002   0.301   2.561   7.947
 2148SOL     OW 7003   1.535   2.085   9.174
 2148SOL    HW1 7004   1.542   2.106   9.267
 2148SOL    HW2 7005   1.468   2.018   9.170
 2149SOL     OW 7006   0.632   1.988   7.552
 2149SOL    HW1 7007   0.703   1.925   7.567
 2149SOL    HW2 7008   0.585   1.953   7.476
 2150SOL     OW 7009   0.767   2.138   9.201
 2150SOL    HW1 7010   0.842   2.079   9.204
 2150SOL    HW2 7011   0.718   2.120   9.282
 2151SOL     OW 7012   0.877   3.384   8.641
 2151SOL    HW1 7013   0.861   3.348   8.554
 2151SOL    HW2 7014   0.946   3.329   8.678
 2152SOL     OW 7015   1.340   2.451   8.880
 2152SOL    HW1 7016   1.372   2.418   8.965
 2152SOL    HW2 7017   1.378   2.539   8.873
 2153SOL     OW 7018   0.814   3.259   8.386
 2153SOL    HW1 7019   0.898   3.247   8.341
 2153SOL    HW2 7020   0.749   3.258   8.316
 2154SOL     OW 7021   0.927   2.371   8.352
 2154SOL    HW1 7022   0.904   2.363   8.259
 2154SOL    HW2 7023   0.960   2.285   8.376
 2155SOL     OW 7024   0.551   1.924   7.951
 2155SOL    HW1 7025   0.470   1.923   8.002
 2155SOL    HW2 7026   0.544   2.002   7.897
 2156SOL     OW 7027   1.428   3.060   7.489
 2156SOL    HW1 7028   1.459   2.984   7.539
 2156SOL    HW2 7029   1.342   3.080   7.526
 2157SOL     OW 7030   0.295   1.908   7.626
 2157SOL    HW1 7031   0.357   1.975   7.599
 2157SOL    HW2 7032   0.348   1.842   7.671
 2158SOL     OW 7033   0.937   2.107   7.910
 2158SOL    HW1 7034   0.910   2.150   7.829
 2158SOL    HW2 7035   1.032   2.120   7.913
 2159SOL     OW 7036   1.080   2.542   8.908
 2159SOL    HW1 7037   1.011   2.476   8.913
 2159SOL    HW2 7038   1.161   2.492   8.901
 2160SOL     OW 7039   1.225   3.431   8.241
 2160SOL    HW1 7040   1.241   3.499   8.176
 2160SOL    HW2 7041   1.292   3.445   8.308
 2161SOL     OW 7042   0.466   3.011   8.184
 2161SOL    HW1 7043   0.394   2.992   8.246
 2161SOL    HW2 7044   0.428   2.995   8.098
 2162SOL     OW 7045   1.270   3.656   8.055
 2162SOL    HW1 7046   1.315   3.718   7.997
 2162SOL    HW2 7047   1.204   3.710   8.100
 2163SOL     OW 7048   1.024   2.405   7.469
 2163SOL    HW1 7049   0.982   2.489   7.449
 2163SOL    HW2 7050   1.089   2.427   7.536
 2164SOL     OW 7051   0.082   2.392   8.857
 2164SOL    HW1 7052   0.148   2.391   8.788
 2164SOL    HW2 7053   0.069   2.485   8.875
 2165SOL     OW 7054   0.561   2.089   8.613
 2165SOL    HW1 7055   0.603   2.010   8.647
 2165SOL    HW2 7056   0.469   2.082   8.640
 2166SOL     OW 7057   0.869   2.321   8.088
 2166SOL    HW1 7058   0.822   2.375   8.024
 2166SOL    HW2 7059   0.889   2.241   8.041
 2167SOL     OW 7060   1.015   1.915   8.201
 2167SOL    HW1 7061   0.956   1.907   8.125
 2167SOL    HW2 7062   0.994   1.839   8.255
 2168SOL     OW 7063   1.436   3.025   8.305
 2168SOL    HW1 7064   1.368   2.958   8.305
 2168SOL    HW2 7065   1.459   3.037   8.213
 2169SOL     OW 7066   1.466   2.466   8.428
 2169SOL    HW1 7067   1.417   2.384   8.430
 2169SOL    HW2 7068   1.526   2.461   8.502
 2170SOL     OW 7069   1.848   2.679   7.831
 2170SOL    HW1 7070   1.903   2.626   7.889
 2170SOL    HW2 7071   1.819   2.618   7.763
 2171SOL     OW 7072   0.492   3.278   7.609
 2171SOL    HW1 7073   0.415   3.248   7.658
 2171SOL    HW2 7074   0.473   3.254   7.518
 2172SOL     OW 7075   1.669   3.127   8.094
 2172SOL    HW1 7076   1.764   3.132   8.108
 2172SOL    HW2 7077   1.637   3.215   8.116
 2173SOL     OW 7078   1.394   2.434   7.519
 2173SOL    HW1 7079   1.334   2.414   7.591
 2173SOL    HW2 7080   1.479   2.402   7.549
 2174SOL     OW 7081   0.524   2.122   7.767
 2174SOL    HW1 7082   0.569   2.075   7.696
 2174SOL    HW2 7083   0.506   2.209   7.730
 2175SOL     OW 7084   1.753   3.100   9.022
 2175SOL    HW1 7085   1.840   3.060   9.020
 2175SOL    HW2 7086   1.768   3.190   9.052
 2176SOL     OW 7087   1.059   3.216   8.783
 2176SOL    HW1 7088   0.985   3.185   8.833
 2176SOL    HW2 7089   1.135   3.174   8.823
 2177SOL     OW 7090   1.607   3.488   9.101
 2177SOL    HW1 7091   1.603   3.521   9.011
 2177SOL    HW2 7092   1.690   3.440   9.105
 2178SOL     OW 7093   1.128   3.065   8.554
 2178SOL    HW1 7094   1.068   3.102   8.619
 2178SOL    HW2 7095   1.093   3.095   8.470
 2179SOL     OW 7096   1.630   2.961   8.525
 2179SOL    HW1 7097   1.626   3.023   8.598
 2179SOL    HW2 7098   1.550   2.977   8.476
 2180SOL     OW 7099   0.917   1.961   8.845
 2180SOL    HW1 7100   0.940   1.940   8.755
 2180SOL    HW2 7101   0.997   1.999   8.882
 2181SOL     OW 7102   0.984   2.976   9.170
 2181SOL    HW1 7103   0.892   2.992   9.191
 2181SOL    HW2 7104   0.983   2.899   9.114
 2182SOL     OW 7105   0.708   2.923   7.820
 2182SOL    HW1 7106   0.695   2.907   7.914
 2182SOL    HW2 7107   0.784   2.869   7.797
 2183SOL     OW 7108   0.430   2.687   8.688
 2183SOL    HW1 7109   0.499   2.698   8.753
 2183SOL    HW2 7110   0.371   2.622   8.727
 2184SOL     OW 7111   1.266   2.240   8.722
 2184SOL    HW1 7112   1.299   2.317   8.768
 2184SOL    HW2 7113   1.177   2.262   8.698
 2185SOL     OW 7114   0.062   3.438   8.788
 2185SOL    HW1 7115   0.034   3.527   8.767
 2185SOL    HW2 7116   0.157   3.444   8.795
 2186SOL     OW 7117   0.349   2.969   7.941
 2186SOL    HW1 7118   0.357   3.043   7.880
 2186SOL    HW2 7119   0.350   2.892   7.885
 2187SOL     OW 7120   0.561   2.396   8.304
 2187SOL    HW1 7121   0.575   2.456   8.231
 2187SOL    HW2 7122   0.622   2.427   8.372
 2188SOL     OW 7123   1.248   3.210   7.837
 2188SOL    HW1 7124   1.304   3.282   7.868
 2188SOL    HW2 7125   1.161   3.231   7.871
 2189SOL     OW 7126   1.279   3.319   8.594
 2189SOL    HW1 7127   1.334   3.320   8.672
 2189SOL    HW2 7128   1.223   3.241   8.605
 2190SOL     OW 7129   1.581   2.485   7.925
 2190SOL    HW1 7130   1.536   2.541   7.989
 2190SOL    HW2 7131   1.629   2.547   7.869
 2191SOL     OW 7132   0.347   3.393   8.764
 2191SOL    HW1 7133   0.333   3.346   8.682
 2191SOL    HW2 7134   0.442   3.403   8.770
 2192SOL     OW 7135   0.475   2.620   9.111
 2192SOL    HW1 7136   0.505   2.659   9.029
 2192SOL    HW2 7137   0.516   2.533   9.113
 2193SOL     OW 7138   1.599   2.642   9.130
 2193SOL    HW1 7139   1.513   2.682   9.122
 2193SOL    HW2 7140   1.651   2.683   9.060
 2194SOL     OW 7141   0.996   1.983   9.203
 2194SOL    HW1 7142   1.050   2.055   9.173
 2194SOL    HW2 7143   1.044   1.904   9.178
 2195SOL     OW 7144   0.498   1.905   9.194
 2195SOL    HW1 7145   0.457   1.848   9.129
 2195SOL    HW2 7146   0.437   1.979   9.202
 2196SOL     OW 7147   0.589   2.735   8.472
 2196SOL    HW1 7148   0.617   2.827   8.474
 2196SOL    HW2 7149   0.533   2.726   8.548
 2197SOL     OW 7150   1.359   2.721   8.480
 2197SOL    HW1 7151   1.277   2.713   8.432
 2197SOL    HW2 7152   1.398   2.633   8.476
 2198SOL     OW 7153   1.206   2.391   7.716
 2198SOL    HW1 7154   1.214   2.313   7.770
 2198SOL    HW2 7155   1.163   2.455   7.773
 2199SOL     OW 7156   0.302   2.054   8.690
 2199SOL    HW1 7157   0.263   2.088   8.770
 2199SOL    HW2 7158   0.285   1.960   8.693
 2200SOL     OW 7159   0.043   3.175   8.733
 2200SOL    HW1 7160   0.077   3.128   8.809
 2200SOL    HW2 7161   0.047   3.267   8.757
 2201SOL     OW 7162   0.726   2.494   8.508
 2201SOL    HW1 7163   0.799   2.475   8.449
 2201SOL    HW2 7164   0.699   2.582   8.484
 2202SOL     OW 7165   1.733   2.823   9.299
 2202SOL    HW1 7166   1.687   2.762   9.241
 2202SOL    HW2 7167   1.674   2.834   9.373
 2203SOL     OW 7168   0.309   1.932   8.067
 2203SOL    HW1 7169   0.287   2.021   8.095
 2203SOL    HW2 7170   0.306   1.880   8.147
 2204SOL     OW 7171   1.614   2.234   7.816
 2204SOL    HW1 7172   1.643   2.172   7.883
 2204SOL    HW2 7173   1.592   2.314   7.866
 2205SOL     OW 7174   1.027   2.621   8.409
 2205SOL    HW1 7175   1.026   2.639   8.503
 2205SOL    HW2 7176   1.001   2.530   8.402
 2206SOL     OW 7177   0.983   3.429   9.164
 2206SOL    HW1 7178   0.967   3.472   9.080
 2206SOL    HW2 7179   1.025   3.346   9.140
 2207SOL     OW 7180   1.855   3.370   9.054
 2207SOL    HW1 7181   1.873   3.395   8.963
 2207SOL    HW2 7182   1.937   3.389   9.100
 2208SOL     OW 7183   0.347   2.794   9.266
 2208SOL    HW1 7184   0.421   2.822   9.320
 2208SOL    HW2 7185   0.384   2.727   9.208
 2209SOL     OW 7186   1.530   2.135   7.575
 2209SOL    HW1 7187   1.465   2.070   7.602
 2209SOL    HW2 7188   1.563   2.171   7.657
 2210SOL     OW 7189   1.293   2.689   7.480
 2210SOL    HW1 7190   1.335   2.603   7.484
 2210SOL    HW2 7191   1.324   2.727   7.398
 2211SOL     OW 7192   1.065   3.197   8.301
 2211SOL    HW1 7193   1.068   3.124   8.239
 2211SOL    HW2 7194   1.127   3.261   8.266
 2212SOL     OW 7195   0.317   2.674   8.397
 2212SOL    HW1 7196   0.411   2.691   8.393
 2212SOL    HW2 7197   0.311   2.583   8.426
 2213SOL     OW 7198   0.332   2.386   8.439
 2213SOL    HW1 7199   0.294   2.300   8.424
 2213SOL    HW2 7200   0.410   2.388   8.384
 2214SOL     OW 7201   1.134   2.240   9.129
 2214SOL    HW1 7202   1.088   2.294   9.192
 2214SOL    HW2 7203   1.222   2.276   9.125
 2215SOL     OW 7204   1.159   2.066   8.918
 2215SOL    HW1 7205   1.150   2.129   8.989
 2215SOL    HW2 7206   1.200   2.116   8.847
 2216SOL     OW 7207   4.492   3.185   7.651
 2216SOL    HW1 7208   4.399   3.200   7.634
 2216SOL    HW2 7209   4.497   3.092   7.674
 2217SOL     OW 7210   0.096   3.641   8.388
 2217SOL    HW1 7211   0.058   3.584   8.321
 2217SOL    HW2 7212   0.184   3.661   8.355
 2218SOL     OW 7213   0.497   3.435   8.354
 2218SOL    HW1 7214   0.566   3.498   8.379
 2218SOL    HW2 7215   0.542   3.372   8.299
 2219SOL     OW 7216   0.986   2.656   8.675
 2219SOL    HW1 7217   1.040   2.631   8.750
 2219SOL    HW2 7218   0.899   2.619   8.695
 2220SOL     OW 7219   0.035   2.424   8.553
 2220SOL    HW1 7220   0.119   2.390   8.521
 2220SOL    HW2 7221   0.023   2.383   8.638
 2221SOL     OW 7222   0.179   2.379   9.162
 2221SOL    HW1 7223   0.259   2.350   9.118
 2221SOL    HW2 7224   0.155   2.461   9.118
 2222SOL     OW 7225   1.375   2.803   9.107
 2222SOL    HW1 7226   1.397   2.896   9.106
 2222SOL    HW2 7227   1.374   2.777   9.015
 2223SOL     OW 7228   0.816   2.431   7.806
 2223SOL    HW1 7229   0.819   2.356   7.746
 2223SOL    HW2 7230   0.742   2.483   7.775
 2224SOL     OW 7231   1.642   2.465   8.637
 2224SOL    HW1 7232   1.633   2.402   8.708
 2224SOL    HW2 7233   1.730   2.449   8.602
 2225SOL     OW 7234   0.273   3.423   9.189
 2225SOL    HW1 7235   0.217   3.476   9.246
 2225SOL    HW2 7236   0.252   3.333   9.212
 2226SOL     OW 7237   0.689   2.317   8.711
 2226SOL    HW1 7238   0.645   2.239   8.677
 2226SOL    HW2 7239   0.691   2.378   8.637
 2227SOL     OW 7240   0.930   3.541   8.914
 2227SOL    HW1 7241   0.903   3.508   8.829
 2227SOL    HW2 7242   0.925   3.636   8.906
 2228SOL     OW 7243   0.472   2.352   7.635
 2228SOL    HW1 7244   0.531   2.424   7.657
 2228SOL    HW2 7245   0.388   2.395   7.619
 2229SOL     OW 7246   0.162   3.003   8.910
 2229SOL    HW1 7247   0.146   2.957   8.992
 2229SOL    HW2 7248   0.170   2.933   8.845
 2230SOL     OW 7249   1.328   2.910   8.672
 2230SOL    HW1 7250   1.351   2.847   8.604
 2230SOL    HW2 7251   1.256   2.961   8.633
 2231SOL     OW 7252   1.310   2.719   7.755
 2231SOL    HW1 7253   1.234   2.688   7.804
 2231SOL    HW2 7254   1.286   2.705   7.663
 2232SOL     OW 7255   1.770   3.608   8.597
 2232SOL    HW1 7256   1.830   3.633   8.527
 2232SOL    HW2 7257   1.746   3.517   8.576
 2233SOL     OW 7258   1.242   3.595   8.563
 2233SOL    HW1 7259   1.323   3.614   8.517
 2233SOL    HW2 7260   1.245   3.501   8.581
 2234SOL     OW 7261   0.067   3.048   8.497
 2234SOL    HW1 7262   0.069   3.081   8.587
 2234SOL    HW2 7263   0.018   3.114   8.448
 2235SOL     OW 7264   0.679   3.527   9.176
 2235SOL    HW1 7265   0.624   3.605   9.171
 2235SOL    HW2 7266   0.741   3.537   9.104
 2236SOL     OW 7267   1.717   2.005   7.958
 2236SOL    HW1 7268   1.791   1.991   7.900
 2236SOL    HW2 7269   1.702   1.920   7.999
 2237SOL     OW 7270   1.390   3.430   7.932
 2237SOL    HW1 7271   1.451   3.461   7.865
 2237SOL    HW2 7272   1.342   3.507   7.960
 2238SOL     OW 7273   0.120   3.669   9.295
 2238SOL    HW1 7274   0.080   3.596   9.343
 2238SOL    HW2 7275   0.183   3.706   9.357
 2239SOL     OW 7276   1.277   2.787   8.119
 2239SOL    HW1 7277   1.350   2.726   8.125
 2239SOL    HW2 7278   1.311   2.860   8.067
 2240SOL     OW 7279   0.816   3.135   8.878
 2240SOL    HW1 7280   0.789   3.174   8.962
 2240SOL    HW2 7281   0.745   3.156   8.818
 2241SOL     OW 7282   0.673   3.480   7.603
 2241SOL    HW1 7283   0.682   3.491   7.509
 2241SOL    HW2 7284   0.618   3.402   7.613
 2242SOL     OW 7285   1.630   3.589   8.840
 2242SOL    HW1 7286   1.678   3.596   8.757
 2242SOL    HW2 7287   1.616   3.679   8.868
 2243SOL     OW 7288   1.847   2.044   8.414
 2243SOL    HW1 7289   1.880   1.958   8.389
 2243SOL    HW2 7290   1.761   2.050   8.373
 2244SOL     OW 7291   0.266   2.182   8.167
 2244SOL    HW1 7292   0.183   2.221   8.139
 2244SOL    HW2 7293   0.255   2.169   8.261
 2245SOL     OW 7294   1.207   3.469   7.479
 2245SOL    HW1 7295   1.198   3.378   7.507
 2245SOL    HW2 7296   1.141   3.480   7.410
 2246SOL     OW 7297   0.825   2.869   8.820
 2246SOL    HW1 7298   0.868   2.865   8.734
 2246SOL    HW2 7299   0.825   2.961   8.843
 2247SOL     OW 7300   0.915   2.773   7.737
 2247SOL    HW1 7301   0.977   2.804   7.671
 2247SOL    HW2 7302   0.963   2.702   7.782
 2248SOL     OW 7303   1.493   3.487   7.490
 2248SOL    HW1 7304   1.398   3.481   7.478
 2248SOL    HW2 7305   1.529   3.493   7.402
 2249SOL     OW 7306   0.373   3.168   8.939
 2249SOL    HW1 7307   0.356   3.247   8.887
 2249SOL    HW2 7308   0.298   3.112   8.922
 2250SOL     OW 7309   1.613   3.146   8.729
 2250SOL    HW1 7310   1.670   3.135   8.805
 2250SOL    HW2 7311   1.551   3.214   8.754
 2251SOL     OW 7312   1.050   2.968   8.154
 2251SOL    HW1 7313   0.980   2.917   8.193
 2251SOL    HW2 7314   1.112   2.903   8.121
 2252SOL     OW 7315   1.020   2.102   8.414
 2252SOL    HW1 7316   1.015   2.054   8.331
 2252SOL    HW2 7317   1.016   2.034   8.482
 2253SOL     OW 7318   0.604   3.352   7.931
 2253SOL    HW1 7319   0.644   3.301   7.860
 2253SOL    HW2 7320   0.530   3.397   7.890
 2254SOL     OW 7321   1.717   2.258   8.825
 2254SOL    HW1 7322   1.795   2.315   8.830
 2254SOL    HW2 7323   1.746   2.183   8.774
 2255SOL     OW 7324   0.252   3.206   7.725
 2255SOL    HW1 7325   0.157   3.206   7.711
 2255SOL    HW2 7326   0.262   3.239   7.815
 2256SOL     OW 7327   0.117   2.870   9.143
 2256SOL    HW1 7328   0.052   2.910   9.201
 2256SOL    HW2 7329   0.195   2.858   9.197
 2257SOL     OW 7330   0.673   2.061   8.947
 2257SOL    HW1 7331   0.757   2.039   8.905
 2257SOL    HW2 7332   0.697   2.088   9.035
 2258SOL     OW 7333   0.072   2.188   7.481
 2258SOL    HW1 7334   4.477   2.198   7.483
 2258SOL    HW2 7335   0.104   2.269   7.442
 2259SOL     OW 7336   1.431   2.721   8.850
 2259SOL    HW1 7337   1.383   2.781   8.793
 2259SOL    HW2 7338   1.521   2.723   8.815
 2260SOL     OW 7339   0.085   2.039   7.753
 2260SOL    HW1 7340   0.079   2.111   7.690
 2260SOL    HW2 7341   0.161   1.988   7.725
 2261SOL     OW 7342   1.179   3.203   7.565
 2261SOL    HW1 7343   1.088   3.172   7.567
 2261SOL    HW2 7344   1.207   3.202   7.656
 2262SOL     OW 7345   0.622   2.693   8.878
 2262SOL    HW1 7346   0.678   2.770   8.865
 2262SOL    HW2 7347   0.684   2.620   8.886
 2263SOL     OW 7348   1.484   3.637   8.425
 2263SOL    HW1 7349   1.509   3.696   8.353
 2263SOL    HW2 7350   1.566   3.620   8.471
 2264SOL     OW 7351   0.715   2.425   9.152
 2264SOL    HW1 7352   0.753   2.489   9.212
 2264SOL    HW2 7353   0.749   2.341   9.183
 2265SOL     OW 7354   1.470   3.064   9.081
 2265SOL    HW1 7355   1.458   3.077   9.175
 2265SOL    HW2 7356   1.564   3.077   9.067
 2266SOL     OW 7357   0.381   3.605   9.012
 2266SOL    HW1 7358   0.296   3.645   8.996
 2266SOL    HW2 7359   0.361   3.524   9.060
 2267SOL     OW 7360   1.672   2.744   8.703
 2267SOL    HW1 7361   1.662   2.658   8.662
 2267SOL    HW2 7362   1.661   2.807   8.632
 2268SOL     OW 7363   1.218   2.181   7.905
 2268SOL    HW1 7364   1.281   2.110   7.897
 2268SOL    HW2 7365   1.246   2.230   7.983
 2269SOL     OW 7366   0.591   2.601   8.116
 2269SOL    HW1 7367   0.629   2.687   8.100
 2269SOL    HW2 7368   0.521   2.593   8.051
 2270SOL     OW 7369   1.748   2.238   9.106
 2270SOL    HW1 7370   1.757   2.234   9.011
 2270SOL    HW2 7371   1.681   2.173   9.127
 2271SOL     OW 7372   1.745   2.795   8.960
 2271SOL    HW1 7373   1.743   2.890   8.973
 2271SOL    HW2 7374   1.729   2.784   8.866
 2272SOL     OW 7375   0.863   3.230   7.480
 2272SOL    HW1 7376   0.824   3.256   7.563
 2272SOL    HW2 7377   0.881   3.312   7.435
 2273SOL     OW 7378   0.660   3.655   8.395
 2273SOL    HW1 7379   0.639   3.745   8.370
 2273SOL    HW2 7380   0.755   3.649   8.386
 2274SOL     OW 7381   0.867   2.828   8.303
 2274SOL    HW1 7382   0.917   2.757   8.343
 2274SOL    HW2 7383   0.833   2.878   8.378
 2275SOL     OW 7384   1.080   2.851   7.537
 2275SOL    HW1 7385   1.058   2.900   7.458
 2275SOL    HW2 7386   1.155   2.797   7.511
 2276SOL     OW 7387   1.855   3.417   8.293
 2276SOL    HW1 7388   1.778   3.406   8.238
 2276SOL    HW2 7389   1.846   3.350   8.361
 2277SOL     OW 7390   0.229   3.168   9.305
 2277SOL    HW1 7391   0.158   3.109   9.282
 2277SOL    HW2 7392   0.222   3.178   9.400
 2278SOL     OW 7393   0.104   3.099   8.116
 2278SOL    HW1 7394   0.113   3.050   8.198
 2278SOL    HW2 7395   0.164   3.055   8.055
 2279SOL     OW 7396   0.681   3.264   9.075
 2279SOL    HW1 7397   0.601   3.220   9.103
 2279SOL    HW2 7398   0.675   3.352   9.113
 2280SOL     OW 7399   1.804   2.054   8.679
 2280SOL    HW1 7400   1.842   1.972   8.710
 2280SOL    HW2 7401   1.820   2.054   8.585
 2281SOL     OW 7402   0.435   2.295   7.973
 2281SOL    HW1 7403   0.459   2.222   7.917
 2281SOL    HW2 7404   0.384   2.256   8.044
 2282SOL     OW 7405   1.701   3.352   8.546
 2282SOL    HW1 7406   1.620   3.328   8.501
 2282SOL    HW2 7407   1.713   3.283   8.612
 2283SOL     OW 7408   0.302   2.350   8.703
 2283SOL    HW1 7409   0.377   2.309   8.748
 2283SOL    HW2 7410   0.334   2.365   8.614
 2284SOL     OW 7411   0.826   3.440   8.126
 2284SOL    HW1 7412   0.816   3.489   8.045
 2284SOL    HW2 7413   0.749   3.384   8.131
 2285SOL     OW 7414   1.432   2.086   8.565
 2285SOL    HW1 7415   1.466   2.011   8.613
 2285SOL    HW2 7416   1.380   2.134   8.630
 2286SOL     OW 7417   1.008   1.881   8.592
 2286SOL    HW1 7418   0.954   1.813   8.552
 2286SOL    HW2 7419   1.096   1.844   8.594
 2287SOL     OW 7420   0.772   3.194   7.760
 2287SOL    HW1 7421   0.739   3.104   7.766
 2287SOL    HW2 7422   0.854   3.194   7.809
 2288SOL     OW 7423   0.621   3.419   8.733
 2288SOL    HW1 7424   0.623   3.500   8.783
 2288SOL    HW2 7425   0.708   3.412   8.694
 2289SOL     OW 7426   1.352   1.916   7.612
 2289SOL    HW1 7427   1.379   1.854   7.544
 2289SOL    HW2 7428   1.265   1.885   7.640
 2290SOL     OW 7429   1.297   2.322   8.130
 2290SOL    HW1 7430   1.243   2.401   8.138
 2290SOL    HW2 7431   1.293   2.282   8.217
 2291SOL     OW 7432   1.589   2.064   8.326
 2291SOL    HW1 7433   1.527   2.083   8.396
 2291SOL    HW2 7434   1.588   2.142   8.271
 2292SOL     OW 7435   0.041   2.915   7.736
 2292SOL    HW1 7436   0.136   2.900   7.726
 2292SOL    HW2 7437   0.020   2.878   7.821
 2293SOL     OW 7438   0.883   3.513   7.791
 2293SOL    HW1 7439   0.811   3.495   7.731
 2293SOL    HW2 7440   0.853   3.589   7.842
 2294SOL     OW 7441   0.248   2.490   9.429
 2294SOL    HW1 7442   0.173   2.472   9.486
 2294SOL    HW2 7443   0.216   2.471   9.341
 2295SOL     OW 7444   0.214   2.137  10.301
 2295SOL    HW1 7445   0.250   2.111  10.386
 2295SOL    HW2 7446   0.137   2.082  10.290
 2296SOL     OW 7447   0.009   2.251   9.949
 2296SOL    HW1 7448   4.428   2.282   9.991
 2296SOL    HW2 7449   4.483   2.171   9.904
 2297SOL     OW 7450   0.567   3.147  10.485
 2297SOL    HW1 7451   0.480   3.151  10.445
 2297SOL    HW2 7452   0.582   3.235  10.519
 2298SOL     OW 7453   1.559   3.374  10.016
 2298SOL    HW1 7454   1.516   3.355  10.099
 2298SOL    HW2 7455   1.488   3.378   9.953
 2299SOL     OW 7456   1.130   2.561  10.012
 2299SOL    HW1 7457   1.179   2.641   9.998
 2299SOL    HW2 7458   1.083   2.575  10.095
 2300SOL     OW 7459   1.768   2.468   9.539
 2300SOL    HW1 7460   1.746   2.461   9.446
 2300SOL    HW2 7461   1.732   2.388   9.579
 2301SOL     OW 7462   0.758   3.006  10.350
 2301SOL    HW1 7463   0.688   3.040  10.406
 2301SOL    HW2 7464   0.792   3.083  10.304
 2302SOL     OW 7465   0.850   2.644   0.020
 2302SOL    HW1 7466   0.860   2.699   0.098
 2302SOL    HW2 7467   0.885   2.696  11.048
 2303SOL     OW 7468   0.686   2.867   9.958
 2303SOL    HW1 7469   0.750   2.854  10.027
 2303SOL    HW2 7470   0.616   2.917  10.000
 2304SOL     OW 7471   0.337   3.283  10.379
 2304SOL    HW1 7472   0.254   3.265  10.333
 2304SOL    HW2 7473   0.386   3.338  10.318
 2305SOL     OW 7474   1.464   3.361  10.658
 2305SOL    HW1 7475   1.517   3.440  10.668
 2305SOL    HW2 7476   1.412   3.357  10.739
 2306SOL     OW 7477   0.448   2.264  10.790
 2306SOL    HW1 7478   0.525   2.209  10.801
 2306SOL    HW2 7479   0.375   2.207  10.813
 2307SOL     OW 7480   1.611   2.310  10.052
 2307SOL    HW1 7481   1.536   2.334   9.997
 2307SOL    HW2 7482   1.632   2.389  10.100
 2308SOL     OW 7483   0.246   3.553   9.788
 2308SOL    HW1 7484   0.231   3.638   9.830
 2308SOL    HW2 7485   0.311   3.571   9.720
 2309SOL     OW 7486   0.247   3.289   9.838
 2309SOL    HW1 7487   0.239   3.384   9.841
 2309SOL    HW2 7488   0.183   3.257   9.901
 2310SOL     OW 7489   0.247   2.944  10.194
 2310SOL    HW1 7490   0.263   2.854  10.224
 2310SOL    HW2 7491   0.188   2.981  10.259
 2311SOL     OW 7492   0.613   3.652  10.740
 2311SOL    HW1 7493   0.532   3.632  10.787
 2311SOL    HW2 7494   0.635   3.742  10.764
 2312SOL     OW 7495   0.582   2.847   9.446
 2312SOL    HW1 7496   0.628   2.892   9.376
 2312SOL    HW2 7497   0.626   2.875   9.526
 2313SOL     OW 7498   1.587   1.979  10.780
 2313SOL    HW1 7499   1.601   2.058  10.727
 2313SOL    HW2 7500   1.598   2.008  10.870
 2314SOL     OW 7501   0.136   2.507   9.884
 2314SOL    HW1 7502   0.087   2.426   9.900
 2314SOL    HW2 7503   0.106   2.567   9.952
 2315SOL     OW 7504   1.842   3.622   9.645
 2315SOL    HW1 7505   1.903   3.593   9.713
 2315SOL    HW2 7506   1.867   3.712   9.627
 2316SOL     OW 7507   0.033   3.463   9.448
 2316SOL    HW1 7508   0.021   3.368   9.448
 2316SOL    HW2 7509   0.016   3.489   9.539
 2317SOL     OW 7510   1.691   2.781   9.950
 2317SOL    HW1 7511   1.773   2.737   9.928
 2317SOL    HW2 7512   1.668   2.831   9.871
 2318SOL     OW 7513   1.645   2.969   9.739
 2318SOL    HW1 7514   1.730   2.976   9.697
 2318SOL    HW2 7515   1.650   3.030   9.813
 2319SOL     OW 7516   0.102   2.620  10.911
 2319SOL    HW1 7517   0.194   2.606  10.887
 2319SOL    HW2 7518   0.089   2.714  10.904
 2320SOL     OW 7519   0.613   3.246  10.046
 2320SOL    HW1 7520   0.566   3.163  10.055
 2320SOL    HW2 7521   0.597   3.273   9.956
 2321SOL     OW 7522   1.296   3.099  10.751
 2321SOL    HW1 7523   1.320   3.039  10.681
 2321SOL    HW2 7524   1.351   3.075  10.825
 2322SOL     OW 7525   0.814   1.861   9.817
 2322SOL    HW1 7526   0.854   1.946   9.800
 2322SOL    HW2 7527   0.721   1.880   9.827
 2323SOL     OW 7528   0.180   2.803  10.589
 2323SOL    HW1 7529   0.272   2.786  10.568
 2323SOL    HW2 7530   0.133   2.783  10.509
 2324SOL     OW 7531   1.532   2.854   9.507
 2324SOL    HW1 7532   1.462   2.797   9.537
 2324SOL    HW2 7533   1.571   2.888   9.588
 2325SOL     OW 7534   1.196   3.668  10.927
 2325SOL    HW1 7535   1.196   3.730  10.854
 2325SOL    HW2 7536   1.204   3.582  10.885
 2326SOL     OW 7537   0.339   2.126   0.004
 2326SOL    HW1 7538   0.387   2.199   0.043
 2326SOL    HW2 7539   0.247   2.146   0.020
 2327SOL     OW 7540   1.467   3.281  10.262
 2327SOL    HW1 7541   1.398   3.297  10.327
 2327SOL    HW2 7542   1.454   3.190  10.235
 2328SOL     OW 7543   1.661   3.598   9.888
 2328SOL    HW1 7544   1.638   3.569   9.799
 2328SOL    HW2 7545   1.634   3.525   9.944
 2329SOL     OW 7546   0.598   2.583   9.575
 2329SOL    HW1 7547   0.601   2.664   9.524
 2329SOL    HW2 7548   0.532   2.601   9.643
 2330SOL     OW 7549   1.279   2.213  10.243
 2330SOL    HW1 7550   1.190   2.179  10.250
 2330SOL    HW2 7551   1.330   2.160  10.304
 2331SOL     OW 7552   1.581   3.531   9.619
 2331SOL    HW1 7553   1.671   3.564   9.612
 2331SOL    HW2 7554   1.555   3.514   9.528
 2332SOL     OW 7555   0.794   2.477  10.763
 2332SOL    HW1 7556   0.767   2.454  10.851
 2332SOL    HW2 7557   0.752   2.413  10.706
 2333SOL     OW 7558   0.966   2.760  10.900
 2333SOL    HW1 7559   1.014   2.688  10.861
 2333SOL    HW2 7560   0.916   2.798  10.828
 2334SOL     OW 7561   0.992   2.275  10.550
 2334SOL    HW1 7562   0.907   2.298  10.588
 2334SOL    HW2 7563   0.971   2.228  10.469
 2335SOL     OW 7564   1.050   2.561   9.737
 2335SOL    HW1 7565   1.065   2.553   9.831
 2335SOL    HW2 7566   0.968   2.513   9.722
 2336SOL     OW 7567   0.097   2.688  10.094
 2336SOL    HW1 7568   0.184   2.669  10.130
 2336SOL    HW2 7569   0.047   2.724  10.167
 2337SOL     OW 7570   0.119   3.711  10.899
 2337SOL    HW1 7571   0.115   3.652  10.974
 2337SOL    HW2 7572   0.051   3.681  10.839
 2338SOL     OW 7573   0.890   2.209   9.504
 2338SOL    HW1 7574   0.932   2.270   9.444
 2338SOL    HW2 7575   0.907   2.123   9.466
 2339SOL     OW 7576   1.376   3.004   9.852
 2339SOL    HW1 7577   1.454   2.990   9.799
 2339SOL    HW2 7578   1.323   3.066   9.801
 2340SOL     OW 7579   0.551   2.045  10.203
 2340SOL    HW1 7580   0.553   2.074  10.294
 2340SOL    HW2 7581   0.552   2.126  10.152
 2341SOL     OW 7582   1.007   3.307   9.783
 2341SOL    HW1 7583   0.968   3.379   9.734
 2341SOL    HW2 7584   0.990   3.329   9.875
 2342SOL     OW 7585   0.355   3.671  10.167
 2342SOL    HW1 7586   0.397   3.586  10.178
 2342SOL    HW2 7587   0.425   3.735  10.182
 2343SOL     OW 7588   1.799   2.920  10.177
 2343SOL    HW1 7589   1.744   2.901  10.101
 2343SOL    HW2 7590   1.738   2.926  10.250
 2344SOL     OW 7591   1.227   3.401  10.824
 2344SOL    HW1 7592   1.235   3.314  10.863
 2344SOL    HW2 7593   1.166   3.390  10.751
 2345SOL     OW 7594   0.316   2.816   9.561
 2345SOL    HW1 7595   0.401   2.839   9.522
 2345SOL    HW2 7596   0.300   2.726   9.533
 2346SOL     OW 7597   1.477   2.603  10.038
 2346SOL    HW1 7598   1.466   2.558  10.121
 2346SOL    HW2 7599   1.555   2.658  10.049
 2347SOL     OW 7600   0.455   3.130  11.052
 2347SOL    HW1 7601   0.426   3.141  10.961
 2347SOL    HW2 7602   0.387   3.076  11.092
 2348SOL     OW 7603   1.121   3.640   9.541
 2348SOL    HW1 7604   1.049   3.597   9.588
 2348SOL    HW2 7605   1.143   3.579   9.471
 2349SOL     OW 7606   0.193   2.139  10.797
 2349SOL    HW1 7607   0.137   2.216  10.804
 2349SOL    HW2 7608   0.189   2.098  10.883
 2350SOL     OW 7609   1.629   3.242   9.397
 2350SOL    HW1 7610   1.587   3.327   9.382
 2350SOL    HW2 7611   1.560   3.178   9.379
 2351SOL     OW 7612   0.469   3.606   9.624
 2351SOL    HW1 7613   0.510   3.659   9.692
 2351SOL    HW2 7614   0.543   3.572   9.573
 2352SOL     OW 7615   1.401   1.970   9.741
 2352SOL    HW1 7616   1.390   1.945   9.650
 2352SOL    HW2 7617   1.495   1.977   9.753
 2353SOL     OW 7618   0.256   3.654  10.545
 2353SOL    HW1 7619   0.305   3.582  10.585
 2353SOL    HW2 7620   0.229   3.620  10.460
 2354SOL     OW 7621   0.938   3.560  10.210
 2354SOL    HW1 7622   1.016   3.508  10.230
 2354SOL    HW2 7623   0.893   3.511  10.141
 2355SOL     OW 7624   0.394   2.557   9.784
 2355SOL    HW1 7625   0.418   2.465   9.794
 2355SOL    HW2 7626   0.301   2.561   9.809
 2356SOL     OW 7627   0.632   1.988   9.414
 2356SOL    HW1 7628   0.703   1.925   9.429
 2356SOL    HW2 7629   0.585   1.953   9.338
 2357SOL     OW 7630   0.770   2.134  11.046
 2357SOL    HW1 7631   0.834   2.077  11.087
 2357SOL    HW2 7632   0.709   2.157   0.016
 2358SOL     OW 7633   0.876   3.383  10.503
 2358SOL    HW1 7634   0.861   3.348  10.416
 2358SOL    HW2 7635   0.948   3.331  10.538
 2359SOL     OW 7636   1.343   2.451  10.753
 2359SOL    HW1 7637   1.394   2.430  10.831
 2359SOL    HW2 7638   1.371   2.540  10.730
 2360SOL     OW 7639   0.814   3.259  10.248
 2360SOL    HW1 7640   0.898   3.247  10.203
 2360SOL    HW2 7641   0.749   3.258  10.178
 2361SOL     OW 7642   0.927   2.371  10.214
 2361SOL    HW1 7643   0.904   2.363  10.121
 2361SOL    HW2 7644   0.959   2.284  10.238
 2362SOL     OW 7645   0.551   1.924   9.813
 2362SOL    HW1 7646   0.470   1.922   9.864
 2362SOL    HW2 7647   0.544   2.002   9.759
 2363SOL     OW 7648   1.429   3.060   9.351
 2363SOL    HW1 7649   1.459   2.984   9.401
 2363SOL    HW2 7650   1.342   3.080   9.388
 2364SOL     OW 7651   0.295   1.908   9.488
 2364SOL    HW1 7652   0.357   1.975   9.461
 2364SOL    HW2 7653   0.348   1.842   9.532
 2365SOL     OW 7654   0.937   2.107   9.772
 2365SOL    HW1 7655   0.909   2.149   9.691
 2365SOL    HW2 7656   1.032   2.120   9.775
 2366SOL     OW 7657   1.079   2.546  10.771
 2366SOL    HW1 7658   1.008   2.482  10.776
 2366SOL    HW2 7659   1.159   2.494  10.768
 2367SOL     OW 7660   1.224   3.432  10.104
 2367SOL    HW1 7661   1.241   3.499  10.038
 2367SOL    HW2 7662   1.292   3.445  10.170
 2368SOL     OW 7663   0.466   3.010  10.047
 2368SOL    HW1 7664   0.394   2.992  10.108
 2368SOL    HW2 7665   0.428   2.995   9.960
 2369SOL     OW 7666   1.270   3.656   9.917
 2369SOL    HW1 7667   1.315   3.717   9.859
 2369SOL    HW2 7668   1.204   3.710   9.962
 2370SOL     OW 7669   1.024   2.406   9.331
 2370SOL    HW1 7670   0.982   2.489   9.311
 2370SOL    HW2 7671   1.089   2.427   9.398
 2371SOL     OW 7672   0.074   2.392  10.715
 2371SOL    HW1 7673   0.147   2.393  10.653
 2371SOL    HW2 7674   0.070   2.482  10.747
 2372SOL     OW 7675   0.561   2.089  10.475
 2372SOL    HW1 7676   0.601   2.010  10.510
 2372SOL    HW2 7677   0.469   2.084  10.503
 2373SOL     OW 7678   0.869   2.322   9.950
 2373SOL    HW1 7679   0.822   2.375   9.886
 2373SOL    HW2 7680   0.889   2.241   9.903
 2374SOL     OW 7681   1.014   1.915  10.063
 2374SOL    HW1 7682   0.956   1.908   9.987
 2374SOL    HW2 7683   0.993   1.839  10.117
 2375SOL     OW 7684   1.436   3.025  10.167
 2375SOL    HW1 7685   1.368   2.957  10.166
 2375SOL    HW2 7686   1.459   3.037  10.075
 2376SOL     OW 7687   1.465   2.467  10.289
 2376SOL    HW1 7688   1.418   2.384  10.291
 2376SOL    HW2 7689   1.526   2.461  10.363
 2377SOL     OW 7690   1.848   2.679   9.692
 2377SOL    HW1 7691   1.902   2.626   9.751
 2377SOL    HW2 7692   1.819   2.618   9.625
 2378SOL     OW 7693   0.492   3.278   9.471
 2378SOL    HW1 7694   0.415   3.248   9.520
 2378SOL    HW2 7695   0.473   3.254   9.380
 2379SOL     OW 7696   1.669   3.127   9.957
 2379SOL    HW1 7697   1.764   3.132   9.970
 2379SOL    HW2 7698   1.637   3.215   9.978
 2380SOL     OW 7699   1.394   2.434   9.382
 2380SOL    HW1 7700   1.333   2.415   9.453
 2380SOL    HW2 7701   1.478   2.399   9.412
 2381SOL     OW 7702   0.524   2.122   9.629
 2381SOL    HW1 7703   0.569   2.075   9.558
 2381SOL    HW2 7704   0.506   2.209   9.592
 2382SOL     OW 7705   1.759   3.092  10.869
 2382SOL    HW1 7706   1.850   3.061  10.876
 2382SOL    HW2 7707   1.760   3.178  10.910
 2383SOL     OW 7708   1.064   3.216  10.650
 2383SOL    HW1 7709   0.986   3.183  10.694
 2383SOL    HW2 7710   1.137   3.168  10.690
 2384SOL     OW 7711   1.128   3.067  10.416
 2384SOL    HW1 7712   1.063   3.102  10.478
 2384SOL    HW2 7713   1.096   3.095  10.331
 2385SOL     OW 7714   1.631   2.962  10.387
 2385SOL    HW1 7715   1.627   3.023  10.461
 2385SOL    HW2 7716   1.550   2.978  10.339
 2386SOL     OW 7717   0.918   1.961  10.707
 2386SOL    HW1 7718   0.941   1.941  10.616
 2386SOL    HW2 7719   0.996   2.002  10.744
 2387SOL     OW 7720   0.708   2.923   9.682
 2387SOL    HW1 7721   0.695   2.907   9.776
 2387SOL    HW2 7722   0.784   2.869   9.659
 2388SOL     OW 7723   0.429   2.685  10.551
 2388SOL    HW1 7724   0.498   2.695  10.617
 2388SOL    HW2 7725   0.368   2.621  10.589
 2389SOL     OW 7726   1.267   2.241  10.587
 2389SOL    HW1 7727   1.299   2.319  10.632
 2389SOL    HW2 7728   1.178   2.263  10.560
 2390SOL     OW 7729   0.063   3.440  10.655
 2390SOL    HW1 7730   0.037   3.526  10.622
 2390SOL    HW2 7731   0.158   3.442  10.657
 2391SOL     OW 7732   0.349   2.969   9.803
 2391SOL    HW1 7733   0.357   3.043   9.742
 2391SOL    HW2 7734   0.350   2.892   9.747
 2392SOL     OW 7735   0.562   2.396  10.166
 2392SOL    HW1 7736   0.575   2.456  10.093
 2392SOL    HW2 7737   0.621   2.427  10.234
 2393SOL     OW 7738   1.248   3.210   9.699
 2393SOL    HW1 7739   1.304   3.282   9.730
 2393SOL    HW2 7740   1.161   3.231   9.733
 2394SOL     OW 7741   1.278   3.320  10.454
 2394SOL    HW1 7742   1.334   3.323  10.531
 2394SOL    HW2 7743   1.225   3.241  10.466
 2395SOL     OW 7744   1.581   2.486   9.787
 2395SOL    HW1 7745   1.536   2.541   9.851
 2395SOL    HW2 7746   1.628   2.547   9.731
 2396SOL     OW 7747   0.346   3.389  10.625
 2396SOL    HW1 7748   0.333   3.343  10.542
 2396SOL    HW2 7749   0.441   3.402  10.631
 2397SOL     OW 7750   0.481   2.607  10.967
 2397SOL    HW1 7751   0.516   2.645  10.886
 2397SOL    HW2 7752   0.519   2.520  10.970
 2398SOL     OW 7753   1.592   2.623  10.968
 2398SOL    HW1 7754   1.515   2.681  10.963
 2398SOL    HW2 7755   1.662   2.673  10.927
 2399SOL     OW 7756   0.589   2.735  10.335
 2399SOL    HW1 7757   0.616   2.827  10.336
 2399SOL    HW2 7758   0.532   2.725  10.411
 2400SOL     OW 7759   1.359   2.723  10.345
 2400SOL    HW1 7760   1.278   2.715  10.295
 2400SOL    HW2 7761   1.399   2.636  10.340
 2401SOL     OW 7762   1.206   2.391   9.578
 2401SOL    HW1 7763   1.214   2.313   9.632
 2401SOL    HW2 7764   1.163   2.455   9.635
 2402SOL     OW 7765   0.302   2.054  10.551
 2402SOL    HW1 7766   0.265   2.090  10.632
 2402SOL    HW2 7767   0.284   1.960  10.555
 2403SOL     OW 7768   0.044   3.177  10.594
 2403SOL    HW1 7769   0.076   3.128  10.670
 2403SOL    HW2 7770   0.046   3.268  10.622
 2404SOL     OW 7771   0.726   2.494  10.370
 2404SOL    HW1 7772   0.799   2.476  10.311
 2404SOL    HW2 7773   0.698   2.583  10.346
 2405SOL     OW 7774   0.309   1.932   9.929
 2405SOL    HW1 7775   0.287   2.021   9.957
 2405SOL    HW2 7776   0.306   1.880  10.009
 2406SOL     OW 7777   1.614   2.235   9.679
 2406SOL    HW1 7778   1.643   2.172   9.745
 2406SOL    HW2 7779   1.592   2.314   9.728
 2407SOL     OW 7780   1.027   2.621  10.271
 2407SOL    HW1 7781   1.025   2.639  10.365
 2407SOL    HW2 7782   1.001   2.530  10.263
 2408SOL     OW 7783   0.974   3.434  11.004
 2408SOL    HW1 7784   0.960   3.484  10.923
 2408SOL    HW2 7785   1.004   3.348  10.975
 2409SOL     OW 7786   1.857   3.357  10.912
 2409SOL    HW1 7787   1.873   3.392  10.824
 2409SOL    HW2 7788   1.924   3.399  10.966
 2410SOL     OW 7789   0.349   2.795  11.094
 2410SOL    HW1 7790   0.423   2.824   0.048
 2410SOL    HW2 7791   0.383   2.723  11.042
 2411SOL     OW 7792   1.529   2.136   9.438
 2411SOL    HW1 7793   1.465   2.070   9.464
 2411SOL    HW2 7794   1.563   2.171   9.520
 2412SOL     OW 7795   1.293   2.689   9.342
 2412SOL    HW1 7796   1.336   2.603   9.346
 2412SOL    HW2 7797   1.324   2.727   9.260
 2413SOL     OW 7798   1.066   3.197  10.163
 2413SOL    HW1 7799   1.068   3.124  10.101
 2413SOL    HW2 7800   1.128   3.261  10.128
 2414SOL     OW 7801   0.317   2.673  10.259
 2414SOL    HW1 7802   0.411   2.690  10.255
 2414SOL    HW2 7803   0.310   2.582  10.288
 2415SOL     OW 7804   0.332   2.386  10.302
 2415SOL    HW1 7805   0.294   2.300  10.287
 2415SOL    HW2 7806   0.410   2.388  10.246
 2416SOL     OW 7807   1.156   2.071  10.782
 2416SOL    HW1 7808   1.169   2.128  10.858
 2416SOL    HW2 7809   1.196   2.119  10.709
 2417SOL     OW 7810   4.492   3.185   9.513
 2417SOL    HW1 7811   4.399   3.200   9.496
 2417SOL    HW2 7812   4.497   3.092   9.536
 2418SOL     OW 7813   0.096   3.640  10.250
 2418SOL    HW1 7814   0.058   3.584  10.182
 2418SOL    HW2 7815   0.183   3.661  10.217
 2419SOL     OW 7816   0.498   3.435  10.217
 2419SOL    HW1 7817   0.566   3.498  10.240
 2419SOL    HW2 7818   0.542   3.372  10.160
 2420SOL     OW 7819   0.985   2.656  10.537
 2420SOL    HW1 7820   1.039   2.633  10.613
 2420SOL    HW2 7821   0.899   2.619  10.557
 2421SOL     OW 7822   0.034   2.422  10.413
 2421SOL    HW1 7823   0.119   2.390  10.384
 2421SOL    HW2 7824   0.025   2.388  10.502
 2422SOL     OW 7825   0.816   2.431   9.668
 2422SOL    HW1 7826   0.819   2.356   9.608
 2422SOL    HW2 7827   0.742   2.483   9.637
 2423SOL     OW 7828   1.644   2.464  10.496
 2423SOL    HW1 7829   1.637   2.404  10.570
 2423SOL    HW2 7830   1.732   2.449  10.461
 2424SOL     OW 7831   0.264   3.435  11.056
 2424SOL    HW1 7832   0.211   3.462   0.031
 2424SOL    HW2 7833   0.244   3.341  11.046
 2425SOL     OW 7834   0.695   2.316  10.572
 2425SOL    HW1 7835   0.646   2.240  10.540
 2425SOL    HW2 7836   0.693   2.377  10.499
 2426SOL     OW 7837   0.940   3.544  10.759
 2426SOL    HW1 7838   0.902   3.512  10.677
 2426SOL    HW2 7839   0.926   3.639  10.756
 2427SOL     OW 7840   0.472   2.352   9.497
 2427SOL    HW1 7841   0.531   2.424   9.519
 2427SOL    HW2 7842   0.388   2.395   9.481
 2428SOL     OW 7843   0.163   3.004  10.770
 2428SOL    HW1 7844   0.139   2.962  10.853
 2428SOL    HW2 7845   0.169   2.932  10.707
 2429SOL     OW 7846   1.326   2.915  10.538
 2429SOL    HW1 7847   1.352   2.850  10.473
 2429SOL    HW2 7848   1.255   2.963  10.496
 2430SOL     OW 7849   1.310   2.719   9.617
 2430SOL    HW1 7850   1.234   2.688   9.666
 2430SOL    HW2 7851   1.286   2.705   9.525
 2431SOL     OW 7852   1.771   3.608  10.460
 2431SOL    HW1 7853   1.830   3.633  10.390
 2431SOL    HW2 7854   1.747   3.518  10.440
 2432SOL     OW 7855   1.241   3.596  10.425
 2432SOL    HW1 7856   1.323   3.616  10.379
 2432SOL    HW2 7857   1.245   3.502  10.442
 2433SOL     OW 7858   0.067   3.048  10.359
 2433SOL    HW1 7859   0.070   3.082  10.449
 2433SOL    HW2 7860   0.017   3.114  10.310
 2434SOL     OW 7861   1.719   2.006   9.822
 2434SOL    HW1 7862   1.791   1.991   9.760
 2434SOL    HW2 7863   1.703   1.920   9.861
 2435SOL     OW 7864   1.390   3.430   9.794
 2435SOL    HW1 7865   1.451   3.461   9.727
 2435SOL    HW2 7866   1.342   3.508   9.822
 2436SOL     OW 7867   1.277   2.787   9.981
 2436SOL    HW1 7868   1.351   2.726   9.987
 2436SOL    HW2 7869   1.311   2.860   9.929
 2437SOL     OW 7870   0.820   3.135  10.738
 2437SOL    HW1 7871   0.789   3.169  10.823
 2437SOL    HW2 7872   0.749   3.157  10.677
 2438SOL     OW 7873   0.673   3.480   9.465
 2438SOL    HW1 7874   0.682   3.491   9.371
 2438SOL    HW2 7875   0.618   3.402   9.475
 2439SOL     OW 7876   1.624   3.582  10.698
 2439SOL    HW1 7877   1.678   3.596  10.620
 2439SOL    HW2 7878   1.610   3.669  10.733
 2440SOL     OW 7879   1.843   2.044  10.279
 2440SOL    HW1 7880   1.878   1.959  10.253
 2440SOL    HW2 7881   1.757   2.049  10.237
 2441SOL     OW 7882   0.266   2.182  10.029
 2441SOL    HW1 7883   0.183   2.221  10.001
 2441SOL    HW2 7884   0.255   2.169  10.123
 2442SOL     OW 7885   1.207   3.469   9.341
 2442SOL    HW1 7886   1.198   3.378   9.369
 2442SOL    HW2 7887   1.141   3.480   9.272
 2443SOL     OW 7888   0.826   2.868  10.685
 2443SOL    HW1 7889   0.868   2.862  10.599
 2443SOL    HW2 7890   0.826   2.961  10.706
 2444SOL     OW 7891   0.916   2.773   9.600
 2444SOL    HW1 7892   0.977   2.804   9.533
 2444SOL    HW2 7893   0.963   2.702   9.644
 2445SOL     OW 7894   1.493   3.487   9.352
 2445SOL    HW1 7895   1.398   3.481   9.340
 2445SOL    HW2 7896   1.529   3.493   9.264
 2446SOL     OW 7897   0.369   3.172  10.805
 2446SOL    HW1 7898   0.355   3.247  10.747
 2446SOL    HW2 7899   0.296   3.112  10.785
 2447SOL     OW 7900   1.614   3.145  10.593
 2447SOL    HW1 7901   1.669   3.132  10.670
 2447SOL    HW2 7902   1.556   3.217  10.616
 2448SOL     OW 7903   1.050   2.968  10.016
 2448SOL    HW1 7904   0.980   2.917  10.055
 2448SOL    HW2 7905   1.112   2.903   9.983
 2449SOL     OW 7906   1.020   2.102  10.276
 2449SOL    HW1 7907   1.015   2.054  10.194
 2449SOL    HW2 7908   1.015   2.034  10.344
 2450SOL     OW 7909   0.604   3.352   9.793
 2450SOL    HW1 7910   0.644   3.302   9.722
 2450SOL    HW2 7911   0.530   3.397   9.752
 2451SOL     OW 7912   1.718   2.257  10.689
 2451SOL    HW1 7913   1.793   2.317  10.693
 2451SOL    HW2 7914   1.749   2.184  10.635
 2452SOL     OW 7915   0.252   3.206   9.587
 2452SOL    HW1 7916   0.157   3.206   9.573
 2452SOL    HW2 7917   0.262   3.239   9.677
 2453SOL     OW 7918   0.110   2.881  11.004
 2453SOL    HW1 7919   0.051   2.883  11.079
 2453SOL    HW2 7920   0.196   2.862  11.042
 2454SOL     OW 7921   0.674   2.059  10.803
 2454SOL    HW1 7922   0.755   2.037  10.758
 2454SOL    HW2 7923   0.701   2.092  10.889
 2455SOL     OW 7924   0.072   2.188   9.343
 2455SOL    HW1 7925   4.477   2.198   9.345
 2455SOL    HW2 7926   0.104   2.269   9.304
 2456SOL     OW 7927   1.430   2.711  10.709
 2456SOL    HW1 7928   1.383   2.779  10.661
 2456SOL    HW2 7929   1.521   2.720  10.681
 2457SOL     OW 7930   0.085   2.039   9.615
 2457SOL    HW1 7931   0.079   2.111   9.552
 2457SOL    HW2 7932   0.161   1.988   9.587
 2458SOL     OW 7933   1.179   3.203   9.427
 2458SOL    HW1 7934   1.088   3.173   9.429
 2458SOL    HW2 7935   1.207   3.202   9.518
 2459SOL     OW 7936   0.623   2.691  10.739
 2459SOL    HW1 7937   0.678   2.769  10.726
 2459SOL    HW2 7938   0.685   2.619  10.747
 2460SOL     OW 7939   1.484   3.637  10.287
 2460SOL    HW1 7940   1.510   3.696  10.216
 2460SOL    HW2 7941   1.566   3.620  10.334
 2461SOL     OW 7942   0.716   2.425  11.015
 2461SOL    HW1 7943   0.747   2.498  11.068
 2461SOL    HW2 7944   0.768   2.350  11.043
 2462SOL     OW 7945   0.384   3.599  10.871
 2462SOL    HW1 7946   0.306   3.655  10.865
 2462SOL    HW2 7947   0.357   3.528  10.930
 2463SOL     OW 7948   1.673   2.745  10.566
 2463SOL    HW1 7949   1.662   2.659  10.525
 2463SOL    HW2 7950   1.662   2.808  10.495
 2464SOL     OW 7951   1.218   2.181   9.767
 2464SOL    HW1 7952   1.281   2.110   9.759
 2464SOL    HW2 7953   1.247   2.230   9.845
 2465SOL     OW 7954   0.591   2.601   9.978
 2465SOL    HW1 7955   0.629   2.687   9.962
 2465SOL    HW2 7956   0.521   2.593   9.913
 2466SOL     OW 7957   1.750   2.178  10.957
 2466SOL    HW1 7958   1.738   2.216  10.870
 2466SOL    HW2 7959   1.670   2.199  11.004
 2467SOL     OW 7960   1.747   2.800  10.825
 2467SOL    HW1 7961   1.740   2.894  10.838
 2467SOL    HW2 7962   1.731   2.787  10.732
 2468SOL     OW 7963   0.864   3.230   9.342
 2468SOL    HW1 7964   0.823   3.256   9.425
 2468SOL    HW2 7965   0.881   3.312   9.297
 2469SOL     OW 7966   0.660   3.655  10.257
 2469SOL    HW1 7967   0.638   3.744  10.232
 2469SOL    HW2 7968   0.755   3.650  10.247
 2470SOL     OW 7969   0.867   2.828  10.165
 2470SOL    HW1 7970   0.917   2.757  10.205
 2470SOL    HW2 7971   0.833   2.878  10.240
 2471SOL     OW 7972   1.080   2.851   9.399
 2471SOL    HW1 7973   1.058   2.900   9.320
 2471SOL    HW2 7974   1.155   2.797   9.373
 2472SOL     OW 7975   1.856   3.417  10.154
 2472SOL    HW1 7976   1.777   3.406  10.100
 2472SOL    HW2 7977   1.846   3.351  10.224
 2473SOL     OW 7978   0.104   3.099   9.978
 2473SOL    HW1 7979   0.113   3.050  10.060
 2473SOL    HW2 7980   0.164   3.055   9.917
 2474SOL     OW 7981   0.680   3.257  10.938
 2474SOL    HW1 7982   0.607   3.206  10.974
 2474SOL    HW2 7983   0.647   3.347  10.935
 2475SOL     OW 7984   1.814   2.051  10.547
 2475SOL    HW1 7985   1.831   1.958  10.564
 2475SOL    HW2 7986   1.827   2.061  10.453
 2476SOL     OW 7987   0.435   2.295   9.835
 2476SOL    HW1 7988   0.459   2.222   9.779
 2476SOL    HW2 7989   0.384   2.256   9.906
 2477SOL     OW 7990   1.702   3.352  10.407
 2477SOL    HW1 7991   1.620   3.327  10.364
 2477SOL    HW2 7992   1.716   3.285  10.474
 2478SOL     OW 7993   0.300   2.351  10.566
 2478SOL    HW1 7994   0.372   2.311  10.615
 2478SOL    HW2 7995   0.336   2.364  10.478
 2479SOL     OW 7996   0.827   3.440   9.989
 2479SOL    HW1 7997   0.817   3.489   9.907
 2479SOL    HW2 7998   0.749   3.384   9.992
 2480SOL     OW 7999   1.432   2.086  10.428
 2480SOL    HW1 8000   1.462   2.008  10.474
 2480SOL    HW2 8001   1.380   2.134  10.493
 2481SOL     OW 8002   1.008   1.881  10.454
 2481SOL    HW1 8003   0.954   1.814  10.414
 2481SOL    HW2 8004   1.096   1.844  10.456
 2482SOL     OW 8005   0.772   3.194   9.622
 2482SOL    HW1 8006   0.739   3.105   9.628
 2482SOL    HW2 8007   0.854   3.193   9.671
 2483SOL     OW 8008   0.620   3.418  10.596
 2483SOL    HW1 8009   0.621   3.501  10.644
 2483SOL    HW2 8010   0.707   3.412  10.556
 2484SOL     OW 8011   1.352   1.915   9.475
 2484SOL    HW1 8012   1.379   1.854   9.406
 2484SOL    HW2 8013   1.265   1.885   9.501
 2485SOL     OW 8014   1.297   2.322   9.992
 2485SOL    HW1 8015   1.243   2.401  10.000
 2485SOL    HW2 8016   1.293   2.283  10.079
 2486SOL     OW 8017   1.587   2.064  10.186
 2486SOL    HW1 8018   1.525   2.083  10.257
 2486SOL    HW2 8019   1.587   2.143  10.132
 2487SOL     OW 8020   0.041   2.915   9.598
 2487SOL    HW1 8021   0.135   2.900   9.588
 2487SOL    HW2 8022   0.020   2.878   9.683
 2488SOL     OW 8023   0.883   3.513   9.653
 2488SOL    HW1 8024   0.811   3.495   9.593
 2488SOL    HW2 8025   0.853   3.589   9.704
 2489SOL     OW 8026   0.207   4.283   0.084
 2489SOL    HW1 8027   0.155   4.313   0.158
 2489SOL    HW2 8028   0.229   4.362   0.036
 2490SOL     OW 8029   0.209   3.996   0.992
 2490SOL    HW1 8030   0.246   3.969   1.076
 2490SOL    HW2 8031   0.134   3.938   0.978
 2491SOL     OW 8032   4.500   4.100   0.629
 2491SOL    HW1 8033   4.420   4.127   0.674
 2491SOL    HW2 8034   4.479   4.014   0.592
 2492SOL     OW 8035   1.732   4.332   0.229
 2492SOL    HW1 8036   1.749   4.307   0.139
 2492SOL    HW2 8037   1.727   4.250   0.277
 2493SOL     OW 8038   0.733   0.268   0.684
 2493SOL    HW1 8039   0.722   0.204   0.754
 2493SOL    HW2 8040   0.643   0.288   0.656
 2494SOL     OW 8041   0.444   4.120   1.489
 2494SOL    HW1 8042   0.525   4.069   1.491
 2494SOL    HW2 8043   0.375   4.055   1.499
 2495SOL     OW 8044   1.615   4.172   0.740
 2495SOL    HW1 8045   1.546   4.198   0.679
 2495SOL    HW2 8046   1.619   4.244   0.804
 2496SOL     OW 8047   1.597   3.846   1.469
 2496SOL    HW1 8048   1.597   3.926   1.417
 2496SOL    HW2 8049   1.583   3.877   1.559
 2497SOL     OW 8050   0.165   4.320   0.632
 2497SOL    HW1 8051   0.103   4.249   0.617
 2497SOL    HW2 8052   0.118   4.399   0.605
 2498SOL     OW 8053   0.119   0.001   1.589
 2498SOL    HW1 8054   0.214   4.484   1.590
 2498SOL    HW2 8055   0.110   0.086   1.546
 2499SOL     OW 8056   0.815   3.725   0.507
 2499SOL    HW1 8057   0.853   3.811   0.491
 2499SOL    HW2 8058   0.721   3.741   0.516
 2500SOL     OW 8059   0.329   3.979   1.798
 2500SOL    HW1 8060   0.375   4.057   1.829
 2500SOL    HW2 8061   0.241   3.988   1.833
 2501SOL     OW 8062   1.277   4.072   0.933
 2501SOL    HW1 8063   1.188   4.038   0.942
 2501SOL    HW2 8064   1.329   4.020   0.994
 2502SOL     OW 8065   0.826   4.307   1.448
 2502SOL    HW1 8066   0.786   4.311   1.535
 2502SOL    HW2 8067   0.758   4.267   1.393
 2503SOL     OW 8068   1.396   4.199   1.676
 2503SOL    HW1 8069   1.397   4.243   1.762
 2503SOL    HW2 8070   1.454   4.125   1.687
 2504SOL     OW 8071   0.997   4.149   1.233
 2504SOL    HW1 8072   0.924   4.169   1.292
 2504SOL    HW2 8073   0.960   4.089   1.169
 2505SOL     OW 8074   1.060   4.403   0.423
 2505SOL    HW1 8075   1.057   4.455   0.503
 2505SOL    HW2 8076   0.968   4.383   0.404
 2506SOL     OW 8077   0.052   0.048   0.842
 2506SOL    HW1 8078   0.144   0.024   0.853
 2506SOL    HW2 8079   0.052   0.111   0.770
 2507SOL     OW 8080   0.886   4.073   0.209
 2507SOL    HW1 8081   0.931   4.130   0.148
 2507SOL    HW2 8082   0.900   3.985   0.174
 2508SOL     OW 8083   1.707   4.298   1.829
 2508SOL    HW1 8084   1.718   4.387   1.795
 2508SOL    HW2 8085   1.730   4.241   1.755
 2509SOL     OW 8086   0.552   3.906   0.893
 2509SOL    HW1 8087   0.554   3.936   0.984
 2509SOL    HW2 8088   0.548   3.986   0.841
 2510SOL     OW 8089   1.487   4.463   0.738
 2510SOL    HW1 8090   1.470   4.409   0.815
 2510SOL    HW2 8091   1.528   0.042   0.773
 2511SOL     OW 8092   0.190   4.000   1.486
 2511SOL    HW1 8093   0.137   4.080   1.494
 2511SOL    HW2 8094   0.184   3.958   1.572
 2512SOL     OW 8095   1.402   3.831   0.430
 2512SOL    HW1 8096   1.393   3.808   0.338
 2512SOL    HW2 8097   1.496   3.840   0.444
 2513SOL     OW 8098   0.349   4.376   0.404
 2513SOL    HW1 8099   0.395   4.304   0.447
 2513SOL    HW2 8100   0.298   4.417   0.474
 2514SOL     OW 8101   1.536   3.950   1.725
 2514SOL    HW1 8102   1.545   3.971   1.818
 2514SOL    HW2 8103   1.469   3.882   1.722
 2515SOL     OW 8104   0.616   3.834   0.122
 2515SOL    HW1 8105   0.705   3.799   0.121
 2515SOL    HW2 8106   0.581   3.813   0.035
 2516SOL     OW 8107   0.767   4.002   1.754
 2516SOL    HW1 8108   0.842   3.942   1.756
 2516SOL    HW2 8109   0.717   3.979   1.833
 2517SOL     OW 8110   1.344   4.311   1.429
 2517SOL    HW1 8111   1.366   4.274   1.514
 2517SOL    HW2 8112   1.384   4.398   1.429
 2518SOL     OW 8113   0.923   4.236   0.900
 2518SOL    HW1 8114   0.901   4.220   0.808
 2518SOL    HW2 8115   0.962   4.154   0.929
 2519SOL     OW 8116   0.552   3.786   0.504
 2519SOL    HW1 8117   0.470   3.783   0.554
 2519SOL    HW2 8118   0.545   3.864   0.450
 2520SOL     OW 8119   0.285   3.772   0.192
 2520SOL    HW1 8120   0.333   3.824   0.127
 2520SOL    HW2 8121   0.349   3.708   0.223
 2521SOL     OW 8122   0.938   3.972   0.465
 2521SOL    HW1 8123   0.911   4.012   0.382
 2521SOL    HW2 8124   1.033   3.985   0.467
 2522SOL     OW 8125   1.076   4.396   1.518
 2522SOL    HW1 8126   0.993   4.365   1.482
 2522SOL    HW2 8127   1.142   4.355   1.463
 2523SOL     OW 8128   1.009   4.264   0.040
 2523SOL    HW1 8129   1.019   4.325  11.067
 2523SOL    HW2 8130   1.089   4.274   0.091
 2524SOL     OW 8131   0.085   4.258   1.410
 2524SOL    HW1 8132   0.158   4.271   1.349
 2524SOL    HW2 8133   0.053   4.346   1.427
 2525SOL     OW 8134   0.561   3.951   1.165
 2525SOL    HW1 8135   0.601   3.870   1.198
 2525SOL    HW2 8136   0.470   3.946   1.193
 2526SOL     OW 8137   0.869   4.189   0.640
 2526SOL    HW1 8138   0.837   4.250   0.574
 2526SOL    HW2 8139   0.887   4.108   0.591
 2527SOL     OW 8140   1.014   3.777   0.752
 2527SOL    HW1 8141   0.956   3.769   0.677
 2527SOL    HW2 8142   0.994   3.701   0.807
 2528SOL     OW 8143   1.477   4.312   0.968
 2528SOL    HW1 8144   1.420   4.238   0.987
 2528SOL    HW2 8145   1.528   4.324   1.048
 2529SOL     OW 8146   1.400   4.293   0.072
 2529SOL    HW1 8147   1.335   4.277   0.140
 2529SOL    HW2 8148   1.468   4.228   0.087
 2530SOL     OW 8149   0.527   3.989   0.325
 2530SOL    HW1 8150   0.554   3.929   0.256
 2530SOL    HW2 8151   0.512   4.072   0.281
 2531SOL     OW 8152   0.917   3.823   1.397
 2531SOL    HW1 8153   0.941   3.802   1.307
 2531SOL    HW2 8154   0.997   3.861   1.434
 2532SOL     OW 8155   0.441   0.004   1.260
 2532SOL    HW1 8156   0.497   0.003   1.338
 2532SOL    HW2 8157   0.403   4.416   1.258
 2533SOL     OW 8158   1.266   4.100   1.274
 2533SOL    HW1 8159   1.300   4.177   1.319
 2533SOL    HW2 8160   1.177   4.124   1.248
 2534SOL     OW 8161   0.556   4.255   0.864
 2534SOL    HW1 8162   0.577   4.297   0.780
 2534SOL    HW2 8163   0.621   4.289   0.925
 2535SOL     OW 8164   1.579   4.340   0.480
 2535SOL    HW1 8165   1.536   4.405   0.535
 2535SOL    HW2 8166   1.623   4.392   0.412
 2536SOL     OW 8167   0.996   3.845   1.755
 2536SOL    HW1 8168   1.051   3.918   1.727
 2536SOL    HW2 8169   1.044   3.766   1.730
 2537SOL     OW 8170   0.498   3.767   1.746
 2537SOL    HW1 8171   0.457   3.711   1.681
 2537SOL    HW2 8172   0.437   3.841   1.756
 2538SOL     OW 8173   1.211   4.251   0.265
 2538SOL    HW1 8174   1.222   4.172   0.318
 2538SOL    HW2 8175   1.163   4.311   0.321
 2539SOL     OW 8176   0.300   3.923   1.244
 2539SOL    HW1 8177   0.260   3.951   1.327
 2539SOL    HW2 8178   0.287   3.828   1.242
 2540SOL     OW 8179   0.733   4.360   1.047
 2540SOL    HW1 8180   0.806   4.323   0.997
 2540SOL    HW2 8181   0.739   4.454   1.033
 2541SOL     OW 8182   1.751   0.134   1.855
 2541SOL    HW1 8183   1.687   0.148   1.785
 2541SOL    HW2 8184   1.706   0.162   1.935
 2542SOL     OW 8185   0.310   3.794   0.619
 2542SOL    HW1 8186   0.286   3.882   0.647
 2542SOL    HW2 8187   0.305   3.741   0.699
 2543SOL     OW 8188   1.614   4.092   0.368
 2543SOL    HW1 8189   1.643   4.029   0.435
 2543SOL    HW2 8190   1.592   4.171   0.418
 2544SOL     OW 8191   1.535   4.012   0.116
 2544SOL    HW1 8192   1.475   3.939   0.133
 2544SOL    HW2 8193   1.567   4.036   0.203
 2545SOL     OW 8194   0.317   0.018   0.918
 2545SOL    HW1 8195   0.399   0.066   0.925
 2545SOL    HW2 8196   0.330   4.439   0.971
 2546SOL     OW 8197   0.334   4.237   1.011
 2546SOL    HW1 8198   0.291   4.156   0.987
 2546SOL    HW2 8199   0.409   4.243   0.951
 2547SOL     OW 8200   1.138   4.095   1.684
 2547SOL    HW1 8201   1.086   4.153   1.740
 2547SOL    HW2 8202   1.222   4.138   1.676
 2548SOL     OW 8203   1.160   3.927   1.469
 2548SOL    HW1 8204   1.151   3.988   1.542
 2548SOL    HW2 8205   1.200   3.979   1.399
 2549SOL     OW 8206   0.026   4.280   1.107
 2549SOL    HW1 8207   0.111   4.257   1.069
 2549SOL    HW2 8208   0.028   4.241   1.195
 2550SOL     OW 8209   0.176   4.236   1.694
 2550SOL    HW1 8210   0.263   4.217   1.659
 2550SOL    HW2 8211   0.149   4.316   1.650
 2551SOL     OW 8212   0.814   4.309   0.327
 2551SOL    HW1 8213   0.824   4.222   0.287
 2551SOL    HW2 8214   0.720   4.317   0.344
 2552SOL     OW 8215   1.637   4.319   1.188
 2552SOL    HW1 8216   1.632   4.260   1.264
 2552SOL    HW2 8217   1.725   4.304   1.153
 2553SOL     OW 8218   0.675   4.186   1.259
 2553SOL    HW1 8219   0.638   4.105   1.225
 2553SOL    HW2 8220   0.685   4.242   1.182
 2554SOL     OW 8221   0.476   4.218   0.183
 2554SOL    HW1 8222   0.520   4.302   0.195
 2554SOL    HW2 8223   0.383   4.239   0.187
 2555SOL     OW 8224   0.917   3.814   0.108
 2555SOL    HW1 8225   0.969   3.778   0.035
 2555SOL    HW2 8226   0.954   3.771   0.186
 2556SOL     OW 8227   1.719   3.868   0.512
 2556SOL    HW1 8228   1.792   3.855   0.451
 2556SOL    HW2 8229   1.704   3.782   0.550
 2557SOL     OW 8230   1.278   0.138   0.682
 2557SOL    HW1 8231   1.335   0.061   0.689
 2557SOL    HW2 8232   1.327   0.198   0.626
 2558SOL     OW 8233   1.839   3.897   0.967
 2558SOL    HW1 8234   1.868   3.810   0.939
 2558SOL    HW2 8235   1.753   3.908   0.927
 2559SOL     OW 8236   0.268   4.042   0.721
 2559SOL    HW1 8237   0.192   4.091   0.692
 2559SOL    HW2 8238   0.254   4.030   0.815
 2560SOL     OW 8239   1.062   0.302   0.727
 2560SOL    HW1 8240   0.979   0.267   0.694
 2560SOL    HW2 8241   1.127   0.237   0.701
 2561SOL     OW 8242   1.019   3.964   0.965
 2561SOL    HW1 8243   1.015   3.916   0.883
 2561SOL    HW2 8244   1.015   3.896   1.033
 2562SOL     OW 8245   1.720   4.114   1.380
 2562SOL    HW1 8246   1.791   4.178   1.377
 2562SOL    HW2 8247   1.750   4.043   1.324
 2563SOL     OW 8248   0.673   3.923   1.499
 2563SOL    HW1 8249   0.757   3.902   1.457
 2563SOL    HW2 8250   0.697   3.951   1.587
 2564SOL     OW 8251   0.060   4.061   0.003
 2564SOL    HW1 8252   4.469   4.071   0.031
 2564SOL    HW2 8253   0.100   4.146   0.022
 2565SOL     OW 8254   0.081   3.898   0.310
 2565SOL    HW1 8255   0.078   3.973   0.250
 2565SOL    HW2 8256   0.155   3.845   0.280
 2566SOL     OW 8257   0.725   4.284   1.701
 2566SOL    HW1 8258   0.730   4.333   1.783
 2566SOL    HW2 8259   0.750   4.195   1.724
 2567SOL     OW 8260   1.217   4.040   0.456
 2567SOL    HW1 8261   1.282   3.970   0.447
 2567SOL    HW2 8262   1.247   4.089   0.533
 2568SOL     OW 8263   1.761   4.089   1.648
 2568SOL    HW1 8264   1.744   4.100   1.554
 2568SOL    HW2 8265   1.692   4.031   1.679
 2569SOL     OW 8266   1.099   0.203   0.051
 2569SOL    HW1 8267   1.096   0.289   0.008
 2569SOL    HW2 8268   1.191   0.176   0.044
 2570SOL     OW 8269   1.815   3.909   1.238
 2570SOL    HW1 8270   1.823   3.814   1.253
 2570SOL    HW2 8271   1.822   3.919   1.143
 2571SOL     OW 8272   0.450   4.154   0.536
 2571SOL    HW1 8273   0.468   4.081   0.478
 2571SOL    HW2 8274   0.391   4.119   0.603
 2572SOL     OW 8275   0.322   4.259   1.276
 2572SOL    HW1 8276   0.375   4.193   1.320
 2572SOL    HW2 8277   0.334   4.242   1.183
 2573SOL     OW 8278   1.432   3.948   1.118
 2573SOL    HW1 8279   1.458   3.868   1.164
 2573SOL    HW2 8280   1.380   3.997   1.181
 2574SOL     OW 8281   1.008   3.744   1.144
 2574SOL    HW1 8282   0.954   3.676   1.105
 2574SOL    HW2 8283   1.096   3.706   1.146
 2575SOL     OW 8284   1.351   3.778   0.164
 2575SOL    HW1 8285   1.373   3.727   0.086
 2575SOL    HW2 8286   1.264   3.746   0.190
 2576SOL     OW 8287   1.300   4.175   0.681
 2576SOL    HW1 8288   1.260   4.261   0.694
 2576SOL    HW2 8289   1.299   4.135   0.768
 2577SOL     OW 8290   1.587   3.928   0.877
 2577SOL    HW1 8291   1.525   3.948   0.947
 2577SOL    HW2 8292   1.587   4.006   0.822
 2578SOL     OW 8293   0.231   4.283   1.972
 2578SOL    HW1 8294   0.164   4.317   2.032
 2578SOL    HW2 8295   0.214   4.327   1.889
 2579SOL     OW 8296   0.210   3.996   2.853
 2579SOL    HW1 8297   0.246   3.969   2.938
 2579SOL    HW2 8298   0.134   3.939   2.840
 2580SOL     OW 8299   0.000   4.099   2.493
 2580SOL    HW1 8300   4.420   4.130   2.536
 2580SOL    HW2 8301   4.475   4.017   2.451
 2581SOL     OW 8302   1.732   4.335   2.099
 2581SOL    HW1 8303   1.732   4.322   2.004
 2581SOL    HW2 8304   1.732   4.246   2.136
 2582SOL     OW 8305   0.728   0.268   2.545
 2582SOL    HW1 8306   0.719   0.208   2.619
 2582SOL    HW2 8307   0.637   0.288   2.520
 2583SOL     OW 8308   0.444   4.120   3.351
 2583SOL    HW1 8309   0.525   4.069   3.353
 2583SOL    HW2 8310   0.374   4.055   3.361
 2584SOL     OW 8311   1.615   4.173   2.601
 2584SOL    HW1 8312   1.545   4.198   2.542
 2584SOL    HW2 8313   1.618   4.243   2.666
 2585SOL     OW 8314   1.597   3.846   3.331
 2585SOL    HW1 8315   1.598   3.926   3.279
 2585SOL    HW2 8316   1.583   3.877   3.421
 2586SOL     OW 8317   0.165   4.323   2.495
 2586SOL    HW1 8318   0.105   4.251   2.476
 2586SOL    HW2 8319   0.118   4.401   2.465
 2587SOL     OW 8320   0.119   0.001   3.451
 2587SOL    HW1 8321   0.214   4.485   3.452
 2587SOL    HW2 8322   0.110   0.086   3.408
 2588SOL     OW 8323   0.815   3.724   2.369
 2588SOL    HW1 8324   0.854   3.809   2.352
 2588SOL    HW2 8325   0.721   3.742   2.379
 2589SOL     OW 8326   0.329   3.979   3.660
 2589SOL    HW1 8327   0.375   4.058   3.690
 2589SOL    HW2 8328   0.241   3.988   3.695
 2590SOL     OW 8329   1.278   4.071   2.794
 2590SOL    HW1 8330   1.188   4.038   2.804
 2590SOL    HW2 8331   1.329   4.020   2.856
 2591SOL     OW 8332   0.826   4.306   3.310
 2591SOL    HW1 8333   0.786   4.311   3.397
 2591SOL    HW2 8334   0.759   4.267   3.255
 2592SOL     OW 8335   1.396   4.199   3.538
 2592SOL    HW1 8336   1.397   4.243   3.623
 2592SOL    HW2 8337   1.455   4.125   3.549
 2593SOL     OW 8338   0.997   4.149   3.095
 2593SOL    HW1 8339   0.925   4.169   3.155
 2593SOL    HW2 8340   0.959   4.090   3.031
 2594SOL     OW 8341   1.057   4.410   2.280
 2594SOL    HW1 8342   1.055   4.448   2.368
 2594SOL    HW2 8343   0.969   4.373   2.269
 2595SOL     OW 8344   0.053   0.057   2.711
 2595SOL    HW1 8345   0.144   0.025   2.716
 2595SOL    HW2 8346   0.049   0.103   2.627
 2596SOL     OW 8347   0.889   4.063   2.053
 2596SOL    HW1 8348   0.931   4.126   1.994
 2596SOL    HW2 8349   0.907   3.978   2.014
 2597SOL     OW 8350   1.706   4.298   3.691
 2597SOL    HW1 8351   1.719   4.387   3.657
 2597SOL    HW2 8352   1.730   4.242   3.617
 2598SOL     OW 8353   0.552   3.906   2.754
 2598SOL    HW1 8354   0.554   3.936   2.845
 2598SOL    HW2 8355   0.548   3.987   2.703
 2599SOL     OW 8356   1.489   4.464   2.599
 2599SOL    HW1 8357   1.471   4.409   2.676
 2599SOL    HW2 8358   1.530   0.043   2.636
 2600SOL     OW 8359   0.189   4.000   3.348
 2600SOL    HW1 8360   0.138   4.080   3.356
 2600SOL    HW2 8361   0.184   3.959   3.434
 2601SOL     OW 8362   1.401   3.831   2.293
 2601SOL    HW1 8363   1.390   3.806   2.201
 2601SOL    HW2 8364   1.495   3.840   2.305
 2602SOL     OW 8365   0.350   4.378   2.268
 2602SOL    HW1 8366   0.396   4.306   2.309
 2602SOL    HW2 8367   0.298   4.418   2.338
 2603SOL     OW 8368   1.536   3.950   3.587
 2603SOL    HW1 8369   1.545   3.971   3.680
 2603SOL    HW2 8370   1.468   3.883   3.584
 2604SOL     OW 8371   0.634   3.850   1.965
 2604SOL    HW1 8372   0.702   3.785   1.981
 2604SOL    HW2 8373   0.585   3.816   1.890
 2605SOL     OW 8374   0.767   4.002   3.616
 2605SOL    HW1 8375   0.842   3.942   3.618
 2605SOL    HW2 8376   0.717   3.980   3.695
 2606SOL     OW 8377   1.344   4.311   3.291
 2606SOL    HW1 8378   1.366   4.274   3.376
 2606SOL    HW2 8379   1.384   4.398   3.291
 2607SOL     OW 8380   0.923   4.236   2.761
 2607SOL    HW1 8381   0.901   4.220   2.669
 2607SOL    HW2 8382   0.962   4.154   2.791
 2608SOL     OW 8383   0.551   3.786   2.365
 2608SOL    HW1 8384   0.471   3.784   2.416
 2608SOL    HW2 8385   0.543   3.865   2.310
 2609SOL     OW 8386   0.294   3.770   2.040
 2609SOL    HW1 8387   0.355   3.837   2.012
 2609SOL    HW2 8388   0.348   3.705   2.084
 2610SOL     OW 8389   0.937   3.971   2.325
 2610SOL    HW1 8390   0.910   4.009   2.241
 2610SOL    HW2 8391   1.032   3.983   2.327
 2611SOL     OW 8392   1.076   4.396   3.380
 2611SOL    HW1 8393   0.993   4.366   3.344
 2611SOL    HW2 8394   1.142   4.355   3.325
 2612SOL     OW 8395   1.025   4.268   1.887
 2612SOL    HW1 8396   1.008   4.355   1.853
 2612SOL    HW2 8397   1.088   4.281   1.958
 2613SOL     OW 8398   0.086   4.258   3.272
 2613SOL    HW1 8399   0.158   4.271   3.211
 2613SOL    HW2 8400   0.053   4.346   3.289
 2614SOL     OW 8401   0.561   3.951   3.027
 2614SOL    HW1 8402   0.600   3.870   3.061
 2614SOL    HW2 8403   0.470   3.946   3.055
 2615SOL     OW 8404   0.871   4.190   2.500
 2615SOL    HW1 8405   0.833   4.248   2.434
 2615SOL    HW2 8406   0.888   4.108   2.453
 2616SOL     OW 8407   1.014   3.777   2.614
 2616SOL    HW1 8408   0.956   3.769   2.539
 2616SOL    HW2 8409   0.994   3.701   2.669
 2617SOL     OW 8410   1.477   4.312   2.829
 2617SOL    HW1 8411   1.419   4.238   2.849
 2617SOL    HW2 8412   1.528   4.324   2.909
 2618SOL     OW 8413   1.402   4.296   1.935
 2618SOL    HW1 8414   1.340   4.269   2.003
 2618SOL    HW2 8415   1.485   4.255   1.960
 2619SOL     OW 8416   0.523   3.985   2.179
 2619SOL    HW1 8417   0.567   3.937   2.109
 2619SOL    HW2 8418   0.510   4.073   2.143
 2620SOL     OW 8419   0.917   3.823   3.259
 2620SOL    HW1 8420   0.941   3.802   3.169
 2620SOL    HW2 8421   0.997   3.861   3.296
 2621SOL     OW 8422   0.441   0.004   3.122
 2621SOL    HW1 8423   0.497   0.004   3.200
 2621SOL    HW2 8424   0.403   4.416   3.120
 2622SOL     OW 8425   1.266   4.100   3.136
 2622SOL    HW1 8426   1.300   4.177   3.181
 2622SOL    HW2 8427   1.177   4.124   3.110
 2623SOL     OW 8428   0.557   4.254   2.726
 2623SOL    HW1 8429   0.575   4.297   2.643
 2623SOL    HW2 8430   0.621   4.290   2.787
 2624SOL     OW 8431   1.570   4.340   2.339
 2624SOL    HW1 8432   1.541   4.406   2.401
 2624SOL    HW2 8433   1.629   4.387   2.280
 2625SOL     OW 8434   0.996   3.845   3.618
 2625SOL    HW1 8435   1.051   3.918   3.589
 2625SOL    HW2 8436   1.045   3.767   3.592
 2626SOL     OW 8437   0.498   3.767   3.608
 2626SOL    HW1 8438   0.457   3.711   3.543
 2626SOL    HW2 8439   0.437   3.841   3.618
 2627SOL     OW 8440   1.211   4.255   2.127
 2627SOL    HW1 8441   1.221   4.175   2.179
 2627SOL    HW2 8442   1.162   4.314   2.183
 2628SOL     OW 8443   0.300   3.923   3.106
 2628SOL    HW1 8444   0.260   3.951   3.189
 2628SOL    HW2 8445   0.287   3.828   3.104
 2629SOL     OW 8446   0.733   4.360   2.909
 2629SOL    HW1 8447   0.806   4.323   2.859
 2629SOL    HW2 8448   0.739   4.454   2.895
 2630SOL     OW 8449   1.750   0.133   3.717
 2630SOL    HW1 8450   1.687   0.148   3.647
 2630SOL    HW2 8451   1.706   0.162   3.797
 2631SOL     OW 8452   0.309   3.793   2.481
 2631SOL    HW1 8453   0.286   3.882   2.508
 2631SOL    HW2 8454   0.305   3.741   2.561
 2632SOL     OW 8455   1.613   4.091   2.231
 2632SOL    HW1 8456   1.642   4.030   2.299
 2632SOL    HW2 8457   1.590   4.171   2.278
 2633SOL     OW 8458   1.528   3.999   1.989
 2633SOL    HW1 8459   1.465   3.932   2.015
 2633SOL    HW2 8460   1.562   4.033   2.072
 2634SOL     OW 8461   0.319   0.017   2.780
 2634SOL    HW1 8462   0.401   0.066   2.787
 2634SOL    HW2 8463   0.332   4.439   2.834
 2635SOL     OW 8464   0.335   4.237   2.873
 2635SOL    HW1 8465   0.291   4.155   2.849
 2635SOL    HW2 8466   0.409   4.242   2.813
 2636SOL     OW 8467   1.138   4.094   3.547
 2636SOL    HW1 8468   1.086   4.153   3.601
 2636SOL    HW2 8469   1.222   4.138   3.538
 2637SOL     OW 8470   1.160   3.927   3.331
 2637SOL    HW1 8471   1.151   3.988   3.404
 2637SOL    HW2 8472   1.200   3.979   3.261
 2638SOL     OW 8473   0.025   4.279   2.969
 2638SOL    HW1 8474   0.110   4.258   2.931
 2638SOL    HW2 8475   0.028   4.240   3.057
 2639SOL     OW 8476   0.176   4.236   3.556
 2639SOL    HW1 8477   0.263   4.218   3.521
 2639SOL    HW2 8478   0.148   4.316   3.512
 2640SOL     OW 8479   0.819   4.285   2.206
 2640SOL    HW1 8480   0.819   4.209   2.149
 2640SOL    HW2 8481   0.730   4.320   2.202
 2641SOL     OW 8482   1.637   4.318   3.050
 2641SOL    HW1 8483   1.632   4.260   3.126
 2641SOL    HW2 8484   1.725   4.304   3.015
 2642SOL     OW 8485   0.675   4.186   3.121
 2642SOL    HW1 8486   0.638   4.105   3.087
 2642SOL    HW2 8487   0.685   4.243   3.044
 2643SOL     OW 8488   0.486   4.223   2.051
 2643SOL    HW1 8489   0.518   4.309   2.077
 2643SOL    HW2 8490   0.392   4.235   2.035
 2644SOL     OW 8491   1.720   3.868   2.374
 2644SOL    HW1 8492   1.792   3.854   2.313
 2644SOL    HW2 8493   1.704   3.782   2.413
 2645SOL     OW 8494   1.279   0.137   2.541
 2645SOL    HW1 8495   1.337   0.061   2.550
 2645SOL    HW2 8496   1.330   0.200   2.490
 2646SOL     OW 8497   1.839   3.897   2.829
 2646SOL    HW1 8498   1.868   3.810   2.801
 2646SOL    HW2 8499   1.753   3.908   2.789
 2647SOL     OW 8500   0.268   4.041   2.583
 2647SOL    HW1 8501   0.190   4.089   2.553
 2647SOL    HW2 8502   0.255   4.030   2.677
 2648SOL     OW 8503   0.908   0.093   2.083
 2648SOL    HW1 8504   0.990   0.132   2.054
 2648SOL    HW2 8505   0.930   0.052   2.167
 2649SOL     OW 8506   1.066   0.301   2.602
 2649SOL    HW1 8507   0.987   0.286   2.551
 2649SOL    HW2 8508   1.129   0.237   2.569
 2650SOL     OW 8509   1.019   3.964   2.827
 2650SOL    HW1 8510   1.015   3.915   2.745
 2650SOL    HW2 8511   1.015   3.896   2.895
 2651SOL     OW 8512   1.720   4.114   3.242
 2651SOL    HW1 8513   1.791   4.178   3.240
 2651SOL    HW2 8514   1.750   4.043   3.186
 2652SOL     OW 8515   0.673   3.922   3.361
 2652SOL    HW1 8516   0.757   3.902   3.319
 2652SOL    HW2 8517   0.697   3.951   3.449
 2653SOL     OW 8518   0.068   4.045   1.896
 2653SOL    HW1 8519   4.474   4.063   1.888
 2653SOL    HW2 8520   0.110   4.130   1.882
 2654SOL     OW 8521   0.086   3.902   2.168
 2654SOL    HW1 8522   0.076   3.970   2.101
 2654SOL    HW2 8523   0.161   3.850   2.139
 2655SOL     OW 8524   0.725   4.284   3.563
 2655SOL    HW1 8525   0.730   4.333   3.645
 2655SOL    HW2 8526   0.751   4.195   3.586
 2656SOL     OW 8527   1.219   4.043   2.316
 2656SOL    HW1 8528   1.281   3.971   2.308
 2656SOL    HW2 8529   1.248   4.090   2.395
 2657SOL     OW 8530   1.761   4.089   3.510
 2657SOL    HW1 8531   1.744   4.099   3.416
 2657SOL    HW2 8532   1.692   4.031   3.541
 2658SOL     OW 8533   1.110   0.228   1.966
 2658SOL    HW1 8534   1.093   0.270   1.881
 2658SOL    HW2 8535   1.193   0.181   1.953
 2659SOL     OW 8536   1.815   3.909   3.100
 2659SOL    HW1 8537   1.823   3.814   3.115
 2659SOL    HW2 8538   1.822   3.919   3.005
 2660SOL     OW 8539   0.451   4.153   2.398
 2660SOL    HW1 8540   0.463   4.079   2.338
 2660SOL    HW2 8541   0.391   4.120   2.465
 2661SOL     OW 8542   0.322   4.259   3.138
 2661SOL    HW1 8543   0.375   4.193   3.182
 2661SOL    HW2 8544   0.334   4.242   3.045
 2662SOL     OW 8545   1.432   3.948   2.980
 2662SOL    HW1 8546   1.458   3.869   3.026
 2662SOL    HW2 8547   1.380   3.997   3.043
 2663SOL     OW 8548   1.008   3.744   3.006
 2663SOL    HW1 8549   0.954   3.676   2.967
 2663SOL    HW2 8550   1.096   3.706   3.008
 2664SOL     OW 8551   1.352   3.777   2.026
 2664SOL    HW1 8552   1.379   3.715   1.958
 2664SOL    HW2 8553   1.265   3.747   2.053
 2665SOL     OW 8554   1.300   4.176   2.544
 2665SOL    HW1 8555   1.259   4.261   2.558
 2665SOL    HW2 8556   1.299   4.135   2.630
 2666SOL     OW 8557   1.587   3.928   2.739
 2666SOL    HW1 8558   1.525   3.948   2.809
 2666SOL    HW2 8559   1.587   4.006   2.684
 2667SOL     OW 8560   0.231   4.283   3.834
 2667SOL    HW1 8561   0.164   4.317   3.894
 2667SOL    HW2 8562   0.214   4.328   3.752
 2668SOL     OW 8563   0.210   3.996   4.715
 2668SOL    HW1 8564   0.246   3.969   4.800
 2668SOL    HW2 8565   0.134   3.939   4.702
 2669SOL     OW 8566   0.000   4.099   4.355
 2669SOL    HW1 8567   4.420   4.130   4.398
 2669SOL    HW2 8568   4.475   4.017   4.313
 2670SOL     OW 8569   1.731   4.335   3.961
 2670SOL    HW1 8570   1.731   4.322   3.866
 2670SOL    HW2 8571   1.733   4.246   3.998
 2671SOL     OW 8572   0.728   0.268   4.407
 2671SOL    HW1 8573   0.719   0.208   4.481
 2671SOL    HW2 8574   0.637   0.288   4.382
 2672SOL     OW 8575   0.444   4.120   5.212
 2672SOL    HW1 8576   0.525   4.069   5.215
 2672SOL    HW2 8577   0.374   4.055   5.223
 2673SOL     OW 8578   1.615   4.173   4.463
 2673SOL    HW1 8579   1.545   4.198   4.403
 2673SOL    HW2 8580   1.619   4.243   4.528
 2674SOL     OW 8581   1.597   3.846   5.194
 2674SOL    HW1 8582   1.598   3.925   5.141
 2674SOL    HW2 8583   1.583   3.877   5.283
 2675SOL     OW 8584   0.165   4.323   4.357
 2675SOL    HW1 8585   0.105   4.251   4.338
 2675SOL    HW2 8586   0.118   4.401   4.327
 2676SOL     OW 8587   0.119   0.001   5.313
 2676SOL    HW1 8588   0.214   4.485   5.314
 2676SOL    HW2 8589   0.110   0.086   5.270
 2677SOL     OW 8590   0.815   3.723   4.231
 2677SOL    HW1 8591   0.854   3.809   4.214
 2677SOL    HW2 8592   0.721   3.742   4.241
 2678SOL     OW 8593   0.329   3.979   5.522
 2678SOL    HW1 8594   0.375   4.058   5.553
 2678SOL    HW2 8595   0.241   3.987   5.557
 2679SOL     OW 8596   1.278   4.071   4.656
 2679SOL    HW1 8597   1.188   4.038   4.666
 2679SOL    HW2 8598   1.329   4.020   4.718
 2680SOL     OW 8599   0.826   4.306   5.172
 2680SOL    HW1 8600   0.786   4.311   5.259
 2680SOL    HW2 8601   0.759   4.267   5.117
 2681SOL     OW 8602   1.396   4.199   5.400
 2681SOL    HW1 8603   1.396   4.243   5.485
 2681SOL    HW2 8604   1.455   4.125   5.411
 2682SOL     OW 8605   0.997   4.149   4.958
 2682SOL    HW1 8606   0.924   4.170   5.016
 2682SOL    HW2 8607   0.959   4.090   4.892
 2683SOL     OW 8608   1.057   4.410   4.143
 2683SOL    HW1 8609   1.055   4.448   4.230
 2683SOL    HW2 8610   0.969   4.373   4.131
 2684SOL     OW 8611   0.054   0.057   4.573
 2684SOL    HW1 8612   0.144   0.025   4.578
 2684SOL    HW2 8613   0.049   0.103   4.489
 2685SOL     OW 8614   0.889   4.063   3.915
 2685SOL    HW1 8615   0.931   4.126   3.856
 2685SOL    HW2 8616   0.907   3.978   3.876
 2686SOL     OW 8617   1.706   4.298   5.553
 2686SOL    HW1 8618   1.719   4.387   5.520
 2686SOL    HW2 8619   1.730   4.242   5.479
 2687SOL     OW 8620   0.552   3.906   4.616
 2687SOL    HW1 8621   0.554   3.936   4.707
 2687SOL    HW2 8622   0.548   3.986   4.565
 2688SOL     OW 8623   1.489   4.464   4.461
 2688SOL    HW1 8624   1.471   4.409   4.538
 2688SOL    HW2 8625   1.530   0.043   4.497
 2689SOL     OW 8626   0.189   4.000   5.210
 2689SOL    HW1 8627   0.138   4.080   5.218
 2689SOL    HW2 8628   0.184   3.959   5.296
 2690SOL     OW 8629   1.401   3.830   4.155
 2690SOL    HW1 8630   1.390   3.806   4.063
 2690SOL    HW2 8631   1.495   3.840   4.167
 2691SOL     OW 8632   0.350   4.378   4.130
 2691SOL    HW1 8633   0.396   4.306   4.172
 2691SOL    HW2 8634   0.298   4.418   4.200
 2692SOL     OW 8635   1.536   3.950   5.449
 2692SOL    HW1 8636   1.545   3.971   5.542
 2692SOL    HW2 8637   1.467   3.884   5.446
 2693SOL     OW 8638   0.634   3.850   3.827
 2693SOL    HW1 8639   0.702   3.785   3.843
 2693SOL    HW2 8640   0.585   3.816   3.752
 2694SOL     OW 8641   0.767   4.002   5.478
 2694SOL    HW1 8642   0.842   3.942   5.480
 2694SOL    HW2 8643   0.717   3.980   5.557
 2695SOL     OW 8644   1.344   4.311   5.153
 2695SOL    HW1 8645   1.366   4.275   5.238
 2695SOL    HW2 8646   1.384   4.398   5.153
 2696SOL     OW 8647   0.923   4.236   4.623
 2696SOL    HW1 8648   0.901   4.220   4.531
 2696SOL    HW2 8649   0.962   4.154   4.653
 2697SOL     OW 8650   0.551   3.786   4.227
 2697SOL    HW1 8651   0.471   3.784   4.278
 2697SOL    HW2 8652   0.543   3.865   4.172
 2698SOL     OW 8653   0.294   3.770   3.902
 2698SOL    HW1 8654   0.355   3.837   3.874
 2698SOL    HW2 8655   0.348   3.705   3.946
 2699SOL     OW 8656   0.937   3.971   4.187
 2699SOL    HW1 8657   0.910   4.009   4.103
 2699SOL    HW2 8658   1.032   3.983   4.189
 2700SOL     OW 8659   1.076   4.395   5.243
 2700SOL    HW1 8660   0.993   4.366   5.207
 2700SOL    HW2 8661   1.142   4.355   5.186
 2701SOL     OW 8662   1.025   4.268   3.749
 2701SOL    HW1 8663   1.008   4.355   3.715
 2701SOL    HW2 8664   1.088   4.281   3.820
 2702SOL     OW 8665   0.086   4.258   5.135
 2702SOL    HW1 8666   0.158   4.271   5.073
 2702SOL    HW2 8667   0.052   4.346   5.151
 2703SOL     OW 8668   0.561   3.951   4.889
 2703SOL    HW1 8669   0.600   3.870   4.923
 2703SOL    HW2 8670   0.469   3.947   4.917
 2704SOL     OW 8671   0.871   4.189   4.362
 2704SOL    HW1 8672   0.833   4.248   4.296
 2704SOL    HW2 8673   0.888   4.108   4.315
 2705SOL     OW 8674   1.014   3.777   4.476
 2705SOL    HW1 8675   0.956   3.769   4.401
 2705SOL    HW2 8676   0.994   3.701   4.531
 2706SOL     OW 8677   1.477   4.312   4.691
 2706SOL    HW1 8678   1.419   4.238   4.711
 2706SOL    HW2 8679   1.528   4.325   4.771
 2707SOL     OW 8680   1.402   4.296   3.797
 2707SOL    HW1 8681   1.340   4.269   3.865
 2707SOL    HW2 8682   1.485   4.255   3.822
 2708SOL     OW 8683   0.523   3.985   4.041
 2708SOL    HW1 8684   0.567   3.937   3.971
 2708SOL    HW2 8685   0.510   4.073   4.005
 2709SOL     OW 8686   0.918   3.822   5.121
 2709SOL    HW1 8687   0.941   3.802   5.031
 2709SOL    HW2 8688   0.997   3.861   5.158
 2710SOL     OW 8689   0.441   0.004   4.984
 2710SOL    HW1 8690   0.497   0.004   5.062
 2710SOL    HW2 8691   0.402   4.416   4.982
 2711SOL     OW 8692   1.266   4.100   4.998
 2711SOL    HW1 8693   1.300   4.177   5.043
 2711SOL    HW2 8694   1.177   4.124   4.973
 2712SOL     OW 8695   0.557   4.253   4.588
 2712SOL    HW1 8696   0.575   4.297   4.505
 2712SOL    HW2 8697   0.621   4.290   4.649
 2713SOL     OW 8698   1.571   4.339   4.201
 2713SOL    HW1 8699   1.541   4.406   4.263
 2713SOL    HW2 8700   1.629   4.386   4.142
 2714SOL     OW 8701   0.996   3.845   5.480
 2714SOL    HW1 8702   1.051   3.918   5.451
 2714SOL    HW2 8703   1.045   3.767   5.454
 2715SOL     OW 8704   0.498   3.767   5.470
 2715SOL    HW1 8705   0.457   3.711   5.405
 2715SOL    HW2 8706   0.437   3.841   5.480
 2716SOL     OW 8707   1.211   4.254   3.989
 2716SOL    HW1 8708   1.221   4.175   4.041
 2716SOL    HW2 8709   1.162   4.314   4.045
 2717SOL     OW 8710   0.300   3.923   4.968
 2717SOL    HW1 8711   0.260   3.951   5.051
 2717SOL    HW2 8712   0.287   3.829   4.966
 2718SOL     OW 8713   0.733   4.360   4.771
 2718SOL    HW1 8714   0.806   4.324   4.720
 2718SOL    HW2 8715   0.739   4.454   4.757
 2719SOL     OW 8716   1.750   0.133   5.579
 2719SOL    HW1 8717   1.687   0.149   5.509
 2719SOL    HW2 8718   1.705   0.162   5.659
 2720SOL     OW 8719   0.309   3.794   4.342
 2720SOL    HW1 8720   0.286   3.882   4.370
 2720SOL    HW2 8721   0.305   3.741   4.423
 2721SOL     OW 8722   1.613   4.091   4.093
 2721SOL    HW1 8723   1.642   4.030   4.161
 2721SOL    HW2 8724   1.590   4.171   4.140
 2722SOL     OW 8725   1.528   3.999   3.851
 2722SOL    HW1 8726   1.465   3.932   3.877
 2722SOL    HW2 8727   1.562   4.033   3.933
 2723SOL     OW 8728   0.319   0.017   4.642
 2723SOL    HW1 8729   0.401   0.066   4.649
 2723SOL    HW2 8730   0.332   4.439   4.696
 2724SOL     OW 8731   0.335   4.237   4.735
 2724SOL    HW1 8732   0.291   4.155   4.711
 2724SOL    HW2 8733   0.409   4.242   4.675
 2725SOL     OW 8734   1.138   4.094   5.409
 2725SOL    HW1 8735   1.086   4.153   5.463
 2725SOL    HW2 8736   1.222   4.138   5.400
 2726SOL     OW 8737   1.160   3.927   5.193
 2726SOL    HW1 8738   1.151   3.988   5.266
 2726SOL    HW2 8739   1.200   3.979   5.123
 2727SOL     OW 8740   0.026   4.279   4.832
 2727SOL    HW1 8741   0.110   4.257   4.793
 2727SOL    HW2 8742   0.028   4.240   4.919
 2728SOL     OW 8743   0.176   4.236   5.419
 2728SOL    HW1 8744   0.263   4.218   5.383
 2728SOL    HW2 8745   0.148   4.316   5.374
 2729SOL     OW 8746   0.819   4.285   4.069
 2729SOL    HW1 8747   0.819   4.209   4.011
 2729SOL    HW2 8748   0.730   4.320   4.064
 2730SOL     OW 8749   1.637   4.318   4.912
 2730SOL    HW1 8750   1.632   4.260   4.988
 2730SOL    HW2 8751   1.725   4.304   4.877
 2731SOL     OW 8752   0.676   4.186   4.983
 2731SOL    HW1 8753   0.638   4.105   4.948
 2731SOL    HW2 8754   0.685   4.243   4.906
 2732SOL     OW 8755   0.486   4.223   3.913
 2732SOL    HW1 8756   0.517   4.309   3.939
 2732SOL    HW2 8757   0.392   4.235   3.897
 2733SOL     OW 8758   1.720   3.868   4.236
 2733SOL    HW1 8759   1.792   3.854   4.175
 2733SOL    HW2 8760   1.704   3.782   4.275
 2734SOL     OW 8761   1.280   0.137   4.403
 2734SOL    HW1 8762   1.338   0.062   4.411
 2734SOL    HW2 8763   1.330   0.201   4.352
 2735SOL     OW 8764   1.839   3.897   4.692
 2735SOL    HW1 8765   1.868   3.810   4.663
 2735SOL    HW2 8766   1.753   3.908   4.651
 2736SOL     OW 8767   0.268   4.041   4.445
 2736SOL    HW1 8768   0.190   4.089   4.415
 2736SOL    HW2 8769   0.255   4.030   4.539
 2737SOL     OW 8770   0.908   0.093   3.945
 2737SOL    HW1 8771   0.990   0.132   3.916
 2737SOL    HW2 8772   0.930   0.052   4.029
 2738SOL     OW 8773   1.066   0.301   4.464
 2738SOL    HW1 8774   0.987   0.286   4.413
 2738SOL    HW2 8775   1.129   0.237   4.431
 2739SOL     OW 8776   1.020   3.964   4.689
 2739SOL    HW1 8777   1.015   3.916   4.607
 2739SOL    HW2 8778   1.015   3.896   4.757
 2740SOL     OW 8779   1.720   4.114   5.104
 2740SOL    HW1 8780   1.791   4.178   5.102
 2740SOL    HW2 8781   1.750   4.043   5.048
 2741SOL     OW 8782   0.673   3.922   5.223
 2741SOL    HW1 8783   0.757   3.902   5.181
 2741SOL    HW2 8784   0.697   3.951   5.311
 2742SOL     OW 8785   0.068   4.045   3.758
 2742SOL    HW1 8786   4.474   4.063   3.750
 2742SOL    HW2 8787   0.110   4.130   3.744
 2743SOL     OW 8788   0.086   3.902   4.030
 2743SOL    HW1 8789   0.076   3.970   3.964
 2743SOL    HW2 8790   0.161   3.850   4.001
 2744SOL     OW 8791   0.725   4.284   5.425
 2744SOL    HW1 8792   0.729   4.333   5.507
 2744SOL    HW2 8793   0.751   4.195   5.449
 2745SOL     OW 8794   1.219   4.043   4.179
 2745SOL    HW1 8795   1.281   3.971   4.170
 2745SOL    HW2 8796   1.247   4.090   4.257
 2746SOL     OW 8797   1.762   4.088   5.372
 2746SOL    HW1 8798   1.744   4.099   5.278
 2746SOL    HW2 8799   1.692   4.031   5.403
 2747SOL     OW 8800   1.110   0.228   3.828
 2747SOL    HW1 8801   1.093   0.270   3.743
 2747SOL    HW2 8802   1.193   0.181   3.815
 2748SOL     OW 8803   1.814   3.908   4.962
 2748SOL    HW1 8804   1.824   3.814   4.976
 2748SOL    HW2 8805   1.822   3.919   4.867
 2749SOL     OW 8806   0.451   4.153   4.260
 2749SOL    HW1 8807   0.463   4.079   4.200
 2749SOL    HW2 8808   0.391   4.120   4.327
 2750SOL     OW 8809   0.322   4.259   5.000
 2750SOL    HW1 8810   0.375   4.193   5.044
 2750SOL    HW2 8811   0.334   4.242   4.907
 2751SOL     OW 8812   1.432   3.948   4.842
 2751SOL    HW1 8813   1.458   3.869   4.889
 2751SOL    HW2 8814   1.380   3.997   4.905
 2752SOL     OW 8815   1.008   3.744   4.868
 2752SOL    HW1 8816   0.954   3.676   4.829
 2752SOL    HW2 8817   1.096   3.706   4.870
 2753SOL     OW 8818   1.352   3.777   3.888
 2753SOL    HW1 8819   1.379   3.716   3.820
 2753SOL    HW2 8820   1.265   3.747   3.915
 2754SOL     OW 8821   1.299   4.176   4.406
 2754SOL    HW1 8822   1.260   4.262   4.420
 2754SOL    HW2 8823   1.299   4.135   4.492
 2755SOL     OW 8824   1.587   3.928   4.601
 2755SOL    HW1 8825   1.525   3.948   4.671
 2755SOL    HW2 8826   1.587   4.006   4.546
 2756SOL     OW 8827   0.231   4.283   5.696
 2756SOL    HW1 8828   0.164   4.317   5.756
 2756SOL    HW2 8829   0.214   4.328   5.614
 2757SOL     OW 8830   0.210   3.996   6.577
 2757SOL    HW1 8831   0.246   3.969   6.662
 2757SOL    HW2 8832   0.134   3.939   6.564
 2758SOL     OW 8833   0.000   4.099   6.217
 2758SOL    HW1 8834   4.420   4.130   6.260
 2758SOL    HW2 8835   4.475   4.017   6.175
 2759SOL     OW 8836   1.731   4.335   5.823
 2759SOL    HW1 8837   1.732   4.322   5.728
 2759SOL    HW2 8838   1.733   4.246   5.860
 2760SOL     OW 8839   0.728   0.268   6.269
 2760SOL    HW1 8840   0.719   0.208   6.343
 2760SOL    HW2 8841   0.638   0.288   6.244
 2761SOL     OW 8842   0.444   4.120   7.075
 2761SOL    HW1 8843   0.525   4.069   7.077
 2761SOL    HW2 8844   0.374   4.055   7.085
 2762SOL     OW 8845   1.615   4.173   6.325
 2762SOL    HW1 8846   1.545   4.198   6.266
 2762SOL    HW2 8847   1.618   4.243   6.390
 2763SOL     OW 8848   1.597   3.846   7.055
 2763SOL    HW1 8849   1.597   3.926   7.003
 2763SOL    HW2 8850   1.583   3.876   7.145
 2764SOL     OW 8851   0.165   4.323   6.219
 2764SOL    HW1 8852   0.105   4.251   6.200
 2764SOL    HW2 8853   0.118   4.401   6.189
 2765SOL     OW 8854   0.119   0.001   7.175
 2765SOL    HW1 8855   0.214   4.485   7.176
 2765SOL    HW2 8856   0.110   0.086   7.132
 2766SOL     OW 8857   0.815   3.723   6.093
 2766SOL    HW1 8858   0.854   3.809   6.076
 2766SOL    HW2 8859   0.721   3.742   6.103
 2767SOL     OW 8860   0.329   3.979   7.384
 2767SOL    HW1 8861   0.375   4.057   7.415
 2767SOL    HW2 8862   0.241   3.988   7.419
 2768SOL     OW 8863   1.278   4.071   6.518
 2768SOL    HW1 8864   1.188   4.038   6.528
 2768SOL    HW2 8865   1.329   4.020   6.580
 2769SOL     OW 8866   0.826   4.306   7.034
 2769SOL    HW1 8867   0.786   4.311   7.121
 2769SOL    HW2 8868   0.759   4.267   6.979
 2770SOL     OW 8869   1.396   4.199   7.262
 2770SOL    HW1 8870   1.397   4.243   7.348
 2770SOL    HW2 8871   1.454   4.125   7.273
 2771SOL     OW 8872   0.997   4.149   6.819
 2771SOL    HW1 8873   0.925   4.169   6.879
 2771SOL    HW2 8874   0.959   4.090   6.755
 2772SOL     OW 8875   1.057   4.410   6.005
 2772SOL    HW1 8876   1.055   4.448   6.092
 2772SOL    HW2 8877   0.969   4.373   5.993
 2773SOL     OW 8878   0.054   0.057   6.435
 2773SOL    HW1 8879   0.144   0.025   6.440
 2773SOL    HW2 8880   0.049   0.103   6.351
 2774SOL     OW 8881   0.889   4.063   5.777
 2774SOL    HW1 8882   0.931   4.126   5.718
 2774SOL    HW2 8883   0.906   3.978   5.738
 2775SOL     OW 8884   1.707   4.298   7.415
 2775SOL    HW1 8885   1.718   4.387   7.381
 2775SOL    HW2 8886   1.730   4.241   7.341
 2776SOL     OW 8887   0.552   3.906   6.478
 2776SOL    HW1 8888   0.554   3.936   6.569
 2776SOL    HW2 8889   0.547   3.987   6.427
 2777SOL     OW 8890   1.489   4.464   6.323
 2777SOL    HW1 8891   1.471   4.409   6.400
 2777SOL    HW2 8892   1.530   0.043   6.360
 2778SOL     OW 8893   0.189   4.000   7.072
 2778SOL    HW1 8894   0.137   4.080   7.080
 2778SOL    HW2 8895   0.184   3.959   7.158
 2779SOL     OW 8896   1.401   3.831   6.017
 2779SOL    HW1 8897   1.391   3.806   5.925
 2779SOL    HW2 8898   1.495   3.841   6.029
 2780SOL     OW 8899   0.350   4.378   5.992
 2780SOL    HW1 8900   0.396   4.306   6.034
 2780SOL    HW2 8901   0.298   4.418   6.062
 2781SOL     OW 8902   1.536   3.950   7.311
 2781SOL    HW1 8903   1.545   3.971   7.404
 2781SOL    HW2 8904   1.468   3.882   7.308
 2782SOL     OW 8905   0.634   3.850   5.689
 2782SOL    HW1 8906   0.702   3.785   5.705
 2782SOL    HW2 8907   0.585   3.816   5.614
 2783SOL     OW 8908   0.767   4.002   7.340
 2783SOL    HW1 8909   0.842   3.942   7.342
 2783SOL    HW2 8910   0.717   3.979   7.419
 2784SOL     OW 8911   1.344   4.311   7.015
 2784SOL    HW1 8912   1.366   4.274   7.100
 2784SOL    HW2 8913   1.384   4.398   7.015
 2785SOL     OW 8914   0.923   4.236   6.485
 2785SOL    HW1 8915   0.901   4.220   6.393
 2785SOL    HW2 8916   0.962   4.154   6.515
 2786SOL     OW 8917   0.551   3.786   6.089
 2786SOL    HW1 8918   0.471   3.784   6.140
 2786SOL    HW2 8919   0.543   3.865   6.034
 2787SOL     OW 8920   0.294   3.770   5.764
 2787SOL    HW1 8921   0.355   3.838   5.736
 2787SOL    HW2 8922   0.348   3.705   5.808
 2788SOL     OW 8923   0.937   3.971   6.049
 2788SOL    HW1 8924   0.910   4.009   5.965
 2788SOL    HW2 8925   1.031   3.983   6.051
 2789SOL     OW 8926   1.076   4.396   7.104
 2789SOL    HW1 8927   0.992   4.366   7.068
 2789SOL    HW2 8928   1.142   4.355   7.048
 2790SOL     OW 8929   1.025   4.267   5.611
 2790SOL    HW1 8930   1.007   4.355   5.577
 2790SOL    HW2 8931   1.088   4.281   5.682
 2791SOL     OW 8932   0.086   4.258   6.996
 2791SOL    HW1 8933   0.158   4.271   6.935
 2791SOL    HW2 8934   0.052   4.346   7.013
 2792SOL     OW 8935   0.561   3.950   6.751
 2792SOL    HW1 8936   0.600   3.870   6.785
 2792SOL    HW2 8937   0.470   3.946   6.779
 2793SOL     OW 8938   0.871   4.190   6.224
 2793SOL    HW1 8939   0.833   4.248   6.158
 2793SOL    HW2 8940   0.888   4.108   6.177
 2794SOL     OW 8941   1.015   3.777   6.338
 2794SOL    HW1 8942   0.956   3.769   6.263
 2794SOL    HW2 8943   0.994   3.701   6.393
 2795SOL     OW 8944   1.477   4.312   6.553
 2795SOL    HW1 8945   1.419   4.238   6.573
 2795SOL    HW2 8946   1.528   4.324   6.633
 2796SOL     OW 8947   1.402   4.296   5.658
 2796SOL    HW1 8948   1.340   4.269   5.727
 2796SOL    HW2 8949   1.485   4.256   5.685
 2797SOL     OW 8950   0.523   3.985   5.903
 2797SOL    HW1 8951   0.567   3.937   5.832
 2797SOL    HW2 8952   0.510   4.073   5.867
 2798SOL     OW 8953   0.917   3.823   6.983
 2798SOL    HW1 8954   0.941   3.802   6.893
 2798SOL    HW2 8955   0.997   3.861   7.020
 2799SOL     OW 8956   0.441   0.004   6.846
 2799SOL    HW1 8957   0.497   0.004   6.924
 2799SOL    HW2 8958   0.403   4.416   6.844
 2800SOL     OW 8959   1.266   4.100   6.859
 2800SOL    HW1 8960   1.300   4.177   6.905
 2800SOL    HW2 8961   1.177   4.124   6.834
 2801SOL     OW 8962   0.557   4.253   6.450
 2801SOL    HW1 8963   0.575   4.297   6.367
 2801SOL    HW2 8964   0.621   4.290   6.511
 2802SOL     OW 8965   1.570   4.339   6.062
 2802SOL    HW1 8966   1.541   4.405   6.125
 2802SOL    HW2 8967   1.629   4.387   6.004
 2803SOL     OW 8968   0.996   3.845   7.341
 2803SOL    HW1 8969   1.051   3.918   7.313
 2803SOL    HW2 8970   1.044   3.766   7.316
 2804SOL     OW 8971   0.498   3.767   7.332
 2804SOL    HW1 8972   0.457   3.711   7.267
 2804SOL    HW2 8973   0.437   3.841   7.342
 2805SOL     OW 8974   1.211   4.255   5.851
 2805SOL    HW1 8975   1.221   4.175   5.903
 2805SOL    HW2 8976   1.162   4.314   5.907
 2806SOL     OW 8977   0.300   3.923   6.830
 2806SOL    HW1 8978   0.260   3.951   6.913
 2806SOL    HW2 8979   0.287   3.828   6.828
 2807SOL     OW 8980   0.733   4.360   6.633
 2807SOL    HW1 8981   0.806   4.324   6.583
 2807SOL    HW2 8982   0.739   4.454   6.619
 2808SOL     OW 8983   1.751   0.134   7.441
 2808SOL    HW1 8984   1.687   0.148   7.371
 2808SOL    HW2 8985   1.706   0.162   7.521
 2809SOL     OW 8986   0.309   3.794   6.205
 2809SOL    HW1 8987   0.286   3.882   6.232
 2809SOL    HW2 8988   0.305   3.741   6.285
 2810SOL     OW 8989   1.613   4.091   5.955
 2810SOL    HW1 8990   1.642   4.031   6.024
 2810SOL    HW2 8991   1.590   4.171   6.002
 2811SOL     OW 8992   1.528   3.998   5.713
 2811SOL    HW1 8993   1.465   3.932   5.739
 2811SOL    HW2 8994   1.562   4.033   5.795
 2812SOL     OW 8995   0.319   0.017   6.504
 2812SOL    HW1 8996   0.401   0.066   6.511
 2812SOL    HW2 8997   0.332   4.439   6.558
 2813SOL     OW 8998   0.335   4.237   6.597
 2813SOL    HW1 8999   0.291   4.155   6.573
 2813SOL    HW2 9000   0.409   4.242   6.537
 2814SOL     OW 9001   1.138   4.095   7.270
 2814SOL    HW1 9002   1.086   4.153   7.325
 2814SOL    HW2 9003   1.222   4.138   7.262
 2815SOL     OW 9004   1.160   3.927   7.054
 2815SOL    HW1 9005   1.151   3.988   7.128
 2815SOL    HW2 9006   1.200   3.979   6.985
 2816SOL     OW 9007   0.026   4.279   6.694
 2816SOL    HW1 9008   0.110   4.257   6.655
 2816SOL    HW2 9009   0.028   4.240   6.781
 2817SOL     OW 9010   0.176   4.236   7.281
 2817SOL    HW1 9011   0.263   4.217   7.245
 2817SOL    HW2 9012   0.148   4.316   7.236
 2818SOL     OW 9013   0.819   4.286   5.930
 2818SOL    HW1 9014   0.819   4.209   5.873
 2818SOL    HW2 9015   0.730   4.320   5.926
 2819SOL     OW 9016   1.637   4.318   6.774
 2819SOL    HW1 9017   1.632   4.260   6.850
 2819SOL    HW2 9018   1.725   4.304   6.739
 2820SOL     OW 9019   0.675   4.186   6.845
 2820SOL    HW1 9020   0.638   4.105   6.811
 2820SOL    HW2 9021   0.684   4.242   6.768
 2821SOL     OW 9022   0.486   4.223   5.775
 2821SOL    HW1 9023   0.517   4.309   5.801
 2821SOL    HW2 9024   0.392   4.235   5.759
 2822SOL     OW 9025   1.719   3.868   6.098
 2822SOL    HW1 9026   1.792   3.854   6.037
 2822SOL    HW2 9027   1.704   3.782   6.137
 2823SOL     OW 9028   1.280   0.137   6.265
 2823SOL    HW1 9029   1.337   0.061   6.273
 2823SOL    HW2 9030   1.330   0.200   6.214
 2824SOL     OW 9031   1.839   3.896   6.553
 2824SOL    HW1 9032   1.868   3.809   6.524
 2824SOL    HW2 9033   1.753   3.908   6.513
 2825SOL     OW 9034   0.268   4.042   6.307
 2825SOL    HW1 9035   0.190   4.089   6.277
 2825SOL    HW2 9036   0.255   4.030   6.401
 2826SOL     OW 9037   0.908   0.093   5.807
 2826SOL    HW1 9038   0.990   0.132   5.778
 2826SOL    HW2 9039   0.929   0.052   5.891
 2827SOL     OW 9040   1.066   0.301   6.326
 2827SOL    HW1 9041   0.987   0.286   6.275
 2827SOL    HW2 9042   1.129   0.237   6.293
 2828SOL     OW 9043   1.020   3.964   6.551
 2828SOL    HW1 9044   1.015   3.915   6.469
 2828SOL    HW2 9045   1.015   3.896   6.619
 2829SOL     OW 9046   1.720   4.114   6.966
 2829SOL    HW1 9047   1.791   4.178   6.964
 2829SOL    HW2 9048   1.750   4.043   6.910
 2830SOL     OW 9049   0.673   3.922   7.085
 2830SOL    HW1 9050   0.757   3.902   7.043
 2830SOL    HW2 9051   0.697   3.951   7.173
 2831SOL     OW 9052   0.068   4.045   5.619
 2831SOL    HW1 9053   4.474   4.063   5.612
 2831SOL    HW2 9054   0.110   4.130   5.606
 2832SOL     OW 9055   0.086   3.902   5.892
 2832SOL    HW1 9056   0.076   3.970   5.825
 2832SOL    HW2 9057   0.161   3.850   5.863
 2833SOL     OW 9058   0.725   4.284   7.287
 2833SOL    HW1 9059   0.729   4.333   7.369
 2833SOL    HW2 9060   0.750   4.195   7.310
 2834SOL     OW 9061   1.219   4.043   6.040
 2834SOL    HW1 9062   1.281   3.971   6.032
 2834SOL    HW2 9063   1.247   4.090   6.119
 2835SOL     OW 9064   1.761   4.089   7.234
 2835SOL    HW1 9065   1.744   4.099   7.140
 2835SOL    HW2 9066   1.692   4.031   7.265
 2836SOL     OW 9067   1.110   0.228   5.690
 2836SOL    HW1 9068   1.093   0.270   5.605
 2836SOL    HW2 9069   1.193   0.181   5.677
 2837SOL     OW 9070   1.815   3.909   6.824
 2837SOL    HW1 9071   1.823   3.815   6.839
 2837SOL    HW2 9072   1.822   3.919   6.729
 2838SOL     OW 9073   0.451   4.153   6.122
 2838SOL    HW1 9074   0.463   4.079   6.062
 2838SOL    HW2 9075   0.391   4.120   6.189
 2839SOL     OW 9076   0.322   4.259   6.862
 2839SOL    HW1 9077   0.375   4.193   6.906
 2839SOL    HW2 9078   0.334   4.242   6.769
 2840SOL     OW 9079   1.432   3.948   6.704
 2840SOL    HW1 9080   1.458   3.869   6.751
 2840SOL    HW2 9081   1.380   3.997   6.767
 2841SOL     OW 9082   1.009   3.744   6.730
 2841SOL    HW1 9083   0.954   3.676   6.692
 2841SOL    HW2 9084   1.096   3.706   6.732
 2842SOL     OW 9085   1.352   3.777   5.750
 2842SOL    HW1 9086   1.377   3.717   5.680
 2842SOL    HW2 9087   1.265   3.747   5.778
 2843SOL     OW 9088   1.300   4.176   6.268
 2843SOL    HW1 9089   1.259   4.261   6.282
 2843SOL    HW2 9090   1.299   4.134   6.354
 2844SOL     OW 9091   1.587   3.928   6.463
 2844SOL    HW1 9092   1.525   3.948   6.534
 2844SOL    HW2 9093   1.587   4.006   6.408
 2845SOL     OW 9094   0.231   4.283   7.558
 2845SOL    HW1 9095   0.164   4.317   7.618
 2845SOL    HW2 9096   0.214   4.327   7.475
 2846SOL     OW 9097   0.210   3.996   8.439
 2846SOL    HW1 9098   0.246   3.969   8.524
 2846SOL    HW2 9099   0.134   3.939   8.426
 2847SOL     OW 9100   0.000   4.099   8.079
 2847SOL    HW1 9101   4.420   4.130   8.122
 2847SOL    HW2 9102   4.475   4.017   8.037
 2848SOL     OW 9103   1.732   4.335   7.685
 2848SOL    HW1 9104   1.732   4.322   7.590
 2848SOL    HW2 9105   1.732   4.246   7.722
 2849SOL     OW 9106   0.728   0.268   8.131
 2849SOL    HW1 9107   0.719   0.208   8.205
 2849SOL    HW2 9108   0.637   0.288   8.106
 2850SOL     OW 9109   0.444   4.120   8.937
 2850SOL    HW1 9110   0.525   4.069   8.939
 2850SOL    HW2 9111   0.375   4.055   8.947
 2851SOL     OW 9112   1.615   4.173   8.187
 2851SOL    HW1 9113   1.545   4.198   8.128
 2851SOL    HW2 9114   1.618   4.243   8.252
 2852SOL     OW 9115   1.597   3.846   8.917
 2852SOL    HW1 9116   1.597   3.926   8.865
 2852SOL    HW2 9117   1.583   3.876   9.007
 2853SOL     OW 9118   0.164   4.323   8.081
 2853SOL    HW1 9119   0.105   4.251   8.062
 2853SOL    HW2 9120   0.118   4.401   8.051
 2854SOL     OW 9121   0.119   0.001   9.037
 2854SOL    HW1 9122   0.214   4.485   9.038
 2854SOL    HW2 9123   0.110   0.086   8.994
 2855SOL     OW 9124   0.815   3.724   7.955
 2855SOL    HW1 9125   0.854   3.809   7.938
 2855SOL    HW2 9126   0.721   3.742   7.965
 2856SOL     OW 9127   0.329   3.979   9.245
 2856SOL    HW1 9128   0.375   4.057   9.277
 2856SOL    HW2 9129   0.241   3.988   9.281
 2857SOL     OW 9130   1.278   4.071   8.380
 2857SOL    HW1 9131   1.188   4.038   8.390
 2857SOL    HW2 9132   1.329   4.020   8.442
 2858SOL     OW 9133   0.826   4.306   8.897
 2858SOL    HW1 9134   0.786   4.311   8.983
 2858SOL    HW2 9135   0.758   4.267   8.841
 2859SOL     OW 9136   1.396   4.199   9.124
 2859SOL    HW1 9137   1.397   4.243   9.210
 2859SOL    HW2 9138   1.454   4.125   9.135
 2860SOL     OW 9139   0.997   4.149   8.681
 2860SOL    HW1 9140   0.925   4.169   8.741
 2860SOL    HW2 9141   0.959   4.090   8.617
 2861SOL     OW 9142   1.057   4.410   7.866
 2861SOL    HW1 9143   1.055   4.448   7.954
 2861SOL    HW2 9144   0.969   4.373   7.855
 2862SOL     OW 9145   0.054   0.057   8.297
 2862SOL    HW1 9146   0.143   0.025   8.302
 2862SOL    HW2 9147   0.049   0.103   8.213
 2863SOL     OW 9148   0.889   4.063   7.639
 2863SOL    HW1 9149   0.931   4.126   7.580
 2863SOL    HW2 9150   0.907   3.978   7.600
 2864SOL     OW 9151   1.707   4.298   9.277
 2864SOL    HW1 9152   1.718   4.387   9.243
 2864SOL    HW2 9153   1.730   4.241   9.203
 2865SOL     OW 9154   0.552   3.906   8.340
 2865SOL    HW1 9155   0.554   3.936   8.431
 2865SOL    HW2 9156   0.548   3.987   8.289
 2866SOL     OW 9157   1.489   4.464   8.185
 2866SOL    HW1 9158   1.471   4.409   8.261
 2866SOL    HW2 9159   1.530   0.043   8.222
 2867SOL     OW 9160   0.189   4.000   8.934
 2867SOL    HW1 9161   0.137   4.080   8.942
 2867SOL    HW2 9162   0.184   3.959   9.020
 2868SOL     OW 9163   1.401   3.831   7.879
 2868SOL    HW1 9164   1.390   3.806   7.787
 2868SOL    HW2 9165   1.495   3.839   7.891
 2869SOL     OW 9166   0.350   4.378   7.854
 2869SOL    HW1 9167   0.396   4.306   7.896
 2869SOL    HW2 9168   0.298   4.418   7.924
 2870SOL     OW 9169   1.536   3.950   9.173
 2870SOL    HW1 9170   1.545   3.971   9.266
 2870SOL    HW2 9171   1.468   3.882   9.170
 2871SOL     OW 9172   0.634   3.850   7.551
 2871SOL    HW1 9173   0.702   3.785   7.567
 2871SOL    HW2 9174   0.585   3.816   7.476
 2872SOL     OW 9175   0.767   4.002   9.202
 2872SOL    HW1 9176   0.842   3.942   9.204
 2872SOL    HW2 9177   0.717   3.980   9.281
 2873SOL     OW 9178   1.344   4.311   8.877
 2873SOL    HW1 9179   1.366   4.274   8.962
 2873SOL    HW2 9180   1.384   4.398   8.877
 2874SOL     OW 9181   0.923   4.236   8.347
 2874SOL    HW1 9182   0.901   4.220   8.255
 2874SOL    HW2 9183   0.962   4.154   8.377
 2875SOL     OW 9184   0.551   3.786   7.951
 2875SOL    HW1 9185   0.471   3.784   8.002
 2875SOL    HW2 9186   0.543   3.865   7.896
 2876SOL     OW 9187   0.294   3.770   7.626
 2876SOL    HW1 9188   0.355   3.837   7.598
 2876SOL    HW2 9189   0.348   3.705   7.670
 2877SOL     OW 9190   0.937   3.971   7.911
 2877SOL    HW1 9191   0.910   4.009   7.827
 2877SOL    HW2 9192   1.032   3.983   7.913
 2878SOL     OW 9193   1.076   4.396   8.966
 2878SOL    HW1 9194   0.993   4.366   8.930
 2878SOL    HW2 9195   1.142   4.355   8.910
 2879SOL     OW 9196   1.025   4.267   7.473
 2879SOL    HW1 9197   1.007   4.355   7.439
 2879SOL    HW2 9198   1.088   4.281   7.544
 2880SOL     OW 9199   0.085   4.258   8.858
 2880SOL    HW1 9200   0.159   4.271   8.797
 2880SOL    HW2 9201   0.053   4.346   8.875
 2881SOL     OW 9202   0.561   3.950   8.613
 2881SOL    HW1 9203   0.600   3.870   8.647
 2881SOL    HW2 9204   0.470   3.946   8.641
 2882SOL     OW 9205   0.871   4.190   8.086
 2882SOL    HW1 9206   0.833   4.248   8.020
 2882SOL    HW2 9207   0.888   4.108   8.039
 2883SOL     OW 9208   1.014   3.777   8.200
 2883SOL    HW1 9209   0.956   3.769   8.125
 2883SOL    HW2 9210   0.994   3.701   8.255
 2884SOL     OW 9211   1.477   4.312   8.415
 2884SOL    HW1 9212   1.419   4.238   8.435
 2884SOL    HW2 9213   1.528   4.324   8.495
 2885SOL     OW 9214   1.402   4.296   7.521
 2885SOL    HW1 9215   1.340   4.269   7.588
 2885SOL    HW2 9216   1.485   4.255   7.546
 2886SOL     OW 9217   0.523   3.985   7.765
 2886SOL    HW1 9218   0.567   3.937   7.695
 2886SOL    HW2 9219   0.510   4.073   7.729
 2887SOL     OW 9220   0.917   3.823   8.845
 2887SOL    HW1 9221   0.941   3.802   8.755
 2887SOL    HW2 9222   0.997   3.861   8.882
 2888SOL     OW 9223   0.441   0.004   8.708
 2888SOL    HW1 9224   0.497   0.004   8.786
 2888SOL    HW2 9225   0.403   4.416   8.706
 2889SOL     OW 9226   1.266   4.100   8.722
 2889SOL    HW1 9227   1.300   4.177   8.767
 2889SOL    HW2 9228   1.177   4.124   8.696
 2890SOL     OW 9229   0.557   4.254   8.312
 2890SOL    HW1 9230   0.575   4.297   8.229
 2890SOL    HW2 9231   0.621   4.290   8.373
 2891SOL     OW 9232   1.570   4.340   7.925
 2891SOL    HW1 9233   1.541   4.406   7.987
 2891SOL    HW2 9234   1.629   4.387   7.866
 2892SOL     OW 9235   0.996   3.845   9.203
 2892SOL    HW1 9236   1.051   3.918   9.175
 2892SOL    HW2 9237   1.044   3.766   9.178
 2893SOL     OW 9238   0.498   3.767   9.194
 2893SOL    HW1 9239   0.457   3.711   9.129
 2893SOL    HW2 9240   0.437   3.841   9.204
 2894SOL     OW 9241   1.211   4.255   7.713
 2894SOL    HW1 9242   1.221   4.175   7.765
 2894SOL    HW2 9243   1.162   4.314   7.769
 2895SOL     OW 9244   0.300   3.923   8.692
 2895SOL    HW1 9245   0.260   3.951   8.775
 2895SOL    HW2 9246   0.287   3.828   8.690
 2896SOL     OW 9247   0.733   4.360   8.495
 2896SOL    HW1 9248   0.806   4.323   8.445
 2896SOL    HW2 9249   0.739   4.454   8.481
 2897SOL     OW 9250   1.751   0.134   9.303
 2897SOL    HW1 9251   1.687   0.148   9.233
 2897SOL    HW2 9252   1.706   0.162   9.383
 2898SOL     OW 9253   0.309   3.793   8.066
 2898SOL    HW1 9254   0.286   3.882   8.094
 2898SOL    HW2 9255   0.305   3.741   8.147
 2899SOL     OW 9256   1.613   4.091   7.817
 2899SOL    HW1 9257   1.642   4.030   7.885
 2899SOL    HW2 9258   1.590   4.171   7.864
 2900SOL     OW 9259   1.528   3.999   7.575
 2900SOL    HW1 9260   1.465   3.932   7.601
 2900SOL    HW2 9261   1.562   4.033   7.658
 2901SOL     OW 9262   0.319   0.017   8.366
 2901SOL    HW1 9263   0.401   0.066   8.373
 2901SOL    HW2 9264   0.332   4.439   8.420
 2902SOL     OW 9265   0.335   4.237   8.459
 2902SOL    HW1 9266   0.291   4.155   8.435
 2902SOL    HW2 9267   0.409   4.242   8.399
 2903SOL     OW 9268   1.138   4.095   9.132
 2903SOL    HW1 9269   1.086   4.153   9.187
 2903SOL    HW2 9270   1.222   4.138   9.124
 2904SOL     OW 9271   1.160   3.927   8.917
 2904SOL    HW1 9272   1.151   3.988   8.990
 2904SOL    HW2 9273   1.200   3.979   8.847
 2905SOL     OW 9274   0.025   4.279   8.555
 2905SOL    HW1 9275   0.110   4.258   8.517
 2905SOL    HW2 9276   0.028   4.241   8.643
 2906SOL     OW 9277   0.176   4.236   9.142
 2906SOL    HW1 9278   0.263   4.218   9.107
 2906SOL    HW2 9279   0.149   4.316   9.098
 2907SOL     OW 9280   0.819   4.286   7.792
 2907SOL    HW1 9281   0.819   4.209   7.735
 2907SOL    HW2 9282   0.730   4.320   7.788
 2908SOL     OW 9283   1.637   4.318   8.636
 2908SOL    HW1 9284   1.632   4.260   8.712
 2908SOL    HW2 9285   1.725   4.304   8.601
 2909SOL     OW 9286   0.675   4.186   8.707
 2909SOL    HW1 9287   0.638   4.105   8.673
 2909SOL    HW2 9288   0.685   4.243   8.630
 2910SOL     OW 9289   0.486   4.223   7.637
 2910SOL    HW1 9290   0.517   4.309   7.663
 2910SOL    HW2 9291   0.392   4.235   7.621
 2911SOL     OW 9292   1.720   3.868   7.960
 2911SOL    HW1 9293   1.792   3.854   7.899
 2911SOL    HW2 9294   1.704   3.782   7.999
 2912SOL     OW 9295   1.279   0.137   8.127
 2912SOL    HW1 9296   1.337   0.061   8.136
 2912SOL    HW2 9297   1.330   0.200   8.076
 2913SOL     OW 9298   1.839   3.897   8.415
 2913SOL    HW1 9299   1.868   3.810   8.387
 2913SOL    HW2 9300   1.753   3.908   8.375
 2914SOL     OW 9301   0.268   4.041   8.169
 2914SOL    HW1 9302   0.190   4.089   8.139
 2914SOL    HW2 9303   0.255   4.030   8.263
 2915SOL     OW 9304   0.908   0.093   7.669
 2915SOL    HW1 9305   0.990   0.132   7.640
 2915SOL    HW2 9306   0.930   0.052   7.753
 2916SOL     OW 9307   1.066   0.301   8.188
 2916SOL    HW1 9308   0.987   0.286   8.137
 2916SOL    HW2 9309   1.129   0.237   8.155
 2917SOL     OW 9310   1.019   3.964   8.413
 2917SOL    HW1 9311   1.015   3.915   8.331
 2917SOL    HW2 9312   1.015   3.896   8.481
 2918SOL     OW 9313   1.720   4.114   8.828
 2918SOL    HW1 9314   1.791   4.178   8.825
 2918SOL    HW2 9315   1.750   4.043   8.772
 2919SOL     OW 9316   0.673   3.922   8.947
 2919SOL    HW1 9317   0.757   3.902   8.905
 2919SOL    HW2 9318   0.697   3.951   9.035
 2920SOL     OW 9319   0.068   4.045   7.482
 2920SOL    HW1 9320   4.474   4.063   7.474
 2920SOL    HW2 9321   0.110   4.130   7.468
 2921SOL     OW 9322   0.086   3.902   7.754
 2921SOL    HW1 9323   0.076   3.970   7.687
 2921SOL    HW2 9324   0.161   3.850   7.725
 2922SOL     OW 9325   0.725   4.284   9.149
 2922SOL    HW1 9326   0.730   4.333   9.231
 2922SOL    HW2 9327   0.750   4.195   9.172
 2923SOL     OW 9328   1.219   4.043   7.902
 2923SOL    HW1 9329   1.281   3.971   7.894
 2923SOL    HW2 9330   1.248   4.090   7.981
 2924SOL     OW 9331   1.761   4.089   9.096
 2924SOL    HW1 9332   1.744   4.099   9.002
 2924SOL    HW2 9333   1.692   4.031   9.127
 2925SOL     OW 9334   1.110   0.228   7.552
 2925SOL    HW1 9335   1.093   0.270   7.467
 2925SOL    HW2 9336   1.193   0.181   7.539
 2926SOL     OW 9337   1.815   3.909   8.686
 2926SOL    HW1 9338   1.823   3.814   8.701
 2926SOL    HW2 9339   1.823   3.919   8.591
 2927SOL     OW 9340   0.451   4.153   7.984
 2927SOL    HW1 9341   0.463   4.079   7.924
 2927SOL    HW2 9342   0.391   4.120   8.051
 2928SOL     OW 9343   0.322   4.259   8.724
 2928SOL    HW1 9344   0.375   4.193   8.768
 2928SOL    HW2 9345   0.334   4.242   8.631
 2929SOL     OW 9346   1.432   3.948   8.566
 2929SOL    HW1 9347   1.458   3.869   8.612
 2929SOL    HW2 9348   1.380   3.997   8.629
 2930SOL     OW 9349   1.008   3.744   8.592
 2930SOL    HW1 9350   0.954   3.676   8.553
 2930SOL    HW2 9351   1.096   3.706   8.594
 2931SOL     OW 9352   1.352   3.777   7.612
 2931SOL    HW1 9353   1.379   3.715   7.545
 2931SOL    HW2 9354   1.265   3.747   7.639
 2932SOL     OW 9355   1.300   4.176   8.130
 2932SOL    HW1 9356   1.259   4.261   8.144
 2932SOL    HW2 9357   1.299   4.134   8.216
 2933SOL     OW 9358   1.587   3.928   8.325
 2933SOL    HW1 9359   1.525   3.948   8.395
 2933SOL    HW2 9360   1.587   4.006   8.270
 2934SOL     OW 9361   0.231   4.283   9.420
 2934SOL    HW1 9362   0.164   4.317   9.480
 2934SOL    HW2 9363   0.214   4.328   9.338
 2935SOL     OW 9364   0.212   3.996  10.301
 2935SOL    HW1 9365   0.247   3.970  10.386
 2935SOL    HW2 9366   0.134   3.941  10.289
 2936SOL     OW 9367   0.000   4.099   9.941
 2936SOL    HW1 9368   4.420   4.130   9.984
 2936SOL    HW2 9369   4.475   4.017   9.899
 2937SOL     OW 9370   1.732   4.335   9.547
 2937SOL    HW1 9371   1.732   4.322   9.452
 2937SOL    HW2 9372   1.732   4.246   9.584
 2938SOL     OW 9373   0.728   0.268   9.993
 2938SOL    HW1 9374   0.720   0.208  10.067
 2938SOL    HW2 9375   0.637   0.288   9.969
 2939SOL     OW 9376   0.446   4.124  10.792
 2939SOL    HW1 9377   0.525   4.070  10.799
 2939SOL    HW2 9378   0.374   4.066  10.815
 2940SOL     OW 9379   1.615   4.173  10.049
 2940SOL    HW1 9380   1.545   4.198   9.990
 2940SOL    HW2 9381   1.619   4.243  10.114
 2941SOL     OW 9382   1.589   3.840  10.779
 2941SOL    HW1 9383   1.600   3.920  10.728
 2941SOL    HW2 9384   1.589   3.869  10.870
 2942SOL     OW 9385   0.165   4.322   9.943
 2942SOL    HW1 9386   0.105   4.250   9.924
 2942SOL    HW2 9387   0.118   4.401   9.913
 2943SOL     OW 9388   0.101   4.487  10.936
 2943SOL    HW1 9389   0.195   4.474  10.946
 2943SOL    HW2 9390   0.093   0.071  10.890
 2944SOL     OW 9391   0.815   3.723   9.817
 2944SOL    HW1 9392   0.854   3.809   9.800
 2944SOL    HW2 9393   0.721   3.742   9.827
 2945SOL     OW 9394   0.339   3.985   0.008
 2945SOL    HW1 9395   0.384   4.065   0.035
 2945SOL    HW2 9396   0.246   4.005   0.016
 2946SOL     OW 9397   1.278   4.072  10.243
 2946SOL    HW1 9398   1.188   4.038  10.252
 2946SOL    HW2 9399   1.329   4.020  10.304
 2947SOL     OW 9400   0.824   4.301  10.764
 2947SOL    HW1 9401   0.778   4.314  10.847
 2947SOL    HW2 9402   0.758   4.264  10.705
 2948SOL     OW 9403   0.997   4.148  10.545
 2948SOL    HW1 9404   0.922   4.169  10.601
 2948SOL    HW2 9405   0.961   4.091  10.477
 2949SOL     OW 9406   1.057   4.410   9.729
 2949SOL    HW1 9407   1.055   4.448   9.816
 2949SOL    HW2 9408   0.969   4.373   9.717
 2950SOL     OW 9409   0.053   0.056  10.158
 2950SOL    HW1 9410   0.143   0.024  10.165
 2950SOL    HW2 9411   0.051   0.104  10.075
 2951SOL     OW 9412   0.889   4.063   9.501
 2951SOL    HW1 9413   0.931   4.126   9.442
 2951SOL    HW2 9414   0.907   3.978   9.462
 2952SOL     OW 9415   0.552   3.906  10.202
 2952SOL    HW1 9416   0.554   3.935  10.294
 2952SOL    HW2 9417   0.549   3.987  10.151
 2953SOL     OW 9418   1.490   4.464  10.047
 2953SOL    HW1 9419   1.471   4.409  10.123
 2953SOL    HW2 9420   1.530   0.043  10.084
 2954SOL     OW 9421   0.191   4.001  10.797
 2954SOL    HW1 9422   0.140   4.082  10.805
 2954SOL    HW2 9423   0.185   3.961  10.884
 2955SOL     OW 9424   1.401   3.831   9.741
 2955SOL    HW1 9425   1.391   3.806   9.649
 2955SOL    HW2 9426   1.495   3.840   9.753
 2956SOL     OW 9427   0.350   4.378   9.715
 2956SOL    HW1 9428   0.395   4.306   9.757
 2956SOL    HW2 9429   0.298   4.418   9.786
 2957SOL     OW 9430   0.633   3.850   9.413
 2957SOL    HW1 9431   0.702   3.786   9.429
 2957SOL    HW2 9432   0.585   3.816   9.338
 2958SOL     OW 9433   0.770   4.000  11.045
 2958SOL    HW1 9434   0.835   3.941  11.083
 2958SOL    HW2 9435   0.707   4.015   0.016
 2959SOL     OW 9436   1.352   4.308  10.744
 2959SOL    HW1 9437   1.373   4.288  10.835
 2959SOL    HW2 9438   1.376   4.400  10.733
 2960SOL     OW 9439   0.924   4.236  10.209
 2960SOL    HW1 9440   0.901   4.221  10.117
 2960SOL    HW2 9441   0.962   4.154  10.238
 2961SOL     OW 9442   0.551   3.786   9.813
 2961SOL    HW1 9443   0.471   3.784   9.864
 2961SOL    HW2 9444   0.543   3.865   9.758
 2962SOL     OW 9445   0.294   3.770   9.488
 2962SOL    HW1 9446   0.355   3.837   9.460
 2962SOL    HW2 9447   0.348   3.705   9.532
 2963SOL     OW 9448   0.937   3.971   9.773
 2963SOL    HW1 9449   0.910   4.009   9.689
 2963SOL    HW2 9450   1.032   3.983   9.775
 2964SOL     OW 9451   1.079   4.384  10.818
 2964SOL    HW1 9452   0.992   4.363  10.784
 2964SOL    HW2 9453   1.140   4.343  10.756
 2965SOL     OW 9454   1.025   4.268   9.335
 2965SOL    HW1 9455   1.007   4.355   9.301
 2965SOL    HW2 9456   1.088   4.281   9.406
 2966SOL     OW 9457   0.082   4.255  10.721
 2966SOL    HW1 9458   0.156   4.263  10.660
 2966SOL    HW2 9459   0.053   4.345  10.734
 2967SOL     OW 9460   0.560   3.950  10.474
 2967SOL    HW1 9461   0.600   3.871  10.510
 2967SOL    HW2 9462   0.469   3.946  10.503
 2968SOL     OW 9463   0.871   4.190   9.948
 2968SOL    HW1 9464   0.833   4.248   9.882
 2968SOL    HW2 9465   0.888   4.108   9.900
 2969SOL     OW 9466   1.014   3.777  10.062
 2969SOL    HW1 9467   0.956   3.769   9.987
 2969SOL    HW2 9468   0.994   3.701  10.117
 2970SOL     OW 9469   1.477   4.312  10.276
 2970SOL    HW1 9470   1.420   4.238  10.296
 2970SOL    HW2 9471   1.528   4.324  10.356
 2971SOL     OW 9472   1.402   4.296   9.383
 2971SOL    HW1 9473   1.340   4.269   9.450
 2971SOL    HW2 9474   1.485   4.255   9.408
 2972SOL     OW 9475   0.523   3.984   9.627
 2972SOL    HW1 9476   0.567   3.937   9.556
 2972SOL    HW2 9477   0.510   4.073   9.591
 2973SOL     OW 9478   0.918   3.823  10.707
 2973SOL    HW1 9479   0.942   3.802  10.616
 2973SOL    HW2 9480   0.996   3.863  10.744
 2974SOL     OW 9481   0.446   4.498  10.557
 2974SOL    HW1 9482   0.498   0.009  10.636
 2974SOL    HW2 9483   0.391   4.422  10.574
 2975SOL     OW 9484   1.266   4.100  10.586
 2975SOL    HW1 9485   1.302   4.177  10.630
 2975SOL    HW2 9486   1.178   4.125  10.559
 2976SOL     OW 9487   0.561   4.250  10.171
 2976SOL    HW1 9488   0.578   4.299  10.090
 2976SOL    HW2 9489   0.622   4.288  10.235
 2977SOL     OW 9490   1.570   4.340   9.786
 2977SOL    HW1 9491   1.541   4.406   9.850
 2977SOL    HW2 9492   1.630   4.387   9.728
 2978SOL     OW 9493   0.488   0.000  10.999
 2978SOL    HW1 9494   0.478   0.048  10.917
 2978SOL    HW2 9495   0.488   4.408  10.973
 2979SOL     OW 9496   1.211   4.255   9.575
 2979SOL    HW1 9497   1.221   4.175   9.627
 2979SOL    HW2 9498   1.162   4.314   9.631
 2980SOL     OW 9499   0.300   3.921  10.553
 2980SOL    HW1 9500   0.263   3.952  10.636
 2980SOL    HW2 9501   0.285   3.827  10.554
 2981SOL     OW 9502   0.732   4.359  10.357
 2981SOL    HW1 9503   0.806   4.324  10.306
 2981SOL    HW2 9504   0.737   4.454  10.344
 2982SOL     OW 9505   0.309   3.793   9.929
 2982SOL    HW1 9506   0.286   3.882   9.956
 2982SOL    HW2 9507   0.305   3.741  10.009
 2983SOL     OW 9508   1.613   4.091   9.679
 2983SOL    HW1 9509   1.642   4.030   9.747
 2983SOL    HW2 9510   1.590   4.171   9.726
 2984SOL     OW 9511   1.528   3.999   9.437
 2984SOL    HW1 9512   1.465   3.932   9.463
 2984SOL    HW2 9513   1.562   4.033   9.520
 2985SOL     OW 9514   0.318   0.017  10.228
 2985SOL    HW1 9515   0.400   0.066  10.237
 2985SOL    HW2 9516   0.331   4.438  10.281
 2986SOL     OW 9517   0.335   4.239  10.311
 2986SOL    HW1 9518   0.291   4.156  10.290
 2986SOL    HW2 9519   0.411   4.242  10.253
 2987SOL     OW 9520   1.157   3.933  10.781
 2987SOL    HW1 9521   1.165   3.991  10.856
 2987SOL    HW2 9522   1.197   3.980  10.709
 2988SOL     OW 9523   0.025   4.276  10.414
 2988SOL    HW1 9524   0.112   4.260  10.378
 2988SOL    HW2 9525   0.030   4.243  10.504
 2989SOL     OW 9526   1.350   0.189  10.988
 2989SOL    HW1 9527   1.416   0.256  11.004
 2989SOL    HW2 9528   1.371   0.154  10.901
 2990SOL     OW 9529   0.820   4.286   9.654
 2990SOL    HW1 9530   0.819   4.209   9.597
 2990SOL    HW2 9531   0.730   4.320   9.650
 2991SOL     OW 9532   1.637   4.318  10.497
 2991SOL    HW1 9533   1.633   4.259  10.573
 2991SOL    HW2 9534   1.725   4.306  10.462
 2992SOL     OW 9535   0.681   4.184  10.568
 2992SOL    HW1 9536   0.639   4.105  10.534
 2992SOL    HW2 9537   0.684   4.243  10.492
 2993SOL     OW 9538   0.486   4.223   9.499
 2993SOL    HW1 9539   0.517   4.309   9.525
 2993SOL    HW2 9540   0.392   4.235   9.483
 2994SOL     OW 9541   1.720   3.868   9.822
 2994SOL    HW1 9542   1.792   3.854   9.761
 2994SOL    HW2 9543   1.704   3.782   9.861
 2995SOL     OW 9544   1.280   0.137   9.989
 2995SOL    HW1 9545   1.337   0.062   9.998
 2995SOL    HW2 9546   1.330   0.200   9.938
 2996SOL     OW 9547   1.839   3.897  10.277
 2996SOL    HW1 9548   1.868   3.810  10.249
 2996SOL    HW2 9549   1.753   3.908  10.237
 2997SOL     OW 9550   0.268   4.041  10.030
 2997SOL    HW1 9551   0.191   4.090  10.002
 2997SOL    HW2 9552   0.256   4.029  10.124
 2998SOL     OW 9553   0.908   0.093   9.531
 2998SOL    HW1 9554   0.990   0.132   9.502
 2998SOL    HW2 9555   0.929   0.052   9.615
 2999SOL     OW 9556   1.067   0.302  10.050
 2999SOL    HW1 9557   0.987   0.285   9.999
 2999SOL    HW2 9558   1.129   0.237  10.017
 3000SOL     OW 9559   1.020   3.964  10.275
 3000SOL    HW1 9560   1.015   3.916  10.193
 3000SOL    HW2 9561   1.015   3.896  10.343
 3001SOL     OW 9562   1.717   4.116  10.690
 3001SOL    HW1 9563   1.789   4.179  10.691
 3001SOL    HW2 9564   1.747   4.046  10.633
 3002SOL     OW 9565   0.673   3.920  10.804
 3002SOL    HW1 9566   0.755   3.899  10.758
 3002SOL    HW2 9567   0.701   3.955  10.888
 3003SOL     OW 9568   0.068   4.045   9.344
 3003SOL    HW1 9569   4.474   4.063   9.336
 3003SOL    HW2 9570   0.110   4.130   9.330
 3004SOL     OW 9571   0.086   3.902   9.616
 3004SOL    HW1 9572   0.076   3.970   9.550
 3004SOL    HW2 9573   0.161   3.850   9.587
 3005SOL     OW 9574   0.720   4.290  11.022
 3005SOL    HW1 9575   0.753   4.344  11.093
 3005SOL    HW2 9576   0.767   4.207  11.030
 3006SOL     OW 9577   1.219   4.043   9.764
 3006SOL    HW1 9578   1.281   3.971   9.756
 3006SOL    HW2 9579   1.247   4.090   9.843
 3007SOL     OW 9580   1.754   4.051  10.954
 3007SOL    HW1 9581   1.732   4.081  10.866
 3007SOL    HW2 9582   1.671   4.056  11.002
 3008SOL     OW 9583   1.110   0.228   9.414
 3008SOL    HW1 9584   1.093   0.270   9.329
 3008SOL    HW2 9585   1.193   0.181   9.401
 3009SOL     OW 9586   1.810   3.909  10.548
 3009SOL    HW1 9587   1.822   3.815  10.563
 3009SOL    HW2 9588   1.820   3.919  10.453
 3010SOL     OW 9589   0.451   4.153   9.845
 3010SOL    HW1 9590   0.463   4.079   9.786
 3010SOL    HW2 9591   0.392   4.120   9.913
 3011SOL     OW 9592   0.313   4.239  10.575
 3011SOL    HW1 9593   0.373   4.178  10.619
 3011SOL    HW2 9594   0.334   4.231  10.482
 3012SOL     OW 9595   1.432   3.947  10.428
 3012SOL    HW1 9596   1.461   3.869  10.474
 3012SOL    HW2 9597   1.380   3.996  10.492
 3013SOL     OW 9598   1.008   3.744  10.455
 3013SOL    HW1 9599   0.954   3.676  10.414
 3013SOL    HW2 9600   1.096   3.706  10.456
 3014SOL     OW 9601   1.352   3.777   9.474
 3014SOL    HW1 9602   1.379   3.715   9.406
 3014SOL    HW2 9603   1.265   3.747   9.501
 3015SOL     OW 9604   1.299   4.176   9.992
 3015SOL    HW1 9605   1.259   4.261  10.006
 3015SOL    HW2 9606   1.299   4.135  10.078
 3016SOL     OW 9607   1.587   3.928  10.187
 3016SOL    HW1 9608   1.525   3.948  10.257
 3016SOL    HW2 9609   1.587   4.006  10.132
 3017SOL     OW 9610   2.088   0.616   0.119
 3017SOL    HW1 9611   2.001   0.620   0.159
 3017SOL    HW2 9612   2.073   0.637   0.027
 3018SOL     OW 9613   2.071   0.297   0.989
 3018SOL    HW1 9614   2.101   0.270   1.075
 3018SOL    HW2 9615   1.989   0.250   0.976
 3019SOL     OW 9616   1.869   0.384   0.638
 3019SOL    HW1 9617   1.784   0.405   0.675
 3019SOL    HW2 9618   1.853   0.309   0.581
 3020SOL     OW 9619   2.429   1.285   1.173
 3020SOL    HW1 9620   2.341   1.287   1.136
 3020SOL    HW2 9621   2.442   1.374   1.207
 3021SOL     OW 9622   3.421   1.512   0.706
 3021SOL    HW1 9623   3.378   1.492   0.789
 3021SOL    HW2 9624   3.350   1.515   0.642
 3022SOL     OW 9625   2.995   0.700   0.699
 3022SOL    HW1 9626   3.042   0.782   0.690
 3022SOL    HW2 9627   2.945   0.710   0.780
 3023SOL     OW 9628   3.637   0.602   0.218
 3023SOL    HW1 9629   3.585   0.604   0.138
 3023SOL    HW2 9630   3.598   0.533   0.271
 3024SOL     OW 9631   2.620   1.144   1.039
 3024SOL    HW1 9632   2.550   1.177   1.095
 3024SOL    HW2 9633   2.654   1.221   0.995
 3025SOL     OW 9634   2.726   0.777   1.822
 3025SOL    HW1 9635   2.713   0.848   1.884
 3025SOL    HW2 9636   2.750   0.821   1.740
 3026SOL     OW 9637   2.549   1.005   0.647
 3026SOL    HW1 9638   2.613   0.991   0.717
 3026SOL    HW2 9639   2.478   1.055   0.689
 3027SOL     OW 9640   2.571   1.151   1.810
 3027SOL    HW1 9641   2.618   1.230   1.836
 3027SOL    HW2 9642   2.488   1.183   1.776
 3028SOL     OW 9643   2.193   1.426   1.069
 3028SOL    HW1 9644   2.119   1.389   1.019
 3028SOL    HW2 9645   2.243   1.475   1.004
 3029SOL     OW 9646   3.323   1.499   1.352
 3029SOL    HW1 9647   3.371   1.581   1.363
 3029SOL    HW2 9648   3.264   1.495   1.428
 3030SOL     OW 9649   2.304   0.395   1.490
 3030SOL    HW1 9650   2.385   0.346   1.492
 3030SOL    HW2 9651   2.235   0.330   1.503
 3031SOL     OW 9652   3.474   0.447   0.738
 3031SOL    HW1 9653   3.392   0.468   0.693
 3031SOL    HW2 9654   3.493   0.525   0.791
 3032SOL     OW 9655   2.079   1.711   0.472
 3032SOL    HW1 9656   2.103   1.785   0.527
 3032SOL    HW2 9657   2.151   1.704   0.408
 3033SOL     OW 9658   2.998   1.341   1.692
 3033SOL    HW1 9659   3.038   1.337   1.779
 3033SOL    HW2 9660   2.945   1.262   1.686
 3034SOL     OW 9661   2.091   1.440   0.535
 3034SOL    HW1 9662   2.072   1.533   0.537
 3034SOL    HW2 9663   2.029   1.401   0.597
 3035SOL     OW 9664   2.118   1.090   0.891
 3035SOL    HW1 9665   2.114   1.004   0.932
 3035SOL    HW2 9666   2.060   1.145   0.944
 3036SOL     OW 9667   2.474   1.790   1.426
 3036SOL    HW1 9668   2.392   1.772   1.473
 3036SOL    HW2 9669   2.499   1.878   1.454
 3037SOL     OW 9670   2.447   0.986   0.140
 3037SOL    HW1 9671   2.487   1.042   0.073
 3037SOL    HW2 9672   2.490   1.012   0.221
 3038SOL     OW 9673   3.446   0.115   1.473
 3038SOL    HW1 9674   3.463   0.183   1.408
 3038SOL    HW2 9675   3.435   0.162   1.555
 3039SOL     OW 9676   1.977   0.652   0.559
 3039SOL    HW1 9677   1.947   0.563   0.581
 3039SOL    HW2 9678   1.969   0.701   0.641
 3040SOL     OW 9679   3.704   1.760   0.335
 3040SOL    HW1 9680   3.765   1.730   0.401
 3040SOL    HW2 9681   3.730   1.850   0.316
 3041SOL     OW 9682   1.908   1.602   0.120
 3041SOL    HW1 9683   1.879   1.513   0.142
 3041SOL    HW2 9684   1.878   1.656   0.193
 3042SOL     OW 9685   3.552   0.919   0.640
 3042SOL    HW1 9686   3.637   0.880   0.621
 3042SOL    HW2 9687   3.531   0.970   0.562
 3043SOL     OW 9688   3.508   1.106   0.431
 3043SOL    HW1 9689   3.590   1.118   0.384
 3043SOL    HW2 9690   3.513   1.168   0.504
 3044SOL     OW 9691   1.984   0.744   1.585
 3044SOL    HW1 9692   2.076   0.769   1.596
 3044SOL    HW2 9693   1.936   0.826   1.593
 3045SOL     OW 9694   2.476   1.384   0.735
 3045SOL    HW1 9695   2.430   1.300   0.744
 3045SOL    HW2 9696   2.458   1.410   0.644
 3046SOL     OW 9697   3.152   1.239   1.423
 3046SOL    HW1 9698   3.184   1.171   1.364
 3046SOL    HW2 9699   3.208   1.232   1.501
 3047SOL     OW 9700   2.679   0.010   0.551
 3047SOL    HW1 9701   2.717   0.088   0.510
 3047SOL    HW2 9702   2.584   0.023   0.544
 3048SOL     OW 9703   2.053   0.967   1.271
 3048SOL    HW1 9704   2.137   0.924   1.255
 3048SOL    HW2 9705   1.989   0.912   1.225
 3049SOL     OW 9706   3.381   0.999   0.202
 3049SOL    HW1 9707   3.316   0.938   0.237
 3049SOL    HW2 9708   3.429   1.029   0.279
 3050SOL     OW 9709   3.048   1.805   1.621
 3050SOL    HW1 9710   3.061   1.863   1.546
 3050SOL    HW2 9711   3.063   1.717   1.587
 3051SOL     OW 9712   2.177   0.254   1.781
 3051SOL    HW1 9713   2.241   0.318   1.813
 3051SOL    HW2 9714   2.103   0.261   1.841
 3052SOL     OW 9715   3.328   1.420   0.952
 3052SOL    HW1 9716   3.260   1.434   1.018
 3052SOL    HW2 9717   3.316   1.329   0.925
 3053SOL     OW 9718   3.521   1.737   0.579
 3053SOL    HW1 9719   3.501   1.708   0.490
 3053SOL    HW2 9720   3.496   1.663   0.634
 3054SOL     OW 9721   2.454   0.719   0.263
 3054SOL    HW1 9722   2.464   0.801   0.215
 3054SOL    HW2 9723   2.391   0.739   0.332
 3055SOL     OW 9724   3.150   0.359   0.934
 3055SOL    HW1 9725   3.060   0.328   0.924
 3055SOL    HW2 9726   3.190   0.298   0.996
 3056SOL     OW 9727   3.444   1.670   0.312
 3056SOL    HW1 9728   3.534   1.701   0.305
 3056SOL    HW2 9729   3.418   1.651   0.221
 3057SOL     OW 9730   2.657   0.619   1.454
 3057SOL    HW1 9731   2.629   0.594   1.542
 3057SOL    HW2 9732   2.616   0.554   1.397
 3058SOL     OW 9733   3.251   0.479   1.676
 3058SOL    HW1 9734   3.254   0.523   1.761
 3058SOL    HW2 9735   3.317   0.410   1.682
 3059SOL     OW 9736   2.819   0.889   1.582
 3059SOL    HW1 9737   2.872   0.817   1.547
 3059SOL    HW2 9738   2.771   0.921   1.506
 3060SOL     OW 9739   2.858   0.417   1.237
 3060SOL    HW1 9740   2.772   0.429   1.278
 3060SOL    HW2 9741   2.840   0.367   1.158
 3061SOL     OW 9742   2.911   0.701   0.428
 3061SOL    HW1 9743   2.928   0.692   0.522
 3061SOL    HW2 9744   2.829   0.653   0.414
 3062SOL     OW 9745   1.952   0.821   0.775
 3062SOL    HW1 9746   2.032   0.814   0.826
 3062SOL    HW2 9747   1.907   0.898   0.810
 3063SOL     OW 9748   1.987   1.814   1.572
 3063SOL    HW1 9749   1.977   1.811   1.668
 3063SOL    HW2 9750   1.926   1.882   1.544
 3064SOL     OW 9751   2.736   0.360   0.197
 3064SOL    HW1 9752   2.794   0.413   0.143
 3064SOL    HW2 9753   2.771   0.271   0.188
 3065SOL     OW 9754   3.568   0.574   1.828
 3065SOL    HW1 9755   3.532   0.650   1.781
 3065SOL    HW2 9756   3.602   0.518   1.759
 3066SOL     OW 9757   3.238   1.142   0.541
 3066SOL    HW1 9758   3.317   1.128   0.488
 3066SOL    HW2 9759   3.186   1.204   0.491
 3067SOL     OW 9760   2.402   0.203   0.900
 3067SOL    HW1 9761   2.422   0.221   0.992
 3067SOL    HW2 9762   2.394   0.290   0.861
 3068SOL     OW 9763   2.869   1.445   0.474
 3068SOL    HW1 9764   2.829   1.517   0.425
 3068SOL    HW2 9765   2.853   1.466   0.566
 3069SOL     OW 9766   2.217   1.796   0.866
 3069SOL    HW1 9767   2.250   1.707   0.872
 3069SOL    HW2 9768   2.293   1.851   0.886
 3070SOL     OW 9769   3.660   1.059   0.868
 3070SOL    HW1 9770   3.604   1.042   0.792
 3070SOL    HW2 9771   3.599   1.064   0.942
 3071SOL     OW 9772   3.090   1.539   1.513
 3071SOL    HW1 9773   3.076   1.466   1.573
 3071SOL    HW2 9774   3.028   1.523   1.442
 3072SOL     OW 9775   2.178   0.957   0.274
 3072SOL    HW1 9776   2.257   0.982   0.226
 3072SOL    HW2 9777   2.150   0.875   0.234
 3073SOL     OW 9778   3.340   0.740   0.724
 3073SOL    HW1 9779   3.327   0.695   0.808
 3073SOL    HW2 9780   3.416   0.796   0.738
 3074SOL     OW 9781   2.327   1.264   1.737
 3074SOL    HW1 9782   2.299   1.269   1.646
 3074SOL    HW2 9783   2.246   1.262   1.787
 3075SOL     OW 9784   2.969   1.779   0.227
 3075SOL    HW1 9785   2.911   1.726   0.282
 3075SOL    HW2 9786   3.010   1.715   0.168
 3076SOL     OW 9787   2.051   0.268   1.510
 3076SOL    HW1 9788   1.984   0.335   1.494
 3076SOL    HW2 9789   2.062   0.269   1.605
 3077SOL     OW 9790   3.490   1.375   0.089
 3077SOL    HW1 9791   3.447   1.460   0.077
 3077SOL    HW2 9792   3.424   1.311   0.061
 3078SOL     OW 9793   2.328   1.735   0.325
 3078SOL    HW1 9794   2.369   1.796   0.386
 3078SOL    HW2 9795   2.399   1.707   0.267
 3079SOL     OW 9796   3.280   0.133   0.424
 3079SOL    HW1 9797   3.258   0.098   0.338
 3079SOL    HW2 9798   3.376   0.133   0.427
 3080SOL     OW 9799   2.114   1.785   1.235
 3080SOL    HW1 9800   2.168   1.718   1.278
 3080SOL    HW2 9801   2.105   1.753   1.145
 3081SOL     OW 9802   2.797   1.698   0.901
 3081SOL    HW1 9803   2.875   1.646   0.922
 3081SOL    HW2 9804   2.755   1.649   0.831
 3082SOL     OW 9805   2.253   0.694   0.475
 3082SOL    HW1 9806   2.276   0.602   0.488
 3082SOL    HW2 9807   2.160   0.699   0.496
 3083SOL     OW 9808   3.387   0.233   1.722
 3083SOL    HW1 9809   3.387   0.256   1.815
 3083SOL    HW2 9810   3.311   0.177   1.711
 3084SOL     OW 9811   2.465   0.096   0.123
 3084SOL    HW1 9812   2.559   0.081   0.129
 3084SOL    HW2 9813   2.448   0.100   0.029
 3085SOL     OW 9814   2.631   0.271   1.753
 3085SOL    HW1 9815   2.696   0.202   1.766
 3085SOL    HW2 9816   2.585   0.277   1.837
 3086SOL     OW 9817   2.739   1.522   1.193
 3086SOL    HW1 9818   2.723   1.484   1.106
 3086SOL    HW2 9819   2.808   1.467   1.231
 3087SOL     OW 9820   3.204   0.589   1.429
 3087SOL    HW1 9821   3.231   0.559   1.516
 3087SOL    HW2 9822   3.238   0.678   1.422
 3088SOL     OW 9823   2.676   1.398   0.937
 3088SOL    HW1 9824   2.760   1.385   0.894
 3088SOL    HW2 9825   2.611   1.395   0.867
 3089SOL     OW 9826   2.786   0.516   0.901
 3089SOL    HW1 9827   2.769   0.516   0.806
 3089SOL    HW2 9828   2.825   0.430   0.918
 3090SOL     OW 9829   2.417   0.074   0.522
 3090SOL    HW1 9830   2.328   0.050   0.549
 3090SOL    HW2 9831   2.405   0.140   0.454
 3091SOL     OW 9832   3.288   1.196   0.031
 3091SOL    HW1 9833   3.320   1.124   0.085
 3091SOL    HW2 9834   3.205   1.220   0.071
 3092SOL     OW 9835   2.149   0.056   0.198
 3092SOL    HW1 9836   2.217   0.104   0.152
 3092SOL    HW2 9837   2.195   0.005   0.265
 3093SOL     OW 9838   2.812   0.225   0.442
 3093SOL    HW1 9839   2.764   0.293   0.395
 3093SOL    HW2 9840   2.900   0.260   0.453
 3094SOL     OW 9841   2.942   0.680   1.461
 3094SOL    HW1 9842   2.870   0.617   1.462
 3094SOL    HW2 9843   3.021   0.627   1.450
 3095SOL     OW 9844   3.085   1.570   0.794
 3095SOL    HW1 9845   3.104   1.637   0.728
 3095SOL    HW2 9846   3.154   1.582   0.860
 3096SOL     OW 9847   2.332   1.149   0.738
 3096SOL    HW1 9848   2.261   1.130   0.800
 3096SOL    HW2 9849   2.292   1.134   0.652
 3097SOL     OW 9850   3.132   1.795   0.605
 3097SOL    HW1 9851   3.178   1.857   0.548
 3097SOL    HW2 9852   3.068   1.849   0.652
 3098SOL     OW 9853   2.883   0.533   0.034
 3098SOL    HW1 9854   2.847   0.618   0.010
 3098SOL    HW2 9855   2.956   0.554   0.093
 3099SOL     OW 9856   1.943   0.551   1.394
 3099SOL    HW1 9857   2.034   0.554   1.364
 3099SOL    HW2 9858   1.936   0.623   1.457
 3100SOL     OW 9859   2.425   0.242   1.165
 3100SOL    HW1 9860   2.452   0.159   1.205
 3100SOL    HW2 9861   2.334   0.252   1.191
 3101SOL     OW 9862   2.724   0.509   0.628
 3101SOL    HW1 9863   2.680   0.544   0.550
 3101SOL    HW2 9864   2.701   0.416   0.629
 3102SOL     OW 9865   2.826   0.034   0.778
 3102SOL    HW1 9866   2.777   0.027   0.696
 3102SOL    HW2 9867   2.845   4.444   0.804
 3103SOL     OW 9868   3.298   1.163   0.857
 3103SOL    HW1 9869   3.230   1.096   0.856
 3103SOL    HW2 9870   3.322   1.175   0.765
 3104SOL     OW 9871   3.329   0.604   0.977
 3104SOL    HW1 9872   3.276   0.524   0.980
 3104SOL    HW2 9873   3.387   0.597   1.052
 3105SOL     OW 9874   3.712   0.815   0.378
 3105SOL    HW1 9875   3.764   0.764   0.440
 3105SOL    HW2 9876   3.683   0.751   0.313
 3106SOL     OW 9877   2.355   1.423   0.173
 3106SOL    HW1 9878   2.278   1.397   0.223
 3106SOL    HW2 9879   2.350   1.372   0.092
 3107SOL     OW 9880   3.531   1.265   0.648
 3107SOL    HW1 9881   3.626   1.269   0.661
 3107SOL    HW2 9882   3.500   1.353   0.668
 3108SOL     OW 9883   3.252   0.575   0.077
 3108SOL    HW1 9884   3.191   0.556   0.148
 3108SOL    HW2 9885   3.324   0.513   0.090
 3109SOL     OW 9886   2.387   0.263   0.325
 3109SOL    HW1 9887   2.418   0.204   0.257
 3109SOL    HW2 9888   2.371   0.346   0.280
 3110SOL     OW 9889   3.615   1.237   1.575
 3110SOL    HW1 9890   3.702   1.199   1.572
 3110SOL    HW2 9891   3.630   1.327   1.604
 3111SOL     OW 9892   2.921   1.354   1.335
 3111SOL    HW1 9893   2.847   1.323   1.385
 3111SOL    HW2 9894   2.997   1.313   1.375
 3112SOL     OW 9895   3.469   1.625   1.653
 3112SOL    HW1 9896   3.465   1.659   1.563
 3112SOL    HW2 9897   3.552   1.578   1.656
 3113SOL     OW 9898   2.990   1.203   1.107
 3113SOL    HW1 9899   2.930   1.240   1.172
 3113SOL    HW2 9900   2.955   1.233   1.023
 3114SOL     OW 9901   3.491   1.099   1.078
 3114SOL    HW1 9902   3.487   1.161   1.151
 3114SOL    HW2 9903   3.411   1.115   1.028
 3115SOL     OW 9904   2.766   0.132   1.389
 3115SOL    HW1 9905   2.787   0.088   1.307
 3115SOL    HW2 9906   2.850   0.146   1.432
 3116SOL     OW 9907   2.846   1.115   1.722
 3116SOL    HW1 9908   2.754   1.130   1.743
 3116SOL    HW2 9909   2.845   1.037   1.667
 3117SOL     OW 9910   2.572   1.060   0.373
 3117SOL    HW1 9911   2.557   1.045   0.466
 3117SOL    HW2 9912   2.648   1.006   0.351
 3118SOL     OW 9913   2.280   0.815   1.251
 3118SOL    HW1 9914   2.349   0.824   1.317
 3118SOL    HW2 9915   2.245   0.727   1.265
 3119SOL     OW 9916   3.131   0.376   1.272
 3119SOL    HW1 9917   3.163   0.455   1.317
 3119SOL    HW2 9918   3.041   0.399   1.246
 3120SOL     OW 9919   1.929   1.570   1.347
 3120SOL    HW1 9920   1.896   1.649   1.304
 3120SOL    HW2 9921   2.024   1.583   1.350
 3121SOL     OW 9922   2.215   1.114   0.496
 3121SOL    HW1 9923   2.213   1.188   0.435
 3121SOL    HW2 9924   2.208   1.036   0.441
 3122SOL     OW 9925   2.419   0.531   0.858
 3122SOL    HW1 9926   2.434   0.590   0.784
 3122SOL    HW2 9927   2.482   0.560   0.925
 3123SOL     OW 9928   3.109   1.346   0.394
 3123SOL    HW1 9929   3.165   1.419   0.421
 3123SOL    HW2 9930   3.022   1.369   0.426
 3124SOL     OW 9931   3.141   1.457   1.146
 3124SOL    HW1 9932   3.196   1.458   1.224
 3124SOL    HW2 9933   3.086   1.379   1.158
 3125SOL     OW 9934   3.447   0.628   0.474
 3125SOL    HW1 9935   3.398   0.672   0.544
 3125SOL    HW2 9936   3.484   0.700   0.423
 3126SOL     OW 9937   2.212   1.524   1.318
 3126SOL    HW1 9938   2.196   1.482   1.233
 3126SOL    HW2 9939   2.307   1.536   1.322
 3127SOL     OW 9940   2.276   0.743   1.602
 3127SOL    HW1 9941   2.335   0.790   1.544
 3127SOL    HW2 9942   2.320   0.660   1.620
 3128SOL     OW 9943   3.462   0.778   1.680
 3128SOL    HW1 9944   3.375   0.819   1.673
 3128SOL    HW2 9945   3.514   0.820   1.612
 3129SOL     OW 9946   2.869   0.085   1.723
 3129SOL    HW1 9947   2.893   0.169   1.684
 3129SOL    HW2 9948   2.893   0.020   1.657
 3130SOL     OW 9949   2.361   0.048   1.758
 3130SOL    HW1 9950   2.354   0.003   1.673
 3130SOL    HW2 9951   2.293   0.115   1.755
 3131SOL     OW 9952   2.444   0.873   1.031
 3131SOL    HW1 9953   2.474   0.964   1.029
 3131SOL    HW2 9954   2.388   0.867   1.108
 3132SOL     OW 9955   3.221   0.859   1.031
 3132SOL    HW1 9956   3.139   0.850   0.984
 3132SOL    HW2 9957   3.261   0.771   1.026
 3133SOL     OW 9958   3.063   0.532   0.266
 3133SOL    HW1 9959   3.073   0.453   0.320
 3133SOL    HW2 9960   3.022   0.596   0.324
 3134SOL     OW 9961   2.153   0.235   1.241
 3134SOL    HW1 9962   2.110   0.250   1.325
 3134SOL    HW2 9963   2.185   0.145   1.247
 3135SOL     OW 9964   1.908   1.309   1.276
 3135SOL    HW1 9965   1.942   1.258   1.350
 3135SOL    HW2 9966   1.915   1.400   1.306
 3136SOL     OW 9967   2.586   0.631   1.058
 3136SOL    HW1 9968   2.659   0.612   1.000
 3136SOL    HW2 9969   2.559   0.720   1.035
 3137SOL     OW 9970   3.596   0.959   1.851
 3137SOL    HW1 9971   3.548   0.901   1.792
 3137SOL    HW2 9972   3.537   0.972   1.926
 3138SOL     OW 9973   2.163   0.059   0.653
 3138SOL    HW1 9974   2.151   0.154   0.658
 3138SOL    HW2 9975   2.172   0.032   0.744
 3139SOL     OW 9976   3.478   0.376   0.365
 3139SOL    HW1 9977   3.506   0.312   0.430
 3139SOL    HW2 9978   3.453   0.453   0.416
 3140SOL     OW 9979   2.890   0.761   0.962
 3140SOL    HW1 9980   2.888   0.777   1.056
 3140SOL    HW2 9981   2.862   0.670   0.952
 3141SOL     OW 9982   2.845   1.567   1.716
 3141SOL    HW1 9983   2.829   1.610   1.632
 3141SOL    HW2 9984   2.887   1.484   1.692
 3142SOL     OW 9985   3.717   1.508   1.606
 3142SOL    HW1 9986   3.734   1.533   1.515
 3142SOL    HW2 9987   3.799   1.527   1.652
 3143SOL     OW 9988   2.216   0.917   1.808
 3143SOL    HW1 9989   2.298   0.935   1.854
 3143SOL    HW2 9990   2.240   0.854   1.740
 3144SOL     OW 9991   3.398   0.294   0.112
 3144SOL    HW1 9992   3.339   0.220   0.125
 3144SOL    HW2 9993   3.428   0.316   0.200
 3145SOL     OW 9994   3.150   0.823   0.032
 3145SOL    HW1 9995   3.194   0.739   0.042
 3145SOL    HW2 9996   3.183   0.858  11.049
 3146SOL     OW 9997   2.926   1.335   0.852
 3146SOL    HW1 9998   2.929   1.262   0.790
 3146SOL    HW2 9999   2.989   1.398   0.818
 3147SOL     OW10000   2.171   0.810   0.948
 3147SOL    HW110001   2.264   0.832   0.942
 3147SOL    HW210002   2.170   0.720   0.982
 3148SOL     OW10003   2.199   0.530   1.013
 3148SOL    HW110004   2.156   0.447   0.994
 3148SOL    HW210005   2.274   0.533   0.954
 3149SOL     OW10006   2.997   0.374   1.694
 3149SOL    HW110007   2.948   0.439   1.745
 3149SOL    HW210008   3.083   0.415   1.681
 3150SOL     OW10009   3.021   0.212   1.473
 3150SOL    HW110010   3.013   0.275   1.544
 3150SOL    HW210011   3.058   0.261   1.400
 3151SOL     OW10012   1.869   1.328   0.195
 3151SOL    HW110013   1.783   1.340   0.157
 3151SOL    HW210014   1.870   1.237   0.225
 3152SOL     OW10015   1.949   1.791   0.935
 3152SOL    HW110016   1.918   1.710   0.893
 3152SOL    HW210017   2.041   1.798   0.909
 3153SOL     OW10018   2.362   1.570   0.905
 3153SOL    HW110019   2.430   1.633   0.925
 3153SOL    HW210020   2.404   1.505   0.849
 3154SOL     OW10021   2.847   0.794   1.228
 3154SOL    HW110022   2.902   0.770   1.303
 3154SOL    HW210023   2.762   0.755   1.246
 3155SOL     OW10024   1.896   0.543   1.118
 3155SOL    HW110025   1.974   0.523   1.067
 3155SOL    HW210026   1.927   0.548   1.208
 3156SOL     OW10027   2.047   0.519   1.720
 3156SOL    HW110028   2.121   0.498   1.663
 3156SOL    HW210029   2.005   0.594   1.679
 3157SOL     OW10030   3.239   0.940   1.659
 3157SOL    HW110031   3.259   1.033   1.658
 3157SOL    HW210032   3.236   0.915   1.567
 3158SOL     OW10033   2.673   0.575   0.357
 3158SOL    HW110034   2.680   0.500   0.298
 3158SOL    HW210035   2.599   0.625   0.324
 3159SOL     OW10036   3.503   0.602   1.188
 3159SOL    HW110037   3.493   0.542   1.262
 3159SOL    HW210038   3.590   0.582   1.153
 3160SOL     OW10039   2.112   1.550   1.732
 3160SOL    HW110040   2.083   1.612   1.798
 3160SOL    HW210041   2.108   1.465   1.775
 3161SOL     OW10042   2.558   0.459   1.264
 3161SOL    HW110043   2.512   0.382   1.232
 3161SOL    HW210044   2.559   0.520   1.190
 3162SOL     OW10045   2.791   1.679   1.467
 3162SOL    HW110046   2.765   1.646   1.381
 3162SOL    HW210047   2.789   1.774   1.458
 3163SOL     OW10048   2.326   0.487   0.181
 3163SOL    HW110049   2.386   0.559   0.201
 3163SOL    HW210050   2.240   0.529   0.174
 3164SOL     OW10051   2.009   1.140   1.472
 3164SOL    HW110052   2.012   1.087   1.552
 3164SOL    HW210053   2.026   1.078   1.402
 3165SOL     OW10054   3.190   1.048   1.224
 3165SOL    HW110055   3.213   0.985   1.156
 3165SOL    HW210056   3.118   1.099   1.185
 3166SOL     OW10057   3.170   0.853   0.310
 3166SOL    HW110058   3.094   0.822   0.358
 3166SOL    HW210059   3.147   0.839   0.218
 3167SOL     OW10060   3.632   1.745   1.149
 3167SOL    HW110061   3.692   1.771   1.079
 3167SOL    HW210062   3.608   1.655   1.128
 3168SOL     OW10063   3.103   1.733   1.115
 3168SOL    HW110064   3.185   1.752   1.069
 3168SOL    HW210065   3.108   1.639   1.133
 3169SOL     OW10066   1.947   1.265   1.013
 3169SOL    HW110067   1.933   1.278   1.107
 3169SOL    HW210068   1.872   1.214   0.984
 3170SOL     OW10069   2.540   1.663   1.726
 3170SOL    HW110070   2.490   1.744   1.726
 3170SOL    HW210071   2.605   1.675   1.656
 3171SOL     OW10072   2.742   0.064   0.127
 3171SOL    HW110073   2.826   0.093   0.092
 3171SOL    HW210074   2.763   0.014   0.205
 3172SOL     OW10075   3.581   0.133   0.498
 3172SOL    HW110076   3.654   0.137   0.436
 3172SOL    HW210077   3.599   0.056   0.552
 3173SOL     OW10078   3.251   1.568   0.484
 3173SOL    HW110079   3.313   1.599   0.418
 3173SOL    HW210080   3.205   1.647   0.512
 3174SOL     OW10081   2.000   1.800   1.848
 3174SOL    HW110082   1.947   1.732   1.889
 3174SOL    HW210083   2.041   1.846   1.921
 3175SOL     OW10084   3.141   0.927   0.673
 3175SOL    HW110085   3.213   0.864   0.676
 3175SOL    HW210086   3.174   0.999   0.620
 3176SOL     OW10087   2.678   1.273   1.430
 3176SOL    HW110088   2.651   1.311   1.513
 3176SOL    HW210089   2.607   1.293   1.370
 3177SOL     OW10090   2.534   1.622   0.167
 3177SOL    HW110091   2.549   1.628   0.073
 3177SOL    HW210092   2.478   1.545   0.177
 3178SOL     OW10093   3.492   1.727   1.392
 3178SOL    HW110094   3.540   1.734   1.309
 3178SOL    HW210095   3.478   1.817   1.420
 3179SOL     OW10096   3.701   0.155   0.966
 3179SOL    HW110097   3.731   0.077   0.919
 3179SOL    HW210098   3.614   0.173   0.930
 3180SOL     OW10099   2.127   0.324   0.718
 3180SOL    HW110100   2.041   0.357   0.691
 3180SOL    HW210101   2.120   0.315   0.813
 3181SOL     OW10102   3.084   1.603   0.051
 3181SOL    HW110103   3.071   1.510   0.072
 3181SOL    HW210104   3.019   1.622  11.084
 3182SOL     OW10105   2.686   1.006   1.372
 3182SOL    HW110106   2.729   1.001   1.287
 3182SOL    HW210107   2.687   1.099   1.395
 3183SOL     OW10108   2.776   0.907   0.282
 3183SOL    HW110109   2.843   0.946   0.226
 3183SOL    HW210110   2.823   0.841   0.334
 3184SOL     OW10111   3.361   1.622   0.046
 3184SOL    HW110112   3.266   1.618   0.043
 3184SOL    HW210113   3.388   1.635  11.055
 3185SOL     OW10114   2.232   1.301   1.491
 3185SOL    HW110115   2.218   1.379   1.438
 3185SOL    HW210116   2.154   1.247   1.476
 3186SOL     OW10117   3.474   1.283   1.281
 3186SOL    HW110118   3.532   1.273   1.356
 3186SOL    HW210119   3.413   1.352   1.307
 3187SOL     OW10120   2.912   1.106   0.705
 3187SOL    HW110121   2.842   1.055   0.745
 3187SOL    HW210122   2.975   1.041   0.674
 3188SOL     OW10123   2.875   0.240   0.993
 3188SOL    HW110124   2.875   0.205   0.904
 3188SOL    HW210125   2.865   0.163   1.049
 3189SOL     OW10126   2.465   1.492   0.482
 3189SOL    HW110127   2.505   1.438   0.414
 3189SOL    HW210128   2.394   1.537   0.437
 3190SOL     OW10129   3.582   0.394   1.377
 3190SOL    HW110130   3.655   0.456   1.376
 3190SOL    HW210131   3.612   0.322   1.321
 3191SOL     OW10132   2.127   1.338   0.291
 3191SOL    HW110133   2.039   1.341   0.253
 3191SOL    HW210134   2.117   1.377   0.378
 3192SOL     OW10135   1.974   1.019   1.719
 3192SOL    HW110136   1.898   0.997   1.773
 3192SOL    HW210137   2.049   0.983   1.767
 3193SOL     OW10138   2.520   0.204   1.497
 3193SOL    HW110139   2.600   0.179   1.451
 3193SOL    HW210140   2.550   0.224   1.586
 3194SOL     OW10141   1.939   0.346   0.053
 3194SOL    HW110142   1.863   0.311   0.007
 3194SOL    HW210143   1.958   0.429   0.010
 3195SOL     OW10144   3.293   0.858   1.401
 3195SOL    HW110145   3.244   0.919   1.345
 3195SOL    HW210146   3.382   0.861   1.367
 3196SOL     OW10147   1.928   0.180   0.325
 3196SOL    HW110148   1.922   0.247   0.257
 3196SOL    HW210149   2.001   0.124   0.298
 3197SOL     OW10150   3.044   1.342   0.122
 3197SOL    HW110151   2.951   1.320   0.116
 3197SOL    HW210152   3.065   1.334   0.215
 3198SOL     OW10153   2.481   0.830   1.433
 3198SOL    HW110154   2.536   0.907   1.418
 3198SOL    HW210155   2.542   0.758   1.442
 3199SOL     OW10156   3.346   1.776   0.977
 3199SOL    HW110157   3.372   1.834   0.905
 3199SOL    HW210158   3.428   1.757   1.023
 3200SOL     OW10159   2.578   0.564   1.706
 3200SOL    HW110160   2.615   0.628   1.766
 3200SOL    HW210161   2.612   0.480   1.737
 3201SOL     OW10162   3.332   1.202   1.633
 3201SOL    HW110163   3.320   1.215   1.727
 3201SOL    HW210164   3.426   1.215   1.618
 3202SOL     OW10165   2.245   1.738   1.565
 3202SOL    HW110166   2.158   1.772   1.546
 3202SOL    HW210167   2.229   1.653   1.607
 3203SOL     OW10168   3.533   0.881   1.255
 3203SOL    HW110169   3.524   0.796   1.213
 3203SOL    HW210170   3.523   0.945   1.185
 3204SOL     OW10171   3.080   0.327   0.447
 3204SOL    HW110172   3.146   0.258   0.438
 3204SOL    HW210173   3.104   0.373   0.527
 3205SOL     OW10174   2.449   0.739   0.670
 3205SOL    HW110175   2.491   0.824   0.654
 3205SOL    HW210176   2.381   0.733   0.602
 3206SOL     OW10177   3.626   0.364   1.643
 3206SOL    HW110178   3.609   0.377   1.550
 3206SOL    HW210179   3.548   0.318   1.675
 3207SOL     OW10180   3.607   0.933   1.512
 3207SOL    HW110181   3.605   1.028   1.526
 3207SOL    HW210182   3.592   0.922   1.419
 3208SOL     OW10183   2.763   1.357   0.065
 3208SOL    HW110184   2.692   1.358   0.130
 3208SOL    HW210185   2.752   1.439   0.017
 3209SOL     OW10186   2.519   1.805   0.938
 3209SOL    HW110187   2.517   1.892   0.977
 3209SOL    HW210188   2.611   1.780   0.938
 3210SOL     OW10189   2.729   0.966   0.855
 3210SOL    HW110190   2.779   0.895   0.894
 3210SOL    HW210191   2.695   1.016   0.930
 3211SOL     OW10192   2.942   0.991   0.086
 3211SOL    HW110193   2.917   1.023  11.099
 3211SOL    HW210194   3.018   0.934   0.069
 3212SOL     OW10195   3.717   1.556   0.845
 3212SOL    HW110196   3.640   1.544   0.790
 3212SOL    HW210197   3.710   1.487   0.912
 3213SOL     OW10198   2.087   1.303   1.856
 3213SOL    HW110199   2.018   1.243   1.827
 3213SOL    HW210200   2.070   1.315   1.949
 3214SOL     OW10201   1.946   1.234   0.664
 3214SOL    HW110202   1.947   1.185   0.747
 3214SOL    HW210203   2.016   1.196   0.612
 3215SOL     OW10204   2.542   1.402   1.626
 3215SOL    HW110205   2.463   1.358   1.657
 3215SOL    HW210206   2.537   1.489   1.664
 3216SOL     OW10207   3.671   0.182   1.239
 3216SOL    HW110208   3.670   0.089   1.259
 3216SOL    HW210209   3.687   0.186   1.144
 3217SOL     OW10210   2.296   0.433   0.528
 3217SOL    HW110211   2.320   0.362   0.468
 3217SOL    HW210212   2.242   0.391   0.594
 3218SOL     OW10213   3.562   1.491   1.099
 3218SOL    HW110214   3.482   1.466   1.053
 3218SOL    HW210215   3.576   1.421   1.163
 3219SOL     OW10216   2.191   0.556   1.291
 3219SOL    HW110217   2.246   0.500   1.346
 3219SOL    HW210218   2.210   0.529   1.201
 3220SOL     OW10219   2.687   1.578   0.679
 3220SOL    HW110220   2.677   1.624   0.595
 3220SOL    HW210221   2.611   1.521   0.684
 3221SOL     OW10222   3.294   0.216   1.117
 3221SOL    HW110223   3.330   0.145   1.170
 3221SOL    HW210224   3.243   0.269   1.179
 3222SOL     OW10225   2.859   0.012   1.148
 3222SOL    HW110226   2.814   4.427   1.141
 3222SOL    HW210227   2.951   4.489   1.162
 3223SOL     OW10228   2.629   1.329   0.316
 3223SOL    HW110229   2.599   1.238   0.328
 3223SOL    HW210230   2.714   1.332   0.358
 3224SOL     OW10231   2.483   1.557   1.282
 3224SOL    HW110232   2.484   1.638   1.333
 3224SOL    HW210233   2.571   1.549   1.247
 3225SOL     OW10234   3.210   0.059   0.169
 3225SOL    HW110235   3.246   0.004   0.100
 3225SOL    HW210236   3.132   0.012   0.199
 3226SOL     OW10237   3.178   0.463   0.680
 3226SOL    HW110238   3.115   0.535   0.679
 3226SOL    HW210239   3.164   0.420   0.764
 3227SOL     OW10240   3.448   0.201   0.867
 3227SOL    HW110241   3.388   0.216   0.940
 3227SOL    HW210242   3.450   0.284   0.821
 3228SOL     OW10243   1.905   1.071   0.300
 3228SOL    HW110244   2.000   1.065   0.296
 3228SOL    HW210245   1.876   0.984   0.327
 3229SOL     OW10246   2.746   1.652   0.347
 3229SOL    HW110247   2.674   1.631   0.287
 3229SOL    HW210248   2.714   1.726   0.398
 3230SOL     OW10249   2.091   0.627   1.982
 3230SOL    HW110250   2.004   0.620   2.020
 3230SOL    HW210251   2.081   0.596   1.892
 3231SOL     OW10252   2.071   0.297   2.851
 3231SOL    HW110253   2.101   0.270   2.937
 3231SOL    HW210254   1.989   0.250   2.838
 3232SOL     OW10255   1.870   0.385   2.501
 3232SOL    HW110256   1.784   0.405   2.537
 3232SOL    HW210257   1.855   0.311   2.442
 3233SOL     OW10258   2.429   1.285   3.035
 3233SOL    HW110259   2.341   1.288   2.998
 3233SOL    HW210260   2.443   1.373   3.069
 3234SOL     OW10261   3.421   1.512   2.568
 3234SOL    HW110262   3.378   1.492   2.652
 3234SOL    HW210263   3.350   1.516   2.505
 3235SOL     OW10264   2.995   0.699   2.562
 3235SOL    HW110265   3.042   0.782   2.551
 3235SOL    HW210266   2.945   0.710   2.643
 3236SOL     OW10267   3.628   0.608   2.091
 3236SOL    HW110268   3.608   0.597   1.998
 3236SOL    HW210269   3.595   0.528   2.131
 3237SOL     OW10270   2.620   1.144   2.902
 3237SOL    HW110271   2.550   1.177   2.958
 3237SOL    HW210272   2.654   1.221   2.857
 3238SOL     OW10273   2.726   0.777   3.684
 3238SOL    HW110274   2.714   0.848   3.746
 3238SOL    HW210275   2.750   0.821   3.602
 3239SOL     OW10276   2.549   1.005   2.510
 3239SOL    HW110277   2.613   0.991   2.579
 3239SOL    HW210278   2.479   1.055   2.551
 3240SOL     OW10279   2.571   1.151   3.672
 3240SOL    HW110280   2.618   1.230   3.698
 3240SOL    HW210281   2.487   1.183   3.638
 3241SOL     OW10282   2.193   1.426   2.930
 3241SOL    HW110283   2.120   1.390   2.881
 3241SOL    HW210284   2.243   1.478   2.866
 3242SOL     OW10285   3.323   1.498   3.215
 3242SOL    HW110286   3.370   1.581   3.225
 3242SOL    HW210287   3.264   1.495   3.290
 3243SOL     OW10288   2.303   0.395   3.352
 3243SOL    HW110289   2.385   0.346   3.354
 3243SOL    HW210290   2.235   0.329   3.366
 3244SOL     OW10291   3.474   0.447   2.600
 3244SOL    HW110292   3.393   0.469   2.554
 3244SOL    HW210293   3.494   0.524   2.653
 3245SOL     OW10294   2.083   1.724   2.338
 3245SOL    HW110295   2.122   1.767   2.414
 3245SOL    HW210296   2.156   1.709   2.278
 3246SOL     OW10297   2.998   1.341   3.554
 3246SOL    HW110298   3.038   1.337   3.641
 3246SOL    HW210299   2.945   1.262   3.548
 3247SOL     OW10300   2.089   1.443   2.396
 3247SOL    HW110301   2.066   1.536   2.406
 3247SOL    HW210302   2.031   1.398   2.458
 3248SOL     OW10303   2.118   1.090   2.753
 3248SOL    HW110304   2.115   1.004   2.794
 3248SOL    HW210305   2.060   1.145   2.806
 3249SOL     OW10306   2.475   1.791   3.291
 3249SOL    HW110307   2.393   1.773   3.336
 3249SOL    HW210308   2.498   1.881   3.316
 3250SOL     OW10309   2.450   0.981   1.995
 3250SOL    HW110310   2.494   1.031   1.927
 3250SOL    HW210311   2.490   1.010   2.077
 3251SOL     OW10312   3.446   0.115   3.335
 3251SOL    HW110313   3.463   0.183   3.270
 3251SOL    HW210314   3.435   0.162   3.417
 3252SOL     OW10315   1.977   0.652   2.421
 3252SOL    HW110316   1.948   0.564   2.443
 3252SOL    HW210317   1.969   0.701   2.503
 3253SOL     OW10318   3.704   1.760   2.197
 3253SOL    HW110319   3.765   1.731   2.265
 3253SOL    HW210320   3.729   1.850   2.179
 3254SOL     OW10321   1.895   1.596   1.985
 3254SOL    HW110322   1.877   1.504   2.002
 3254SOL    HW210323   1.868   1.641   2.065
 3255SOL     OW10324   3.553   0.921   2.502
 3255SOL    HW110325   3.637   0.879   2.482
 3255SOL    HW210326   3.531   0.969   2.423
 3256SOL     OW10327   3.507   1.108   2.291
 3256SOL    HW110328   3.593   1.115   2.249
 3256SOL    HW210329   3.512   1.168   2.365
 3257SOL     OW10330   1.984   0.744   3.447
 3257SOL    HW110331   2.076   0.769   3.458
 3257SOL    HW210332   1.936   0.826   3.455
 3258SOL     OW10333   2.475   1.384   2.597
 3258SOL    HW110334   2.429   1.301   2.606
 3258SOL    HW210335   2.458   1.411   2.506
 3259SOL     OW10336   3.152   1.239   3.286
 3259SOL    HW110337   3.184   1.171   3.226
 3259SOL    HW210338   3.208   1.231   3.363
 3260SOL     OW10339   2.678   0.013   2.411
 3260SOL    HW110340   2.713   0.099   2.386
 3260SOL    HW210341   2.583   0.023   2.403
 3261SOL     OW10342   2.053   0.967   3.133
 3261SOL    HW110343   2.137   0.925   3.117
 3261SOL    HW210344   1.989   0.912   3.087
 3262SOL     OW10345   3.394   0.992   2.059
 3262SOL    HW110346   3.323   0.935   2.090
 3262SOL    HW210347   3.434   1.026   2.139
 3263SOL     OW10348   3.047   1.805   3.483
 3263SOL    HW110349   3.061   1.862   3.408
 3263SOL    HW210350   3.063   1.717   3.449
 3264SOL     OW10351   2.177   0.254   3.643
 3264SOL    HW110352   2.241   0.319   3.675
 3264SOL    HW210353   2.103   0.261   3.703
 3265SOL     OW10354   3.328   1.419   2.815
 3265SOL    HW110355   3.260   1.434   2.880
 3265SOL    HW210356   3.316   1.328   2.787
 3266SOL     OW10357   3.522   1.736   2.440
 3266SOL    HW110358   3.500   1.707   2.351
 3266SOL    HW210359   3.496   1.663   2.496
 3267SOL     OW10360   2.456   0.723   2.127
 3267SOL    HW110361   2.462   0.804   2.076
 3267SOL    HW210362   2.390   0.742   2.194
 3268SOL     OW10363   3.153   0.361   2.796
 3268SOL    HW110364   3.063   0.330   2.780
 3268SOL    HW210365   3.189   0.298   2.858
 3269SOL     OW10366   3.443   1.669   2.171
 3269SOL    HW110367   3.533   1.702   2.164
 3269SOL    HW210368   3.417   1.652   2.080
 3270SOL     OW10369   2.657   0.619   3.316
 3270SOL    HW110370   2.629   0.594   3.404
 3270SOL    HW210371   2.616   0.554   3.259
 3271SOL     OW10372   3.251   0.479   3.538
 3271SOL    HW110373   3.254   0.523   3.623
 3271SOL    HW210374   3.317   0.410   3.544
 3272SOL     OW10375   2.819   0.889   3.444
 3272SOL    HW110376   2.872   0.817   3.409
 3272SOL    HW210377   2.771   0.921   3.368
 3273SOL     OW10378   2.858   0.417   3.099
 3273SOL    HW110379   2.771   0.428   3.138
 3273SOL    HW210380   2.842   0.365   3.020
 3274SOL     OW10381   2.911   0.698   2.289
 3274SOL    HW110382   2.927   0.690   2.383
 3274SOL    HW210383   2.829   0.651   2.275
 3275SOL     OW10384   1.951   0.820   2.638
 3275SOL    HW110385   2.032   0.814   2.688
 3275SOL    HW210386   1.908   0.898   2.673
 3276SOL     OW10387   1.988   1.809   3.435
 3276SOL    HW110388   1.975   1.807   3.530
 3276SOL    HW210389   1.923   1.871   3.403
 3277SOL     OW10390   2.717   0.369   2.043
 3277SOL    HW110391   2.790   0.403   1.993
 3277SOL    HW210392   2.732   0.274   2.047
 3278SOL     OW10393   3.568   0.574   3.690
 3278SOL    HW110394   3.532   0.650   3.643
 3278SOL    HW210395   3.602   0.518   3.621
 3279SOL     OW10396   3.238   1.143   2.404
 3279SOL    HW110397   3.317   1.129   2.350
 3279SOL    HW210398   3.185   1.205   2.353
 3280SOL     OW10399   2.401   0.203   2.763
 3280SOL    HW110400   2.421   0.221   2.855
 3280SOL    HW210401   2.392   0.289   2.723
 3281SOL     OW10402   2.870   1.445   2.335
 3281SOL    HW110403   2.830   1.517   2.286
 3281SOL    HW210404   2.853   1.467   2.427
 3282SOL     OW10405   2.219   1.808   2.700
 3282SOL    HW110406   2.260   1.723   2.718
 3282SOL    HW210407   2.286   1.872   2.720
 3283SOL     OW10408   3.660   1.061   2.730
 3283SOL    HW110409   3.605   1.041   2.654
 3283SOL    HW210410   3.599   1.065   2.803
 3284SOL     OW10411   3.090   1.539   3.375
 3284SOL    HW110412   3.076   1.466   3.435
 3284SOL    HW210413   3.028   1.523   3.303
 3285SOL     OW10414   2.183   0.956   2.111
 3285SOL    HW110415   2.265   0.975   2.065
 3285SOL    HW210416   2.152   0.874   2.072
 3286SOL     OW10417   3.340   0.741   2.587
 3286SOL    HW110418   3.327   0.695   2.670
 3286SOL    HW210419   3.417   0.797   2.602
 3287SOL     OW10420   2.327   1.264   3.600
 3287SOL    HW110421   2.299   1.269   3.508
 3287SOL    HW210422   2.245   1.262   3.649
 3288SOL     OW10423   2.984   1.777   2.094
 3288SOL    HW110424   2.911   1.735   2.140
 3288SOL    HW210425   3.005   1.717   2.023
 3289SOL     OW10426   2.050   0.268   3.372
 3289SOL    HW110427   1.984   0.335   3.356
 3289SOL    HW210428   2.062   0.269   3.467
 3290SOL     OW10429   3.491   1.379   1.949
 3290SOL    HW110430   3.450   1.464   1.934
 3290SOL    HW210431   3.422   1.316   1.931
 3291SOL     OW10432   2.328   1.722   2.201
 3291SOL    HW110433   2.365   1.796   2.250
 3291SOL    HW210434   2.389   1.709   2.128
 3292SOL     OW10435   3.281   0.136   2.280
 3292SOL    HW110436   3.264   0.086   2.200
 3292SOL    HW210437   3.375   0.130   2.292
 3293SOL     OW10438   2.110   1.786   3.093
 3293SOL    HW110439   2.167   1.724   3.138
 3293SOL    HW210440   2.106   1.754   3.003
 3294SOL     OW10441   2.801   1.698   2.762
 3294SOL    HW110442   2.878   1.644   2.782
 3294SOL    HW210443   2.756   1.649   2.693
 3295SOL     OW10444   2.254   0.695   2.338
 3295SOL    HW110445   2.277   0.602   2.350
 3295SOL    HW210446   2.160   0.698   2.357
 3296SOL     OW10447   3.387   0.233   3.584
 3296SOL    HW110448   3.387   0.256   3.677
 3296SOL    HW210449   3.311   0.177   3.573
 3297SOL     OW10450   2.488   0.122   1.984
 3297SOL    HW110451   2.576   0.086   1.992
 3297SOL    HW210452   2.456   0.087   1.901
 3298SOL     OW10453   2.631   0.271   3.615
 3298SOL    HW110454   2.696   0.202   3.628
 3298SOL    HW210455   2.586   0.277   3.699
 3299SOL     OW10456   2.739   1.522   3.055
 3299SOL    HW110457   2.723   1.486   2.968
 3299SOL    HW210458   2.808   1.467   3.092
 3300SOL     OW10459   3.204   0.589   3.291
 3300SOL    HW110460   3.231   0.560   3.378
 3300SOL    HW210461   3.238   0.678   3.284
 3301SOL     OW10462   2.676   1.397   2.800
 3301SOL    HW110463   2.760   1.385   2.755
 3301SOL    HW210464   2.611   1.396   2.729
 3302SOL     OW10465   2.785   0.517   2.762
 3302SOL    HW110466   2.769   0.515   2.668
 3302SOL    HW210467   2.823   0.432   2.782
 3303SOL     OW10468   2.416   0.075   2.383
 3303SOL    HW110469   2.327   0.048   2.406
 3303SOL    HW210470   2.404   0.140   2.314
 3304SOL     OW10471   3.290   1.198   1.903
 3304SOL    HW110472   3.321   1.122   1.953
 3304SOL    HW210473   3.204   1.218   1.940
 3305SOL     OW10474   2.158   0.070   2.057
 3305SOL    HW110475   2.236   0.122   2.040
 3305SOL    HW210476   2.188   4.500   2.115
 3306SOL     OW10477   2.813   0.240   2.332
 3306SOL    HW110478   2.761   0.293   2.271
 3306SOL    HW210479   2.902   0.276   2.325
 3307SOL     OW10480   2.942   0.680   3.323
 3307SOL    HW110481   2.870   0.616   3.324
 3307SOL    HW210482   3.021   0.627   3.311
 3308SOL     OW10483   3.087   1.569   2.655
 3308SOL    HW110484   3.103   1.637   2.590
 3308SOL    HW210485   3.154   1.583   2.722
 3309SOL     OW10486   2.330   1.149   2.597
 3309SOL    HW110487   2.260   1.130   2.660
 3309SOL    HW210488   2.291   1.132   2.512
 3310SOL     OW10489   3.132   1.794   2.469
 3310SOL    HW110490   3.177   1.856   2.411
 3310SOL    HW210491   3.066   1.847   2.514
 3311SOL     OW10492   2.892   0.549   1.878
 3311SOL    HW110493   2.844   0.630   1.863
 3311SOL    HW210494   2.950   0.568   1.951
 3312SOL     OW10495   1.943   0.551   3.257
 3312SOL    HW110496   2.034   0.554   3.226
 3312SOL    HW210497   1.936   0.623   3.319
 3313SOL     OW10498   2.425   0.242   3.028
 3313SOL    HW110499   2.453   0.159   3.067
 3313SOL    HW210500   2.334   0.252   3.053
 3314SOL     OW10501   2.728   0.503   2.488
 3314SOL    HW110502   2.680   0.544   2.416
 3314SOL    HW210503   2.701   0.411   2.485
 3315SOL     OW10504   2.828   0.028   2.641
 3315SOL    HW110505   2.779   0.025   2.559
 3315SOL    HW210506   2.840   4.436   2.665
 3316SOL     OW10507   3.298   1.163   2.719
 3316SOL    HW110508   3.230   1.096   2.719
 3316SOL    HW210509   3.321   1.175   2.627
 3317SOL     OW10510   3.329   0.604   2.839
 3317SOL    HW110511   3.276   0.524   2.841
 3317SOL    HW210512   3.387   0.597   2.914
 3318SOL     OW10513   3.709   0.818   2.244
 3318SOL    HW110514   3.764   0.766   2.302
 3318SOL    HW210515   3.680   0.756   2.177
 3319SOL     OW10516   2.354   1.416   2.020
 3319SOL    HW110517   2.279   1.388   2.073
 3319SOL    HW210518   2.335   1.382   1.932
 3320SOL     OW10519   3.531   1.265   2.508
 3320SOL    HW110520   3.626   1.269   2.522
 3320SOL    HW210521   3.500   1.353   2.530
 3321SOL     OW10522   3.256   0.570   1.932
 3321SOL    HW110523   3.195   0.554   2.003
 3321SOL    HW210524   3.342   0.550   1.969
 3322SOL     OW10525   2.385   0.266   2.186
 3322SOL    HW110526   2.430   0.214   2.119
 3322SOL    HW210527   2.368   0.350   2.143
 3323SOL     OW10528   3.615   1.237   3.437
 3323SOL    HW110529   3.702   1.198   3.434
 3323SOL    HW210530   3.630   1.327   3.466
 3324SOL     OW10531   2.922   1.354   3.197
 3324SOL    HW110532   2.847   1.323   3.248
 3324SOL    HW210533   2.997   1.312   3.237
 3325SOL     OW10534   3.469   1.625   3.514
 3325SOL    HW110535   3.465   1.659   3.425
 3325SOL    HW210536   3.552   1.578   3.518
 3326SOL     OW10537   2.990   1.203   2.969
 3326SOL    HW110538   2.930   1.240   3.033
 3326SOL    HW210539   2.956   1.233   2.884
 3327SOL     OW10540   3.491   1.099   2.940
 3327SOL    HW110541   3.487   1.161   3.013
 3327SOL    HW210542   3.411   1.115   2.890
 3328SOL     OW10543   2.766   0.131   3.251
 3328SOL    HW110544   2.788   0.088   3.169
 3328SOL    HW210545   2.850   0.146   3.294
 3329SOL     OW10546   2.846   1.115   3.584
 3329SOL    HW110547   2.754   1.130   3.605
 3329SOL    HW210548   2.846   1.037   3.528
 3330SOL     OW10549   2.570   1.061   2.233
 3330SOL    HW110550   2.557   1.046   2.327
 3330SOL    HW210551   2.646   1.007   2.211
 3331SOL     OW10552   2.280   0.815   3.113
 3331SOL    HW110553   2.349   0.824   3.179
 3331SOL    HW210554   2.245   0.727   3.127
 3332SOL     OW10555   3.131   0.376   3.134
 3332SOL    HW110556   3.162   0.455   3.179
 3332SOL    HW210557   3.042   0.398   3.107
 3333SOL     OW10558   1.929   1.570   3.209
 3333SOL    HW110559   1.896   1.648   3.164
 3333SOL    HW210560   2.024   1.582   3.211
 3334SOL     OW10561   2.213   1.108   2.353
 3334SOL    HW110562   2.218   1.181   2.291
 3334SOL    HW210563   2.211   1.030   2.298
 3335SOL     OW10564   2.419   0.531   2.721
 3335SOL    HW110565   2.433   0.590   2.646
 3335SOL    HW210566   2.482   0.560   2.787
 3336SOL     OW10567   3.110   1.348   2.251
 3336SOL    HW110568   3.166   1.420   2.282
 3336SOL    HW210569   3.023   1.369   2.285
 3337SOL     OW10570   3.141   1.457   3.008
 3337SOL    HW110571   3.196   1.458   3.086
 3337SOL    HW210572   3.085   1.379   3.019
 3338SOL     OW10573   3.444   0.624   2.338
 3338SOL    HW110574   3.398   0.676   2.405
 3338SOL    HW210575   3.489   0.689   2.284
 3339SOL     OW10576   2.212   1.523   3.180
 3339SOL    HW110577   2.196   1.482   3.095
 3339SOL    HW210578   2.307   1.536   3.184
 3340SOL     OW10579   2.276   0.743   3.464
 3340SOL    HW110580   2.335   0.790   3.405
 3340SOL    HW210581   2.320   0.660   3.482
 3341SOL     OW10582   3.462   0.778   3.542
 3341SOL    HW110583   3.375   0.819   3.535
 3341SOL    HW210584   3.514   0.820   3.474
 3342SOL     OW10585   2.869   0.085   3.585
 3342SOL    HW110586   2.893   0.169   3.546
 3342SOL    HW210587   2.893   0.020   3.519
 3343SOL     OW10588   2.361   0.047   3.620
 3343SOL    HW110589   2.355   0.004   3.535
 3343SOL    HW210590   2.293   0.115   3.617
 3344SOL     OW10591   2.444   0.873   2.893
 3344SOL    HW110592   2.474   0.964   2.891
 3344SOL    HW210593   2.388   0.868   2.970
 3345SOL     OW10594   3.221   0.859   2.893
 3345SOL    HW110595   3.139   0.851   2.846
 3345SOL    HW210596   3.260   0.771   2.888
 3346SOL     OW10597   3.067   0.535   2.126
 3346SOL    HW110598   3.073   0.455   2.178
 3346SOL    HW210599   3.024   0.598   2.185
 3347SOL     OW10600   2.152   0.234   3.103
 3347SOL    HW110601   2.110   0.250   3.187
 3347SOL    HW210602   2.185   0.145   3.109
 3348SOL     OW10603   1.907   1.310   3.139
 3348SOL    HW110604   1.941   1.257   3.211
 3348SOL    HW210605   1.915   1.400   3.168
 3349SOL     OW10606   2.586   0.632   2.920
 3349SOL    HW110607   2.659   0.612   2.862
 3349SOL    HW210608   2.559   0.720   2.897
 3350SOL     OW10609   3.596   0.959   3.713
 3350SOL    HW110610   3.548   0.901   3.654
 3350SOL    HW210611   3.537   0.972   3.788
 3351SOL     OW10612   2.160   0.057   2.516
 3351SOL    HW110613   2.150   0.152   2.519
 3351SOL    HW210614   2.171   0.031   2.607
 3352SOL     OW10615   3.475   0.376   2.226
 3352SOL    HW110616   3.505   0.313   2.292
 3352SOL    HW210617   3.453   0.454   2.277
 3353SOL     OW10618   2.890   0.761   2.824
 3353SOL    HW110619   2.888   0.777   2.918
 3353SOL    HW210620   2.862   0.670   2.814
 3354SOL     OW10621   2.844   1.567   3.578
 3354SOL    HW110622   2.829   1.610   3.494
 3354SOL    HW210623   2.887   1.484   3.554
 3355SOL     OW10624   3.717   1.508   3.468
 3355SOL    HW110625   3.734   1.533   3.377
 3355SOL    HW210626   3.799   1.527   3.514
 3356SOL     OW10627   2.216   0.917   3.669
 3356SOL    HW110628   2.298   0.934   3.716
 3356SOL    HW210629   2.240   0.854   3.601
 3357SOL     OW10630   3.393   0.266   1.990
 3357SOL    HW110631   3.321   0.210   2.018
 3357SOL    HW210632   3.422   0.310   2.070
 3358SOL     OW10633   3.155   0.827   1.894
 3358SOL    HW110634   3.197   0.740   1.896
 3358SOL    HW210635   3.186   0.866   1.812
 3359SOL     OW10636   2.927   1.335   2.715
 3359SOL    HW110637   2.930   1.262   2.653
 3359SOL    HW210638   2.989   1.399   2.680
 3360SOL     OW10639   2.171   0.810   2.810
 3360SOL    HW110640   2.264   0.832   2.803
 3360SOL    HW210641   2.171   0.720   2.844
 3361SOL     OW10642   2.199   0.530   2.875
 3361SOL    HW110643   2.156   0.447   2.856
 3361SOL    HW210644   2.274   0.533   2.817
 3362SOL     OW10645   2.997   0.374   3.556
 3362SOL    HW110646   2.948   0.439   3.607
 3362SOL    HW210647   3.083   0.414   3.543
 3363SOL     OW10648   3.021   0.212   3.335
 3363SOL    HW110649   3.013   0.275   3.406
 3363SOL    HW210650   3.058   0.261   3.262
 3364SOL     OW10651   1.867   1.322   2.057
 3364SOL    HW110652   1.780   1.336   2.019
 3364SOL    HW210653   1.865   1.232   2.090
 3365SOL     OW10654   1.959   1.784   2.792
 3365SOL    HW110655   1.929   1.702   2.753
 3365SOL    HW210656   2.047   1.797   2.755
 3366SOL     OW10657   2.357   1.573   2.766
 3366SOL    HW110658   2.426   1.635   2.791
 3366SOL    HW210659   2.402   1.508   2.712
 3367SOL     OW10660   2.848   0.794   3.090
 3367SOL    HW110661   2.902   0.770   3.165
 3367SOL    HW210662   2.762   0.755   3.108
 3368SOL     OW10663   1.896   0.542   2.980
 3368SOL    HW110664   1.974   0.524   2.928
 3368SOL    HW210665   1.927   0.548   3.070
 3369SOL     OW10666   2.047   0.518   3.582
 3369SOL    HW110667   2.121   0.498   3.525
 3369SOL    HW210668   2.005   0.594   3.541
 3370SOL     OW10669   3.239   0.940   3.521
 3370SOL    HW110670   3.259   1.033   3.520
 3370SOL    HW210671   3.236   0.915   3.429
 3371SOL     OW10672   2.673   0.574   2.216
 3371SOL    HW110673   2.677   0.502   2.153
 3371SOL    HW210674   2.599   0.628   2.187
 3372SOL     OW10675   3.503   0.602   3.050
 3372SOL    HW110676   3.493   0.542   3.124
 3372SOL    HW210677   3.590   0.582   3.015
 3373SOL     OW10678   2.112   1.551   3.595
 3373SOL    HW110679   2.082   1.612   3.662
 3373SOL    HW210680   2.108   1.465   3.638
 3374SOL     OW10681   2.558   0.459   3.127
 3374SOL    HW110682   2.512   0.382   3.094
 3374SOL    HW210683   2.559   0.520   3.053
 3375SOL     OW10684   2.790   1.679   3.329
 3375SOL    HW110685   2.765   1.646   3.243
 3375SOL    HW210686   2.789   1.774   3.319
 3376SOL     OW10687   2.328   0.493   2.047
 3376SOL    HW110688   2.386   0.565   2.068
 3376SOL    HW210689   2.242   0.534   2.036
 3377SOL     OW10690   2.009   1.140   3.334
 3377SOL    HW110691   2.012   1.087   3.414
 3377SOL    HW210692   2.026   1.078   3.264
 3378SOL     OW10693   3.190   1.048   3.086
 3378SOL    HW110694   3.213   0.985   3.018
 3378SOL    HW210695   3.118   1.099   3.048
 3379SOL     OW10696   3.173   0.857   2.169
 3379SOL    HW110697   3.097   0.827   2.219
 3379SOL    HW210698   3.147   0.843   2.077
 3380SOL     OW10699   3.633   1.745   3.011
 3380SOL    HW110700   3.692   1.771   2.941
 3380SOL    HW210701   3.608   1.655   2.990
 3381SOL     OW10702   3.104   1.733   2.977
 3381SOL    HW110703   3.185   1.752   2.931
 3381SOL    HW210704   3.108   1.639   2.995
 3382SOL     OW10705   1.947   1.266   2.875
 3382SOL    HW110706   1.932   1.278   2.969
 3382SOL    HW210707   1.872   1.213   2.847
 3383SOL     OW10708   2.541   1.664   3.589
 3383SOL    HW110709   2.489   1.744   3.583
 3383SOL    HW210710   2.605   1.673   3.518
 3384SOL     OW10711   3.580   0.130   2.357
 3384SOL    HW110712   3.652   0.136   2.295
 3384SOL    HW210713   3.604   0.057   2.415
 3385SOL     OW10714   3.252   1.568   2.346
 3385SOL    HW110715   3.312   1.600   2.279
 3385SOL    HW210716   3.204   1.645   2.374
 3386SOL     OW10717   1.992   1.804   3.708
 3386SOL    HW110718   1.943   1.734   3.752
 3386SOL    HW210719   2.045   1.843   3.777
 3387SOL     OW10720   3.140   0.927   2.534
 3387SOL    HW110721   3.213   0.864   2.539
 3387SOL    HW210722   3.174   0.999   2.482
 3388SOL     OW10723   2.678   1.273   3.292
 3388SOL    HW110724   2.651   1.311   3.375
 3388SOL    HW210725   2.608   1.294   3.231
 3389SOL     OW10726   2.534   1.619   2.015
 3389SOL    HW110727   2.544   1.628   1.920
 3389SOL    HW210728   2.480   1.541   2.026
 3390SOL     OW10729   3.492   1.727   3.254
 3390SOL    HW110730   3.540   1.734   3.171
 3390SOL    HW210731   3.478   1.817   3.282
 3391SOL     OW10732   3.701   0.155   2.828
 3391SOL    HW110733   3.732   0.078   2.780
 3391SOL    HW210734   3.614   0.173   2.792
 3392SOL     OW10735   2.127   0.323   2.580
 3392SOL    HW110736   2.042   0.357   2.553
 3392SOL    HW210737   2.120   0.314   2.675
 3393SOL     OW10738   3.069   1.607   1.893
 3393SOL    HW110739   3.060   1.516   1.921
 3393SOL    HW210740   3.003   1.618   1.824
 3394SOL     OW10741   2.686   1.006   3.234
 3394SOL    HW110742   2.729   1.001   3.149
 3394SOL    HW210743   2.686   1.099   3.257
 3395SOL     OW10744   2.777   0.910   2.151
 3395SOL    HW110745   2.840   0.942   2.086
 3395SOL    HW210746   2.824   0.840   2.197
 3396SOL     OW10747   3.355   1.624   1.904
 3396SOL    HW110748   3.260   1.619   1.892
 3396SOL    HW210749   3.391   1.631   1.816
 3397SOL     OW10750   2.232   1.301   3.354
 3397SOL    HW110751   2.218   1.379   3.300
 3397SOL    HW210752   2.154   1.247   3.338
 3398SOL     OW10753   3.474   1.283   3.143
 3398SOL    HW110754   3.532   1.273   3.218
 3398SOL    HW210755   3.413   1.352   3.169
 3399SOL     OW10756   2.912   1.106   2.568
 3399SOL    HW110757   2.841   1.055   2.607
 3399SOL    HW210758   2.974   1.041   2.536
 3400SOL     OW10759   2.869   0.243   2.863
 3400SOL    HW110760   2.874   0.217   2.771
 3400SOL    HW210761   2.861   0.160   2.911
 3401SOL     OW10762   2.463   1.490   2.343
 3401SOL    HW110763   2.505   1.438   2.274
 3401SOL    HW210764   2.400   1.545   2.297
 3402SOL     OW10765   3.582   0.394   3.239
 3402SOL    HW110766   3.655   0.456   3.238
 3402SOL    HW210767   3.612   0.322   3.183
 3403SOL     OW10768   2.121   1.346   2.150
 3403SOL    HW110769   2.028   1.344   2.127
 3403SOL    HW210770   2.123   1.384   2.238
 3404SOL     OW10771   1.974   1.019   3.581
 3404SOL    HW110772   1.898   0.997   3.635
 3404SOL    HW210773   2.049   0.983   3.629
 3405SOL     OW10774   2.520   0.203   3.360
 3405SOL    HW110775   2.600   0.179   3.313
 3405SOL    HW210776   2.550   0.224   3.448
 3406SOL     OW10777   1.943   0.341   1.909
 3406SOL    HW110778   1.872   0.288   1.873
 3406SOL    HW210779   1.958   0.410   1.844
 3407SOL     OW10780   3.293   0.859   3.263
 3407SOL    HW110781   3.244   0.919   3.207
 3407SOL    HW210782   3.382   0.861   3.229
 3408SOL     OW10783   1.927   0.181   2.183
 3408SOL    HW110784   1.925   0.248   2.114
 3408SOL    HW210785   2.002   0.126   2.160
 3409SOL     OW10786   3.041   1.341   1.979
 3409SOL    HW110787   2.951   1.310   1.982
 3409SOL    HW210788   3.070   1.340   2.070
 3410SOL     OW10789   2.481   0.831   3.295
 3410SOL    HW110790   2.536   0.907   3.280
 3410SOL    HW210791   2.542   0.758   3.303
 3411SOL     OW10792   3.346   1.775   2.839
 3411SOL    HW110793   3.371   1.833   2.767
 3411SOL    HW210794   3.428   1.758   2.885
 3412SOL     OW10795   2.578   0.564   3.568
 3412SOL    HW110796   2.615   0.628   3.628
 3412SOL    HW210797   2.612   0.480   3.599
 3413SOL     OW10798   3.332   1.202   3.495
 3413SOL    HW110799   3.320   1.215   3.589
 3413SOL    HW210800   3.426   1.215   3.481
 3414SOL     OW10801   2.247   1.738   3.429
 3414SOL    HW110802   2.159   1.772   3.410
 3414SOL    HW210803   2.232   1.653   3.469
 3415SOL     OW10804   3.533   0.881   3.117
 3415SOL    HW110805   3.524   0.796   3.075
 3415SOL    HW210806   3.523   0.945   3.047
 3416SOL     OW10807   3.080   0.329   2.310
 3416SOL    HW110808   3.145   0.259   2.300
 3416SOL    HW210809   3.107   0.376   2.388
 3417SOL     OW10810   2.450   0.739   2.532
 3417SOL    HW110811   2.491   0.824   2.515
 3417SOL    HW210812   2.382   0.732   2.465
 3418SOL     OW10813   3.626   0.363   3.505
 3418SOL    HW110814   3.610   0.377   3.412
 3418SOL    HW210815   3.548   0.318   3.537
 3419SOL     OW10816   3.607   0.933   3.374
 3419SOL    HW110817   3.605   1.028   3.387
 3419SOL    HW210818   3.592   0.922   3.281
 3420SOL     OW10819   2.724   1.368   1.894
 3420SOL    HW110820   2.685   1.394   1.977
 3420SOL    HW210821   2.743   1.451   1.849
 3421SOL     OW10822   2.527   1.780   2.806
 3421SOL    HW110823   2.506   1.871   2.784
 3421SOL    HW210824   2.623   1.776   2.804
 3422SOL     OW10825   2.729   0.966   2.718
 3422SOL    HW110826   2.779   0.895   2.757
 3422SOL    HW210827   2.695   1.016   2.792
 3423SOL     OW10828   2.942   0.989   1.951
 3423SOL    HW110829   2.920   1.039   1.872
 3423SOL    HW210830   3.017   0.935   1.925
 3424SOL     OW10831   3.717   1.556   2.707
 3424SOL    HW110832   3.640   1.544   2.652
 3424SOL    HW210833   3.710   1.488   2.774
 3425SOL     OW10834   2.086   1.303   3.718
 3425SOL    HW110835   2.018   1.242   3.688
 3425SOL    HW210836   2.068   1.315   3.811
 3426SOL     OW10837   1.948   1.235   2.525
 3426SOL    HW110838   1.949   1.187   2.608
 3426SOL    HW210839   2.015   1.192   2.472
 3427SOL     OW10840   2.542   1.402   3.488
 3427SOL    HW110841   2.463   1.358   3.518
 3427SOL    HW210842   2.537   1.489   3.526
 3428SOL     OW10843   3.671   0.182   3.101
 3428SOL    HW110844   3.670   0.089   3.121
 3428SOL    HW210845   3.687   0.186   3.007
 3429SOL     OW10846   2.297   0.433   2.391
 3429SOL    HW110847   2.320   0.364   2.329
 3429SOL    HW210848   2.242   0.390   2.456
 3430SOL     OW10849   3.562   1.491   2.961
 3430SOL    HW110850   3.482   1.466   2.915
 3430SOL    HW210851   3.575   1.421   3.025
 3431SOL     OW10852   2.191   0.556   3.153
 3431SOL    HW110853   2.246   0.500   3.207
 3431SOL    HW210854   2.210   0.530   3.063
 3432SOL     OW10855   2.688   1.578   2.540
 3432SOL    HW110856   2.678   1.625   2.458
 3432SOL    HW210857   2.611   1.521   2.546
 3433SOL     OW10858   3.294   0.216   2.980
 3433SOL    HW110859   3.330   0.145   3.033
 3433SOL    HW210860   3.243   0.268   3.041
 3434SOL     OW10861   2.859   0.009   3.011
 3434SOL    HW110862   2.815   4.425   3.003
 3434SOL    HW210863   2.951   4.488   3.023
 3435SOL     OW10864   2.634   1.332   2.174
 3435SOL    HW110865   2.601   1.243   2.181
 3435SOL    HW210866   2.716   1.331   2.224
 3436SOL     OW10867   2.483   1.557   3.146
 3436SOL    HW110868   2.485   1.639   3.196
 3436SOL    HW210869   2.570   1.550   3.108
 3437SOL     OW10870   3.203   0.053   2.014
 3437SOL    HW110871   3.242   4.477   1.970
 3437SOL    HW210872   3.128   0.017   2.061
 3438SOL     OW10873   3.177   0.463   2.540
 3438SOL    HW110874   3.116   0.536   2.541
 3438SOL    HW210875   3.164   0.421   2.626
 3439SOL     OW10876   3.447   0.201   2.729
 3439SOL    HW110877   3.388   0.216   2.802
 3439SOL    HW210878   3.450   0.285   2.683
 3440SOL     OW10879   1.906   1.072   2.167
 3440SOL    HW110880   2.000   1.063   2.150
 3440SOL    HW210881   1.877   0.984   2.190
 3441SOL     OW10882   2.744   1.651   2.206
 3441SOL    HW110883   2.673   1.633   2.144
 3441SOL    HW210884   2.713   1.727   2.256
 3442SOL     OW10885   2.092   0.626   3.844
 3442SOL    HW110886   2.004   0.620   3.882
 3442SOL    HW210887   2.081   0.595   3.754
 3443SOL     OW10888   2.071   0.297   4.713
 3443SOL    HW110889   2.101   0.270   4.799
 3443SOL    HW210890   1.989   0.250   4.700
 3444SOL     OW10891   1.870   0.385   4.363
 3444SOL    HW110892   1.784   0.404   4.399
 3444SOL    HW210893   1.855   0.311   4.304
 3445SOL     OW10894   2.421   1.277   4.894
 3445SOL    HW110895   2.335   1.290   4.856
 3445SOL    HW210896   2.452   1.365   4.916
 3446SOL     OW10897   3.420   1.512   4.430
 3446SOL    HW110898   3.377   1.494   4.514
 3446SOL    HW210899   3.349   1.517   4.367
 3447SOL     OW10900   2.995   0.699   4.424
 3447SOL    HW110901   3.042   0.782   4.413
 3447SOL    HW210902   2.945   0.710   4.505
 3448SOL     OW10903   3.628   0.608   3.952
 3448SOL    HW110904   3.608   0.597   3.859
 3448SOL    HW210905   3.595   0.528   3.993
 3449SOL     OW10906   2.619   1.142   4.763
 3449SOL    HW110907   2.548   1.174   4.818
 3449SOL    HW210908   2.653   1.221   4.720
 3450SOL     OW10909   2.727   0.777   5.545
 3450SOL    HW110910   2.710   0.849   5.607
 3450SOL    HW210911   2.750   0.821   5.464
 3451SOL     OW10912   2.549   1.005   4.371
 3451SOL    HW110913   2.613   0.991   4.441
 3451SOL    HW210914   2.478   1.055   4.413
 3452SOL     OW10915   2.569   1.149   5.532
 3452SOL    HW110916   2.616   1.228   5.558
 3452SOL    HW210917   2.483   1.180   5.503
 3453SOL     OW10918   2.196   1.421   4.798
 3453SOL    HW110919   2.121   1.391   4.748
 3453SOL    HW210920   2.245   1.477   4.737
 3454SOL     OW10921   3.322   1.498   5.078
 3454SOL    HW110922   3.367   1.582   5.087
 3454SOL    HW210923   3.264   1.494   5.154
 3455SOL     OW10924   2.303   0.395   5.215
 3455SOL    HW110925   2.385   0.346   5.216
 3455SOL    HW210926   2.235   0.329   5.228
 3456SOL     OW10927   3.474   0.447   4.462
 3456SOL    HW110928   3.393   0.470   4.416
 3456SOL    HW210929   3.494   0.524   4.515
 3457SOL     OW10930   2.079   1.709   4.187
 3457SOL    HW110931   2.101   1.785   4.240
 3457SOL    HW210932   2.154   1.698   4.128
 3458SOL     OW10933   3.001   1.348   5.421
 3458SOL    HW110934   3.036   1.337   5.510
 3458SOL    HW210935   2.942   1.273   5.409
 3459SOL     OW10936   2.089   1.438   4.262
 3459SOL    HW110937   2.070   1.532   4.265
 3459SOL    HW210938   2.028   1.399   4.325
 3460SOL     OW10939   2.116   1.090   4.613
 3460SOL    HW110940   2.115   1.004   4.655
 3460SOL    HW210941   2.060   1.145   4.669
 3461SOL     OW10942   2.449   0.981   3.857
 3461SOL    HW110943   2.494   1.031   3.789
 3461SOL    HW210944   2.490   1.010   3.939
 3462SOL     OW10945   3.446   0.115   5.197
 3462SOL    HW110946   3.463   0.183   5.132
 3462SOL    HW210947   3.435   0.162   5.279
 3463SOL     OW10948   1.977   0.652   4.284
 3463SOL    HW110949   1.948   0.564   4.305
 3463SOL    HW210950   1.969   0.701   4.365
 3464SOL     OW10951   3.704   1.760   4.059
 3464SOL    HW110952   3.764   1.731   4.128
 3464SOL    HW210953   3.730   1.851   4.041
 3465SOL     OW10954   1.895   1.596   3.848
 3465SOL    HW110955   1.877   1.504   3.865
 3465SOL    HW210956   1.868   1.641   3.927
 3466SOL     OW10957   3.553   0.920   4.364
 3466SOL    HW110958   3.637   0.879   4.344
 3466SOL    HW210959   3.531   0.969   4.285
 3467SOL     OW10960   3.507   1.108   4.153
 3467SOL    HW110961   3.593   1.115   4.111
 3467SOL    HW210962   3.512   1.168   4.227
 3468SOL     OW10963   1.984   0.744   5.309
 3468SOL    HW110964   2.076   0.768   5.320
 3468SOL    HW210965   1.937   0.827   5.317
 3469SOL     OW10966   2.480   1.376   4.452
 3469SOL    HW110967   2.431   1.294   4.462
 3469SOL    HW210968   2.461   1.403   4.362
 3470SOL     OW10969   3.153   1.237   5.149
 3470SOL    HW110970   3.185   1.170   5.089
 3470SOL    HW210971   3.209   1.230   5.226
 3471SOL     OW10972   2.678   0.013   4.272
 3471SOL    HW110973   2.713   0.099   4.248
 3471SOL    HW210974   2.583   0.023   4.265
 3472SOL     OW10975   2.052   0.968   4.994
 3472SOL    HW110976   2.137   0.926   4.979
 3472SOL    HW210977   1.989   0.912   4.947
 3473SOL     OW10978   3.394   0.992   3.922
 3473SOL    HW110979   3.323   0.935   3.953
 3473SOL    HW210980   3.434   1.027   4.001
 3474SOL     OW10981   3.068   1.785   5.348
 3474SOL    HW110982   3.045   1.847   5.279
 3474SOL    HW210983   3.077   1.701   5.303
 3475SOL     OW10984   2.177   0.254   5.505
 3475SOL    HW110985   2.241   0.319   5.537
 3475SOL    HW210986   2.103   0.262   5.565
 3476SOL     OW10987   3.331   1.418   4.678
 3476SOL    HW110988   3.262   1.432   4.742
 3476SOL    HW210989   3.319   1.327   4.649
 3477SOL     OW10990   3.524   1.735   4.301
 3477SOL    HW110991   3.500   1.707   4.213
 3477SOL    HW210992   3.496   1.663   4.358
 3478SOL     OW10993   2.456   0.723   3.989
 3478SOL    HW110994   2.462   0.804   3.938
 3478SOL    HW210995   2.391   0.742   4.056
 3479SOL     OW10996   3.153   0.361   4.658
 3479SOL    HW110997   3.063   0.330   4.642
 3479SOL    HW210998   3.189   0.298   4.720
 3480SOL     OW10999   3.443   1.670   4.033
 3480SOL    HW111000   3.533   1.703   4.026
 3480SOL    HW211001   3.417   1.653   3.942
 3481SOL     OW11002   2.658   0.619   5.179
 3481SOL    HW111003   2.629   0.594   5.267
 3481SOL    HW211004   2.616   0.554   5.121
 3482SOL     OW11005   3.251   0.479   5.400
 3482SOL    HW111006   3.254   0.523   5.485
 3482SOL    HW211007   3.317   0.410   5.406
 3483SOL     OW11008   2.819   0.889   5.306
 3483SOL    HW111009   2.872   0.818   5.271
 3483SOL    HW211010   2.771   0.922   5.230
 3484SOL     OW11011   2.858   0.417   4.961
 3484SOL    HW111012   2.771   0.429   4.999
 3484SOL    HW211013   2.842   0.365   4.882
 3485SOL     OW11014   2.911   0.698   4.151
 3485SOL    HW111015   2.927   0.690   4.245
 3485SOL    HW211016   2.829   0.651   4.137
 3486SOL     OW11017   1.951   0.820   4.500
 3486SOL    HW111018   2.032   0.814   4.551
 3486SOL    HW211019   1.907   0.899   4.534
 3487SOL     OW11020   2.716   0.368   3.905
 3487SOL    HW111021   2.790   0.403   3.854
 3487SOL    HW211022   2.732   0.274   3.909
 3488SOL     OW11023   3.568   0.574   5.552
 3488SOL    HW111024   3.532   0.650   5.505
 3488SOL    HW211025   3.602   0.518   5.483
 3489SOL     OW11026   3.238   1.142   4.265
 3489SOL    HW111027   3.317   1.130   4.212
 3489SOL    HW211028   3.185   1.205   4.216
 3490SOL     OW11029   2.401   0.203   4.625
 3490SOL    HW111030   2.421   0.221   4.717
 3490SOL    HW211031   2.392   0.290   4.585
 3491SOL     OW11032   2.868   1.444   4.197
 3491SOL    HW111033   2.830   1.517   4.148
 3491SOL    HW211034   2.857   1.467   4.289
 3492SOL     OW11035   3.660   1.060   4.591
 3492SOL    HW111036   3.605   1.041   4.516
 3492SOL    HW211037   3.599   1.065   4.665
 3493SOL     OW11038   3.082   1.535   5.236
 3493SOL    HW111039   3.063   1.466   5.299
 3493SOL    HW211040   3.029   1.512   5.159
 3494SOL     OW11041   2.183   0.956   3.973
 3494SOL    HW111042   2.265   0.975   3.927
 3494SOL    HW211043   2.152   0.875   3.934
 3495SOL     OW11044   3.340   0.740   4.449
 3495SOL    HW111045   3.327   0.696   4.532
 3495SOL    HW211046   3.416   0.797   4.463
 3496SOL     OW11047   2.329   1.259   5.456
 3496SOL    HW111048   2.295   1.267   5.367
 3496SOL    HW211049   2.251   1.264   5.511
 3497SOL     OW11050   2.982   1.779   3.953
 3497SOL    HW111051   2.912   1.735   4.002
 3497SOL    HW211052   3.005   1.717   3.884
 3498SOL     OW11053   2.050   0.267   5.234
 3498SOL    HW111054   1.985   0.335   5.217
 3498SOL    HW211055   2.062   0.269   5.329
 3499SOL     OW11056   3.492   1.379   3.810
 3499SOL    HW111057   3.450   1.464   3.796
 3499SOL    HW211058   3.422   1.316   3.793
 3500SOL     OW11059   2.329   1.738   4.044
 3500SOL    HW111060   2.374   1.793   4.109
 3500SOL    HW211061   2.400   1.704   3.988
 3501SOL     OW11062   3.281   0.136   4.142
 3501SOL    HW111063   3.264   0.086   4.062
 3501SOL    HW211064   3.375   0.131   4.154
 3502SOL     OW11065   2.809   1.696   4.623
 3502SOL    HW111066   2.880   1.636   4.645
 3502SOL    HW211067   2.758   1.650   4.557
 3503SOL     OW11068   2.254   0.695   4.200
 3503SOL    HW111069   2.277   0.603   4.212
 3503SOL    HW211070   2.160   0.698   4.219
 3504SOL     OW11071   3.387   0.233   5.446
 3504SOL    HW111072   3.387   0.256   5.539
 3504SOL    HW211073   3.311   0.177   5.435
 3505SOL     OW11074   2.488   0.122   3.846
 3505SOL    HW111075   2.576   0.086   3.854
 3505SOL    HW211076   2.455   0.087   3.763
 3506SOL     OW11077   2.631   0.270   5.477
 3506SOL    HW111078   2.696   0.202   5.490
 3506SOL    HW211079   2.586   0.277   5.561
 3507SOL     OW11080   2.719   1.501   4.925
 3507SOL    HW111081   2.716   1.481   4.831
 3507SOL    HW211082   2.803   1.466   4.954
 3508SOL     OW11083   3.204   0.589   5.153
 3508SOL    HW111084   3.231   0.560   5.240
 3508SOL    HW211085   3.238   0.678   5.146
 3509SOL     OW11086   2.675   1.393   4.658
 3509SOL    HW111087   2.760   1.385   4.617
 3509SOL    HW211088   2.612   1.391   4.586
 3510SOL     OW11089   2.785   0.517   4.625
 3510SOL    HW111090   2.768   0.515   4.530
 3510SOL    HW211091   2.824   0.432   4.644
 3511SOL     OW11092   2.416   0.074   4.244
 3511SOL    HW111093   2.327   0.048   4.268
 3511SOL    HW211094   2.404   0.140   4.176
 3512SOL     OW11095   3.290   1.198   3.765
 3512SOL    HW111096   3.321   1.122   3.815
 3512SOL    HW211097   3.205   1.218   3.803
 3513SOL     OW11098   2.158   0.070   3.919
 3513SOL    HW111099   2.236   0.122   3.901
 3513SOL    HW211100   2.188   4.500   3.977
 3514SOL     OW11101   2.813   0.240   4.194
 3514SOL    HW111102   2.761   0.293   4.133
 3514SOL    HW211103   2.902   0.276   4.187
 3515SOL     OW11104   2.942   0.680   5.185
 3515SOL    HW111105   2.870   0.617   5.185
 3515SOL    HW211106   3.021   0.627   5.173
 3516SOL     OW11107   3.091   1.564   4.514
 3516SOL    HW111108   3.101   1.636   4.452
 3516SOL    HW211109   3.152   1.585   4.585
 3517SOL     OW11110   2.330   1.147   4.459
 3517SOL    HW111111   2.259   1.130   4.522
 3517SOL    HW211112   2.290   1.130   4.373
 3518SOL     OW11113   3.137   1.789   4.328
 3518SOL    HW111114   3.176   1.859   4.275
 3518SOL    HW211115   3.061   1.830   4.369
 3519SOL     OW11116   2.892   0.548   3.740
 3519SOL    HW111117   2.844   0.630   3.725
 3519SOL    HW211118   2.950   0.568   3.813
 3520SOL     OW11119   1.943   0.551   5.119
 3520SOL    HW111120   2.034   0.554   5.088
 3520SOL    HW211121   1.936   0.623   5.182
 3521SOL     OW11122   2.426   0.242   4.890
 3521SOL    HW111123   2.453   0.159   4.929
 3521SOL    HW211124   2.334   0.252   4.915
 3522SOL     OW11125   2.728   0.503   4.350
 3522SOL    HW111126   2.680   0.545   4.278
 3522SOL    HW211127   2.701   0.411   4.346
 3523SOL     OW11128   2.828   0.028   4.503
 3523SOL    HW111129   2.779   0.025   4.421
 3523SOL    HW211130   2.840   4.436   4.527
 3524SOL     OW11131   3.299   1.162   4.581
 3524SOL    HW111132   3.229   1.097   4.581
 3524SOL    HW211133   3.321   1.175   4.489
 3525SOL     OW11134   3.329   0.604   4.701
 3525SOL    HW111135   3.276   0.524   4.703
 3525SOL    HW211136   3.387   0.597   4.776
 3526SOL     OW11137   3.709   0.818   4.106
 3526SOL    HW111138   3.764   0.766   4.164
 3526SOL    HW211139   3.680   0.756   4.039
 3527SOL     OW11140   2.352   1.417   3.883
 3527SOL    HW111141   2.277   1.387   3.935
 3527SOL    HW211142   2.336   1.382   3.796
 3528SOL     OW11143   3.531   1.265   4.370
 3528SOL    HW111144   3.626   1.270   4.384
 3528SOL    HW211145   3.499   1.353   4.392
 3529SOL     OW11146   3.256   0.570   3.794
 3529SOL    HW111147   3.195   0.554   3.865
 3529SOL    HW211148   3.342   0.550   3.831
 3530SOL     OW11149   2.385   0.266   4.048
 3530SOL    HW111150   2.430   0.214   3.982
 3530SOL    HW211151   2.368   0.350   4.005
 3531SOL     OW11152   3.615   1.237   5.299
 3531SOL    HW111153   3.703   1.199   5.296
 3531SOL    HW211154   3.630   1.327   5.328
 3532SOL     OW11155   2.925   1.353   5.059
 3532SOL    HW111156   2.849   1.323   5.108
 3532SOL    HW211157   3.000   1.309   5.100
 3533SOL     OW11158   3.469   1.624   5.377
 3533SOL    HW111159   3.464   1.660   5.288
 3533SOL    HW211160   3.552   1.577   5.380
 3534SOL     OW11161   2.988   1.201   4.830
 3534SOL    HW111162   2.930   1.240   4.895
 3534SOL    HW211163   2.955   1.233   4.746
 3535SOL     OW11164   3.491   1.099   4.802
 3535SOL    HW111165   3.487   1.161   4.875
 3535SOL    HW211166   3.412   1.115   4.752
 3536SOL     OW11167   2.765   0.131   5.113
 3536SOL    HW111168   2.788   0.088   5.031
 3536SOL    HW211169   2.850   0.146   5.156
 3537SOL     OW11170   2.847   1.116   5.448
 3537SOL    HW111171   2.754   1.132   5.466
 3537SOL    HW211172   2.846   1.039   5.391
 3538SOL     OW11173   2.571   1.061   4.095
 3538SOL    HW111174   2.557   1.046   4.189
 3538SOL    HW211175   2.646   1.007   4.073
 3539SOL     OW11176   2.279   0.816   4.976
 3539SOL    HW111177   2.349   0.824   5.041
 3539SOL    HW211178   2.245   0.727   4.990
 3540SOL     OW11179   3.131   0.376   4.996
 3540SOL    HW111180   3.163   0.454   5.041
 3540SOL    HW211181   3.042   0.398   4.969
 3541SOL     OW11182   2.213   1.107   4.215
 3541SOL    HW111183   2.216   1.181   4.154
 3541SOL    HW211184   2.212   1.029   4.159
 3542SOL     OW11185   2.419   0.531   4.583
 3542SOL    HW111186   2.433   0.590   4.508
 3542SOL    HW211187   2.482   0.560   4.649
 3543SOL     OW11188   3.110   1.348   4.113
 3543SOL    HW111189   3.165   1.420   4.144
 3543SOL    HW211190   3.023   1.368   4.147
 3544SOL     OW11191   3.144   1.449   4.870
 3544SOL    HW111192   3.196   1.453   4.950
 3544SOL    HW211193   3.084   1.376   4.884
 3545SOL     OW11194   3.444   0.624   4.200
 3545SOL    HW111195   3.399   0.675   4.267
 3545SOL    HW211196   3.488   0.690   4.146
 3546SOL     OW11197   2.276   0.743   5.326
 3546SOL    HW111198   2.335   0.790   5.267
 3546SOL    HW211199   2.321   0.660   5.344
 3547SOL     OW11200   3.462   0.778   5.404
 3547SOL    HW111201   3.376   0.819   5.397
 3547SOL    HW211202   3.514   0.820   5.336
 3548SOL     OW11203   2.868   0.085   5.447
 3548SOL    HW111204   2.894   0.169   5.409
 3548SOL    HW211205   2.893   0.020   5.381
 3549SOL     OW11206   2.360   0.047   5.482
 3549SOL    HW111207   2.355   0.004   5.397
 3549SOL    HW211208   2.293   0.115   5.479
 3550SOL     OW11209   2.444   0.873   4.755
 3550SOL    HW111210   2.475   0.964   4.752
 3550SOL    HW211211   2.388   0.869   4.832
 3551SOL     OW11212   3.221   0.858   4.756
 3551SOL    HW111213   3.139   0.851   4.708
 3551SOL    HW211214   3.260   0.771   4.750
 3552SOL     OW11215   3.067   0.535   3.988
 3552SOL    HW111216   3.073   0.455   4.040
 3552SOL    HW211217   3.024   0.598   4.047
 3553SOL     OW11218   2.152   0.234   4.965
 3553SOL    HW111219   2.110   0.250   5.049
 3553SOL    HW211220   2.185   0.145   4.971
 3554SOL     OW11221   1.899   1.325   5.013
 3554SOL    HW111222   1.937   1.262   5.074
 3554SOL    HW211223   1.963   1.396   5.009
 3555SOL     OW11224   2.585   0.631   4.782
 3555SOL    HW111225   2.659   0.612   4.725
 3555SOL    HW211226   2.559   0.721   4.759
 3556SOL     OW11227   3.596   0.959   5.575
 3556SOL    HW111228   3.548   0.901   5.516
 3556SOL    HW211229   3.537   0.971   5.650
 3557SOL     OW11230   2.160   0.057   4.378
 3557SOL    HW111231   2.150   0.152   4.381
 3557SOL    HW211232   2.171   0.031   4.469
 3558SOL     OW11233   3.475   0.376   4.088
 3558SOL    HW111234   3.505   0.313   4.154
 3558SOL    HW211235   3.453   0.455   4.139
 3559SOL     OW11236   2.890   0.761   4.686
 3559SOL    HW111237   2.888   0.777   4.780
 3559SOL    HW211238   2.862   0.670   4.676
 3560SOL     OW11239   3.718   1.507   5.330
 3560SOL    HW111240   3.734   1.533   5.239
 3560SOL    HW211241   3.799   1.528   5.376
 3561SOL     OW11242   2.213   0.916   5.531
 3561SOL    HW111243   2.295   0.938   5.576
 3561SOL    HW211244   2.240   0.853   5.464
 3562SOL     OW11245   3.393   0.266   3.852
 3562SOL    HW111246   3.321   0.210   3.880
 3562SOL    HW211247   3.422   0.310   3.932
 3563SOL     OW11248   3.155   0.826   3.755
 3563SOL    HW111249   3.197   0.740   3.758
 3563SOL    HW211250   3.186   0.866   3.674
 3564SOL     OW11251   2.928   1.336   4.577
 3564SOL    HW111252   2.931   1.263   4.515
 3564SOL    HW211253   2.991   1.399   4.542
 3565SOL     OW11254   2.171   0.810   4.672
 3565SOL    HW111255   2.264   0.833   4.665
 3565SOL    HW211256   2.171   0.721   4.706
 3566SOL     OW11257   2.199   0.530   4.737
 3566SOL    HW111258   2.156   0.447   4.718
 3566SOL    HW211259   2.275   0.533   4.679
 3567SOL     OW11260   2.997   0.374   5.419
 3567SOL    HW111261   2.948   0.439   5.469
 3567SOL    HW211262   3.083   0.414   5.405
 3568SOL     OW11263   3.021   0.212   5.197
 3568SOL    HW111264   3.013   0.276   5.268
 3568SOL    HW211265   3.058   0.261   5.124
 3569SOL     OW11266   1.867   1.322   3.918
 3569SOL    HW111267   1.780   1.336   3.881
 3569SOL    HW211268   1.865   1.232   3.952
 3570SOL     OW11269   2.366   1.552   4.622
 3570SOL    HW111270   2.438   1.613   4.637
 3570SOL    HW211271   2.402   1.486   4.562
 3571SOL     OW11272   2.848   0.793   4.952
 3571SOL    HW111273   2.902   0.769   5.027
 3571SOL    HW211274   2.762   0.756   4.971
 3572SOL     OW11275   1.896   0.542   4.842
 3572SOL    HW111276   1.974   0.524   4.790
 3572SOL    HW211277   1.928   0.548   4.932
 3573SOL     OW11278   2.047   0.518   5.444
 3573SOL    HW111279   2.121   0.498   5.387
 3573SOL    HW211280   2.005   0.594   5.403
 3574SOL     OW11281   3.239   0.940   5.383
 3574SOL    HW111282   3.259   1.033   5.382
 3574SOL    HW211283   3.235   0.915   5.291
 3575SOL     OW11284   2.673   0.574   4.078
 3575SOL    HW111285   2.677   0.502   4.015
 3575SOL    HW211286   2.599   0.628   4.049
 3576SOL     OW11287   3.503   0.601   4.912
 3576SOL    HW111288   3.492   0.542   4.986
 3576SOL    HW211289   3.590   0.582   4.877
 3577SOL     OW11290   2.557   0.460   4.989
 3577SOL    HW111291   2.512   0.382   4.955
 3577SOL    HW211292   2.559   0.520   4.915
 3578SOL     OW11293   2.328   0.493   3.909
 3578SOL    HW111294   2.386   0.565   3.930
 3578SOL    HW211295   2.242   0.534   3.898
 3579SOL     OW11296   2.011   1.143   5.193
 3579SOL    HW111297   2.015   1.092   5.274
 3579SOL    HW211298   2.026   1.078   5.124
 3580SOL     OW11299   3.189   1.048   4.948
 3580SOL    HW111300   3.213   0.985   4.880
 3580SOL    HW211301   3.118   1.099   4.910
 3581SOL     OW11302   3.173   0.856   4.030
 3581SOL    HW111303   3.097   0.827   4.081
 3581SOL    HW211304   3.147   0.843   3.939
 3582SOL     OW11305   3.632   1.745   4.873
 3582SOL    HW111306   3.692   1.771   4.803
 3582SOL    HW211307   3.608   1.655   4.852
 3583SOL     OW11308   3.120   1.718   4.833
 3583SOL    HW111309   3.201   1.738   4.786
 3583SOL    HW211310   3.124   1.624   4.850
 3584SOL     OW11311   1.946   1.259   4.747
 3584SOL    HW111312   1.919   1.271   4.838
 3584SOL    HW211313   1.872   1.212   4.706
 3585SOL     OW11314   3.580   0.130   4.219
 3585SOL    HW111315   3.652   0.136   4.157
 3585SOL    HW211316   3.604   0.057   4.277
 3586SOL     OW11317   3.252   1.567   4.206
 3586SOL    HW111318   3.312   1.601   4.140
 3586SOL    HW211319   3.206   1.644   4.238
 3587SOL     OW11320   3.140   0.926   4.396
 3587SOL    HW111321   3.213   0.864   4.400
 3587SOL    HW211322   3.174   0.999   4.344
 3588SOL     OW11323   2.683   1.269   5.157
 3588SOL    HW111324   2.653   1.307   5.240
 3588SOL    HW211325   2.620   1.299   5.092
 3589SOL     OW11326   2.531   1.620   3.880
 3589SOL    HW111327   2.544   1.630   3.785
 3589SOL    HW211328   2.479   1.540   3.888
 3590SOL     OW11329   3.493   1.727   5.117
 3590SOL    HW111330   3.540   1.734   5.034
 3590SOL    HW211331   3.479   1.817   5.145
 3591SOL     OW11332   3.701   0.155   4.691
 3591SOL    HW111333   3.732   0.078   4.642
 3591SOL    HW211334   3.614   0.173   4.654
 3592SOL     OW11335   2.127   0.323   4.442
 3592SOL    HW111336   2.042   0.357   4.415
 3592SOL    HW211337   2.120   0.314   4.537
 3593SOL     OW11338   3.069   1.607   3.755
 3593SOL    HW111339   3.060   1.516   3.783
 3593SOL    HW211340   3.004   1.617   3.686
 3594SOL     OW11341   2.686   1.005   5.095
 3594SOL    HW111342   2.729   1.002   5.010
 3594SOL    HW211343   2.687   1.097   5.120
 3595SOL     OW11344   2.777   0.910   4.013
 3595SOL    HW111345   2.840   0.942   3.948
 3595SOL    HW211346   2.824   0.840   4.059
 3596SOL     OW11347   3.355   1.625   3.766
 3596SOL    HW111348   3.260   1.619   3.754
 3596SOL    HW211349   3.391   1.631   3.678
 3597SOL     OW11350   2.231   1.305   5.214
 3597SOL    HW111351   2.225   1.372   5.147
 3597SOL    HW211352   2.158   1.246   5.195
 3598SOL     OW11353   3.474   1.284   5.005
 3598SOL    HW111354   3.532   1.274   5.081
 3598SOL    HW211355   3.413   1.353   5.030
 3599SOL     OW11356   2.912   1.106   4.429
 3599SOL    HW111357   2.841   1.055   4.469
 3599SOL    HW211358   2.974   1.040   4.398
 3600SOL     OW11359   2.868   0.243   4.725
 3600SOL    HW111360   2.874   0.217   4.633
 3600SOL    HW211361   2.861   0.160   4.773
 3601SOL     OW11362   2.465   1.490   4.203
 3601SOL    HW111363   2.508   1.438   4.136
 3601SOL    HW211364   2.393   1.534   4.158
 3602SOL     OW11365   3.583   0.393   5.101
 3602SOL    HW111366   3.655   0.456   5.100
 3602SOL    HW211367   3.612   0.322   5.045
 3603SOL     OW11368   2.120   1.348   4.013
 3603SOL    HW111369   2.027   1.344   3.990
 3603SOL    HW211370   2.121   1.381   4.103
 3604SOL     OW11371   1.973   1.022   5.442
 3604SOL    HW111372   1.898   0.998   5.495
 3604SOL    HW211373   2.049   0.986   5.488
 3605SOL     OW11374   2.520   0.203   5.222
 3605SOL    HW111375   2.600   0.179   5.175
 3605SOL    HW211376   2.550   0.224   5.310
 3606SOL     OW11377   1.943   0.341   3.771
 3606SOL    HW111378   1.871   0.289   3.734
 3606SOL    HW211379   1.958   0.410   3.706
 3607SOL     OW11380   3.293   0.858   5.125
 3607SOL    HW111381   3.244   0.918   5.069
 3607SOL    HW211382   3.382   0.861   5.090
 3608SOL     OW11383   1.927   0.181   4.045
 3608SOL    HW111384   1.925   0.248   3.976
 3608SOL    HW211385   2.002   0.126   4.022
 3609SOL     OW11386   3.041   1.341   3.841
 3609SOL    HW111387   2.951   1.309   3.844
 3609SOL    HW211388   3.070   1.341   3.932
 3610SOL     OW11389   2.481   0.830   5.157
 3610SOL    HW111390   2.536   0.907   5.142
 3610SOL    HW211391   2.542   0.758   5.165
 3611SOL     OW11392   3.353   1.770   4.696
 3611SOL    HW111393   3.373   1.833   4.627
 3611SOL    HW211394   3.434   1.762   4.746
 3612SOL     OW11395   2.578   0.564   5.430
 3612SOL    HW111396   2.615   0.629   5.490
 3612SOL    HW211397   2.613   0.480   5.461
 3613SOL     OW11398   3.333   1.201   5.357
 3613SOL    HW111399   3.320   1.215   5.451
 3613SOL    HW211400   3.426   1.215   5.343
 3614SOL     OW11401   3.533   0.882   4.980
 3614SOL    HW111402   3.524   0.797   4.936
 3614SOL    HW211403   3.523   0.946   4.909
 3615SOL     OW11404   3.080   0.329   4.172
 3615SOL    HW111405   3.145   0.259   4.162
 3615SOL    HW211406   3.107   0.376   4.250
 3616SOL     OW11407   2.450   0.739   4.394
 3616SOL    HW111408   2.491   0.824   4.378
 3616SOL    HW211409   2.382   0.732   4.326
 3617SOL     OW11410   3.626   0.363   5.367
 3617SOL    HW111411   3.610   0.377   5.274
 3617SOL    HW211412   3.548   0.318   5.399
 3618SOL     OW11413   3.608   0.933   5.236
 3618SOL    HW111414   3.605   1.028   5.250
 3618SOL    HW211415   3.592   0.922   5.143
 3619SOL     OW11416   2.723   1.368   3.755
 3619SOL    HW111417   2.687   1.393   3.840
 3619SOL    HW211418   2.743   1.450   3.712
 3620SOL     OW11419   2.729   0.966   4.579
 3620SOL    HW111420   2.779   0.895   4.619
 3620SOL    HW211421   2.695   1.016   4.654
 3621SOL     OW11422   2.942   0.989   3.813
 3621SOL    HW111423   2.920   1.038   3.734
 3621SOL    HW211424   3.017   0.935   3.787
 3622SOL     OW11425   3.717   1.555   4.569
 3622SOL    HW111426   3.639   1.545   4.514
 3622SOL    HW211427   3.708   1.489   4.637
 3623SOL     OW11428   2.085   1.302   5.574
 3623SOL    HW111429   2.020   1.234   5.556
 3623SOL    HW211430   2.067   1.329   5.664
 3624SOL     OW11431   1.945   1.223   4.380
 3624SOL    HW111432   1.953   1.184   4.468
 3624SOL    HW211433   2.020   1.188   4.332
 3625SOL     OW11434   2.538   1.400   5.347
 3625SOL    HW111435   2.467   1.348   5.385
 3625SOL    HW211436   2.506   1.490   5.350
 3626SOL     OW11437   3.671   0.182   4.963
 3626SOL    HW111438   3.670   0.089   4.983
 3626SOL    HW211439   3.687   0.186   4.869
 3627SOL     OW11440   2.297   0.433   4.253
 3627SOL    HW111441   2.320   0.364   4.191
 3627SOL    HW211442   2.242   0.390   4.318
 3628SOL     OW11443   3.563   1.490   4.822
 3628SOL    HW111444   3.483   1.467   4.776
 3628SOL    HW211445   3.574   1.421   4.887
 3629SOL     OW11446   2.190   0.556   5.015
 3629SOL    HW111447   2.246   0.500   5.069
 3629SOL    HW211448   2.210   0.530   4.925
 3630SOL     OW11449   2.685   1.577   4.404
 3630SOL    HW111450   2.679   1.626   4.321
 3630SOL    HW211451   2.610   1.518   4.403
 3631SOL     OW11452   3.294   0.215   4.842
 3631SOL    HW111453   3.330   0.145   4.895
 3631SOL    HW211454   3.243   0.268   4.903
 3632SOL     OW11455   2.859   0.009   4.874
 3632SOL    HW111456   2.815   4.424   4.865
 3632SOL    HW211457   2.951   4.488   4.885
 3633SOL     OW11458   2.634   1.332   4.036
 3633SOL    HW111459   2.602   1.242   4.043
 3633SOL    HW211460   2.715   1.333   4.086
 3634SOL     OW11461   3.203   0.053   3.876
 3634SOL    HW111462   3.242   4.477   3.832
 3634SOL    HW211463   3.128   0.017   3.923
 3635SOL     OW11464   3.176   0.462   4.402
 3635SOL    HW111465   3.116   0.537   4.403
 3635SOL    HW211466   3.164   0.421   4.488
 3636SOL     OW11467   3.447   0.201   4.591
 3636SOL    HW111468   3.388   0.216   4.664
 3636SOL    HW211469   3.450   0.285   4.545
 3637SOL     OW11470   1.906   1.072   4.028
 3637SOL    HW111471   1.999   1.063   4.012
 3637SOL    HW211472   1.877   0.984   4.052
 3638SOL     OW11473   2.745   1.650   4.066
 3638SOL    HW111474   2.673   1.633   4.006
 3638SOL    HW211475   2.716   1.726   4.117
 3639SOL     OW11476   2.092   0.626   5.706
 3639SOL    HW111477   2.004   0.620   5.744
 3639SOL    HW211478   2.081   0.595   5.616
 3640SOL     OW11479   2.071   0.297   6.575
 3640SOL    HW111480   2.101   0.270   6.661
 3640SOL    HW211481   1.989   0.250   6.562
 3641SOL     OW11482   1.870   0.385   6.225
 3641SOL    HW111483   1.784   0.405   6.261
 3641SOL    HW211484   1.855   0.311   6.166
 3642SOL     OW11485   2.429   1.286   6.758
 3642SOL    HW111486   2.340   1.286   6.722
 3642SOL    HW211487   2.442   1.374   6.792
 3643SOL     OW11488   3.420   1.511   6.292
 3643SOL    HW111489   3.376   1.493   6.375
 3643SOL    HW211490   3.349   1.516   6.228
 3644SOL     OW11491   2.995   0.699   6.286
 3644SOL    HW111492   3.042   0.782   6.275
 3644SOL    HW211493   2.945   0.710   6.367
 3645SOL     OW11494   3.628   0.608   5.815
 3645SOL    HW111495   3.608   0.598   5.722
 3645SOL    HW211496   3.595   0.527   5.855
 3646SOL     OW11497   2.620   1.145   6.624
 3646SOL    HW111498   2.550   1.180   6.680
 3646SOL    HW211499   2.656   1.222   6.581
 3647SOL     OW11500   2.726   0.777   7.408
 3647SOL    HW111501   2.713   0.849   7.470
 3647SOL    HW211502   2.750   0.821   7.326
 3648SOL     OW11503   2.549   1.005   6.235
 3648SOL    HW111504   2.613   0.991   6.304
 3648SOL    HW211505   2.478   1.054   6.277
 3649SOL     OW11506   2.571   1.151   7.396
 3649SOL    HW111507   2.618   1.230   7.422
 3649SOL    HW211508   2.487   1.183   7.362
 3650SOL     OW11509   2.188   1.423   6.659
 3650SOL    HW111510   2.116   1.389   6.607
 3650SOL    HW211511   2.242   1.472   6.597
 3651SOL     OW11512   3.323   1.498   6.939
 3651SOL    HW111513   3.370   1.581   6.948
 3651SOL    HW211514   3.265   1.495   7.015
 3652SOL     OW11515   2.303   0.395   7.077
 3652SOL    HW111516   2.385   0.346   7.078
 3652SOL    HW211517   2.235   0.329   7.090
 3653SOL     OW11518   3.474   0.447   6.324
 3653SOL    HW111519   3.393   0.469   6.277
 3653SOL    HW211520   3.494   0.524   6.376
 3654SOL     OW11521   2.998   1.341   7.278
 3654SOL    HW111522   3.038   1.337   7.365
 3654SOL    HW211523   2.945   1.262   7.272
 3655SOL     OW11524   2.086   1.442   6.130
 3655SOL    HW111525   2.052   1.527   6.161
 3655SOL    HW211526   2.036   1.377   6.179
 3656SOL     OW11527   2.119   1.090   6.477
 3656SOL    HW111528   2.115   1.004   6.518
 3656SOL    HW211529   2.060   1.144   6.530
 3657SOL     OW11530   2.473   1.793   7.011
 3657SOL    HW111531   2.392   1.773   7.058
 3657SOL    HW211532   2.498   1.881   7.041
 3658SOL     OW11533   2.450   0.979   5.719
 3658SOL    HW111534   2.492   1.032   5.651
 3658SOL    HW211535   2.488   1.011   5.801
 3659SOL     OW11536   3.446   0.115   7.059
 3659SOL    HW111537   3.463   0.183   6.994
 3659SOL    HW211538   3.435   0.162   7.141
 3660SOL     OW11539   1.977   0.652   6.146
 3660SOL    HW111540   1.948   0.563   6.167
 3660SOL    HW211541   1.969   0.701   6.227
 3661SOL     OW11542   3.704   1.760   5.921
 3661SOL    HW111543   3.764   1.731   5.990
 3661SOL    HW211544   3.729   1.851   5.903
 3662SOL     OW11545   3.553   0.920   6.226
 3662SOL    HW111546   3.637   0.878   6.205
 3662SOL    HW211547   3.531   0.969   6.147
 3663SOL     OW11548   3.507   1.107   6.015
 3663SOL    HW111549   3.593   1.115   5.973
 3663SOL    HW211550   3.512   1.168   6.089
 3664SOL     OW11551   1.984   0.744   7.171
 3664SOL    HW111552   2.076   0.769   7.182
 3664SOL    HW211553   1.936   0.826   7.179
 3665SOL     OW11554   2.469   1.386   6.309
 3665SOL    HW111555   2.433   1.301   6.335
 3665SOL    HW211556   2.435   1.401   6.221
 3666SOL     OW11557   3.151   1.239   7.010
 3666SOL    HW111558   3.183   1.172   6.950
 3666SOL    HW211559   3.208   1.231   7.086
 3667SOL     OW11560   2.678   0.013   6.134
 3667SOL    HW111561   2.713   0.099   6.110
 3667SOL    HW211562   2.583   0.023   6.127
 3668SOL     OW11563   2.053   0.967   6.857
 3668SOL    HW111564   2.137   0.925   6.841
 3668SOL    HW211565   1.989   0.912   6.811
 3669SOL     OW11566   3.394   0.992   5.784
 3669SOL    HW111567   3.323   0.935   5.814
 3669SOL    HW211568   3.434   1.026   5.863
 3670SOL     OW11569   3.046   1.805   7.207
 3670SOL    HW111570   3.062   1.862   7.131
 3670SOL    HW211571   3.062   1.717   7.173
 3671SOL     OW11572   2.177   0.254   7.367
 3671SOL    HW111573   2.241   0.318   7.399
 3671SOL    HW211574   2.103   0.261   7.427
 3672SOL     OW11575   3.331   1.418   6.542
 3672SOL    HW111576   3.261   1.434   6.604
 3672SOL    HW211577   3.318   1.328   6.512
 3673SOL     OW11578   3.524   1.735   6.164
 3673SOL    HW111579   3.500   1.707   6.075
 3673SOL    HW211580   3.496   1.662   6.220
 3674SOL     OW11581   2.456   0.724   5.850
 3674SOL    HW111582   2.463   0.804   5.800
 3674SOL    HW211583   2.390   0.743   5.918
 3675SOL     OW11584   3.153   0.361   6.520
 3675SOL    HW111585   3.063   0.330   6.504
 3675SOL    HW211586   3.189   0.298   6.582
 3676SOL     OW11587   3.444   1.669   5.895
 3676SOL    HW111588   3.533   1.702   5.888
 3676SOL    HW211589   3.418   1.652   5.805
 3677SOL     OW11590   2.657   0.619   7.040
 3677SOL    HW111591   2.629   0.594   7.128
 3677SOL    HW211592   2.616   0.554   6.983
 3678SOL     OW11593   3.251   0.479   7.262
 3678SOL    HW111594   3.254   0.523   7.347
 3678SOL    HW211595   3.317   0.410   7.268
 3679SOL     OW11596   2.819   0.889   7.168
 3679SOL    HW111597   2.872   0.817   7.133
 3679SOL    HW211598   2.770   0.921   7.092
 3680SOL     OW11599   2.858   0.417   6.823
 3680SOL    HW111600   2.771   0.428   6.861
 3680SOL    HW211601   2.843   0.365   6.744
 3681SOL     OW11602   2.912   0.697   6.013
 3681SOL    HW111603   2.927   0.690   6.107
 3681SOL    HW211604   2.829   0.651   5.999
 3682SOL     OW11605   1.951   0.820   6.362
 3682SOL    HW111606   2.032   0.813   6.413
 3682SOL    HW211607   1.908   0.898   6.397
 3683SOL     OW11608   1.993   1.834   7.160
 3683SOL    HW111609   1.986   1.821   7.255
 3683SOL    HW211610   1.902   1.848   7.132
 3684SOL     OW11611   2.716   0.369   5.767
 3684SOL    HW111612   2.790   0.404   5.716
 3684SOL    HW211613   2.733   0.274   5.771
 3685SOL     OW11614   3.568   0.574   7.414
 3685SOL    HW111615   3.532   0.650   7.367
 3685SOL    HW211616   3.602   0.518   7.345
 3686SOL     OW11617   3.238   1.142   6.127
 3686SOL    HW111618   3.317   1.129   6.074
 3686SOL    HW211619   3.186   1.205   6.077
 3687SOL     OW11620   2.401   0.203   6.487
 3687SOL    HW111621   2.421   0.221   6.579
 3687SOL    HW211622   2.392   0.289   6.447
 3688SOL     OW11623   2.879   1.448   6.059
 3688SOL    HW111624   2.832   1.514   6.008
 3688SOL    HW211625   2.847   1.458   6.149
 3689SOL     OW11626   3.660   1.060   6.454
 3689SOL    HW111627   3.605   1.041   6.378
 3689SOL    HW211628   3.599   1.064   6.527
 3690SOL     OW11629   3.089   1.539   7.099
 3690SOL    HW111630   3.076   1.466   7.160
 3690SOL    HW211631   3.030   1.522   7.026
 3691SOL     OW11632   2.182   0.954   5.836
 3691SOL    HW111633   2.263   0.978   5.790
 3691SOL    HW211634   2.154   0.873   5.794
 3692SOL     OW11635   3.340   0.741   6.311
 3692SOL    HW111636   3.328   0.695   6.395
 3692SOL    HW211637   3.417   0.797   6.325
 3693SOL     OW11638   2.327   1.264   7.324
 3693SOL    HW111639   2.299   1.269   7.232
 3693SOL    HW211640   2.246   1.262   7.373
 3694SOL     OW11641   2.998   1.778   5.822
 3694SOL    HW111642   2.909   1.759   5.850
 3694SOL    HW211643   3.014   1.717   5.750
 3695SOL     OW11644   2.050   0.268   7.096
 3695SOL    HW111645   1.984   0.335   7.080
 3695SOL    HW211646   2.062   0.269   7.191
 3696SOL     OW11647   3.492   1.379   5.673
 3696SOL    HW111648   3.451   1.464   5.658
 3696SOL    HW211649   3.423   1.316   5.655
 3697SOL     OW11650   3.281   0.135   6.004
 3697SOL    HW111651   3.264   0.086   5.924
 3697SOL    HW211652   3.375   0.131   6.016
 3698SOL     OW11653   2.118   1.785   6.830
 3698SOL    HW111654   2.171   1.714   6.866
 3698SOL    HW211655   2.094   1.754   6.742
 3699SOL     OW11656   2.254   0.695   6.063
 3699SOL    HW111657   2.277   0.602   6.074
 3699SOL    HW211658   2.160   0.698   6.081
 3700SOL     OW11659   3.387   0.233   7.308
 3700SOL    HW111660   3.387   0.256   7.401
 3700SOL    HW211661   3.311   0.177   7.297
 3701SOL     OW11662   2.488   0.121   5.708
 3701SOL    HW111663   2.576   0.086   5.716
 3701SOL    HW211664   2.455   0.087   5.625
 3702SOL     OW11665   2.631   0.271   7.339
 3702SOL    HW111666   2.696   0.202   7.352
 3702SOL    HW211667   2.585   0.276   7.423
 3703SOL     OW11668   2.741   1.525   6.776
 3703SOL    HW111669   2.724   1.485   6.691
 3703SOL    HW211670   2.808   1.470   6.816
 3704SOL     OW11671   3.204   0.589   7.015
 3704SOL    HW111672   3.231   0.560   7.102
 3704SOL    HW211673   3.238   0.678   7.008
 3705SOL     OW11674   2.677   1.403   6.522
 3705SOL    HW111675   2.762   1.393   6.480
 3705SOL    HW211676   2.614   1.396   6.451
 3706SOL     OW11677   2.785   0.517   6.487
 3706SOL    HW111678   2.768   0.515   6.392
 3706SOL    HW211679   2.824   0.432   6.506
 3707SOL     OW11680   2.416   0.074   6.107
 3707SOL    HW111681   2.327   0.048   6.130
 3707SOL    HW211682   2.404   0.140   6.038
 3708SOL     OW11683   3.291   1.198   5.628
 3708SOL    HW111684   3.321   1.122   5.677
 3708SOL    HW211685   3.204   1.217   5.664
 3709SOL     OW11686   2.158   0.069   5.781
 3709SOL    HW111687   2.236   0.122   5.763
 3709SOL    HW211688   2.189   4.500   5.840
 3710SOL     OW11689   2.813   0.240   6.056
 3710SOL    HW111690   2.761   0.293   5.995
 3710SOL    HW211691   2.902   0.276   6.049
 3711SOL     OW11692   2.942   0.680   7.047
 3711SOL    HW111693   2.870   0.616   7.047
 3711SOL    HW211694   3.021   0.627   7.035
 3712SOL     OW11695   3.094   1.562   6.372
 3712SOL    HW111696   3.106   1.634   6.309
 3712SOL    HW211697   3.150   1.585   6.446
 3713SOL     OW11698   2.330   1.149   6.322
 3713SOL    HW111699   2.260   1.130   6.384
 3713SOL    HW211700   2.291   1.132   6.236
 3714SOL     OW11701   3.131   1.793   6.192
 3714SOL    HW111702   3.176   1.855   6.135
 3714SOL    HW211703   3.068   1.847   6.241
 3715SOL     OW11704   2.892   0.548   5.602
 3715SOL    HW111705   2.844   0.630   5.586
 3715SOL    HW211706   2.950   0.569   5.675
 3716SOL     OW11707   1.943   0.551   6.981
 3716SOL    HW111708   2.034   0.554   6.950
 3716SOL    HW211709   1.936   0.623   7.043
 3717SOL     OW11710   2.426   0.243   6.752
 3717SOL    HW111711   2.453   0.159   6.791
 3717SOL    HW211712   2.334   0.252   6.777
 3718SOL     OW11713   2.728   0.503   6.212
 3718SOL    HW111714   2.681   0.544   6.139
 3718SOL    HW211715   2.702   0.411   6.208
 3719SOL     OW11716   2.828   0.028   6.365
 3719SOL    HW111717   2.779   0.025   6.283
 3719SOL    HW211718   2.840   4.436   6.389
 3720SOL     OW11719   3.299   1.163   6.444
 3720SOL    HW111720   3.230   1.096   6.442
 3720SOL    HW211721   3.321   1.176   6.352
 3721SOL     OW11722   3.328   0.604   6.563
 3721SOL    HW111723   3.276   0.524   6.565
 3721SOL    HW211724   3.387   0.597   6.639
 3722SOL     OW11725   3.709   0.818   5.968
 3722SOL    HW111726   3.764   0.766   6.026
 3722SOL    HW211727   3.680   0.756   5.901
 3723SOL     OW11728   2.350   1.359   5.743
 3723SOL    HW111729   2.270   1.354   5.795
 3723SOL    HW211730   2.322   1.398   5.660
 3724SOL     OW11731   3.531   1.265   6.232
 3724SOL    HW111732   3.625   1.270   6.246
 3724SOL    HW211733   3.499   1.353   6.254
 3725SOL     OW11734   3.256   0.570   5.656
 3725SOL    HW111735   3.195   0.554   5.727
 3725SOL    HW211736   3.342   0.550   5.693
 3726SOL     OW11737   2.385   0.266   5.910
 3726SOL    HW111738   2.430   0.214   5.844
 3726SOL    HW211739   2.368   0.350   5.868
 3727SOL     OW11740   3.615   1.238   7.161
 3727SOL    HW111741   3.702   1.198   7.158
 3727SOL    HW211742   3.630   1.327   7.190
 3728SOL     OW11743   2.921   1.356   6.922
 3728SOL    HW111744   2.846   1.323   6.972
 3728SOL    HW211745   2.997   1.313   6.961
 3729SOL     OW11746   3.469   1.625   7.239
 3729SOL    HW111747   3.464   1.659   7.149
 3729SOL    HW211748   3.552   1.578   7.242
 3730SOL     OW11749   2.990   1.204   6.693
 3730SOL    HW111750   2.929   1.241   6.756
 3730SOL    HW211751   2.959   1.234   6.608
 3731SOL     OW11752   3.491   1.098   6.664
 3731SOL    HW111753   3.486   1.161   6.737
 3731SOL    HW211754   3.412   1.115   6.613
 3732SOL     OW11755   2.766   0.132   6.975
 3732SOL    HW111756   2.787   0.088   6.893
 3732SOL    HW211757   2.850   0.146   7.018
 3733SOL     OW11758   2.846   1.115   7.308
 3733SOL    HW111759   2.754   1.130   7.329
 3733SOL    HW211760   2.846   1.037   7.252
 3734SOL     OW11761   2.568   1.057   5.960
 3734SOL    HW111762   2.557   1.042   6.053
 3734SOL    HW211763   2.645   1.005   5.936
 3735SOL     OW11764   2.280   0.815   6.837
 3735SOL    HW111765   2.349   0.824   6.903
 3735SOL    HW211766   2.245   0.727   6.851
 3736SOL     OW11767   3.131   0.376   6.859
 3736SOL    HW111768   3.162   0.455   6.903
 3736SOL    HW211769   3.042   0.398   6.831
 3737SOL     OW11770   1.929   1.572   6.935
 3737SOL    HW111771   1.896   1.648   6.888
 3737SOL    HW211772   2.024   1.583   6.934
 3738SOL     OW11773   2.213   1.111   6.076
 3738SOL    HW111774   2.216   1.181   6.011
 3738SOL    HW211775   2.213   1.030   6.024
 3739SOL     OW11776   2.419   0.531   6.445
 3739SOL    HW111777   2.433   0.590   6.371
 3739SOL    HW211778   2.482   0.560   6.511
 3740SOL     OW11779   3.114   1.347   5.975
 3740SOL    HW111780   3.170   1.419   6.005
 3740SOL    HW211781   3.027   1.369   6.009
 3741SOL     OW11782   3.141   1.457   6.732
 3741SOL    HW111783   3.196   1.458   6.810
 3741SOL    HW211784   3.086   1.379   6.742
 3742SOL     OW11785   3.445   0.624   6.062
 3742SOL    HW111786   3.398   0.676   6.128
 3742SOL    HW211787   3.489   0.689   6.007
 3743SOL     OW11788   2.212   1.524   6.905
 3743SOL    HW111789   2.195   1.482   6.820
 3743SOL    HW211790   2.307   1.536   6.908
 3744SOL     OW11791   2.276   0.743   7.188
 3744SOL    HW111792   2.335   0.790   7.130
 3744SOL    HW211793   2.320   0.660   7.206
 3745SOL     OW11794   3.462   0.778   7.266
 3745SOL    HW111795   3.375   0.819   7.259
 3745SOL    HW211796   3.514   0.820   7.198
 3746SOL     OW11797   2.869   0.085   7.309
 3746SOL    HW111798   2.894   0.169   7.270
 3746SOL    HW211799   2.893   0.020   7.243
 3747SOL     OW11800   2.361   0.047   7.344
 3747SOL    HW111801   2.354   0.003   7.259
 3747SOL    HW211802   2.293   0.115   7.341
 3748SOL     OW11803   2.444   0.873   6.616
 3748SOL    HW111804   2.475   0.964   6.616
 3748SOL    HW211805   2.388   0.867   6.694
 3749SOL     OW11806   3.221   0.858   6.618
 3749SOL    HW111807   3.139   0.851   6.569
 3749SOL    HW211808   3.260   0.771   6.612
 3750SOL     OW11809   3.067   0.535   5.850
 3750SOL    HW111810   3.073   0.454   5.902
 3750SOL    HW211811   3.024   0.598   5.909
 3751SOL     OW11812   2.152   0.234   6.827
 3751SOL    HW111813   2.110   0.250   6.911
 3751SOL    HW211814   2.185   0.145   6.833
 3752SOL     OW11815   1.907   1.310   6.863
 3752SOL    HW111816   1.941   1.258   6.935
 3752SOL    HW211817   1.915   1.401   6.893
 3753SOL     OW11818   2.586   0.632   6.645
 3753SOL    HW111819   2.659   0.612   6.586
 3753SOL    HW211820   2.559   0.720   6.620
 3754SOL     OW11821   3.596   0.959   7.437
 3754SOL    HW111822   3.548   0.901   7.378
 3754SOL    HW211823   3.536   0.971   7.512
 3755SOL     OW11824   2.159   0.057   6.240
 3755SOL    HW111825   2.150   0.152   6.243
 3755SOL    HW211826   2.171   0.031   6.331
 3756SOL     OW11827   3.475   0.376   5.950
 3756SOL    HW111828   3.505   0.313   6.016
 3756SOL    HW211829   3.453   0.454   6.001
 3757SOL     OW11830   2.890   0.761   6.548
 3757SOL    HW111831   2.888   0.777   6.642
 3757SOL    HW211832   2.861   0.670   6.538
 3758SOL     OW11833   2.844   1.566   7.302
 3758SOL    HW111834   2.829   1.610   7.218
 3758SOL    HW211835   2.887   1.484   7.279
 3759SOL     OW11836   3.717   1.508   7.192
 3759SOL    HW111837   3.734   1.533   7.101
 3759SOL    HW211838   3.799   1.527   7.238
 3760SOL     OW11839   2.216   0.917   7.393
 3760SOL    HW111840   2.298   0.934   7.440
 3760SOL    HW211841   2.240   0.854   7.325
 3761SOL     OW11842   3.393   0.266   5.714
 3761SOL    HW111843   3.321   0.210   5.742
 3761SOL    HW211844   3.422   0.310   5.794
 3762SOL     OW11845   3.155   0.827   5.618
 3762SOL    HW111846   3.197   0.740   5.620
 3762SOL    HW211847   3.186   0.866   5.536
 3763SOL     OW11848   2.929   1.333   6.442
 3763SOL    HW111849   2.931   1.262   6.378
 3763SOL    HW211850   2.988   1.400   6.406
 3764SOL     OW11851   2.171   0.810   6.534
 3764SOL    HW111852   2.264   0.832   6.527
 3764SOL    HW211853   2.170   0.720   6.568
 3765SOL     OW11854   2.198   0.530   6.599
 3765SOL    HW111855   2.156   0.447   6.580
 3765SOL    HW211856   2.274   0.533   6.541
 3766SOL     OW11857   2.997   0.374   7.280
 3766SOL    HW111858   2.948   0.439   7.331
 3766SOL    HW211859   3.083   0.414   7.267
 3767SOL     OW11860   3.021   0.212   7.059
 3767SOL    HW111861   3.013   0.276   7.130
 3767SOL    HW211862   3.058   0.261   6.986
 3768SOL     OW11863   1.870   1.322   5.780
 3768SOL    HW111864   1.785   1.344   5.742
 3768SOL    HW211865   1.861   1.233   5.812
 3769SOL     OW11866   1.922   1.766   6.540
 3769SOL    HW111867   1.903   1.689   6.486
 3769SOL    HW211868   1.967   1.826   6.480
 3770SOL     OW11869   2.361   1.554   6.501
 3770SOL    HW111870   2.409   1.637   6.495
 3770SOL    HW211871   2.401   1.498   6.434
 3771SOL     OW11872   2.847   0.795   6.815
 3771SOL    HW111873   2.901   0.770   6.889
 3771SOL    HW211874   2.762   0.754   6.832
 3772SOL     OW11875   1.896   0.542   6.704
 3772SOL    HW111876   1.974   0.523   6.652
 3772SOL    HW211877   1.927   0.548   6.794
 3773SOL     OW11878   2.047   0.518   7.306
 3773SOL    HW111879   2.121   0.498   7.249
 3773SOL    HW211880   2.005   0.594   7.265
 3774SOL     OW11881   3.239   0.940   7.245
 3774SOL    HW111882   3.259   1.034   7.244
 3774SOL    HW211883   3.236   0.915   7.153
 3775SOL     OW11884   2.673   0.574   5.941
 3775SOL    HW111885   2.677   0.503   5.877
 3775SOL    HW211886   2.599   0.628   5.911
 3776SOL     OW11887   3.503   0.601   6.774
 3776SOL    HW111888   3.493   0.541   6.848
 3776SOL    HW211889   3.590   0.582   6.739
 3777SOL     OW11890   2.110   1.552   7.316
 3777SOL    HW111891   2.082   1.615   7.383
 3777SOL    HW211892   2.108   1.467   7.361
 3778SOL     OW11893   2.558   0.459   6.851
 3778SOL    HW111894   2.512   0.382   6.818
 3778SOL    HW211895   2.559   0.520   6.776
 3779SOL     OW11896   2.789   1.680   7.055
 3779SOL    HW111897   2.766   1.647   6.968
 3779SOL    HW211898   2.789   1.775   7.045
 3780SOL     OW11899   2.328   0.493   5.771
 3780SOL    HW111900   2.386   0.566   5.792
 3780SOL    HW211901   2.242   0.534   5.760
 3781SOL     OW11902   2.009   1.140   7.058
 3781SOL    HW111903   2.012   1.087   7.138
 3781SOL    HW211904   2.026   1.078   6.988
 3782SOL     OW11905   3.189   1.048   6.810
 3782SOL    HW111906   3.213   0.985   6.742
 3782SOL    HW211907   3.118   1.099   6.771
 3783SOL     OW11908   3.173   0.856   5.893
 3783SOL    HW111909   3.097   0.827   5.943
 3783SOL    HW211910   3.147   0.843   5.801
 3784SOL     OW11911   3.633   1.745   6.736
 3784SOL    HW111912   3.692   1.771   6.666
 3784SOL    HW211913   3.608   1.655   6.715
 3785SOL     OW11914   3.104   1.733   6.703
 3785SOL    HW111915   3.185   1.753   6.656
 3785SOL    HW211916   3.108   1.638   6.717
 3786SOL     OW11917   1.947   1.264   6.599
 3786SOL    HW111918   1.932   1.278   6.693
 3786SOL    HW211919   1.871   1.213   6.571
 3787SOL     OW11920   2.540   1.665   7.313
 3787SOL    HW111921   2.487   1.744   7.307
 3787SOL    HW211922   2.605   1.674   7.243
 3788SOL     OW11923   3.580   0.130   6.081
 3788SOL    HW111924   3.653   0.137   6.019
 3788SOL    HW211925   3.604   0.057   6.138
 3789SOL     OW11926   3.253   1.568   6.069
 3789SOL    HW111927   3.313   1.601   6.002
 3789SOL    HW211928   3.204   1.645   6.097
 3790SOL     OW11929   1.994   1.796   7.429
 3790SOL    HW111930   1.943   1.730   7.475
 3790SOL    HW211931   2.045   1.840   7.497
 3791SOL     OW11932   3.140   0.927   6.259
 3791SOL    HW111933   3.213   0.865   6.263
 3791SOL    HW211934   3.174   0.999   6.206
 3792SOL     OW11935   2.678   1.273   7.016
 3792SOL    HW111936   2.651   1.312   7.099
 3792SOL    HW211937   2.606   1.292   6.956
 3793SOL     OW11938   3.492   1.727   6.978
 3793SOL    HW111939   3.540   1.734   6.896
 3793SOL    HW211940   3.478   1.817   7.006
 3794SOL     OW11941   3.701   0.155   6.553
 3794SOL    HW111942   3.732   0.078   6.504
 3794SOL    HW211943   3.614   0.173   6.516
 3795SOL     OW11944   2.127   0.323   6.304
 3795SOL    HW111945   2.042   0.357   6.277
 3795SOL    HW211946   2.120   0.314   6.399
 3796SOL     OW11947   3.065   1.607   5.620
 3796SOL    HW111948   3.056   1.513   5.636
 3796SOL    HW211949   3.036   1.619   5.529
 3797SOL     OW11950   2.685   1.006   6.958
 3797SOL    HW111951   2.730   1.000   6.874
 3797SOL    HW211952   2.687   1.099   6.980
 3798SOL     OW11953   2.778   0.911   5.877
 3798SOL    HW111954   2.840   0.943   5.810
 3798SOL    HW211955   2.825   0.840   5.920
 3799SOL     OW11956   3.357   1.624   5.629
 3799SOL    HW111957   3.262   1.622   5.618
 3799SOL    HW211958   3.392   1.630   5.540
 3800SOL     OW11959   2.232   1.301   7.078
 3800SOL    HW111960   2.218   1.379   7.024
 3800SOL    HW211961   2.155   1.247   7.062
 3801SOL     OW11962   3.474   1.283   6.867
 3801SOL    HW111963   3.532   1.274   6.942
 3801SOL    HW211964   3.413   1.352   6.892
 3802SOL     OW11965   2.911   1.106   6.290
 3802SOL    HW111966   2.841   1.054   6.330
 3802SOL    HW211967   2.974   1.041   6.259
 3803SOL     OW11968   2.868   0.243   6.587
 3803SOL    HW111969   2.874   0.217   6.495
 3803SOL    HW211970   2.861   0.160   6.635
 3804SOL     OW11971   3.583   0.394   6.963
 3804SOL    HW111972   3.655   0.456   6.962
 3804SOL    HW211973   3.612   0.322   6.907
 3805SOL     OW11974   2.118   1.345   5.880
 3805SOL    HW111975   2.027   1.346   5.852
 3805SOL    HW211976   2.118   1.389   5.965
 3806SOL     OW11977   1.974   1.020   7.305
 3806SOL    HW111978   1.898   0.997   7.359
 3806SOL    HW211979   2.049   0.983   7.353
 3807SOL     OW11980   2.520   0.204   7.084
 3807SOL    HW111981   2.600   0.179   7.037
 3807SOL    HW211982   2.550   0.224   7.172
 3808SOL     OW11983   1.943   0.341   5.633
 3808SOL    HW111984   1.871   0.289   5.596
 3808SOL    HW211985   1.958   0.409   5.568
 3809SOL     OW11986   3.293   0.859   6.987
 3809SOL    HW111987   3.244   0.918   6.931
 3809SOL    HW211988   3.382   0.861   6.952
 3810SOL     OW11989   1.927   0.181   5.907
 3810SOL    HW111990   1.925   0.248   5.838
 3810SOL    HW211991   2.002   0.126   5.884
 3811SOL     OW11992   3.040   1.339   5.704
 3811SOL    HW111993   2.953   1.298   5.710
 3811SOL    HW211994   3.071   1.341   5.794
 3812SOL     OW11995   2.481   0.831   7.019
 3812SOL    HW111996   2.536   0.907   7.004
 3812SOL    HW211997   2.542   0.758   7.027
 3813SOL     OW11998   3.345   1.777   6.565
 3813SOL    HW111999   3.369   1.833   6.491
 3813SOL    HW212000   3.428   1.758   6.608
 3814SOL     OW12001   2.578   0.563   7.292
 3814SOL    HW112002   2.615   0.628   7.352
 3814SOL    HW212003   2.612   0.479   7.323
 3815SOL     OW12004   3.332   1.202   7.219
 3815SOL    HW112005   3.320   1.215   7.313
 3815SOL    HW212006   3.426   1.215   7.204
 3816SOL     OW12007   2.247   1.739   7.152
 3816SOL    HW112008   2.161   1.778   7.133
 3816SOL    HW212009   2.226   1.655   7.193
 3817SOL     OW12010   3.533   0.881   6.842
 3817SOL    HW112011   3.524   0.796   6.798
 3817SOL    HW212012   3.523   0.945   6.771
 3818SOL     OW12013   3.080   0.329   6.034
 3818SOL    HW112014   3.145   0.259   6.024
 3818SOL    HW212015   3.107   0.376   6.112
 3819SOL     OW12016   2.449   0.739   6.256
 3819SOL    HW112017   2.492   0.823   6.239
 3819SOL    HW212018   2.382   0.732   6.189
 3820SOL     OW12019   3.626   0.364   7.229
 3820SOL    HW112020   3.610   0.377   7.136
 3820SOL    HW212021   3.548   0.318   7.261
 3821SOL     OW12022   3.607   0.933   7.098
 3821SOL    HW112023   3.605   1.028   7.111
 3821SOL    HW212024   3.592   0.922   7.005
 3822SOL     OW12025   2.717   1.364   5.613
 3822SOL    HW112026   2.693   1.363   5.705
 3822SOL    HW212027   2.746   1.453   5.596
 3823SOL     OW12028   2.729   0.966   6.442
 3823SOL    HW112029   2.779   0.895   6.481
 3823SOL    HW212030   2.696   1.016   6.517
 3824SOL     OW12031   2.943   0.990   5.676
 3824SOL    HW112032   2.919   1.039   5.597
 3824SOL    HW212033   3.017   0.936   5.648
 3825SOL     OW12034   3.717   1.556   6.431
 3825SOL    HW112035   3.640   1.545   6.375
 3825SOL    HW212036   3.709   1.487   6.498
 3826SOL     OW12037   2.086   1.303   7.442
 3826SOL    HW112038   2.019   1.243   7.412
 3826SOL    HW212039   2.068   1.316   7.535
 3827SOL     OW12040   1.952   1.232   6.246
 3827SOL    HW112041   1.950   1.187   6.331
 3827SOL    HW212042   2.015   1.182   6.195
 3828SOL     OW12043   2.542   1.402   7.212
 3828SOL    HW112044   2.463   1.358   7.242
 3828SOL    HW212045   2.537   1.489   7.250
 3829SOL     OW12046   3.671   0.182   6.825
 3829SOL    HW112047   3.670   0.089   6.845
 3829SOL    HW212048   3.687   0.186   6.731
 3830SOL     OW12049   2.297   0.433   6.115
 3830SOL    HW112050   2.320   0.364   6.053
 3830SOL    HW212051   2.242   0.390   6.180
 3831SOL     OW12052   3.562   1.491   6.685
 3831SOL    HW112053   3.482   1.466   6.639
 3831SOL    HW212054   3.575   1.421   6.749
 3832SOL     OW12055   2.191   0.556   6.877
 3832SOL    HW112056   2.246   0.500   6.931
 3832SOL    HW212057   2.210   0.530   6.787
 3833SOL     OW12058   2.694   1.544   6.236
 3833SOL    HW112059   2.667   1.632   6.211
 3833SOL    HW212060   2.615   1.502   6.268
 3834SOL     OW12061   3.294   0.216   6.704
 3834SOL    HW112062   3.330   0.145   6.757
 3834SOL    HW212063   3.243   0.268   6.765
 3835SOL     OW12064   2.859   0.009   6.736
 3835SOL    HW112065   2.815   4.425   6.727
 3835SOL    HW212066   2.951   4.488   6.747
 3836SOL     OW12067   2.678   1.311   5.881
 3836SOL    HW112068   2.614   1.241   5.891
 3836SOL    HW212069   2.737   1.302   5.955
 3837SOL     OW12070   2.483   1.557   6.870
 3837SOL    HW112071   2.485   1.639   6.920
 3837SOL    HW212072   2.571   1.549   6.833
 3838SOL     OW12073   3.203   0.053   5.739
 3838SOL    HW112074   3.243   4.478   5.695
 3838SOL    HW212075   3.128   0.017   5.785
 3839SOL     OW12076   3.176   0.463   6.264
 3839SOL    HW112077   3.116   0.537   6.265
 3839SOL    HW212078   3.164   0.421   6.350
 3840SOL     OW12079   3.447   0.201   6.453
 3840SOL    HW112080   3.388   0.216   6.526
 3840SOL    HW212081   3.450   0.285   6.407
 3841SOL     OW12082   1.902   1.071   5.892
 3841SOL    HW112083   1.996   1.066   5.874
 3841SOL    HW212084   1.877   0.981   5.915
 3842SOL     OW12085   2.091   0.627   7.568
 3842SOL    HW112086   2.004   0.620   7.606
 3842SOL    HW212087   2.081   0.596   7.478
 3843SOL     OW12088   2.071   0.297   8.437
 3843SOL    HW112089   2.101   0.270   8.523
 3843SOL    HW212090   1.989   0.250   8.424
 3844SOL     OW12091   1.870   0.385   8.087
 3844SOL    HW112092   1.784   0.405   8.123
 3844SOL    HW212093   1.855   0.311   8.028
 3845SOL     OW12094   2.429   1.285   8.621
 3845SOL    HW112095   2.341   1.287   8.585
 3845SOL    HW212096   2.442   1.374   8.656
 3846SOL     OW12097   3.421   1.512   8.154
 3846SOL    HW112098   3.378   1.492   8.238
 3846SOL    HW212099   3.350   1.516   8.091
 3847SOL     OW12100   2.995   0.699   8.148
 3847SOL    HW112101   3.042   0.782   8.137
 3847SOL    HW212102   2.945   0.710   8.229
 3848SOL     OW12103   3.628   0.608   7.677
 3848SOL    HW112104   3.608   0.597   7.584
 3848SOL    HW212105   3.595   0.527   7.717
 3849SOL     OW12106   2.620   1.144   8.488
 3849SOL    HW112107   2.550   1.178   8.544
 3849SOL    HW212108   2.654   1.221   8.443
 3850SOL     OW12109   2.726   0.777   9.270
 3850SOL    HW112110   2.713   0.849   9.332
 3850SOL    HW212111   2.750   0.821   9.188
 3851SOL     OW12112   2.549   1.005   8.095
 3851SOL    HW112113   2.613   0.991   8.165
 3851SOL    HW212114   2.478   1.055   8.137
 3852SOL     OW12115   2.571   1.151   9.258
 3852SOL    HW112116   2.618   1.230   9.284
 3852SOL    HW212117   2.487   1.183   9.224
 3853SOL     OW12118   2.193   1.426   8.517
 3853SOL    HW112119   2.119   1.389   8.468
 3853SOL    HW212120   2.243   1.475   8.451
 3854SOL     OW12121   3.323   1.499   8.800
 3854SOL    HW112122   3.371   1.581   8.811
 3854SOL    HW212123   3.264   1.495   8.875
 3855SOL     OW12124   2.304   0.395   8.938
 3855SOL    HW112125   2.385   0.346   8.940
 3855SOL    HW212126   2.235   0.330   8.951
 3856SOL     OW12127   3.474   0.447   8.186
 3856SOL    HW112128   3.393   0.469   8.140
 3856SOL    HW212129   3.494   0.524   8.239
 3857SOL     OW12130   2.082   1.716   7.923
 3857SOL    HW112131   2.106   1.793   7.975
 3857SOL    HW212132   2.153   1.706   7.861
 3858SOL     OW12133   2.998   1.341   9.140
 3858SOL    HW112134   3.038   1.337   9.227
 3858SOL    HW212135   2.945   1.261   9.134
 3859SOL     OW12136   2.092   1.441   7.983
 3859SOL    HW112137   2.072   1.535   7.989
 3859SOL    HW212138   2.032   1.400   8.045
 3860SOL     OW12139   2.119   1.090   8.339
 3860SOL    HW112140   2.115   1.004   8.380
 3860SOL    HW212141   2.060   1.144   8.392
 3861SOL     OW12142   2.480   1.785   8.882
 3861SOL    HW112143   2.395   1.771   8.924
 3861SOL    HW212144   2.498   1.878   8.897
 3862SOL     OW12145   2.449   0.981   7.581
 3862SOL    HW112146   2.494   1.031   7.513
 3862SOL    HW212147   2.490   1.010   7.663
 3863SOL     OW12148   3.446   0.115   8.921
 3863SOL    HW112149   3.463   0.183   8.856
 3863SOL    HW212150   3.435   0.162   9.003
 3864SOL     OW12151   1.978   0.652   8.007
 3864SOL    HW112152   1.948   0.564   8.029
 3864SOL    HW212153   1.969   0.701   8.089
 3865SOL     OW12154   3.704   1.760   7.784
 3865SOL    HW112155   3.765   1.731   7.851
 3865SOL    HW212156   3.729   1.850   7.765
 3866SOL     OW12157   1.893   1.595   7.572
 3866SOL    HW112158   1.875   1.503   7.592
 3866SOL    HW212159   1.868   1.642   7.651
 3867SOL     OW12160   3.553   0.921   8.088
 3867SOL    HW112161   3.637   0.878   8.068
 3867SOL    HW212162   3.531   0.969   8.009
 3868SOL     OW12163   3.507   1.108   7.877
 3868SOL    HW112164   3.593   1.115   7.835
 3868SOL    HW212165   3.512   1.168   7.951
 3869SOL     OW12166   1.984   0.744   9.033
 3869SOL    HW112167   2.076   0.769   9.044
 3869SOL    HW212168   1.936   0.826   9.041
 3870SOL     OW12169   2.475   1.384   8.183
 3870SOL    HW112170   2.429   1.300   8.192
 3870SOL    HW212171   2.459   1.410   8.092
 3871SOL     OW12172   3.152   1.239   8.871
 3871SOL    HW112173   3.184   1.171   8.812
 3871SOL    HW212174   3.208   1.231   8.949
 3872SOL     OW12175   2.678   0.013   7.997
 3872SOL    HW112176   2.713   0.099   7.972
 3872SOL    HW212177   2.583   0.023   7.990
 3873SOL     OW12178   2.053   0.967   8.719
 3873SOL    HW112179   2.137   0.924   8.703
 3873SOL    HW212180   1.989   0.912   8.673
 3874SOL     OW12181   3.394   0.992   7.645
 3874SOL    HW112182   3.323   0.935   7.676
 3874SOL    HW212183   3.434   1.026   7.725
 3875SOL     OW12184   3.048   1.805   9.069
 3875SOL    HW112185   3.061   1.863   8.994
 3875SOL    HW212186   3.063   1.717   9.035
 3876SOL     OW12187   2.177   0.254   9.229
 3876SOL    HW112188   2.240   0.319   9.261
 3876SOL    HW212189   2.103   0.261   9.289
 3877SOL     OW12190   3.328   1.420   8.400
 3877SOL    HW112191   3.260   1.434   8.466
 3877SOL    HW212192   3.316   1.329   8.373
 3878SOL     OW12193   3.522   1.736   8.026
 3878SOL    HW112194   3.500   1.707   7.937
 3878SOL    HW212195   3.496   1.663   8.082
 3879SOL     OW12196   2.456   0.723   7.713
 3879SOL    HW112197   2.462   0.804   7.662
 3879SOL    HW212198   2.390   0.742   7.780
 3880SOL     OW12199   3.153   0.361   8.382
 3880SOL    HW112200   3.063   0.330   8.366
 3880SOL    HW212201   3.189   0.298   8.444
 3881SOL     OW12202   3.443   1.669   7.757
 3881SOL    HW112203   3.533   1.702   7.751
 3881SOL    HW212204   3.417   1.652   7.666
 3882SOL     OW12205   2.657   0.619   8.902
 3882SOL    HW112206   2.629   0.594   8.990
 3882SOL    HW212207   2.617   0.554   8.845
 3883SOL     OW12208   3.251   0.479   9.124
 3883SOL    HW112209   3.254   0.523   9.209
 3883SOL    HW212210   3.317   0.410   9.130
 3884SOL     OW12211   2.819   0.889   9.030
 3884SOL    HW112212   2.872   0.817   8.995
 3884SOL    HW212213   2.771   0.921   8.954
 3885SOL     OW12214   2.858   0.417   8.685
 3885SOL    HW112215   2.771   0.428   8.724
 3885SOL    HW212216   2.842   0.365   8.606
 3886SOL     OW12217   2.911   0.698   7.875
 3886SOL    HW112218   2.927   0.690   7.969
 3886SOL    HW212219   2.829   0.651   7.861
 3887SOL     OW12220   1.951   0.820   8.224
 3887SOL    HW112221   2.032   0.814   8.275
 3887SOL    HW212222   1.907   0.898   8.259
 3888SOL     OW12223   1.989   1.818   9.022
 3888SOL    HW112224   1.977   1.811   9.116
 3888SOL    HW212225   1.920   1.876   8.992
 3889SOL     OW12226   2.717   0.369   7.629
 3889SOL    HW112227   2.790   0.403   7.578
 3889SOL    HW212228   2.732   0.274   7.633
 3890SOL     OW12229   3.568   0.574   9.276
 3890SOL    HW112230   3.532   0.650   9.229
 3890SOL    HW212231   3.602   0.518   9.207
 3891SOL     OW12232   3.238   1.143   7.990
 3891SOL    HW112233   3.317   1.129   7.937
 3891SOL    HW212234   3.186   1.204   7.939
 3892SOL     OW12235   2.401   0.203   8.349
 3892SOL    HW112236   2.421   0.221   8.441
 3892SOL    HW212237   2.392   0.289   8.309
 3893SOL     OW12238   2.870   1.445   7.921
 3893SOL    HW112239   2.830   1.517   7.872
 3893SOL    HW212240   2.854   1.467   8.013
 3894SOL     OW12241   2.216   1.799   8.306
 3894SOL    HW112242   2.246   1.708   8.312
 3894SOL    HW212243   2.293   1.851   8.327
 3895SOL     OW12244   3.660   1.061   8.316
 3895SOL    HW112245   3.605   1.041   8.240
 3895SOL    HW212246   3.599   1.065   8.389
 3896SOL     OW12247   3.090   1.539   8.961
 3896SOL    HW112248   3.076   1.466   9.021
 3896SOL    HW212249   3.027   1.524   8.890
 3897SOL     OW12250   2.183   0.956   7.697
 3897SOL    HW112251   2.265   0.975   7.651
 3897SOL    HW212252   2.151   0.874   7.658
 3898SOL     OW12253   3.340   0.741   8.173
 3898SOL    HW112254   3.327   0.695   8.256
 3898SOL    HW212255   3.417   0.796   8.188
 3899SOL     OW12256   2.327   1.264   9.186
 3899SOL    HW112257   2.299   1.268   9.094
 3899SOL    HW212258   2.246   1.262   9.235
 3900SOL     OW12259   2.983   1.777   7.679
 3900SOL    HW112260   2.911   1.734   7.725
 3900SOL    HW212261   3.006   1.717   7.609
 3901SOL     OW12262   2.050   0.268   8.958
 3901SOL    HW112263   1.984   0.335   8.942
 3901SOL    HW212264   2.062   0.269   9.053
 3902SOL     OW12265   3.491   1.380   7.535
 3902SOL    HW112266   3.450   1.465   7.520
 3902SOL    HW212267   3.422   1.316   7.517
 3903SOL     OW12268   2.330   1.735   7.771
 3903SOL    HW112269   2.373   1.794   7.833
 3903SOL    HW212270   2.401   1.705   7.714
 3904SOL     OW12271   3.281   0.136   7.866
 3904SOL    HW112272   3.264   0.086   7.786
 3904SOL    HW212273   3.375   0.130   7.878
 3905SOL     OW12274   2.105   1.781   8.684
 3905SOL    HW112275   2.167   1.722   8.727
 3905SOL    HW212276   2.106   1.754   8.592
 3906SOL     OW12277   2.797   1.697   8.349
 3906SOL    HW112278   2.875   1.646   8.370
 3906SOL    HW212279   2.755   1.648   8.278
 3907SOL     OW12280   2.254   0.695   7.924
 3907SOL    HW112281   2.277   0.603   7.936
 3907SOL    HW212282   2.160   0.698   7.943
 3908SOL     OW12283   3.387   0.233   9.170
 3908SOL    HW112284   3.387   0.256   9.263
 3908SOL    HW212285   3.311   0.177   9.159
 3909SOL     OW12286   2.488   0.122   7.570
 3909SOL    HW112287   2.576   0.086   7.578
 3909SOL    HW212288   2.455   0.087   7.487
 3910SOL     OW12289   2.631   0.271   9.201
 3910SOL    HW112290   2.696   0.202   9.214
 3910SOL    HW212291   2.585   0.276   9.285
 3911SOL     OW12292   2.739   1.522   8.641
 3911SOL    HW112293   2.723   1.484   8.554
 3911SOL    HW212294   2.808   1.467   8.679
 3912SOL     OW12295   3.204   0.589   8.877
 3912SOL    HW112296   3.231   0.559   8.964
 3912SOL    HW212297   3.238   0.678   8.870
 3913SOL     OW12298   2.676   1.398   8.385
 3913SOL    HW112299   2.760   1.385   8.342
 3913SOL    HW212300   2.611   1.395   8.315
 3914SOL     OW12301   2.785   0.517   8.348
 3914SOL    HW112302   2.769   0.515   8.254
 3914SOL    HW212303   2.823   0.432   8.368
 3915SOL     OW12304   2.416   0.075   7.969
 3915SOL    HW112305   2.327   0.048   7.992
 3915SOL    HW212306   2.404   0.141   7.900
 3916SOL     OW12307   3.291   1.198   7.489
 3916SOL    HW112308   3.321   1.122   7.539
 3916SOL    HW212309   3.205   1.218   7.526
 3917SOL     OW12310   2.158   0.070   7.643
 3917SOL    HW112311   2.236   0.122   7.625
 3917SOL    HW212312   2.188   4.500   7.701
 3918SOL     OW12313   2.813   0.240   7.918
 3918SOL    HW112314   2.761   0.293   7.857
 3918SOL    HW212315   2.902   0.276   7.911
 3919SOL     OW12316   2.942   0.680   8.909
 3919SOL    HW112317   2.870   0.616   8.910
 3919SOL    HW212318   3.021   0.627   8.897
 3920SOL     OW12319   3.085   1.570   8.242
 3920SOL    HW112320   3.104   1.637   8.176
 3920SOL    HW212321   3.154   1.582   8.308
 3921SOL     OW12322   2.330   1.149   8.183
 3921SOL    HW112323   2.260   1.130   8.246
 3921SOL    HW212324   2.291   1.132   8.098
 3922SOL     OW12325   3.132   1.795   8.054
 3922SOL    HW112326   3.177   1.856   7.996
 3922SOL    HW212327   3.068   1.848   8.100
 3923SOL     OW12328   2.892   0.548   7.464
 3923SOL    HW112329   2.844   0.630   7.449
 3923SOL    HW212330   2.950   0.568   7.537
 3924SOL     OW12331   1.943   0.551   8.843
 3924SOL    HW112332   2.034   0.554   8.812
 3924SOL    HW212333   1.936   0.623   8.905
 3925SOL     OW12334   2.425   0.243   8.614
 3925SOL    HW112335   2.453   0.159   8.653
 3925SOL    HW212336   2.334   0.252   8.639
 3926SOL     OW12337   2.728   0.503   8.074
 3926SOL    HW112338   2.680   0.544   8.002
 3926SOL    HW212339   2.701   0.411   8.071
 3927SOL     OW12340   2.828   0.028   8.227
 3927SOL    HW112341   2.779   0.025   8.145
 3927SOL    HW212342   2.840   4.437   8.251
 3928SOL     OW12343   3.298   1.163   8.305
 3928SOL    HW112344   3.230   1.096   8.305
 3928SOL    HW212345   3.321   1.175   8.213
 3929SOL     OW12346   3.328   0.604   8.425
 3929SOL    HW112347   3.276   0.524   8.427
 3929SOL    HW212348   3.387   0.597   8.500
 3930SOL     OW12349   3.709   0.818   7.830
 3930SOL    HW112350   3.764   0.766   7.888
 3930SOL    HW212351   3.680   0.756   7.763
 3931SOL     OW12352   2.353   1.417   7.607
 3931SOL    HW112353   2.278   1.387   7.659
 3931SOL    HW212354   2.336   1.382   7.519
 3932SOL     OW12355   3.531   1.265   8.094
 3932SOL    HW112356   3.626   1.269   8.108
 3932SOL    HW212357   3.500   1.353   8.116
 3933SOL     OW12358   3.256   0.570   7.518
 3933SOL    HW112359   3.195   0.554   7.589
 3933SOL    HW212360   3.342   0.550   7.555
 3934SOL     OW12361   2.385   0.266   7.772
 3934SOL    HW112362   2.430   0.214   7.705
 3934SOL    HW212363   2.368   0.350   7.729
 3935SOL     OW12364   3.615   1.237   9.023
 3935SOL    HW112365   3.702   1.198   9.020
 3935SOL    HW212366   3.630   1.327   9.052
 3936SOL     OW12367   2.921   1.355   8.783
 3936SOL    HW112368   2.847   1.323   8.834
 3936SOL    HW212369   2.997   1.313   8.823
 3937SOL     OW12370   3.469   1.626   9.101
 3937SOL    HW112371   3.464   1.659   9.011
 3937SOL    HW212372   3.552   1.578   9.104
 3938SOL     OW12373   2.990   1.204   8.555
 3938SOL    HW112374   2.930   1.240   8.620
 3938SOL    HW212375   2.955   1.233   8.470
 3939SOL     OW12376   3.491   1.099   8.526
 3939SOL    HW112377   3.487   1.161   8.599
 3939SOL    HW212378   3.411   1.115   8.476
 3940SOL     OW12379   2.766   0.132   8.837
 3940SOL    HW112380   2.787   0.088   8.755
 3940SOL    HW212381   2.850   0.146   8.880
 3941SOL     OW12382   2.846   1.115   9.170
 3941SOL    HW112383   2.754   1.130   9.191
 3941SOL    HW212384   2.846   1.037   9.114
 3942SOL     OW12385   2.571   1.062   7.819
 3942SOL    HW112386   2.557   1.046   7.913
 3942SOL    HW212387   2.646   1.007   7.797
 3943SOL     OW12388   2.280   0.815   8.699
 3943SOL    HW112389   2.349   0.824   8.765
 3943SOL    HW212390   2.245   0.727   8.713
 3944SOL     OW12391   3.131   0.376   8.720
 3944SOL    HW112392   3.162   0.455   8.765
 3944SOL    HW212393   3.042   0.398   8.693
 3945SOL     OW12394   1.928   1.570   8.796
 3945SOL    HW112395   1.895   1.648   8.752
 3945SOL    HW212396   2.023   1.582   8.798
 3946SOL     OW12397   2.214   1.108   7.939
 3946SOL    HW112398   2.217   1.180   7.877
 3946SOL    HW212399   2.212   1.029   7.884
 3947SOL     OW12400   2.419   0.531   8.307
 3947SOL    HW112401   2.433   0.590   8.232
 3947SOL    HW212402   2.482   0.560   8.373
 3948SOL     OW12403   3.110   1.348   7.837
 3948SOL    HW112404   3.166   1.420   7.868
 3948SOL    HW212405   3.023   1.369   7.871
 3949SOL     OW12406   3.141   1.457   8.594
 3949SOL    HW112407   3.196   1.458   8.672
 3949SOL    HW212408   3.086   1.379   8.605
 3950SOL     OW12409   3.444   0.624   7.924
 3950SOL    HW112410   3.398   0.676   7.990
 3950SOL    HW212411   3.489   0.689   7.870
 3951SOL     OW12412   2.213   1.521   8.767
 3951SOL    HW112413   2.196   1.481   8.682
 3951SOL    HW212414   2.307   1.535   8.770
 3952SOL     OW12415   2.276   0.743   9.050
 3952SOL    HW112416   2.335   0.790   8.992
 3952SOL    HW212417   2.320   0.660   9.067
 3953SOL     OW12418   3.462   0.778   9.128
 3953SOL    HW112419   3.375   0.819   9.121
 3953SOL    HW212420   3.514   0.820   9.060
 3954SOL     OW12421   2.869   0.085   9.171
 3954SOL    HW112422   2.893   0.169   9.132
 3954SOL    HW212423   2.893   0.020   9.105
 3955SOL     OW12424   2.361   0.047   9.206
 3955SOL    HW112425   2.354   0.003   9.121
 3955SOL    HW212426   2.293   0.115   9.203
 3956SOL     OW12427   2.444   0.873   8.479
 3956SOL    HW112428   2.474   0.964   8.478
 3956SOL    HW212429   2.388   0.867   8.556
 3957SOL     OW12430   3.221   0.859   8.479
 3957SOL    HW112431   3.139   0.850   8.432
 3957SOL    HW212432   3.261   0.771   8.474
 3958SOL     OW12433   3.067   0.535   7.712
 3958SOL    HW112434   3.073   0.455   7.764
 3958SOL    HW212435   3.024   0.597   7.771
 3959SOL     OW12436   2.152   0.235   8.689
 3959SOL    HW112437   2.110   0.250   8.773
 3959SOL    HW212438   2.185   0.145   8.695
 3960SOL     OW12439   1.908   1.309   8.725
 3960SOL    HW112440   1.942   1.258   8.797
 3960SOL    HW212441   1.915   1.400   8.754
 3961SOL     OW12442   2.586   0.632   8.507
 3961SOL    HW112443   2.659   0.612   8.448
 3961SOL    HW212444   2.559   0.720   8.483
 3962SOL     OW12445   3.596   0.959   9.299
 3962SOL    HW112446   3.548   0.901   9.240
 3962SOL    HW212447   3.536   0.971   9.373
 3963SOL     OW12448   2.160   0.057   8.102
 3963SOL    HW112449   2.150   0.152   8.105
 3963SOL    HW212450   2.171   0.031   8.193
 3964SOL     OW12451   3.475   0.376   7.812
 3964SOL    HW112452   3.505   0.313   7.878
 3964SOL    HW212453   3.453   0.454   7.863
 3965SOL     OW12454   2.890   0.761   8.410
 3965SOL    HW112455   2.888   0.777   8.504
 3965SOL    HW212456   2.861   0.671   8.400
 3966SOL     OW12457   2.845   1.567   9.164
 3966SOL    HW112458   2.830   1.610   9.080
 3966SOL    HW212459   2.887   1.484   9.140
 3967SOL     OW12460   3.717   1.508   9.054
 3967SOL    HW112461   3.734   1.533   8.963
 3967SOL    HW212462   3.799   1.527   9.100
 3968SOL     OW12463   2.216   0.916   9.256
 3968SOL    HW112464   2.298   0.934   9.301
 3968SOL    HW212465   2.240   0.854   9.188
 3969SOL     OW12466   3.393   0.266   7.576
 3969SOL    HW112467   3.321   0.210   7.604
 3969SOL    HW212468   3.422   0.310   7.656
 3970SOL     OW12469   3.155   0.827   7.480
 3970SOL    HW112470   3.197   0.740   7.482
 3970SOL    HW212471   3.186   0.866   7.398
 3971SOL     OW12472   2.926   1.335   8.300
 3971SOL    HW112473   2.929   1.262   8.239
 3971SOL    HW212474   2.989   1.398   8.266
 3972SOL     OW12475   2.171   0.810   8.396
 3972SOL    HW112476   2.264   0.832   8.389
 3972SOL    HW212477   2.170   0.720   8.430
 3973SOL     OW12478   2.199   0.530   8.461
 3973SOL    HW112479   2.156   0.447   8.442
 3973SOL    HW212480   2.274   0.533   8.403
 3974SOL     OW12481   2.997   0.374   9.142
 3974SOL    HW112482   2.948   0.439   9.193
 3974SOL    HW212483   3.083   0.415   9.129
 3975SOL     OW12484   3.021   0.212   8.921
 3975SOL    HW112485   3.013   0.275   8.992
 3975SOL    HW212486   3.058   0.261   8.848
 3976SOL     OW12487   1.867   1.322   7.643
 3976SOL    HW112488   1.780   1.335   7.605
 3976SOL    HW212489   1.865   1.232   7.676
 3977SOL     OW12490   1.949   1.791   8.382
 3977SOL    HW112491   1.918   1.710   8.341
 3977SOL    HW212492   2.040   1.798   8.353
 3978SOL     OW12493   2.359   1.570   8.351
 3978SOL    HW112494   2.428   1.633   8.372
 3978SOL    HW212495   2.402   1.504   8.297
 3979SOL     OW12496   2.847   0.795   8.676
 3979SOL    HW112497   2.901   0.770   8.751
 3979SOL    HW212498   2.762   0.755   8.694
 3980SOL     OW12499   1.896   0.542   8.566
 3980SOL    HW112500   1.974   0.523   8.514
 3980SOL    HW212501   1.927   0.548   8.656
 3981SOL     OW12502   2.047   0.519   9.168
 3981SOL    HW112503   2.121   0.498   9.111
 3981SOL    HW212504   2.005   0.594   9.127
 3982SOL     OW12505   3.239   0.940   9.107
 3982SOL    HW112506   3.259   1.034   9.106
 3982SOL    HW212507   3.236   0.915   9.015
 3983SOL     OW12508   2.673   0.575   7.802
 3983SOL    HW112509   2.677   0.502   7.739
 3983SOL    HW212510   2.599   0.628   7.773
 3984SOL     OW12511   3.503   0.602   8.636
 3984SOL    HW112512   3.493   0.541   8.710
 3984SOL    HW212513   3.590   0.582   8.601
 3985SOL     OW12514   2.113   1.551   9.181
 3985SOL    HW112515   2.082   1.614   9.247
 3985SOL    HW212516   2.108   1.466   9.225
 3986SOL     OW12517   2.558   0.459   8.713
 3986SOL    HW112518   2.512   0.382   8.680
 3986SOL    HW212519   2.559   0.520   8.638
 3987SOL     OW12520   2.793   1.678   8.915
 3987SOL    HW112521   2.764   1.646   8.829
 3987SOL    HW212522   2.789   1.774   8.906
 3988SOL     OW12523   2.328   0.493   7.633
 3988SOL    HW112524   2.386   0.565   7.654
 3988SOL    HW212525   2.242   0.534   7.622
 3989SOL     OW12526   2.009   1.140   8.920
 3989SOL    HW112527   2.012   1.087   9.000
 3989SOL    HW212528   2.026   1.078   8.850
 3990SOL     OW12529   3.190   1.048   8.672
 3990SOL    HW112530   3.213   0.984   8.604
 3990SOL    HW212531   3.118   1.099   8.633
 3991SOL     OW12532   3.172   0.857   7.755
 3991SOL    HW112533   3.097   0.827   7.805
 3991SOL    HW212534   3.147   0.843   7.663
 3992SOL     OW12535   3.632   1.745   8.597
 3992SOL    HW112536   3.692   1.771   8.527
 3992SOL    HW212537   3.608   1.655   8.576
 3993SOL     OW12538   3.103   1.733   8.563
 3993SOL    HW112539   3.185   1.752   8.517
 3993SOL    HW212540   3.108   1.639   8.581
 3994SOL     OW12541   1.947   1.265   8.461
 3994SOL    HW112542   1.933   1.278   8.555
 3994SOL    HW212543   1.872   1.214   8.432
 3995SOL     OW12544   2.541   1.664   9.175
 3995SOL    HW112545   2.487   1.743   9.173
 3995SOL    HW212546   2.602   1.674   9.102
 3996SOL     OW12547   3.580   0.130   7.943
 3996SOL    HW112548   3.652   0.137   7.881
 3996SOL    HW212549   3.605   0.057   8.000
 3997SOL     OW12550   3.252   1.568   7.932
 3997SOL    HW112551   3.313   1.599   7.865
 3997SOL    HW212552   3.204   1.646   7.960
 3998SOL     OW12553   1.997   1.801   9.294
 3998SOL    HW112554   1.946   1.734   9.339
 3998SOL    HW212555   2.046   1.844   9.364
 3999SOL     OW12556   3.140   0.927   8.121
 3999SOL    HW112557   3.213   0.864   8.125
 3999SOL    HW212558   3.174   0.999   8.068
 4000SOL     OW12559   2.678   1.273   8.878
 4000SOL    HW112560   2.651   1.312   8.961
 4000SOL    HW212561   2.607   1.293   8.818
 4001SOL     OW12562   2.533   1.619   7.604
 4001SOL    HW112563   2.544   1.630   7.509
 4001SOL    HW212564   2.479   1.540   7.613
 4002SOL     OW12565   3.492   1.727   8.840
 4002SOL    HW112566   3.540   1.734   8.757
 4002SOL    HW212567   3.478   1.817   8.868
 4003SOL     OW12568   3.701   0.155   8.415
 4003SOL    HW112569   3.732   0.078   8.366
 4003SOL    HW212570   3.614   0.173   8.378
 4004SOL     OW12571   2.127   0.324   8.166
 4004SOL    HW112572   2.042   0.357   8.139
 4004SOL    HW212573   2.120   0.314   8.261
 4005SOL     OW12574   3.068   1.607   7.479
 4005SOL    HW112575   3.060   1.516   7.507
 4005SOL    HW212576   3.003   1.618   7.410
 4006SOL     OW12577   2.686   1.006   8.820
 4006SOL    HW112578   2.729   1.001   8.735
 4006SOL    HW212579   2.687   1.099   8.843
 4007SOL     OW12580   2.778   0.911   7.738
 4007SOL    HW112581   2.840   0.942   7.672
 4007SOL    HW212582   2.824   0.840   7.783
 4008SOL     OW12583   3.355   1.625   7.490
 4008SOL    HW112584   3.260   1.619   7.477
 4008SOL    HW212585   3.391   1.631   7.402
 4009SOL     OW12586   2.232   1.300   8.940
 4009SOL    HW112587   2.219   1.379   8.886
 4009SOL    HW212588   2.154   1.247   8.924
 4010SOL     OW12589   3.474   1.283   8.729
 4010SOL    HW112590   3.532   1.273   8.804
 4010SOL    HW212591   3.413   1.352   8.755
 4011SOL     OW12592   2.912   1.106   8.154
 4011SOL    HW112593   2.841   1.055   8.193
 4011SOL    HW212594   2.974   1.041   8.122
 4012SOL     OW12595   2.869   0.243   8.449
 4012SOL    HW112596   2.874   0.217   8.357
 4012SOL    HW212597   2.861   0.160   8.497
 4013SOL     OW12598   2.466   1.490   7.929
 4013SOL    HW112599   2.507   1.438   7.861
 4013SOL    HW212600   2.394   1.536   7.884
 4014SOL     OW12601   3.582   0.394   8.825
 4014SOL    HW112602   3.655   0.456   8.824
 4014SOL    HW212603   3.612   0.322   8.769
 4015SOL     OW12604   2.121   1.346   7.736
 4015SOL    HW112605   2.028   1.344   7.713
 4015SOL    HW212606   2.123   1.383   7.825
 4016SOL     OW12607   1.974   1.019   9.167
 4016SOL    HW112608   1.898   0.997   9.221
 4016SOL    HW212609   2.049   0.983   9.215
 4017SOL     OW12610   2.520   0.204   8.946
 4017SOL    HW112611   2.600   0.179   8.899
 4017SOL    HW212612   2.550   0.224   9.034
 4018SOL     OW12613   1.943   0.341   7.495
 4018SOL    HW112614   1.872   0.288   7.459
 4018SOL    HW212615   1.958   0.410   7.430
 4019SOL     OW12616   3.293   0.859   8.849
 4019SOL    HW112617   3.244   0.919   8.793
 4019SOL    HW212618   3.382   0.861   8.815
 4020SOL     OW12619   1.927   0.181   7.769
 4020SOL    HW112620   1.925   0.248   7.700
 4020SOL    HW212621   2.002   0.126   7.746
 4021SOL     OW12622   3.041   1.341   7.565
 4021SOL    HW112623   2.951   1.309   7.568
 4021SOL    HW212624   3.070   1.340   7.656
 4022SOL     OW12625   2.481   0.831   8.881
 4022SOL    HW112626   2.536   0.907   8.866
 4022SOL    HW212627   2.542   0.758   8.889
 4023SOL     OW12628   3.346   1.776   8.425
 4023SOL    HW112629   3.371   1.834   8.353
 4023SOL    HW212630   3.428   1.758   8.471
 4024SOL     OW12631   2.578   0.563   9.154
 4024SOL    HW112632   2.615   0.628   9.214
 4024SOL    HW212633   2.612   0.479   9.185
 4025SOL     OW12634   3.332   1.202   9.081
 4025SOL    HW112635   3.320   1.215   9.175
 4025SOL    HW212636   3.426   1.215   9.066
 4026SOL     OW12637   2.245   1.737   9.013
 4026SOL    HW112638   2.158   1.772   8.995
 4026SOL    HW212639   2.229   1.653   9.055
 4027SOL     OW12640   3.533   0.881   8.704
 4027SOL    HW112641   3.525   0.796   8.661
 4027SOL    HW212642   3.523   0.945   8.633
 4028SOL     OW12643   3.080   0.329   7.896
 4028SOL    HW112644   3.145   0.259   7.885
 4028SOL    HW212645   3.107   0.376   7.975
 4029SOL     OW12646   2.450   0.739   8.118
 4029SOL    HW112647   2.491   0.824   8.101
 4029SOL    HW212648   2.382   0.732   8.051
 4030SOL     OW12649   3.626   0.364   9.091
 4030SOL    HW112650   3.610   0.377   8.998
 4030SOL    HW212651   3.548   0.318   9.123
 4031SOL     OW12652   3.607   0.933   8.960
 4031SOL    HW112653   3.605   1.028   8.973
 4031SOL    HW212654   3.592   0.922   8.867
 4032SOL     OW12655   2.723   1.368   7.480
 4032SOL    HW112656   2.686   1.394   7.563
 4032SOL    HW212657   2.743   1.450   7.435
 4033SOL     OW12658   2.521   1.799   8.384
 4033SOL    HW112659   2.522   1.889   8.415
 4033SOL    HW212660   2.613   1.772   8.383
 4034SOL     OW12661   2.729   0.966   8.304
 4034SOL    HW112662   2.779   0.895   8.343
 4034SOL    HW212663   2.695   1.015   8.378
 4035SOL     OW12664   2.942   0.989   7.537
 4035SOL    HW112665   2.920   1.038   7.458
 4035SOL    HW212666   3.017   0.935   7.511
 4036SOL     OW12667   3.717   1.556   8.293
 4036SOL    HW112668   3.640   1.544   8.238
 4036SOL    HW212669   3.710   1.487   8.360
 4037SOL     OW12670   2.086   1.303   9.304
 4037SOL    HW112671   2.018   1.243   9.274
 4037SOL    HW212672   2.068   1.316   9.397
 4038SOL     OW12673   1.947   1.235   8.112
 4038SOL    HW112674   1.948   1.186   8.194
 4038SOL    HW212675   2.015   1.193   8.059
 4039SOL     OW12676   2.542   1.402   9.074
 4039SOL    HW112677   2.463   1.358   9.104
 4039SOL    HW212678   2.537   1.489   9.112
 4040SOL     OW12679   3.671   0.182   8.687
 4040SOL    HW112680   3.670   0.089   8.707
 4040SOL    HW212681   3.687   0.186   8.593
 4041SOL     OW12682   2.297   0.433   7.977
 4041SOL    HW112683   2.320   0.364   7.915
 4041SOL    HW212684   2.242   0.390   8.042
 4042SOL     OW12685   3.562   1.491   8.547
 4042SOL    HW112686   3.482   1.466   8.501
 4042SOL    HW212687   3.576   1.421   8.611
 4043SOL     OW12688   2.191   0.556   8.739
 4043SOL    HW112689   2.246   0.500   8.793
 4043SOL    HW212690   2.210   0.529   8.649
 4044SOL     OW12691   2.687   1.579   8.127
 4044SOL    HW112692   2.678   1.625   8.043
 4044SOL    HW212693   2.611   1.521   8.131
 4045SOL     OW12694   3.294   0.216   8.566
 4045SOL    HW112695   3.330   0.145   8.619
 4045SOL    HW212696   3.243   0.268   8.627
 4046SOL     OW12697   2.859   0.009   8.597
 4046SOL    HW112698   2.815   4.425   8.589
 4046SOL    HW212699   2.951   4.487   8.609
 4047SOL     OW12700   2.634   1.332   7.761
 4047SOL    HW112701   2.601   1.243   7.766
 4047SOL    HW212702   2.716   1.331   7.809
 4048SOL     OW12703   2.483   1.558   8.730
 4048SOL    HW112704   2.486   1.638   8.784
 4048SOL    HW212705   2.571   1.550   8.694
 4049SOL     OW12706   3.203   0.053   7.601
 4049SOL    HW112707   3.242   4.478   7.556
 4049SOL    HW212708   3.128   0.017   7.647
 4050SOL     OW12709   3.177   0.463   8.126
 4050SOL    HW112710   3.116   0.536   8.127
 4050SOL    HW212711   3.164   0.421   8.212
 4051SOL     OW12712   3.447   0.201   8.315
 4051SOL    HW112713   3.388   0.216   8.388
 4051SOL    HW212714   3.450   0.285   8.269
 4052SOL     OW12715   1.906   1.072   7.753
 4052SOL    HW112716   2.000   1.062   7.736
 4052SOL    HW212717   1.877   0.984   7.776
 4053SOL     OW12718   2.745   1.651   7.792
 4053SOL    HW112719   2.673   1.633   7.731
 4053SOL    HW212720   2.715   1.727   7.842
 4054SOL     OW12721   2.092   0.627   9.430
 4054SOL    HW112722   2.004   0.620   9.468
 4054SOL    HW212723   2.081   0.596   9.340
 4055SOL     OW12724   2.071   0.297  10.299
 4055SOL    HW112725   2.102   0.269  10.385
 4055SOL    HW212726   1.989   0.250  10.286
 4056SOL     OW12727   1.870   0.385   9.949
 4056SOL    HW112728   1.784   0.405   9.985
 4056SOL    HW212729   1.855   0.311   9.890
 4057SOL     OW12730   2.429   1.285  10.484
 4057SOL    HW112731   2.342   1.285  10.446
 4057SOL    HW212732   2.442   1.374  10.517
 4058SOL     OW12733   3.421   1.512  10.016
 4058SOL    HW112734   3.378   1.492  10.099
 4058SOL    HW212735   3.350   1.516   9.952
 4059SOL     OW12736   2.995   0.699  10.010
 4059SOL    HW112737   3.042   0.782   9.999
 4059SOL    HW212738   2.945   0.710  10.091
 4060SOL     OW12739   3.628   0.608   9.539
 4060SOL    HW112740   3.608   0.597   9.446
 4060SOL    HW212741   3.595   0.527   9.579
 4061SOL     OW12742   2.621   1.144  10.351
 4061SOL    HW112743   2.551   1.178  10.406
 4061SOL    HW212744   2.654   1.221  10.304
 4062SOL     OW12745   2.714   0.779   0.021
 4062SOL    HW112746   2.721   0.836   0.098
 4062SOL    HW212747   2.748   0.832  11.049
 4063SOL     OW12748   2.549   1.005   9.957
 4063SOL    HW112749   2.613   0.991  10.027
 4063SOL    HW212750   2.478   1.055   9.999
 4064SOL     OW12751   2.194   1.426  10.378
 4064SOL    HW112752   2.120   1.389  10.329
 4064SOL    HW212753   2.243   1.475  10.313
 4065SOL     OW12754   3.325   1.500  10.658
 4065SOL    HW112755   3.379   1.579  10.668
 4065SOL    HW212756   3.275   1.495  10.740
 4066SOL     OW12757   2.309   0.395  10.788
 4066SOL    HW112758   2.387   0.339  10.798
 4066SOL    HW212759   2.237   0.341  10.819
 4067SOL     OW12760   3.474   0.447  10.048
 4067SOL    HW112761   3.393   0.469  10.002
 4067SOL    HW212762   3.494   0.524  10.100
 4068SOL     OW12763   2.079   1.707   9.776
 4068SOL    HW112764   2.103   1.778   9.835
 4068SOL    HW212765   2.152   1.699   9.716
 4069SOL     OW12766   2.094   1.438   9.847
 4069SOL    HW112767   2.072   1.532   9.847
 4069SOL    HW212768   2.031   1.399   9.907
 4070SOL     OW12769   2.119   1.090  10.202
 4070SOL    HW112770   2.114   1.004  10.243
 4070SOL    HW212771   2.060   1.145  10.254
 4071SOL     OW12772   2.473   1.790  10.737
 4071SOL    HW112773   2.394   1.771  10.787
 4071SOL    HW212774   2.497   1.879  10.763
 4072SOL     OW12775   2.450   0.981   9.443
 4072SOL    HW112776   2.494   1.031   9.375
 4072SOL    HW212777   2.490   1.010   9.525
 4073SOL     OW12778   3.417   0.134  10.781
 4073SOL    HW112779   3.465   0.191  10.721
 4073SOL    HW212780   3.473   0.128  10.859
 4074SOL     OW12781   1.978   0.652   9.869
 4074SOL    HW112782   1.948   0.564   9.891
 4074SOL    HW212783   1.969   0.701   9.951
 4075SOL     OW12784   3.704   1.760   9.646
 4075SOL    HW112785   3.765   1.731   9.713
 4075SOL    HW212786   3.729   1.850   9.627
 4076SOL     OW12787   1.895   1.596   9.433
 4076SOL    HW112788   1.876   1.504   9.452
 4076SOL    HW212789   1.868   1.642   9.513
 4077SOL     OW12790   3.553   0.921   9.950
 4077SOL    HW112791   3.637   0.878   9.930
 4077SOL    HW212792   3.531   0.969   9.871
 4078SOL     OW12793   3.507   1.108   9.739
 4078SOL    HW112794   3.593   1.115   9.697
 4078SOL    HW212795   3.512   1.168   9.813
 4079SOL     OW12796   1.987   0.726  10.914
 4079SOL    HW112797   2.081   0.747  10.907
 4079SOL    HW212798   1.943   0.811  10.908
 4080SOL     OW12799   2.475   1.383  10.045
 4080SOL    HW112800   2.429   1.300  10.054
 4080SOL    HW212801   2.459   1.410   9.954
 4081SOL     OW12802   3.158   1.238  10.751
 4081SOL    HW112803   3.182   1.177  10.681
 4081SOL    HW212804   3.213   1.212  10.825
 4082SOL     OW12805   2.678   0.013   9.859
 4082SOL    HW112806   2.713   0.099   9.834
 4082SOL    HW212807   2.583   0.023   9.852
 4083SOL     OW12808   2.053   0.966  10.578
 4083SOL    HW112809   2.137   0.923  10.562
 4083SOL    HW212810   1.988   0.910  10.535
 4084SOL     OW12811   3.394   0.992   9.507
 4084SOL    HW112812   3.323   0.935   9.538
 4084SOL    HW212813   3.434   1.026   9.587
 4085SOL     OW12814   3.057   1.806  10.927
 4085SOL    HW112815   3.058   1.868  10.854
 4085SOL    HW212816   3.066   1.720  10.885
 4086SOL     OW12817   2.196   0.276  11.088
 4086SOL    HW112818   2.253   0.339   0.032
 4086SOL    HW212819   2.113   0.281   0.034
 4087SOL     OW12820   3.328   1.419  10.262
 4087SOL    HW112821   3.259   1.435  10.326
 4087SOL    HW212822   3.316   1.329  10.235
 4088SOL     OW12823   3.522   1.736   9.888
 4088SOL    HW112824   3.500   1.707   9.799
 4088SOL    HW212825   3.496   1.663   9.944
 4089SOL     OW12826   2.456   0.723   9.575
 4089SOL    HW112827   2.462   0.804   9.524
 4089SOL    HW212828   2.390   0.742   9.642
 4090SOL     OW12829   3.153   0.361  10.244
 4090SOL    HW112830   3.063   0.330  10.228
 4090SOL    HW212831   3.189   0.298  10.306
 4091SOL     OW12832   3.443   1.669   9.619
 4091SOL    HW112833   3.533   1.702   9.612
 4091SOL    HW212834   3.417   1.652   9.528
 4092SOL     OW12835   2.657   0.618  10.766
 4092SOL    HW112836   2.626   0.593  10.853
 4092SOL    HW212837   2.618   0.553  10.707
 4093SOL     OW12838   2.828   0.899  10.901
 4093SOL    HW112839   2.876   0.825  10.862
 4093SOL    HW212840   2.777   0.935  10.828
 4094SOL     OW12841   2.857   0.418  10.547
 4094SOL    HW112842   2.770   0.428  10.584
 4094SOL    HW212843   2.844   0.365  10.468
 4095SOL     OW12844   2.911   0.698   9.737
 4095SOL    HW112845   2.927   0.690   9.831
 4095SOL    HW212846   2.829   0.651   9.723
 4096SOL     OW12847   1.951   0.820  10.086
 4096SOL    HW112848   2.032   0.813  10.137
 4096SOL    HW212849   1.907   0.898  10.121
 4097SOL     OW12850   1.993   1.834  10.896
 4097SOL    HW112851   1.965   1.809  10.984
 4097SOL    HW212852   1.912   1.852  10.849
 4098SOL     OW12853   2.717   0.369   9.492
 4098SOL    HW112854   2.790   0.403   9.440
 4098SOL    HW212855   2.732   0.274   9.495
 4099SOL     OW12856   3.238   1.143   9.852
 4099SOL    HW112857   3.317   1.129   9.798
 4099SOL    HW212858   3.186   1.205   9.801
 4100SOL     OW12859   2.402   0.203  10.212
 4100SOL    HW112860   2.422   0.221  10.303
 4100SOL    HW212861   2.393   0.289  10.171
 4101SOL     OW12862   2.870   1.445   9.783
 4101SOL    HW112863   2.830   1.517   9.734
 4101SOL    HW212864   2.853   1.467   9.875
 4102SOL     OW12865   2.218   1.799  10.179
 4102SOL    HW112866   2.251   1.709  10.182
 4102SOL    HW212867   2.294   1.852  10.202
 4103SOL     OW12868   3.660   1.060  10.178
 4103SOL    HW112869   3.605   1.041  10.102
 4103SOL    HW212870   3.599   1.064  10.251
 4104SOL     OW12871   3.088   1.539  10.825
 4104SOL    HW112872   3.098   1.451  10.862
 4104SOL    HW212873   3.029   1.527  10.751
 4105SOL     OW12874   2.183   0.956   9.559
 4105SOL    HW112875   2.264   0.975   9.513
 4105SOL    HW212876   2.151   0.875   9.520
 4106SOL     OW12877   3.340   0.741  10.035
 4106SOL    HW112878   3.327   0.695  10.118
 4106SOL    HW212879   3.417   0.796  10.050
 4107SOL     OW12880   2.314   1.268  11.053
 4107SOL    HW112881   2.286   1.278  10.962
 4107SOL    HW212882   2.251   1.207  11.091
 4108SOL     OW12883   2.983   1.777   9.541
 4108SOL    HW112884   2.911   1.735   9.587
 4108SOL    HW212885   3.006   1.717   9.471
 4109SOL     OW12886   2.056   0.267  10.814
 4109SOL    HW112887   1.986   0.332  10.807
 4109SOL    HW212888   2.072   0.259  10.908
 4110SOL     OW12889   3.491   1.380   9.397
 4110SOL    HW112890   3.450   1.465   9.382
 4110SOL    HW212891   3.422   1.316   9.379
 4111SOL     OW12892   2.329   1.733   9.632
 4111SOL    HW112893   2.371   1.793   9.694
 4111SOL    HW212894   2.400   1.704   9.575
 4112SOL     OW12895   3.281   0.136   9.728
 4112SOL    HW112896   3.264   0.086   9.648
 4112SOL    HW212897   3.375   0.130   9.740
 4113SOL     OW12898   2.105   1.782  10.550
 4113SOL    HW112899   2.168   1.724  10.591
 4113SOL    HW212900   2.110   1.760  10.457
 4114SOL     OW12901   2.799   1.697  10.212
 4114SOL    HW112902   2.878   1.646  10.229
 4114SOL    HW212903   2.754   1.650  10.142
 4115SOL     OW12904   2.254   0.695   9.786
 4115SOL    HW112905   2.277   0.602   9.798
 4115SOL    HW212906   2.160   0.698   9.805
 4116SOL     OW12907   2.488   0.122   9.432
 4116SOL    HW112908   2.576   0.086   9.440
 4116SOL    HW212909   2.455   0.087   9.349
 4117SOL     OW12910   2.623   0.266  11.045
 4117SOL    HW112911   2.692   0.207  11.076
 4117SOL    HW212912   2.584   0.302   0.025
 4118SOL     OW12913   2.738   1.521  10.503
 4118SOL    HW112914   2.723   1.486  10.416
 4118SOL    HW212915   2.810   1.469  10.539
 4119SOL     OW12916   3.206   0.590  10.753
 4119SOL    HW112917   3.255   0.572  10.833
 4119SOL    HW212918   3.232   0.678  10.727
 4120SOL     OW12919   2.676   1.397  10.248
 4120SOL    HW112920   2.760   1.386  10.203
 4120SOL    HW212921   2.611   1.395  10.177
 4121SOL     OW12922   2.785   0.517  10.210
 4121SOL    HW112923   2.769   0.515  10.116
 4121SOL    HW212924   2.823   0.432  10.230
 4122SOL     OW12925   2.416   0.075   9.831
 4122SOL    HW112926   2.327   0.048   9.854
 4122SOL    HW212927   2.404   0.141   9.762
 4123SOL     OW12928   3.290   1.198   9.351
 4123SOL    HW112929   3.321   1.122   9.401
 4123SOL    HW212930   3.204   1.218   9.388
 4124SOL     OW12931   2.158   0.070   9.505
 4124SOL    HW112932   2.236   0.122   9.487
 4124SOL    HW212933   2.188   4.500   9.563
 4125SOL     OW12934   2.813   0.240   9.780
 4125SOL    HW112935   2.761   0.293   9.719
 4125SOL    HW212936   2.902   0.276   9.773
 4126SOL     OW12937   2.940   0.684  10.773
 4126SOL    HW112938   2.867   0.621  10.772
 4126SOL    HW212939   3.018   0.629  10.766
 4127SOL     OW12940   3.085   1.570  10.104
 4127SOL    HW112941   3.103   1.637  10.038
 4127SOL    HW212942   3.154   1.583  10.169
 4128SOL     OW12943   2.330   1.149  10.045
 4128SOL    HW112944   2.260   1.130  10.108
 4128SOL    HW212945   2.291   1.132   9.960
 4129SOL     OW12946   3.132   1.794   9.917
 4129SOL    HW112947   3.177   1.856   9.859
 4129SOL    HW212948   3.066   1.848   9.962
 4130SOL     OW12949   2.892   0.548   9.326
 4130SOL    HW112950   2.844   0.630   9.311
 4130SOL    HW212951   2.950   0.568   9.399
 4131SOL     OW12952   1.941   0.550  10.707
 4131SOL    HW112953   2.032   0.554  10.677
 4131SOL    HW212954   1.937   0.615  10.777
 4132SOL     OW12955   2.425   0.243  10.477
 4132SOL    HW112956   2.448   0.156  10.510
 4132SOL    HW212957   2.333   0.254  10.502
 4133SOL     OW12958   2.728   0.503   9.936
 4133SOL    HW112959   2.680   0.544   9.864
 4133SOL    HW212960   2.701   0.411   9.933
 4134SOL     OW12961   2.828   0.028  10.089
 4134SOL    HW112962   2.779   0.025  10.007
 4134SOL    HW212963   2.840   4.436  10.113
 4135SOL     OW12964   3.297   1.164  10.167
 4135SOL    HW112965   3.230   1.095  10.166
 4135SOL    HW212966   3.322   1.175  10.075
 4136SOL     OW12967   3.328   0.605  10.287
 4136SOL    HW112968   3.276   0.524  10.289
 4136SOL    HW212969   3.387   0.597  10.362
 4137SOL     OW12970   3.709   0.818   9.692
 4137SOL    HW112971   3.764   0.766   9.750
 4137SOL    HW212972   3.680   0.756   9.625
 4138SOL     OW12973   2.353   1.417   9.469
 4138SOL    HW112974   2.278   1.387   9.521
 4138SOL    HW212975   2.336   1.383   9.381
 4139SOL     OW12976   3.531   1.265   9.956
 4139SOL    HW112977   3.626   1.269   9.970
 4139SOL    HW212978   3.500   1.353   9.978
 4140SOL     OW12979   3.256   0.570   9.380
 4140SOL    HW112980   3.195   0.554   9.451
 4140SOL    HW212981   3.342   0.550   9.417
 4141SOL     OW12982   2.385   0.266   9.634
 4141SOL    HW112983   2.430   0.214   9.567
 4141SOL    HW212984   2.368   0.350   9.591
 4142SOL     OW12985   3.621   1.229  10.871
 4142SOL    HW112986   3.713   1.200  10.874
 4142SOL    HW212987   3.623   1.316  10.911
 4143SOL     OW12988   2.926   1.355  10.651
 4143SOL    HW112989   2.848   1.321  10.695
 4143SOL    HW212990   2.999   1.306  10.690
 4144SOL     OW12991   2.990   1.207  10.417
 4144SOL    HW112992   2.924   1.239  10.478
 4144SOL    HW212993   2.958   1.233  10.330
 4145SOL     OW12994   3.492   1.099  10.388
 4145SOL    HW112995   3.488   1.161  10.461
 4145SOL    HW212996   3.411   1.116  10.339
 4146SOL     OW12997   2.761   0.127  10.699
 4146SOL    HW112998   2.788   0.089  10.615
 4146SOL    HW212999   2.843   0.142  10.745
 4147SOL     OW13000   2.571   1.061   9.681
 4147SOL    HW113001   2.557   1.046   9.775
 4147SOL    HW213002   2.646   1.007   9.659
 4148SOL     OW13003   2.281   0.815  10.561
 4148SOL    HW113004   2.349   0.823  10.627
 4148SOL    HW213005   2.245   0.727  10.575
 4149SOL     OW13006   3.132   0.382  10.581
 4149SOL    HW113007   3.162   0.459  10.628
 4149SOL    HW213008   3.043   0.404  10.553
 4150SOL     OW13009   1.929   1.573  10.658
 4150SOL    HW113010   1.897   1.648  10.607
 4150SOL    HW213011   2.024   1.582  10.656
 4151SOL     OW13012   2.214   1.107   9.801
 4151SOL    HW113013   2.217   1.181   9.739
 4151SOL    HW213014   2.212   1.029   9.746
 4152SOL     OW13015   2.419   0.531  10.169
 4152SOL    HW113016   2.433   0.590  10.095
 4152SOL    HW213017   2.482   0.560  10.235
 4153SOL     OW13018   3.110   1.348   9.699
 4153SOL    HW113019   3.166   1.420   9.730
 4153SOL    HW213020   3.023   1.369   9.733
 4154SOL     OW13021   3.140   1.458  10.454
 4154SOL    HW113022   3.196   1.460  10.531
 4154SOL    HW213023   3.087   1.379  10.465
 4155SOL     OW13024   3.444   0.624   9.786
 4155SOL    HW113025   3.398   0.676   9.852
 4155SOL    HW213026   3.489   0.689   9.732
 4156SOL     OW13027   2.212   1.520  10.628
 4156SOL    HW113028   2.196   1.480  10.542
 4156SOL    HW213029   2.306   1.535  10.631
 4157SOL     OW13030   2.275   0.735  10.905
 4157SOL    HW113031   2.338   0.780  10.848
 4157SOL    HW213032   2.313   0.648  10.919
 4158SOL     OW13033   3.455   0.761  10.970
 4158SOL    HW113034   3.378   0.817  10.964
 4158SOL    HW213035   3.524   0.810  10.926
 4159SOL     OW13036   2.445   0.873  10.341
 4159SOL    HW113037   2.473   0.964  10.339
 4159SOL    HW213038   2.388   0.867  10.418
 4160SOL     OW13039   3.221   0.860  10.345
 4160SOL    HW113040   3.139   0.852  10.295
 4160SOL    HW213041   3.261   0.774  10.339
 4161SOL     OW13042   3.067   0.535   9.574
 4161SOL    HW113043   3.073   0.454   9.626
 4161SOL    HW213044   3.024   0.597   9.633
 4162SOL     OW13045   2.152   0.233  10.549
 4162SOL    HW113046   2.114   0.251  10.635
 4162SOL    HW213047   2.183   0.143  10.555
 4163SOL     OW13048   1.911   1.311  10.585
 4163SOL    HW113049   1.939   1.257  10.660
 4163SOL    HW213050   1.914   1.401  10.618
 4164SOL     OW13051   2.586   0.632  10.369
 4164SOL    HW113052   2.659   0.612  10.310
 4164SOL    HW213053   2.559   0.721  10.345
 4165SOL     OW13054   2.160   0.057   9.964
 4165SOL    HW113055   2.150   0.152   9.967
 4165SOL    HW213056   2.172   0.031  10.055
 4166SOL     OW13057   3.475   0.376   9.674
 4166SOL    HW113058   3.505   0.313   9.740
 4166SOL    HW213059   3.453   0.454   9.725
 4167SOL     OW13060   2.890   0.761  10.272
 4167SOL    HW113061   2.888   0.777  10.366
 4167SOL    HW213062   2.861   0.671  10.262
 4168SOL     OW13063   2.835   1.572  11.004
 4168SOL    HW113064   2.821   1.621  10.924
 4168SOL    HW213065   2.868   1.487  10.975
 4169SOL     OW13066   3.719   1.495  10.912
 4169SOL    HW113067   3.734   1.530  10.824
 4169SOL    HW213068   3.787   1.537  10.966
 4170SOL     OW13069   2.222   0.920  11.094
 4170SOL    HW113070   2.307   0.933   0.037
 4170SOL    HW213071   2.239   0.853  11.028
 4171SOL     OW13072   3.393   0.266   9.438
 4171SOL    HW113073   3.321   0.210   9.466
 4171SOL    HW213074   3.422   0.310   9.518
 4172SOL     OW13075   3.155   0.827   9.342
 4172SOL    HW113076   3.197   0.740   9.344
 4172SOL    HW213077   3.186   0.866   9.260
 4173SOL     OW13078   2.927   1.335  10.163
 4173SOL    HW113079   2.930   1.262  10.101
 4173SOL    HW213080   2.989   1.399  10.128
 4174SOL     OW13081   2.171   0.810  10.258
 4174SOL    HW113082   2.264   0.831  10.250
 4174SOL    HW213083   2.170   0.720  10.292
 4175SOL     OW13084   2.198   0.530  10.322
 4175SOL    HW113085   2.156   0.446  10.304
 4175SOL    HW213086   2.274   0.533  10.264
 4176SOL     OW13087   3.016   0.216  10.770
 4176SOL    HW113088   3.028   0.269  10.849
 4176SOL    HW213089   3.054   0.269  10.700
 4177SOL     OW13090   1.867   1.322   9.505
 4177SOL    HW113091   1.780   1.336   9.467
 4177SOL    HW213092   1.865   1.232   9.538
 4178SOL     OW13093   1.948   1.792  10.244
 4178SOL    HW113094   1.918   1.711  10.203
 4178SOL    HW213095   2.041   1.798  10.220
 4179SOL     OW13096   2.362   1.570  10.215
 4179SOL    HW113097   2.430   1.635  10.232
 4179SOL    HW213098   2.404   1.505  10.159
 4180SOL     OW13099   2.847   0.796  10.538
 4180SOL    HW113100   2.900   0.772  10.614
 4180SOL    HW213101   2.762   0.755  10.555
 4181SOL     OW13102   1.896   0.543  10.429
 4181SOL    HW113103   1.975   0.524  10.378
 4181SOL    HW213104   1.927   0.548  10.519
 4182SOL     OW13105   2.673   0.575   9.664
 4182SOL    HW113106   2.677   0.503   9.602
 4182SOL    HW213107   2.599   0.628   9.635
 4183SOL     OW13108   3.503   0.601  10.497
 4183SOL    HW113109   3.494   0.542  10.572
 4183SOL    HW213110   3.590   0.583  10.462
 4184SOL     OW13111   2.120   1.563  11.056
 4184SOL    HW113112   2.061   1.599   0.022
 4184SOL    HW213113   2.119   1.469  11.071
 4185SOL     OW13114   2.562   0.458  10.574
 4185SOL    HW113115   2.513   0.382  10.543
 4185SOL    HW213116   2.561   0.519  10.501
 4186SOL     OW13117   2.801   1.682  10.760
 4186SOL    HW113118   2.765   1.650  10.677
 4186SOL    HW213119   2.790   1.777  10.755
 4187SOL     OW13120   2.328   0.493   9.495
 4187SOL    HW113121   2.386   0.565   9.516
 4187SOL    HW213122   2.242   0.534   9.484
 4188SOL     OW13123   2.016   1.138  10.780
 4188SOL    HW113124   2.009   1.083  10.858
 4188SOL    HW213125   2.029   1.077  10.708
 4189SOL     OW13126   3.188   1.053  10.538
 4189SOL    HW113127   3.214   0.988  10.474
 4189SOL    HW213128   3.117   1.101  10.496
 4190SOL     OW13129   3.172   0.857   9.617
 4190SOL    HW113130   3.097   0.827   9.667
 4190SOL    HW213131   3.147   0.843   9.525
 4191SOL     OW13132   3.634   1.746  10.461
 4191SOL    HW113133   3.693   1.771  10.390
 4191SOL    HW213134   3.609   1.656  10.440
 4192SOL     OW13135   3.103   1.734  10.425
 4192SOL    HW113136   3.185   1.754  10.379
 4192SOL    HW213137   3.108   1.640  10.442
 4193SOL     OW13138   1.947   1.267  10.322
 4193SOL    HW113139   1.934   1.279  10.416
 4193SOL    HW213140   1.872   1.213  10.295
 4194SOL     OW13141   3.580   0.129   9.805
 4194SOL    HW113142   3.652   0.137   9.743
 4194SOL    HW213143   3.605   0.057   9.863
 4195SOL     OW13144   3.252   1.568   9.794
 4195SOL    HW113145   3.313   1.599   9.727
 4195SOL    HW213146   3.204   1.646   9.822
 4196SOL     OW13147   3.141   0.927   9.983
 4196SOL    HW113148   3.213   0.864   9.987
 4196SOL    HW213149   3.174   0.999   9.930
 4197SOL     OW13150   2.681   1.273  10.738
 4197SOL    HW113151   2.651   1.307  10.822
 4197SOL    HW213152   2.611   1.294  10.677
 4198SOL     OW13153   2.533   1.619   9.466
 4198SOL    HW113154   2.544   1.630   9.371
 4198SOL    HW213155   2.479   1.540   9.474
 4199SOL     OW13156   3.487   1.720  10.698
 4199SOL    HW113157   3.540   1.734  10.620
 4199SOL    HW213158   3.471   1.808  10.733
 4200SOL     OW13159   3.701   0.155  10.277
 4200SOL    HW113160   3.732   0.078  10.229
 4200SOL    HW213161   3.614   0.173  10.240
 4201SOL     OW13162   2.127   0.324  10.028
 4201SOL    HW113163   2.042   0.357  10.001
 4201SOL    HW213164   2.120   0.314  10.123
 4202SOL     OW13165   3.069   1.607   9.341
 4202SOL    HW113166   3.060   1.516   9.369
 4202SOL    HW213167   3.003   1.618   9.272
 4203SOL     OW13168   2.687   1.005  10.686
 4203SOL    HW113169   2.729   0.998  10.600
 4203SOL    HW213170   2.688   1.099  10.705
 4204SOL     OW13171   2.778   0.911   9.600
 4204SOL    HW113172   2.840   0.942   9.534
 4204SOL    HW213173   2.824   0.840   9.645
 4205SOL     OW13174   3.355   1.625   9.352
 4205SOL    HW113175   3.260   1.619   9.340
 4205SOL    HW213176   3.391   1.631   9.264
 4206SOL     OW13177   2.229   1.305  10.806
 4206SOL    HW113178   2.217   1.379  10.747
 4206SOL    HW213179   2.156   1.247  10.786
 4207SOL     OW13180   3.475   1.282  10.593
 4207SOL    HW113181   3.531   1.270  10.670
 4207SOL    HW213182   3.418   1.355  10.616
 4208SOL     OW13183   2.912   1.106  10.016
 4208SOL    HW113184   2.841   1.055  10.055
 4208SOL    HW213185   2.974   1.041   9.983
 4209SOL     OW13186   2.869   0.243  10.312
 4209SOL    HW113187   2.875   0.218  10.219
 4209SOL    HW213188   2.861   0.160  10.359
 4210SOL     OW13189   2.465   1.490   9.792
 4210SOL    HW113190   2.507   1.438   9.723
 4210SOL    HW213191   2.395   1.537   9.746
 4211SOL     OW13192   3.580   0.394  10.689
 4211SOL    HW113193   3.653   0.457  10.690
 4211SOL    HW213194   3.610   0.324  10.630
 4212SOL     OW13195   2.121   1.346   9.598
 4212SOL    HW113196   2.028   1.344   9.576
 4212SOL    HW213197   2.123   1.382   9.687
 4213SOL     OW13198   1.977   1.010  11.019
 4213SOL    HW113199   1.906   0.998  11.083
 4213SOL    HW213200   2.056   0.981  11.064
 4214SOL     OW13201   2.515   0.187  10.808
 4214SOL    HW113202   2.593   0.166  10.757
 4214SOL    HW213203   2.549   0.223  10.891
 4215SOL     OW13204   1.943   0.341   9.357
 4215SOL    HW113205   1.872   0.288   9.321
 4215SOL    HW213206   1.958   0.410   9.292
 4216SOL     OW13207   3.292   0.849  10.710
 4216SOL    HW113208   3.244   0.917  10.662
 4216SOL    HW213209   3.382   0.858  10.679
 4217SOL     OW13210   1.927   0.182   9.631
 4217SOL    HW113211   1.925   0.248   9.562
 4217SOL    HW213212   2.002   0.126   9.608
 4218SOL     OW13213   3.041   1.341   9.427
 4218SOL    HW113214   2.951   1.310   9.429
 4218SOL    HW213215   3.070   1.340   9.518
 4219SOL     OW13216   2.482   0.830  10.744
 4219SOL    HW113217   2.537   0.906  10.728
 4219SOL    HW213218   2.543   0.757  10.751
 4220SOL     OW13219   3.346   1.776  10.287
 4220SOL    HW113220   3.371   1.833  10.215
 4220SOL    HW213221   3.428   1.757  10.333
 4221SOL     OW13222   2.576   0.565  11.017
 4221SOL    HW113223   2.611   0.637  11.069
 4221SOL    HW213224   2.628   0.489  11.044
 4222SOL     OW13225   2.248   1.734  10.875
 4222SOL    HW113226   2.167   1.783  10.863
 4222SOL    HW213227   2.224   1.660  10.930
 4223SOL     OW13228   3.533   0.882  10.567
 4223SOL    HW113229   3.524   0.797  10.524
 4223SOL    HW213230   3.524   0.946  10.496
 4224SOL     OW13231   3.080   0.329   9.758
 4224SOL    HW113232   3.145   0.260   9.747
 4224SOL    HW213233   3.107   0.376   9.837
 4225SOL     OW13234   2.450   0.739   9.980
 4225SOL    HW113235   2.491   0.824   9.963
 4225SOL    HW213236   2.382   0.732   9.913
 4226SOL     OW13237   3.615   0.314  10.950
 4226SOL    HW113238   3.596   0.354  10.865
 4226SOL    HW213239   3.537   0.332  11.002
 4227SOL     OW13240   3.611   0.935  10.825
 4227SOL    HW113241   3.604   1.030  10.839
 4227SOL    HW213242   3.593   0.923  10.732
 4228SOL     OW13243   2.724   1.368   9.342
 4228SOL    HW113244   2.686   1.394   9.425
 4228SOL    HW213245   2.743   1.450   9.297
 4229SOL     OW13246   2.516   1.804  10.246
 4229SOL    HW113247   2.504   1.881  10.302
 4229SOL    HW213248   2.610   1.788  10.247
 4230SOL     OW13249   2.728   0.966  10.166
 4230SOL    HW113250   2.778   0.894  10.204
 4230SOL    HW213251   2.695   1.015  10.241
 4231SOL     OW13252   2.942   0.989   9.399
 4231SOL    HW113253   2.920   1.038   9.320
 4231SOL    HW213254   3.017   0.935   9.373
 4232SOL     OW13255   3.717   1.556  10.155
 4232SOL    HW113256   3.640   1.544  10.100
 4232SOL    HW213257   3.711   1.487  10.221
 4233SOL     OW13258   1.946   1.234   9.974
 4233SOL    HW113259   1.947   1.186  10.056
 4233SOL    HW213260   2.014   1.194   9.921
 4234SOL     OW13261   2.541   1.395  10.938
 4234SOL    HW113262   2.468   1.344  10.973
 4234SOL    HW213263   2.508   1.485  10.934
 4235SOL     OW13264   3.666   0.180  10.550
 4235SOL    HW113265   3.677   0.087  10.569
 4235SOL    HW213266   3.684   0.188  10.456
 4236SOL     OW13267   2.298   0.433   9.839
 4236SOL    HW113268   2.320   0.364   9.777
 4236SOL    HW213269   2.242   0.390   9.904
 4237SOL     OW13270   3.563   1.491  10.409
 4237SOL    HW113271   3.482   1.465  10.364
 4237SOL    HW213272   3.578   1.422  10.473
 4238SOL     OW13273   2.190   0.557  10.601
 4238SOL    HW113274   2.243   0.500  10.656
 4238SOL    HW213275   2.209   0.529  10.511
 4239SOL     OW13276   2.688   1.578   9.989
 4239SOL    HW113277   2.679   1.627   9.907
 4239SOL    HW213278   2.611   1.521   9.992
 4240SOL     OW13279   3.293   0.215  10.429
 4240SOL    HW113280   3.333   0.147  10.483
 4240SOL    HW213281   3.244   0.269  10.490
 4241SOL     OW13282   2.858   0.010  10.459
 4241SOL    HW113283   2.814   4.426  10.449
 4241SOL    HW213284   2.950   4.488  10.472
 4242SOL     OW13285   2.633   1.332   9.623
 4242SOL    HW113286   2.601   1.243   9.628
 4242SOL    HW213287   2.716   1.331   9.671
 4243SOL     OW13288   2.482   1.557  10.595
 4243SOL    HW113289   2.483   1.639  10.643
 4243SOL    HW213290   2.570   1.550  10.557
 4244SOL     OW13291   3.203   0.053   9.463
 4244SOL    HW113292   3.242   4.478   9.419
 4244SOL    HW213293   3.128   0.017   9.509
 4245SOL     OW13294   3.177   0.463   9.988
 4245SOL    HW113295   3.115   0.537   9.989
 4245SOL    HW213296   3.164   0.421  10.074
 4246SOL     OW13297   3.447   0.201  10.177
 4246SOL    HW113298   3.387   0.215  10.250
 4246SOL    HW213299   3.450   0.285  10.131
 4247SOL     OW13300   1.906   1.072   9.615
 4247SOL    HW113301   2.000   1.063   9.598
 4247SOL    HW213302   1.877   0.984   9.638
 4248SOL     OW13303   2.745   1.651   9.653
 4248SOL    HW113304   2.673   1.633   9.593
 4248SOL    HW213305   2.715   1.726   9.704
 4249SOL     OW13306   2.068   2.523   0.106
 4249SOL    HW113307   1.991   2.487   0.150
 4249SOL    HW213308   2.108   2.447   0.063
 4250SOL     OW13309   1.863   2.248   0.629
 4250SOL    HW113310   1.783   2.268   0.679
 4250SOL    HW213311   1.846   2.163   0.589
 4251SOL     OW13312   2.428   3.147   1.174
 4251SOL    HW113313   2.341   3.150   1.135
 4251SOL    HW213314   2.443   3.235   1.207
 4252SOL     OW13315   3.421   3.373   0.706
 4252SOL    HW113316   3.378   3.354   0.789
 4252SOL    HW213317   3.350   3.377   0.642
 4253SOL     OW13318   2.991   2.560   0.702
 4253SOL    HW113319   3.041   2.641   0.688
 4253SOL    HW213320   2.946   2.574   0.785
 4254SOL     OW13321   3.636   2.465   0.219
 4254SOL    HW113322   3.585   2.466   0.138
 4254SOL    HW213323   3.597   2.394   0.271
 4255SOL     OW13324   2.619   3.005   1.039
 4255SOL    HW113325   2.549   3.039   1.095
 4255SOL    HW213326   2.653   3.082   0.994
 4256SOL     OW13327   2.724   2.641   1.821
 4256SOL    HW113328   2.716   2.712   1.884
 4256SOL    HW213329   2.750   2.683   1.739
 4257SOL     OW13330   2.550   2.869   0.647
 4257SOL    HW113331   2.613   2.854   0.717
 4257SOL    HW213332   2.479   2.919   0.689
 4258SOL     OW13333   2.571   3.014   1.810
 4258SOL    HW113334   2.619   3.092   1.836
 4258SOL    HW213335   2.488   3.046   1.776
 4259SOL     OW13336   2.193   3.289   1.068
 4259SOL    HW113337   2.120   3.252   1.017
 4259SOL    HW213338   2.243   3.339   1.004
 4260SOL     OW13339   3.323   3.360   1.352
 4260SOL    HW113340   3.371   3.443   1.362
 4260SOL    HW213341   3.264   3.357   1.428
 4261SOL     OW13342   3.475   2.311   0.740
 4261SOL    HW113343   3.398   2.335   0.688
 4261SOL    HW213344   3.493   2.388   0.794
 4262SOL     OW13345   2.081   3.575   0.475
 4262SOL    HW113346   2.103   3.653   0.526
 4262SOL    HW213347   2.149   3.569   0.408
 4263SOL     OW13348   2.998   3.203   1.692
 4263SOL    HW113349   3.038   3.199   1.779
 4263SOL    HW213350   2.946   3.124   1.686
 4264SOL     OW13351   2.091   3.302   0.534
 4264SOL    HW113352   2.075   3.397   0.537
 4264SOL    HW213353   2.028   3.266   0.597
 4265SOL     OW13354   2.118   2.955   0.891
 4265SOL    HW113355   2.113   2.868   0.930
 4265SOL    HW213356   2.059   3.008   0.943
 4266SOL     OW13357   2.476   3.653   1.431
 4266SOL    HW113358   2.393   3.635   1.476
 4266SOL    HW213359   2.498   3.743   1.455
 4267SOL     OW13360   2.449   2.846   0.139
 4267SOL    HW113361   2.486   2.906   0.074
 4267SOL    HW213362   2.490   2.871   0.222
 4268SOL     OW13363   3.458   1.984   1.469
 4268SOL    HW113364   3.460   2.064   1.417
 4268SOL    HW213365   3.445   2.014   1.559
 4269SOL     OW13366   1.983   2.506   0.562
 4269SOL    HW113367   1.946   2.420   0.582
 4269SOL    HW213368   1.969   2.557   0.641
 4270SOL     OW13369   3.704   3.622   0.335
 4270SOL    HW113370   3.766   3.592   0.401
 4270SOL    HW213371   3.731   3.712   0.316
 4271SOL     OW13372   1.906   3.464   0.120
 4271SOL    HW113373   1.879   3.375   0.143
 4271SOL    HW213374   1.879   3.518   0.194
 4272SOL     OW13375   3.550   2.779   0.639
 4272SOL    HW113376   3.636   2.741   0.622
 4272SOL    HW213377   3.530   2.831   0.562
 4273SOL     OW13378   3.508   2.968   0.432
 4273SOL    HW113379   3.590   2.980   0.384
 4273SOL    HW213380   3.513   3.030   0.505
 4274SOL     OW13381   1.983   2.598   1.583
 4274SOL    HW113382   2.072   2.617   1.613
 4274SOL    HW213383   1.935   2.680   1.597
 4275SOL     OW13384   2.475   3.247   0.735
 4275SOL    HW113385   2.429   3.163   0.744
 4275SOL    HW213386   2.458   3.273   0.645
 4276SOL     OW13387   3.152   3.101   1.424
 4276SOL    HW113388   3.184   3.033   1.364
 4276SOL    HW213389   3.208   3.093   1.501
 4277SOL     OW13390   2.674   1.863   0.504
 4277SOL    HW113391   2.715   1.948   0.490
 4277SOL    HW213392   2.581   1.882   0.515
 4278SOL     OW13393   2.053   2.831   1.270
 4278SOL    HW113394   2.136   2.787   1.252
 4278SOL    HW213395   1.987   2.776   1.227
 4279SOL     OW13396   3.381   2.862   0.202
 4279SOL    HW113397   3.317   2.800   0.237
 4279SOL    HW213398   3.430   2.892   0.278
 4280SOL     OW13399   3.047   3.667   1.621
 4280SOL    HW113400   3.060   3.725   1.546
 4280SOL    HW213401   3.063   3.579   1.586
 4281SOL     OW13402   3.328   3.282   0.952
 4281SOL    HW113403   3.260   3.296   1.018
 4281SOL    HW213404   3.316   3.191   0.925
 4282SOL     OW13405   3.521   3.599   0.579
 4282SOL    HW113406   3.501   3.571   0.490
 4282SOL    HW213407   3.496   3.524   0.634
 4283SOL     OW13408   2.464   2.585   0.270
 4283SOL    HW113409   2.465   2.661   0.212
 4283SOL    HW213410   2.391   2.602   0.330
 4284SOL     OW13411   3.142   2.212   0.932
 4284SOL    HW113412   3.052   2.179   0.941
 4284SOL    HW213413   3.192   2.159   0.994
 4285SOL     OW13414   3.444   3.531   0.312
 4285SOL    HW113415   3.534   3.563   0.305
 4285SOL    HW213416   3.419   3.513   0.221
 4286SOL     OW13417   2.654   2.483   1.452
 4286SOL    HW113418   2.630   2.456   1.541
 4286SOL    HW213419   2.621   2.413   1.396
 4287SOL     OW13420   3.256   2.336   1.678
 4287SOL    HW113421   3.257   2.380   1.763
 4287SOL    HW213422   3.318   2.263   1.688
 4288SOL     OW13423   2.818   2.750   1.581
 4288SOL    HW113424   2.873   2.679   1.546
 4288SOL    HW213425   2.770   2.783   1.505
 4289SOL     OW13426   2.857   2.273   1.239
 4289SOL    HW113427   2.771   2.296   1.273
 4289SOL    HW213428   2.838   2.227   1.157
 4290SOL     OW13429   2.912   2.563   0.427
 4290SOL    HW113430   2.927   2.557   0.521
 4290SOL    HW213431   2.829   2.517   0.413
 4291SOL     OW13432   1.951   2.682   0.773
 4291SOL    HW113433   2.033   2.678   0.822
 4291SOL    HW213434   1.905   2.759   0.808
 4292SOL     OW13435   1.990   3.706   1.577
 4292SOL    HW113436   1.989   3.686   1.670
 4292SOL    HW213437   1.898   3.702   1.550
 4293SOL     OW13438   2.747   2.216   0.206
 4293SOL    HW113439   2.796   2.272   0.146
 4293SOL    HW213440   2.764   2.127   0.175
 4294SOL     OW13441   3.572   2.438   1.828
 4294SOL    HW113442   3.534   2.512   1.781
 4294SOL    HW213443   3.598   2.377   1.758
 4295SOL     OW13444   3.238   3.003   0.542
 4295SOL    HW113445   3.316   2.990   0.488
 4295SOL    HW213446   3.186   3.066   0.492
 4296SOL     OW13447   2.869   3.307   0.474
 4296SOL    HW113448   2.829   3.379   0.425
 4296SOL    HW213449   2.852   3.329   0.566
 4297SOL     OW13450   2.216   3.670   0.861
 4297SOL    HW113451   2.259   3.585   0.868
 4297SOL    HW213452   2.286   3.733   0.877
 4298SOL     OW13453   3.660   2.921   0.868
 4298SOL    HW113454   3.604   2.905   0.792
 4298SOL    HW213455   3.599   2.926   0.942
 4299SOL     OW13456   3.090   3.401   1.513
 4299SOL    HW113457   3.076   3.328   1.573
 4299SOL    HW213458   3.028   3.385   1.441
 4300SOL     OW13459   2.176   2.815   0.272
 4300SOL    HW113460   2.254   2.840   0.222
 4300SOL    HW213461   2.145   2.736   0.229
 4301SOL     OW13462   3.340   2.600   0.726
 4301SOL    HW113463   3.329   2.558   0.812
 4301SOL    HW213464   3.415   2.657   0.736
 4302SOL     OW13465   2.327   3.126   1.737
 4302SOL    HW113466   2.299   3.131   1.646
 4302SOL    HW213467   2.245   3.124   1.787
 4303SOL     OW13468   2.969   3.641   0.227
 4303SOL    HW113469   2.911   3.589   0.282
 4303SOL    HW213470   3.010   3.577   0.168
 4304SOL     OW13471   1.974   2.104   1.503
 4304SOL    HW113472   1.970   2.199   1.491
 4304SOL    HW213473   2.061   2.088   1.539
 4305SOL     OW13474   3.490   3.236   0.089
 4305SOL    HW113475   3.448   3.322   0.077
 4305SOL    HW213476   3.424   3.173   0.061
 4306SOL     OW13477   2.331   3.596   0.326
 4306SOL    HW113478   2.368   3.657   0.389
 4306SOL    HW213479   2.404   3.573   0.269
 4307SOL     OW13480   3.264   1.970   0.430
 4307SOL    HW113481   3.255   1.947   0.338
 4307SOL    HW213482   3.358   1.976   0.445
 4308SOL     OW13483   2.117   3.654   1.232
 4308SOL    HW113484   2.169   3.588   1.279
 4308SOL    HW213485   2.106   3.618   1.144
 4309SOL     OW13486   2.800   3.560   0.900
 4309SOL    HW113487   2.877   3.508   0.920
 4309SOL    HW213488   2.755   3.511   0.831
 4310SOL     OW13489   2.251   2.557   0.471
 4310SOL    HW113490   2.270   2.467   0.446
 4310SOL    HW213491   2.159   2.556   0.498
 4311SOL     OW13492   3.399   2.087   1.725
 4311SOL    HW113493   3.407   2.108   1.818
 4311SOL    HW213494   3.330   2.021   1.722
 4312SOL     OW13495   2.465   1.974   0.119
 4312SOL    HW113496   2.554   1.948   0.141
 4312SOL    HW213497   2.452   1.944   0.029
 4313SOL     OW13498   2.629   2.141   1.755
 4313SOL    HW113499   2.703   2.081   1.756
 4313SOL    HW213500   2.577   2.118   1.832
 4314SOL     OW13501   2.738   3.383   1.194
 4314SOL    HW113502   2.723   3.347   1.106
 4314SOL    HW213503   2.808   3.329   1.230
 4315SOL     OW13504   3.203   2.451   1.432
 4315SOL    HW113505   3.234   2.419   1.517
 4315SOL    HW213506   3.239   2.539   1.425
 4316SOL     OW13507   2.676   3.258   0.938
 4316SOL    HW113508   2.760   3.247   0.893
 4316SOL    HW213509   2.611   3.258   0.867
 4317SOL     OW13510   2.786   2.369   0.903
 4317SOL    HW113511   2.763   2.361   0.810
 4317SOL    HW213512   2.821   2.283   0.927
 4318SOL     OW13513   2.407   1.931   0.502
 4318SOL    HW113514   2.328   1.923   0.554
 4318SOL    HW213515   2.399   2.017   0.460
 4319SOL     OW13516   3.288   3.058   0.030
 4319SOL    HW113517   3.320   2.986   0.084
 4319SOL    HW213518   3.205   3.083   0.071
 4320SOL     OW13519   2.156   1.911   0.190
 4320SOL    HW113520   2.219   1.958   0.136
 4320SOL    HW213521   2.205   1.836   0.225
 4321SOL     OW13522   2.800   2.107   0.461
 4321SOL    HW113523   2.774   2.154   0.382
 4321SOL    HW213524   2.894   2.120   0.467
 4322SOL     OW13525   2.942   2.542   1.459
 4322SOL    HW113526   2.873   2.476   1.465
 4322SOL    HW213527   3.023   2.492   1.452
 4323SOL     OW13528   3.086   3.432   0.794
 4323SOL    HW113529   3.103   3.498   0.728
 4323SOL    HW213530   3.154   3.444   0.860
 4324SOL     OW13531   2.332   3.011   0.737
 4324SOL    HW113532   2.261   2.993   0.799
 4324SOL    HW213533   2.293   2.996   0.651
 4325SOL     OW13534   3.132   3.657   0.605
 4325SOL    HW113535   3.178   3.718   0.548
 4325SOL    HW213536   3.068   3.711   0.651
 4326SOL     OW13537   2.874   2.400   0.037
 4326SOL    HW113538   2.843   2.488   0.016
 4326SOL    HW213539   2.954   2.415   0.088
 4327SOL     OW13540   1.945   2.415   1.390
 4327SOL    HW113541   2.040   2.410   1.387
 4327SOL    HW213542   1.925   2.480   1.457
 4328SOL     OW13543   2.461   2.047   1.147
 4328SOL    HW113544   2.471   1.983   1.217
 4328SOL    HW213545   2.377   2.089   1.164
 4329SOL     OW13546   2.725   2.318   0.640
 4329SOL    HW113547   2.687   2.378   0.576
 4329SOL    HW213548   2.749   2.240   0.589
 4330SOL     OW13549   2.876   1.914   0.753
 4330SOL    HW113550   2.818   1.905   0.677
 4330SOL    HW213551   2.855   1.839   0.809
 4331SOL     OW13552   3.298   3.025   0.857
 4331SOL    HW113553   3.230   2.958   0.856
 4331SOL    HW213554   3.322   3.037   0.766
 4332SOL     OW13555   3.329   2.466   0.979
 4332SOL    HW113556   3.280   2.384   0.983
 4332SOL    HW213557   3.389   2.461   1.053
 4333SOL     OW13558   3.712   2.677   0.378
 4333SOL    HW113559   3.764   2.626   0.440
 4333SOL    HW213560   3.683   2.613   0.313
 4334SOL     OW13561   2.356   3.285   0.172
 4334SOL    HW113562   2.279   3.260   0.223
 4334SOL    HW213563   2.350   3.233   0.092
 4335SOL     OW13564   3.531   3.126   0.648
 4335SOL    HW113565   3.626   3.131   0.661
 4335SOL    HW213566   3.500   3.215   0.668
 4336SOL     OW13567   3.253   2.439   0.080
 4336SOL    HW113568   3.193   2.417   0.151
 4336SOL    HW213569   3.321   2.373   0.085
 4337SOL     OW13570   3.615   3.100   1.575
 4337SOL    HW113571   3.702   3.060   1.572
 4337SOL    HW213572   3.630   3.190   1.604
 4338SOL     OW13573   2.922   3.216   1.335
 4338SOL    HW113574   2.847   3.185   1.386
 4338SOL    HW213575   2.998   3.174   1.375
 4339SOL     OW13576   3.469   3.487   1.653
 4339SOL    HW113577   3.464   3.521   1.563
 4339SOL    HW213578   3.552   3.440   1.656
 4340SOL     OW13579   2.990   3.065   1.106
 4340SOL    HW113580   2.930   3.102   1.171
 4340SOL    HW213581   2.956   3.096   1.022
 4341SOL     OW13582   3.491   2.961   1.078
 4341SOL    HW113583   3.487   3.023   1.151
 4341SOL    HW213584   3.411   2.977   1.028
 4342SOL     OW13585   2.785   1.957   1.398
 4342SOL    HW113586   2.806   1.940   1.306
 4342SOL    HW213587   2.864   1.997   1.434
 4343SOL     OW13588   2.846   2.976   1.722
 4343SOL    HW113589   2.754   2.992   1.742
 4343SOL    HW213590   2.846   2.899   1.666
 4344SOL     OW13591   2.572   2.922   0.372
 4344SOL    HW113592   2.557   2.907   0.466
 4344SOL    HW213593   2.647   2.867   0.351
 4345SOL     OW13594   2.280   2.673   1.251
 4345SOL    HW113595   2.351   2.692   1.313
 4345SOL    HW213596   2.251   2.585   1.273
 4346SOL     OW13597   3.129   2.240   1.274
 4346SOL    HW113598   3.161   2.317   1.320
 4346SOL    HW213599   3.039   2.262   1.250
 4347SOL     OW13600   1.931   3.435   1.352
 4347SOL    HW113601   1.899   3.507   1.297
 4347SOL    HW213602   2.026   3.440   1.346
 4348SOL     OW13603   2.215   2.974   0.495
 4348SOL    HW113604   2.213   3.048   0.434
 4348SOL    HW213605   2.207   2.897   0.440
 4349SOL     OW13606   3.109   3.208   0.394
 4349SOL    HW113607   3.165   3.281   0.421
 4349SOL    HW213608   3.022   3.231   0.426
 4350SOL     OW13609   3.141   3.319   1.146
 4350SOL    HW113610   3.196   3.321   1.224
 4350SOL    HW213611   3.086   3.241   1.158
 4351SOL     OW13612   3.446   2.489   0.476
 4351SOL    HW113613   3.398   2.536   0.544
 4351SOL    HW213614   3.485   2.558   0.421
 4352SOL     OW13615   2.209   3.388   1.316
 4352SOL    HW113616   2.196   3.346   1.231
 4352SOL    HW213617   2.304   3.400   1.323
 4353SOL     OW13618   2.277   2.622   1.599
 4353SOL    HW113619   2.339   2.665   1.541
 4353SOL    HW213620   2.324   2.545   1.631
 4354SOL     OW13621   3.462   2.640   1.681
 4354SOL    HW113622   3.375   2.681   1.673
 4354SOL    HW213623   3.514   2.682   1.612
 4355SOL     OW13624   2.857   1.983   1.754
 4355SOL    HW113625   2.912   2.056   1.725
 4355SOL    HW213626   2.906   1.904   1.729
 4356SOL     OW13627   2.364   1.895   1.748
 4356SOL    HW113628   2.324   1.840   1.681
 4356SOL    HW213629   2.305   1.970   1.756
 4357SOL     OW13630   2.439   2.737   1.026
 4357SOL    HW113631   2.478   2.824   1.025
 4357SOL    HW213632   2.388   2.735   1.107
 4358SOL     OW13633   3.221   2.721   1.031
 4358SOL    HW113634   3.138   2.712   0.985
 4358SOL    HW213635   3.260   2.634   1.027
 4359SOL     OW13636   3.065   2.387   0.271
 4359SOL    HW113637   3.074   2.311   0.327
 4359SOL    HW213638   3.024   2.453   0.326
 4360SOL     OW13639   1.910   3.172   1.277
 4360SOL    HW113640   1.942   3.119   1.350
 4360SOL    HW213641   1.915   3.262   1.309
 4361SOL     OW13642   2.595   2.505   1.067
 4361SOL    HW113643   2.647   2.472   0.994
 4361SOL    HW213644   2.549   2.581   1.031
 4362SOL     OW13645   3.596   2.822   1.851
 4362SOL    HW113646   3.549   2.762   1.793
 4362SOL    HW213647   3.536   2.834   1.925
 4363SOL     OW13648   2.162   1.917   0.633
 4363SOL    HW113649   2.122   2.000   0.661
 4363SOL    HW213650   2.170   1.866   0.714
 4364SOL     OW13651   3.477   2.236   0.367
 4364SOL    HW113652   3.505   2.171   0.432
 4364SOL    HW213653   3.454   2.313   0.418
 4365SOL     OW13654   2.891   2.620   0.961
 4365SOL    HW113655   2.888   2.640   1.055
 4365SOL    HW213656   2.858   2.530   0.955
 4366SOL     OW13657   2.844   3.428   1.716
 4366SOL    HW113658   2.829   3.472   1.632
 4366SOL    HW213659   2.887   3.346   1.692
 4367SOL     OW13660   3.717   3.370   1.606
 4367SOL    HW113661   3.735   3.395   1.515
 4367SOL    HW213662   3.799   3.389   1.652
 4368SOL     OW13663   2.217   2.784   1.811
 4368SOL    HW113664   2.301   2.798   1.855
 4368SOL    HW213665   2.238   2.727   1.737
 4369SOL     OW13666   3.399   2.149   0.117
 4369SOL    HW113667   3.338   2.077   0.133
 4369SOL    HW213668   3.430   2.174   0.204
 4370SOL     OW13669   3.150   2.686   0.032
 4370SOL    HW113670   3.194   2.602   0.044
 4370SOL    HW213671   3.187   2.721  11.051
 4371SOL     OW13672   2.927   3.197   0.853
 4371SOL    HW113673   2.930   3.124   0.791
 4371SOL    HW213674   2.989   3.261   0.818
 4372SOL     OW13675   2.173   2.678   0.944
 4372SOL    HW113676   2.265   2.700   0.935
 4372SOL    HW213677   2.172   2.597   0.995
 4373SOL     OW13678   2.996   2.240   1.680
 4373SOL    HW113679   2.949   2.294   1.744
 4373SOL    HW213680   3.084   2.277   1.677
 4374SOL     OW13681   3.024   2.066   1.470
 4374SOL    HW113682   3.013   2.129   1.541
 4374SOL    HW213683   3.062   2.118   1.399
 4375SOL     OW13684   1.869   3.190   0.196
 4375SOL    HW113685   1.783   3.201   0.157
 4375SOL    HW213686   1.870   3.099   0.225
 4376SOL     OW13687   1.952   3.650   0.938
 4376SOL    HW113688   1.922   3.571   0.894
 4376SOL    HW213689   2.042   3.662   0.906
 4377SOL     OW13690   2.360   3.435   0.906
 4377SOL    HW113691   2.429   3.497   0.930
 4377SOL    HW213692   2.404   3.371   0.850
 4378SOL     OW13693   2.848   2.659   1.227
 4378SOL    HW113694   2.898   2.631   1.304
 4378SOL    HW213695   2.763   2.616   1.238
 4379SOL     OW13696   1.902   2.424   1.117
 4379SOL    HW113697   1.948   2.352   1.074
 4379SOL    HW213698   1.921   2.412   1.210
 4380SOL     OW13699   3.238   2.802   1.659
 4380SOL    HW113700   3.259   2.896   1.658
 4380SOL    HW213701   3.236   2.777   1.567
 4381SOL     OW13702   2.676   2.434   0.366
 4381SOL    HW113703   2.684   2.362   0.303
 4381SOL    HW213704   2.602   2.486   0.334
 4382SOL     OW13705   3.504   2.463   1.188
 4382SOL    HW113706   3.494   2.404   1.262
 4382SOL    HW213707   3.591   2.443   1.153
 4383SOL     OW13708   2.108   3.414   1.729
 4383SOL    HW113709   2.083   3.478   1.796
 4383SOL    HW213710   2.107   3.330   1.775
 4384SOL     OW13711   2.575   2.315   1.255
 4384SOL    HW113712   2.531   2.240   1.215
 4384SOL    HW213713   2.574   2.383   1.187
 4385SOL     OW13714   2.791   3.541   1.467
 4385SOL    HW113715   2.765   3.508   1.381
 4385SOL    HW213716   2.788   3.636   1.458
 4386SOL     OW13717   2.010   3.002   1.473
 4386SOL    HW113718   2.011   2.949   1.553
 4386SOL    HW213719   2.026   2.940   1.402
 4387SOL     OW13720   3.190   2.910   1.224
 4387SOL    HW113721   3.213   2.847   1.156
 4387SOL    HW213722   3.118   2.961   1.185
 4388SOL     OW13723   3.170   2.714   0.310
 4388SOL    HW113724   3.092   2.684   0.357
 4388SOL    HW213725   3.147   2.701   0.217
 4389SOL     OW13726   3.633   3.607   1.150
 4389SOL    HW113727   3.692   3.633   1.079
 4389SOL    HW213728   3.608   3.517   1.128
 4390SOL     OW13729   3.103   3.595   1.115
 4390SOL    HW113730   3.185   3.615   1.069
 4390SOL    HW213731   3.108   3.501   1.133
 4391SOL     OW13732   1.945   3.128   1.013
 4391SOL    HW113733   1.932   3.140   1.107
 4391SOL    HW213734   1.871   3.075   0.985
 4392SOL     OW13735   2.539   3.527   1.727
 4392SOL    HW113736   2.486   3.606   1.723
 4392SOL    HW213737   2.603   3.537   1.656
 4393SOL     OW13738   2.780   1.955   0.111
 4393SOL    HW113739   2.829   1.918   0.037
 4393SOL    HW213740   2.817   1.911   0.187
 4394SOL     OW13741   3.580   2.006   0.511
 4394SOL    HW113742   3.653   1.993   0.451
 4394SOL    HW213743   3.565   1.921   0.551
 4395SOL     OW13744   3.251   3.430   0.484
 4395SOL    HW113745   3.313   3.461   0.418
 4395SOL    HW213746   3.205   3.509   0.512
 4396SOL     OW13747   1.998   3.658   1.843
 4396SOL    HW113748   1.947   3.593   1.892
 4396SOL    HW213749   2.045   3.707   1.910
 4397SOL     OW13750   3.139   2.786   0.671
 4397SOL    HW113751   3.213   2.725   0.676
 4397SOL    HW213752   3.173   2.860   0.619
 4398SOL     OW13753   2.679   3.135   1.431
 4398SOL    HW113754   2.651   3.174   1.514
 4398SOL    HW213755   2.608   3.157   1.369
 4399SOL     OW13756   2.536   3.482   0.167
 4399SOL    HW113757   2.547   3.491   0.072
 4399SOL    HW213758   2.479   3.406   0.177
 4400SOL     OW13759   3.491   3.588   1.392
 4400SOL    HW113760   3.540   3.596   1.309
 4400SOL    HW213761   3.478   3.679   1.420
 4401SOL     OW13762   3.702   2.035   0.968
 4401SOL    HW113763   3.731   1.948   0.939
 4401SOL    HW213764   3.616   2.045   0.927
 4402SOL     OW13765   3.085   3.465   0.051
 4402SOL    HW113766   3.071   3.372   0.072
 4402SOL    HW213767   3.018   3.484  11.085
 4403SOL     OW13768   2.685   2.869   1.372
 4403SOL    HW113769   2.731   2.862   1.288
 4403SOL    HW213770   2.687   2.962   1.394
 4404SOL     OW13771   2.776   2.769   0.282
 4404SOL    HW113772   2.843   2.808   0.225
 4404SOL    HW213773   2.824   2.704   0.333
 4405SOL     OW13774   3.361   3.484   0.046
 4405SOL    HW113775   3.266   3.480   0.043
 4405SOL    HW213776   3.388   3.498  11.055
 4406SOL     OW13777   2.232   3.164   1.491
 4406SOL    HW113778   2.218   3.241   1.437
 4406SOL    HW213779   2.155   3.109   1.476
 4407SOL     OW13780   3.473   3.145   1.281
 4407SOL    HW113781   3.532   3.135   1.356
 4407SOL    HW213782   3.413   3.214   1.307
 4408SOL     OW13783   2.912   2.968   0.705
 4408SOL    HW113784   2.842   2.917   0.745
 4408SOL    HW213785   2.974   2.903   0.674
 4409SOL     OW13786   2.883   2.102   0.966
 4409SOL    HW113787   2.879   2.053   0.883
 4409SOL    HW213788   2.877   2.034   1.033
 4410SOL     OW13789   2.464   3.353   0.482
 4410SOL    HW113790   2.503   3.301   0.412
 4410SOL    HW213791   2.395   3.403   0.439
 4411SOL     OW13792   3.582   2.254   1.380
 4411SOL    HW113793   3.654   2.317   1.379
 4411SOL    HW213794   3.612   2.182   1.324
 4412SOL     OW13795   2.127   3.200   0.291
 4412SOL    HW113796   2.039   3.202   0.253
 4412SOL    HW213797   2.118   3.240   0.377
 4413SOL     OW13798   1.974   2.881   1.719
 4413SOL    HW113799   1.897   2.859   1.772
 4413SOL    HW213800   2.048   2.845   1.768
 4414SOL     OW13801   2.544   2.045   1.497
 4414SOL    HW113802   2.630   2.028   1.460
 4414SOL    HW213803   2.562   2.085   1.582
 4415SOL     OW13804   1.926   2.210   0.070
 4415SOL    HW113805   1.862   2.187   0.003
 4415SOL    HW213806   1.998   2.250   0.020
 4416SOL     OW13807   3.293   2.721   1.401
 4416SOL    HW113808   3.244   2.781   1.345
 4416SOL    HW213809   3.382   2.723   1.367
 4417SOL     OW13810   1.935   2.021   0.310
 4417SOL    HW113811   1.914   2.096   0.255
 4417SOL    HW213812   2.014   1.984   0.272
 4418SOL     OW13813   3.044   3.203   0.122
 4418SOL    HW113814   2.950   3.183   0.116
 4418SOL    HW213815   3.064   3.196   0.215
 4419SOL     OW13816   2.482   2.694   1.429
 4419SOL    HW113817   2.537   2.771   1.416
 4419SOL    HW213818   2.544   2.622   1.438
 4420SOL     OW13819   3.346   3.638   0.977
 4420SOL    HW113820   3.371   3.696   0.905
 4420SOL    HW213821   3.428   3.620   1.023
 4421SOL     OW13822   2.580   2.426   1.704
 4421SOL    HW113823   2.618   2.490   1.764
 4421SOL    HW213824   2.609   2.341   1.737
 4422SOL     OW13825   3.332   3.064   1.633
 4422SOL    HW113826   3.320   3.077   1.727
 4422SOL    HW213827   3.426   3.077   1.618
 4423SOL     OW13828   2.243   3.601   1.564
 4423SOL    HW113829   2.157   3.642   1.550
 4423SOL    HW213830   2.223   3.518   1.606
 4424SOL     OW13831   3.532   2.743   1.256
 4424SOL    HW113832   3.525   2.658   1.213
 4424SOL    HW213833   3.523   2.807   1.184
 4425SOL     OW13834   3.078   2.179   0.460
 4425SOL    HW113835   3.143   2.110   0.449
 4425SOL    HW213836   3.107   2.229   0.536
 4426SOL     OW13837   2.457   2.604   0.656
 4426SOL    HW113838   2.493   2.692   0.645
 4426SOL    HW213839   2.384   2.601   0.594
 4427SOL     OW13840   3.626   2.222   1.649
 4427SOL    HW113841   3.608   2.237   1.556
 4427SOL    HW213842   3.554   2.166   1.679
 4428SOL     OW13843   3.606   2.796   1.512
 4428SOL    HW113844   3.606   2.890   1.525
 4428SOL    HW213845   3.591   2.784   1.419
 4429SOL     OW13846   2.762   3.219   0.064
 4429SOL    HW113847   2.692   3.220   0.130
 4429SOL    HW213848   2.752   3.302   0.018
 4430SOL     OW13849   2.522   3.655   0.947
 4430SOL    HW113850   2.501   3.745   0.922
 4430SOL    HW213851   2.617   3.649   0.938
 4431SOL     OW13852   2.729   2.828   0.856
 4431SOL    HW113853   2.778   2.756   0.896
 4431SOL    HW213854   2.696   2.878   0.930
 4432SOL     OW13855   2.942   2.852   0.086
 4432SOL    HW113856   2.918   2.888   0.000
 4432SOL    HW213857   3.018   2.796   0.068
 4433SOL     OW13858   3.717   3.418   0.845
 4433SOL    HW113859   3.641   3.406   0.789
 4433SOL    HW213860   3.710   3.349   0.911
 4434SOL     OW13861   2.086   3.166   1.856
 4434SOL    HW113862   2.019   3.105   1.826
 4434SOL    HW213863   2.067   3.179   1.949
 4435SOL     OW13864   1.945   3.097   0.665
 4435SOL    HW113865   1.948   3.047   0.746
 4435SOL    HW213866   2.014   3.060   0.611
 4436SOL     OW13867   2.542   3.264   1.626
 4436SOL    HW113868   2.462   3.220   1.657
 4436SOL    HW213869   2.537   3.352   1.664
 4437SOL     OW13870   3.675   2.047   1.238
 4437SOL    HW113871   3.685   1.953   1.253
 4437SOL    HW213872   3.685   2.057   1.144
 4438SOL     OW13873   3.562   3.353   1.099
 4438SOL    HW113874   3.482   3.328   1.053
 4438SOL    HW213875   3.576   3.283   1.163
 4439SOL     OW13876   2.688   3.440   0.679
 4439SOL    HW113877   2.677   3.488   0.597
 4439SOL    HW213878   2.611   3.383   0.683
 4440SOL     OW13879   3.294   2.086   1.118
 4440SOL    HW113880   3.321   2.008   1.165
 4440SOL    HW213881   3.242   2.136   1.181
 4441SOL     OW13882   2.871   1.882   1.143
 4441SOL    HW113883   2.817   1.812   1.105
 4441SOL    HW213884   2.960   1.844   1.146
 4442SOL     OW13885   2.630   3.190   0.314
 4442SOL    HW113886   2.600   3.100   0.327
 4442SOL    HW213887   2.714   3.194   0.359
 4443SOL     OW13888   2.482   3.419   1.285
 4443SOL    HW113889   2.485   3.501   1.335
 4443SOL    HW213890   2.569   3.412   1.246
 4444SOL     OW13891   3.213   1.916   0.164
 4444SOL    HW113892   3.236   1.865   0.086
 4444SOL    HW213893   3.126   1.884   0.189
 4445SOL     OW13894   3.158   2.322   0.682
 4445SOL    HW113895   3.106   2.402   0.690
 4445SOL    HW213896   3.155   2.282   0.768
 4446SOL     OW13897   3.449   2.065   0.877
 4446SOL    HW113898   3.387   2.085   0.947
 4446SOL    HW213899   3.448   2.144   0.822
 4447SOL     OW13900   1.904   2.933   0.302
 4447SOL    HW113901   1.999   2.926   0.294
 4447SOL    HW213902   1.876   2.845   0.327
 4448SOL     OW13903   2.746   3.514   0.347
 4448SOL    HW113904   2.674   3.494   0.287
 4448SOL    HW213905   2.714   3.589   0.398
 4449SOL     OW13906   2.078   2.530   1.986
 4449SOL    HW113907   1.993   2.500   2.017
 4449SOL    HW213908   2.100   2.468   1.916
 4450SOL     OW13909   2.003   2.141   2.937
 4450SOL    HW113910   2.063   2.077   2.976
 4450SOL    HW213911   1.939   2.087   2.889
 4451SOL     OW13912   1.856   2.245   2.492
 4451SOL    HW113913   1.776   2.268   2.539
 4451SOL    HW213914   1.839   2.159   2.455
 4452SOL     OW13915   2.428   3.147   3.035
 4452SOL    HW113916   2.340   3.151   2.997
 4452SOL    HW213917   2.443   3.235   3.069
 4453SOL     OW13918   3.421   3.374   2.568
 4453SOL    HW113919   3.378   3.354   2.651
 4453SOL    HW213920   3.350   3.378   2.505
 4454SOL     OW13921   2.992   2.560   2.562
 4454SOL    HW113922   3.041   2.642   2.551
 4454SOL    HW213923   2.946   2.572   2.645
 4455SOL     OW13924   3.629   2.468   2.091
 4455SOL    HW113925   3.608   2.459   1.998
 4455SOL    HW213926   3.592   2.389   2.131
 4456SOL     OW13927   2.618   3.005   2.900
 4456SOL    HW113928   2.549   3.039   2.957
 4456SOL    HW213929   2.653   3.082   2.856
 4457SOL     OW13930   2.725   2.641   3.683
 4457SOL    HW113931   2.715   2.711   3.747
 4457SOL    HW213932   2.750   2.685   3.602
 4458SOL     OW13933   2.548   2.866   2.510
 4458SOL    HW113934   2.613   2.854   2.579
 4458SOL    HW213935   2.480   2.919   2.551
 4459SOL     OW13936   2.571   3.013   3.672
 4459SOL    HW113937   2.619   3.092   3.698
 4459SOL    HW213938   2.487   3.046   3.638
 4460SOL     OW13939   2.193   3.289   2.930
 4460SOL    HW113940   2.120   3.252   2.879
 4460SOL    HW213941   2.243   3.339   2.866
 4461SOL     OW13942   3.323   3.361   3.214
 4461SOL    HW113943   3.371   3.443   3.224
 4461SOL    HW213944   3.265   3.357   3.290
 4462SOL     OW13945   3.475   2.311   2.601
 4462SOL    HW113946   3.398   2.334   2.549
 4462SOL    HW213947   3.492   2.388   2.655
 4463SOL     OW13948   2.082   3.575   2.336
 4463SOL    HW113949   2.104   3.652   2.388
 4463SOL    HW213950   2.153   3.569   2.272
 4464SOL     OW13951   2.998   3.203   3.554
 4464SOL    HW113952   3.038   3.199   3.641
 4464SOL    HW213953   2.946   3.124   3.548
 4465SOL     OW13954   2.093   3.302   2.397
 4465SOL    HW113955   2.075   3.396   2.401
 4465SOL    HW213956   2.031   3.264   2.459
 4466SOL     OW13957   2.119   2.955   2.752
 4466SOL    HW113958   2.113   2.868   2.791
 4466SOL    HW213959   2.059   3.009   2.805
 4467SOL     OW13960   2.476   3.653   3.293
 4467SOL    HW113961   2.393   3.635   3.338
 4467SOL    HW213962   2.498   3.742   3.317
 4468SOL     OW13963   2.451   2.841   1.991
 4468SOL    HW113964   2.495   2.895   1.925
 4468SOL    HW213965   2.489   2.869   2.074
 4469SOL     OW13966   3.458   1.984   3.331
 4469SOL    HW113967   3.460   2.064   3.279
 4469SOL    HW213968   3.445   2.014   3.421
 4470SOL     OW13969   1.969   2.506   2.421
 4470SOL    HW113970   1.940   2.418   2.445
 4470SOL    HW213971   1.966   2.555   2.503
 4471SOL     OW13972   3.704   3.622   2.198
 4471SOL    HW113973   3.765   3.593   2.265
 4471SOL    HW213974   3.729   3.713   2.179
 4472SOL     OW13975   1.893   3.458   1.986
 4472SOL    HW113976   1.875   3.366   2.006
 4472SOL    HW213977   1.869   3.505   2.066
 4473SOL     OW13978   3.552   2.781   2.502
 4473SOL    HW113979   3.636   2.740   2.483
 4473SOL    HW213980   3.531   2.831   2.423
 4474SOL     OW13981   3.507   2.969   2.291
 4474SOL    HW113982   3.593   2.977   2.249
 4474SOL    HW213983   3.512   3.030   2.365
 4475SOL     OW13984   1.984   2.598   3.446
 4475SOL    HW113985   2.073   2.615   3.476
 4475SOL    HW213986   1.937   2.680   3.460
 4476SOL     OW13987   2.475   3.246   2.597
 4476SOL    HW113988   2.429   3.163   2.606
 4476SOL    HW213989   2.459   3.273   2.507
 4477SOL     OW13990   3.152   3.101   3.286
 4477SOL    HW113991   3.184   3.033   3.226
 4477SOL    HW213992   3.208   3.093   3.363
 4478SOL     OW13993   2.669   1.862   2.366
 4478SOL    HW113994   2.712   1.946   2.350
 4478SOL    HW213995   2.576   1.883   2.376
 4479SOL     OW13996   2.052   2.830   3.132
 4479SOL    HW113997   2.136   2.789   3.111
 4479SOL    HW213998   1.987   2.776   3.088
 4480SOL     OW13999   3.394   2.854   2.059
 4480SOL    HW114000   3.324   2.797   2.090
 4480SOL    HW214001   3.434   2.889   2.139
 4481SOL     OW14002   3.047   3.667   3.483
 4481SOL    HW114003   3.060   3.725   3.408
 4481SOL    HW214004   3.063   3.579   3.448
 4482SOL     OW14005   3.328   3.282   2.814
 4482SOL    HW114006   3.260   3.296   2.880
 4482SOL    HW214007   3.316   3.191   2.787
 4483SOL     OW14008   3.522   3.598   2.440
 4483SOL    HW114009   3.500   3.569   2.351
 4483SOL    HW214010   3.496   3.525   2.496
 4484SOL     OW14011   2.463   2.588   2.132
 4484SOL    HW114012   2.478   2.655   2.066
 4484SOL    HW214013   2.380   2.611   2.171
 4485SOL     OW14014   3.142   2.212   2.794
 4485SOL    HW114015   3.052   2.180   2.802
 4485SOL    HW214016   3.192   2.159   2.856
 4486SOL     OW14017   3.443   3.531   2.171
 4486SOL    HW114018   3.533   3.564   2.165
 4486SOL    HW214019   3.417   3.514   2.080
 4487SOL     OW14020   2.648   2.468   3.310
 4487SOL    HW114021   2.632   2.458   3.403
 4487SOL    HW214022   2.599   2.397   3.269
 4488SOL     OW14023   3.256   2.336   3.540
 4488SOL    HW114024   3.257   2.380   3.625
 4488SOL    HW214025   3.317   2.263   3.549
 4489SOL     OW14026   2.817   2.749   3.443
 4489SOL    HW114027   2.873   2.679   3.407
 4489SOL    HW214028   2.771   2.784   3.367
 4490SOL     OW14029   2.861   2.271   3.100
 4490SOL    HW114030   2.781   2.310   3.134
 4490SOL    HW214031   2.835   2.231   3.017
 4491SOL     OW14032   2.911   2.560   2.289
 4491SOL    HW114033   2.928   2.553   2.383
 4491SOL    HW214034   2.829   2.513   2.275
 4492SOL     OW14035   1.951   2.683   2.636
 4492SOL    HW114036   2.032   2.678   2.686
 4492SOL    HW214037   1.905   2.760   2.671
 4493SOL     OW14038   1.990   3.705   3.438
 4493SOL    HW114039   1.989   3.685   3.532
 4493SOL    HW214040   1.897   3.703   3.413
 4494SOL     OW14041   2.754   2.211   2.059
 4494SOL    HW114042   2.796   2.270   1.996
 4494SOL    HW214043   2.757   2.125   2.017
 4495SOL     OW14044   3.572   2.438   3.690
 4495SOL    HW114045   3.534   2.512   3.643
 4495SOL    HW214046   3.598   2.377   3.621
 4496SOL     OW14047   3.238   3.004   2.404
 4496SOL    HW114048   3.317   2.991   2.351
 4496SOL    HW214049   3.186   3.066   2.353
 4497SOL     OW14050   2.438   2.031   2.734
 4497SOL    HW114051   2.442   2.043   2.829
 4497SOL    HW214052   2.440   2.119   2.698
 4498SOL     OW14053   2.869   3.307   2.335
 4498SOL    HW114054   2.830   3.379   2.286
 4498SOL    HW214055   2.854   3.329   2.427
 4499SOL     OW14056   2.216   3.669   2.722
 4499SOL    HW114057   2.260   3.585   2.731
 4499SOL    HW214058   2.285   3.734   2.740
 4500SOL     OW14059   3.660   2.922   2.730
 4500SOL    HW114060   3.605   2.903   2.654
 4500SOL    HW214061   3.599   2.926   2.803
 4501SOL     OW14062   3.090   3.401   3.375
 4501SOL    HW114063   3.076   3.328   3.435
 4501SOL    HW214064   3.028   3.385   3.303
 4502SOL     OW14065   2.190   2.804   2.117
 4502SOL    HW114066   2.264   2.829   2.062
 4502SOL    HW214067   2.148   2.733   2.069
 4503SOL     OW14068   3.339   2.603   2.589
 4503SOL    HW114069   3.328   2.558   2.673
 4503SOL    HW214070   3.416   2.658   2.601
 4504SOL     OW14071   2.327   3.126   3.599
 4504SOL    HW114072   2.299   3.131   3.508
 4504SOL    HW214073   2.246   3.124   3.649
 4505SOL     OW14074   2.983   3.640   2.093
 4505SOL    HW114075   2.911   3.597   2.140
 4505SOL    HW214076   3.005   3.579   2.023
 4506SOL     OW14077   1.977   2.091   3.358
 4506SOL    HW114078   1.945   2.181   3.364
 4506SOL    HW214079   2.006   2.069   3.447
 4507SOL     OW14080   3.491   3.241   1.949
 4507SOL    HW114081   3.450   3.327   1.934
 4507SOL    HW214082   3.422   3.178   1.930
 4508SOL     OW14083   2.329   3.600   2.183
 4508SOL    HW114084   2.370   3.657   2.248
 4508SOL    HW214085   2.401   3.570   2.128
 4509SOL     OW14086   3.263   1.970   2.293
 4509SOL    HW114087   3.252   1.945   2.202
 4509SOL    HW214088   3.358   1.976   2.305
 4510SOL     OW14089   2.117   3.654   3.095
 4510SOL    HW114090   2.169   3.588   3.141
 4510SOL    HW214091   2.106   3.618   3.007
 4511SOL     OW14092   2.800   3.560   2.762
 4511SOL    HW114093   2.878   3.508   2.782
 4511SOL    HW214094   2.755   3.511   2.693
 4512SOL     OW14095   3.399   2.087   3.588
 4512SOL    HW114096   3.407   2.109   3.681
 4512SOL    HW214097   3.331   2.020   3.585
 4513SOL     OW14098   2.503   1.996   1.962
 4513SOL    HW114099   2.563   1.929   1.994
 4513SOL    HW214100   2.452   1.952   1.893
 4514SOL     OW14101   2.630   2.139   3.616
 4514SOL    HW114102   2.705   2.079   3.617
 4514SOL    HW214103   2.581   2.117   3.695
 4515SOL     OW14104   2.738   3.383   3.056
 4515SOL    HW114105   2.723   3.347   2.968
 4515SOL    HW214106   2.808   3.329   3.092
 4516SOL     OW14107   3.201   2.452   3.295
 4516SOL    HW114108   3.233   2.419   3.379
 4516SOL    HW214109   3.239   2.539   3.287
 4517SOL     OW14110   2.676   3.258   2.800
 4517SOL    HW114111   2.760   3.247   2.755
 4517SOL    HW214112   2.611   3.258   2.729
 4518SOL     OW14113   2.800   2.369   2.773
 4518SOL    HW114114   2.760   2.367   2.686
 4518SOL    HW214115   2.828   2.279   2.789
 4519SOL     OW14116   2.398   1.936   2.364
 4519SOL    HW114117   2.353   1.942   2.448
 4519SOL    HW214118   2.385   2.021   2.323
 4520SOL     OW14119   3.290   3.060   1.903
 4520SOL    HW114120   3.321   2.984   1.953
 4520SOL    HW214121   3.205   3.080   1.941
 4521SOL     OW14122   2.797   2.106   2.321
 4521SOL    HW114123   2.774   2.149   2.239
 4521SOL    HW214124   2.892   2.118   2.328
 4522SOL     OW14125   2.940   2.541   3.320
 4522SOL    HW114126   2.876   2.470   3.328
 4522SOL    HW214127   3.024   2.495   3.314
 4523SOL     OW14128   3.086   3.432   2.656
 4523SOL    HW114129   3.103   3.499   2.590
 4523SOL    HW214130   3.154   3.444   2.722
 4524SOL     OW14131   2.330   3.010   2.596
 4524SOL    HW114132   2.260   2.993   2.659
 4524SOL    HW214133   2.291   2.993   2.511
 4525SOL     OW14134   3.132   3.656   2.469
 4525SOL    HW114135   3.177   3.717   2.410
 4525SOL    HW214136   3.067   3.710   2.514
 4526SOL     OW14137   2.887   2.406   1.883
 4526SOL    HW114138   2.845   2.490   1.863
 4526SOL    HW214139   2.951   2.427   1.950
 4527SOL     OW14140   1.936   2.421   3.249
 4527SOL    HW114141   2.031   2.410   3.240
 4527SOL    HW214142   1.926   2.486   3.319
 4528SOL     OW14143   2.435   2.032   3.005
 4528SOL    HW114144   2.457   1.975   3.079
 4528SOL    HW214145   2.357   2.079   3.034
 4529SOL     OW14146   2.738   2.319   2.500
 4529SOL    HW114147   2.690   2.375   2.440
 4529SOL    HW214148   2.755   2.239   2.450
 4530SOL     OW14149   2.878   1.914   2.614
 4530SOL    HW114150   2.818   1.907   2.540
 4530SOL    HW214151   2.857   1.839   2.670
 4531SOL     OW14152   3.298   3.025   2.719
 4531SOL    HW114153   3.230   2.958   2.718
 4531SOL    HW214154   3.322   3.037   2.627
 4532SOL     OW14155   3.329   2.466   2.841
 4532SOL    HW114156   3.279   2.384   2.844
 4532SOL    HW214157   3.389   2.461   2.915
 4533SOL     OW14158   3.709   2.679   2.244
 4533SOL    HW114159   3.764   2.628   2.302
 4533SOL    HW214160   3.680   2.617   2.177
 4534SOL     OW14161   2.353   3.278   2.021
 4534SOL    HW114162   2.278   3.249   2.073
 4534SOL    HW214163   2.336   3.245   1.933
 4535SOL     OW14164   3.531   3.127   2.509
 4535SOL    HW114165   3.626   3.130   2.522
 4535SOL    HW214166   3.500   3.215   2.530
 4536SOL     OW14167   3.256   2.434   1.934
 4536SOL    HW114168   3.195   2.415   2.005
 4536SOL    HW214169   3.340   2.401   1.964
 4537SOL     OW14170   3.615   3.100   3.437
 4537SOL    HW114171   3.702   3.060   3.434
 4537SOL    HW214172   3.630   3.190   3.466
 4538SOL     OW14173   2.922   3.216   3.196
 4538SOL    HW114174   2.847   3.185   3.248
 4538SOL    HW214175   2.998   3.174   3.237
 4539SOL     OW14176   3.469   3.487   3.514
 4539SOL    HW114177   3.464   3.521   3.425
 4539SOL    HW214178   3.552   3.440   3.518
 4540SOL     OW14179   2.990   3.065   2.968
 4540SOL    HW114180   2.930   3.103   3.033
 4540SOL    HW214181   2.956   3.096   2.884
 4541SOL     OW14182   3.491   2.961   2.940
 4541SOL    HW114183   3.487   3.023   3.013
 4541SOL    HW214184   3.411   2.977   2.890
 4542SOL     OW14185   2.784   1.958   3.261
 4542SOL    HW114186   2.804   1.940   3.169
 4542SOL    HW214187   2.864   1.998   3.295
 4543SOL     OW14188   2.846   2.976   3.584
 4543SOL    HW114189   2.754   2.992   3.604
 4543SOL    HW214190   2.845   2.899   3.528
 4544SOL     OW14191   2.570   2.923   2.233
 4544SOL    HW114192   2.557   2.908   2.327
 4544SOL    HW214193   2.646   2.869   2.210
 4545SOL     OW14194   2.281   2.675   3.112
 4545SOL    HW114195   2.352   2.693   3.174
 4545SOL    HW214196   2.241   2.595   3.145
 4546SOL     OW14197   3.132   2.239   3.137
 4546SOL    HW114198   3.162   2.318   3.182
 4546SOL    HW214199   3.041   2.259   3.111
 4547SOL     OW14200   1.931   3.435   3.213
 4547SOL    HW114201   1.900   3.508   3.160
 4547SOL    HW214202   2.026   3.440   3.208
 4548SOL     OW14203   2.215   2.967   2.350
 4548SOL    HW114204   2.219   3.045   2.295
 4548SOL    HW214205   2.210   2.894   2.289
 4549SOL     OW14206   2.518   2.432   2.706
 4549SOL    HW114207   2.490   2.483   2.630
 4549SOL    HW214208   2.477   2.475   2.781
 4550SOL     OW14209   3.110   3.210   2.251
 4550SOL    HW114210   3.166   3.282   2.282
 4550SOL    HW214211   3.023   3.231   2.285
 4551SOL     OW14212   3.141   3.319   3.008
 4551SOL    HW114213   3.196   3.321   3.086
 4551SOL    HW214214   3.086   3.241   3.020
 4552SOL     OW14215   3.444   2.486   2.339
 4552SOL    HW114216   3.398   2.540   2.404
 4552SOL    HW214217   3.489   2.550   2.283
 4553SOL     OW14218   2.209   3.388   3.178
 4553SOL    HW114219   2.196   3.345   3.094
 4553SOL    HW214220   2.304   3.400   3.185
 4554SOL     OW14221   2.279   2.608   3.461
 4554SOL    HW114222   2.341   2.657   3.408
 4554SOL    HW214223   2.319   2.522   3.473
 4555SOL     OW14224   3.462   2.640   3.543
 4555SOL    HW114225   3.375   2.681   3.535
 4555SOL    HW214226   3.514   2.682   3.474
 4556SOL     OW14227   2.858   1.983   3.616
 4556SOL    HW114228   2.913   2.055   3.586
 4556SOL    HW214229   2.906   1.904   3.592
 4557SOL     OW14230   2.359   1.903   3.609
 4557SOL    HW114231   2.322   1.846   3.543
 4557SOL    HW214232   2.295   1.974   3.618
 4558SOL     OW14233   2.440   2.731   2.888
 4558SOL    HW114234   2.478   2.818   2.883
 4558SOL    HW214235   2.389   2.731   2.969
 4559SOL     OW14236   3.221   2.721   2.893
 4559SOL    HW114237   3.138   2.712   2.846
 4559SOL    HW214238   3.260   2.634   2.889
 4560SOL     OW14239   3.068   2.391   2.130
 4560SOL    HW114240   3.075   2.312   2.184
 4560SOL    HW214241   3.025   2.455   2.187
 4561SOL     OW14242   1.910   3.172   3.139
 4561SOL    HW114243   1.942   3.119   3.212
 4561SOL    HW214244   1.915   3.262   3.171
 4562SOL     OW14245   2.617   2.516   2.959
 4562SOL    HW114246   2.653   2.468   2.884
 4562SOL    HW214247   2.572   2.591   2.920
 4563SOL     OW14248   3.596   2.822   3.713
 4563SOL    HW114249   3.549   2.762   3.655
 4563SOL    HW214250   3.536   2.834   3.787
 4564SOL     OW14251   3.477   2.235   2.230
 4564SOL    HW114252   3.504   2.172   2.296
 4564SOL    HW214253   3.454   2.314   2.280
 4565SOL     OW14254   2.891   2.623   2.823
 4565SOL    HW114255   2.888   2.641   2.917
 4565SOL    HW214256   2.860   2.532   2.815
 4566SOL     OW14257   2.844   3.428   3.578
 4566SOL    HW114258   2.829   3.472   3.494
 4566SOL    HW214259   2.887   3.346   3.554
 4567SOL     OW14260   3.717   3.370   3.468
 4567SOL    HW114261   3.735   3.395   3.377
 4567SOL    HW214262   3.798   3.389   3.514
 4568SOL     OW14263   2.217   2.780   3.668
 4568SOL    HW114264   2.299   2.796   3.716
 4568SOL    HW214265   2.242   2.719   3.599
 4569SOL     OW14266   3.392   2.135   1.989
 4569SOL    HW114267   3.327   2.070   2.015
 4569SOL    HW214268   3.425   2.171   2.072
 4570SOL     OW14269   3.155   2.689   1.894
 4570SOL    HW114270   3.198   2.603   1.897
 4570SOL    HW214271   3.186   2.728   1.812
 4571SOL     OW14272   2.927   3.197   2.715
 4571SOL    HW114273   2.930   3.124   2.653
 4571SOL    HW214274   2.989   3.261   2.680
 4572SOL     OW14275   2.171   2.680   2.807
 4572SOL    HW114276   2.265   2.699   2.804
 4572SOL    HW214277   2.165   2.596   2.853
 4573SOL     OW14278   2.996   2.241   3.542
 4573SOL    HW114279   2.950   2.295   3.606
 4573SOL    HW214280   3.084   2.277   3.538
 4574SOL     OW14281   3.024   2.066   3.332
 4574SOL    HW114282   3.014   2.129   3.403
 4574SOL    HW214283   3.062   2.117   3.260
 4575SOL     OW14284   1.867   3.183   2.057
 4575SOL    HW114285   1.780   3.198   2.019
 4575SOL    HW214286   1.864   3.094   2.090
 4576SOL     OW14287   1.952   3.650   2.799
 4576SOL    HW114288   1.922   3.570   2.756
 4576SOL    HW214289   2.042   3.662   2.768
 4577SOL     OW14290   2.360   3.435   2.768
 4577SOL    HW114291   2.428   3.498   2.792
 4577SOL    HW214292   2.404   3.371   2.712
 4578SOL     OW14293   2.847   2.661   3.090
 4578SOL    HW114294   2.895   2.631   3.167
 4578SOL    HW214295   2.765   2.612   3.092
 4579SOL     OW14296   1.913   2.409   2.974
 4579SOL    HW114297   1.949   2.326   2.944
 4579SOL    HW214298   1.924   2.407   3.069
 4580SOL     OW14299   3.238   2.802   3.521
 4580SOL    HW114300   3.259   2.896   3.520
 4580SOL    HW214301   3.237   2.777   3.428
 4581SOL     OW14302   2.674   2.429   2.222
 4581SOL    HW114303   2.682   2.357   2.159
 4581SOL    HW214304   2.602   2.483   2.189
 4582SOL     OW14305   3.504   2.463   3.050
 4582SOL    HW114306   3.494   2.403   3.124
 4582SOL    HW214307   3.591   2.443   3.015
 4583SOL     OW14308   2.108   3.414   3.591
 4583SOL    HW114309   2.083   3.478   3.658
 4583SOL    HW214310   2.107   3.330   3.637
 4584SOL     OW14311   2.791   3.541   3.329
 4584SOL    HW114312   2.765   3.508   3.243
 4584SOL    HW214313   2.788   3.636   3.320
 4585SOL     OW14314   2.009   3.002   3.335
 4585SOL    HW114315   2.011   2.949   3.415
 4585SOL    HW214316   2.025   2.940   3.264
 4586SOL     OW14317   3.190   2.910   3.086
 4586SOL    HW114318   3.213   2.847   3.018
 4586SOL    HW214319   3.118   2.961   3.047
 4587SOL     OW14320   3.172   2.719   2.169
 4587SOL    HW114321   3.096   2.688   2.219
 4587SOL    HW214322   3.148   2.705   2.077
 4588SOL     OW14323   3.633   3.607   3.012
 4588SOL    HW114324   3.692   3.634   2.941
 4588SOL    HW214325   3.608   3.517   2.990
 4589SOL     OW14326   3.103   3.595   2.977
 4589SOL    HW114327   3.185   3.615   2.931
 4589SOL    HW214328   3.108   3.501   2.995
 4590SOL     OW14329   1.945   3.128   2.875
 4590SOL    HW114330   1.932   3.140   2.969
 4590SOL    HW214331   1.871   3.075   2.847
 4591SOL     OW14332   2.539   3.527   3.589
 4591SOL    HW114333   2.487   3.607   3.585
 4591SOL    HW214334   2.604   3.537   3.518
 4592SOL     OW14335   3.581   2.006   2.373
 4592SOL    HW114336   3.654   1.992   2.313
 4592SOL    HW214337   3.565   1.921   2.413
 4593SOL     OW14338   3.252   3.430   2.346
 4593SOL    HW114339   3.313   3.461   2.279
 4593SOL    HW214340   3.204   3.508   2.374
 4594SOL     OW14341   1.998   3.658   3.705
 4594SOL    HW114342   1.947   3.593   3.754
 4594SOL    HW214343   2.045   3.707   3.772
 4595SOL     OW14344   3.139   2.788   2.534
 4595SOL    HW114345   3.212   2.726   2.539
 4595SOL    HW214346   3.173   2.860   2.481
 4596SOL     OW14347   2.679   3.135   3.293
 4596SOL    HW114348   2.651   3.174   3.376
 4596SOL    HW214349   2.608   3.157   3.232
 4597SOL     OW14350   2.534   3.480   2.017
 4597SOL    HW114351   2.544   3.492   1.923
 4597SOL    HW214352   2.479   3.402   2.027
 4598SOL     OW14353   3.491   3.588   3.254
 4598SOL    HW114354   3.540   3.596   3.171
 4598SOL    HW214355   3.478   3.679   3.282
 4599SOL     OW14356   3.702   2.035   2.830
 4599SOL    HW114357   3.731   1.948   2.801
 4599SOL    HW214358   3.616   2.046   2.790
 4600SOL     OW14359   3.068   3.469   1.893
 4600SOL    HW114360   3.060   3.378   1.920
 4600SOL    HW214361   3.004   3.480   1.824
 4601SOL     OW14362   2.685   2.868   3.235
 4601SOL    HW114363   2.732   2.860   3.152
 4601SOL    HW214364   2.687   2.962   3.255
 4602SOL     OW14365   2.777   2.772   2.151
 4602SOL    HW114366   2.839   2.804   2.086
 4602SOL    HW214367   2.824   2.702   2.197
 4603SOL     OW14368   3.355   3.487   1.904
 4603SOL    HW114369   3.260   3.481   1.891
 4603SOL    HW214370   3.391   3.493   1.816
 4604SOL     OW14371   2.232   3.163   3.353
 4604SOL    HW114372   2.218   3.241   3.299
 4604SOL    HW214373   2.154   3.109   3.338
 4605SOL     OW14374   3.473   3.145   3.143
 4605SOL    HW114375   3.532   3.135   3.218
 4605SOL    HW214376   3.413   3.215   3.169
 4606SOL     OW14377   2.912   2.968   2.568
 4606SOL    HW114378   2.842   2.916   2.607
 4606SOL    HW214379   2.974   2.903   2.536
 4607SOL     OW14380   2.884   2.101   2.828
 4607SOL    HW114381   2.878   2.053   2.746
 4607SOL    HW214382   2.877   2.033   2.896
 4608SOL     OW14383   2.464   3.351   2.344
 4608SOL    HW114384   2.507   3.300   2.274
 4608SOL    HW214385   2.396   3.401   2.299
 4609SOL     OW14386   3.582   2.254   3.242
 4609SOL    HW114387   3.654   2.317   3.240
 4609SOL    HW214388   3.612   2.182   3.186
 4610SOL     OW14389   2.121   3.207   2.150
 4610SOL    HW114390   2.028   3.205   2.127
 4610SOL    HW214391   2.123   3.245   2.238
 4611SOL     OW14392   1.974   2.881   3.581
 4611SOL    HW114393   1.898   2.858   3.634
 4611SOL    HW214394   2.048   2.845   3.629
 4612SOL     OW14395   2.542   2.052   3.354
 4612SOL    HW114396   2.629   2.029   3.320
 4612SOL    HW214397   2.560   2.089   3.441
 4613SOL     OW14398   1.907   2.195   1.906
 4613SOL    HW114399   1.828   2.161   1.863
 4613SOL    HW214400   1.930   2.272   1.854
 4614SOL     OW14401   3.293   2.721   3.263
 4614SOL    HW114402   3.244   2.781   3.207
 4614SOL    HW214403   3.382   2.723   3.229
 4615SOL     OW14404   1.932   2.018   2.170
 4615SOL    HW114405   1.906   2.093   2.117
 4615SOL    HW214406   2.027   2.027   2.179
 4616SOL     OW14407   3.041   3.203   1.979
 4616SOL    HW114408   2.951   3.172   1.982
 4616SOL    HW214409   3.070   3.202   2.070
 4617SOL     OW14410   2.482   2.693   3.292
 4617SOL    HW114411   2.537   2.770   3.279
 4617SOL    HW214412   2.545   2.620   3.298
 4618SOL     OW14413   3.346   3.637   2.839
 4618SOL    HW114414   3.371   3.696   2.767
 4618SOL    HW214415   3.428   3.620   2.885
 4619SOL     OW14416   2.585   2.429   3.567
 4619SOL    HW114417   2.623   2.493   3.626
 4619SOL    HW214418   2.617   2.345   3.599
 4620SOL     OW14419   3.332   3.064   3.495
 4620SOL    HW114420   3.320   3.077   3.589
 4620SOL    HW214421   3.426   3.077   3.480
 4621SOL     OW14422   2.243   3.601   3.426
 4621SOL    HW114423   2.157   3.642   3.412
 4621SOL    HW214424   2.224   3.518   3.468
 4622SOL     OW14425   3.532   2.743   3.118
 4622SOL    HW114426   3.525   2.658   3.075
 4622SOL    HW214427   3.523   2.807   3.046
 4623SOL     OW14428   3.080   2.181   2.320
 4623SOL    HW114429   3.143   2.110   2.311
 4623SOL    HW214430   3.108   2.230   2.397
 4624SOL     OW14431   2.442   2.609   2.517
 4624SOL    HW114432   2.491   2.691   2.508
 4624SOL    HW214433   2.365   2.621   2.460
 4625SOL     OW14434   3.626   2.222   3.511
 4625SOL    HW114435   3.608   2.237   3.418
 4625SOL    HW214436   3.554   2.166   3.541
 4626SOL     OW14437   3.606   2.796   3.374
 4626SOL    HW114438   3.606   2.890   3.387
 4626SOL    HW214439   3.591   2.784   3.281
 4627SOL     OW14440   2.724   3.230   1.894
 4627SOL    HW114441   2.685   3.257   1.977
 4627SOL    HW214442   2.743   3.312   1.848
 4628SOL     OW14443   2.522   3.655   2.808
 4628SOL    HW114444   2.501   3.745   2.784
 4628SOL    HW214445   2.617   3.649   2.801
 4629SOL     OW14446   2.727   2.827   2.718
 4629SOL    HW114447   2.778   2.756   2.756
 4629SOL    HW214448   2.697   2.878   2.793
 4630SOL     OW14449   2.941   2.850   1.950
 4630SOL    HW114450   2.920   2.900   1.872
 4630SOL    HW214451   3.017   2.797   1.925
 4631SOL     OW14452   3.717   3.418   2.707
 4631SOL    HW114453   3.640   3.406   2.652
 4631SOL    HW214454   3.710   3.349   2.774
 4632SOL     OW14455   2.086   3.166   3.718
 4632SOL    HW114456   2.019   3.104   3.688
 4632SOL    HW214457   2.069   3.178   3.811
 4633SOL     OW14458   1.945   3.098   2.527
 4633SOL    HW114459   1.946   3.048   2.608
 4633SOL    HW214460   2.013   3.057   2.473
 4634SOL     OW14461   2.542   3.264   3.488
 4634SOL    HW114462   2.462   3.220   3.519
 4634SOL    HW214463   2.537   3.352   3.526
 4635SOL     OW14464   3.676   2.047   3.100
 4635SOL    HW114465   3.684   1.953   3.115
 4635SOL    HW214466   3.685   2.057   3.006
 4636SOL     OW14467   3.562   3.353   2.961
 4636SOL    HW114468   3.482   3.328   2.915
 4636SOL    HW214469   3.576   3.283   3.025
 4637SOL     OW14470   2.688   3.440   2.541
 4637SOL    HW114471   2.679   3.489   2.459
 4637SOL    HW214472   2.611   3.384   2.544
 4638SOL     OW14473   3.295   2.086   2.980
 4638SOL    HW114474   3.320   2.006   3.027
 4638SOL    HW214475   3.243   2.136   3.043
 4639SOL     OW14476   2.871   1.881   3.006
 4639SOL    HW114477   2.816   1.814   2.967
 4639SOL    HW214478   2.959   1.843   3.008
 4640SOL     OW14479   2.633   3.194   2.174
 4640SOL    HW114480   2.601   3.104   2.180
 4640SOL    HW214481   2.716   3.193   2.223
 4641SOL     OW14482   2.482   3.419   3.146
 4641SOL    HW114483   2.485   3.501   3.197
 4641SOL    HW214484   2.569   3.412   3.108
 4642SOL     OW14485   3.214   1.916   2.026
 4642SOL    HW114486   3.241   1.854   1.958
 4642SOL    HW214487   3.127   1.885   2.053
 4643SOL     OW14488   3.160   2.323   2.544
 4643SOL    HW114489   3.105   2.400   2.551
 4643SOL    HW214490   3.155   2.282   2.631
 4644SOL     OW14491   3.449   2.066   2.739
 4644SOL    HW114492   3.387   2.085   2.809
 4644SOL    HW214493   3.448   2.144   2.684
 4645SOL     OW14494   1.905   2.934   2.168
 4645SOL    HW114495   1.998   2.925   2.151
 4645SOL    HW214496   1.876   2.845   2.191
 4646SOL     OW14497   2.745   3.513   2.206
 4646SOL    HW114498   2.673   3.496   2.145
 4646SOL    HW214499   2.715   3.589   2.256
 4647SOL     OW14500   2.065   2.522   3.847
 4647SOL    HW114501   1.978   2.495   3.875
 4647SOL    HW214502   2.085   2.465   3.772
 4648SOL     OW14503   1.867   2.250   4.351
 4648SOL    HW114504   1.793   2.261   4.411
 4648SOL    HW214505   1.851   2.166   4.308
 4649SOL     OW14506   2.425   3.145   4.904
 4649SOL    HW114507   2.344   3.155   4.855
 4649SOL    HW214508   2.448   3.234   4.932
 4650SOL     OW14509   3.421   3.374   4.430
 4650SOL    HW114510   3.378   3.354   4.514
 4650SOL    HW214511   3.350   3.378   4.367
 4651SOL     OW14512   2.992   2.562   4.417
 4651SOL    HW114513   3.040   2.645   4.411
 4651SOL    HW214514   2.947   2.566   4.501
 4652SOL     OW14515   3.629   2.468   3.953
 4652SOL    HW114516   3.608   2.459   3.860
 4652SOL    HW214517   3.592   2.389   3.994
 4653SOL     OW14518   2.629   3.009   4.761
 4653SOL    HW114519   2.553   3.029   4.816
 4653SOL    HW214520   2.654   3.094   4.723
 4654SOL     OW14521   2.547   2.875   4.374
 4654SOL    HW114522   2.612   2.855   4.441
 4654SOL    HW214523   2.480   2.926   4.420
 4655SOL     OW14524   2.574   3.028   5.538
 4655SOL    HW114525   2.620   3.108   5.563
 4655SOL    HW214526   2.486   3.058   5.516
 4656SOL     OW14527   2.194   3.286   4.791
 4656SOL    HW114528   2.119   3.252   4.744
 4656SOL    HW214529   2.242   3.339   4.727
 4657SOL     OW14530   3.323   3.361   5.076
 4657SOL    HW114531   3.370   3.444   5.088
 4657SOL    HW214532   3.265   3.355   5.151
 4658SOL     OW14533   3.475   2.311   4.463
 4658SOL    HW114534   3.399   2.335   4.411
 4658SOL    HW214535   3.491   2.387   4.519
 4659SOL     OW14536   2.082   3.575   4.198
 4659SOL    HW114537   2.104   3.652   4.250
 4659SOL    HW214538   2.153   3.569   4.134
 4660SOL     OW14539   2.999   3.205   5.417
 4660SOL    HW114540   3.039   3.200   5.504
 4660SOL    HW214541   2.946   3.126   5.410
 4661SOL     OW14542   2.093   3.303   4.259
 4661SOL    HW114543   2.076   3.397   4.262
 4661SOL    HW214544   2.030   3.265   4.320
 4662SOL     OW14545   2.474   3.654   5.153
 4662SOL    HW114546   2.393   3.636   5.200
 4662SOL    HW214547   2.498   3.743   5.179
 4663SOL     OW14548   2.449   2.841   3.855
 4663SOL    HW114549   2.494   2.893   3.788
 4663SOL    HW214550   2.489   2.869   3.938
 4664SOL     OW14551   3.460   1.984   5.193
 4664SOL    HW114552   3.456   2.064   5.140
 4664SOL    HW214553   3.446   2.014   5.283
 4665SOL     OW14554   1.979   2.504   4.288
 4665SOL    HW114555   1.944   2.415   4.293
 4665SOL    HW214556   1.979   2.535   4.378
 4666SOL     OW14557   3.704   3.622   4.059
 4666SOL    HW114558   3.765   3.593   4.127
 4666SOL    HW214559   3.729   3.713   4.041
 4667SOL     OW14560   1.893   3.458   3.848
 4667SOL    HW114561   1.875   3.366   3.868
 4667SOL    HW214562   1.869   3.505   3.928
 4668SOL     OW14563   3.551   2.781   4.364
 4668SOL    HW114564   3.636   2.740   4.345
 4668SOL    HW214565   3.531   2.830   4.284
 4669SOL     OW14566   3.507   2.970   4.153
 4669SOL    HW114567   3.593   2.977   4.111
 4669SOL    HW214568   3.512   3.030   4.227
 4670SOL     OW14569   2.475   3.247   4.459
 4670SOL    HW114570   2.429   3.163   4.468
 4670SOL    HW214571   2.459   3.273   4.368
 4671SOL     OW14572   3.158   3.102   5.148
 4671SOL    HW114573   3.186   3.032   5.090
 4671SOL    HW214574   3.212   3.092   5.226
 4672SOL     OW14575   2.671   1.860   4.224
 4672SOL    HW114576   2.715   1.945   4.211
 4672SOL    HW214577   2.579   1.883   4.238
 4673SOL     OW14578   3.394   2.854   3.921
 4673SOL    HW114579   3.324   2.797   3.953
 4673SOL    HW214580   3.434   2.889   4.001
 4674SOL     OW14581   3.047   3.667   5.345
 4674SOL    HW114582   3.060   3.724   5.270
 4674SOL    HW214583   3.062   3.579   5.311
 4675SOL     OW14584   3.329   3.281   4.675
 4675SOL    HW114585   3.261   3.296   4.741
 4675SOL    HW214586   3.317   3.190   4.649
 4676SOL     OW14587   3.522   3.598   4.302
 4676SOL    HW114588   3.500   3.569   4.213
 4676SOL    HW214589   3.496   3.525   4.358
 4677SOL     OW14590   2.459   2.581   3.987
 4677SOL    HW114591   2.468   2.658   3.930
 4677SOL    HW214592   2.391   2.605   4.049
 4678SOL     OW14593   3.146   2.209   4.657
 4678SOL    HW114594   3.064   2.161   4.647
 4678SOL    HW214595   3.195   2.158   4.722
 4679SOL     OW14596   3.443   3.531   4.033
 4679SOL    HW114597   3.533   3.564   4.027
 4679SOL    HW214598   3.417   3.514   3.942
 4680SOL     OW14599   3.269   2.345   5.395
 4680SOL    HW114600   3.253   2.379   5.482
 4680SOL    HW214601   3.316   2.262   5.409
 4681SOL     OW14602   2.888   2.788   5.264
 4681SOL    HW114603   2.924   2.705   5.294
 4681SOL    HW214604   2.799   2.768   5.235
 4682SOL     OW14605   2.911   2.561   4.148
 4682SOL    HW114606   2.929   2.556   4.242
 4682SOL    HW214607   2.829   2.515   4.137
 4683SOL     OW14608   1.988   3.699   5.299
 4683SOL    HW114609   1.988   3.683   5.393
 4683SOL    HW214610   1.896   3.708   5.275
 4684SOL     OW14611   2.752   2.209   3.918
 4684SOL    HW114612   2.795   2.270   3.859
 4684SOL    HW214613   2.768   2.123   3.880
 4685SOL     OW14614   3.571   2.438   5.552
 4685SOL    HW114615   3.534   2.513   5.506
 4685SOL    HW214616   3.594   2.376   5.483
 4686SOL     OW14617   3.238   3.004   4.265
 4686SOL    HW114618   3.317   2.991   4.213
 4686SOL    HW214619   3.186   3.066   4.215
 4687SOL     OW14620   2.869   3.306   4.197
 4687SOL    HW114621   2.830   3.379   4.148
 4687SOL    HW214622   2.855   3.328   4.289
 4688SOL     OW14623   2.217   3.670   4.584
 4688SOL    HW114624   2.261   3.585   4.592
 4688SOL    HW214625   2.285   3.734   4.601
 4689SOL     OW14626   3.660   2.922   4.591
 4689SOL    HW114627   3.604   2.903   4.516
 4689SOL    HW214628   3.599   2.927   4.665
 4690SOL     OW14629   3.089   3.402   5.237
 4690SOL    HW114630   3.076   3.329   5.298
 4690SOL    HW214631   3.031   3.382   5.164
 4691SOL     OW14632   2.181   2.816   3.972
 4691SOL    HW114633   2.263   2.834   3.926
 4691SOL    HW214634   2.148   2.736   3.932
 4692SOL     OW14635   3.339   2.603   4.452
 4692SOL    HW114636   3.329   2.557   4.535
 4692SOL    HW214637   3.417   2.657   4.463
 4693SOL     OW14638   2.326   3.131   5.464
 4693SOL    HW114639   2.295   3.133   5.373
 4693SOL    HW214640   2.245   3.129   5.516
 4694SOL     OW14641   2.983   3.640   3.955
 4694SOL    HW114642   2.911   3.597   4.002
 4694SOL    HW214643   3.005   3.579   3.885
 4695SOL     OW14644   2.028   2.221   5.239
 4695SOL    HW114645   1.946   2.218   5.191
 4695SOL    HW214646   2.052   2.129   5.252
 4696SOL     OW14647   3.491   3.241   3.811
 4696SOL    HW114648   3.450   3.326   3.796
 4696SOL    HW214649   3.422   3.178   3.792
 4697SOL     OW14650   2.329   3.599   4.045
 4697SOL    HW114651   2.370   3.657   4.110
 4697SOL    HW214652   2.401   3.571   3.990
 4698SOL     OW14653   3.263   1.974   4.154
 4698SOL    HW114654   3.252   1.945   4.064
 4698SOL    HW214655   3.358   1.975   4.168
 4699SOL     OW14656   2.115   3.653   4.957
 4699SOL    HW114657   2.172   3.590   5.003
 4699SOL    HW214658   2.107   3.618   4.869
 4700SOL     OW14659   2.799   3.561   4.624
 4700SOL    HW114660   2.876   3.508   4.646
 4700SOL    HW214661   2.755   3.511   4.555
 4701SOL     OW14662   2.236   2.568   4.186
 4701SOL    HW114663   2.266   2.482   4.157
 4701SOL    HW214664   2.144   2.555   4.208
 4702SOL     OW14665   3.398   2.087   5.450
 4702SOL    HW114666   3.406   2.108   5.543
 4702SOL    HW214667   3.328   2.023   5.446
 4703SOL     OW14668   2.487   1.993   3.829
 4703SOL    HW114669   2.557   1.934   3.857
 4703SOL    HW214670   2.449   1.951   3.752
 4704SOL     OW14671   2.738   3.386   4.916
 4704SOL    HW114672   2.724   3.349   4.829
 4704SOL    HW214673   2.806   3.331   4.954
 4705SOL     OW14674   3.232   2.449   5.141
 4705SOL    HW114675   3.248   2.417   5.230
 4705SOL    HW214676   3.254   2.542   5.145
 4706SOL     OW14677   2.675   3.262   4.661
 4706SOL    HW114678   2.760   3.248   4.619
 4706SOL    HW214679   2.612   3.259   4.590
 4707SOL     OW14680   2.852   2.374   4.609
 4707SOL    HW114681   2.809   2.366   4.523
 4707SOL    HW214682   2.810   2.307   4.663
 4708SOL     OW14683   2.405   1.932   4.227
 4708SOL    HW114684   2.323   1.925   4.275
 4708SOL    HW214685   2.402   2.018   4.186
 4709SOL     OW14686   3.290   3.060   3.765
 4709SOL    HW114687   3.321   2.984   3.815
 4709SOL    HW214688   3.205   3.080   3.803
 4710SOL     OW14689   2.159   1.904   3.904
 4710SOL    HW114690   2.225   1.965   3.870
 4710SOL    HW214691   2.210   1.835   3.947
 4711SOL     OW14692   2.797   2.107   4.185
 4711SOL    HW114693   2.775   2.149   4.102
 4711SOL    HW214694   2.892   2.116   4.192
 4712SOL     OW14695   3.086   3.431   4.517
 4712SOL    HW114696   3.104   3.499   4.452
 4712SOL    HW214697   3.154   3.443   4.584
 4713SOL     OW14698   2.324   3.013   4.464
 4713SOL    HW114699   2.259   2.985   4.528
 4713SOL    HW214700   2.285   2.994   4.379
 4714SOL     OW14701   3.132   3.656   4.331
 4714SOL    HW114702   3.177   3.718   4.272
 4714SOL    HW214703   3.067   3.710   4.376
 4715SOL     OW14704   2.887   2.406   3.745
 4715SOL    HW114705   2.846   2.490   3.726
 4715SOL    HW214706   2.952   2.425   3.813
 4716SOL     OW14707   2.737   2.326   4.352
 4716SOL    HW114708   2.695   2.382   4.287
 4716SOL    HW214709   2.757   2.245   4.305
 4717SOL     OW14710   2.908   1.880   4.447
 4717SOL    HW114711   2.828   1.891   4.395
 4717SOL    HW214712   2.880   1.830   4.524
 4718SOL     OW14713   3.298   3.025   4.581
 4718SOL    HW114714   3.229   2.959   4.580
 4718SOL    HW214715   3.321   3.037   4.489
 4719SOL     OW14716   3.328   2.466   4.703
 4719SOL    HW114717   3.280   2.383   4.708
 4719SOL    HW214718   3.389   2.462   4.777
 4720SOL     OW14719   3.709   2.679   4.105
 4720SOL    HW114720   3.764   2.628   4.164
 4720SOL    HW214721   3.680   2.617   4.039
 4721SOL     OW14722   2.353   3.278   3.883
 4721SOL    HW114723   2.278   3.249   3.935
 4721SOL    HW214724   2.336   3.245   3.795
 4722SOL     OW14725   3.531   3.127   4.370
 4722SOL    HW114726   3.626   3.131   4.384
 4722SOL    HW214727   3.500   3.215   4.392
 4723SOL     OW14728   3.256   2.434   3.796
 4723SOL    HW114729   3.195   2.415   3.867
 4723SOL    HW214730   3.340   2.401   3.826
 4724SOL     OW14731   3.615   3.100   5.298
 4724SOL    HW114732   3.702   3.060   5.297
 4724SOL    HW214733   3.630   3.189   5.328
 4725SOL     OW14734   2.938   3.224   5.051
 4725SOL    HW114735   2.859   3.200   5.099
 4725SOL    HW214736   3.009   3.177   5.095
 4726SOL     OW14737   3.469   3.488   5.377
 4726SOL    HW114738   3.465   3.522   5.287
 4726SOL    HW214739   3.552   3.440   5.381
 4727SOL     OW14740   2.989   3.059   4.828
 4727SOL    HW114741   2.932   3.096   4.896
 4727SOL    HW214742   2.953   3.093   4.746
 4728SOL     OW14743   3.491   2.961   4.802
 4728SOL    HW114744   3.488   3.023   4.875
 4728SOL    HW214745   3.411   2.978   4.752
 4729SOL     OW14746   2.849   2.978   5.452
 4729SOL    HW114747   2.755   2.980   5.468
 4729SOL    HW214748   2.860   2.915   5.381
 4730SOL     OW14749   2.570   2.923   4.096
 4730SOL    HW114750   2.558   2.909   4.190
 4730SOL    HW214751   2.645   2.868   4.073
 4731SOL     OW14752   3.144   2.248   4.984
 4731SOL    HW114753   3.176   2.317   5.042
 4731SOL    HW214754   3.061   2.281   4.950
 4732SOL     OW14755   1.929   3.431   5.070
 4732SOL    HW114756   1.897   3.507   5.021
 4732SOL    HW214757   2.024   3.441   5.069
 4733SOL     OW14758   2.209   2.965   4.220
 4733SOL    HW114759   2.217   3.041   4.163
 4733SOL    HW214760   2.209   2.890   4.160
 4734SOL     OW14761   3.110   3.210   4.113
 4734SOL    HW114762   3.166   3.282   4.144
 4734SOL    HW214763   3.023   3.231   4.147
 4735SOL     OW14764   3.144   3.319   4.868
 4735SOL    HW114765   3.199   3.323   4.946
 4735SOL    HW214766   3.081   3.249   4.886
 4736SOL     OW14767   3.443   2.487   4.201
 4736SOL    HW114768   3.398   2.540   4.266
 4736SOL    HW214769   3.489   2.550   4.145
 4737SOL     OW14770   2.212   3.380   5.042
 4737SOL    HW114771   2.199   3.342   4.955
 4737SOL    HW214772   2.306   3.397   5.047
 4738SOL     OW14773   3.464   2.643   5.407
 4738SOL    HW114774   3.377   2.680   5.398
 4738SOL    HW214775   3.515   2.683   5.337
 4739SOL     OW14776   3.218   2.719   4.757
 4739SOL    HW114777   3.142   2.712   4.699
 4739SOL    HW214778   3.260   2.633   4.753
 4740SOL     OW14779   3.067   2.391   3.991
 4740SOL    HW114780   3.076   2.313   4.046
 4740SOL    HW214781   3.025   2.455   4.048
 4741SOL     OW14782   1.921   3.166   5.005
 4741SOL    HW114783   1.955   3.132   5.088
 4741SOL    HW214784   1.914   3.260   5.018
 4742SOL     OW14785   3.596   2.822   5.575
 4742SOL    HW114786   3.550   2.762   5.517
 4742SOL    HW214787   3.536   2.835   5.649
 4743SOL     OW14788   2.146   1.918   4.344
 4743SOL    HW114789   2.121   2.006   4.373
 4743SOL    HW214790   2.141   1.864   4.423
 4744SOL     OW14791   3.478   2.236   4.092
 4744SOL    HW114792   3.504   2.171   4.158
 4744SOL    HW214793   3.454   2.314   4.142
 4745SOL     OW14794   2.900   2.627   4.691
 4745SOL    HW114795   2.909   2.631   4.786
 4745SOL    HW214796   2.877   2.536   4.672
 4746SOL     OW14797   2.843   3.428   5.439
 4746SOL    HW114798   2.829   3.472   5.355
 4746SOL    HW214799   2.887   3.347   5.416
 4747SOL     OW14800   3.717   3.370   5.330
 4747SOL    HW114801   3.734   3.395   5.239
 4747SOL    HW214802   3.799   3.389   5.376
 4748SOL     OW14803   3.392   2.136   3.851
 4748SOL    HW114804   3.327   2.070   3.878
 4748SOL    HW214805   3.425   2.171   3.934
 4749SOL     OW14806   3.155   2.688   3.756
 4749SOL    HW114807   3.198   2.603   3.760
 4749SOL    HW214808   3.186   2.727   3.674
 4750SOL     OW14809   2.924   3.199   4.576
 4750SOL    HW114810   2.928   3.125   4.515
 4750SOL    HW214811   2.989   3.261   4.542
 4751SOL     OW14812   1.867   3.184   3.919
 4751SOL    HW114813   1.780   3.198   3.881
 4751SOL    HW214814   1.864   3.094   3.952
 4752SOL     OW14815   1.952   3.650   4.662
 4752SOL    HW114816   1.922   3.570   4.618
 4752SOL    HW214817   2.042   3.662   4.630
 4753SOL     OW14818   2.360   3.435   4.630
 4753SOL    HW114819   2.428   3.498   4.655
 4753SOL    HW214820   2.405   3.372   4.574
 4754SOL     OW14821   3.238   2.802   5.383
 4754SOL    HW114822   3.257   2.895   5.384
 4754SOL    HW214823   3.237   2.778   5.290
 4755SOL     OW14824   2.675   2.429   4.083
 4755SOL    HW114825   2.680   2.357   4.020
 4755SOL    HW214826   2.601   2.482   4.054
 4756SOL     OW14827   3.504   2.466   4.911
 4756SOL    HW114828   3.489   2.408   4.985
 4756SOL    HW214829   3.591   2.442   4.879
 4757SOL     OW14830   2.106   3.415   5.452
 4757SOL    HW114831   2.085   3.480   5.520
 4757SOL    HW214832   2.111   3.332   5.500
 4758SOL     OW14833   2.788   3.543   5.193
 4758SOL    HW114834   2.766   3.507   5.107
 4758SOL    HW214835   2.786   3.637   5.181
 4759SOL     OW14836   3.190   2.911   4.947
 4759SOL    HW114837   3.212   2.847   4.879
 4759SOL    HW214838   3.119   2.963   4.909
 4760SOL     OW14839   3.172   2.719   4.031
 4760SOL    HW114840   3.096   2.688   4.081
 4760SOL    HW214841   3.147   2.705   3.939
 4761SOL     OW14842   3.633   3.607   4.874
 4761SOL    HW114843   3.692   3.633   4.803
 4761SOL    HW214844   3.608   3.517   4.852
 4762SOL     OW14845   3.103   3.595   4.839
 4762SOL    HW114846   3.185   3.615   4.793
 4762SOL    HW214847   3.108   3.501   4.857
 4763SOL     OW14848   1.951   3.141   4.731
 4763SOL    HW114849   1.933   3.140   4.825
 4763SOL    HW214850   1.896   3.071   4.695
 4764SOL     OW14851   2.540   3.526   5.451
 4764SOL    HW114852   2.489   3.607   5.446
 4764SOL    HW214853   2.605   3.535   5.382
 4765SOL     OW14854   3.580   2.006   4.235
 4765SOL    HW114855   3.654   1.991   4.175
 4765SOL    HW214856   3.565   1.921   4.275
 4766SOL     OW14857   3.252   3.430   4.207
 4766SOL    HW114858   3.313   3.462   4.141
 4766SOL    HW214859   3.204   3.508   4.236
 4767SOL     OW14860   1.999   3.661   5.566
 4767SOL    HW114861   1.948   3.597   5.614
 4767SOL    HW214862   2.047   3.709   5.633
 4768SOL     OW14863   3.140   2.789   4.398
 4768SOL    HW114864   3.213   2.727   4.402
 4768SOL    HW214865   3.174   2.861   4.345
 4769SOL     OW14866   2.700   3.176   5.150
 4769SOL    HW114867   2.660   3.205   5.232
 4769SOL    HW214868   2.626   3.160   5.091
 4770SOL     OW14869   2.534   3.480   3.879
 4770SOL    HW114870   2.544   3.492   3.785
 4770SOL    HW214871   2.479   3.402   3.889
 4771SOL     OW14872   3.492   3.589   5.116
 4771SOL    HW114873   3.540   3.596   5.034
 4771SOL    HW214874   3.478   3.679   5.144
 4772SOL     OW14875   3.703   2.035   4.691
 4772SOL    HW114876   3.731   1.948   4.663
 4772SOL    HW214877   3.616   2.046   4.652
 4773SOL     OW14878   3.068   3.469   3.755
 4773SOL    HW114879   3.060   3.378   3.782
 4773SOL    HW214880   3.004   3.480   3.686
 4774SOL     OW14881   2.777   2.772   4.012
 4774SOL    HW114882   2.839   2.804   3.947
 4774SOL    HW214883   2.824   2.703   4.059
 4775SOL     OW14884   3.355   3.486   3.766
 4775SOL    HW114885   3.260   3.481   3.754
 4775SOL    HW214886   3.391   3.493   3.678
 4776SOL     OW14887   2.203   3.161   5.224
 4776SOL    HW114888   2.211   3.236   5.165
 4776SOL    HW214889   2.185   3.087   5.167
 4777SOL     OW14890   3.475   3.146   5.005
 4777SOL    HW114891   3.531   3.134   5.082
 4777SOL    HW214892   3.413   3.214   5.030
 4778SOL     OW14893   2.911   2.968   4.430
 4778SOL    HW114894   2.841   2.917   4.470
 4778SOL    HW214895   2.974   2.902   4.399
 4779SOL     OW14896   2.463   3.350   4.205
 4779SOL    HW114897   2.506   3.300   4.136
 4779SOL    HW214898   2.396   3.401   4.160
 4780SOL     OW14899   3.584   2.254   5.104
 4780SOL    HW114900   3.655   2.318   5.101
 4780SOL    HW214901   3.614   2.182   5.048
 4781SOL     OW14902   2.121   3.208   4.012
 4781SOL    HW114903   2.028   3.206   3.989
 4781SOL    HW214904   2.123   3.245   4.100
 4782SOL     OW14905   1.919   2.200   3.778
 4782SOL    HW114906   1.840   2.177   3.729
 4782SOL    HW214907   1.967   2.260   3.720
 4783SOL     OW14908   3.294   2.725   5.126
 4783SOL    HW114909   3.246   2.786   5.069
 4783SOL    HW214910   3.383   2.725   5.091
 4784SOL     OW14911   1.937   2.021   4.034
 4784SOL    HW114912   1.914   2.094   3.976
 4784SOL    HW214913   2.017   1.985   3.996
 4785SOL     OW14914   3.041   3.203   3.841
 4785SOL    HW114915   2.951   3.172   3.844
 4785SOL    HW214916   3.070   3.203   3.932
 4786SOL     OW14917   3.346   3.638   4.701
 4786SOL    HW114918   3.371   3.696   4.629
 4786SOL    HW214919   3.428   3.620   4.747
 4787SOL     OW14920   3.333   3.064   5.358
 4787SOL    HW114921   3.320   3.077   5.452
 4787SOL    HW214922   3.427   3.076   5.345
 4788SOL     OW14923   2.243   3.601   5.287
 4788SOL    HW114924   2.157   3.641   5.274
 4788SOL    HW214925   2.225   3.517   5.329
 4789SOL     OW14926   3.533   2.744   4.980
 4789SOL    HW114927   3.525   2.658   4.939
 4789SOL    HW214928   3.523   2.806   4.908
 4790SOL     OW14929   3.079   2.182   4.182
 4790SOL    HW114930   3.142   2.111   4.173
 4790SOL    HW214931   3.108   2.230   4.260
 4791SOL     OW14932   2.465   2.618   4.326
 4791SOL    HW114933   2.492   2.709   4.339
 4791SOL    HW214934   2.379   2.625   4.284
 4792SOL     OW14935   3.626   2.221   5.373
 4792SOL    HW114936   3.608   2.237   5.281
 4792SOL    HW214937   3.553   2.166   5.403
 4793SOL     OW14938   3.610   2.796   5.236
 4793SOL    HW114939   3.604   2.891   5.248
 4793SOL    HW214940   3.592   2.783   5.142
 4794SOL     OW14941   2.723   3.230   3.755
 4794SOL    HW114942   2.686   3.257   3.839
 4794SOL    HW214943   2.743   3.312   3.711
 4795SOL     OW14944   2.521   3.655   4.670
 4795SOL    HW114945   2.502   3.745   4.646
 4795SOL    HW214946   2.616   3.648   4.663
 4796SOL     OW14947   2.726   2.826   4.579
 4796SOL    HW114948   2.779   2.757   4.621
 4796SOL    HW214949   2.694   2.879   4.651
 4797SOL     OW14950   2.941   2.850   3.812
 4797SOL    HW114951   2.920   2.901   3.733
 4797SOL    HW214952   3.017   2.797   3.787
 4798SOL     OW14953   3.717   3.418   4.569
 4798SOL    HW114954   3.640   3.406   4.514
 4798SOL    HW214955   3.710   3.350   4.636
 4799SOL     OW14956   2.089   3.167   5.587
 4799SOL    HW114957   2.005   3.124   5.572
 4799SOL    HW214958   2.091   3.183   5.681
 4800SOL     OW14959   1.944   3.102   4.389
 4800SOL    HW114960   1.929   3.047   4.466
 4800SOL    HW214961   2.009   3.055   4.338
 4801SOL     OW14962   2.536   3.266   5.344
 4801SOL    HW114963   2.464   3.218   5.386
 4801SOL    HW214964   2.536   3.352   5.388
 4802SOL     OW14965   3.680   2.047   4.962
 4802SOL    HW114966   3.682   1.953   4.976
 4802SOL    HW214967   3.687   2.057   4.867
 4803SOL     OW14968   3.562   3.353   4.823
 4803SOL    HW114969   3.482   3.328   4.777
 4803SOL    HW214970   3.575   3.283   4.888
 4804SOL     OW14971   2.688   3.441   4.402
 4804SOL    HW114972   2.678   3.489   4.320
 4804SOL    HW214973   2.611   3.384   4.406
 4805SOL     OW14974   3.300   2.083   4.841
 4805SOL    HW114975   3.315   2.000   4.887
 4805SOL    HW214976   3.249   2.135   4.903
 4806SOL     OW14977   2.919   1.881   4.898
 4806SOL    HW114978   2.840   1.841   4.862
 4806SOL    HW214979   2.989   1.821   4.874
 4807SOL     OW14980   2.634   3.194   4.037
 4807SOL    HW114981   2.602   3.104   4.043
 4807SOL    HW214982   2.716   3.194   4.086
 4808SOL     OW14983   2.481   3.421   5.007
 4808SOL    HW114984   2.485   3.502   5.058
 4808SOL    HW214985   2.570   3.411   4.971
 4809SOL     OW14986   3.214   1.916   3.887
 4809SOL    HW114987   3.241   1.852   3.821
 4809SOL    HW214988   3.127   1.886   3.915
 4810SOL     OW14989   3.159   2.323   4.407
 4810SOL    HW114990   3.103   2.401   4.413
 4810SOL    HW214991   3.156   2.285   4.495
 4811SOL     OW14992   3.450   2.065   4.601
 4811SOL    HW114993   3.389   2.083   4.673
 4811SOL    HW214994   3.448   2.144   4.547
 4812SOL     OW14995   1.906   2.934   4.030
 4812SOL    HW114996   1.999   2.924   4.010
 4812SOL    HW214997   1.877   2.845   4.053
 4813SOL     OW14998   2.744   3.513   4.068
 4813SOL    HW114999   2.673   3.496   4.007
 4813SOL    HW215000   2.715   3.589   4.118
 4814SOL     OW15001   2.430   3.147   6.759
 4814SOL    HW115002   2.342   3.148   6.722
 4814SOL    HW215003   2.444   3.235   6.792
 4815SOL     OW15004   3.421   3.374   6.292
 4815SOL    HW115005   3.378   3.354   6.375
 4815SOL    HW215006   3.350   3.378   6.228
 4816SOL     OW15007   3.045   2.570   6.327
 4816SOL    HW115008   3.071   2.655   6.291
 4816SOL    HW215009   2.953   2.581   6.351
 4817SOL     OW15010   3.630   2.468   5.815
 4817SOL    HW115011   3.609   2.459   5.722
 4817SOL    HW215012   3.592   2.391   5.856
 4818SOL     OW15013   2.633   3.010   6.628
 4818SOL    HW115014   2.556   3.034   6.680
 4818SOL    HW215015   2.658   3.092   6.585
 4819SOL     OW15016   2.725   2.640   7.407
 4819SOL    HW115017   2.714   2.711   7.471
 4819SOL    HW215018   2.750   2.685   7.326
 4820SOL     OW15019   2.562   2.924   6.257
 4820SOL    HW115020   2.616   2.876   6.321
 4820SOL    HW215021   2.490   2.960   6.309
 4821SOL     OW15022   2.571   3.013   7.396
 4821SOL    HW115023   2.619   3.092   7.422
 4821SOL    HW215024   2.488   3.046   7.362
 4822SOL     OW15025   2.193   3.290   6.654
 4822SOL    HW115026   2.120   3.254   6.604
 4822SOL    HW215027   2.244   3.340   6.590
 4823SOL     OW15028   3.323   3.360   6.938
 4823SOL    HW115029   3.371   3.443   6.948
 4823SOL    HW215030   3.265   3.358   7.014
 4824SOL     OW15031   3.475   2.311   6.325
 4824SOL    HW115032   3.394   2.329   6.278
 4824SOL    HW215033   3.492   2.391   6.375
 4825SOL     OW15034   2.085   3.572   6.060
 4825SOL    HW115035   2.104   3.649   6.113
 4825SOL    HW215036   2.155   3.569   5.995
 4826SOL     OW15037   2.998   3.203   7.278
 4826SOL    HW115038   3.038   3.199   7.365
 4826SOL    HW215039   2.946   3.124   7.272
 4827SOL     OW15040   2.085   3.299   6.120
 4827SOL    HW115041   2.080   3.394   6.120
 4827SOL    HW215042   2.020   3.272   6.184
 4828SOL     OW15043   2.114   2.953   6.476
 4828SOL    HW115044   2.098   2.869   6.520
 4828SOL    HW215045   2.060   3.016   6.525
 4829SOL     OW15046   2.475   3.653   7.017
 4829SOL    HW115047   2.393   3.635   7.062
 4829SOL    HW215048   2.498   3.743   7.041
 4830SOL     OW15049   3.457   1.984   7.055
 4830SOL    HW115050   3.461   2.064   7.002
 4830SOL    HW215051   3.445   2.015   7.145
 4831SOL     OW15052   3.704   3.622   5.922
 4831SOL    HW115053   3.765   3.593   5.989
 4831SOL    HW215054   3.729   3.713   5.903
 4832SOL     OW15055   1.892   3.464   5.709
 4832SOL    HW115056   1.876   3.373   5.731
 4832SOL    HW215057   1.869   3.513   5.788
 4833SOL     OW15058   3.556   2.786   6.227
 4833SOL    HW115059   3.637   2.741   6.205
 4833SOL    HW215060   3.532   2.832   6.147
 4834SOL     OW15061   3.507   2.970   6.015
 4834SOL    HW115062   3.593   2.977   5.973
 4834SOL    HW215063   3.513   3.030   6.089
 4835SOL     OW15064   1.984   2.598   7.164
 4835SOL    HW115065   2.072   2.612   7.198
 4835SOL    HW215066   1.937   2.678   7.184
 4836SOL     OW15067   2.477   3.253   6.320
 4836SOL    HW115068   2.426   3.172   6.330
 4836SOL    HW215069   2.463   3.279   6.229
 4837SOL     OW15070   3.151   3.100   7.010
 4837SOL    HW115071   3.184   3.033   6.950
 4837SOL    HW215072   3.208   3.093   7.087
 4838SOL     OW15073   2.051   2.837   6.846
 4838SOL    HW115074   2.133   2.788   6.842
 4838SOL    HW215075   1.984   2.773   6.827
 4839SOL     OW15076   3.396   2.854   5.782
 4839SOL    HW115077   3.326   2.795   5.812
 4839SOL    HW215078   3.434   2.888   5.863
 4840SOL     OW15079   3.047   3.667   7.207
 4840SOL    HW115080   3.060   3.725   7.132
 4840SOL    HW215081   3.063   3.579   7.172
 4841SOL     OW15082   3.328   3.281   6.538
 4841SOL    HW115083   3.260   3.296   6.604
 4841SOL    HW215084   3.316   3.190   6.511
 4842SOL     OW15085   3.522   3.598   6.164
 4842SOL    HW115086   3.500   3.570   6.075
 4842SOL    HW215087   3.496   3.525   6.220
 4843SOL     OW15088   3.144   2.206   6.523
 4843SOL    HW115089   3.056   2.170   6.535
 4843SOL    HW215090   3.199   2.156   6.584
 4844SOL     OW15091   3.443   3.531   5.895
 4844SOL    HW115092   3.533   3.564   5.888
 4844SOL    HW215093   3.417   3.514   5.805
 4845SOL     OW15094   2.648   2.468   7.033
 4845SOL    HW115095   2.632   2.459   7.127
 4845SOL    HW215096   2.597   2.398   6.993
 4846SOL     OW15097   3.256   2.335   7.264
 4846SOL    HW115098   3.257   2.380   7.348
 4846SOL    HW215099   3.318   2.263   7.273
 4847SOL     OW15100   2.817   2.749   7.167
 4847SOL    HW115101   2.872   2.679   7.132
 4847SOL    HW215102   2.772   2.785   7.090
 4848SOL     OW15103   2.863   2.278   6.814
 4848SOL    HW115104   2.778   2.297   6.855
 4848SOL    HW215105   2.842   2.219   6.742
 4849SOL     OW15106   1.989   3.705   7.162
 4849SOL    HW115107   1.989   3.685   7.256
 4849SOL    HW215108   1.897   3.703   7.137
 4850SOL     OW15109   3.572   2.438   7.414
 4850SOL    HW115110   3.534   2.512   7.367
 4850SOL    HW215111   3.598   2.377   7.345
 4851SOL     OW15112   3.242   3.012   6.122
 4851SOL    HW115113   3.320   2.997   6.069
 4851SOL    HW215114   3.189   3.073   6.071
 4852SOL     OW15115   2.450   2.072   6.512
 4852SOL    HW115116   2.455   2.073   6.608
 4852SOL    HW215117   2.450   2.164   6.487
 4853SOL     OW15118   2.870   3.307   6.060
 4853SOL    HW115119   2.830   3.378   6.010
 4853SOL    HW215120   2.854   3.329   6.151
 4854SOL     OW15121   2.216   3.670   6.446
 4854SOL    HW115122   2.260   3.585   6.455
 4854SOL    HW215123   2.285   3.734   6.464
 4855SOL     OW15124   3.661   2.924   6.454
 4855SOL    HW115125   3.607   2.902   6.378
 4855SOL    HW215126   3.598   2.927   6.527
 4856SOL     OW15127   3.090   3.401   7.099
 4856SOL    HW115128   3.076   3.328   7.159
 4856SOL    HW215129   3.028   3.385   7.027
 4857SOL     OW15130   3.345   2.607   6.307
 4857SOL    HW115131   3.324   2.561   6.388
 4857SOL    HW215132   3.422   2.660   6.328
 4858SOL     OW15133   2.327   3.126   7.323
 4858SOL    HW115134   2.299   3.131   7.232
 4858SOL    HW215135   2.246   3.124   7.373
 4859SOL     OW15136   2.982   3.640   5.817
 4859SOL    HW115137   2.911   3.596   5.864
 4859SOL    HW215138   3.006   3.579   5.747
 4860SOL     OW15139   3.491   3.242   5.673
 4860SOL    HW115140   3.449   3.327   5.658
 4860SOL    HW215141   3.422   3.178   5.656
 4861SOL     OW15142   2.329   3.599   5.907
 4861SOL    HW115143   2.370   3.657   5.972
 4861SOL    HW215144   2.401   3.571   5.851
 4862SOL     OW15145   3.269   1.963   6.020
 4862SOL    HW115146   3.254   1.944   5.927
 4862SOL    HW215147   3.364   1.973   6.027
 4863SOL     OW15148   2.117   3.654   6.819
 4863SOL    HW115149   2.169   3.589   6.866
 4863SOL    HW215150   2.107   3.617   6.731
 4864SOL     OW15151   2.800   3.560   6.486
 4864SOL    HW115152   2.878   3.508   6.506
 4864SOL    HW215153   2.755   3.512   6.417
 4865SOL     OW15154   3.399   2.088   7.311
 4865SOL    HW115155   3.407   2.109   7.404
 4865SOL    HW215156   3.331   2.020   7.308
 4866SOL     OW15157   2.630   2.141   7.342
 4866SOL    HW115158   2.704   2.080   7.343
 4866SOL    HW215159   2.579   2.117   7.419
 4867SOL     OW15160   2.738   3.383   6.780
 4867SOL    HW115161   2.723   3.348   6.692
 4867SOL    HW215162   2.808   3.329   6.816
 4868SOL     OW15163   3.201   2.452   7.019
 4868SOL    HW115164   3.234   2.420   7.103
 4868SOL    HW215165   3.240   2.539   7.011
 4869SOL     OW15166   2.676   3.261   6.523
 4869SOL    HW115167   2.761   3.248   6.480
 4869SOL    HW215168   2.612   3.260   6.452
 4870SOL     OW15169   3.291   3.060   5.629
 4870SOL    HW115170   3.322   2.983   5.677
 4870SOL    HW215171   3.202   3.074   5.662
 4871SOL     OW15172   2.942   2.540   7.048
 4871SOL    HW115173   2.877   2.469   7.053
 4871SOL    HW215174   3.026   2.495   7.040
 4872SOL     OW15175   3.086   3.432   6.380
 4872SOL    HW115176   3.104   3.499   6.314
 4872SOL    HW215177   3.154   3.444   6.445
 4873SOL     OW15178   2.314   3.034   6.321
 4873SOL    HW115179   2.247   3.007   6.384
 4873SOL    HW215180   2.291   2.988   6.240
 4874SOL     OW15181   3.132   3.657   6.193
 4874SOL    HW115182   3.177   3.717   6.134
 4874SOL    HW215183   3.067   3.710   6.238
 4875SOL     OW15184   1.923   2.428   6.962
 4875SOL    HW115185   2.015   2.412   6.945
 4875SOL    HW215186   1.922   2.488   7.036
 4876SOL     OW15187   2.442   2.040   6.775
 4876SOL    HW115188   2.470   1.966   6.829
 4876SOL    HW215189   2.347   2.045   6.788
 4877SOL     OW15190   2.913   1.908   6.347
 4877SOL    HW115191   2.847   1.938   6.285
 4877SOL    HW215192   2.878   1.826   6.382
 4878SOL     OW15193   3.298   3.025   6.443
 4878SOL    HW115194   3.230   2.958   6.439
 4878SOL    HW215195   3.324   3.038   6.352
 4879SOL     OW15196   3.328   2.467   6.567
 4879SOL    HW115197   3.282   2.383   6.568
 4879SOL    HW215198   3.389   2.461   6.640
 4880SOL     OW15199   3.709   2.679   5.968
 4880SOL    HW115200   3.765   2.627   6.026
 4880SOL    HW215201   3.680   2.617   5.901
 4881SOL     OW15202   2.358   3.278   5.745
 4881SOL    HW115203   2.281   3.251   5.795
 4881SOL    HW215204   2.345   3.240   5.658
 4882SOL     OW15205   3.531   3.127   6.233
 4882SOL    HW115206   3.626   3.131   6.247
 4882SOL    HW215207   3.501   3.215   6.254
 4883SOL     OW15208   3.253   2.429   5.661
 4883SOL    HW115209   3.205   2.408   5.741
 4883SOL    HW215210   3.343   2.400   5.678
 4884SOL     OW15211   3.615   3.100   7.161
 4884SOL    HW115212   3.702   3.061   7.158
 4884SOL    HW215213   3.630   3.190   7.190
 4885SOL     OW15214   2.921   3.216   6.921
 4885SOL    HW115215   2.847   3.185   6.972
 4885SOL    HW215216   2.997   3.174   6.961
 4886SOL     OW15217   3.469   3.487   7.239
 4886SOL    HW115218   3.464   3.521   7.149
 4886SOL    HW215219   3.552   3.440   7.242
 4887SOL     OW15220   2.990   3.065   6.693
 4887SOL    HW115221   2.929   3.102   6.757
 4887SOL    HW215222   2.955   3.095   6.608
 4888SOL     OW15223   3.491   2.960   6.664
 4888SOL    HW115224   3.486   3.023   6.737
 4888SOL    HW215225   3.411   2.977   6.614
 4889SOL     OW15226   2.784   1.960   6.986
 4889SOL    HW115227   2.804   1.938   6.895
 4889SOL    HW215228   2.864   1.998   7.021
 4890SOL     OW15229   2.846   2.976   7.308
 4890SOL    HW115230   2.754   2.992   7.328
 4890SOL    HW215231   2.845   2.899   7.252
 4891SOL     OW15232   2.263   2.669   6.857
 4891SOL    HW115233   2.345   2.696   6.899
 4891SOL    HW215234   2.243   2.584   6.896
 4892SOL     OW15235   3.131   2.238   6.862
 4892SOL    HW115236   3.162   2.317   6.907
 4892SOL    HW215237   3.042   2.261   6.833
 4893SOL     OW15238   1.931   3.435   6.937
 4893SOL    HW115239   1.900   3.509   6.885
 4893SOL    HW215240   2.026   3.440   6.933
 4894SOL     OW15241   2.471   2.399   6.457
 4894SOL    HW115242   2.402   2.424   6.395
 4894SOL    HW215243   2.449   2.448   6.537
 4895SOL     OW15244   3.110   3.211   5.975
 4895SOL    HW115245   3.165   3.283   6.006
 4895SOL    HW215246   3.023   3.232   6.008
 4896SOL     OW15247   3.141   3.319   6.732
 4896SOL    HW115248   3.196   3.320   6.810
 4896SOL    HW215249   3.086   3.241   6.743
 4897SOL     OW15250   3.444   2.487   6.062
 4897SOL    HW115251   3.399   2.537   6.129
 4897SOL    HW215252   3.487   2.553   6.007
 4898SOL     OW15253   2.209   3.388   6.903
 4898SOL    HW115254   2.196   3.345   6.818
 4898SOL    HW215255   2.304   3.400   6.909
 4899SOL     OW15256   2.278   2.615   7.186
 4899SOL    HW115257   2.340   2.661   7.128
 4899SOL    HW215258   2.321   2.531   7.204
 4900SOL     OW15259   3.461   2.640   7.267
 4900SOL    HW115260   3.375   2.681   7.259
 4900SOL    HW215261   3.514   2.682   7.198
 4901SOL     OW15262   2.857   1.983   7.340
 4901SOL    HW115263   2.913   2.055   7.311
 4901SOL    HW215264   2.906   1.904   7.315
 4902SOL     OW15265   2.357   1.906   7.334
 4902SOL    HW115266   2.319   1.848   7.268
 4902SOL    HW215267   2.296   1.980   7.339
 4903SOL     OW15268   3.220   2.719   6.619
 4903SOL    HW115269   3.145   2.713   6.560
 4903SOL    HW215270   3.261   2.633   6.613
 4904SOL     OW15271   1.911   3.173   6.861
 4904SOL    HW115272   1.942   3.119   6.934
 4904SOL    HW215273   1.916   3.262   6.894
 4905SOL     OW15274   2.615   2.505   6.676
 4905SOL    HW115275   2.642   2.459   6.597
 4905SOL    HW215276   2.608   2.597   6.650
 4906SOL     OW15277   3.596   2.821   7.437
 4906SOL    HW115278   3.549   2.762   7.378
 4906SOL    HW215279   3.536   2.834   7.511
 4907SOL     OW15280   3.478   2.235   5.954
 4907SOL    HW115281   3.504   2.172   6.021
 4907SOL    HW215282   3.454   2.313   6.004
 4908SOL     OW15283   2.879   2.631   6.557
 4908SOL    HW115284   2.883   2.652   6.651
 4908SOL    HW215285   2.901   2.537   6.553
 4909SOL     OW15286   2.844   3.428   7.302
 4909SOL    HW115287   2.829   3.472   7.218
 4909SOL    HW215288   2.887   3.346   7.278
 4910SOL     OW15289   3.717   3.370   7.192
 4910SOL    HW115290   3.734   3.395   7.101
 4910SOL    HW215291   3.799   3.389   7.238
 4911SOL     OW15292   2.218   2.783   7.395
 4911SOL    HW115293   2.301   2.797   7.440
 4911SOL    HW215294   2.239   2.723   7.323
 4912SOL     OW15295   3.392   2.137   5.714
 4912SOL    HW115296   3.328   2.070   5.739
 4912SOL    HW215297   3.425   2.172   5.797
 4913SOL     OW15298   3.156   2.686   5.616
 4913SOL    HW115299   3.196   2.599   5.618
 4913SOL    HW215300   3.188   2.726   5.535
 4914SOL     OW15301   2.926   3.198   6.440
 4914SOL    HW115302   2.929   3.124   6.379
 4914SOL    HW215303   2.989   3.261   6.404
 4915SOL     OW15304   2.996   2.241   7.266
 4915SOL    HW115305   2.950   2.295   7.330
 4915SOL    HW215306   3.084   2.277   7.263
 4916SOL     OW15307   3.023   2.067   7.056
 4916SOL    HW115308   3.014   2.130   7.127
 4916SOL    HW215309   3.064   2.117   6.985
 4917SOL     OW15310   1.855   3.203   5.779
 4917SOL    HW115311   1.770   3.222   5.740
 4917SOL    HW215312   1.852   3.109   5.798
 4918SOL     OW15313   1.951   3.649   6.522
 4918SOL    HW115314   1.923   3.569   6.478
 4918SOL    HW215315   2.041   3.662   6.492
 4919SOL     OW15316   2.359   3.436   6.492
 4919SOL    HW115317   2.428   3.498   6.517
 4919SOL    HW215318   2.404   3.373   6.436
 4920SOL     OW15319   2.848   2.659   6.821
 4920SOL    HW115320   2.902   2.632   6.895
 4920SOL    HW215321   2.765   2.613   6.834
 4921SOL     OW15322   3.238   2.802   7.245
 4921SOL    HW115323   3.259   2.896   7.244
 4921SOL    HW215324   3.237   2.777   7.152
 4922SOL     OW15325   3.505   2.463   6.775
 4922SOL    HW115326   3.494   2.402   6.848
 4922SOL    HW215327   3.591   2.443   6.739
 4923SOL     OW15328   2.108   3.414   7.315
 4923SOL    HW115329   2.083   3.478   7.382
 4923SOL    HW215330   2.107   3.330   7.361
 4924SOL     OW15331   2.790   3.541   7.053
 4924SOL    HW115332   2.765   3.508   6.967
 4924SOL    HW215333   2.788   3.636   7.044
 4925SOL     OW15334   2.010   3.002   7.058
 4925SOL    HW115335   2.012   2.947   7.136
 4925SOL    HW215336   2.027   2.941   6.986
 4926SOL     OW15337   3.189   2.910   6.810
 4926SOL    HW115338   3.212   2.846   6.742
 4926SOL    HW215339   3.118   2.961   6.771
 4927SOL     OW15340   3.177   2.715   5.888
 4927SOL    HW115341   3.097   2.697   5.938
 4927SOL    HW215342   3.151   2.708   5.797
 4928SOL     OW15343   3.633   3.607   6.736
 4928SOL    HW115344   3.692   3.633   6.665
 4928SOL    HW215345   3.608   3.517   6.714
 4929SOL     OW15346   3.103   3.595   6.701
 4929SOL    HW115347   3.185   3.615   6.655
 4929SOL    HW215348   3.108   3.501   6.719
 4930SOL     OW15349   1.948   3.131   6.596
 4930SOL    HW115350   1.934   3.141   6.691
 4930SOL    HW215351   1.875   3.077   6.567
 4931SOL     OW15352   2.539   3.527   7.313
 4931SOL    HW115353   2.487   3.607   7.309
 4931SOL    HW215354   2.604   3.537   7.242
 4932SOL     OW15355   3.581   2.006   6.097
 4932SOL    HW115356   3.654   1.992   6.037
 4932SOL    HW215357   3.565   1.920   6.137
 4933SOL     OW15358   3.252   3.430   6.070
 4933SOL    HW115359   3.313   3.461   6.003
 4933SOL    HW215360   3.204   3.508   6.098
 4934SOL     OW15361   1.998   3.658   7.429
 4934SOL    HW115362   1.947   3.593   7.477
 4934SOL    HW215363   2.045   3.707   7.496
 4935SOL     OW15364   3.149   2.804   6.257
 4935SOL    HW115365   3.220   2.740   6.257
 4935SOL    HW215366   3.181   2.876   6.203
 4936SOL     OW15367   2.678   3.135   7.017
 4936SOL    HW115368   2.650   3.174   7.100
 4936SOL    HW215369   2.609   3.156   6.955
 4937SOL     OW15370   2.534   3.483   5.741
 4937SOL    HW115371   2.545   3.493   5.647
 4937SOL    HW215372   2.481   3.404   5.751
 4938SOL     OW15373   3.491   3.588   6.978
 4938SOL    HW115374   3.540   3.596   6.896
 4938SOL    HW215375   3.478   3.679   7.006
 4939SOL     OW15376   3.702   2.035   6.554
 4939SOL    HW115377   3.731   1.948   6.525
 4939SOL    HW215378   3.616   2.046   6.514
 4940SOL     OW15379   3.068   3.470   5.617
 4940SOL    HW115380   3.059   3.379   5.645
 4940SOL    HW215381   3.004   3.480   5.547
 4941SOL     OW15382   2.686   2.869   6.958
 4941SOL    HW115383   2.730   2.866   6.873
 4941SOL    HW215384   2.686   2.962   6.981
 4942SOL     OW15385   3.355   3.488   5.628
 4942SOL    HW115386   3.260   3.481   5.616
 4942SOL    HW215387   3.391   3.493   5.540
 4943SOL     OW15388   2.232   3.164   7.077
 4943SOL    HW115389   2.218   3.241   7.023
 4943SOL    HW215390   2.154   3.109   7.062
 4944SOL     OW15391   3.473   3.145   6.867
 4944SOL    HW115392   3.532   3.135   6.941
 4944SOL    HW215393   3.413   3.215   6.893
 4945SOL     OW15394   2.910   2.967   6.296
 4945SOL    HW115395   2.836   2.913   6.323
 4945SOL    HW215396   2.975   2.904   6.264
 4946SOL     OW15397   2.898   2.080   6.581
 4946SOL    HW115398   2.892   2.040   6.494
 4946SOL    HW215399   2.884   2.008   6.642
 4947SOL     OW15400   2.462   3.352   6.068
 4947SOL    HW115401   2.509   3.303   6.000
 4947SOL    HW215402   2.398   3.404   6.019
 4948SOL     OW15403   3.583   2.254   6.966
 4948SOL    HW115404   3.654   2.317   6.965
 4948SOL    HW215405   3.612   2.182   6.910
 4949SOL     OW15406   2.114   3.226   5.862
 4949SOL    HW115407   2.020   3.236   5.847
 4949SOL    HW215408   2.127   3.247   5.954
 4950SOL     OW15409   1.974   2.880   7.304
 4950SOL    HW115410   1.897   2.858   7.357
 4950SOL    HW215411   2.048   2.845   7.353
 4951SOL     OW15412   2.542   2.048   7.084
 4951SOL    HW115413   2.628   2.029   7.047
 4951SOL    HW215414   2.561   2.088   7.170
 4952SOL     OW15415   3.293   2.721   6.987
 4952SOL    HW115416   3.244   2.781   6.930
 4952SOL    HW215417   3.382   2.722   6.953
 4953SOL     OW15418   3.041   3.207   5.703
 4953SOL    HW115419   2.957   3.160   5.703
 4953SOL    HW215420   3.070   3.203   5.794
 4954SOL     OW15421   2.484   2.693   7.015
 4954SOL    HW115422   2.538   2.771   7.001
 4954SOL    HW215423   2.546   2.621   7.022
 4955SOL     OW15424   3.346   3.638   6.563
 4955SOL    HW115425   3.371   3.696   6.491
 4955SOL    HW215426   3.428   3.620   6.609
 4956SOL     OW15427   2.584   2.428   7.291
 4956SOL    HW115428   2.621   2.493   7.351
 4956SOL    HW215429   2.615   2.344   7.323
 4957SOL     OW15430   3.332   3.064   7.219
 4957SOL    HW115431   3.320   3.077   7.313
 4957SOL    HW215432   3.426   3.077   7.204
 4958SOL     OW15433   2.243   3.601   7.150
 4958SOL    HW115434   2.157   3.642   7.137
 4958SOL    HW215435   2.224   3.518   7.192
 4959SOL     OW15436   3.532   2.743   6.842
 4959SOL    HW115437   3.526   2.658   6.799
 4959SOL    HW215438   3.523   2.807   6.770
 4960SOL     OW15439   3.110   2.188   6.056
 4960SOL    HW115440   3.168   2.111   6.053
 4960SOL    HW215441   3.140   2.237   6.133
 4961SOL     OW15442   3.626   2.222   7.236
 4961SOL    HW115443   3.609   2.237   7.143
 4961SOL    HW215444   3.554   2.166   7.265
 4962SOL     OW15445   3.606   2.796   7.099
 4962SOL    HW115446   3.606   2.890   7.111
 4962SOL    HW215447   3.591   2.784   7.005
 4963SOL     OW15448   2.719   3.242   5.619
 4963SOL    HW115449   2.690   3.274   5.704
 4963SOL    HW215450   2.749   3.320   5.573
 4964SOL     OW15451   2.521   3.655   6.532
 4964SOL    HW115452   2.502   3.745   6.508
 4964SOL    HW215453   2.616   3.648   6.525
 4965SOL     OW15454   2.717   2.819   6.451
 4965SOL    HW115455   2.778   2.756   6.489
 4965SOL    HW215456   2.696   2.879   6.523
 4966SOL     OW15457   2.970   2.878   5.678
 4966SOL    HW115458   2.926   2.906   5.597
 4966SOL    HW215459   3.024   2.804   5.650
 4967SOL     OW15460   3.717   3.418   6.431
 4967SOL    HW115461   3.640   3.406   6.376
 4967SOL    HW215462   3.710   3.349   6.497
 4968SOL     OW15463   2.086   3.166   7.442
 4968SOL    HW115464   2.019   3.104   7.412
 4968SOL    HW215465   2.068   3.179   7.535
 4969SOL     OW15466   1.939   3.088   6.248
 4969SOL    HW115467   1.931   3.042   6.331
 4969SOL    HW215468   2.030   3.073   6.221
 4970SOL     OW15469   2.542   3.264   7.212
 4970SOL    HW115470   2.462   3.220   7.243
 4970SOL    HW215471   2.537   3.352   7.250
 4971SOL     OW15472   3.676   2.046   6.825
 4971SOL    HW115473   3.684   1.952   6.839
 4971SOL    HW215474   3.685   2.058   6.730
 4972SOL     OW15475   3.562   3.353   6.685
 4972SOL    HW115476   3.482   3.328   6.639
 4972SOL    HW215477   3.576   3.283   6.749
 4973SOL     OW15478   2.689   3.442   6.265
 4973SOL    HW115479   2.678   3.488   6.182
 4973SOL    HW215480   2.613   3.384   6.270
 4974SOL     OW15481   3.298   2.086   6.707
 4974SOL    HW115482   3.321   2.005   6.752
 4974SOL    HW215483   3.244   2.134   6.770
 4975SOL     OW15484   2.869   1.865   6.741
 4975SOL    HW115485   2.813   1.791   6.717
 4975SOL    HW215486   2.958   1.830   6.736
 4976SOL     OW15487   2.633   3.205   5.901
 4976SOL    HW115488   2.600   3.116   5.885
 4976SOL    HW215489   2.715   3.192   5.947
 4977SOL     OW15490   2.481   3.420   6.870
 4977SOL    HW115491   2.485   3.501   6.921
 4977SOL    HW215492   2.569   3.411   6.832
 4978SOL     OW15493   3.219   1.919   5.749
 4978SOL    HW115494   3.243   1.860   5.678
 4978SOL    HW215495   3.134   1.886   5.780
 4979SOL     OW15496   3.186   2.328   6.279
 4979SOL    HW115497   3.133   2.408   6.281
 4979SOL    HW215498   3.167   2.283   6.361
 4980SOL     OW15499   3.450   2.066   6.463
 4980SOL    HW115500   3.387   2.085   6.532
 4980SOL    HW215501   3.449   2.144   6.408
 4981SOL     OW15502   2.745   3.513   5.931
 4981SOL    HW115503   2.673   3.496   5.869
 4981SOL    HW215504   2.716   3.590   5.981
 4982SOL     OW15505   2.067   2.526   7.565
 4982SOL    HW115506   1.985   2.499   7.607
 4982SOL    HW215507   2.077   2.466   7.491
 4983SOL     OW15508   1.865   2.247   8.079
 4983SOL    HW115509   1.784   2.267   8.127
 4983SOL    HW215510   1.849   2.161   8.040
 4984SOL     OW15511   2.428   3.147   8.622
 4984SOL    HW115512   2.341   3.150   8.583
 4984SOL    HW215513   2.443   3.235   8.655
 4985SOL     OW15514   3.421   3.373   8.154
 4985SOL    HW115515   3.378   3.354   8.237
 4985SOL    HW215516   3.350   3.378   8.090
 4986SOL     OW15517   2.991   2.560   8.150
 4986SOL    HW115518   3.041   2.641   8.136
 4986SOL    HW215519   2.946   2.574   8.234
 4987SOL     OW15520   3.628   2.468   7.677
 4987SOL    HW115521   3.608   2.460   7.584
 4987SOL    HW215522   3.592   2.389   7.717
 4988SOL     OW15523   2.618   3.005   8.487
 4988SOL    HW115524   2.549   3.039   8.543
 4988SOL    HW215525   2.653   3.082   8.442
 4989SOL     OW15526   2.724   2.641   9.269
 4989SOL    HW115527   2.715   2.712   9.333
 4989SOL    HW215528   2.750   2.684   9.188
 4990SOL     OW15529   2.548   2.865   8.097
 4990SOL    HW115530   2.613   2.853   8.166
 4990SOL    HW215531   2.479   2.918   8.138
 4991SOL     OW15532   2.571   3.014   9.258
 4991SOL    HW115533   2.619   3.092   9.284
 4991SOL    HW215534   2.488   3.046   9.224
 4992SOL     OW15535   2.193   3.289   8.516
 4992SOL    HW115536   2.120   3.252   8.466
 4992SOL    HW215537   2.243   3.339   8.452
 4993SOL     OW15538   3.323   3.361   8.800
 4993SOL    HW115539   3.371   3.443   8.810
 4993SOL    HW215540   3.264   3.358   8.876
 4994SOL     OW15541   3.475   2.311   8.188
 4994SOL    HW115542   3.399   2.336   8.134
 4994SOL    HW215543   3.493   2.388   8.241
 4995SOL     OW15544   2.082   3.575   7.922
 4995SOL    HW115545   2.104   3.652   7.974
 4995SOL    HW215546   2.153   3.568   7.858
 4996SOL     OW15547   2.998   3.203   9.140
 4996SOL    HW115548   3.038   3.199   9.227
 4996SOL    HW215549   2.946   3.123   9.134
 4997SOL     OW15550   2.093   3.302   7.983
 4997SOL    HW115551   2.075   3.396   7.987
 4997SOL    HW215552   2.031   3.263   8.045
 4998SOL     OW15553   2.119   2.954   8.339
 4998SOL    HW115554   2.114   2.867   8.378
 4998SOL    HW215555   2.059   3.008   8.391
 4999SOL     OW15556   2.476   3.653   8.879
 4999SOL    HW115557   2.393   3.635   8.924
 4999SOL    HW215558   2.498   3.742   8.903
 5000SOL     OW15559   2.451   2.841   7.578
 5000SOL    HW115560   2.495   2.894   7.511
 5000SOL    HW215561   2.489   2.870   7.661
 5001SOL     OW15562   3.458   1.984   8.917
 5001SOL    HW115563   3.461   2.064   8.865
 5001SOL    HW215564   3.445   2.014   9.007
 5002SOL     OW15565   1.969   2.506   8.008
 5002SOL    HW115566   1.943   2.417   8.032
 5002SOL    HW215567   1.966   2.555   8.090
 5003SOL     OW15568   3.704   3.622   7.784
 5003SOL    HW115569   3.765   3.593   7.851
 5003SOL    HW215570   3.729   3.713   7.765
 5004SOL     OW15571   1.893   3.458   7.572
 5004SOL    HW115572   1.875   3.366   7.592
 5004SOL    HW215573   1.869   3.505   7.652
 5005SOL     OW15574   3.551   2.781   8.088
 5005SOL    HW115575   3.636   2.740   8.069
 5005SOL    HW215576   3.530   2.830   8.008
 5006SOL     OW15577   3.507   2.969   7.877
 5006SOL    HW115578   3.593   2.976   7.835
 5006SOL    HW215579   3.512   3.030   7.951
 5007SOL     OW15580   1.985   2.597   9.029
 5007SOL    HW115581   2.073   2.619   9.061
 5007SOL    HW215582   1.934   2.676   9.042
 5008SOL     OW15583   2.475   3.246   8.183
 5008SOL    HW115584   2.429   3.163   8.193
 5008SOL    HW215585   2.459   3.273   8.093
 5009SOL     OW15586   3.152   3.100   8.872
 5009SOL    HW115587   3.184   3.033   8.812
 5009SOL    HW215588   3.208   3.093   8.949
 5010SOL     OW15589   2.675   1.862   7.954
 5010SOL    HW115590   2.716   1.946   7.937
 5010SOL    HW215591   2.582   1.882   7.963
 5011SOL     OW15592   2.052   2.831   8.717
 5011SOL    HW115593   2.136   2.788   8.699
 5011SOL    HW215594   1.987   2.776   8.675
 5012SOL     OW15595   3.394   2.854   7.645
 5012SOL    HW115596   3.324   2.797   7.676
 5012SOL    HW215597   3.434   2.889   7.725
 5013SOL     OW15598   3.047   3.667   9.069
 5013SOL    HW115599   3.060   3.725   8.994
 5013SOL    HW215600   3.063   3.579   9.034
 5014SOL     OW15601   3.328   3.282   8.400
 5014SOL    HW115602   3.260   3.296   8.466
 5014SOL    HW215603   3.316   3.191   8.373
 5015SOL     OW15604   3.522   3.598   8.026
 5015SOL    HW115605   3.501   3.569   7.937
 5015SOL    HW215606   3.496   3.525   8.082
 5016SOL     OW15607   2.467   2.585   7.710
 5016SOL    HW115608   2.473   2.661   7.652
 5016SOL    HW215609   2.386   2.599   7.759
 5017SOL     OW15610   3.141   2.212   8.380
 5017SOL    HW115611   3.052   2.179   8.389
 5017SOL    HW215612   3.192   2.159   8.442
 5018SOL     OW15613   3.443   3.531   7.757
 5018SOL    HW115614   3.533   3.564   7.751
 5018SOL    HW215615   3.417   3.514   7.666
 5019SOL     OW15616   2.651   2.468   8.893
 5019SOL    HW115617   2.635   2.458   8.987
 5019SOL    HW215618   2.602   2.397   8.852
 5020SOL     OW15619   3.256   2.336   9.126
 5020SOL    HW115620   3.257   2.380   9.211
 5020SOL    HW215621   3.318   2.263   9.135
 5021SOL     OW15622   2.817   2.749   9.029
 5021SOL    HW115623   2.873   2.680   8.993
 5021SOL    HW215624   2.771   2.784   8.953
 5022SOL     OW15625   2.862   2.271   8.686
 5022SOL    HW115626   2.783   2.313   8.721
 5022SOL    HW215627   2.833   2.231   8.603
 5023SOL     OW15628   2.912   2.560   7.874
 5023SOL    HW115629   2.926   2.555   7.968
 5023SOL    HW215630   2.829   2.514   7.860
 5024SOL     OW15631   1.952   2.682   8.223
 5024SOL    HW115632   2.033   2.678   8.273
 5024SOL    HW215633   1.906   2.759   8.258
 5025SOL     OW15634   1.990   3.705   9.025
 5025SOL    HW115635   1.989   3.685   9.118
 5025SOL    HW215636   1.898   3.703   8.999
 5026SOL     OW15637   2.754   2.208   7.643
 5026SOL    HW115638   2.795   2.270   7.583
 5026SOL    HW215639   2.766   2.123   7.602
 5027SOL     OW15640   3.572   2.438   9.276
 5027SOL    HW115641   3.534   2.512   9.229
 5027SOL    HW215642   3.598   2.377   9.207
 5028SOL     OW15643   3.238   3.004   7.990
 5028SOL    HW115644   3.317   2.991   7.937
 5028SOL    HW215645   3.185   3.066   7.939
 5029SOL     OW15646   2.869   3.307   7.921
 5029SOL    HW115647   2.830   3.379   7.872
 5029SOL    HW215648   2.853   3.329   8.013
 5030SOL     OW15649   2.216   3.669   8.308
 5030SOL    HW115650   2.260   3.585   8.316
 5030SOL    HW215651   2.285   3.734   8.326
 5031SOL     OW15652   3.660   2.922   8.316
 5031SOL    HW115653   3.604   2.904   8.240
 5031SOL    HW215654   3.599   2.926   8.389
 5032SOL     OW15655   3.090   3.401   8.961
 5032SOL    HW115656   3.076   3.328   9.021
 5032SOL    HW215657   3.028   3.385   8.889
 5033SOL     OW15658   2.188   2.807   7.701
 5033SOL    HW115659   2.264   2.830   7.649
 5033SOL    HW215660   2.147   2.734   7.655
 5034SOL     OW15661   3.339   2.602   8.175
 5034SOL    HW115662   3.329   2.558   8.260
 5034SOL    HW215663   3.416   2.658   8.186
 5035SOL     OW15664   2.327   3.126   9.185
 5035SOL    HW115665   2.299   3.131   9.094
 5035SOL    HW215666   2.245   3.124   9.235
 5036SOL     OW15667   2.983   3.640   7.679
 5036SOL    HW115668   2.911   3.597   7.726
 5036SOL    HW215669   3.005   3.579   7.609
 5037SOL     OW15670   1.963   2.105   8.955
 5037SOL    HW115671   1.992   2.190   8.923
 5037SOL    HW215672   2.038   2.069   9.003
 5038SOL     OW15673   3.491   3.241   7.535
 5038SOL    HW115674   3.450   3.327   7.520
 5038SOL    HW215675   3.422   3.178   7.516
 5039SOL     OW15676   2.329   3.600   7.769
 5039SOL    HW115677   2.370   3.657   7.834
 5039SOL    HW215678   2.401   3.570   7.714
 5040SOL     OW15679   3.263   1.970   7.879
 5040SOL    HW115680   3.252   1.945   7.788
 5040SOL    HW215681   3.358   1.976   7.892
 5041SOL     OW15682   2.117   3.654   8.680
 5041SOL    HW115683   2.169   3.588   8.727
 5041SOL    HW215684   2.106   3.618   8.593
 5042SOL     OW15685   2.800   3.560   8.348
 5042SOL    HW115686   2.877   3.508   8.368
 5042SOL    HW215687   2.755   3.511   8.279
 5043SOL     OW15688   3.399   2.087   9.173
 5043SOL    HW115689   3.407   2.109   9.266
 5043SOL    HW215690   3.330   2.021   9.170
 5044SOL     OW15691   2.490   1.992   7.552
 5044SOL    HW115692   2.558   1.930   7.577
 5044SOL    HW215693   2.447   1.952   7.476
 5045SOL     OW15694   2.628   2.141   9.200
 5045SOL    HW115695   2.702   2.081   9.205
 5045SOL    HW215696   2.575   2.121   9.278
 5046SOL     OW15697   2.738   3.383   8.642
 5046SOL    HW115698   2.723   3.347   8.554
 5046SOL    HW215699   2.808   3.329   8.678
 5047SOL     OW15700   3.201   2.452   8.881
 5047SOL    HW115701   3.233   2.420   8.965
 5047SOL    HW215702   3.239   2.539   8.873
 5048SOL     OW15703   2.676   3.258   8.386
 5048SOL    HW115704   2.760   3.247   8.341
 5048SOL    HW215705   2.611   3.258   8.315
 5049SOL     OW15706   2.785   2.367   8.353
 5049SOL    HW115707   2.762   2.362   8.260
 5049SOL    HW215708   2.822   2.281   8.373
 5050SOL     OW15709   2.409   1.932   7.946
 5050SOL    HW115710   2.329   1.929   7.999
 5050SOL    HW215711   2.407   2.019   7.906
 5051SOL     OW15712   3.290   3.060   7.489
 5051SOL    HW115713   3.321   2.984   7.539
 5051SOL    HW215714   3.205   3.080   7.527
 5052SOL     OW15715   2.156   1.894   7.628
 5052SOL    HW115716   2.220   1.958   7.596
 5052SOL    HW215717   2.208   1.827   7.672
 5053SOL     OW15718   2.798   2.108   7.908
 5053SOL    HW115719   2.773   2.150   7.826
 5053SOL    HW215720   2.893   2.120   7.913
 5054SOL     OW15721   2.940   2.541   8.905
 5054SOL    HW115722   2.876   2.471   8.915
 5054SOL    HW215723   3.024   2.495   8.900
 5055SOL     OW15724   3.086   3.432   8.242
 5055SOL    HW115725   3.103   3.499   8.176
 5055SOL    HW215726   3.154   3.444   8.308
 5056SOL     OW15727   2.330   3.011   8.182
 5056SOL    HW115728   2.260   2.993   8.245
 5056SOL    HW215729   2.291   2.994   8.097
 5057SOL     OW15730   3.132   3.656   8.055
 5057SOL    HW115731   3.177   3.717   7.997
 5057SOL    HW215732   3.067   3.710   8.100
 5058SOL     OW15733   2.887   2.406   7.469
 5058SOL    HW115734   2.845   2.490   7.450
 5058SOL    HW215735   2.951   2.426   7.537
 5059SOL     OW15736   1.953   2.410   8.834
 5059SOL    HW115737   2.046   2.392   8.843
 5059SOL    HW215738   1.935   2.478   8.899
 5060SOL     OW15739   2.725   2.318   8.088
 5060SOL    HW115740   2.685   2.377   8.025
 5060SOL    HW215741   2.750   2.241   8.037
 5061SOL     OW15742   2.875   1.915   8.201
 5061SOL    HW115743   2.819   1.905   8.124
 5061SOL    HW215744   2.855   1.838   8.256
 5062SOL     OW15745   3.298   3.025   8.305
 5062SOL    HW115746   3.230   2.958   8.305
 5062SOL    HW215747   3.321   3.037   8.213
 5063SOL     OW15748   3.329   2.466   8.427
 5063SOL    HW115749   3.280   2.384   8.431
 5063SOL    HW215750   3.389   2.461   8.501
 5064SOL     OW15751   3.709   2.679   7.830
 5064SOL    HW115752   3.764   2.628   7.888
 5064SOL    HW215753   3.680   2.617   7.763
 5065SOL     OW15754   2.353   3.278   7.607
 5065SOL    HW115755   2.278   3.249   7.659
 5065SOL    HW215756   2.336   3.245   7.519
 5066SOL     OW15757   3.531   3.127   8.095
 5066SOL    HW115758   3.626   3.130   8.108
 5066SOL    HW215759   3.500   3.215   8.116
 5067SOL     OW15760   3.256   2.434   7.519
 5067SOL    HW115761   3.195   2.415   7.591
 5067SOL    HW215762   3.340   2.401   7.550
 5068SOL     OW15763   3.615   3.100   9.023
 5068SOL    HW115764   3.702   3.061   9.020
 5068SOL    HW215765   3.630   3.190   9.052
 5069SOL     OW15766   2.922   3.216   8.783
 5069SOL    HW115767   2.847   3.185   8.834
 5069SOL    HW215768   2.998   3.174   8.823
 5070SOL     OW15769   3.469   3.487   9.101
 5070SOL    HW115770   3.464   3.521   9.011
 5070SOL    HW215771   3.552   3.440   9.104
 5071SOL     OW15772   2.990   3.065   8.554
 5071SOL    HW115773   2.930   3.102   8.619
 5071SOL    HW215774   2.956   3.095   8.470
 5072SOL     OW15775   3.491   2.961   8.526
 5072SOL    HW115776   3.487   3.023   8.599
 5072SOL    HW215777   3.411   2.977   8.476
 5073SOL     OW15778   2.787   1.956   8.846
 5073SOL    HW115779   2.807   1.939   8.754
 5073SOL    HW215780   2.866   1.997   8.881
 5074SOL     OW15781   2.846   2.976   9.170
 5074SOL    HW115782   2.754   2.992   9.190
 5074SOL    HW215783   2.845   2.899   9.114
 5075SOL     OW15784   2.570   2.923   7.819
 5075SOL    HW115785   2.556   2.907   7.913
 5075SOL    HW215786   2.646   2.869   7.797
 5076SOL     OW15787   2.280   2.675   8.699
 5076SOL    HW115788   2.351   2.691   8.762
 5076SOL    HW215789   2.245   2.590   8.725
 5077SOL     OW15790   3.132   2.239   8.722
 5077SOL    HW115791   3.162   2.318   8.768
 5077SOL    HW215792   3.041   2.259   8.698
 5078SOL     OW15793   1.931   3.435   8.800
 5078SOL    HW115794   1.899   3.508   8.746
 5078SOL    HW215795   2.026   3.440   8.794
 5079SOL     OW15796   2.215   2.968   7.937
 5079SOL    HW115797   2.218   3.045   7.881
 5079SOL    HW215798   2.210   2.894   7.876
 5080SOL     OW15799   3.110   3.210   7.837
 5080SOL    HW115800   3.166   3.282   7.868
 5080SOL    HW215801   3.023   3.231   7.871
 5081SOL     OW15802   3.141   3.319   8.594
 5081SOL    HW115803   3.196   3.321   8.672
 5081SOL    HW215804   3.086   3.241   8.606
 5082SOL     OW15805   3.444   2.486   7.925
 5082SOL    HW115806   3.399   2.540   7.990
 5082SOL    HW215807   3.489   2.548   7.869
 5083SOL     OW15808   2.209   3.388   8.764
 5083SOL    HW115809   2.196   3.345   8.680
 5083SOL    HW215810   2.304   3.400   8.771
 5084SOL     OW15811   2.278   2.626   9.053
 5084SOL    HW115812   2.341   2.667   8.993
 5084SOL    HW215813   2.324   2.549   9.087
 5085SOL     OW15814   3.462   2.640   9.129
 5085SOL    HW115815   3.375   2.681   9.121
 5085SOL    HW215816   3.514   2.682   9.060
 5086SOL     OW15817   2.857   1.983   9.203
 5086SOL    HW115818   2.912   2.055   9.173
 5086SOL    HW215819   2.905   1.904   9.178
 5087SOL     OW15820   2.364   1.897   9.194
 5087SOL    HW115821   2.324   1.840   9.128
 5087SOL    HW215822   2.304   1.971   9.201
 5088SOL     OW15823   2.437   2.736   8.473
 5088SOL    HW115824   2.480   2.821   8.474
 5088SOL    HW215825   2.388   2.733   8.556
 5089SOL     OW15826   3.221   2.721   8.479
 5089SOL    HW115827   3.138   2.712   8.433
 5089SOL    HW215828   3.260   2.634   8.475
 5090SOL     OW15829   3.068   2.391   7.716
 5090SOL    HW115830   3.075   2.312   7.770
 5090SOL    HW215831   3.025   2.455   7.772
 5091SOL     OW15832   1.910   3.172   8.725
 5091SOL    HW115833   1.942   3.119   8.797
 5091SOL    HW215834   1.915   3.262   8.757
 5092SOL     OW15835   2.614   2.514   8.534
 5092SOL    HW115836   2.650   2.465   8.460
 5092SOL    HW215837   2.555   2.578   8.493
 5093SOL     OW15838   3.596   2.822   9.299
 5093SOL    HW115839   3.549   2.762   9.241
 5093SOL    HW215840   3.536   2.834   9.373
 5094SOL     OW15841   2.166   1.933   8.076
 5094SOL    HW115842   2.142   2.022   8.103
 5094SOL    HW215843   2.166   1.883   8.157
 5095SOL     OW15844   3.477   2.235   7.816
 5095SOL    HW115845   3.504   2.172   7.882
 5095SOL    HW215846   3.454   2.314   7.866
 5096SOL     OW15847   2.892   2.620   8.408
 5096SOL    HW115848   2.888   2.641   8.502
 5096SOL    HW215849   2.855   2.532   8.402
 5097SOL     OW15850   2.844   3.428   9.164
 5097SOL    HW115851   2.829   3.472   9.080
 5097SOL    HW215852   2.887   3.346   9.140
 5098SOL     OW15853   3.717   3.370   9.054
 5098SOL    HW115854   3.735   3.395   8.963
 5098SOL    HW215855   3.798   3.389   9.100
 5099SOL     OW15856   2.217   2.787   9.263
 5099SOL    HW115857   2.301   2.800   9.306
 5099SOL    HW215858   2.237   2.730   9.188
 5100SOL     OW15859   3.392   2.135   7.575
 5100SOL    HW115860   3.327   2.070   7.602
 5100SOL    HW215861   3.425   2.171   7.658
 5101SOL     OW15862   3.155   2.689   7.480
 5101SOL    HW115863   3.198   2.603   7.483
 5101SOL    HW215864   3.186   2.728   7.398
 5102SOL     OW15865   2.927   3.197   8.301
 5102SOL    HW115866   2.930   3.124   8.239
 5102SOL    HW215867   2.989   3.261   8.266
 5103SOL     OW15868   2.174   2.676   8.391
 5103SOL    HW115869   2.267   2.699   8.388
 5103SOL    HW215870   2.171   2.593   8.439
 5104SOL     OW15871   2.996   2.241   9.127
 5104SOL    HW115872   2.950   2.294   9.192
 5104SOL    HW215873   3.084   2.277   9.125
 5105SOL     OW15874   3.025   2.066   8.918
 5105SOL    HW115875   3.014   2.129   8.989
 5105SOL    HW215876   3.064   2.118   8.847
 5106SOL     OW15877   1.867   3.183   7.643
 5106SOL    HW115878   1.780   3.198   7.605
 5106SOL    HW215879   1.864   3.094   7.676
 5107SOL     OW15880   1.952   3.650   8.385
 5107SOL    HW115881   1.922   3.570   8.342
 5107SOL    HW215882   2.042   3.662   8.354
 5108SOL     OW15883   2.360   3.435   8.354
 5108SOL    HW115884   2.428   3.498   8.378
 5108SOL    HW215885   2.404   3.371   8.298
 5109SOL     OW15886   2.848   2.661   8.674
 5109SOL    HW115887   2.894   2.630   8.753
 5109SOL    HW215888   2.764   2.614   8.676
 5110SOL     OW15889   1.903   2.424   8.565
 5110SOL    HW115890   1.950   2.352   8.521
 5110SOL    HW215891   1.923   2.413   8.657
 5111SOL     OW15892   3.238   2.802   9.107
 5111SOL    HW115893   3.259   2.896   9.106
 5111SOL    HW215894   3.236   2.777   9.014
 5112SOL     OW15895   2.677   2.429   7.807
 5112SOL    HW115896   2.680   2.356   7.746
 5112SOL    HW215897   2.603   2.482   7.778
 5113SOL     OW15898   3.504   2.463   8.636
 5113SOL    HW115899   3.494   2.403   8.710
 5113SOL    HW215900   3.591   2.443   8.601
 5114SOL     OW15901   2.108   3.414   9.177
 5114SOL    HW115902   2.083   3.478   9.244
 5114SOL    HW215903   2.107   3.330   9.223
 5115SOL     OW15904   2.791   3.541   8.915
 5115SOL    HW115905   2.765   3.508   8.829
 5115SOL    HW215906   2.788   3.636   8.906
 5116SOL     OW15907   2.010   3.002   8.921
 5116SOL    HW115908   2.011   2.948   9.001
 5116SOL    HW215909   2.026   2.940   8.850
 5117SOL     OW15910   3.190   2.910   8.672
 5117SOL    HW115911   3.213   2.847   8.604
 5117SOL    HW215912   3.118   2.961   8.634
 5118SOL     OW15913   3.172   2.718   7.755
 5118SOL    HW115914   3.096   2.689   7.804
 5118SOL    HW215915   3.148   2.705   7.663
 5119SOL     OW15916   3.633   3.607   8.598
 5119SOL    HW115917   3.692   3.634   8.527
 5119SOL    HW215918   3.608   3.517   8.576
 5120SOL     OW15919   3.103   3.595   8.563
 5120SOL    HW115920   3.185   3.615   8.517
 5120SOL    HW215921   3.108   3.501   8.581
 5121SOL     OW15922   1.946   3.128   8.461
 5121SOL    HW115923   1.932   3.140   8.555
 5121SOL    HW215924   1.871   3.075   8.433
 5122SOL     OW15925   2.539   3.527   9.175
 5122SOL    HW115926   2.486   3.606   9.171
 5122SOL    HW215927   2.603   3.537   9.104
 5123SOL     OW15928   3.580   2.006   7.959
 5123SOL    HW115929   3.654   1.992   7.899
 5123SOL    HW215930   3.565   1.921   7.999
 5124SOL     OW15931   3.252   3.430   7.932
 5124SOL    HW115932   3.313   3.461   7.865
 5124SOL    HW215933   3.204   3.508   7.960
 5125SOL     OW15934   1.998   3.658   9.291
 5125SOL    HW115935   1.947   3.593   9.340
 5125SOL    HW215936   2.045   3.707   9.358
 5126SOL     OW15937   3.139   2.786   8.118
 5126SOL    HW115938   3.212   2.726   8.125
 5126SOL    HW215939   3.173   2.860   8.067
 5127SOL     OW15940   2.679   3.135   8.879
 5127SOL    HW115941   2.651   3.174   8.962
 5127SOL    HW215942   2.608   3.157   8.817
 5128SOL     OW15943   2.534   3.480   7.603
 5128SOL    HW115944   2.544   3.492   7.509
 5128SOL    HW215945   2.479   3.402   7.613
 5129SOL     OW15946   3.491   3.588   8.840
 5129SOL    HW115947   3.540   3.596   8.757
 5129SOL    HW215948   3.478   3.679   8.868
 5130SOL     OW15949   3.702   2.035   8.416
 5130SOL    HW115950   3.731   1.948   8.387
 5130SOL    HW215951   3.616   2.045   8.375
 5131SOL     OW15952   3.068   3.469   7.479
 5131SOL    HW115953   3.060   3.378   7.506
 5131SOL    HW215954   3.004   3.480   7.410
 5132SOL     OW15955   2.685   2.868   8.821
 5132SOL    HW115956   2.731   2.861   8.737
 5132SOL    HW215957   2.687   2.962   8.841
 5133SOL     OW15958   2.778   2.773   7.737
 5133SOL    HW115959   2.840   2.804   7.671
 5133SOL    HW215960   2.824   2.702   7.782
 5134SOL     OW15961   3.355   3.487   7.490
 5134SOL    HW115962   3.260   3.481   7.477
 5134SOL    HW215963   3.391   3.493   7.402
 5135SOL     OW15964   2.232   3.163   8.939
 5135SOL    HW115965   2.218   3.241   8.885
 5135SOL    HW215966   2.155   3.109   8.924
 5136SOL     OW15967   3.473   3.145   8.729
 5136SOL    HW115968   3.532   3.135   8.804
 5136SOL    HW215969   3.413   3.215   8.755
 5137SOL     OW15970   2.912   2.968   8.154
 5137SOL    HW115971   2.842   2.917   8.194
 5137SOL    HW215972   2.974   2.903   8.121
 5138SOL     OW15973   2.882   2.101   8.414
 5138SOL    HW115974   2.878   2.053   8.331
 5138SOL    HW215975   2.879   2.034   8.481
 5139SOL     OW15976   2.465   3.351   7.930
 5139SOL    HW115977   2.506   3.300   7.860
 5139SOL    HW215978   2.396   3.400   7.885
 5140SOL     OW15979   3.582   2.254   8.828
 5140SOL    HW115980   3.654   2.317   8.827
 5140SOL    HW215981   3.612   2.182   8.772
 5141SOL     OW15982   2.121   3.207   7.736
 5141SOL    HW115983   2.028   3.205   7.713
 5141SOL    HW215984   2.123   3.245   7.824
 5142SOL     OW15985   1.974   2.881   9.167
 5142SOL    HW115986   1.897   2.859   9.219
 5142SOL    HW215987   2.048   2.846   9.218
 5143SOL     OW15988   2.548   2.049   8.942
 5143SOL    HW115989   2.634   2.023   8.907
 5143SOL    HW215990   2.567   2.084   9.029
 5144SOL     OW15991   1.922   2.202   7.499
 5144SOL    HW115992   1.842   2.180   7.451
 5144SOL    HW215993   1.977   2.247   7.435
 5145SOL     OW15994   3.293   2.720   8.849
 5145SOL    HW115995   3.244   2.781   8.793
 5145SOL    HW215996   3.382   2.723   8.815
 5146SOL     OW15997   1.935   2.019   7.758
 5146SOL    HW115998   1.913   2.095   7.705
 5146SOL    HW215999   2.015   1.984   7.720
 5147SOL     OW16000   3.041   3.203   7.565
 5147SOL    HW116001   2.951   3.172   7.568
 5147SOL    HW216002   3.070   3.202   7.656
 5148SOL     OW16003   2.483   2.692   8.879
 5148SOL    HW116004   2.536   2.770   8.865
 5148SOL    HW216005   2.546   2.620   8.883
 5149SOL     OW16006   3.346   3.637   8.425
 5149SOL    HW116007   3.371   3.696   8.353
 5149SOL    HW216008   3.428   3.620   8.471
 5150SOL     OW16009   2.582   2.427   9.147
 5150SOL    HW116010   2.617   2.489   9.211
 5150SOL    HW216011   2.605   2.341   9.182
 5151SOL     OW16012   3.332   3.064   9.081
 5151SOL    HW116013   3.320   3.077   9.175
 5151SOL    HW216014   3.426   3.077   9.066
 5152SOL     OW16015   2.243   3.601   9.012
 5152SOL    HW116016   2.157   3.642   8.998
 5152SOL    HW216017   2.223   3.518   9.054
 5153SOL     OW16018   3.532   2.743   8.704
 5153SOL    HW116019   3.525   2.658   8.661
 5153SOL    HW216020   3.523   2.807   8.632
 5154SOL     OW16021   3.079   2.181   7.906
 5154SOL    HW116022   3.143   2.110   7.897
 5154SOL    HW216023   3.108   2.230   7.983
 5155SOL     OW16024   2.457   2.601   8.092
 5155SOL    HW116025   2.500   2.686   8.091
 5155SOL    HW216026   2.369   2.617   8.056
 5156SOL     OW16027   3.626   2.222   9.097
 5156SOL    HW116028   3.608   2.237   9.005
 5156SOL    HW216029   3.554   2.166   9.127
 5157SOL     OW16030   3.606   2.796   8.960
 5157SOL    HW116031   3.606   2.890   8.973
 5157SOL    HW216032   3.591   2.784   8.867
 5158SOL     OW16033   2.724   3.230   7.480
 5158SOL    HW116034   2.686   3.257   7.563
 5158SOL    HW216035   2.743   3.312   7.435
 5159SOL     OW16036   2.522   3.655   8.394
 5159SOL    HW116037   2.501   3.745   8.370
 5159SOL    HW216038   2.617   3.649   8.387
 5160SOL     OW16039   2.729   2.828   8.304
 5160SOL    HW116040   2.777   2.755   8.343
 5160SOL    HW216041   2.696   2.878   8.378
 5161SOL     OW16042   2.941   2.850   7.536
 5161SOL    HW116043   2.920   2.901   7.458
 5161SOL    HW216044   3.017   2.797   7.510
 5162SOL     OW16045   3.717   3.418   8.293
 5162SOL    HW116046   3.640   3.406   8.238
 5162SOL    HW216047   3.710   3.349   8.360
 5163SOL     OW16048   2.086   3.166   9.304
 5163SOL    HW116049   2.019   3.105   9.274
 5163SOL    HW216050   2.067   3.179   9.397
 5164SOL     OW16051   1.945   3.098   8.113
 5164SOL    HW116052   1.946   3.047   8.194
 5164SOL    HW216053   2.013   3.057   8.059
 5165SOL     OW16054   2.542   3.264   9.074
 5165SOL    HW116055   2.462   3.220   9.105
 5165SOL    HW216056   2.537   3.352   9.112
 5166SOL     OW16057   3.675   2.047   8.686
 5166SOL    HW116058   3.685   1.953   8.701
 5166SOL    HW216059   3.685   2.057   8.592
 5167SOL     OW16060   3.562   3.353   8.547
 5167SOL    HW116061   3.482   3.328   8.501
 5167SOL    HW216062   3.576   3.283   8.611
 5168SOL     OW16063   2.688   3.440   8.127
 5168SOL    HW116064   2.678   3.489   8.045
 5168SOL    HW216065   2.611   3.384   8.130
 5169SOL     OW16066   3.294   2.086   8.566
 5169SOL    HW116067   3.321   2.007   8.613
 5169SOL    HW216068   3.243   2.136   8.629
 5170SOL     OW16069   2.871   1.881   8.591
 5170SOL    HW116070   2.817   1.811   8.555
 5170SOL    HW216071   2.960   1.845   8.594
 5171SOL     OW16072   2.634   3.194   7.760
 5171SOL    HW116073   2.601   3.104   7.767
 5171SOL    HW216074   2.716   3.193   7.809
 5172SOL     OW16075   2.482   3.419   8.733
 5172SOL    HW116076   2.485   3.501   8.783
 5172SOL    HW216077   2.569   3.412   8.694
 5173SOL     OW16078   3.214   1.916   7.612
 5173SOL    HW116079   3.241   1.853   7.545
 5173SOL    HW216080   3.127   1.885   7.639
 5174SOL     OW16081   3.158   2.322   8.130
 5174SOL    HW116082   3.105   2.401   8.138
 5174SOL    HW216083   3.155   2.283   8.217
 5175SOL     OW16084   3.449   2.066   8.325
 5175SOL    HW116085   3.387   2.085   8.395
 5175SOL    HW216086   3.448   2.144   8.270
 5176SOL     OW16087   1.905   2.934   7.754
 5176SOL    HW116088   1.999   2.925   7.737
 5176SOL    HW216089   1.876   2.845   7.777
 5177SOL     OW16090   2.745   3.513   7.792
 5177SOL    HW116091   2.673   3.495   7.731
 5177SOL    HW216092   2.715   3.589   7.842
 5178SOL     OW16093   2.076   2.528   9.431
 5178SOL    HW116094   1.993   2.500   9.469
 5178SOL    HW216095   2.083   2.478   9.350
 5179SOL     OW16096   1.862   2.241   9.945
 5179SOL    HW116097   1.782   2.265   9.992
 5179SOL    HW216098   1.840   2.159   9.901
 5180SOL     OW16099   2.428   3.147  10.484
 5180SOL    HW116100   2.341   3.150  10.445
 5180SOL    HW216101   2.443   3.235  10.518
 5181SOL     OW16102   3.421   3.374  10.016
 5181SOL    HW116103   3.378   3.354  10.099
 5181SOL    HW216104   3.350   3.378   9.952
 5182SOL     OW16105   2.993   2.560  10.010
 5182SOL    HW116106   3.041   2.642   9.999
 5182SOL    HW216107   2.946   2.571  10.093
 5183SOL     OW16108   3.629   2.468   9.539
 5183SOL    HW116109   3.608   2.459   9.446
 5183SOL    HW216110   3.592   2.389   9.579
 5184SOL     OW16111   2.619   3.005  10.349
 5184SOL    HW116112   2.549   3.039  10.405
 5184SOL    HW216113   2.653   3.082  10.304
 5185SOL     OW16114   2.712   2.643   0.020
 5185SOL    HW116115   2.718   2.699   0.098
 5185SOL    HW216116   2.748   2.697  11.049
 5186SOL     OW16117   2.549   2.868   9.958
 5186SOL    HW116118   2.613   2.855  10.027
 5186SOL    HW216119   2.480   2.920   9.999
 5187SOL     OW16120   2.194   3.287  10.377
 5187SOL    HW116121   2.120   3.252  10.328
 5187SOL    HW216122   2.243   3.339  10.313
 5188SOL     OW16123   3.325   3.362  10.658
 5188SOL    HW116124   3.379   3.440  10.667
 5188SOL    HW216125   3.275   3.357  10.739
 5189SOL     OW16126   3.474   2.311  10.050
 5189SOL    HW116127   3.398   2.335   9.997
 5189SOL    HW216128   3.492   2.389  10.103
 5190SOL     OW16129   2.082   3.575   9.784
 5190SOL    HW116130   2.104   3.652   9.836
 5190SOL    HW216131   2.153   3.569   9.720
 5191SOL     OW16132   2.093   3.302   9.845
 5191SOL    HW116133   2.075   3.396   9.849
 5191SOL    HW216134   2.031   3.264   9.907
 5192SOL     OW16135   2.119   2.955  10.201
 5192SOL    HW116136   2.112   2.868  10.240
 5192SOL    HW216137   2.059   3.009  10.253
 5193SOL     OW16138   2.475   3.651  10.739
 5193SOL    HW116139   2.394   3.632  10.788
 5193SOL    HW216140   2.497   3.741  10.764
 5194SOL     OW16141   2.451   2.841   9.439
 5194SOL    HW116142   2.496   2.895   9.373
 5194SOL    HW216143   2.489   2.870   9.522
 5195SOL     OW16144   3.450   1.979  10.779
 5195SOL    HW116145   3.463   2.058  10.727
 5195SOL    HW216146   3.455   2.008  10.870
 5196SOL     OW16147   1.967   2.507   9.869
 5196SOL    HW116148   1.942   2.418   9.894
 5196SOL    HW216149   1.966   2.556   9.951
 5197SOL     OW16150   3.704   3.622   9.646
 5197SOL    HW116151   3.765   3.593   9.713
 5197SOL    HW216152   3.729   3.713   9.627
 5198SOL     OW16153   1.893   3.458   9.434
 5198SOL    HW116154   1.875   3.366   9.454
 5198SOL    HW216155   1.869   3.505   9.514
 5199SOL     OW16156   3.551   2.781   9.950
 5199SOL    HW116157   3.636   2.740   9.931
 5199SOL    HW216158   3.531   2.830   9.870
 5200SOL     OW16159   3.507   2.970   9.739
 5200SOL    HW116160   3.593   2.977   9.697
 5200SOL    HW216161   3.512   3.030   9.813
 5201SOL     OW16162   1.980   2.599  10.888
 5201SOL    HW116163   2.064   2.608  10.933
 5201SOL    HW216164   1.935   2.681  10.905
 5202SOL     OW16165   2.475   3.246  10.046
 5202SOL    HW116166   2.429   3.163  10.055
 5202SOL    HW216167   2.459   3.273   9.955
 5203SOL     OW16168   3.157   3.099  10.751
 5203SOL    HW116169   3.182   3.039  10.681
 5203SOL    HW216170   3.213   3.075  10.825
 5204SOL     OW16171   2.673   1.861   9.815
 5204SOL    HW116172   2.715   1.945   9.798
 5204SOL    HW216173   2.581   1.882   9.826
 5205SOL     OW16174   2.054   2.831  10.575
 5205SOL    HW116175   2.136   2.785  10.557
 5205SOL    HW216176   1.986   2.773  10.541
 5206SOL     OW16177   3.394   2.854   9.507
 5206SOL    HW116178   3.324   2.797   9.538
 5206SOL    HW216179   3.434   2.889   9.587
 5207SOL     OW16180   3.058   3.668  10.927
 5207SOL    HW116181   3.058   3.730  10.854
 5207SOL    HW216182   3.066   3.582  10.884
 5208SOL     OW16183   3.328   3.282  10.262
 5208SOL    HW116184   3.259   3.297  10.327
 5208SOL    HW216185   3.316   3.191  10.235
 5209SOL     OW16186   3.522   3.598   9.888
 5209SOL    HW116187   3.500   3.569   9.799
 5209SOL    HW216188   3.497   3.525   9.944
 5210SOL     OW16189   2.463   2.587   9.578
 5210SOL    HW116190   2.478   2.656   9.514
 5210SOL    HW216191   2.381   2.610   9.620
 5211SOL     OW16192   3.142   2.212  10.243
 5211SOL    HW116193   3.053   2.180  10.250
 5211SOL    HW216194   3.192   2.159  10.304
 5212SOL     OW16195   3.443   3.531   9.619
 5212SOL    HW116196   3.533   3.564   9.613
 5212SOL    HW216197   3.417   3.514   9.528
 5213SOL     OW16198   2.652   2.465  10.759
 5213SOL    HW116199   2.631   2.456  10.852
 5213SOL    HW216200   2.594   2.402  10.715
 5214SOL     OW16201   2.827   2.759  10.899
 5214SOL    HW116202   2.876   2.688  10.859
 5214SOL    HW216203   2.778   2.798  10.827
 5215SOL     OW16204   2.860   2.270  10.549
 5215SOL    HW116205   2.781   2.314  10.581
 5215SOL    HW216206   2.835   2.233  10.465
 5216SOL     OW16207   2.911   2.560   9.737
 5216SOL    HW116208   2.928   2.553   9.831
 5216SOL    HW216209   2.829   2.513   9.724
 5217SOL     OW16210   1.951   2.683  10.084
 5217SOL    HW116211   2.033   2.678  10.134
 5217SOL    HW216212   1.906   2.760  10.120
 5218SOL     OW16213   1.990   3.703  10.896
 5218SOL    HW116214   1.972   3.669  10.983
 5218SOL    HW216215   1.905   3.706  10.853
 5219SOL     OW16216   2.752   2.210   9.504
 5219SOL    HW116217   2.795   2.270   9.444
 5219SOL    HW216218   2.764   2.124   9.466
 5220SOL     OW16219   3.238   3.004   9.851
 5220SOL    HW116220   3.317   2.991   9.799
 5220SOL    HW216221   3.186   3.066   9.801
 5221SOL     OW16222   2.869   3.307   9.783
 5221SOL    HW116223   2.830   3.379   9.734
 5221SOL    HW216224   2.853   3.329   9.875
 5222SOL     OW16225   2.216   3.669  10.170
 5222SOL    HW116226   2.260   3.585  10.178
 5222SOL    HW216227   2.285   3.734  10.188
 5223SOL     OW16228   3.660   2.922  10.178
 5223SOL    HW116229   3.604   2.903  10.102
 5223SOL    HW216230   3.599   2.926  10.251
 5224SOL     OW16231   3.089   3.401  10.825
 5224SOL    HW116232   3.098   3.313  10.862
 5224SOL    HW216233   3.029   3.390  10.751
 5225SOL     OW16234   2.190   2.804   9.565
 5225SOL    HW116235   2.264   2.830   9.511
 5225SOL    HW216236   2.148   2.733   9.517
 5226SOL     OW16237   3.339   2.603  10.037
 5226SOL    HW116238   3.328   2.558  10.121
 5226SOL    HW216239   3.416   2.658  10.049
 5227SOL     OW16240   2.313   3.130  11.053
 5227SOL    HW116241   2.286   3.139  10.962
 5227SOL    HW216242   2.252   3.066  11.090
 5228SOL     OW16243   2.983   3.640   9.541
 5228SOL    HW116244   2.911   3.597   9.588
 5228SOL    HW216245   3.005   3.579   9.471
 5229SOL     OW16246   3.491   3.241   9.397
 5229SOL    HW116247   3.450   3.326   9.382
 5229SOL    HW216248   3.422   3.178   9.378
 5230SOL     OW16249   2.329   3.600   9.631
 5230SOL    HW116250   2.369   3.657   9.696
 5230SOL    HW216251   2.401   3.571   9.576
 5231SOL     OW16252   3.263   1.970   9.741
 5231SOL    HW116253   3.252   1.945   9.650
 5231SOL    HW216254   3.358   1.976   9.753
 5232SOL     OW16255   2.116   3.655  10.543
 5232SOL    HW116256   2.168   3.591  10.593
 5232SOL    HW216257   2.107   3.615  10.456
 5233SOL     OW16258   2.800   3.560  10.210
 5233SOL    HW116259   2.878   3.508  10.229
 5233SOL    HW216260   2.755   3.511  10.141
 5234SOL     OW16261   2.489   1.993   9.413
 5234SOL    HW116262   2.558   1.934   9.443
 5234SOL    HW216263   2.450   1.949   9.338
 5235SOL     OW16264   2.629   2.134  11.046
 5235SOL    HW116265   2.697   2.077  11.081
 5235SOL    HW216266   2.572   2.152   0.020
 5236SOL     OW16267   2.737   3.383  10.504
 5236SOL    HW116268   2.723   3.348  10.416
 5236SOL    HW216269   2.810   3.331  10.538
 5237SOL     OW16270   3.204   2.453  10.754
 5237SOL    HW116271   3.256   2.431  10.831
 5237SOL    HW216272   3.232   2.541  10.729
 5238SOL     OW16273   2.676   3.258  10.248
 5238SOL    HW116274   2.760   3.247  10.203
 5238SOL    HW216275   2.611   3.258  10.177
 5239SOL     OW16276   2.800   2.369  10.221
 5239SOL    HW116277   2.761   2.367  10.134
 5239SOL    HW216278   2.828   2.279  10.236
 5240SOL     OW16279   2.406   1.930   9.808
 5240SOL    HW116280   2.328   1.920   9.863
 5240SOL    HW216281   2.399   2.018   9.772
 5241SOL     OW16282   3.290   3.060   9.351
 5241SOL    HW116283   3.321   2.984   9.401
 5241SOL    HW216284   3.205   3.080   9.389
 5242SOL     OW16285   2.160   1.905   9.497
 5242SOL    HW116286   2.226   1.973   9.482
 5242SOL    HW216287   2.209   1.833   9.537
 5243SOL     OW16288   2.798   2.106   9.769
 5243SOL    HW116289   2.774   2.150   9.687
 5243SOL    HW216290   2.893   2.119   9.776
 5244SOL     OW16291   2.939   2.545  10.769
 5244SOL    HW116292   2.872   2.477  10.776
 5244SOL    HW216293   3.021   2.497  10.767
 5245SOL     OW16294   3.086   3.432  10.104
 5245SOL    HW116295   3.103   3.499  10.038
 5245SOL    HW216296   3.154   3.445  10.170
 5246SOL     OW16297   2.330   3.010  10.044
 5246SOL    HW116298   2.260   2.993  10.107
 5246SOL    HW216299   2.291   2.993   9.959
 5247SOL     OW16300   3.132   3.656   9.917
 5247SOL    HW116301   3.177   3.717   9.858
 5247SOL    HW216302   3.067   3.710   9.962
 5248SOL     OW16303   2.887   2.406   9.331
 5248SOL    HW116304   2.845   2.490   9.312
 5248SOL    HW216305   2.951   2.426   9.399
 5249SOL     OW16306   1.944   2.422  10.692
 5249SOL    HW116307   2.035   2.396  10.706
 5249SOL    HW216308   1.927   2.488  10.758
 5250SOL     OW16309   2.442   2.000  10.434
 5250SOL    HW116310   2.464   1.972  10.523
 5250SOL    HW216311   2.364   2.055  10.444
 5251SOL     OW16312   2.743   2.320   9.948
 5251SOL    HW116313   2.687   2.374   9.893
 5251SOL    HW216314   2.756   2.240   9.898
 5252SOL     OW16315   2.878   1.913  10.063
 5252SOL    HW116316   2.818   1.907   9.988
 5252SOL    HW216317   2.855   1.838  10.118
 5253SOL     OW16318   3.297   3.026  10.167
 5253SOL    HW116319   3.231   2.957  10.166
 5253SOL    HW216320   3.322   3.037  10.076
 5254SOL     OW16321   3.328   2.467  10.288
 5254SOL    HW116322   3.280   2.384  10.291
 5254SOL    HW216323   3.389   2.461  10.362
 5255SOL     OW16324   3.709   2.679   9.692
 5255SOL    HW116325   3.764   2.628   9.750
 5255SOL    HW216326   3.680   2.617   9.625
 5256SOL     OW16327   2.353   3.278   9.469
 5256SOL    HW116328   2.278   3.249   9.521
 5256SOL    HW216329   2.335   3.245   9.381
 5257SOL     OW16330   3.531   3.127   9.957
 5257SOL    HW116331   3.626   3.130   9.971
 5257SOL    HW216332   3.500   3.215   9.978
 5258SOL     OW16333   3.256   2.434   9.382
 5258SOL    HW116334   3.195   2.415   9.453
 5258SOL    HW216335   3.340   2.401   9.412
 5259SOL     OW16336   3.621   3.091  10.871
 5259SOL    HW116337   3.713   3.062  10.874
 5259SOL    HW216338   3.623   3.178  10.911
 5260SOL     OW16339   2.926   3.216  10.650
 5260SOL    HW116340   2.848   3.183  10.694
 5260SOL    HW216341   2.999   3.168  10.689
 5261SOL     OW16342   2.990   3.067  10.416
 5261SOL    HW116343   2.925   3.102  10.478
 5261SOL    HW216344   2.958   3.095  10.331
 5262SOL     OW16345   3.492   2.961  10.388
 5262SOL    HW116346   3.488   3.023  10.462
 5262SOL    HW216347   3.411   2.978  10.339
 5263SOL     OW16348   2.784   1.959  10.708
 5263SOL    HW116349   2.805   1.941  10.616
 5263SOL    HW216350   2.863   2.001  10.743
 5264SOL     OW16351   2.570   2.923   9.681
 5264SOL    HW116352   2.557   2.908   9.775
 5264SOL    HW216353   2.646   2.869   9.658
 5265SOL     OW16354   2.280   2.669  10.562
 5265SOL    HW116355   2.352   2.690  10.622
 5265SOL    HW216356   2.236   2.594  10.602
 5266SOL     OW16357   3.132   2.240  10.588
 5266SOL    HW116358   3.162   2.319  10.632
 5266SOL    HW216359   3.042   2.260  10.560
 5267SOL     OW16360   1.931   3.437  10.660
 5267SOL    HW116361   1.901   3.510  10.605
 5267SOL    HW216362   2.026   3.441  10.655
 5268SOL     OW16363   2.216   2.967   9.799
 5268SOL    HW116364   2.218   3.045   9.743
 5268SOL    HW216365   2.210   2.894   9.737
 5269SOL     OW16366   2.518   2.432  10.148
 5269SOL    HW116367   2.491   2.485  10.073
 5269SOL    HW216368   2.471   2.471  10.222
 5270SOL     OW16369   3.110   3.210   9.699
 5270SOL    HW116370   3.166   3.282   9.730
 5270SOL    HW216371   3.023   3.231   9.733
 5271SOL     OW16372   3.140   3.320  10.455
 5271SOL    HW116373   3.197   3.323  10.531
 5271SOL    HW216374   3.087   3.241  10.467
 5272SOL     OW16375   3.444   2.486   9.787
 5272SOL    HW116376   3.398   2.540   9.852
 5272SOL    HW216377   3.489   2.549   9.731
 5273SOL     OW16378   2.208   3.386  10.625
 5273SOL    HW116379   2.196   3.343  10.540
 5273SOL    HW216380   2.302   3.400  10.632
 5274SOL     OW16381   2.281   2.599  10.906
 5274SOL    HW116382   2.344   2.645  10.851
 5274SOL    HW216383   2.326   2.519  10.932
 5275SOL     OW16384   3.455   2.623  10.970
 5275SOL    HW116385   3.377   2.680  10.962
 5275SOL    HW216386   3.525   2.673  10.927
 5276SOL     OW16387   2.440   2.730  10.337
 5276SOL    HW116388   2.477   2.818  10.332
 5276SOL    HW216389   2.389   2.730  10.418
 5277SOL     OW16390   3.221   2.722  10.345
 5277SOL    HW116391   3.139   2.714  10.296
 5277SOL    HW216392   3.261   2.636  10.339
 5278SOL     OW16393   3.067   2.391   9.578
 5278SOL    HW116394   3.076   2.313   9.632
 5278SOL    HW216395   3.025   2.455   9.635
 5279SOL     OW16396   1.913   3.174  10.585
 5279SOL    HW116397   1.939   3.119  10.660
 5279SOL    HW216398   1.914   3.263  10.620
 5280SOL     OW16399   2.616   2.515  10.404
 5280SOL    HW116400   2.650   2.467  10.329
 5280SOL    HW216401   2.569   2.589  10.366
 5281SOL     OW16402   2.162   1.904   9.940
 5281SOL    HW116403   2.115   1.985   9.959
 5281SOL    HW216404   2.172   1.861  10.025
 5282SOL     OW16405   3.477   2.235   9.678
 5282SOL    HW116406   3.504   2.172   9.744
 5282SOL    HW216407   3.454   2.314   9.728
 5283SOL     OW16408   2.890   2.622  10.270
 5283SOL    HW116409   2.888   2.641  10.364
 5283SOL    HW216410   2.860   2.532  10.262
 5284SOL     OW16411   2.835   3.434  11.004
 5284SOL    HW116412   2.822   3.484  10.924
 5284SOL    HW216413   2.867   3.349  10.975
 5285SOL     OW16414   3.720   3.357  10.912
 5285SOL    HW116415   3.735   3.392  10.824
 5285SOL    HW216416   3.786   3.399  10.966
 5286SOL     OW16417   2.226   2.792  11.088
 5286SOL    HW116418   2.309   2.797   0.035
 5286SOL    HW216419   2.237   2.719  11.028
 5287SOL     OW16420   3.392   2.135   9.437
 5287SOL    HW116421   3.327   2.070   9.464
 5287SOL    HW216422   3.425   2.171   9.520
 5288SOL     OW16423   3.155   2.688   9.342
 5288SOL    HW116424   3.198   2.603   9.345
 5288SOL    HW216425   3.186   2.728   9.260
 5289SOL     OW16426   2.927   3.197  10.163
 5289SOL    HW116427   2.930   3.124  10.101
 5289SOL    HW216428   2.990   3.261  10.128
 5290SOL     OW16429   2.172   2.678  10.253
 5290SOL    HW116430   2.266   2.699  10.250
 5290SOL    HW216431   2.167   2.598  10.305
 5291SOL     OW16432   3.020   2.072  10.782
 5291SOL    HW116433   3.033   2.129  10.858
 5291SOL    HW216434   3.059   2.119  10.709
 5292SOL     OW16435   1.867   3.183   9.504
 5292SOL    HW116436   1.780   3.198   9.467
 5292SOL    HW216437   1.864   3.094   9.538
 5293SOL     OW16438   1.951   3.650  10.247
 5293SOL    HW116439   1.922   3.570  10.204
 5293SOL    HW216440   2.041   3.662  10.216
 5294SOL     OW16441   2.360   3.436  10.215
 5294SOL    HW116442   2.428   3.498  10.239
 5294SOL    HW216443   2.404   3.371  10.160
 5295SOL     OW16444   2.847   2.662  10.537
 5295SOL    HW116445   2.894   2.633  10.615
 5295SOL    HW216446   2.765   2.613  10.539
 5296SOL     OW16447   1.906   2.418  10.422
 5296SOL    HW116448   1.956   2.345  10.386
 5296SOL    HW216449   1.924   2.415  10.516
 5297SOL     OW16450   2.675   2.430   9.668
 5297SOL    HW116451   2.681   2.357   9.606
 5297SOL    HW216452   2.602   2.483   9.636
 5298SOL     OW16453   3.504   2.463  10.496
 5298SOL    HW116454   3.495   2.404  10.571
 5298SOL    HW216455   3.591   2.444  10.461
 5299SOL     OW16456   2.117   3.426  11.053
 5299SOL    HW116457   2.062   3.463   0.022
 5299SOL    HW216458   2.120   3.332  11.072
 5300SOL     OW16459   2.802   3.544  10.759
 5300SOL    HW116460   2.764   3.512  10.677
 5300SOL    HW216461   2.788   3.639  10.756
 5301SOL     OW16462   2.017   3.000  10.781
 5301SOL    HW116463   2.009   2.944  10.859
 5301SOL    HW216464   2.029   2.938  10.709
 5302SOL     OW16465   3.187   2.915  10.538
 5302SOL    HW116466   3.215   2.850  10.474
 5302SOL    HW216467   3.116   2.963  10.496
 5303SOL     OW16468   3.172   2.719   9.617
 5303SOL    HW116469   3.096   2.688   9.667
 5303SOL    HW216470   3.148   2.705   9.525
 5304SOL     OW16471   3.634   3.608  10.461
 5304SOL    HW116472   3.693   3.634  10.390
 5304SOL    HW216473   3.609   3.518  10.440
 5305SOL     OW16474   3.103   3.596  10.425
 5305SOL    HW116475   3.185   3.616  10.379
 5305SOL    HW216476   3.108   3.502  10.442
 5306SOL     OW16477   1.946   3.129  10.322
 5306SOL    HW116478   1.934   3.141  10.416
 5306SOL    HW216479   1.871   3.075  10.296
 5307SOL     OW16480   3.581   2.006   9.821
 5307SOL    HW116481   3.654   1.992   9.761
 5307SOL    HW216482   3.565   1.921   9.861
 5308SOL     OW16483   3.252   3.430   9.794
 5308SOL    HW116484   3.313   3.461   9.727
 5308SOL    HW216485   3.204   3.508   9.822
 5309SOL     OW16486   3.140   2.788   9.982
 5309SOL    HW116487   3.212   2.726   9.987
 5309SOL    HW216488   3.173   2.860   9.929
 5310SOL     OW16489   2.682   3.135  10.738
 5310SOL    HW116490   2.652   3.169  10.823
 5310SOL    HW216491   2.612   3.157  10.677
 5311SOL     OW16492   2.534   3.480   9.465
 5311SOL    HW116493   2.543   3.492   9.371
 5311SOL    HW216494   2.479   3.402   9.475
 5312SOL     OW16495   3.486   3.582  10.698
 5312SOL    HW116496   3.540   3.596  10.620
 5312SOL    HW216497   3.472   3.669  10.733
 5313SOL     OW16498   3.702   2.035  10.278
 5313SOL    HW116499   3.731   1.949  10.250
 5313SOL    HW216500   3.616   2.046  10.238
 5314SOL     OW16501   3.068   3.469   9.341
 5314SOL    HW116502   3.060   3.378   9.368
 5314SOL    HW216503   3.004   3.480   9.272
 5315SOL     OW16504   2.686   2.868  10.686
 5315SOL    HW116505   2.731   2.859  10.602
 5315SOL    HW216506   2.689   2.962  10.704
 5316SOL     OW16507   2.777   2.772   9.599
 5316SOL    HW116508   2.839   2.804   9.534
 5316SOL    HW216509   2.824   2.702   9.645
 5317SOL     OW16510   3.355   3.486   9.352
 5317SOL    HW116511   3.260   3.481   9.339
 5317SOL    HW216512   3.391   3.493   9.264
 5318SOL     OW16513   2.230   3.167  10.804
 5318SOL    HW116514   2.216   3.242  10.746
 5318SOL    HW216515   2.156   3.109  10.786
 5319SOL     OW16516   3.475   3.144  10.593
 5319SOL    HW116517   3.531   3.132  10.669
 5319SOL    HW216518   3.418   3.217  10.616
 5320SOL     OW16519   2.912   2.968  10.016
 5320SOL    HW116520   2.841   2.916  10.055
 5320SOL    HW216521   2.974   2.903   9.984
 5321SOL     OW16522   2.885   2.101  10.276
 5321SOL    HW116523   2.878   2.054  10.194
 5321SOL    HW216524   2.878   2.033  10.343
 5322SOL     OW16525   2.464   3.351   9.792
 5322SOL    HW116526   2.506   3.300   9.722
 5322SOL    HW216527   2.396   3.401   9.748
 5323SOL     OW16528   3.579   2.256  10.689
 5323SOL    HW116529   3.651   2.318  10.690
 5323SOL    HW216530   3.610   2.185  10.633
 5324SOL     OW16531   2.121   3.207   9.598
 5324SOL    HW116532   2.028   3.205   9.575
 5324SOL    HW216533   2.123   3.245   9.686
 5325SOL     OW16534   1.974   2.871  11.020
 5325SOL    HW116535   1.906   2.855  11.085
 5325SOL    HW216536   2.055   2.844  11.063
 5326SOL     OW16537   2.543   2.050  10.799
 5326SOL    HW116538   2.628   2.026  10.761
 5326SOL    HW216539   2.564   2.091  10.882
 5327SOL     OW16540   1.899   2.192   9.352
 5327SOL    HW116541   1.821   2.159   9.307
 5327SOL    HW216542   1.922   2.271   9.304
 5328SOL     OW16543   3.292   2.711  10.710
 5328SOL    HW116544   3.244   2.779  10.662
 5328SOL    HW216545   3.382   2.720  10.680
 5329SOL     OW16546   1.933   2.019   9.623
 5329SOL    HW116547   1.911   2.095   9.570
 5329SOL    HW216548   2.018   1.990   9.590
 5330SOL     OW16549   3.041   3.203   9.427
 5330SOL    HW116550   2.951   3.172   9.430
 5330SOL    HW216551   3.070   3.202   9.518
 5331SOL     OW16552   2.484   2.692  10.740
 5331SOL    HW116553   2.538   2.770  10.728
 5331SOL    HW216554   2.547   2.620  10.746
 5332SOL     OW16555   3.346   3.637  10.287
 5332SOL    HW116556   3.371   3.696  10.216
 5332SOL    HW216557   3.427   3.619  10.334
 5333SOL     OW16558   2.579   2.428  11.016
 5333SOL    HW116559   2.611   2.501  11.069
 5333SOL    HW216560   2.631   2.353  11.044
 5334SOL     OW16561   2.245   3.593  10.870
 5334SOL    HW116562   2.166   3.647  10.864
 5334SOL    HW216563   2.220   3.521  10.927
 5335SOL     OW16564   3.533   2.744  10.567
 5335SOL    HW116565   3.525   2.659  10.525
 5335SOL    HW216566   3.525   2.808  10.496
 5336SOL     OW16567   3.079   2.181   9.768
 5336SOL    HW116568   3.143   2.110   9.759
 5336SOL    HW216569   3.108   2.230   9.845
 5337SOL     OW16570   2.442   2.613   9.962
 5337SOL    HW116571   2.489   2.696   9.953
 5337SOL    HW216572   2.364   2.622   9.907
 5338SOL     OW16573   3.614   2.181  10.952
 5338SOL    HW116574   3.596   2.218  10.866
 5338SOL    HW216575   3.534   2.197  11.002
 5339SOL     OW16576   3.611   2.798  10.825
 5339SOL    HW116577   3.604   2.892  10.839
 5339SOL    HW216578   3.593   2.785  10.732
 5340SOL     OW16579   2.724   3.230   9.342
 5340SOL    HW116580   2.685   3.257   9.425
 5340SOL    HW216581   2.743   3.312   9.296
 5341SOL     OW16582   2.522   3.655  10.256
 5341SOL    HW116583   2.501   3.745  10.233
 5341SOL    HW216584   2.617   3.649  10.248
 5342SOL     OW16585   2.727   2.827  10.166
 5342SOL    HW116586   2.778   2.755  10.204
 5342SOL    HW216587   2.697   2.878  10.241
 5343SOL     OW16588   2.941   2.849   9.398
 5343SOL    HW116589   2.920   2.901   9.320
 5343SOL    HW216590   3.017   2.797   9.373
 5344SOL     OW16591   3.718   3.418  10.155
 5344SOL    HW116592   3.640   3.406  10.100
 5344SOL    HW216593   3.711   3.350  10.222
 5345SOL     OW16594   1.945   3.098   9.975
 5345SOL    HW116595   1.946   3.048  10.057
 5345SOL    HW216596   2.013   3.056   9.921
 5346SOL     OW16597   2.541   3.256  10.937
 5346SOL    HW116598   2.467   3.206  10.973
 5346SOL    HW216599   2.510   3.347  10.937
 5347SOL     OW16600   3.673   2.046  10.549
 5347SOL    HW116601   3.683   1.952  10.562
 5347SOL    HW216602   3.684   2.058  10.455
 5348SOL     OW16603   3.563   3.353  10.409
 5348SOL    HW116604   3.482   3.327  10.364
 5348SOL    HW216605   3.578   3.284  10.473
 5349SOL     OW16606   2.688   3.440   9.989
 5349SOL    HW116607   2.679   3.489   9.907
 5349SOL    HW216608   2.611   3.384   9.992
 5350SOL     OW16609   3.294   2.085  10.428
 5350SOL    HW116610   3.322   2.006  10.475
 5350SOL    HW216611   3.243   2.135  10.493
 5351SOL     OW16612   2.870   1.880  10.455
 5351SOL    HW116613   2.818   1.813  10.412
 5351SOL    HW216614   2.959   1.843  10.457
 5352SOL     OW16615   2.634   3.194   9.622
 5352SOL    HW116616   2.601   3.104   9.628
 5352SOL    HW216617   2.716   3.193   9.671
 5353SOL     OW16618   2.481   3.418  10.596
 5353SOL    HW116619   2.483   3.501  10.644
 5353SOL    HW216620   2.568   3.412  10.556
 5354SOL     OW16621   3.214   1.916   9.474
 5354SOL    HW116622   3.241   1.853   9.407
 5354SOL    HW216623   3.127   1.885   9.501
 5355SOL     OW16624   3.159   2.322   9.992
 5355SOL    HW116625   3.104   2.400   9.999
 5355SOL    HW216626   3.155   2.283  10.079
 5356SOL     OW16627   3.449   2.066  10.187
 5356SOL    HW116628   3.386   2.085  10.257
 5356SOL    HW216629   3.449   2.144  10.132
 5357SOL     OW16630   1.904   2.934   9.616
 5357SOL    HW116631   1.998   2.925   9.600
 5357SOL    HW216632   1.876   2.845   9.639
 5358SOL     OW16633   2.745   3.513   9.654
 5358SOL    HW116634   2.673   3.496   9.593
 5358SOL    HW216635   2.715   3.589   9.704
 5359SOL     OW16636   2.065   4.295   0.088
 5359SOL    HW116637   2.040   4.353   0.161
 5359SOL    HW216638   2.080   4.355   0.015
 5360SOL     OW16639   2.086   4.001   0.991
 5360SOL    HW116640   2.114   3.968   1.076
 5360SOL    HW216641   1.996   3.970   0.981
 5361SOL     OW16642   1.867   4.102   0.643
 5361SOL    HW116643   1.784   4.129   0.681
 5361SOL    HW216644   1.845   4.025   0.590
 5362SOL     OW16645   3.598   4.332   0.229
 5362SOL    HW116646   3.608   4.304   0.138
 5362SOL    HW216647   3.589   4.250   0.278
 5363SOL     OW16648   2.595   0.269   0.685
 5363SOL    HW116649   2.586   0.204   0.755
 5363SOL    HW216650   2.506   0.285   0.656
 5364SOL     OW16651   2.310   4.117   1.486
 5364SOL    HW116652   2.386   4.060   1.493
 5364SOL    HW216653   2.235   4.059   1.502
 5365SOL     OW16654   3.477   4.172   0.740
 5365SOL    HW116655   3.407   4.198   0.680
 5365SOL    HW216656   3.481   4.243   0.804
 5366SOL     OW16657   3.458   3.846   1.469
 5366SOL    HW116658   3.460   3.926   1.416
 5366SOL    HW216659   3.445   3.877   1.559
 5367SOL     OW16660   1.950   4.367   0.561
 5367SOL    HW116661   1.932   4.277   0.588
 5367SOL    HW216662   2.002   4.404   0.633
 5368SOL     OW16663   1.981   4.474   1.584
 5368SOL    HW116664   2.051   4.490   1.648
 5368SOL    HW216665   1.948   0.061   1.562
 5369SOL     OW16666   2.676   3.725   0.506
 5369SOL    HW116667   2.715   3.811   0.491
 5369SOL    HW216668   2.582   3.742   0.516
 5370SOL     OW16669   2.194   3.975   1.808
 5370SOL    HW116670   2.236   4.060   1.825
 5370SOL    HW216671   2.104   3.986   1.839
 5371SOL     OW16672   3.139   4.072   0.932
 5371SOL    HW116673   3.050   4.038   0.942
 5371SOL    HW216674   3.191   4.020   0.994
 5372SOL     OW16675   2.688   4.308   1.449
 5372SOL    HW116676   2.647   4.312   1.536
 5372SOL    HW216677   2.622   4.266   1.394
 5373SOL     OW16678   3.258   4.199   1.676
 5373SOL    HW116679   3.259   4.243   1.762
 5373SOL    HW216680   3.316   4.125   1.687
 5374SOL     OW16681   2.858   4.148   1.234
 5374SOL    HW116682   2.785   4.170   1.292
 5374SOL    HW216683   2.821   4.090   1.168
 5375SOL     OW16684   2.921   4.403   0.423
 5375SOL    HW116685   2.919   4.455   0.503
 5375SOL    HW216686   2.829   4.383   0.405
 5376SOL     OW16687   2.748   4.073   0.209
 5376SOL    HW116688   2.794   4.130   0.148
 5376SOL    HW216689   2.762   3.985   0.174
 5377SOL     OW16690   3.569   4.298   1.829
 5377SOL    HW116691   3.580   4.387   1.794
 5377SOL    HW216692   3.592   4.241   1.755
 5378SOL     OW16693   2.412   3.906   0.892
 5378SOL    HW116694   2.414   3.934   0.984
 5378SOL    HW216695   2.411   3.988   0.842
 5379SOL     OW16696   3.349   4.463   0.738
 5379SOL    HW116697   3.332   4.409   0.815
 5379SOL    HW216698   3.390   0.042   0.773
 5380SOL     OW16699   2.060   4.005   1.503
 5380SOL    HW116700   1.976   4.050   1.494
 5380SOL    HW216701   2.045   3.938   1.569
 5381SOL     OW16702   3.264   3.831   0.430
 5381SOL    HW116703   3.255   3.808   0.338
 5381SOL    HW216704   3.358   3.840   0.444
 5382SOL     OW16705   2.217   4.382   0.407
 5382SOL    HW116706   2.257   4.309   0.454
 5382SOL    HW216707   2.146   4.412   0.463
 5383SOL     OW16708   3.398   3.950   1.725
 5383SOL    HW116709   3.407   3.971   1.818
 5383SOL    HW216710   3.330   3.883   1.722
 5384SOL     OW16711   2.477   3.830   0.125
 5384SOL    HW116712   2.568   3.798   0.120
 5384SOL    HW216713   2.442   3.817   0.038
 5385SOL     OW16714   2.629   4.002   1.754
 5385SOL    HW116715   2.703   3.942   1.756
 5385SOL    HW216716   2.579   3.982   1.833
 5386SOL     OW16717   3.206   4.311   1.429
 5386SOL    HW116718   3.228   4.274   1.514
 5386SOL    HW216719   3.246   4.398   1.429
 5387SOL     OW16720   2.785   4.237   0.899
 5387SOL    HW116721   2.763   4.220   0.808
 5387SOL    HW216722   2.824   4.155   0.929
 5388SOL     OW16723   2.411   3.787   0.505
 5388SOL    HW116724   2.329   3.786   0.555
 5388SOL    HW216725   2.405   3.866   0.451
 5389SOL     OW16726   2.148   3.771   0.200
 5389SOL    HW116727   2.189   3.825   0.132
 5389SOL    HW216728   2.216   3.708   0.224
 5390SOL     OW16729   2.800   3.972   0.464
 5390SOL    HW116730   2.773   4.012   0.382
 5390SOL    HW216731   2.895   3.984   0.467
 5391SOL     OW16732   2.938   4.396   1.518
 5391SOL    HW116733   2.854   4.366   1.483
 5391SOL    HW216734   3.004   4.354   1.462
 5392SOL     OW16735   2.871   4.265   0.040
 5392SOL    HW116736   2.882   4.324  11.066
 5392SOL    HW216737   2.952   4.274   0.091
 5393SOL     OW16738   1.937   4.280   1.392
 5393SOL    HW116739   2.028   4.272   1.365
 5393SOL    HW216740   1.937   4.353   1.454
 5394SOL     OW16741   2.422   3.950   1.163
 5394SOL    HW116742   2.462   3.873   1.202
 5394SOL    HW216743   2.331   3.948   1.194
 5395SOL     OW16744   2.730   4.188   0.639
 5395SOL    HW116745   2.699   4.250   0.573
 5395SOL    HW216746   2.749   4.108   0.590
 5396SOL     OW16747   2.876   3.777   0.753
 5396SOL    HW116748   2.818   3.769   0.677
 5396SOL    HW216749   2.856   3.701   0.807
 5397SOL     OW16750   3.339   4.312   0.968
 5397SOL    HW116751   3.282   4.238   0.987
 5397SOL    HW216752   3.390   4.324   1.047
 5398SOL     OW16753   3.262   4.293   0.073
 5398SOL    HW116754   3.197   4.277   0.141
 5398SOL    HW216755   3.330   4.227   0.087
 5399SOL     OW16756   2.390   3.991   0.327
 5399SOL    HW116757   2.416   3.930   0.258
 5399SOL    HW216758   2.372   4.073   0.281
 5400SOL     OW16759   2.780   3.822   1.397
 5400SOL    HW116760   2.804   3.802   1.307
 5400SOL    HW216761   2.859   3.861   1.434
 5401SOL     OW16762   2.296   0.008   1.271
 5401SOL    HW116763   2.362   0.004   1.340
 5401SOL    HW216764   2.253   4.423   1.274
 5402SOL     OW16765   3.128   4.100   1.274
 5402SOL    HW116766   3.162   4.177   1.319
 5402SOL    HW216767   3.038   4.124   1.249
 5403SOL     OW16768   2.416   4.255   0.865
 5403SOL    HW116769   2.437   4.299   0.783
 5403SOL    HW216770   2.480   4.289   0.927
 5404SOL     OW16771   3.441   4.341   0.479
 5404SOL    HW116772   3.398   4.405   0.536
 5404SOL    HW216773   3.486   4.393   0.414
 5405SOL     OW16774   2.858   3.845   1.756
 5405SOL    HW116775   2.912   3.918   1.727
 5405SOL    HW216776   2.907   3.767   1.730
 5406SOL     OW16777   2.360   3.766   1.747
 5406SOL    HW116778   2.318   3.711   1.681
 5406SOL    HW216779   2.300   3.840   1.759
 5407SOL     OW16780   3.073   4.251   0.265
 5407SOL    HW116781   3.084   4.172   0.318
 5407SOL    HW216782   3.025   4.311   0.321
 5408SOL     OW16783   2.162   3.923   1.246
 5408SOL    HW116784   2.124   3.956   1.328
 5408SOL    HW216785   2.142   3.830   1.247
 5409SOL     OW16786   2.593   4.360   1.046
 5409SOL    HW116787   2.667   4.324   0.996
 5409SOL    HW216788   2.600   4.455   1.034
 5410SOL     OW16789   3.613   0.135   1.855
 5410SOL    HW116790   3.549   0.148   1.785
 5410SOL    HW216791   3.568   0.162   1.935
 5411SOL     OW16792   2.165   3.790   0.623
 5411SOL    HW116793   2.145   3.880   0.647
 5411SOL    HW216794   2.170   3.743   0.707
 5412SOL     OW16795   3.476   4.092   0.368
 5412SOL    HW116796   3.505   4.029   0.434
 5412SOL    HW216797   3.453   4.171   0.417
 5413SOL     OW16798   3.397   4.012   0.116
 5413SOL    HW116799   3.337   3.939   0.133
 5413SOL    HW216800   3.429   4.036   0.203
 5414SOL     OW16801   2.180   0.012   0.920
 5414SOL    HW116802   2.256   0.068   0.932
 5414SOL    HW216803   2.192   4.440   0.981
 5415SOL     OW16804   2.199   4.240   1.021
 5415SOL    HW116805   2.159   4.155   1.001
 5415SOL    HW216806   2.272   4.247   0.960
 5416SOL     OW16807   3.000   4.094   1.685
 5416SOL    HW116808   2.947   4.153   1.739
 5416SOL    HW216809   3.084   4.138   1.676
 5417SOL     OW16810   3.022   3.927   1.469
 5417SOL    HW116811   3.013   3.988   1.542
 5417SOL    HW216812   3.062   3.979   1.399
 5418SOL     OW16813   1.898   4.272   1.115
 5418SOL    HW116814   1.979   4.253   1.068
 5418SOL    HW216815   1.924   4.274   1.207
 5419SOL     OW16816   2.054   4.243   1.717
 5419SOL    HW116817   2.111   4.199   1.654
 5419SOL    HW216818   2.000   4.302   1.664
 5420SOL     OW16819   2.676   4.308   0.328
 5420SOL    HW116820   2.686   4.222   0.287
 5420SOL    HW216821   2.582   4.316   0.343
 5421SOL     OW16822   3.499   4.318   1.188
 5421SOL    HW116823   3.494   4.260   1.263
 5421SOL    HW216824   3.587   4.304   1.153
 5422SOL     OW16825   2.547   4.182   1.256
 5422SOL    HW116826   2.502   4.104   1.224
 5422SOL    HW216827   2.549   4.241   1.181
 5423SOL     OW16828   2.335   4.219   0.184
 5423SOL    HW116829   2.376   4.304   0.201
 5423SOL    HW216830   2.241   4.236   0.184
 5424SOL     OW16831   2.779   3.814   0.107
 5424SOL    HW116832   2.830   3.779   0.035
 5424SOL    HW216833   2.815   3.772   0.185
 5425SOL     OW16834   3.581   3.868   0.511
 5425SOL    HW116835   3.654   3.855   0.451
 5425SOL    HW216836   3.566   3.782   0.550
 5426SOL     OW16837   3.140   0.137   0.681
 5426SOL    HW116838   3.197   0.061   0.690
 5426SOL    HW216839   3.189   0.198   0.627
 5427SOL     OW16840   3.701   3.896   0.968
 5427SOL    HW116841   3.731   3.810   0.939
 5427SOL    HW216842   3.615   3.908   0.927
 5428SOL     OW16843   2.125   4.042   0.718
 5428SOL    HW116844   2.038   4.073   0.693
 5428SOL    HW216845   2.120   4.031   0.813
 5429SOL     OW16846   2.924   0.303   0.723
 5429SOL    HW116847   2.841   0.265   0.696
 5429SOL    HW216848   2.989   0.237   0.700
 5430SOL     OW16849   2.881   3.964   0.965
 5430SOL    HW116850   2.877   3.915   0.883
 5430SOL    HW216851   2.877   3.897   1.033
 5431SOL     OW16852   3.582   4.114   1.380
 5431SOL    HW116853   3.653   4.178   1.377
 5431SOL    HW216854   3.612   4.043   1.324
 5432SOL     OW16855   2.535   3.919   1.499
 5432SOL    HW116856   2.619   3.901   1.457
 5432SOL    HW216857   2.559   3.951   1.587
 5433SOL     OW16858   1.941   4.050   0.054
 5433SOL    HW116859   1.873   4.046  11.087
 5433SOL    HW216860   1.970   4.142   0.054
 5434SOL     OW16861   1.930   3.883   0.315
 5434SOL    HW116862   1.916   3.958   0.256
 5434SOL    HW216863   2.013   3.845   0.285
 5435SOL     OW16864   2.590   4.287   1.703
 5435SOL    HW116865   2.593   4.333   1.786
 5435SOL    HW216866   2.612   4.196   1.724
 5436SOL     OW16867   3.079   4.040   0.456
 5436SOL    HW116868   3.144   3.970   0.447
 5436SOL    HW216869   3.108   4.089   0.533
 5437SOL     OW16870   3.623   4.089   1.648
 5437SOL    HW116871   3.606   4.100   1.554
 5437SOL    HW216872   3.554   4.031   1.679
 5438SOL     OW16873   2.961   0.204   0.051
 5438SOL    HW116874   2.961   0.290   0.008
 5438SOL    HW216875   3.052   0.176   0.046
 5439SOL     OW16876   3.676   3.908   1.238
 5439SOL    HW116877   3.685   3.814   1.252
 5439SOL    HW216878   3.684   3.919   1.144
 5440SOL     OW16879   2.305   4.156   0.538
 5440SOL    HW116880   2.328   4.086   0.477
 5440SOL    HW216881   2.249   4.113   0.603
 5441SOL     OW16882   2.185   4.264   1.294
 5441SOL    HW116883   2.242   4.210   1.348
 5441SOL    HW216884   2.206   4.238   1.204
 5442SOL     OW16885   3.294   3.948   1.118
 5442SOL    HW116886   3.321   3.869   1.164
 5442SOL    HW216887   3.242   3.997   1.181
 5443SOL     OW16888   2.871   3.744   1.144
 5443SOL    HW116889   2.816   3.676   1.105
 5443SOL    HW216890   2.959   3.706   1.146
 5444SOL     OW16891   3.213   3.778   0.164
 5444SOL    HW116892   3.235   3.727   0.086
 5444SOL    HW216893   3.126   3.746   0.190
 5445SOL     OW16894   3.162   4.175   0.681
 5445SOL    HW116895   3.122   4.261   0.694
 5445SOL    HW216896   3.161   4.135   0.768
 5446SOL     OW16897   3.449   3.928   0.877
 5446SOL    HW116898   3.387   3.948   0.947
 5446SOL    HW216899   3.449   4.006   0.822
 5447SOL     OW16900   2.087   4.289   1.986
 5447SOL    HW116901   2.031   4.357   2.022
 5447SOL    HW216902   2.078   4.298   1.891
 5448SOL     OW16903   2.086   4.000   2.852
 5448SOL    HW116904   2.114   3.968   2.938
 5448SOL    HW216905   1.996   3.970   2.843
 5449SOL     OW16906   1.867   4.101   2.505
 5449SOL    HW116907   1.785   4.130   2.544
 5449SOL    HW216908   1.844   4.024   2.453
 5450SOL     OW16909   3.595   4.335   2.099
 5450SOL    HW116910   3.594   4.321   2.004
 5450SOL    HW216911   3.594   4.247   2.136
 5451SOL     OW16912   2.591   0.269   2.547
 5451SOL    HW116913   2.583   0.207   2.621
 5451SOL    HW216914   2.500   0.285   2.520
 5452SOL     OW16915   2.310   4.117   3.348
 5452SOL    HW116916   2.386   4.061   3.355
 5452SOL    HW216917   2.235   4.059   3.364
 5453SOL     OW16918   3.477   4.173   2.601
 5453SOL    HW116919   3.406   4.199   2.542
 5453SOL    HW216920   3.481   4.243   2.666
 5454SOL     OW16921   3.458   3.846   3.331
 5454SOL    HW116922   3.460   3.926   3.279
 5454SOL    HW216923   3.445   3.877   3.421
 5455SOL     OW16924   1.940   4.372   2.431
 5455SOL    HW116925   1.933   4.279   2.452
 5455SOL    HW216926   2.004   4.405   2.493
 5456SOL     OW16927   1.981   4.474   3.446
 5456SOL    HW116928   2.051   4.491   3.510
 5456SOL    HW216929   1.949   0.061   3.423
 5457SOL     OW16930   2.675   3.724   2.369
 5457SOL    HW116931   2.716   3.809   2.352
 5457SOL    HW216932   2.582   3.743   2.379
 5458SOL     OW16933   2.194   3.975   3.670
 5458SOL    HW116934   2.236   4.059   3.687
 5458SOL    HW216935   2.104   3.986   3.701
 5459SOL     OW16936   3.140   4.071   2.794
 5459SOL    HW116937   3.050   4.038   2.804
 5459SOL    HW216938   3.191   4.020   2.856
 5460SOL     OW16939   2.688   4.307   3.311
 5460SOL    HW116940   2.647   4.312   3.398
 5460SOL    HW216941   2.622   4.266   3.256
 5461SOL     OW16942   3.258   4.199   3.538
 5461SOL    HW116943   3.259   4.243   3.624
 5461SOL    HW216944   3.317   4.125   3.549
 5462SOL     OW16945   2.859   4.148   3.096
 5462SOL    HW116946   2.785   4.170   3.154
 5462SOL    HW216947   2.821   4.090   3.030
 5463SOL     OW16948   2.918   4.410   2.281
 5463SOL    HW116949   2.917   4.448   2.369
 5463SOL    HW216950   2.831   4.373   2.270
 5464SOL     OW16951   2.751   4.064   2.052
 5464SOL    HW116952   2.794   4.126   1.993
 5464SOL    HW216953   2.770   3.978   2.014
 5465SOL     OW16954   3.569   4.298   3.691
 5465SOL    HW116955   3.580   4.387   3.657
 5465SOL    HW216956   3.592   4.241   3.617
 5466SOL     OW16957   2.412   3.906   2.754
 5466SOL    HW116958   2.413   3.933   2.846
 5466SOL    HW216959   2.411   3.988   2.704
 5467SOL     OW16960   3.351   4.464   2.599
 5467SOL    HW116961   3.333   4.409   2.676
 5467SOL    HW216962   3.392   0.043   2.635
 5468SOL     OW16963   2.060   4.005   3.364
 5468SOL    HW116964   1.976   4.050   3.357
 5468SOL    HW216965   2.046   3.939   3.432
 5469SOL     OW16966   3.263   3.831   2.293
 5469SOL    HW116967   3.253   3.806   2.201
 5469SOL    HW216968   3.357   3.840   2.306
 5470SOL     OW16969   2.217   4.386   2.271
 5470SOL    HW116970   2.256   4.311   2.316
 5470SOL    HW216971   2.147   4.415   2.329
 5471SOL     OW16972   3.398   3.950   3.587
 5471SOL    HW116973   3.407   3.971   3.680
 5471SOL    HW216974   3.330   3.883   3.584
 5472SOL     OW16975   2.494   3.848   1.968
 5472SOL    HW116976   2.566   3.786   1.979
 5472SOL    HW216977   2.446   3.816   1.892
 5473SOL     OW16978   2.629   4.001   3.615
 5473SOL    HW116979   2.703   3.942   3.618
 5473SOL    HW216980   2.579   3.982   3.695
 5474SOL     OW16981   3.206   4.311   3.291
 5474SOL    HW116982   3.228   4.274   3.376
 5474SOL    HW216983   3.246   4.398   3.291
 5475SOL     OW16984   2.784   4.236   2.760
 5475SOL    HW116985   2.762   4.220   2.669
 5475SOL    HW216986   2.824   4.155   2.791
 5476SOL     OW16987   2.410   3.787   2.365
 5476SOL    HW116988   2.330   3.787   2.417
 5476SOL    HW216989   2.404   3.866   2.311
 5477SOL     OW16990   2.154   3.771   2.046
 5477SOL    HW116991   2.212   3.836   2.008
 5477SOL    HW216992   2.213   3.707   2.087
 5478SOL     OW16993   2.799   3.971   2.325
 5478SOL    HW116994   2.772   4.010   2.241
 5478SOL    HW216995   2.894   3.983   2.327
 5479SOL     OW16996   2.938   4.395   3.381
 5479SOL    HW116997   2.854   4.366   3.345
 5479SOL    HW216998   3.004   4.354   3.324
 5480SOL     OW16999   2.887   4.268   1.887
 5480SOL    HW117000   2.869   4.355   1.853
 5480SOL    HW217001   2.950   4.282   1.958
 5481SOL     OW17002   1.937   4.280   3.254
 5481SOL    HW117003   2.028   4.272   3.227
 5481SOL    HW217004   1.937   4.353   3.316
 5482SOL     OW17005   2.422   3.950   3.025
 5482SOL    HW117006   2.462   3.873   3.065
 5482SOL    HW217007   2.331   3.948   3.056
 5483SOL     OW17008   2.731   4.189   2.499
 5483SOL    HW117009   2.696   4.248   2.432
 5483SOL    HW217010   2.750   4.108   2.452
 5484SOL     OW17011   2.876   3.777   2.615
 5484SOL    HW117012   2.818   3.768   2.539
 5484SOL    HW217013   2.855   3.701   2.669
 5485SOL     OW17014   3.339   4.312   2.829
 5485SOL    HW117015   3.281   4.238   2.849
 5485SOL    HW217016   3.390   4.325   2.909
 5486SOL     OW17017   3.264   4.295   1.935
 5486SOL    HW117018   3.202   4.269   2.003
 5486SOL    HW217019   3.346   4.255   1.961
 5487SOL     OW17020   2.387   3.987   2.181
 5487SOL    HW117021   2.428   3.938   2.111
 5487SOL    HW217022   2.371   4.074   2.143
 5488SOL     OW17023   2.780   3.821   3.259
 5488SOL    HW117024   2.804   3.802   3.168
 5488SOL    HW217025   2.859   3.861   3.296
 5489SOL     OW17026   2.296   0.008   3.133
 5489SOL    HW117027   2.362   0.005   3.202
 5489SOL    HW217028   2.253   4.423   3.136
 5490SOL     OW17029   3.128   4.100   3.136
 5490SOL    HW117030   3.162   4.177   3.181
 5490SOL    HW217031   3.038   4.124   3.111
 5491SOL     OW17032   2.416   4.255   2.727
 5491SOL    HW117033   2.436   4.299   2.645
 5491SOL    HW217034   2.480   4.289   2.789
 5492SOL     OW17035   3.432   4.340   2.338
 5492SOL    HW117036   3.403   4.405   2.402
 5492SOL    HW217037   3.492   4.387   2.281
 5493SOL     OW17038   2.858   3.845   3.618
 5493SOL    HW117039   2.912   3.918   3.589
 5493SOL    HW217040   2.907   3.767   3.592
 5494SOL     OW17041   2.360   3.766   3.609
 5494SOL    HW117042   2.318   3.712   3.543
 5494SOL    HW217043   2.300   3.840   3.621
 5495SOL     OW17044   3.073   4.255   2.127
 5495SOL    HW117045   3.083   4.175   2.179
 5495SOL    HW217046   3.024   4.314   2.183
 5496SOL     OW17047   2.162   3.923   3.108
 5496SOL    HW117048   2.125   3.956   3.190
 5496SOL    HW217049   2.142   3.830   3.109
 5497SOL     OW17050   2.593   4.360   2.908
 5497SOL    HW117051   2.667   4.324   2.858
 5497SOL    HW217052   2.600   4.455   2.897
 5498SOL     OW17053   3.613   0.135   3.717
 5498SOL    HW117054   3.549   0.148   3.647
 5498SOL    HW217055   3.568   0.162   3.797
 5499SOL     OW17056   2.165   3.789   2.485
 5499SOL    HW117057   2.145   3.880   2.509
 5499SOL    HW217058   2.171   3.743   2.568
 5500SOL     OW17059   3.475   4.091   2.231
 5500SOL    HW117060   3.504   4.030   2.299
 5500SOL    HW217061   3.452   4.171   2.278
 5501SOL     OW17062   3.390   3.999   1.989
 5501SOL    HW117063   3.327   3.932   2.015
 5501SOL    HW217064   3.424   4.033   2.072
 5502SOL     OW17065   2.180   0.012   2.782
 5502SOL    HW117066   2.256   0.069   2.794
 5502SOL    HW217067   2.193   4.440   2.844
 5503SOL     OW17068   2.199   4.240   2.883
 5503SOL    HW117069   2.160   4.154   2.863
 5503SOL    HW217070   2.272   4.247   2.822
 5504SOL     OW17071   3.000   4.094   3.547
 5504SOL    HW117072   2.947   4.153   3.601
 5504SOL    HW217073   3.084   4.138   3.538
 5505SOL     OW17074   3.022   3.927   3.331
 5505SOL    HW117075   3.013   3.988   3.404
 5505SOL    HW217076   3.062   3.979   3.261
 5506SOL     OW17077   1.898   4.271   2.977
 5506SOL    HW117078   1.980   4.254   2.930
 5506SOL    HW217079   1.924   4.274   3.069
 5507SOL     OW17080   2.054   4.243   3.579
 5507SOL    HW117081   2.111   4.199   3.516
 5507SOL    HW217082   2.001   4.302   3.526
 5508SOL     OW17083   2.681   4.283   2.209
 5508SOL    HW117084   2.681   4.208   2.150
 5508SOL    HW217085   2.594   4.321   2.200
 5509SOL     OW17086   3.499   4.318   3.050
 5509SOL    HW117087   3.494   4.260   3.126
 5509SOL    HW217088   3.587   4.304   3.015
 5510SOL     OW17089   2.546   4.182   3.118
 5510SOL    HW117090   2.501   4.104   3.086
 5510SOL    HW217091   2.549   4.241   3.043
 5511SOL     OW17092   2.343   4.223   2.052
 5511SOL    HW117093   2.376   4.310   2.072
 5511SOL    HW217094   2.248   4.234   2.042
 5512SOL     OW17095   3.581   3.868   2.374
 5512SOL    HW117096   3.654   3.854   2.313
 5512SOL    HW217097   3.565   3.782   2.413
 5513SOL     OW17098   3.141   0.137   2.541
 5513SOL    HW117099   3.200   0.061   2.550
 5513SOL    HW217100   3.192   0.200   2.490
 5514SOL     OW17101   3.701   3.896   2.830
 5514SOL    HW117102   3.731   3.810   2.801
 5514SOL    HW217103   3.615   3.908   2.789
 5515SOL     OW17104   2.125   4.042   2.580
 5515SOL    HW117105   2.038   4.072   2.555
 5515SOL    HW217106   2.120   4.030   2.675
 5516SOL     OW17107   2.771   0.091   2.083
 5516SOL    HW117108   2.852   0.132   2.053
 5516SOL    HW217109   2.793   0.052   2.167
 5517SOL     OW17110   2.929   0.302   2.601
 5517SOL    HW117111   2.848   0.285   2.552
 5517SOL    HW217112   2.991   0.237   2.568
 5518SOL     OW17113   2.881   3.964   2.827
 5518SOL    HW117114   2.877   3.915   2.745
 5518SOL    HW217115   2.877   3.897   2.895
 5519SOL     OW17116   3.582   4.114   3.242
 5519SOL    HW117117   3.653   4.178   3.239
 5519SOL    HW217118   3.612   4.043   3.186
 5520SOL     OW17119   2.535   3.919   3.361
 5520SOL    HW117120   2.620   3.901   3.319
 5520SOL    HW217121   2.558   3.951   3.449
 5521SOL     OW17122   1.937   4.045   1.891
 5521SOL    HW117123   1.849   4.037   1.854
 5521SOL    HW217124   1.969   4.130   1.862
 5522SOL     OW17125   1.932   3.881   2.174
 5522SOL    HW117126   1.916   3.960   2.123
 5522SOL    HW217127   2.016   3.848   2.143
 5523SOL     OW17128   2.589   4.287   3.565
 5523SOL    HW117129   2.593   4.334   3.648
 5523SOL    HW217130   2.613   4.197   3.586
 5524SOL     OW17131   3.081   4.043   2.317
 5524SOL    HW117132   3.143   3.971   2.308
 5524SOL    HW217133   3.109   4.090   2.395
 5525SOL     OW17134   3.623   4.089   3.510
 5525SOL    HW117135   3.606   4.100   3.416
 5525SOL    HW217136   3.554   4.031   3.541
 5526SOL     OW17137   2.972   0.229   1.965
 5526SOL    HW117138   2.955   0.269   1.881
 5526SOL    HW217139   3.054   0.181   1.952
 5527SOL     OW17140   3.676   3.908   3.100
 5527SOL    HW117141   3.685   3.814   3.114
 5527SOL    HW217142   3.684   3.919   3.006
 5528SOL     OW17143   2.305   4.155   2.399
 5528SOL    HW117144   2.325   4.086   2.337
 5528SOL    HW217145   2.249   4.113   2.465
 5529SOL     OW17146   2.185   4.264   3.156
 5529SOL    HW117147   2.242   4.210   3.210
 5529SOL    HW217148   2.206   4.238   3.066
 5530SOL     OW17149   3.294   3.948   2.980
 5530SOL    HW117150   3.321   3.869   3.027
 5530SOL    HW217151   3.242   3.997   3.043
 5531SOL     OW17152   2.871   3.744   3.006
 5531SOL    HW117153   2.816   3.676   2.966
 5531SOL    HW217154   2.959   3.706   3.008
 5532SOL     OW17155   3.214   3.778   2.026
 5532SOL    HW117156   3.241   3.715   1.958
 5532SOL    HW217157   3.127   3.747   2.053
 5533SOL     OW17158   3.161   4.176   2.544
 5533SOL    HW117159   3.122   4.262   2.558
 5533SOL    HW217160   3.161   4.135   2.630
 5534SOL     OW17161   3.448   3.928   2.739
 5534SOL    HW117162   3.387   3.948   2.809
 5534SOL    HW217163   3.449   4.006   2.684
 5535SOL     OW17164   2.086   4.288   3.848
 5535SOL    HW117165   2.031   4.358   3.884
 5535SOL    HW217166   2.078   4.298   3.753
 5536SOL     OW17167   2.086   4.000   4.714
 5536SOL    HW117168   2.114   3.968   4.800
 5536SOL    HW217169   1.996   3.970   4.705
 5537SOL     OW17170   1.867   4.101   4.367
 5537SOL    HW117171   1.785   4.130   4.406
 5537SOL    HW217172   1.844   4.024   4.315
 5538SOL     OW17173   3.595   4.335   3.961
 5538SOL    HW117174   3.594   4.321   3.866
 5538SOL    HW217175   3.594   4.246   3.998
 5539SOL     OW17176   2.591   0.269   4.409
 5539SOL    HW117177   2.583   0.208   4.483
 5539SOL    HW217178   2.500   0.286   4.383
 5540SOL     OW17179   2.309   4.117   5.211
 5540SOL    HW117180   2.387   4.061   5.217
 5540SOL    HW217181   2.236   4.058   5.226
 5541SOL     OW17182   3.477   4.173   4.463
 5541SOL    HW117183   3.406   4.199   4.404
 5541SOL    HW217184   3.481   4.243   4.528
 5542SOL     OW17185   3.458   3.846   5.193
 5542SOL    HW117186   3.460   3.926   5.141
 5542SOL    HW217187   3.445   3.877   5.283
 5543SOL     OW17188   1.939   4.372   4.293
 5543SOL    HW117189   1.933   4.279   4.314
 5543SOL    HW217190   2.004   4.406   4.355
 5544SOL     OW17191   1.981   4.474   5.309
 5544SOL    HW117192   2.051   4.491   5.372
 5544SOL    HW217193   1.949   0.061   5.285
 5545SOL     OW17194   2.675   3.724   4.230
 5545SOL    HW117195   2.715   3.809   4.214
 5545SOL    HW217196   2.582   3.743   4.241
 5546SOL     OW17197   2.193   3.975   5.531
 5546SOL    HW117198   2.236   4.059   5.548
 5546SOL    HW217199   2.104   3.987   5.563
 5547SOL     OW17200   3.140   4.071   4.656
 5547SOL    HW117201   3.050   4.038   4.666
 5547SOL    HW217202   3.191   4.020   4.718
 5548SOL     OW17203   2.688   4.307   5.173
 5548SOL    HW117204   2.646   4.312   5.260
 5548SOL    HW217205   2.621   4.266   5.118
 5549SOL     OW17206   3.258   4.199   5.400
 5549SOL    HW117207   3.259   4.243   5.486
 5549SOL    HW217208   3.316   4.125   5.411
 5550SOL     OW17209   2.859   4.149   4.958
 5550SOL    HW117210   2.786   4.170   5.016
 5550SOL    HW217211   2.821   4.090   4.892
 5551SOL     OW17212   2.918   4.410   4.143
 5551SOL    HW117213   2.918   4.449   4.230
 5551SOL    HW217214   2.831   4.373   4.133
 5552SOL     OW17215   2.751   4.064   3.914
 5552SOL    HW117216   2.793   4.126   3.855
 5552SOL    HW217217   2.771   3.978   3.876
 5553SOL     OW17218   3.569   4.298   5.553
 5553SOL    HW117219   3.580   4.387   5.518
 5553SOL    HW217220   3.591   4.241   5.479
 5554SOL     OW17221   2.411   3.906   4.616
 5554SOL    HW117222   2.413   3.933   4.707
 5554SOL    HW217223   2.411   3.988   4.566
 5555SOL     OW17224   3.351   4.464   4.461
 5555SOL    HW117225   3.333   4.409   4.538
 5555SOL    HW217226   3.392   0.043   4.497
 5556SOL     OW17227   2.060   4.004   5.225
 5556SOL    HW117228   1.977   4.051   5.218
 5556SOL    HW217229   2.046   3.942   5.297
 5557SOL     OW17230   3.263   3.831   4.155
 5557SOL    HW117231   3.253   3.806   4.063
 5557SOL    HW217232   3.357   3.840   4.168
 5558SOL     OW17233   2.217   4.386   4.132
 5558SOL    HW117234   2.256   4.311   4.177
 5558SOL    HW217235   2.147   4.415   4.191
 5559SOL     OW17236   3.398   3.950   5.449
 5559SOL    HW117237   3.407   3.971   5.542
 5559SOL    HW217238   3.331   3.882   5.446
 5560SOL     OW17239   2.493   3.848   3.830
 5560SOL    HW117240   2.566   3.786   3.841
 5560SOL    HW217241   2.446   3.815   3.754
 5561SOL     OW17242   2.628   4.001   5.477
 5561SOL    HW117243   2.703   3.942   5.480
 5561SOL    HW217244   2.580   3.982   5.558
 5562SOL     OW17245   3.206   4.311   5.153
 5562SOL    HW117246   3.228   4.274   5.238
 5562SOL    HW217247   3.246   4.398   5.153
 5563SOL     OW17248   2.784   4.236   4.622
 5563SOL    HW117249   2.762   4.220   4.531
 5563SOL    HW217250   2.824   4.155   4.653
 5564SOL     OW17251   2.410   3.787   4.227
 5564SOL    HW117252   2.330   3.788   4.279
 5564SOL    HW217253   2.404   3.866   4.173
 5565SOL     OW17254   2.154   3.771   3.908
 5565SOL    HW117255   2.212   3.836   3.870
 5565SOL    HW217256   2.213   3.707   3.949
 5566SOL     OW17257   2.799   3.971   4.187
 5566SOL    HW117258   2.772   4.010   4.104
 5566SOL    HW217259   2.893   3.983   4.189
 5567SOL     OW17260   2.938   4.395   5.243
 5567SOL    HW117261   2.854   4.366   5.207
 5567SOL    HW217262   3.004   4.355   5.186
 5568SOL     OW17263   2.886   4.268   3.749
 5568SOL    HW117264   2.869   4.355   3.715
 5568SOL    HW217265   2.950   4.282   3.820
 5569SOL     OW17266   1.937   4.280   5.117
 5569SOL    HW117267   2.028   4.272   5.089
 5569SOL    HW217268   1.937   4.353   5.178
 5570SOL     OW17269   2.422   3.950   4.887
 5570SOL    HW117270   2.463   3.873   4.927
 5570SOL    HW217271   2.331   3.948   4.918
 5571SOL     OW17272   2.731   4.189   4.361
 5571SOL    HW117273   2.696   4.248   4.294
 5571SOL    HW217274   2.750   4.108   4.314
 5572SOL     OW17275   2.876   3.777   4.477
 5572SOL    HW117276   2.818   3.768   4.401
 5572SOL    HW217277   2.856   3.701   4.531
 5573SOL     OW17278   3.339   4.312   4.691
 5573SOL    HW117279   3.281   4.238   4.711
 5573SOL    HW217280   3.390   4.325   4.771
 5574SOL     OW17281   3.264   4.295   3.797
 5574SOL    HW117282   3.202   4.269   3.865
 5574SOL    HW217283   3.346   4.255   3.823
 5575SOL     OW17284   2.387   3.987   4.044
 5575SOL    HW117285   2.428   3.938   3.973
 5575SOL    HW217286   2.371   4.074   4.005
 5576SOL     OW17287   2.780   3.822   5.120
 5576SOL    HW117288   2.804   3.802   5.030
 5576SOL    HW217289   2.859   3.861   5.158
 5577SOL     OW17290   2.295   0.009   4.996
 5577SOL    HW117291   2.363   0.004   5.064
 5577SOL    HW217292   2.253   4.423   4.999
 5578SOL     OW17293   3.128   4.100   4.998
 5578SOL    HW117294   3.162   4.177   5.043
 5578SOL    HW217295   3.039   4.124   4.973
 5579SOL     OW17296   2.416   4.255   4.589
 5579SOL    HW117297   2.436   4.299   4.507
 5579SOL    HW217298   2.480   4.289   4.651
 5580SOL     OW17299   3.432   4.340   4.200
 5580SOL    HW117300   3.403   4.405   4.264
 5580SOL    HW217301   3.492   4.387   4.143
 5581SOL     OW17302   2.858   3.845   5.480
 5581SOL    HW117303   2.913   3.918   5.451
 5581SOL    HW217304   2.906   3.766   5.454
 5582SOL     OW17305   2.360   3.766   5.471
 5582SOL    HW117306   2.318   3.712   5.404
 5582SOL    HW217307   2.300   3.840   5.483
 5583SOL     OW17308   3.073   4.254   3.989
 5583SOL    HW117309   3.083   4.175   4.041
 5583SOL    HW217310   3.024   4.314   4.045
 5584SOL     OW17311   2.162   3.923   4.970
 5584SOL    HW117312   2.125   3.956   5.052
 5584SOL    HW217313   2.141   3.829   4.971
 5585SOL     OW17314   2.593   4.360   4.770
 5585SOL    HW117315   2.667   4.324   4.720
 5585SOL    HW217316   2.600   4.455   4.759
 5586SOL     OW17317   3.613   0.135   5.579
 5586SOL    HW117318   3.549   0.148   5.509
 5586SOL    HW217319   3.568   0.163   5.659
 5587SOL     OW17320   2.164   3.789   4.347
 5587SOL    HW117321   2.145   3.880   4.371
 5587SOL    HW217322   2.171   3.743   4.431
 5588SOL     OW17323   3.475   4.091   4.093
 5588SOL    HW117324   3.504   4.030   4.161
 5588SOL    HW217325   3.452   4.171   4.140
 5589SOL     OW17326   3.390   3.999   3.851
 5589SOL    HW117327   3.327   3.932   3.877
 5589SOL    HW217328   3.424   4.033   3.934
 5590SOL     OW17329   2.180   0.012   4.644
 5590SOL    HW117330   2.256   0.069   4.656
 5590SOL    HW217331   2.194   4.441   4.706
 5591SOL     OW17332   2.199   4.240   4.745
 5591SOL    HW117333   2.160   4.155   4.725
 5591SOL    HW217334   2.272   4.247   4.684
 5592SOL     OW17335   3.000   4.094   5.409
 5592SOL    HW117336   2.947   4.154   5.463
 5592SOL    HW217337   3.084   4.138   5.400
 5593SOL     OW17338   3.022   3.927   5.193
 5593SOL    HW117339   3.013   3.988   5.266
 5593SOL    HW217340   3.062   3.979   5.123
 5594SOL     OW17341   1.898   4.270   4.839
 5594SOL    HW117342   1.980   4.254   4.792
 5594SOL    HW217343   1.925   4.274   4.931
 5595SOL     OW17344   2.054   4.243   5.441
 5595SOL    HW117345   2.113   4.201   5.377
 5595SOL    HW217346   2.001   4.303   5.388
 5596SOL     OW17347   2.681   4.282   4.072
 5596SOL    HW117348   2.681   4.208   4.012
 5596SOL    HW217349   2.594   4.322   4.062
 5597SOL     OW17350   3.499   4.318   4.912
 5597SOL    HW117351   3.494   4.260   4.987
 5597SOL    HW217352   3.587   4.304   4.877
 5598SOL     OW17353   2.545   4.183   4.980
 5598SOL    HW117354   2.501   4.104   4.947
 5598SOL    HW217355   2.549   4.241   4.905
 5599SOL     OW17356   2.343   4.222   3.914
 5599SOL    HW117357   2.376   4.310   3.934
 5599SOL    HW217358   2.248   4.234   3.904
 5600SOL     OW17359   3.581   3.868   4.236
 5600SOL    HW117360   3.654   3.854   4.175
 5600SOL    HW217361   3.565   3.782   4.275
 5601SOL     OW17362   3.141   0.137   4.403
 5601SOL    HW117363   3.200   0.061   4.411
 5601SOL    HW217364   3.192   0.201   4.353
 5602SOL     OW17365   3.701   3.896   4.692
 5602SOL    HW117366   3.730   3.810   4.663
 5602SOL    HW217367   3.615   3.908   4.651
 5603SOL     OW17368   2.125   4.041   4.442
 5603SOL    HW117369   2.038   4.072   4.417
 5603SOL    HW217370   2.120   4.030   4.537
 5604SOL     OW17371   2.771   0.091   3.945
 5604SOL    HW117372   2.852   0.132   3.915
 5604SOL    HW217373   2.793   0.053   4.030
 5605SOL     OW17374   2.928   0.302   4.463
 5605SOL    HW117375   2.848   0.286   4.413
 5605SOL    HW217376   2.991   0.237   4.430
 5606SOL     OW17377   2.881   3.964   4.689
 5606SOL    HW117378   2.877   3.915   4.607
 5606SOL    HW217379   2.877   3.897   4.757
 5607SOL     OW17380   3.582   4.114   5.104
 5607SOL    HW117381   3.653   4.178   5.101
 5607SOL    HW217382   3.612   4.043   5.048
 5608SOL     OW17383   2.535   3.919   5.223
 5608SOL    HW117384   2.619   3.901   5.181
 5608SOL    HW217385   2.559   3.951   5.311
 5609SOL     OW17386   1.937   4.044   3.753
 5609SOL    HW117387   1.849   4.038   3.715
 5609SOL    HW217388   1.969   4.130   3.725
 5610SOL     OW17389   1.932   3.881   4.036
 5610SOL    HW117390   1.916   3.960   3.985
 5610SOL    HW217391   2.016   3.848   4.005
 5611SOL     OW17392   2.589   4.287   5.426
 5611SOL    HW117393   2.594   4.334   5.510
 5611SOL    HW217394   2.613   4.197   5.448
 5612SOL     OW17395   3.081   4.043   4.179
 5612SOL    HW117396   3.143   3.971   4.170
 5612SOL    HW217397   3.109   4.090   4.257
 5613SOL     OW17398   3.623   4.089   5.372
 5613SOL    HW117399   3.606   4.100   5.278
 5613SOL    HW217400   3.554   4.031   5.403
 5614SOL     OW17401   2.972   0.228   3.827
 5614SOL    HW117402   2.955   0.270   3.743
 5614SOL    HW217403   3.054   0.181   3.814
 5615SOL     OW17404   3.677   3.908   4.962
 5615SOL    HW117405   3.685   3.814   4.976
 5615SOL    HW217406   3.685   3.919   4.868
 5616SOL     OW17407   2.305   4.155   4.261
 5616SOL    HW117408   2.325   4.086   4.199
 5616SOL    HW217409   2.249   4.113   4.327
 5617SOL     OW17410   2.185   4.264   5.018
 5617SOL    HW117411   2.242   4.210   5.072
 5617SOL    HW217412   2.206   4.238   4.928
 5618SOL     OW17413   3.294   3.948   4.842
 5618SOL    HW117414   3.320   3.869   4.888
 5618SOL    HW217415   3.242   3.997   4.905
 5619SOL     OW17416   2.871   3.744   4.868
 5619SOL    HW117417   2.816   3.675   4.830
 5619SOL    HW217418   2.959   3.706   4.870
 5620SOL     OW17419   3.214   3.778   3.888
 5620SOL    HW117420   3.241   3.715   3.820
 5620SOL    HW217421   3.127   3.747   3.915
 5621SOL     OW17422   3.161   4.176   4.406
 5621SOL    HW117423   3.122   4.262   4.420
 5621SOL    HW217424   3.161   4.134   4.492
 5622SOL     OW17425   3.449   3.928   4.601
 5622SOL    HW117426   3.387   3.948   4.671
 5622SOL    HW217427   3.449   4.006   4.546
 5623SOL     OW17428   2.086   4.288   5.710
 5623SOL    HW117429   2.032   4.358   5.747
 5623SOL    HW217430   2.078   4.298   5.615
 5624SOL     OW17431   2.086   4.000   6.576
 5624SOL    HW117432   2.114   3.968   6.662
 5624SOL    HW217433   1.996   3.970   6.567
 5625SOL     OW17434   1.867   4.101   6.229
 5625SOL    HW117435   1.785   4.130   6.268
 5625SOL    HW217436   1.844   4.024   6.177
 5626SOL     OW17437   3.595   4.335   5.823
 5626SOL    HW117438   3.594   4.321   5.728
 5626SOL    HW217439   3.594   4.246   5.860
 5627SOL     OW17440   2.591   0.269   6.271
 5627SOL    HW117441   2.583   0.207   6.345
 5627SOL    HW217442   2.500   0.285   6.245
 5628SOL     OW17443   2.310   4.117   7.072
 5628SOL    HW117444   2.387   4.061   7.079
 5628SOL    HW217445   2.235   4.059   7.088
 5629SOL     OW17446   3.477   4.173   6.325
 5629SOL    HW117447   3.406   4.199   6.266
 5629SOL    HW217448   3.481   4.243   6.390
 5630SOL     OW17449   3.458   3.846   7.055
 5630SOL    HW117450   3.460   3.926   7.002
 5630SOL    HW217451   3.445   3.877   7.145
 5631SOL     OW17452   1.939   4.372   6.155
 5631SOL    HW117453   1.933   4.279   6.176
 5631SOL    HW217454   2.004   4.406   6.217
 5632SOL     OW17455   1.981   4.474   7.170
 5632SOL    HW117456   2.051   4.490   7.234
 5632SOL    HW217457   1.948   0.061   7.148
 5633SOL     OW17458   2.675   3.724   6.092
 5633SOL    HW117459   2.715   3.809   6.076
 5633SOL    HW217460   2.582   3.744   6.103
 5634SOL     OW17461   2.194   3.975   7.394
 5634SOL    HW117462   2.236   4.059   7.411
 5634SOL    HW217463   2.104   3.986   7.425
 5635SOL     OW17464   3.139   4.071   6.518
 5635SOL    HW117465   3.050   4.038   6.528
 5635SOL    HW217466   3.191   4.020   6.580
 5636SOL     OW17467   2.688   4.307   7.035
 5636SOL    HW117468   2.647   4.312   7.122
 5636SOL    HW217469   2.622   4.266   6.980
 5637SOL     OW17470   3.258   4.199   7.262
 5637SOL    HW117471   3.259   4.243   7.348
 5637SOL    HW217472   3.317   4.125   7.273
 5638SOL     OW17473   2.859   4.148   6.820
 5638SOL    HW117474   2.785   4.170   6.878
 5638SOL    HW217475   2.821   4.090   6.754
 5639SOL     OW17476   2.918   4.410   6.005
 5639SOL    HW117477   2.918   4.448   6.093
 5639SOL    HW217478   2.831   4.373   5.995
 5640SOL     OW17479   2.750   4.064   5.775
 5640SOL    HW117480   2.793   4.127   5.717
 5640SOL    HW217481   2.772   3.978   5.738
 5641SOL     OW17482   3.569   4.298   7.415
 5641SOL    HW117483   3.580   4.387   7.380
 5641SOL    HW217484   3.592   4.241   7.341
 5642SOL     OW17485   2.411   3.906   6.478
 5642SOL    HW117486   2.413   3.933   6.569
 5642SOL    HW217487   2.411   3.988   6.428
 5643SOL     OW17488   3.351   4.464   6.323
 5643SOL    HW117489   3.333   4.409   6.400
 5643SOL    HW217490   3.392   0.043   6.359
 5644SOL     OW17491   2.060   4.005   7.088
 5644SOL    HW117492   1.976   4.050   7.081
 5644SOL    HW217493   2.046   3.939   7.156
 5645SOL     OW17494   3.263   3.831   6.017
 5645SOL    HW117495   3.253   3.806   5.925
 5645SOL    HW217496   3.357   3.839   6.029
 5646SOL     OW17497   2.217   4.386   5.994
 5646SOL    HW117498   2.256   4.311   6.039
 5646SOL    HW217499   2.147   4.415   6.053
 5647SOL     OW17500   3.398   3.950   7.311
 5647SOL    HW117501   3.407   3.971   7.404
 5647SOL    HW217502   3.330   3.883   7.308
 5648SOL     OW17503   2.493   3.847   5.693
 5648SOL    HW117504   2.566   3.786   5.704
 5648SOL    HW217505   2.446   3.815   5.616
 5649SOL     OW17506   2.629   4.002   7.339
 5649SOL    HW117507   2.703   3.942   7.342
 5649SOL    HW217508   2.579   3.982   7.419
 5650SOL     OW17509   3.206   4.311   7.015
 5650SOL    HW117510   3.228   4.274   7.100
 5650SOL    HW217511   3.246   4.398   7.015
 5651SOL     OW17512   2.784   4.236   6.484
 5651SOL    HW117513   2.762   4.220   6.393
 5651SOL    HW217514   2.824   4.154   6.514
 5652SOL     OW17515   2.410   3.787   6.089
 5652SOL    HW117516   2.329   3.788   6.141
 5652SOL    HW217517   2.404   3.866   6.035
 5653SOL     OW17518   2.155   3.771   5.770
 5653SOL    HW117519   2.213   3.837   5.732
 5653SOL    HW217520   2.214   3.708   5.811
 5654SOL     OW17521   2.798   3.971   6.049
 5654SOL    HW117522   2.772   4.010   5.965
 5654SOL    HW217523   2.893   3.983   6.051
 5655SOL     OW17524   2.938   4.395   7.105
 5655SOL    HW117525   2.854   4.366   7.069
 5655SOL    HW217526   3.004   4.355   7.048
 5656SOL     OW17527   2.886   4.268   5.612
 5656SOL    HW117528   2.870   4.355   5.576
 5656SOL    HW217529   2.950   4.282   5.681
 5657SOL     OW17530   1.937   4.280   6.978
 5657SOL    HW117531   2.028   4.272   6.951
 5657SOL    HW217532   1.937   4.353   7.040
 5658SOL     OW17533   2.422   3.950   6.749
 5658SOL    HW117534   2.463   3.873   6.789
 5658SOL    HW217535   2.331   3.948   6.780
 5659SOL     OW17536   2.731   4.189   6.223
 5659SOL    HW117537   2.696   4.248   6.156
 5659SOL    HW217538   2.750   4.108   6.176
 5660SOL     OW17539   2.875   3.777   6.339
 5660SOL    HW117540   2.818   3.768   6.263
 5660SOL    HW217541   2.856   3.701   6.393
 5661SOL     OW17542   3.339   4.312   6.553
 5661SOL    HW117543   3.282   4.238   6.573
 5661SOL    HW217544   3.390   4.325   6.633
 5662SOL     OW17545   3.264   4.295   5.659
 5662SOL    HW117546   3.202   4.269   5.727
 5662SOL    HW217547   3.346   4.255   5.684
 5663SOL     OW17548   2.386   3.987   5.906
 5663SOL    HW117549   2.428   3.937   5.835
 5663SOL    HW217550   2.370   4.074   5.867
 5664SOL     OW17551   2.780   3.822   6.983
 5664SOL    HW117552   2.804   3.802   6.892
 5664SOL    HW217553   2.859   3.861   7.020
 5665SOL     OW17554   2.296   0.009   6.858
 5665SOL    HW117555   2.362   0.005   6.926
 5665SOL    HW217556   2.253   4.423   6.860
 5666SOL     OW17557   3.128   4.100   6.860
 5666SOL    HW117558   3.162   4.177   6.905
 5666SOL    HW217559   3.038   4.124   6.835
 5667SOL     OW17560   2.416   4.255   6.451
 5667SOL    HW117561   2.436   4.299   6.369
 5667SOL    HW217562   2.480   4.289   6.513
 5668SOL     OW17563   3.432   4.340   6.062
 5668SOL    HW117564   3.403   4.406   6.125
 5668SOL    HW217565   3.492   4.387   6.004
 5669SOL     OW17566   2.858   3.845   7.342
 5669SOL    HW117567   2.913   3.918   7.313
 5669SOL    HW217568   2.907   3.767   7.316
 5670SOL     OW17569   2.360   3.766   7.333
 5670SOL    HW117570   2.318   3.711   7.267
 5670SOL    HW217571   2.300   3.840   7.345
 5671SOL     OW17572   3.073   4.254   5.851
 5671SOL    HW117573   3.083   4.175   5.903
 5671SOL    HW217574   3.024   4.314   5.907
 5672SOL     OW17575   2.162   3.923   6.832
 5672SOL    HW117576   2.125   3.956   6.914
 5672SOL    HW217577   2.142   3.830   6.833
 5673SOL     OW17578   2.593   4.360   6.632
 5673SOL    HW117579   2.667   4.324   6.582
 5673SOL    HW217580   2.600   4.455   6.621
 5674SOL     OW17581   3.613   0.135   7.441
 5674SOL    HW117582   3.549   0.148   7.371
 5674SOL    HW217583   3.568   0.163   7.521
 5675SOL     OW17584   2.163   3.789   6.209
 5675SOL    HW117585   2.144   3.879   6.232
 5675SOL    HW217586   2.171   3.743   6.292
 5676SOL     OW17587   3.475   4.091   5.955
 5676SOL    HW117588   3.504   4.030   6.023
 5676SOL    HW217589   3.452   4.171   6.002
 5677SOL     OW17590   3.390   3.999   5.713
 5677SOL    HW117591   3.327   3.932   5.739
 5677SOL    HW217592   3.424   4.033   5.796
 5678SOL     OW17593   2.180   0.012   6.506
 5678SOL    HW117594   2.256   0.069   6.518
 5678SOL    HW217595   2.193   4.440   6.568
 5679SOL     OW17596   2.199   4.240   6.607
 5679SOL    HW117597   2.160   4.154   6.587
 5679SOL    HW217598   2.272   4.247   6.546
 5680SOL     OW17599   3.000   4.094   7.271
 5680SOL    HW117600   2.947   4.153   7.325
 5680SOL    HW217601   3.084   4.138   7.262
 5681SOL     OW17602   3.022   3.927   7.055
 5681SOL    HW117603   3.013   3.988   7.128
 5681SOL    HW217604   3.062   3.979   6.985
 5682SOL     OW17605   1.898   4.271   6.701
 5682SOL    HW117606   1.980   4.254   6.654
 5682SOL    HW217607   1.924   4.274   6.793
 5683SOL     OW17608   2.054   4.243   7.303
 5683SOL    HW117609   2.111   4.199   7.240
 5683SOL    HW217610   2.000   4.302   7.250
 5684SOL     OW17611   2.681   4.282   5.934
 5684SOL    HW117612   2.681   4.208   5.874
 5684SOL    HW217613   2.594   4.322   5.923
 5685SOL     OW17614   3.499   4.318   6.774
 5685SOL    HW117615   3.494   4.260   6.849
 5685SOL    HW217616   3.587   4.304   6.739
 5686SOL     OW17617   2.546   4.182   6.842
 5686SOL    HW117618   2.501   4.104   6.810
 5686SOL    HW217619   2.549   4.241   6.767
 5687SOL     OW17620   2.342   4.222   5.776
 5687SOL    HW117621   2.376   4.310   5.795
 5687SOL    HW217622   2.248   4.234   5.766
 5688SOL     OW17623   3.581   3.868   6.098
 5688SOL    HW117624   3.654   3.854   6.037
 5688SOL    HW217625   3.565   3.782   6.137
 5689SOL     OW17626   3.141   0.137   6.265
 5689SOL    HW117627   3.200   0.061   6.274
 5689SOL    HW217628   3.192   0.200   6.214
 5690SOL     OW17629   3.701   3.896   6.554
 5690SOL    HW117630   3.731   3.810   6.525
 5690SOL    HW217631   3.615   3.908   6.513
 5691SOL     OW17632   2.125   4.041   6.304
 5691SOL    HW117633   2.038   4.072   6.279
 5691SOL    HW217634   2.121   4.030   6.399
 5692SOL     OW17635   2.771   0.091   5.807
 5692SOL    HW117636   2.852   0.132   5.777
 5692SOL    HW217637   2.793   0.052   5.892
 5693SOL     OW17638   2.928   0.302   6.325
 5693SOL    HW117639   2.848   0.285   6.275
 5693SOL    HW217640   2.991   0.237   6.292
 5694SOL     OW17641   2.881   3.964   6.551
 5694SOL    HW117642   2.877   3.915   6.469
 5694SOL    HW217643   2.877   3.897   6.619
 5695SOL     OW17644   3.582   4.114   6.966
 5695SOL    HW117645   3.653   4.178   6.963
 5695SOL    HW217646   3.612   4.043   6.910
 5696SOL     OW17647   2.535   3.919   7.085
 5696SOL    HW117648   2.620   3.901   7.043
 5696SOL    HW217649   2.559   3.951   7.173
 5697SOL     OW17650   1.936   4.044   5.615
 5697SOL    HW117651   1.849   4.038   5.577
 5697SOL    HW217652   1.969   4.130   5.588
 5698SOL     OW17653   1.932   3.881   5.898
 5698SOL    HW117654   1.916   3.960   5.848
 5698SOL    HW217655   2.017   3.849   5.867
 5699SOL     OW17656   2.589   4.287   7.289
 5699SOL    HW117657   2.593   4.333   7.372
 5699SOL    HW217658   2.612   4.197   7.310
 5700SOL     OW17659   3.081   4.043   6.041
 5700SOL    HW117660   3.143   3.971   6.032
 5700SOL    HW217661   3.109   4.090   6.119
 5701SOL     OW17662   3.623   4.089   7.234
 5701SOL    HW117663   3.606   4.100   7.140
 5701SOL    HW217664   3.554   4.031   7.265
 5702SOL     OW17665   2.972   0.228   5.689
 5702SOL    HW117666   2.955   0.271   5.605
 5702SOL    HW217667   3.054   0.181   5.676
 5703SOL     OW17668   3.676   3.908   6.824
 5703SOL    HW117669   3.685   3.814   6.838
 5703SOL    HW217670   3.684   3.919   6.730
 5704SOL     OW17671   2.304   4.155   6.123
 5704SOL    HW117672   2.325   4.086   6.061
 5704SOL    HW217673   2.249   4.113   6.189
 5705SOL     OW17674   2.185   4.264   6.880
 5705SOL    HW117675   2.242   4.210   6.934
 5705SOL    HW217676   2.206   4.238   6.790
 5706SOL     OW17677   3.294   3.948   6.704
 5706SOL    HW117678   3.321   3.869   6.750
 5706SOL    HW217679   3.242   3.997   6.767
 5707SOL     OW17680   2.871   3.744   6.730
 5707SOL    HW117681   2.817   3.675   6.690
 5707SOL    HW217682   2.959   3.706   6.732
 5708SOL     OW17683   3.214   3.777   5.750
 5708SOL    HW117684   3.242   3.715   5.683
 5708SOL    HW217685   3.127   3.747   5.776
 5709SOL     OW17686   3.161   4.176   6.268
 5709SOL    HW117687   3.122   4.262   6.282
 5709SOL    HW217688   3.161   4.135   6.354
 5710SOL     OW17689   3.449   3.928   6.463
 5710SOL    HW117690   3.387   3.948   6.533
 5710SOL    HW217691   3.449   4.006   6.408
 5711SOL     OW17692   2.087   4.289   7.572
 5711SOL    HW117693   2.031   4.357   7.608
 5711SOL    HW217694   2.078   4.298   7.477
 5712SOL     OW17695   2.086   4.000   8.438
 5712SOL    HW117696   2.114   3.968   8.524
 5712SOL    HW217697   1.996   3.970   8.429
 5713SOL     OW17698   1.867   4.101   8.091
 5713SOL    HW117699   1.785   4.130   8.130
 5713SOL    HW217700   1.844   4.024   8.039
 5714SOL     OW17701   3.595   4.335   7.685
 5714SOL    HW117702   3.594   4.321   7.590
 5714SOL    HW217703   3.594   4.246   7.722
 5715SOL     OW17704   2.591   0.269   8.134
 5715SOL    HW117705   2.583   0.207   8.206
 5715SOL    HW217706   2.500   0.284   8.106
 5716SOL     OW17707   2.310   4.117   8.934
 5716SOL    HW117708   2.386   4.060   8.941
 5716SOL    HW217709   2.235   4.059   8.950
 5717SOL     OW17710   3.477   4.173   8.187
 5717SOL    HW117711   3.406   4.199   8.128
 5717SOL    HW217712   3.481   4.243   8.252
 5718SOL     OW17713   3.458   3.846   8.917
 5718SOL    HW117714   3.460   3.926   8.865
 5718SOL    HW217715   3.445   3.877   9.007
 5719SOL     OW17716   1.940   4.371   8.016
 5719SOL    HW117717   1.933   4.278   8.038
 5719SOL    HW217718   2.004   4.405   8.079
 5720SOL     OW17719   1.981   4.474   9.032
 5720SOL    HW117720   2.051   4.490   9.096
 5720SOL    HW217721   1.948   0.061   9.010
 5721SOL     OW17722   2.675   3.724   7.954
 5721SOL    HW117723   2.715   3.809   7.938
 5721SOL    HW217724   2.582   3.743   7.965
 5722SOL     OW17725   2.194   3.975   9.256
 5722SOL    HW117726   2.236   4.060   9.273
 5722SOL    HW217727   2.104   3.986   9.287
 5723SOL     OW17728   3.140   4.071   8.380
 5723SOL    HW117729   3.050   4.038   8.390
 5723SOL    HW217730   3.191   4.020   8.442
 5724SOL     OW17731   2.688   4.307   8.897
 5724SOL    HW117732   2.647   4.312   8.984
 5724SOL    HW217733   2.622   4.266   8.842
 5725SOL     OW17734   3.258   4.199   9.124
 5725SOL    HW117735   3.259   4.243   9.210
 5725SOL    HW217736   3.317   4.125   9.135
 5726SOL     OW17737   2.859   4.148   8.682
 5726SOL    HW117738   2.785   4.170   8.740
 5726SOL    HW217739   2.821   4.090   8.616
 5727SOL     OW17740   2.918   4.410   7.867
 5727SOL    HW117741   2.917   4.448   7.955
 5727SOL    HW217742   2.831   4.373   7.856
 5728SOL     OW17743   2.751   4.064   7.638
 5728SOL    HW117744   2.793   4.126   7.579
 5728SOL    HW217745   2.771   3.978   7.600
 5729SOL     OW17746   3.569   4.298   9.277
 5729SOL    HW117747   3.580   4.387   9.242
 5729SOL    HW217748   3.592   4.241   9.203
 5730SOL     OW17749   2.412   3.906   8.340
 5730SOL    HW117750   2.413   3.933   8.432
 5730SOL    HW217751   2.411   3.988   8.290
 5731SOL     OW17752   3.351   4.464   8.185
 5731SOL    HW117753   3.333   4.409   8.262
 5731SOL    HW217754   3.392   0.043   8.221
 5732SOL     OW17755   2.060   4.005   8.950
 5732SOL    HW117756   1.976   4.050   8.943
 5732SOL    HW217757   2.046   3.938   9.017
 5733SOL     OW17758   3.263   3.831   7.879
 5733SOL    HW117759   3.253   3.806   7.787
 5733SOL    HW217760   3.357   3.840   7.892
 5734SOL     OW17761   2.217   4.386   7.857
 5734SOL    HW117762   2.256   4.311   7.902
 5734SOL    HW217763   2.146   4.415   7.915
 5735SOL     OW17764   3.398   3.950   9.173
 5735SOL    HW117765   3.407   3.971   9.266
 5735SOL    HW217766   3.330   3.883   9.170
 5736SOL     OW17767   2.494   3.848   7.554
 5736SOL    HW117768   2.566   3.786   7.566
 5736SOL    HW217769   2.446   3.816   7.478
 5737SOL     OW17770   2.629   4.002   9.201
 5737SOL    HW117771   2.703   3.942   9.204
 5737SOL    HW217772   2.579   3.982   9.281
 5738SOL     OW17773   3.206   4.311   8.877
 5738SOL    HW117774   3.228   4.274   8.962
 5738SOL    HW217775   3.246   4.398   8.877
 5739SOL     OW17776   2.784   4.236   8.346
 5739SOL    HW117777   2.762   4.220   8.255
 5739SOL    HW217778   2.824   4.155   8.377
 5740SOL     OW17779   2.410   3.787   7.951
 5740SOL    HW117780   2.330   3.787   8.003
 5740SOL    HW217781   2.404   3.866   7.897
 5741SOL     OW17782   2.154   3.771   7.632
 5741SOL    HW117783   2.213   3.836   7.594
 5741SOL    HW217784   2.212   3.707   7.673
 5742SOL     OW17785   2.799   3.971   7.911
 5742SOL    HW117786   2.772   4.010   7.827
 5742SOL    HW217787   2.894   3.983   7.913
 5743SOL     OW17788   2.938   4.395   8.967
 5743SOL    HW117789   2.854   4.366   8.931
 5743SOL    HW217790   3.004   4.354   8.910
 5744SOL     OW17791   2.886   4.268   7.474
 5744SOL    HW117792   2.869   4.355   7.439
 5744SOL    HW217793   2.950   4.282   7.544
 5745SOL     OW17794   1.937   4.280   8.840
 5745SOL    HW117795   2.028   4.272   8.813
 5745SOL    HW217796   1.937   4.353   8.902
 5746SOL     OW17797   2.422   3.950   8.611
 5746SOL    HW117798   2.462   3.873   8.651
 5746SOL    HW217799   2.331   3.948   8.642
 5747SOL     OW17800   2.731   4.189   8.085
 5747SOL    HW117801   2.696   4.248   8.018
 5747SOL    HW217802   2.750   4.108   8.038
 5748SOL     OW17803   2.876   3.777   8.201
 5748SOL    HW117804   2.818   3.768   8.125
 5748SOL    HW217805   2.855   3.701   8.255
 5749SOL     OW17806   3.339   4.312   8.415
 5749SOL    HW117807   3.281   4.238   8.435
 5749SOL    HW217808   3.390   4.325   8.495
 5750SOL     OW17809   3.264   4.296   7.521
 5750SOL    HW117810   3.202   4.269   7.589
 5750SOL    HW217811   3.346   4.255   7.547
 5751SOL     OW17812   2.387   3.987   7.768
 5751SOL    HW117813   2.428   3.938   7.697
 5751SOL    HW217814   2.371   4.074   7.729
 5752SOL     OW17815   2.780   3.821   8.845
 5752SOL    HW117816   2.804   3.802   8.754
 5752SOL    HW217817   2.859   3.861   8.882
 5753SOL     OW17818   2.296   0.008   8.719
 5753SOL    HW117819   2.362   0.005   8.788
 5753SOL    HW217820   2.253   4.423   8.722
 5754SOL     OW17821   3.128   4.100   8.722
 5754SOL    HW117822   3.162   4.177   8.767
 5754SOL    HW217823   3.038   4.124   8.697
 5755SOL     OW17824   2.416   4.255   8.313
 5755SOL    HW117825   2.436   4.299   8.231
 5755SOL    HW217826   2.480   4.289   8.375
 5756SOL     OW17827   3.432   4.340   7.924
 5756SOL    HW117828   3.403   4.405   7.988
 5756SOL    HW217829   3.492   4.387   7.866
 5757SOL     OW17830   2.858   3.845   9.204
 5757SOL    HW117831   2.912   3.918   9.175
 5757SOL    HW217832   2.907   3.767   9.178
 5758SOL     OW17833   2.360   3.766   9.195
 5758SOL    HW117834   2.318   3.711   9.129
 5758SOL    HW217835   2.300   3.840   9.207
 5759SOL     OW17836   3.073   4.255   7.713
 5759SOL    HW117837   3.083   4.175   7.765
 5759SOL    HW217838   3.024   4.314   7.769
 5760SOL     OW17839   2.162   3.923   8.694
 5760SOL    HW117840   2.124   3.956   8.776
 5760SOL    HW217841   2.142   3.830   8.695
 5761SOL     OW17842   2.593   4.360   8.494
 5761SOL    HW117843   2.667   4.324   8.444
 5761SOL    HW217844   2.600   4.455   8.482
 5762SOL     OW17845   3.613   0.135   9.303
 5762SOL    HW117846   3.549   0.148   9.233
 5762SOL    HW217847   3.568   0.163   9.383
 5763SOL     OW17848   2.165   3.790   8.071
 5763SOL    HW117849   2.145   3.880   8.095
 5763SOL    HW217850   2.171   3.743   8.154
 5764SOL     OW17851   3.475   4.091   7.817
 5764SOL    HW117852   3.504   4.030   7.885
 5764SOL    HW217853   3.452   4.171   7.864
 5765SOL     OW17854   3.390   3.999   7.575
 5765SOL    HW117855   3.327   3.932   7.601
 5765SOL    HW217856   3.424   4.033   7.658
 5766SOL     OW17857   2.180   0.012   8.368
 5766SOL    HW117858   2.256   0.069   8.380
 5766SOL    HW217859   2.193   4.440   8.430
 5767SOL     OW17860   2.199   4.240   8.469
 5767SOL    HW117861   2.160   4.155   8.449
 5767SOL    HW217862   2.272   4.247   8.408
 5768SOL     OW17863   3.000   4.094   9.133
 5768SOL    HW117864   2.947   4.153   9.187
 5768SOL    HW217865   3.084   4.138   9.124
 5769SOL     OW17866   3.022   3.927   8.917
 5769SOL    HW117867   3.013   3.988   8.990
 5769SOL    HW217868   3.062   3.979   8.847
 5770SOL     OW17869   1.898   4.271   8.563
 5770SOL    HW117870   1.980   4.254   8.516
 5770SOL    HW217871   1.924   4.274   8.655
 5771SOL     OW17872   2.054   4.243   9.165
 5771SOL    HW117873   2.111   4.199   9.102
 5771SOL    HW217874   2.000   4.302   9.112
 5772SOL     OW17875   2.681   4.283   7.796
 5772SOL    HW117876   2.681   4.208   7.736
 5772SOL    HW217877   2.594   4.321   7.786
 5773SOL     OW17878   3.499   4.318   8.636
 5773SOL    HW117879   3.494   4.260   8.712
 5773SOL    HW217880   3.587   4.304   8.601
 5774SOL     OW17881   2.547   4.182   8.704
 5774SOL    HW117882   2.501   4.104   8.672
 5774SOL    HW217883   2.549   4.241   8.629
 5775SOL     OW17884   2.343   4.222   7.638
 5775SOL    HW117885   2.376   4.310   7.658
 5775SOL    HW217886   2.248   4.234   7.628
 5776SOL     OW17887   3.581   3.868   7.960
 5776SOL    HW117888   3.654   3.854   7.899
 5776SOL    HW217889   3.566   3.782   7.999
 5777SOL     OW17890   3.141   0.137   8.127
 5777SOL    HW117891   3.199   0.061   8.136
 5777SOL    HW217892   3.192   0.200   8.076
 5778SOL     OW17893   3.701   3.896   8.416
 5778SOL    HW117894   3.731   3.810   8.387
 5778SOL    HW217895   3.615   3.908   8.375
 5779SOL     OW17896   2.125   4.042   8.166
 5779SOL    HW117897   2.038   4.072   8.141
 5779SOL    HW217898   2.120   4.030   8.261
 5780SOL     OW17899   2.771   0.091   7.669
 5780SOL    HW117900   2.852   0.132   7.639
 5780SOL    HW217901   2.793   0.052   7.753
 5781SOL     OW17902   2.929   0.302   8.187
 5781SOL    HW117903   2.848   0.285   8.138
 5781SOL    HW217904   2.991   0.237   8.154
 5782SOL     OW17905   2.881   3.964   8.413
 5782SOL    HW117906   2.877   3.915   8.331
 5782SOL    HW217907   2.877   3.897   8.481
 5783SOL     OW17908   3.582   4.114   8.828
 5783SOL    HW117909   3.653   4.178   8.825
 5783SOL    HW217910   3.612   4.043   8.772
 5784SOL     OW17911   2.535   3.919   8.947
 5784SOL    HW117912   2.620   3.901   8.905
 5784SOL    HW217913   2.559   3.951   9.035
 5785SOL     OW17914   1.937   4.045   7.477
 5785SOL    HW117915   1.849   4.038   7.440
 5785SOL    HW217916   1.969   4.130   7.448
 5786SOL     OW17917   1.932   3.881   7.760
 5786SOL    HW117918   1.916   3.960   7.709
 5786SOL    HW217919   2.016   3.848   7.729
 5787SOL     OW17920   2.590   4.287   9.151
 5787SOL    HW117921   2.593   4.333   9.234
 5787SOL    HW217922   2.612   4.197   9.172
 5788SOL     OW17923   3.081   4.043   7.903
 5788SOL    HW117924   3.143   3.971   7.894
 5788SOL    HW217925   3.109   4.090   7.981
 5789SOL     OW17926   3.623   4.089   9.096
 5789SOL    HW117927   3.606   4.100   9.002
 5789SOL    HW217928   3.554   4.031   9.127
 5790SOL     OW17929   2.972   0.229   7.551
 5790SOL    HW117930   2.955   0.270   7.467
 5790SOL    HW217931   3.054   0.181   7.538
 5791SOL     OW17932   3.676   3.908   8.686
 5791SOL    HW117933   3.685   3.814   8.700
 5791SOL    HW217934   3.684   3.919   8.592
 5792SOL     OW17935   2.305   4.155   7.985
 5792SOL    HW117936   2.325   4.086   7.923
 5792SOL    HW217937   2.249   4.113   8.051
 5793SOL     OW17938   2.185   4.264   8.742
 5793SOL    HW117939   2.242   4.210   8.796
 5793SOL    HW217940   2.206   4.238   8.652
 5794SOL     OW17941   3.294   3.948   8.566
 5794SOL    HW117942   3.321   3.869   8.613
 5794SOL    HW217943   3.242   3.997   8.629
 5795SOL     OW17944   2.871   3.744   8.592
 5795SOL    HW117945   2.816   3.676   8.552
 5795SOL    HW217946   2.959   3.706   8.594
 5796SOL     OW17947   3.214   3.778   7.612
 5796SOL    HW117948   3.241   3.715   7.544
 5796SOL    HW217949   3.127   3.747   7.639
 5797SOL     OW17950   3.161   4.176   8.130
 5797SOL    HW117951   3.122   4.262   8.144
 5797SOL    HW217952   3.161   4.135   8.216
 5798SOL     OW17953   3.448   3.928   8.325
 5798SOL    HW117954   3.387   3.948   8.395
 5798SOL    HW217955   3.449   4.006   8.270
 5799SOL     OW17956   2.087   4.289   9.434
 5799SOL    HW117957   2.031   4.357   9.470
 5799SOL    HW217958   2.078   4.298   9.339
 5800SOL     OW17959   2.086   4.000  10.300
 5800SOL    HW117960   2.114   3.968  10.386
 5800SOL    HW217961   1.996   3.970  10.291
 5801SOL     OW17962   1.867   4.101   9.953
 5801SOL    HW117963   1.785   4.130   9.992
 5801SOL    HW217964   1.844   4.024   9.901
 5802SOL     OW17965   3.595   4.335   9.547
 5802SOL    HW117966   3.594   4.321   9.452
 5802SOL    HW217967   3.594   4.246   9.584
 5803SOL     OW17968   2.591   0.269   9.996
 5803SOL    HW117969   2.583   0.207  10.068
 5803SOL    HW217970   2.500   0.284   9.968
 5804SOL     OW17971   2.315   4.118  10.792
 5804SOL    HW117972   2.385   4.053  10.800
 5804SOL    HW217973   2.236   4.071  10.816
 5805SOL     OW17974   3.477   4.173  10.049
 5805SOL    HW117975   3.406   4.199   9.990
 5805SOL    HW217976   3.482   4.243  10.113
 5806SOL     OW17977   3.451   3.840  10.779
 5806SOL    HW117978   3.462   3.920  10.728
 5806SOL    HW217979   3.451   3.869  10.870
 5807SOL     OW17980   1.941   4.371   9.878
 5807SOL    HW117981   1.932   4.278   9.900
 5807SOL    HW217982   2.004   4.405   9.942
 5808SOL     OW17983   1.990   4.459  10.906
 5808SOL    HW117984   2.086   4.464  10.909
 5808SOL    HW217985   1.962   0.049  10.893
 5809SOL     OW17986   2.675   3.724   9.817
 5809SOL    HW117987   2.716   3.809   9.800
 5809SOL    HW217988   2.582   3.743   9.827
 5810SOL     OW17989   2.204   3.978   0.017
 5810SOL    HW117990   2.247   4.062   0.034
 5810SOL    HW217991   2.111   3.995   0.033
 5811SOL     OW17992   3.140   4.072  10.243
 5811SOL    HW117993   3.050   4.038  10.252
 5811SOL    HW217994   3.191   4.020  10.304
 5812SOL     OW17995   2.686   4.303  10.765
 5812SOL    HW117996   2.638   4.316  10.847
 5812SOL    HW217997   2.621   4.263  10.706
 5813SOL     OW17998   2.858   4.147  10.545
 5813SOL    HW117999   2.782   4.169  10.599
 5813SOL    HW218000   2.823   4.091  10.477
 5814SOL     OW18001   2.918   4.410   9.729
 5814SOL    HW118002   2.917   4.448   9.817
 5814SOL    HW218003   2.831   4.373   9.718
 5815SOL     OW18004   2.751   4.064   9.500
 5815SOL    HW118005   2.793   4.126   9.441
 5815SOL    HW218006   2.770   3.978   9.462
 5816SOL     OW18007   2.413   3.906  10.202
 5816SOL    HW118008   2.413   3.933  10.294
 5816SOL    HW218009   2.411   3.988  10.153
 5817SOL     OW18010   3.351   4.463  10.047
 5817SOL    HW118011   3.333   4.409  10.124
 5817SOL    HW218012   3.392   0.043  10.083
 5818SOL     OW18013   2.064   4.004  10.807
 5818SOL    HW118014   1.983   4.056  10.807
 5818SOL    HW218015   2.052   3.942  10.879
 5819SOL     OW18016   3.263   3.831   9.741
 5819SOL    HW118017   3.253   3.806   9.649
 5819SOL    HW218018   3.357   3.840   9.754
 5820SOL     OW18019   2.217   4.386   9.719
 5820SOL    HW118020   2.256   4.311   9.764
 5820SOL    HW218021   2.147   4.415   9.777
 5821SOL     OW18022   2.494   3.848   9.416
 5821SOL    HW118023   2.566   3.786   9.427
 5821SOL    HW218024   2.446   3.816   9.340
 5822SOL     OW18025   2.629   4.001  11.046
 5822SOL    HW118026   2.695   3.942  11.083
 5822SOL    HW218027   2.569   4.018   0.018
 5823SOL     OW18028   3.214   4.308  10.743
 5823SOL    HW118029   3.235   4.288  10.835
 5823SOL    HW218030   3.239   4.400  10.733
 5824SOL     OW18031   2.785   4.236  10.208
 5824SOL    HW118032   2.762   4.220  10.117
 5824SOL    HW218033   2.824   4.154  10.238
 5825SOL     OW18034   2.410   3.787   9.813
 5825SOL    HW118035   2.330   3.787   9.865
 5825SOL    HW218036   2.404   3.866   9.759
 5826SOL     OW18037   2.154   3.771   9.494
 5826SOL    HW118038   2.213   3.836   9.456
 5826SOL    HW218039   2.213   3.707   9.535
 5827SOL     OW18040   2.799   3.971   9.773
 5827SOL    HW118041   2.772   4.010   9.689
 5827SOL    HW218042   2.894   3.983   9.775
 5828SOL     OW18043   2.941   4.383  10.820
 5828SOL    HW118044   2.854   4.363  10.785
 5828SOL    HW218045   3.002   4.344  10.757
 5829SOL     OW18046   2.886   4.268   9.336
 5829SOL    HW118047   2.869   4.355   9.301
 5829SOL    HW218048   2.950   4.282   9.406
 5830SOL     OW18049   1.935   4.281  10.705
 5830SOL    HW118050   2.026   4.273  10.677
 5830SOL    HW218051   1.937   4.341  10.779
 5831SOL     OW18052   2.422   3.950  10.474
 5831SOL    HW118053   2.461   3.872  10.514
 5831SOL    HW218054   2.331   3.949  10.504
 5832SOL     OW18055   2.732   4.189   9.947
 5832SOL    HW118056   2.696   4.248   9.880
 5832SOL    HW218057   2.750   4.108   9.900
 5833SOL     OW18058   2.876   3.777  10.063
 5833SOL    HW118059   2.818   3.769   9.987
 5833SOL    HW218060   2.855   3.701  10.117
 5834SOL     OW18061   3.338   4.312  10.277
 5834SOL    HW118062   3.282   4.238  10.296
 5834SOL    HW218063   3.390   4.325  10.356
 5835SOL     OW18064   3.264   4.296   9.383
 5835SOL    HW118065   3.202   4.269   9.451
 5835SOL    HW218066   3.346   4.255   9.409
 5836SOL     OW18067   2.387   3.987   9.629
 5836SOL    HW118068   2.428   3.938   9.559
 5836SOL    HW218069   2.371   4.074   9.591
 5837SOL     OW18070   2.781   3.823  10.707
 5837SOL    HW118071   2.804   3.803  10.616
 5837SOL    HW218072   2.859   3.863  10.744
 5838SOL     OW18073   2.297   0.006  10.574
 5838SOL    HW118074   2.356   0.007  10.650
 5838SOL    HW218075   2.251   4.423  10.582
 5839SOL     OW18076   3.128   4.100  10.586
 5839SOL    HW118077   3.163   4.177  10.630
 5839SOL    HW218078   3.040   4.125  10.559
 5840SOL     OW18079   2.417   4.254  10.175
 5840SOL    HW118080   2.436   4.300  10.093
 5840SOL    HW218081   2.480   4.289  10.237
 5841SOL     OW18082   3.432   4.340   9.786
 5841SOL    HW118083   3.403   4.406   9.850
 5841SOL    HW218084   3.492   4.387   9.728
 5842SOL     OW18085   2.267   4.463  10.906
 5842SOL    HW118086   2.332   0.030  10.888
 5842SOL    HW218087   2.317   4.383  10.919
 5843SOL     OW18088   3.073   4.255   9.575
 5843SOL    HW118089   3.083   4.175   9.627
 5843SOL    HW218090   3.024   4.314   9.631
 5844SOL     OW18091   2.162   3.924  10.555
 5844SOL    HW118092   2.127   3.957  10.637
 5844SOL    HW218093   2.142   3.830  10.557
 5845SOL     OW18094   2.593   4.360  10.356
 5845SOL    HW118095   2.667   4.325  10.306
 5845SOL    HW218096   2.599   4.455  10.344
 5846SOL     OW18097   2.165   3.790   9.933
 5846SOL    HW118098   2.145   3.880   9.957
 5846SOL    HW218099   2.170   3.743  10.016
 5847SOL     OW18100   3.475   4.091   9.679
 5847SOL    HW118101   3.504   4.030   9.747
 5847SOL    HW218102   3.452   4.171   9.726
 5848SOL     OW18103   3.390   3.999   9.437
 5848SOL    HW118104   3.327   3.932   9.463
 5848SOL    HW218105   3.424   4.033   9.519
 5849SOL     OW18106   2.181   0.012  10.230
 5849SOL    HW118107   2.256   0.068  10.243
 5849SOL    HW218108   2.192   4.441  10.293
 5850SOL     OW18109   2.199   4.239  10.330
 5850SOL    HW118110   2.160   4.154  10.310
 5850SOL    HW218111   2.272   4.246  10.269
 5851SOL     OW18112   3.019   3.932  10.782
 5851SOL    HW118113   3.027   3.992  10.856
 5851SOL    HW218114   3.059   3.980  10.709
 5852SOL     OW18115   1.899   4.273  10.426
 5852SOL    HW118116   1.981   4.254  10.380
 5852SOL    HW218117   1.924   4.276  10.519
 5853SOL     OW18118   3.213   0.187  10.990
 5853SOL    HW118119   3.277   0.257  11.001
 5853SOL    HW218120   3.229   0.154  10.901
 5854SOL     OW18121   2.681   4.283   9.657
 5854SOL    HW118122   2.681   4.208   9.598
 5854SOL    HW218123   2.594   4.321   9.648
 5855SOL     OW18124   3.499   4.318  10.497
 5855SOL    HW118125   3.495   4.259  10.573
 5855SOL    HW218126   3.587   4.306  10.462
 5856SOL     OW18127   2.552   4.181  10.565
 5856SOL    HW118128   2.502   4.104  10.536
 5856SOL    HW218129   2.550   4.241  10.491
 5857SOL     OW18130   2.343   4.223   9.500
 5857SOL    HW118131   2.376   4.310   9.520
 5857SOL    HW218132   2.248   4.234   9.489
 5858SOL     OW18133   3.581   3.868   9.822
 5858SOL    HW118134   3.654   3.854   9.761
 5858SOL    HW218135   3.565   3.782   9.861
 5859SOL     OW18136   3.142   0.137   9.989
 5859SOL    HW118137   3.200   0.061   9.998
 5859SOL    HW218138   3.192   0.200   9.937
 5860SOL     OW18139   3.701   3.896  10.278
 5860SOL    HW118140   3.731   3.810  10.249
 5860SOL    HW218141   3.615   3.907  10.237
 5861SOL     OW18142   2.125   4.042  10.028
 5861SOL    HW118143   2.038   4.073  10.003
 5861SOL    HW218144   2.120   4.030  10.123
 5862SOL     OW18145   2.771   0.091   9.531
 5862SOL    HW118146   2.852   0.132   9.501
 5862SOL    HW218147   2.793   0.052   9.615
 5863SOL     OW18148   2.929   0.302  10.049
 5863SOL    HW118149   2.848   0.286   9.999
 5863SOL    HW218150   2.991   0.237  10.017
 5864SOL     OW18151   2.882   3.964  10.275
 5864SOL    HW118152   2.877   3.916  10.193
 5864SOL    HW218153   2.877   3.897  10.343
 5865SOL     OW18154   3.579   4.116  10.690
 5865SOL    HW118155   3.651   4.180  10.690
 5865SOL    HW218156   3.610   4.045  10.633
 5866SOL     OW18157   2.535   3.917  10.804
 5866SOL    HW118158   2.618   3.898  10.759
 5866SOL    HW218159   2.562   3.954  10.888
 5867SOL     OW18160   1.937   4.045   9.339
 5867SOL    HW118161   1.849   4.038   9.302
 5867SOL    HW218162   1.969   4.130   9.310
 5868SOL     OW18163   1.932   3.881   9.622
 5868SOL    HW118164   1.916   3.961   9.572
 5868SOL    HW218165   2.016   3.848   9.591
 5869SOL     OW18166   2.581   4.299  11.025
 5869SOL    HW118167   2.620   4.344  11.099
 5869SOL    HW218168   2.620   4.211  11.026
 5870SOL     OW18169   3.081   4.042   9.765
 5870SOL    HW118170   3.143   3.971   9.756
 5870SOL    HW218171   3.109   4.090   9.843
 5871SOL     OW18172   3.616   4.051  10.954
 5871SOL    HW118173   3.595   4.081  10.866
 5871SOL    HW218174   3.533   4.056  11.002
 5872SOL     OW18175   2.973   0.229   9.413
 5872SOL    HW118176   2.955   0.270   9.329
 5872SOL    HW218177   3.054   0.181   9.400
 5873SOL     OW18178   3.673   3.908  10.549
 5873SOL    HW118179   3.683   3.814  10.562
 5873SOL    HW218180   3.683   3.920  10.454
 5874SOL     OW18181   2.305   4.155   9.847
 5874SOL    HW118182   2.325   4.085   9.785
 5874SOL    HW218183   2.249   4.113   9.913
 5875SOL     OW18184   2.183   4.264  10.603
 5875SOL    HW118185   2.240   4.210  10.659
 5875SOL    HW218186   2.205   4.237  10.514
 5876SOL     OW18187   3.293   3.947  10.427
 5876SOL    HW118188   3.323   3.869  10.474
 5876SOL    HW218189   3.242   3.996  10.492
 5877SOL     OW18190   2.871   3.744  10.455
 5877SOL    HW118191   2.816   3.676  10.414
 5877SOL    HW218192   2.959   3.706  10.456
 5878SOL     OW18193   3.214   3.778   9.474
 5878SOL    HW118194   3.241   3.715   9.406
 5878SOL    HW218195   3.127   3.747   9.501
 5879SOL     OW18196   3.161   4.176   9.992
 5879SOL    HW118197   3.122   4.262  10.006
 5879SOL    HW218198   3.161   4.135  10.078
 5880SOL     OW18199   3.448   3.927  10.187
 5880SOL    HW118200   3.387   3.948  10.257
 5880SOL    HW218201   3.449   4.006  10.132
 5881SOL     OW18202   3.949   0.613   0.117
 5881SOL    HW118203   3.864   0.620   0.161
 5881SOL    HW218204   3.931   0.638   0.026
 5882SOL     OW18205   3.931   0.301   0.988
 5882SOL    HW118206   3.965   0.271   1.073
 5882SOL    HW218207   3.851   0.251   0.976
 5883SOL     OW18208   3.731   0.385   0.638
 5883SOL    HW118209   3.645   0.405   0.675
 5883SOL    HW218210   3.715   0.309   0.582
 5884SOL     OW18211   4.267   1.247   1.147
 5884SOL    HW118212   4.195   1.306   1.123
 5884SOL    HW218213   4.331   1.304   1.189
 5885SOL     OW18214   0.023   0.779   1.857
 5885SOL    HW118215   0.070   0.828   1.925
 5885SOL    HW218216   0.064   0.806   1.775
 5886SOL     OW18217   4.397   0.991   0.640
 5886SOL    HW118218   4.473   0.992   0.698
 5886SOL    HW218219   4.334   1.051   0.681
 5887SOL     OW18220   4.419   1.161   1.813
 5887SOL    HW118221   4.460   1.242   1.784
 5887SOL    HW218222   4.327   1.170   1.788
 5888SOL     OW18223   4.060   1.433   1.069
 5888SOL    HW118224   3.988   1.391   1.023
 5888SOL    HW218225   4.107   1.481   1.001
 5889SOL     OW18226   4.163   0.396   1.488
 5889SOL    HW118227   4.242   0.342   1.489
 5889SOL    HW218228   4.092   0.334   1.501
 5890SOL     OW18229   3.942   1.713   0.475
 5890SOL    HW118230   3.964   1.790   0.527
 5890SOL    HW218231   4.012   1.707   0.410
 5891SOL     OW18232   3.951   1.440   0.532
 5891SOL    HW118233   3.936   1.534   0.537
 5891SOL    HW218234   3.891   1.402   0.597
 5892SOL     OW18235   3.974   1.088   0.886
 5892SOL    HW118236   3.978   1.004   0.931
 5892SOL    HW218237   3.922   1.144   0.944
 5893SOL     OW18238   4.360   1.798   1.453
 5893SOL    HW118239   4.274   1.764   1.478
 5893SOL    HW218240   4.349   1.893   1.454
 5894SOL     OW18241   4.300   1.003   0.138
 5894SOL    HW118242   4.315   1.068   0.070
 5894SOL    HW218243   4.380   1.003   0.190
 5895SOL     OW18244   3.838   0.651   0.560
 5895SOL    HW118245   3.809   0.563   0.582
 5895SOL    HW218246   3.830   0.701   0.641
 5896SOL     OW18247   3.768   1.602   0.120
 5896SOL    HW118248   3.740   1.513   0.143
 5896SOL    HW218249   3.741   1.656   0.195
 5897SOL     OW18250   3.845   0.744   1.585
 5897SOL    HW118251   3.937   0.769   1.597
 5897SOL    HW218252   3.797   0.826   1.592
 5898SOL     OW18253   4.311   1.387   0.738
 5898SOL    HW118254   4.276   1.298   0.741
 5898SOL    HW218255   4.312   1.408   0.644
 5899SOL     OW18256   0.016   0.008   0.502
 5899SOL    HW118257   0.047   0.077   0.443
 5899SOL    HW218258   4.428   0.036   0.527
 5900SOL     OW18259   3.913   0.966   1.271
 5900SOL    HW118260   3.998   0.927   1.253
 5900SOL    HW218261   3.850   0.912   1.223
 5901SOL     OW18262   4.039   0.253   1.784
 5901SOL    HW118263   4.101   0.319   1.814
 5901SOL    HW218264   3.964   0.261   1.844
 5902SOL     OW18265   4.308   0.718   0.269
 5902SOL    HW118266   4.330   0.794   0.215
 5902SOL    HW218267   4.245   0.751   0.333
 5903SOL     OW18268   3.813   0.821   0.775
 5903SOL    HW118269   3.894   0.813   0.825
 5903SOL    HW218270   3.770   0.899   0.810
 5904SOL     OW18271   3.853   1.842   1.576
 5904SOL    HW118272   3.852   1.823   1.670
 5904SOL    HW218273   3.761   1.841   1.550
 5905SOL     OW18274   4.248   0.203   0.894
 5905SOL    HW118275   4.284   0.219   0.982
 5905SOL    HW218276   4.263   0.284   0.847
 5906SOL     OW18277   4.082   1.811   0.862
 5906SOL    HW118278   4.130   1.729   0.869
 5906SOL    HW218279   4.148   1.879   0.872
 5907SOL     OW18280   4.041   0.958   0.274
 5907SOL    HW118281   4.120   0.983   0.226
 5907SOL    HW218282   4.014   0.875   0.235
 5908SOL     OW18283   4.178   1.253   1.735
 5908SOL    HW118284   4.151   1.264   1.644
 5908SOL    HW218285   4.097   1.263   1.785
 5909SOL     OW18286   3.913   0.269   1.511
 5909SOL    HW118287   3.845   0.335   1.493
 5909SOL    HW218288   3.922   0.270   1.606
 5910SOL     OW18289   4.192   1.733   0.326
 5910SOL    HW118290   4.223   1.795   0.392
 5910SOL    HW218291   4.266   1.722   0.266
 5911SOL     OW18292   3.979   1.793   1.233
 5911SOL    HW118293   4.027   1.724   1.279
 5911SOL    HW218294   3.966   1.758   1.144
 5912SOL     OW18295   4.108   0.694   0.475
 5912SOL    HW118296   4.135   0.603   0.488
 5912SOL    HW218297   4.015   0.695   0.498
 5913SOL     OW18298   4.344   0.131   0.103
 5913SOL    HW118299   4.427   0.096   0.134
 5913SOL    HW218300   4.322   0.077   0.027
 5914SOL     OW18301   0.020   1.422   0.913
 5914SOL    HW118302   0.084   1.464   0.856
 5914SOL    HW218303   4.445   1.405   0.856
 5915SOL     OW18304   4.272   0.108   0.538
 5915SOL    HW118305   4.187   0.073   0.565
 5915SOL    HW218306   4.253   0.157   0.458
 5916SOL     OW18307   4.011   0.056   0.199
 5916SOL    HW118308   4.077   0.109   0.154
 5916SOL    HW218309   4.061   0.007   0.265
 5917SOL     OW18310   0.323   0.680   1.456
 5917SOL    HW118311   0.250   0.619   1.443
 5917SOL    HW218312   0.401   0.627   1.441
 5918SOL     OW18313   4.191   1.145   0.737
 5918SOL    HW118314   4.121   1.126   0.800
 5918SOL    HW218315   4.150   1.130   0.651
 5919SOL     OW18316   3.805   0.551   1.394
 5919SOL    HW118317   3.896   0.554   1.363
 5919SOL    HW218318   3.798   0.623   1.457
 5920SOL     OW18319   4.295   0.236   1.158
 5920SOL    HW118320   4.305   0.143   1.180
 5920SOL    HW218321   4.208   0.258   1.189
 5921SOL     OW18322   4.236   1.401   0.190
 5921SOL    HW118323   4.150   1.386   0.231
 5921SOL    HW218324   4.221   1.384   0.097
 5922SOL     OW18325   4.244   0.266   0.318
 5922SOL    HW118326   4.286   0.213   0.249
 5922SOL    HW218327   4.225   0.350   0.276
 5923SOL     OW18328   4.140   0.814   1.249
 5923SOL    HW118329   4.207   0.824   1.317
 5923SOL    HW218330   4.105   0.725   1.263
 5924SOL     OW18331   3.793   1.573   1.352
 5924SOL    HW118332   3.760   1.645   1.298
 5924SOL    HW218333   3.888   1.580   1.346
 5925SOL     OW18334   4.072   1.115   0.496
 5925SOL    HW118335   4.073   1.188   0.435
 5925SOL    HW218336   4.067   1.037   0.441
 5926SOL     OW18337   4.302   0.538   0.862
 5926SOL    HW118338   4.302   0.605   0.793
 5926SOL    HW218339   4.364   0.571   0.927
 5927SOL     OW18340   4.072   1.532   1.317
 5927SOL    HW118341   4.066   1.489   1.232
 5927SOL    HW218342   4.166   1.534   1.336
 5928SOL     OW18343   4.137   0.741   1.605
 5928SOL    HW118344   4.194   0.788   1.544
 5928SOL    HW218345   4.183   0.660   1.624
 5929SOL     OW18346   4.237   0.070   1.727
 5929SOL    HW118347   4.204   4.486   1.694
 5929SOL    HW218348   4.159   0.122   1.744
 5930SOL     OW18349   4.291   0.888   1.026
 5930SOL    HW118350   4.321   0.978   1.040
 5930SOL    HW218351   4.243   0.867   1.106
 5931SOL     OW18352   4.014   0.237   1.240
 5931SOL    HW118353   3.971   0.249   1.325
 5931SOL    HW218354   4.049   0.148   1.243
 5932SOL     OW18355   3.770   1.310   1.277
 5932SOL    HW118356   3.803   1.256   1.349
 5932SOL    HW218357   3.777   1.400   1.310
 5933SOL     OW18358   4.018   0.059   0.656
 5933SOL    HW118359   4.009   0.154   0.660
 5933SOL    HW218360   4.031   0.032   0.747
 5934SOL     OW18361   4.077   0.916   1.807
 5934SOL    HW118362   4.158   0.931   1.855
 5934SOL    HW218363   4.099   0.852   1.740
 5935SOL     OW18364   4.031   0.809   0.946
 5935SOL    HW118365   4.123   0.837   0.946
 5935SOL    HW218366   4.034   0.719   0.979
 5936SOL     OW18367   4.067   0.531   1.010
 5936SOL    HW118368   4.024   0.448   0.991
 5936SOL    HW218369   4.145   0.531   0.955
 5937SOL     OW18370   3.731   1.328   0.195
 5937SOL    HW118371   3.644   1.339   0.156
 5937SOL    HW218372   3.732   1.237   0.225
 5938SOL     OW18373   3.816   1.788   0.938
 5938SOL    HW118374   3.785   1.709   0.894
 5938SOL    HW218375   3.905   1.801   0.906
 5939SOL     OW18376   4.232   1.582   0.906
 5939SOL    HW118377   4.317   1.616   0.933
 5939SOL    HW218378   4.253   1.511   0.845
 5940SOL     OW18379   3.757   0.543   1.118
 5940SOL    HW118380   3.834   0.519   1.065
 5940SOL    HW218381   3.790   0.548   1.207
 5941SOL     OW18382   3.909   0.518   1.720
 5941SOL    HW118383   3.983   0.498   1.663
 5941SOL    HW218384   3.866   0.593   1.679
 5942SOL     OW18385   0.028   0.546   0.267
 5942SOL    HW118386   0.017   0.485   0.339
 5942SOL    HW218387   4.464   0.616   0.285
 5943SOL     OW18388   3.971   1.553   1.729
 5943SOL    HW118389   3.944   1.617   1.795
 5943SOL    HW218390   3.968   1.469   1.774
 5944SOL     OW18391   4.190   0.490   0.176
 5944SOL    HW118392   4.246   0.561   0.205
 5944SOL    HW218393   4.103   0.529   0.170
 5945SOL     OW18394   3.871   1.140   1.472
 5945SOL    HW118395   3.873   1.087   1.552
 5945SOL    HW218396   3.887   1.077   1.402
 5946SOL     OW18397   3.808   1.269   1.013
 5946SOL    HW118398   3.793   1.278   1.107
 5946SOL    HW218399   3.736   1.212   0.983
 5947SOL     OW18400   4.389   1.651   1.702
 5947SOL    HW118401   4.355   1.738   1.726
 5947SOL    HW218402   4.436   1.666   1.619
 5948SOL     OW18403   3.860   1.797   1.843
 5948SOL    HW118404   3.809   1.732   1.892
 5948SOL    HW218405   3.908   1.845   1.911
 5949SOL     OW18406   3.989   0.327   0.717
 5949SOL    HW118407   3.902   0.358   0.692
 5949SOL    HW218408   3.984   0.315   0.812
 5950SOL     OW18409   4.089   1.306   1.491
 5950SOL    HW118410   4.070   1.382   1.436
 5950SOL    HW218411   4.016   1.246   1.474
 5951SOL     OW18412   4.324   1.490   0.481
 5951SOL    HW118413   4.344   1.434   0.406
 5951SOL    HW218414   4.257   1.550   0.449
 5952SOL     OW18415   3.990   1.343   0.287
 5952SOL    HW118416   3.901   1.343   0.250
 5952SOL    HW218417   3.980   1.381   0.374
 5953SOL     OW18418   3.836   1.021   1.719
 5953SOL    HW118419   3.759   0.997   1.772
 5953SOL    HW218420   3.910   0.984   1.767
 5954SOL     OW18421   4.371   0.205   1.489
 5954SOL    HW118422   4.461   0.221   1.461
 5954SOL    HW218423   4.378   0.178   1.580
 5955SOL     OW18424   3.801   0.344   0.053
 5955SOL    HW118425   3.725   0.310   0.007
 5955SOL    HW218426   3.819   0.429   0.012
 5956SOL     OW18427   3.790   0.180   0.325
 5956SOL    HW118428   3.784   0.247   0.257
 5956SOL    HW218429   3.862   0.123   0.297
 5957SOL     OW18430   4.337   0.840   1.435
 5957SOL    HW118431   4.379   0.925   1.420
 5957SOL    HW218432   4.410   0.780   1.450
 5958SOL     OW18433   4.399   0.559   1.732
 5958SOL    HW118434   4.423   0.634   1.787
 5958SOL    HW218435   4.482   0.518   1.709
 5959SOL     OW18436   4.108   1.739   1.560
 5959SOL    HW118437   4.022   1.779   1.548
 5959SOL    HW218438   4.089   1.657   1.606
 5960SOL     OW18439   4.311   0.730   0.664
 5960SOL    HW118440   4.351   0.816   0.656
 5960SOL    HW218441   4.239   0.730   0.600
 5961SOL     OW18442   3.944   1.307   1.855
 5961SOL    HW118443   3.878   1.243   1.827
 5961SOL    HW218444   3.929   1.318   1.949
 5962SOL     OW18445   3.807   1.234   0.665
 5962SOL    HW118446   3.812   1.185   0.747
 5962SOL    HW218447   3.878   1.198   0.612
 5963SOL     OW18448   4.415   1.386   1.656
 5963SOL    HW118449   4.325   1.353   1.654
 5963SOL    HW218450   4.405   1.480   1.672
 5964SOL     OW18451   4.162   0.433   0.529
 5964SOL    HW118452   4.181   0.361   0.469
 5964SOL    HW218453   4.108   0.394   0.597
 5965SOL     OW18454   4.053   0.556   1.289
 5965SOL    HW118455   4.105   0.497   1.343
 5965SOL    HW218456   4.072   0.529   1.199
 5966SOL     OW18457   0.036   1.596   0.686
 5966SOL    HW118458   0.062   1.656   0.616
 5966SOL    HW218459   4.464   1.545   0.649
 5967SOL     OW18460   3.766   1.071   0.300
 5967SOL    HW118461   3.862   1.065   0.297
 5967SOL    HW218462   3.738   0.984   0.326
 5968SOL     OW18463   3.955   0.627   1.982
 5968SOL    HW118464   3.867   0.620   2.021
 5968SOL    HW218465   3.943   0.595   1.892
 5969SOL     OW18466   3.930   0.302   2.851
 5969SOL    HW118467   3.965   0.271   2.935
 5969SOL    HW218468   3.850   0.251   2.838
 5970SOL     OW18469   3.731   0.386   2.501
 5970SOL    HW118470   3.645   0.405   2.537
 5970SOL    HW218471   3.717   0.311   2.443
 5971SOL     OW18472   4.268   1.248   3.007
 5971SOL    HW118473   4.195   1.306   2.985
 5971SOL    HW218474   4.331   1.304   3.052
 5972SOL     OW18475   0.023   0.779   3.719
 5972SOL    HW118476   0.070   0.828   3.787
 5972SOL    HW218477   0.064   0.805   3.637
 5973SOL     OW18478   4.398   0.993   2.501
 5973SOL    HW118479   4.471   0.988   2.563
 5973SOL    HW218480   4.335   1.052   2.543
 5974SOL     OW18481   4.419   1.161   3.675
 5974SOL    HW118482   4.460   1.242   3.646
 5974SOL    HW218483   4.327   1.170   3.650
 5975SOL     OW18484   4.060   1.433   2.931
 5975SOL    HW118485   3.987   1.390   2.885
 5975SOL    HW218486   4.106   1.481   2.863
 5976SOL     OW18487   4.163   0.396   3.350
 5976SOL    HW118488   4.242   0.342   3.351
 5976SOL    HW218489   4.092   0.334   3.363
 5977SOL     OW18490   3.943   1.714   2.336
 5977SOL    HW118491   3.964   1.790   2.389
 5977SOL    HW218492   4.016   1.706   2.275
 5978SOL     OW18493   3.954   1.440   2.396
 5978SOL    HW118494   3.936   1.534   2.402
 5978SOL    HW218495   3.894   1.400   2.459
 5979SOL     OW18496   3.975   1.088   2.749
 5979SOL    HW118497   3.979   1.004   2.793
 5979SOL    HW218498   3.922   1.144   2.806
 5980SOL     OW18499   4.360   1.798   3.315
 5980SOL    HW118500   4.274   1.764   3.340
 5980SOL    HW218501   4.349   1.893   3.316
 5981SOL     OW18502   4.310   0.985   1.999
 5981SOL    HW118503   4.339   1.038   1.925
 5981SOL    HW218504   4.378   0.997   2.066
 5982SOL     OW18505   3.839   0.652   2.422
 5982SOL    HW118506   3.810   0.563   2.443
 5982SOL    HW218507   3.831   0.701   2.503
 5983SOL     OW18508   3.756   1.596   1.986
 5983SOL    HW118509   3.737   1.504   2.005
 5983SOL    HW218510   3.731   1.642   2.066
 5984SOL     OW18511   3.845   0.744   3.447
 5984SOL    HW118512   3.937   0.769   3.459
 5984SOL    HW218513   3.797   0.826   3.454
 5985SOL     OW18514   4.312   1.387   2.599
 5985SOL    HW118515   4.276   1.298   2.603
 5985SOL    HW218516   4.312   1.408   2.506
 5986SOL     OW18517   0.019   0.017   2.374
 5986SOL    HW118518   0.048   0.079   2.308
 5986SOL    HW218519   4.428   0.042   2.393
 5987SOL     OW18520   3.913   0.966   3.133
 5987SOL    HW118521   3.998   0.926   3.115
 5987SOL    HW218522   3.850   0.912   3.085
 5988SOL     OW18523   4.039   0.253   3.646
 5988SOL    HW118524   4.101   0.319   3.676
 5988SOL    HW218525   3.964   0.261   3.706
 5989SOL     OW18526   4.312   0.729   2.132
 5989SOL    HW118527   4.310   0.805   2.075
 5989SOL    HW218528   4.244   0.745   2.197
 5990SOL     OW18529   3.813   0.821   2.638
 5990SOL    HW118530   3.894   0.813   2.688
 5990SOL    HW218531   3.771   0.899   2.672
 5991SOL     OW18532   3.853   1.842   3.438
 5991SOL    HW118533   3.852   1.823   3.532
 5991SOL    HW218534   3.761   1.841   3.412
 5992SOL     OW18535   4.246   0.202   2.758
 5992SOL    HW118536   4.285   0.220   2.844
 5992SOL    HW218537   4.263   0.281   2.707
 5993SOL     OW18538   4.082   1.811   2.723
 5993SOL    HW118539   4.131   1.729   2.731
 5993SOL    HW218540   4.148   1.879   2.735
 5994SOL     OW18541   4.044   0.957   2.111
 5994SOL    HW118542   4.126   0.975   2.066
 5994SOL    HW218543   4.013   0.875   2.073
 5995SOL     OW18544   4.178   1.253   3.597
 5995SOL    HW118545   4.151   1.264   3.506
 5995SOL    HW218546   4.097   1.263   3.647
 5996SOL     OW18547   3.913   0.269   3.373
 5996SOL    HW118548   3.845   0.335   3.355
 5996SOL    HW218549   3.922   0.270   3.468
 5997SOL     OW18550   4.192   1.735   2.187
 5997SOL    HW118551   4.224   1.795   2.255
 5997SOL    HW218552   4.262   1.734   2.122
 5998SOL     OW18553   3.980   1.793   3.095
 5998SOL    HW118554   4.027   1.724   3.141
 5998SOL    HW218555   3.965   1.758   3.007
 5999SOL     OW18556   4.111   0.694   2.335
 5999SOL    HW118557   4.137   0.603   2.349
 5999SOL    HW218558   4.018   0.696   2.356
 6000SOL     OW18559   4.327   0.122   1.979
 6000SOL    HW118560   4.413   0.081   1.991
 6000SOL    HW218561   4.303   0.100   1.889
 6001SOL     OW18562   0.019   1.423   2.775
 6001SOL    HW118563   0.085   1.461   2.718
 6001SOL    HW218564   4.444   1.406   2.718
 6002SOL     OW18565   4.271   0.108   2.401
 6002SOL    HW118566   4.186   0.067   2.421
 6002SOL    HW218567   4.255   0.159   2.321
 6003SOL     OW18568   4.023   0.072   2.057
 6003SOL    HW118569   4.103   0.122   2.039
 6003SOL    HW218570   4.052   4.500   2.112
 6004SOL     OW18571   0.323   0.680   3.319
 6004SOL    HW118572   0.250   0.619   3.305
 6004SOL    HW218573   0.401   0.627   3.302
 6005SOL     OW18574   4.189   1.145   2.596
 6005SOL    HW118575   4.120   1.126   2.660
 6005SOL    HW218576   4.149   1.128   2.511
 6006SOL     OW18577   3.806   0.550   3.256
 6006SOL    HW118578   3.896   0.554   3.225
 6006SOL    HW218579   3.798   0.622   3.319
 6007SOL     OW18580   4.296   0.236   3.022
 6007SOL    HW118581   4.305   0.143   3.041
 6007SOL    HW218582   4.208   0.258   3.051
 6008SOL     OW18583   4.230   1.386   2.034
 6008SOL    HW118584   4.146   1.372   2.077
 6008SOL    HW218585   4.208   1.403   1.943
 6009SOL     OW18586   4.245   0.270   2.185
 6009SOL    HW118587   4.285   0.214   2.118
 6009SOL    HW218588   4.225   0.352   2.139
 6010SOL     OW18589   4.140   0.814   3.111
 6010SOL    HW118590   4.207   0.824   3.179
 6010SOL    HW218591   4.105   0.725   3.125
 6011SOL     OW18592   3.793   1.573   3.214
 6011SOL    HW118593   3.760   1.644   3.160
 6011SOL    HW218594   3.888   1.580   3.208
 6012SOL     OW18595   4.073   1.108   2.352
 6012SOL    HW118596   4.074   1.181   2.290
 6012SOL    HW218597   4.071   1.029   2.298
 6013SOL     OW18598   4.301   0.539   2.725
 6013SOL    HW118599   4.301   0.605   2.655
 6013SOL    HW218600   4.364   0.572   2.789
 6014SOL     OW18601   4.072   1.533   3.179
 6014SOL    HW118602   4.066   1.489   3.094
 6014SOL    HW218603   4.166   1.534   3.198
 6015SOL     OW18604   4.137   0.741   3.467
 6015SOL    HW118605   4.194   0.788   3.406
 6015SOL    HW218606   4.183   0.660   3.486
 6016SOL     OW18607   4.237   0.070   3.589
 6016SOL    HW118608   4.204   4.487   3.555
 6016SOL    HW218609   4.159   0.122   3.606
 6017SOL     OW18610   4.291   0.888   2.888
 6017SOL    HW118611   4.321   0.978   2.903
 6017SOL    HW218612   4.243   0.866   2.968
 6018SOL     OW18613   4.014   0.237   3.102
 6018SOL    HW118614   3.971   0.249   3.187
 6018SOL    HW218615   4.049   0.149   3.105
 6019SOL     OW18616   3.771   1.310   3.139
 6019SOL    HW118617   3.803   1.256   3.211
 6019SOL    HW218618   3.777   1.400   3.172
 6020SOL     OW18619   4.013   0.056   2.520
 6020SOL    HW118620   4.008   0.152   2.521
 6020SOL    HW218621   4.029   0.032   2.611
 6021SOL     OW18622   4.077   0.916   3.669
 6021SOL    HW118623   4.158   0.931   3.717
 6021SOL    HW218624   4.099   0.852   3.602
 6022SOL     OW18625   4.031   0.809   2.808
 6022SOL    HW118626   4.123   0.837   2.808
 6022SOL    HW218627   4.034   0.719   2.840
 6023SOL     OW18628   4.067   0.531   2.872
 6023SOL    HW118629   4.024   0.448   2.853
 6023SOL    HW218630   4.145   0.531   2.817
 6024SOL     OW18631   3.729   1.322   2.057
 6024SOL    HW118632   3.642   1.335   2.019
 6024SOL    HW218633   3.727   1.232   2.091
 6025SOL     OW18634   3.816   1.788   2.800
 6025SOL    HW118635   3.785   1.709   2.756
 6025SOL    HW218636   3.905   1.800   2.768
 6026SOL     OW18637   4.232   1.582   2.767
 6026SOL    HW118638   4.317   1.615   2.796
 6026SOL    HW218639   4.253   1.511   2.707
 6027SOL     OW18640   3.757   0.543   2.980
 6027SOL    HW118641   3.833   0.519   2.927
 6027SOL    HW218642   3.790   0.547   3.069
 6028SOL     OW18643   3.909   0.518   3.582
 6028SOL    HW118644   3.983   0.498   3.525
 6028SOL    HW218645   3.866   0.593   3.541
 6029SOL     OW18646   0.030   0.551   2.125
 6029SOL    HW118647   0.020   0.485   2.194
 6029SOL    HW218648   4.464   0.617   2.146
 6030SOL     OW18649   3.971   1.553   3.591
 6030SOL    HW118650   3.943   1.617   3.657
 6030SOL    HW218651   3.968   1.469   3.636
 6031SOL     OW18652   4.191   0.494   2.047
 6031SOL    HW118653   4.249   0.568   2.068
 6031SOL    HW218654   4.105   0.534   2.035
 6032SOL     OW18655   3.871   1.140   3.334
 6032SOL    HW118656   3.873   1.087   3.414
 6032SOL    HW218657   3.887   1.077   3.264
 6033SOL     OW18658   3.808   1.269   2.875
 6033SOL    HW118659   3.793   1.278   2.969
 6033SOL    HW218660   3.737   1.213   2.845
 6034SOL     OW18661   4.390   1.652   3.564
 6034SOL    HW118662   4.355   1.738   3.588
 6034SOL    HW218663   4.435   1.666   3.481
 6035SOL     OW18664   3.860   1.797   3.705
 6035SOL    HW118665   3.809   1.732   3.754
 6035SOL    HW218666   3.908   1.845   3.773
 6036SOL     OW18667   3.989   0.326   2.579
 6036SOL    HW118668   3.903   0.359   2.554
 6036SOL    HW218669   3.985   0.315   2.674
 6037SOL     OW18670   4.089   1.306   3.352
 6037SOL    HW118671   4.070   1.382   3.298
 6037SOL    HW218672   4.016   1.246   3.336
 6038SOL     OW18673   4.325   1.490   2.343
 6038SOL    HW118674   4.343   1.431   2.270
 6038SOL    HW218675   4.259   1.551   2.309
 6039SOL     OW18676   3.983   1.350   2.148
 6039SOL    HW118677   3.890   1.346   2.126
 6039SOL    HW218678   3.986   1.385   2.237
 6040SOL     OW18679   3.836   1.021   3.581
 6040SOL    HW118680   3.759   0.998   3.634
 6040SOL    HW218681   3.910   0.984   3.629
 6041SOL     OW18682   4.371   0.205   3.351
 6041SOL    HW118683   4.461   0.221   3.323
 6041SOL    HW218684   4.379   0.178   3.443
 6042SOL     OW18685   3.805   0.341   1.909
 6042SOL    HW118686   3.734   0.288   1.874
 6042SOL    HW218687   3.819   0.409   1.844
 6043SOL     OW18688   3.789   0.181   2.182
 6043SOL    HW118689   3.787   0.248   2.114
 6043SOL    HW218690   3.864   0.127   2.161
 6044SOL     OW18691   4.337   0.840   3.297
 6044SOL    HW118692   4.379   0.925   3.282
 6044SOL    HW218693   4.410   0.779   3.312
 6045SOL     OW18694   4.399   0.559   3.594
 6045SOL    HW118695   4.423   0.634   3.649
 6045SOL    HW218696   4.483   0.518   3.571
 6046SOL     OW18697   4.108   1.739   3.422
 6046SOL    HW118698   4.022   1.779   3.410
 6046SOL    HW218699   4.089   1.657   3.469
 6047SOL     OW18700   4.310   0.731   2.528
 6047SOL    HW118701   4.351   0.817   2.516
 6047SOL    HW218702   4.240   0.729   2.462
 6048SOL     OW18703   3.944   1.307   3.717
 6048SOL    HW118704   3.878   1.243   3.689
 6048SOL    HW218705   3.929   1.318   3.810
 6049SOL     OW18706   3.808   1.235   2.527
 6049SOL    HW118707   3.810   1.186   2.609
 6049SOL    HW218708   3.877   1.195   2.473
 6050SOL     OW18709   4.415   1.387   3.518
 6050SOL    HW118710   4.325   1.353   3.516
 6050SOL    HW218711   4.405   1.480   3.534
 6051SOL     OW18712   4.164   0.435   2.394
 6051SOL    HW118713   4.183   0.365   2.331
 6051SOL    HW218714   4.109   0.393   2.460
 6052SOL     OW18715   4.053   0.556   3.151
 6052SOL    HW118716   4.105   0.497   3.205
 6052SOL    HW218717   4.072   0.529   3.061
 6053SOL     OW18718   0.037   1.597   2.548
 6053SOL    HW118719   0.059   1.657   2.476
 6053SOL    HW218720   4.465   1.544   2.513
 6054SOL     OW18721   3.768   1.072   2.167
 6054SOL    HW118722   3.862   1.062   2.150
 6054SOL    HW218723   3.738   0.984   2.190
 6055SOL     OW18724   3.955   0.627   3.844
 6055SOL    HW118725   3.867   0.620   3.883
 6055SOL    HW218726   3.943   0.595   3.754
 6056SOL     OW18727   3.930   0.301   4.713
 6056SOL    HW118728   3.965   0.271   4.797
 6056SOL    HW218729   3.850   0.251   4.700
 6057SOL     OW18730   3.731   0.386   4.363
 6057SOL    HW118731   3.645   0.405   4.399
 6057SOL    HW218732   3.717   0.311   4.305
 6058SOL     OW18733   4.269   1.248   4.869
 6058SOL    HW118734   4.195   1.305   4.847
 6058SOL    HW218735   4.331   1.305   4.914
 6059SOL     OW18736   0.023   0.779   5.581
 6059SOL    HW118737   0.070   0.828   5.649
 6059SOL    HW218738   0.064   0.805   5.499
 6060SOL     OW18739   4.399   0.994   4.363
 6060SOL    HW118740   4.471   0.987   4.425
 6060SOL    HW218741   4.335   1.052   4.405
 6061SOL     OW18742   4.419   1.161   5.537
 6061SOL    HW118743   4.460   1.242   5.508
 6061SOL    HW218744   4.327   1.170   5.512
 6062SOL     OW18745   4.060   1.432   4.793
 6062SOL    HW118746   3.987   1.390   4.747
 6062SOL    HW218747   4.106   1.481   4.725
 6063SOL     OW18748   4.163   0.396   5.212
 6063SOL    HW118749   4.242   0.342   5.213
 6063SOL    HW218750   4.092   0.334   5.225
 6064SOL     OW18751   3.943   1.714   4.198
 6064SOL    HW118752   3.964   1.790   4.252
 6064SOL    HW218753   4.016   1.706   4.137
 6065SOL     OW18754   3.954   1.440   4.258
 6065SOL    HW118755   3.936   1.534   4.264
 6065SOL    HW218756   3.894   1.400   4.321
 6066SOL     OW18757   3.975   1.089   4.611
 6066SOL    HW118758   3.978   1.004   4.655
 6066SOL    HW218759   3.922   1.144   4.668
 6067SOL     OW18760   4.360   1.798   5.178
 6067SOL    HW118761   4.274   1.763   5.201
 6067SOL    HW218762   4.349   1.893   5.178
 6068SOL     OW18763   4.310   0.985   3.861
 6068SOL    HW118764   4.339   1.038   3.787
 6068SOL    HW218765   4.378   0.997   3.928
 6069SOL     OW18766   3.839   0.652   4.284
 6069SOL    HW118767   3.810   0.563   4.306
 6069SOL    HW218768   3.831   0.701   4.365
 6070SOL     OW18769   3.756   1.596   3.848
 6070SOL    HW118770   3.737   1.504   3.867
 6070SOL    HW218771   3.731   1.643   3.927
 6071SOL     OW18772   3.845   0.744   5.309
 6071SOL    HW118773   3.936   0.769   5.321
 6071SOL    HW218774   3.796   0.826   5.315
 6072SOL     OW18775   4.312   1.387   4.461
 6072SOL    HW118776   4.276   1.298   4.465
 6072SOL    HW218777   4.312   1.408   4.368
 6073SOL     OW18778   0.019   0.017   4.236
 6073SOL    HW118779   0.048   0.080   4.170
 6073SOL    HW218780   4.428   0.042   4.255
 6074SOL     OW18781   3.913   0.966   4.996
 6074SOL    HW118782   3.998   0.926   4.977
 6074SOL    HW218783   3.850   0.913   4.947
 6075SOL     OW18784   4.039   0.252   5.508
 6075SOL    HW118785   4.101   0.319   5.538
 6075SOL    HW218786   3.964   0.261   5.568
 6076SOL     OW18787   4.312   0.729   3.994
 6076SOL    HW118788   4.310   0.805   3.937
 6076SOL    HW218789   4.244   0.745   4.059
 6077SOL     OW18790   3.813   0.821   4.499
 6077SOL    HW118791   3.894   0.813   4.550
 6077SOL    HW218792   3.770   0.899   4.534
 6078SOL     OW18793   3.853   1.842   5.300
 6078SOL    HW118794   3.851   1.823   5.394
 6078SOL    HW218795   3.761   1.843   5.274
 6079SOL     OW18796   4.246   0.202   4.620
 6079SOL    HW118797   4.285   0.220   4.706
 6079SOL    HW218798   4.263   0.281   4.569
 6080SOL     OW18799   4.082   1.811   4.585
 6080SOL    HW118800   4.130   1.729   4.593
 6080SOL    HW218801   4.148   1.879   4.597
 6081SOL     OW18802   4.044   0.957   3.973
 6081SOL    HW118803   4.126   0.975   3.928
 6081SOL    HW218804   4.013   0.875   3.935
 6082SOL     OW18805   4.178   1.253   5.459
 6082SOL    HW118806   4.151   1.264   5.368
 6082SOL    HW218807   4.097   1.263   5.509
 6083SOL     OW18808   3.913   0.269   5.235
 6083SOL    HW118809   3.846   0.335   5.217
 6083SOL    HW218810   3.922   0.270   5.330
 6084SOL     OW18811   4.192   1.735   4.049
 6084SOL    HW118812   4.224   1.795   4.117
 6084SOL    HW218813   4.262   1.734   3.984
 6085SOL     OW18814   3.981   1.793   4.956
 6085SOL    HW118815   4.027   1.723   5.002
 6085SOL    HW218816   3.964   1.758   4.869
 6086SOL     OW18817   4.111   0.694   4.197
 6086SOL    HW118818   4.137   0.603   4.211
 6086SOL    HW218819   4.018   0.696   4.219
 6087SOL     OW18820   4.327   0.122   3.841
 6087SOL    HW118821   4.413   0.081   3.853
 6087SOL    HW218822   4.303   0.100   3.751
 6088SOL     OW18823   0.019   1.423   4.637
 6088SOL    HW118824   0.085   1.461   4.580
 6088SOL    HW218825   4.444   1.406   4.580
 6089SOL     OW18826   4.271   0.108   4.263
 6089SOL    HW118827   4.186   0.068   4.283
 6089SOL    HW218828   4.255   0.159   4.183
 6090SOL     OW18829   4.023   0.072   3.919
 6090SOL    HW118830   4.103   0.122   3.901
 6090SOL    HW218831   4.052   4.500   3.975
 6091SOL     OW18832   0.323   0.679   5.182
 6091SOL    HW118833   0.250   0.620   5.167
 6091SOL    HW218834   0.401   0.626   5.164
 6092SOL     OW18835   4.190   1.145   4.458
 6092SOL    HW118836   4.121   1.127   4.522
 6092SOL    HW218837   4.149   1.128   4.373
 6093SOL     OW18838   3.806   0.550   5.119
 6093SOL    HW118839   3.896   0.554   5.088
 6093SOL    HW218840   3.798   0.622   5.181
 6094SOL     OW18841   4.296   0.236   4.884
 6094SOL    HW118842   4.305   0.143   4.903
 6094SOL    HW218843   4.208   0.259   4.913
 6095SOL     OW18844   4.230   1.386   3.896
 6095SOL    HW118845   4.146   1.372   3.939
 6095SOL    HW218846   4.208   1.403   3.805
 6096SOL     OW18847   4.245   0.270   4.047
 6096SOL    HW118848   4.285   0.214   3.980
 6096SOL    HW218849   4.225   0.352   4.001
 6097SOL     OW18850   4.140   0.814   4.973
 6097SOL    HW118851   4.207   0.824   5.041
 6097SOL    HW218852   4.105   0.725   4.987
 6098SOL     OW18853   3.792   1.572   5.076
 6098SOL    HW118854   3.758   1.644   5.022
 6098SOL    HW218855   3.887   1.581   5.069
 6099SOL     OW18856   4.073   1.108   4.214
 6099SOL    HW118857   4.074   1.181   4.152
 6099SOL    HW218858   4.071   1.030   4.159
 6100SOL     OW18859   4.301   0.539   4.587
 6100SOL    HW118860   4.301   0.605   4.517
 6100SOL    HW218861   4.364   0.572   4.651
 6101SOL     OW18862   4.072   1.533   5.041
 6101SOL    HW118863   4.066   1.489   4.956
 6101SOL    HW218864   4.166   1.534   5.060
 6102SOL     OW18865   4.137   0.741   5.329
 6102SOL    HW118866   4.194   0.788   5.268
 6102SOL    HW218867   4.183   0.659   5.347
 6103SOL     OW18868   4.237   0.070   5.451
 6103SOL    HW118869   4.204   4.487   5.417
 6103SOL    HW218870   4.159   0.122   5.468
 6104SOL     OW18871   4.292   0.888   4.750
 6104SOL    HW118872   4.321   0.978   4.765
 6104SOL    HW218873   4.243   0.866   4.830
 6105SOL     OW18874   4.014   0.238   4.964
 6105SOL    HW118875   3.971   0.249   5.049
 6105SOL    HW218876   4.049   0.149   4.967
 6106SOL     OW18877   3.772   1.310   5.001
 6106SOL    HW118878   3.803   1.257   5.073
 6106SOL    HW218879   3.776   1.400   5.034
 6107SOL     OW18880   4.013   0.057   4.382
 6107SOL    HW118881   4.008   0.152   4.383
 6107SOL    HW218882   4.029   0.032   4.473
 6108SOL     OW18883   4.077   0.916   5.532
 6108SOL    HW118884   4.159   0.931   5.579
 6108SOL    HW218885   4.099   0.852   5.465
 6109SOL     OW18886   4.031   0.809   4.670
 6109SOL    HW118887   4.123   0.837   4.670
 6109SOL    HW218888   4.034   0.719   4.702
 6110SOL     OW18889   4.068   0.531   4.734
 6110SOL    HW118890   4.024   0.448   4.715
 6110SOL    HW218891   4.145   0.531   4.679
 6111SOL     OW18892   3.729   1.322   3.919
 6111SOL    HW118893   3.642   1.335   3.881
 6111SOL    HW218894   3.727   1.232   3.953
 6112SOL     OW18895   3.816   1.788   4.662
 6112SOL    HW118896   3.785   1.708   4.618
 6112SOL    HW218897   3.905   1.800   4.630
 6113SOL     OW18898   4.232   1.582   4.629
 6113SOL    HW118899   4.317   1.615   4.658
 6113SOL    HW218900   4.253   1.511   4.569
 6114SOL     OW18901   3.757   0.543   4.842
 6114SOL    HW118902   3.833   0.519   4.789
 6114SOL    HW218903   3.790   0.547   4.931
 6115SOL     OW18904   3.909   0.518   5.444
 6115SOL    HW118905   3.983   0.498   5.387
 6115SOL    HW218906   3.867   0.593   5.403
 6116SOL     OW18907   0.030   0.552   3.988
 6116SOL    HW118908   0.019   0.485   4.055
 6116SOL    HW218909   4.464   0.617   4.008
 6117SOL     OW18910   3.972   1.553   5.453
 6117SOL    HW118911   3.944   1.617   5.519
 6117SOL    HW218912   3.968   1.469   5.498
 6118SOL     OW18913   4.191   0.495   3.909
 6118SOL    HW118914   4.249   0.568   3.930
 6118SOL    HW218915   4.105   0.534   3.897
 6119SOL     OW18916   3.872   1.140   5.197
 6119SOL    HW118917   3.873   1.087   5.276
 6119SOL    HW218918   3.887   1.077   5.126
 6120SOL     OW18919   3.809   1.268   4.737
 6120SOL    HW118920   3.794   1.278   4.831
 6120SOL    HW218921   3.736   1.213   4.707
 6121SOL     OW18922   4.390   1.652   5.426
 6121SOL    HW118923   4.354   1.737   5.450
 6121SOL    HW218924   4.434   1.667   5.342
 6122SOL     OW18925   3.861   1.796   5.567
 6122SOL    HW118926   3.809   1.732   5.616
 6122SOL    HW218927   3.908   1.845   5.635
 6123SOL     OW18928   3.989   0.326   4.441
 6123SOL    HW118929   3.903   0.359   4.416
 6123SOL    HW218930   3.984   0.315   4.536
 6124SOL     OW18931   4.089   1.306   5.214
 6124SOL    HW118932   4.070   1.382   5.160
 6124SOL    HW218933   4.016   1.246   5.199
 6125SOL     OW18934   4.325   1.490   4.205
 6125SOL    HW118935   4.342   1.431   4.132
 6125SOL    HW218936   4.259   1.551   4.171
 6126SOL     OW18937   3.984   1.350   4.010
 6126SOL    HW118938   3.890   1.346   3.988
 6126SOL    HW218939   3.985   1.385   4.099
 6127SOL     OW18940   3.836   1.021   5.444
 6127SOL    HW118941   3.759   0.997   5.496
 6127SOL    HW218942   3.910   0.984   5.491
 6128SOL     OW18943   4.371   0.205   5.213
 6128SOL    HW118944   4.461   0.221   5.185
 6128SOL    HW218945   4.379   0.178   5.305
 6129SOL     OW18946   3.805   0.341   3.771
 6129SOL    HW118947   3.733   0.288   3.735
 6129SOL    HW218948   3.819   0.409   3.706
 6130SOL     OW18949   3.789   0.181   4.044
 6130SOL    HW118950   3.787   0.248   3.976
 6130SOL    HW218951   3.864   0.127   4.023
 6131SOL     OW18952   4.337   0.840   5.159
 6131SOL    HW118953   4.379   0.925   5.143
 6131SOL    HW218954   4.410   0.779   5.173
 6132SOL     OW18955   4.399   0.559   5.456
 6132SOL    HW118956   4.423   0.634   5.511
 6132SOL    HW218957   4.483   0.518   5.433
 6133SOL     OW18958   4.108   1.738   5.285
 6133SOL    HW118959   4.023   1.779   5.272
 6133SOL    HW218960   4.089   1.657   5.331
 6134SOL     OW18961   4.310   0.731   4.389
 6134SOL    HW118962   4.351   0.817   4.378
 6134SOL    HW218963   4.240   0.729   4.324
 6135SOL     OW18964   3.944   1.307   5.579
 6135SOL    HW118965   3.878   1.244   5.550
 6135SOL    HW218966   3.928   1.318   5.672
 6136SOL     OW18967   3.808   1.234   4.389
 6136SOL    HW118968   3.810   1.186   4.471
 6136SOL    HW218969   3.877   1.194   4.336
 6137SOL     OW18970   4.415   1.387   5.381
 6137SOL    HW118971   4.325   1.353   5.378
 6137SOL    HW218972   4.405   1.480   5.397
 6138SOL     OW18973   4.164   0.435   4.256
 6138SOL    HW118974   4.183   0.365   4.193
 6138SOL    HW218975   4.109   0.393   4.322
 6139SOL     OW18976   4.053   0.556   5.013
 6139SOL    HW118977   4.105   0.497   5.067
 6139SOL    HW218978   4.072   0.529   4.923
 6140SOL     OW18979   0.037   1.597   4.410
 6140SOL    HW118980   0.059   1.657   4.338
 6140SOL    HW218981   4.465   1.544   4.375
 6141SOL     OW18982   3.768   1.072   4.029
 6141SOL    HW118983   3.862   1.062   4.012
 6141SOL    HW218984   3.738   0.984   4.052
 6142SOL     OW18985   3.955   0.626   5.706
 6142SOL    HW118986   3.867   0.620   5.744
 6142SOL    HW218987   3.944   0.595   5.616
 6143SOL     OW18988   3.930   0.302   6.575
 6143SOL    HW118989   3.965   0.271   6.659
 6143SOL    HW218990   3.850   0.251   6.562
 6144SOL     OW18991   3.732   0.386   6.225
 6144SOL    HW118992   3.645   0.404   6.261
 6144SOL    HW218993   3.718   0.311   6.167
 6145SOL     OW18994   4.268   1.248   6.732
 6145SOL    HW118995   4.195   1.306   6.709
 6145SOL    HW218996   4.331   1.304   6.775
 6146SOL     OW18997   0.022   0.779   7.443
 6146SOL    HW118998   0.070   0.828   7.511
 6146SOL    HW218999   0.064   0.805   7.361
 6147SOL     OW19000   4.398   0.993   6.225
 6147SOL    HW119001   4.471   0.988   6.287
 6147SOL    HW219002   4.335   1.052   6.267
 6148SOL     OW19003   4.419   1.161   7.399
 6148SOL    HW119004   4.460   1.242   7.370
 6148SOL    HW219005   4.327   1.170   7.374
 6149SOL     OW19006   4.060   1.433   6.655
 6149SOL    HW119007   3.987   1.390   6.609
 6149SOL    HW219008   4.106   1.481   6.587
 6150SOL     OW19009   4.163   0.396   7.074
 6150SOL    HW119010   4.242   0.342   7.075
 6150SOL    HW219011   4.092   0.334   7.087
 6151SOL     OW19012   3.943   1.713   6.061
 6151SOL    HW119013   3.964   1.790   6.114
 6151SOL    HW219014   4.015   1.706   5.999
 6152SOL     OW19015   3.954   1.440   6.120
 6152SOL    HW119016   3.936   1.534   6.126
 6152SOL    HW219017   3.894   1.400   6.183
 6153SOL     OW19018   3.975   1.089   6.473
 6153SOL    HW119019   3.978   1.004   6.517
 6153SOL    HW219020   3.922   1.144   6.530
 6154SOL     OW19021   4.360   1.798   7.039
 6154SOL    HW119022   4.274   1.764   7.064
 6154SOL    HW219023   4.349   1.893   7.040
 6155SOL     OW19024   4.310   0.985   5.723
 6155SOL    HW119025   4.340   1.038   5.649
 6155SOL    HW219026   4.378   0.997   5.790
 6156SOL     OW19027   3.839   0.652   6.146
 6156SOL    HW119028   3.810   0.563   6.167
 6156SOL    HW219029   3.831   0.701   6.227
 6157SOL     OW19030   3.756   1.595   5.710
 6157SOL    HW119031   3.737   1.504   5.730
 6157SOL    HW219032   3.731   1.643   5.790
 6158SOL     OW19033   3.845   0.744   7.171
 6158SOL    HW119034   3.937   0.769   7.183
 6158SOL    HW219035   3.797   0.826   7.177
 6159SOL     OW19036   4.312   1.387   6.323
 6159SOL    HW119037   4.276   1.298   6.327
 6159SOL    HW219038   4.312   1.409   6.230
 6160SOL     OW19039   0.019   0.017   6.099
 6160SOL    HW119040   0.048   0.080   6.032
 6160SOL    HW219041   4.428   0.042   6.117
 6161SOL     OW19042   3.913   0.966   6.858
 6161SOL    HW119043   3.998   0.926   6.839
 6161SOL    HW219044   3.850   0.913   6.809
 6162SOL     OW19045   4.039   0.252   7.370
 6162SOL    HW119046   4.101   0.319   7.400
 6162SOL    HW219047   3.964   0.261   7.430
 6163SOL     OW19048   4.312   0.729   5.856
 6163SOL    HW119049   4.310   0.805   5.799
 6163SOL    HW219050   4.244   0.745   5.921
 6164SOL     OW19051   3.813   0.820   6.362
 6164SOL    HW119052   3.894   0.813   6.412
 6164SOL    HW219053   3.770   0.899   6.396
 6165SOL     OW19054   3.853   1.843   7.163
 6165SOL    HW119055   3.851   1.823   7.256
 6165SOL    HW219056   3.762   1.841   7.136
 6166SOL     OW19057   4.246   0.202   6.482
 6166SOL    HW119058   4.285   0.220   6.568
 6166SOL    HW219059   4.263   0.281   6.431
 6167SOL     OW19060   4.082   1.811   6.447
 6167SOL    HW119061   4.131   1.729   6.455
 6167SOL    HW219062   4.148   1.879   6.458
 6168SOL     OW19063   4.044   0.957   5.836
 6168SOL    HW119064   4.126   0.975   5.790
 6168SOL    HW219065   4.013   0.875   5.797
 6169SOL     OW19066   4.178   1.253   7.321
 6169SOL    HW119067   4.151   1.264   7.230
 6169SOL    HW219068   4.097   1.263   7.371
 6170SOL     OW19069   3.913   0.269   7.097
 6170SOL    HW119070   3.846   0.335   7.079
 6170SOL    HW219071   3.922   0.270   7.192
 6171SOL     OW19072   4.192   1.735   5.911
 6171SOL    HW119073   4.224   1.795   5.979
 6171SOL    HW219074   4.262   1.734   5.845
 6172SOL     OW19075   3.979   1.793   6.819
 6172SOL    HW119076   4.027   1.723   6.864
 6172SOL    HW219077   3.965   1.759   6.731
 6173SOL     OW19078   4.111   0.694   6.059
 6173SOL    HW119079   4.137   0.603   6.073
 6173SOL    HW219080   4.018   0.696   6.080
 6174SOL     OW19081   4.327   0.121   5.703
 6174SOL    HW119082   4.413   0.081   5.715
 6174SOL    HW219083   4.303   0.100   5.613
 6175SOL     OW19084   0.019   1.423   6.499
 6175SOL    HW119085   0.085   1.462   6.442
 6175SOL    HW219086   4.444   1.406   6.442
 6176SOL     OW19087   4.271   0.108   6.125
 6176SOL    HW119088   4.186   0.067   6.144
 6176SOL    HW219089   4.255   0.159   6.045
 6177SOL     OW19090   4.023   0.072   5.781
 6177SOL    HW119091   4.103   0.122   5.763
 6177SOL    HW219092   4.052   4.500   5.836
 6178SOL     OW19093   0.323   0.680   7.043
 6178SOL    HW119094   0.250   0.619   7.029
 6178SOL    HW219095   0.401   0.627   7.026
 6179SOL     OW19096   4.190   1.145   6.320
 6179SOL    HW119097   4.120   1.127   6.384
 6179SOL    HW219098   4.149   1.128   6.235
 6180SOL     OW19099   3.806   0.550   6.981
 6180SOL    HW119100   3.896   0.554   6.949
 6180SOL    HW219101   3.799   0.622   7.043
 6181SOL     OW19102   4.296   0.236   6.746
 6181SOL    HW119103   4.305   0.143   6.765
 6181SOL    HW219104   4.208   0.258   6.775
 6182SOL     OW19105   4.230   1.386   5.758
 6182SOL    HW119106   4.146   1.372   5.801
 6182SOL    HW219107   4.208   1.403   5.667
 6183SOL     OW19108   4.245   0.270   5.909
 6183SOL    HW119109   4.285   0.214   5.842
 6183SOL    HW219110   4.225   0.352   5.863
 6184SOL     OW19111   4.140   0.814   6.835
 6184SOL    HW119112   4.207   0.824   6.903
 6184SOL    HW219113   4.105   0.725   6.849
 6185SOL     OW19114   3.793   1.573   6.938
 6185SOL    HW119115   3.759   1.644   6.883
 6185SOL    HW219116   3.888   1.580   6.931
 6186SOL     OW19117   4.073   1.108   6.076
 6186SOL    HW119118   4.074   1.181   6.014
 6186SOL    HW219119   4.071   1.030   6.021
 6187SOL     OW19120   4.301   0.539   6.449
 6187SOL    HW119121   4.301   0.605   6.379
 6187SOL    HW219122   4.364   0.572   6.513
 6188SOL     OW19123   4.072   1.532   6.903
 6188SOL    HW119124   4.066   1.489   6.818
 6188SOL    HW219125   4.166   1.534   6.922
 6189SOL     OW19126   4.137   0.741   7.191
 6189SOL    HW119127   4.194   0.788   7.130
 6189SOL    HW219128   4.183   0.660   7.209
 6190SOL     OW19129   4.237   0.070   7.313
 6190SOL    HW119130   4.204   4.487   7.279
 6190SOL    HW219131   4.159   0.122   7.330
 6191SOL     OW19132   4.292   0.888   6.612
 6191SOL    HW119133   4.321   0.978   6.627
 6191SOL    HW219134   4.243   0.866   6.692
 6192SOL     OW19135   4.014   0.238   6.826
 6192SOL    HW119136   3.971   0.249   6.911
 6192SOL    HW219137   4.049   0.149   6.829
 6193SOL     OW19138   3.770   1.311   6.863
 6193SOL    HW119139   3.803   1.256   6.935
 6193SOL    HW219140   3.776   1.400   6.896
 6194SOL     OW19141   4.013   0.056   6.244
 6194SOL    HW119142   4.008   0.152   6.245
 6194SOL    HW219143   4.029   0.032   6.335
 6195SOL     OW19144   4.077   0.916   7.393
 6195SOL    HW119145   4.158   0.931   7.441
 6195SOL    HW219146   4.099   0.852   7.326
 6196SOL     OW19147   4.031   0.809   6.533
 6196SOL    HW119148   4.123   0.837   6.532
 6196SOL    HW219149   4.034   0.719   6.564
 6197SOL     OW19150   4.067   0.531   6.596
 6197SOL    HW119151   4.024   0.448   6.577
 6197SOL    HW219152   4.145   0.531   6.541
 6198SOL     OW19153   3.730   1.321   5.781
 6198SOL    HW119154   3.643   1.335   5.743
 6198SOL    HW219155   3.727   1.232   5.815
 6199SOL     OW19156   3.816   1.788   6.524
 6199SOL    HW119157   3.785   1.709   6.480
 6199SOL    HW219158   3.905   1.800   6.492
 6200SOL     OW19159   4.232   1.582   6.491
 6200SOL    HW119160   4.317   1.615   6.519
 6200SOL    HW219161   4.253   1.511   6.431
 6201SOL     OW19162   3.757   0.543   6.704
 6201SOL    HW119163   3.833   0.519   6.651
 6201SOL    HW219164   3.791   0.547   6.793
 6202SOL     OW19165   3.909   0.518   7.306
 6202SOL    HW119166   3.983   0.498   7.249
 6202SOL    HW219167   3.867   0.593   7.265
 6203SOL     OW19168   0.030   0.552   5.850
 6203SOL    HW119169   0.019   0.485   5.917
 6203SOL    HW219170   4.464   0.618   5.870
 6204SOL     OW19171   3.971   1.553   7.315
 6204SOL    HW119172   3.944   1.616   7.382
 6204SOL    HW219173   3.968   1.469   7.360
 6205SOL     OW19174   4.191   0.495   5.771
 6205SOL    HW119175   4.249   0.568   5.792
 6205SOL    HW219176   4.105   0.534   5.759
 6206SOL     OW19177   3.871   1.140   7.058
 6206SOL    HW119178   3.873   1.087   7.138
 6206SOL    HW219179   3.887   1.077   6.988
 6207SOL     OW19180   3.808   1.268   6.599
 6207SOL    HW119181   3.793   1.278   6.693
 6207SOL    HW219182   3.736   1.213   6.569
 6208SOL     OW19183   4.389   1.651   7.288
 6208SOL    HW119184   4.355   1.738   7.312
 6208SOL    HW219185   4.435   1.666   7.205
 6209SOL     OW19186   3.860   1.797   7.430
 6209SOL    HW119187   3.809   1.732   7.478
 6209SOL    HW219188   3.908   1.845   7.497
 6210SOL     OW19189   3.989   0.326   6.303
 6210SOL    HW119190   3.903   0.359   6.278
 6210SOL    HW219191   3.984   0.315   6.398
 6211SOL     OW19192   4.089   1.306   7.077
 6211SOL    HW119193   4.070   1.382   7.022
 6211SOL    HW219194   4.016   1.246   7.060
 6212SOL     OW19195   4.325   1.490   6.067
 6212SOL    HW119196   4.342   1.431   5.994
 6212SOL    HW219197   4.259   1.551   6.033
 6213SOL     OW19198   3.984   1.350   5.872
 6213SOL    HW119199   3.891   1.346   5.850
 6213SOL    HW219200   3.986   1.385   5.961
 6214SOL     OW19201   3.836   1.021   7.306
 6214SOL    HW119202   3.759   0.998   7.358
 6214SOL    HW219203   3.910   0.984   7.353
 6215SOL     OW19204   4.371   0.205   7.075
 6215SOL    HW119205   4.461   0.221   7.046
 6215SOL    HW219206   4.379   0.178   7.167
 6216SOL     OW19207   3.805   0.341   5.633
 6216SOL    HW119208   3.733   0.288   5.597
 6216SOL    HW219209   3.819   0.410   5.568
 6217SOL     OW19210   3.789   0.181   5.907
 6217SOL    HW119211   3.787   0.248   5.838
 6217SOL    HW219212   3.864   0.127   5.885
 6218SOL     OW19213   4.337   0.840   7.021
 6218SOL    HW119214   4.379   0.925   7.005
 6218SOL    HW219215   4.410   0.779   7.035
 6219SOL     OW19216   4.399   0.559   7.319
 6219SOL    HW119217   4.423   0.634   7.373
 6219SOL    HW219218   4.483   0.519   7.295
 6220SOL     OW19219   4.108   1.739   7.146
 6220SOL    HW119220   4.022   1.779   7.134
 6220SOL    HW219221   4.089   1.657   7.192
 6221SOL     OW19222   4.310   0.731   6.252
 6221SOL    HW119223   4.351   0.817   6.240
 6221SOL    HW219224   4.240   0.729   6.186
 6222SOL     OW19225   3.944   1.307   7.441
 6222SOL    HW119226   3.878   1.243   7.413
 6222SOL    HW219227   3.929   1.317   7.535
 6223SOL     OW19228   3.808   1.235   6.251
 6223SOL    HW119229   3.810   1.186   6.333
 6223SOL    HW219230   3.877   1.195   6.197
 6224SOL     OW19231   4.415   1.386   7.242
 6224SOL    HW119232   4.325   1.353   7.240
 6224SOL    HW219233   4.405   1.480   7.258
 6225SOL     OW19234   4.164   0.435   6.118
 6225SOL    HW119235   4.183   0.365   6.055
 6225SOL    HW219236   4.109   0.393   6.184
 6226SOL     OW19237   4.053   0.556   6.875
 6226SOL    HW119238   4.105   0.497   6.929
 6226SOL    HW219239   4.072   0.529   6.785
 6227SOL     OW19240   0.037   1.597   6.272
 6227SOL    HW119241   0.059   1.657   6.200
 6227SOL    HW219242   4.465   1.544   6.237
 6228SOL     OW19243   3.768   1.072   5.891
 6228SOL    HW119244   3.862   1.062   5.874
 6228SOL    HW219245   3.738   0.984   5.915
 6229SOL     OW19246   3.955   0.627   7.568
 6229SOL    HW119247   3.867   0.620   7.606
 6229SOL    HW219248   3.944   0.595   7.478
 6230SOL     OW19249   3.930   0.302   8.437
 6230SOL    HW119250   3.965   0.271   8.521
 6230SOL    HW219251   3.850   0.251   8.424
 6231SOL     OW19252   3.732   0.386   8.087
 6231SOL    HW119253   3.645   0.404   8.123
 6231SOL    HW219254   3.718   0.311   8.029
 6232SOL     OW19255   4.268   1.248   8.593
 6232SOL    HW119256   4.195   1.306   8.571
 6232SOL    HW219257   4.331   1.304   8.638
 6233SOL     OW19258   0.022   0.779   9.305
 6233SOL    HW119259   0.071   0.827   9.373
 6233SOL    HW219260   0.064   0.805   9.223
 6234SOL     OW19261   4.398   0.993   8.087
 6234SOL    HW119262   4.471   0.988   8.149
 6234SOL    HW219263   4.335   1.052   8.130
 6235SOL     OW19264   4.419   1.161   9.261
 6235SOL    HW119265   4.460   1.242   9.232
 6235SOL    HW219266   4.327   1.170   9.236
 6236SOL     OW19267   4.060   1.433   8.517
 6236SOL    HW119268   3.987   1.390   8.471
 6236SOL    HW219269   4.107   1.481   8.449
 6237SOL     OW19270   4.163   0.396   8.936
 6237SOL    HW119271   4.242   0.342   8.937
 6237SOL    HW219272   4.092   0.333   8.949
 6238SOL     OW19273   3.942   1.714   7.922
 6238SOL    HW119274   3.964   1.790   7.975
 6238SOL    HW219275   4.016   1.706   7.861
 6239SOL     OW19276   3.954   1.440   7.982
 6239SOL    HW119277   3.936   1.534   7.988
 6239SOL    HW219278   3.894   1.400   8.045
 6240SOL     OW19279   3.974   1.088   8.334
 6240SOL    HW119280   3.979   1.004   8.379
 6240SOL    HW219281   3.922   1.144   8.392
 6241SOL     OW19282   4.360   1.798   8.901
 6241SOL    HW119283   4.274   1.764   8.926
 6241SOL    HW219284   4.349   1.893   8.902
 6242SOL     OW19285   4.310   0.985   7.585
 6242SOL    HW119286   4.339   1.038   7.511
 6242SOL    HW219287   4.378   0.997   7.652
 6243SOL     OW19288   3.839   0.652   8.008
 6243SOL    HW119289   3.810   0.563   8.029
 6243SOL    HW219290   3.831   0.701   8.089
 6244SOL     OW19291   3.755   1.596   7.572
 6244SOL    HW119292   3.737   1.504   7.591
 6244SOL    HW219293   3.731   1.642   7.652
 6245SOL     OW19294   3.845   0.744   9.033
 6245SOL    HW119295   3.937   0.769   9.045
 6245SOL    HW219296   3.797   0.826   9.040
 6246SOL     OW19297   4.312   1.387   8.185
 6246SOL    HW119298   4.276   1.298   8.189
 6246SOL    HW219299   4.312   1.408   8.092
 6247SOL     OW19300   0.019   0.017   7.960
 6247SOL    HW119301   0.048   0.079   7.894
 6247SOL    HW219302   4.428   0.042   7.979
 6248SOL     OW19303   3.913   0.966   8.719
 6248SOL    HW119304   3.998   0.927   8.701
 6248SOL    HW219305   3.850   0.912   8.671
 6249SOL     OW19306   4.039   0.253   9.232
 6249SOL    HW119307   4.101   0.319   9.262
 6249SOL    HW219308   3.964   0.261   9.292
 6250SOL     OW19309   4.312   0.729   7.718
 6250SOL    HW119310   4.310   0.805   7.661
 6250SOL    HW219311   4.244   0.745   7.783
 6251SOL     OW19312   3.812   0.821   8.224
 6251SOL    HW119313   3.894   0.813   8.274
 6251SOL    HW219314   3.771   0.900   8.258
 6252SOL     OW19315   3.853   1.842   9.025
 6252SOL    HW119316   3.852   1.823   9.118
 6252SOL    HW219317   3.761   1.841   8.998
 6253SOL     OW19318   4.246   0.202   8.344
 6253SOL    HW119319   4.285   0.220   8.430
 6253SOL    HW219320   4.263   0.281   8.293
 6254SOL     OW19321   4.082   1.811   8.309
 6254SOL    HW119322   4.131   1.729   8.317
 6254SOL    HW219323   4.148   1.879   8.321
 6255SOL     OW19324   4.043   0.957   7.697
 6255SOL    HW119325   4.126   0.975   7.652
 6255SOL    HW219326   4.013   0.875   7.659
 6256SOL     OW19327   4.178   1.253   9.183
 6256SOL    HW119328   4.151   1.264   9.092
 6256SOL    HW219329   4.097   1.263   9.233
 6257SOL     OW19330   3.913   0.269   8.959
 6257SOL    HW119331   3.846   0.335   8.941
 6257SOL    HW219332   3.922   0.270   9.054
 6258SOL     OW19333   4.192   1.735   7.773
 6258SOL    HW119334   4.224   1.795   7.841
 6258SOL    HW219335   4.262   1.733   7.707
 6259SOL     OW19336   3.979   1.793   8.681
 6259SOL    HW119337   4.027   1.724   8.727
 6259SOL    HW219338   3.966   1.758   8.592
 6260SOL     OW19339   4.111   0.694   7.921
 6260SOL    HW119340   4.137   0.603   7.935
 6260SOL    HW219341   4.018   0.696   7.942
 6261SOL     OW19342   4.327   0.121   7.565
 6261SOL    HW119343   4.413   0.081   7.577
 6261SOL    HW219344   4.303   0.100   7.475
 6262SOL     OW19345   0.019   1.423   8.361
 6262SOL    HW119346   0.085   1.461   8.304
 6262SOL    HW219347   4.444   1.406   8.304
 6263SOL     OW19348   4.271   0.108   7.987
 6263SOL    HW119349   4.186   0.067   8.007
 6263SOL    HW219350   4.255   0.159   7.907
 6264SOL     OW19351   4.023   0.072   7.643
 6264SOL    HW119352   4.103   0.122   7.625
 6264SOL    HW219353   4.052   4.500   7.699
 6265SOL     OW19354   0.323   0.680   8.905
 6265SOL    HW119355   0.250   0.619   8.891
 6265SOL    HW219356   0.401   0.628   8.889
 6266SOL     OW19357   4.189   1.145   8.182
 6266SOL    HW119358   4.120   1.126   8.246
 6266SOL    HW219359   4.149   1.128   8.097
 6267SOL     OW19360   3.806   0.550   8.843
 6267SOL    HW119361   3.896   0.554   8.811
 6267SOL    HW219362   3.799   0.622   8.905
 6268SOL     OW19363   4.296   0.236   8.608
 6268SOL    HW119364   4.305   0.143   8.627
 6268SOL    HW219365   4.208   0.258   8.637
 6269SOL     OW19366   4.230   1.387   7.620
 6269SOL    HW119367   4.146   1.372   7.663
 6269SOL    HW219368   4.209   1.403   7.529
 6270SOL     OW19369   4.245   0.270   7.771
 6270SOL    HW119370   4.285   0.214   7.705
 6270SOL    HW219371   4.225   0.352   7.725
 6271SOL     OW19372   4.140   0.814   8.698
 6271SOL    HW119373   4.207   0.824   8.765
 6271SOL    HW219374   4.105   0.725   8.711
 6272SOL     OW19375   3.793   1.573   8.800
 6272SOL    HW119376   3.760   1.645   8.746
 6272SOL    HW219377   3.888   1.580   8.794
 6273SOL     OW19378   4.073   1.108   7.938
 6273SOL    HW119379   4.075   1.181   7.876
 6273SOL    HW219380   4.071   1.029   7.884
 6274SOL     OW19381   4.301   0.539   8.311
 6274SOL    HW119382   4.301   0.605   8.241
 6274SOL    HW219383   4.364   0.572   8.375
 6275SOL     OW19384   4.072   1.532   8.765
 6275SOL    HW119385   4.066   1.489   8.680
 6275SOL    HW219386   4.166   1.534   8.784
 6276SOL     OW19387   4.137   0.741   9.053
 6276SOL    HW119388   4.194   0.788   8.992
 6276SOL    HW219389   4.183   0.660   9.072
 6277SOL     OW19390   4.237   0.070   9.175
 6277SOL    HW119391   4.204   4.487   9.141
 6277SOL    HW219392   4.159   0.122   9.192
 6278SOL     OW19393   4.291   0.889   8.474
 6278SOL    HW119394   4.322   0.978   8.489
 6278SOL    HW219395   4.243   0.866   8.554
 6279SOL     OW19396   4.014   0.237   8.688
 6279SOL    HW119397   3.971   0.249   8.773
 6279SOL    HW219398   4.049   0.149   8.691
 6280SOL     OW19399   3.770   1.310   8.725
 6280SOL    HW119400   3.803   1.256   8.797
 6280SOL    HW219401   3.777   1.400   8.758
 6281SOL     OW19402   4.013   0.056   8.106
 6281SOL    HW119403   4.008   0.152   8.107
 6281SOL    HW219404   4.029   0.032   8.197
 6282SOL     OW19405   4.077   0.916   9.255
 6282SOL    HW119406   4.158   0.931   9.303
 6282SOL    HW219407   4.099   0.852   9.188
 6283SOL     OW19408   4.031   0.809   8.394
 6283SOL    HW119409   4.123   0.837   8.394
 6283SOL    HW219410   4.034   0.719   8.426
 6284SOL     OW19411   4.067   0.531   8.458
 6284SOL    HW119412   4.024   0.448   8.439
 6284SOL    HW219413   4.145   0.531   8.403
 6285SOL     OW19414   3.729   1.322   7.643
 6285SOL    HW119415   3.642   1.335   7.606
 6285SOL    HW219416   3.727   1.232   7.677
 6286SOL     OW19417   3.816   1.788   8.386
 6286SOL    HW119418   3.785   1.709   8.342
 6286SOL    HW219419   3.905   1.800   8.354
 6287SOL     OW19420   4.232   1.582   8.353
 6287SOL    HW119421   4.317   1.615   8.382
 6287SOL    HW219422   4.253   1.511   8.293
 6288SOL     OW19423   3.757   0.543   8.566
 6288SOL    HW119424   3.833   0.519   8.513
 6288SOL    HW219425   3.790   0.547   8.655
 6289SOL     OW19426   3.909   0.518   9.168
 6289SOL    HW119427   3.983   0.498   9.111
 6289SOL    HW219428   3.867   0.593   9.127
 6290SOL     OW19429   0.030   0.552   7.711
 6290SOL    HW119430   0.020   0.485   7.779
 6290SOL    HW219431   4.464   0.617   7.732
 6291SOL     OW19432   3.971   1.553   9.177
 6291SOL    HW119433   3.944   1.616   9.244
 6291SOL    HW219434   3.968   1.469   9.222
 6292SOL     OW19435   4.191   0.494   7.633
 6292SOL    HW119436   4.249   0.568   7.654
 6292SOL    HW219437   4.105   0.534   7.621
 6293SOL     OW19438   3.871   1.140   8.920
 6293SOL    HW119439   3.873   1.087   9.000
 6293SOL    HW219440   3.887   1.077   8.849
 6294SOL     OW19441   3.808   1.269   8.461
 6294SOL    HW119442   3.793   1.278   8.555
 6294SOL    HW219443   3.737   1.212   8.431
 6295SOL     OW19444   4.389   1.651   9.150
 6295SOL    HW119445   4.356   1.738   9.174
 6295SOL    HW219446   4.436   1.666   9.067
 6296SOL     OW19447   3.860   1.797   9.291
 6296SOL    HW119448   3.809   1.732   9.340
 6296SOL    HW219449   3.908   1.845   9.359
 6297SOL     OW19450   3.989   0.326   8.165
 6297SOL    HW119451   3.903   0.359   8.140
 6297SOL    HW219452   3.985   0.315   8.260
 6298SOL     OW19453   4.089   1.306   8.939
 6298SOL    HW119454   4.070   1.382   8.884
 6298SOL    HW219455   4.016   1.246   8.922
 6299SOL     OW19456   4.325   1.490   7.929
 6299SOL    HW119457   4.343   1.431   7.856
 6299SOL    HW219458   4.260   1.551   7.895
 6300SOL     OW19459   3.983   1.350   7.734
 6300SOL    HW119460   3.890   1.346   7.712
 6300SOL    HW219461   3.986   1.385   7.823
 6301SOL     OW19462   3.836   1.021   9.168
 6301SOL    HW119463   3.759   0.998   9.220
 6301SOL    HW219464   3.910   0.984   9.215
 6302SOL     OW19465   4.371   0.205   8.937
 6302SOL    HW119466   4.461   0.221   8.909
 6302SOL    HW219467   4.379   0.178   9.029
 6303SOL     OW19468   3.805   0.341   7.495
 6303SOL    HW119469   3.734   0.288   7.459
 6303SOL    HW219470   3.819   0.409   7.430
 6304SOL     OW19471   3.789   0.181   7.768
 6304SOL    HW119472   3.787   0.248   7.700
 6304SOL    HW219473   3.864   0.127   7.747
 6305SOL     OW19474   4.337   0.840   8.883
 6305SOL    HW119475   4.379   0.925   8.868
 6305SOL    HW219476   4.410   0.779   8.897
 6306SOL     OW19477   4.399   0.559   9.180
 6306SOL    HW119478   4.423   0.634   9.235
 6306SOL    HW219479   4.482   0.519   9.157
 6307SOL     OW19480   4.108   1.739   9.008
 6307SOL    HW119481   4.022   1.779   8.996
 6307SOL    HW219482   4.089   1.657   9.054
 6308SOL     OW19483   4.310   0.731   8.114
 6308SOL    HW119484   4.351   0.817   8.102
 6308SOL    HW219485   4.240   0.729   8.048
 6309SOL     OW19486   3.944   1.307   9.303
 6309SOL    HW119487   3.878   1.243   9.275
 6309SOL    HW219488   3.929   1.318   9.397
 6310SOL     OW19489   3.808   1.235   8.113
 6310SOL    HW119490   3.811   1.186   8.195
 6310SOL    HW219491   3.877   1.195   8.059
 6311SOL     OW19492   4.415   1.386   9.104
 6311SOL    HW119493   4.325   1.353   9.102
 6311SOL    HW219494   4.405   1.480   9.120
 6312SOL     OW19495   4.164   0.435   7.980
 6312SOL    HW119496   4.183   0.365   7.917
 6312SOL    HW219497   4.109   0.393   8.046
 6313SOL     OW19498   4.053   0.556   8.737
 6313SOL    HW119499   4.105   0.497   8.791
 6313SOL    HW219500   4.072   0.529   8.647
 6314SOL     OW19501   0.037   1.597   8.134
 6314SOL    HW119502   0.059   1.657   8.062
 6314SOL    HW219503   4.465   1.544   8.099
 6315SOL     OW19504   3.768   1.072   7.753
 6315SOL    HW119505   3.862   1.062   7.736
 6315SOL    HW219506   3.738   0.984   7.776
 6316SOL     OW19507   3.954   0.627   9.430
 6316SOL    HW119508   3.867   0.620   9.468
 6316SOL    HW219509   3.944   0.595   9.340
 6317SOL     OW19510   3.930   0.302  10.299
 6317SOL    HW119511   3.965   0.271  10.382
 6317SOL    HW219512   3.850   0.251  10.286
 6318SOL     OW19513   3.732   0.386   9.949
 6318SOL    HW119514   3.645   0.404   9.985
 6318SOL    HW219515   3.718   0.310   9.891
 6319SOL     OW19516   4.268   1.248  10.456
 6319SOL    HW119517   4.196   1.306  10.433
 6319SOL    HW219518   4.331   1.304  10.500
 6320SOL     OW19519   0.024   0.810   0.079
 6320SOL    HW119520   0.100   0.849   0.122
 6320SOL    HW219521   0.054   0.793  11.089
 6321SOL     OW19522   4.398   0.993   9.949
 6321SOL    HW119523   4.471   0.987  10.011
 6321SOL    HW219524   4.336   1.052   9.992
 6322SOL     OW19525   4.060   1.432  10.379
 6322SOL    HW119526   3.987   1.390  10.333
 6322SOL    HW219527   4.107   1.481  10.310
 6323SOL     OW19528   4.174   0.397  10.795
 6323SOL    HW119529   4.243   0.331  10.796
 6323SOL    HW219530   4.095   0.349  10.819
 6324SOL     OW19531   3.942   1.714   9.784
 6324SOL    HW119532   3.964   1.790   9.837
 6324SOL    HW219533   4.016   1.706   9.723
 6325SOL     OW19534   3.954   1.440   9.844
 6325SOL    HW119535   3.936   1.534   9.850
 6325SOL    HW219536   3.894   1.400   9.907
 6326SOL     OW19537   3.975   1.088  10.197
 6326SOL    HW119538   3.978   1.004  10.241
 6326SOL    HW219539   3.922   1.144  10.254
 6327SOL     OW19540   4.356   1.799  10.756
 6327SOL    HW119541   4.269   1.769  10.782
 6327SOL    HW219542   4.352   1.895  10.765
 6328SOL     OW19543   4.310   0.985   9.447
 6328SOL    HW119544   4.339   1.038   9.373
 6328SOL    HW219545   4.378   0.997   9.514
 6329SOL     OW19546   3.839   0.652   9.870
 6329SOL    HW119547   3.810   0.563   9.891
 6329SOL    HW219548   3.831   0.701   9.951
 6330SOL     OW19549   3.756   1.596   9.434
 6330SOL    HW119550   3.737   1.504   9.453
 6330SOL    HW219551   3.731   1.642   9.514
 6331SOL     OW19552   3.848   0.727  10.914
 6331SOL    HW119553   3.941   0.750  10.908
 6331SOL    HW219554   3.802   0.810  10.907
 6332SOL     OW19555   4.312   1.387  10.047
 6332SOL    HW119556   4.276   1.298  10.051
 6332SOL    HW219557   4.312   1.408   9.954
 6333SOL     OW19558   0.018   0.016   9.822
 6333SOL    HW119559   0.048   0.079   9.756
 6333SOL    HW219560   4.428   0.042   9.840
 6334SOL     OW19561   3.913   0.965  10.579
 6334SOL    HW119562   3.998   0.925  10.560
 6334SOL    HW219563   3.850   0.910  10.532
 6335SOL     OW19564   4.057   0.276  11.088
 6335SOL    HW119565   4.115   0.336   0.036
 6335SOL    HW219566   3.973   0.283   0.034
 6336SOL     OW19567   4.312   0.729   9.580
 6336SOL    HW119568   4.310   0.805   9.523
 6336SOL    HW219569   4.244   0.745   9.645
 6337SOL     OW19570   3.812   0.821  10.086
 6337SOL    HW119571   3.894   0.813  10.136
 6337SOL    HW219572   3.771   0.900  10.120
 6338SOL     OW19573   3.854   1.843  10.896
 6338SOL    HW119574   3.836   1.805  10.982
 6338SOL    HW219575   3.770   1.842  10.850
 6339SOL     OW19576   4.245   0.203  10.210
 6339SOL    HW119577   4.288   0.223  10.293
 6339SOL    HW219578   4.263   0.280  10.155
 6340SOL     OW19579   4.082   1.811  10.171
 6340SOL    HW119580   4.131   1.729  10.179
 6340SOL    HW219581   4.148   1.879  10.183
 6341SOL     OW19582   4.043   0.957   9.559
 6341SOL    HW119583   4.126   0.975   9.514
 6341SOL    HW219584   4.013   0.875   9.521
 6342SOL     OW19585   4.178   1.262  11.054
 6342SOL    HW119586   4.153   1.274  10.962
 6342SOL    HW219587   4.107   1.213  11.093
 6343SOL     OW19588   3.921   0.272  10.814
 6343SOL    HW119589   3.848   0.333  10.806
 6343SOL    HW219590   3.933   0.261  10.908
 6344SOL     OW19591   4.192   1.735   9.635
 6344SOL    HW119592   4.224   1.795   9.703
 6344SOL    HW219593   4.262   1.733   9.570
 6345SOL     OW19594   3.979   1.793  10.544
 6345SOL    HW119595   4.027   1.724  10.590
 6345SOL    HW219596   3.966   1.758  10.456
 6346SOL     OW19597   4.111   0.694   9.783
 6346SOL    HW119598   4.137   0.603   9.797
 6346SOL    HW219599   4.018   0.696   9.804
 6347SOL     OW19600   4.327   0.121   9.427
 6347SOL    HW119601   4.413   0.081   9.439
 6347SOL    HW219602   4.303   0.100   9.337
 6348SOL     OW19603   0.019   1.423  10.224
 6348SOL    HW119604   0.085   1.461  10.166
 6348SOL    HW219605   4.444   1.406  10.166
 6349SOL     OW19606   4.271   0.109   9.849
 6349SOL    HW119607   4.186   0.067   9.868
 6349SOL    HW219608   4.255   0.159   9.770
 6350SOL     OW19609   4.023   0.072   9.505
 6350SOL    HW119610   4.103   0.122   9.487
 6350SOL    HW219611   4.052   4.500   9.561
 6351SOL     OW19612   0.310   0.682  10.769
 6351SOL    HW119613   0.246   0.611  10.770
 6351SOL    HW219614   0.394   0.639  10.753
 6352SOL     OW19615   4.189   1.145  10.044
 6352SOL    HW119616   4.120   1.126  10.108
 6352SOL    HW219617   4.149   1.128   9.959
 6353SOL     OW19618   3.804   0.550  10.707
 6353SOL    HW119619   3.895   0.554  10.676
 6353SOL    HW219620   3.799   0.615  10.777
 6354SOL     OW19621   4.298   0.235  10.476
 6354SOL    HW119622   4.301   0.140  10.483
 6354SOL    HW219623   4.207   0.257  10.498
 6355SOL     OW19624   4.230   1.387   9.482
 6355SOL    HW119625   4.146   1.372   9.525
 6355SOL    HW219626   4.209   1.403   9.391
 6356SOL     OW19627   4.245   0.270   9.633
 6356SOL    HW119628   4.285   0.214   9.567
 6356SOL    HW219629   4.225   0.352   9.587
 6357SOL     OW19630   4.140   0.813  10.559
 6357SOL    HW119631   4.207   0.823  10.627
 6357SOL    HW219632   4.106   0.725  10.572
 6358SOL     OW19633   3.793   1.576  10.661
 6358SOL    HW119634   3.761   1.646  10.604
 6358SOL    HW219635   3.888   1.580  10.653
 6359SOL     OW19636   4.073   1.108   9.800
 6359SOL    HW119637   4.075   1.181   9.738
 6359SOL    HW219638   4.071   1.029   9.746
 6360SOL     OW19639   4.301   0.539  10.173
 6360SOL    HW119640   4.302   0.605  10.104
 6360SOL    HW219641   4.365   0.570  10.237
 6361SOL     OW19642   4.072   1.531  10.627
 6361SOL    HW119643   4.066   1.488  10.542
 6361SOL    HW219644   4.166   1.534  10.646
 6362SOL     OW19645   4.134   0.736  10.905
 6362SOL    HW119646   4.197   0.782  10.848
 6362SOL    HW219647   4.165   0.646  10.906
 6363SOL     OW19648   4.291   0.889  10.336
 6363SOL    HW119649   4.321   0.978  10.351
 6363SOL    HW219650   4.243   0.867  10.415
 6364SOL     OW19651   4.015   0.237  10.549
 6364SOL    HW119652   3.975   0.251  10.635
 6364SOL    HW219653   4.048   0.148  10.552
 6365SOL     OW19654   3.773   1.312  10.586
 6365SOL    HW119655   3.801   1.256  10.659
 6365SOL    HW219656   3.776   1.401  10.621
 6366SOL     OW19657   4.013   0.056   9.968
 6366SOL    HW119658   4.008   0.152   9.969
 6366SOL    HW219659   4.028   0.032  10.059
 6367SOL     OW19660   4.080   0.918  11.095
 6367SOL    HW119661   4.164   0.934   0.038
 6367SOL    HW219662   4.100   0.851  11.029
 6368SOL     OW19663   4.031   0.809  10.257
 6368SOL    HW119664   4.123   0.836  10.255
 6368SOL    HW219665   4.034   0.719  10.288
 6369SOL     OW19666   4.067   0.531  10.321
 6369SOL    HW119667   4.024   0.448  10.301
 6369SOL    HW219668   4.145   0.531  10.265
 6370SOL     OW19669   3.729   1.322   9.505
 6370SOL    HW119670   3.642   1.335   9.467
 6370SOL    HW219671   3.727   1.232   9.539
 6371SOL     OW19672   3.815   1.788  10.248
 6371SOL    HW119673   3.785   1.709  10.204
 6371SOL    HW219674   3.905   1.800  10.216
 6372SOL     OW19675   4.232   1.583  10.215
 6372SOL    HW119676   4.317   1.615  10.243
 6372SOL    HW219677   4.253   1.511  10.155
 6373SOL     OW19678   3.757   0.544  10.428
 6373SOL    HW119679   3.834   0.519  10.376
 6373SOL    HW219680   3.790   0.548  10.518
 6374SOL     OW19681   0.030   0.551   9.573
 6374SOL    HW119682   0.020   0.485   9.642
 6374SOL    HW219683   4.464   0.617   9.594
 6375SOL     OW19684   3.978   1.566  11.053
 6375SOL    HW119685   3.921   1.600   0.022
 6375SOL    HW219686   3.981   1.472  11.068
 6376SOL     OW19687   4.191   0.494   9.495
 6376SOL    HW119688   4.249   0.568   9.516
 6376SOL    HW219689   4.105   0.534   9.483
 6377SOL     OW19690   3.877   1.138  10.780
 6377SOL    HW119691   3.870   1.083  10.858
 6377SOL    HW219692   3.889   1.076  10.708
 6378SOL     OW19693   3.808   1.269  10.322
 6378SOL    HW119694   3.795   1.279  10.417
 6378SOL    HW219695   3.737   1.212  10.294
 6379SOL     OW19696   4.394   1.667  11.005
 6379SOL    HW119697   4.315   1.719  10.988
 6379SOL    HW219698   4.431   1.651  10.918
 6380SOL     OW19699   3.989   0.326  10.027
 6380SOL    HW119700   3.903   0.359  10.002
 6380SOL    HW219701   3.985   0.315  10.122
 6381SOL     OW19702   4.084   1.309  10.810
 6381SOL    HW119703   4.072   1.381  10.748
 6381SOL    HW219704   4.015   1.247  10.788
 6382SOL     OW19705   4.325   1.490   9.791
 6382SOL    HW119706   4.343   1.431   9.718
 6382SOL    HW219707   4.260   1.551   9.757
 6383SOL     OW19708   3.983   1.350   9.596
 6383SOL    HW119709   3.890   1.346   9.574
 6383SOL    HW219710   3.986   1.385   9.685
 6384SOL     OW19711   3.837   1.012  11.019
 6384SOL    HW119712   3.767   0.998  11.083
 6384SOL    HW219713   3.917   0.982  11.064
 6385SOL     OW19714   4.378   0.186  10.815
 6385SOL    HW119715   4.446   0.207  10.751
 6385SOL    HW219716   4.416   0.211  10.899
 6386SOL     OW19717   3.805   0.341   9.357
 6386SOL    HW119718   3.734   0.288   9.321
 6386SOL    HW219719   3.819   0.409   9.292
 6387SOL     OW19720   3.789   0.181   9.630
 6387SOL    HW119721   3.787   0.248   9.562
 6387SOL    HW219722   3.864   0.127   9.609
 6388SOL     OW19723   4.338   0.839  10.745
 6388SOL    HW119724   4.377   0.925  10.729
 6388SOL    HW219725   4.413   0.780  10.752
 6389SOL     OW19726   4.115   1.734  10.872
 6389SOL    HW119727   4.035   1.787  10.863
 6389SOL    HW219728   4.088   1.659  10.925
 6390SOL     OW19729   4.310   0.731   9.976
 6390SOL    HW119730   4.351   0.817   9.964
 6390SOL    HW219731   4.240   0.729   9.910
 6391SOL     OW19732   3.808   1.235   9.975
 6391SOL    HW119733   3.811   1.186  10.057
 6391SOL    HW219734   3.877   1.195   9.921
 6392SOL     OW19735   4.406   1.392  10.942
 6392SOL    HW119736   4.330   1.343  10.974
 6392SOL    HW219737   4.398   1.478  10.983
 6393SOL     OW19738   4.164   0.435   9.842
 6393SOL    HW119739   4.183   0.365   9.779
 6393SOL    HW219740   4.109   0.393   9.908
 6394SOL     OW19741   4.053   0.555  10.600
 6394SOL    HW119742   4.106   0.495  10.652
 6394SOL    HW219743   4.070   0.530  10.509
 6395SOL     OW19744   0.037   1.597   9.996
 6395SOL    HW119745   0.059   1.657   9.924
 6395SOL    HW219746   4.465   1.544   9.961
 6396SOL     OW19747   3.768   1.072   9.615
 6396SOL    HW119748   3.862   1.062   9.598
 6396SOL    HW219749   3.738   0.984   9.638
 6397SOL     OW19750   3.950   2.476   0.117
 6397SOL    HW119751   3.864   2.481   0.160
 6397SOL    HW219752   3.932   2.499   0.025
 6398SOL     OW19753   3.947   2.146   0.991
 6398SOL    HW119754   3.979   2.110   1.074
 6398SOL    HW219755   3.858   2.111   0.983
 6399SOL     OW19756   3.728   2.245   0.638
 6399SOL    HW119757   3.645   2.269   0.679
 6399SOL    HW219758   3.709   2.164   0.590
 6400SOL     OW19759   4.267   3.110   1.147
 6400SOL    HW119760   4.195   3.168   1.123
 6400SOL    HW219761   4.331   3.166   1.189
 6401SOL     OW19762   0.021   2.643   1.857
 6401SOL    HW119763   0.071   2.688   1.924
 6401SOL    HW219764   0.065   2.666   1.775
 6402SOL     OW19765   4.397   2.854   0.639
 6402SOL    HW119766   4.472   2.851   0.698
 6402SOL    HW219767   4.335   2.913   0.681
 6403SOL     OW19768   4.419   3.023   1.813
 6403SOL    HW119769   4.460   3.104   1.784
 6403SOL    HW219770   4.327   3.032   1.788
 6404SOL     OW19771   4.060   3.295   1.069
 6404SOL    HW119772   3.988   3.253   1.022
 6404SOL    HW219773   4.107   3.343   1.001
 6405SOL     OW19774   4.171   2.261   1.486
 6405SOL    HW119775   4.245   2.201   1.490
 6405SOL    HW219776   4.094   2.206   1.499
 6406SOL     OW19777   3.942   3.575   0.476
 6406SOL    HW119778   3.964   3.653   0.527
 6406SOL    HW219779   4.012   3.569   0.410
 6407SOL     OW19780   3.951   3.302   0.532
 6407SOL    HW119781   3.936   3.396   0.537
 6407SOL    HW219782   3.891   3.265   0.597
 6408SOL     OW19783   3.974   2.950   0.886
 6408SOL    HW119784   3.978   2.866   0.931
 6408SOL    HW219785   3.922   3.006   0.944
 6409SOL     OW19786   4.360   3.660   1.453
 6409SOL    HW119787   4.274   3.626   1.477
 6409SOL    HW219788   4.351   3.755   1.454
 6410SOL     OW19789   4.299   2.865   0.138
 6410SOL    HW119790   4.315   2.930   0.070
 6410SOL    HW219791   4.380   2.865   0.190
 6411SOL     OW19792   3.838   2.513   0.559
 6411SOL    HW119793   3.808   2.424   0.582
 6411SOL    HW219794   3.830   2.562   0.641
 6412SOL     OW19795   3.768   3.464   0.120
 6412SOL    HW119796   3.740   3.375   0.143
 6412SOL    HW219797   3.741   3.518   0.194
 6413SOL     OW19798   3.845   2.604   1.586
 6413SOL    HW119799   3.937   2.627   1.598
 6413SOL    HW219800   3.798   2.687   1.593
 6414SOL     OW19801   4.311   3.249   0.738
 6414SOL    HW119802   4.276   3.160   0.741
 6414SOL    HW219803   4.312   3.270   0.644
 6415SOL     OW19804   0.022   1.872   0.531
 6415SOL    HW119805   0.054   1.930   0.461
 6415SOL    HW219806   4.427   1.884   0.531
 6416SOL     OW19807   3.913   2.828   1.271
 6416SOL    HW119808   3.998   2.789   1.253
 6416SOL    HW219809   3.850   2.773   1.224
 6417SOL     OW19810   4.056   2.112   1.809
 6417SOL    HW119811   4.101   2.195   1.825
 6417SOL    HW219812   3.967   2.126   1.841
 6418SOL     OW19813   4.308   2.581   0.269
 6418SOL    HW119814   4.329   2.657   0.215
 6418SOL    HW219815   4.245   2.614   0.333
 6419SOL     OW19816   3.812   2.683   0.775
 6419SOL    HW119817   3.894   2.675   0.825
 6419SOL    HW219818   3.770   2.762   0.810
 6420SOL     OW19819   3.853   3.705   1.577
 6420SOL    HW119820   3.852   3.686   1.670
 6420SOL    HW219821   3.761   3.702   1.550
 6421SOL     OW19822   4.253   2.054   0.881
 6421SOL    HW119823   4.272   2.059   0.974
 6421SOL    HW219824   4.263   2.143   0.849
 6422SOL     OW19825   4.082   3.673   0.862
 6422SOL    HW119826   4.130   3.591   0.869
 6422SOL    HW219827   4.148   3.741   0.872
 6423SOL     OW19828   4.041   2.821   0.274
 6423SOL    HW119829   4.120   2.845   0.226
 6423SOL    HW219830   4.014   2.738   0.235
 6424SOL     OW19831   4.178   3.115   1.735
 6424SOL    HW119832   4.151   3.126   1.644
 6424SOL    HW219833   4.097   3.125   1.785
 6425SOL     OW19834   3.924   2.145   1.501
 6425SOL    HW119835   3.842   2.194   1.494
 6425SOL    HW219836   3.906   2.079   1.568
 6426SOL     OW19837   4.193   3.594   0.327
 6426SOL    HW119838   4.224   3.657   0.393
 6426SOL    HW219839   4.265   3.587   0.265
 6427SOL     OW19840   3.979   3.655   1.233
 6427SOL    HW119841   4.027   3.586   1.279
 6427SOL    HW219842   3.966   3.620   1.144
 6428SOL     OW19843   4.108   2.556   0.475
 6428SOL    HW119844   4.135   2.466   0.489
 6428SOL    HW219845   4.015   2.557   0.498
 6429SOL     OW19846   4.346   1.990   0.111
 6429SOL    HW119847   4.433   1.954   0.125
 6429SOL    HW219848   4.317   1.950   0.029
 6430SOL     OW19849   0.019   3.284   0.913
 6430SOL    HW119850   0.085   3.325   0.856
 6430SOL    HW219851   4.444   3.268   0.856
 6431SOL     OW19852   4.261   1.926   0.501
 6431SOL    HW119853   4.181   1.930   0.554
 6431SOL    HW219854   4.257   2.005   0.446
 6432SOL     OW19855   4.009   1.910   0.199
 6432SOL    HW119856   4.053   1.964   0.133
 6432SOL    HW219857   4.075   1.846   0.225
 6433SOL     OW19858   0.324   2.538   1.448
 6433SOL    HW119859   0.251   2.475   1.443
 6433SOL    HW219860   0.403   2.483   1.444
 6434SOL     OW19861   4.191   3.007   0.737
 6434SOL    HW119862   4.121   2.988   0.800
 6434SOL    HW219863   4.151   2.992   0.651
 6435SOL     OW19864   3.802   2.417   1.392
 6435SOL    HW119865   3.894   2.415   1.364
 6435SOL    HW219866   3.798   2.487   1.456
 6436SOL     OW19867   4.284   2.074   1.149
 6436SOL    HW119868   4.326   2.006   1.202
 6436SOL    HW219869   4.197   2.085   1.188
 6437SOL     OW19870   4.236   3.262   0.190
 6437SOL    HW119871   4.150   3.248   0.231
 6437SOL    HW219872   4.220   3.246   0.097
 6438SOL     OW19873   4.249   2.131   0.324
 6438SOL    HW119874   4.285   2.075   0.255
 6438SOL    HW219875   4.227   2.213   0.279
 6439SOL     OW19876   4.139   2.674   1.250
 6439SOL    HW119877   4.206   2.685   1.317
 6439SOL    HW219878   4.105   2.586   1.264
 6440SOL     OW19879   3.793   3.435   1.352
 6440SOL    HW119880   3.760   3.506   1.297
 6440SOL    HW219881   3.888   3.441   1.345
 6441SOL     OW19882   4.072   2.977   0.496
 6441SOL    HW119883   4.073   3.050   0.435
 6441SOL    HW219884   4.067   2.899   0.441
 6442SOL     OW19885   4.299   2.401   0.864
 6442SOL    HW119886   4.301   2.467   0.794
 6442SOL    HW219887   4.363   2.431   0.928
 6443SOL     OW19888   4.072   3.394   1.317
 6443SOL    HW119889   4.066   3.351   1.232
 6443SOL    HW219890   4.166   3.396   1.336
 6444SOL     OW19891   4.136   2.605   1.604
 6444SOL    HW119892   4.195   2.649   1.544
 6444SOL    HW219893   4.178   2.521   1.622
 6445SOL     OW19894   4.231   1.914   1.734
 6445SOL    HW119895   4.186   1.854   1.675
 6445SOL    HW219896   4.166   1.981   1.754
 6446SOL     OW19897   4.290   2.750   1.026
 6446SOL    HW119898   4.321   2.840   1.040
 6446SOL    HW219899   4.243   2.728   1.106
 6447SOL     OW19900   4.025   2.063   1.247
 6447SOL    HW119901   3.986   2.095   1.328
 6447SOL    HW219902   4.004   1.969   1.246
 6448SOL     OW19903   3.770   3.173   1.277
 6448SOL    HW119904   3.803   3.118   1.349
 6448SOL    HW219905   3.776   3.262   1.310
 6449SOL     OW19906   4.020   1.928   0.625
 6449SOL    HW119907   4.005   2.020   0.650
 6449SOL    HW219908   4.032   1.883   0.709
 6450SOL     OW19909   4.076   2.777   1.808
 6450SOL    HW119910   4.158   2.793   1.855
 6450SOL    HW219911   4.099   2.714   1.740
 6451SOL     OW19912   4.031   2.671   0.946
 6451SOL    HW119913   4.123   2.698   0.946
 6451SOL    HW219914   4.033   2.580   0.978
 6452SOL     OW19915   4.063   2.388   1.009
 6452SOL    HW119916   4.026   2.301   0.993
 6452SOL    HW219917   4.142   2.391   0.955
 6453SOL     OW19918   3.731   3.190   0.195
 6453SOL    HW119919   3.644   3.201   0.156
 6453SOL    HW219920   3.732   3.099   0.225
 6454SOL     OW19921   3.816   3.650   0.938
 6454SOL    HW119922   3.785   3.571   0.894
 6454SOL    HW219923   3.905   3.662   0.906
 6455SOL     OW19924   4.232   3.444   0.905
 6455SOL    HW119925   4.317   3.478   0.933
 6455SOL    HW219926   4.252   3.373   0.845
 6456SOL     OW19927   3.759   2.406   1.116
 6456SOL    HW119928   3.839   2.389   1.066
 6456SOL    HW219929   3.788   2.410   1.207
 6457SOL     OW19930   3.915   2.380   1.727
 6457SOL    HW119931   3.972   2.344   1.659
 6457SOL    HW219932   3.870   2.453   1.683
 6458SOL     OW19933   0.029   2.410   0.267
 6458SOL    HW119934   0.018   2.347   0.338
 6458SOL    HW219935   4.465   2.479   0.286
 6459SOL     OW19936   3.971   3.415   1.729
 6459SOL    HW119937   3.944   3.479   1.795
 6459SOL    HW219938   3.967   3.331   1.774
 6460SOL     OW19939   4.189   2.352   0.178
 6460SOL    HW119940   4.246   2.423   0.206
 6460SOL    HW219941   4.102   2.392   0.170
 6461SOL     OW19942   3.871   3.002   1.472
 6461SOL    HW119943   3.873   2.949   1.552
 6461SOL    HW219944   3.887   2.939   1.401
 6462SOL     OW19945   3.808   3.131   1.013
 6462SOL    HW119946   3.793   3.140   1.107
 6462SOL    HW219947   3.736   3.074   0.984
 6463SOL     OW19948   4.389   3.513   1.702
 6463SOL    HW119949   4.356   3.600   1.726
 6463SOL    HW219950   4.436   3.529   1.620
 6464SOL     OW19951   3.860   3.658   1.843
 6464SOL    HW119952   3.809   3.594   1.892
 6464SOL    HW219953   3.907   3.708   1.910
 6465SOL     OW19954   3.987   2.182   0.716
 6465SOL    HW119955   3.900   2.215   0.694
 6465SOL    HW219956   3.985   2.171   0.811
 6466SOL     OW19957   4.089   3.168   1.491
 6466SOL    HW119958   4.070   3.244   1.436
 6466SOL    HW219959   4.016   3.108   1.474
 6467SOL     OW19960   4.324   3.352   0.481
 6467SOL    HW119961   4.344   3.296   0.406
 6467SOL    HW219962   4.258   3.413   0.449
 6468SOL     OW19963   3.990   3.205   0.287
 6468SOL    HW119964   3.901   3.205   0.250
 6468SOL    HW219965   3.980   3.243   0.374
 6469SOL     OW19966   3.836   2.883   1.719
 6469SOL    HW119967   3.759   2.860   1.772
 6469SOL    HW219968   3.910   2.846   1.767
 6470SOL     OW19969   4.391   2.068   1.493
 6470SOL    HW119970   4.479   2.064   1.456
 6470SOL    HW219971   4.404   2.057   1.588
 6471SOL     OW19972   3.807   2.207   0.048
 6471SOL    HW119973   3.730   2.172   0.004
 6471SOL    HW219974   3.824   2.290   0.003
 6472SOL     OW19975   3.791   2.021   0.315
 6472SOL    HW119976   3.782   2.102   0.265
 6472SOL    HW219977   3.873   1.983   0.284
 6473SOL     OW19978   4.337   2.701   1.435
 6473SOL    HW119979   4.381   2.785   1.420
 6473SOL    HW219980   4.407   2.638   1.446
 6474SOL     OW19981   4.400   2.418   1.737
 6474SOL    HW119982   4.423   2.496   1.788
 6474SOL    HW219983   4.484   2.382   1.709
 6475SOL     OW19984   4.108   3.601   1.560
 6475SOL    HW119985   4.022   3.641   1.548
 6475SOL    HW219986   4.090   3.519   1.606
 6476SOL     OW19987   4.309   2.593   0.666
 6476SOL    HW119988   4.351   2.678   0.655
 6476SOL    HW219989   4.239   2.593   0.601
 6477SOL     OW19990   3.944   3.169   1.855
 6477SOL    HW119991   3.878   3.105   1.827
 6477SOL    HW219992   3.929   3.179   1.949
 6478SOL     OW19993   3.807   3.096   0.665
 6478SOL    HW119994   3.812   3.047   0.747
 6478SOL    HW219995   3.878   3.060   0.612
 6479SOL     OW19996   4.415   3.249   1.656
 6479SOL    HW119997   4.325   3.215   1.654
 6479SOL    HW219998   4.405   3.342   1.672
 6480SOL     OW19999   4.160   2.295   0.531
 6480SOL    HW120000   4.181   2.225   0.469
 6480SOL    HW220001   4.105   2.253   0.597
 6481SOL     OW20002   4.052   2.415   1.289
 6481SOL    HW120003   4.106   2.359   1.344
 6481SOL    HW220004   4.074   2.388   1.200
 6482SOL     OW20005   0.036   3.459   0.686
 6482SOL    HW120006   0.061   3.518   0.615
 6482SOL    HW220007   4.464   3.407   0.649
 6483SOL     OW20008   3.766   2.933   0.300
 6483SOL    HW120009   3.862   2.927   0.296
 6483SOL    HW220010   3.738   2.846   0.326
 6484SOL     OW20011   3.955   2.485   1.984
 6484SOL    HW120012   3.865   2.485   2.018
 6484SOL    HW220013   3.946   2.459   1.892
 6485SOL     OW20014   3.947   2.146   2.853
 6485SOL    HW120015   3.979   2.110   2.936
 6485SOL    HW220016   3.858   2.111   2.844
 6486SOL     OW20017   3.728   2.244   2.500
 6486SOL    HW120018   3.646   2.269   2.541
 6486SOL    HW220019   3.708   2.164   2.452
 6487SOL     OW20020   4.268   3.110   3.007
 6487SOL    HW120021   4.195   3.168   2.985
 6487SOL    HW220022   4.331   3.166   3.052
 6488SOL     OW20023   0.021   2.643   3.719
 6488SOL    HW120024   0.071   2.689   3.786
 6488SOL    HW220025   0.065   2.666   3.637
 6489SOL     OW20026   4.398   2.856   2.501
 6489SOL    HW120027   4.471   2.848   2.563
 6489SOL    HW220028   4.336   2.914   2.544
 6490SOL     OW20029   4.419   3.023   3.675
 6490SOL    HW120030   4.460   3.104   3.646
 6490SOL    HW220031   4.327   3.032   3.650
 6491SOL     OW20032   4.060   3.295   2.931
 6491SOL    HW120033   3.987   3.252   2.885
 6491SOL    HW220034   4.107   3.343   2.863
 6492SOL     OW20035   4.171   2.261   3.348
 6492SOL    HW120036   4.245   2.201   3.352
 6492SOL    HW220037   4.094   2.206   3.361
 6493SOL     OW20038   3.943   3.576   2.336
 6493SOL    HW120039   3.964   3.652   2.389
 6493SOL    HW220040   4.016   3.568   2.275
 6494SOL     OW20041   3.954   3.302   2.396
 6494SOL    HW120042   3.936   3.396   2.402
 6494SOL    HW220043   3.894   3.262   2.459
 6495SOL     OW20044   3.974   2.950   2.748
 6495SOL    HW120045   3.979   2.866   2.793
 6495SOL    HW220046   3.922   3.006   2.806
 6496SOL     OW20047   4.361   3.659   3.315
 6496SOL    HW120048   4.274   3.626   3.339
 6496SOL    HW220049   4.351   3.755   3.316
 6497SOL     OW20050   4.310   2.848   2.000
 6497SOL    HW120051   4.339   2.900   1.925
 6497SOL    HW220052   4.378   2.859   2.066
 6498SOL     OW20053   3.839   2.513   2.422
 6498SOL    HW120054   3.808   2.425   2.443
 6498SOL    HW220055   3.831   2.562   2.503
 6499SOL     OW20056   3.755   3.458   1.986
 6499SOL    HW120057   3.737   3.366   2.006
 6499SOL    HW220058   3.731   3.505   2.066
 6500SOL     OW20059   3.845   2.604   3.448
 6500SOL    HW120060   3.937   2.627   3.460
 6500SOL    HW220061   3.798   2.687   3.455
 6501SOL     OW20062   4.312   3.249   2.599
 6501SOL    HW120063   4.276   3.160   2.603
 6501SOL    HW220064   4.312   3.270   2.506
 6502SOL     OW20065   0.022   1.869   2.388
 6502SOL    HW120066   0.053   1.932   2.323
 6502SOL    HW220067   4.427   1.883   2.391
 6503SOL     OW20068   3.913   2.829   3.133
 6503SOL    HW120069   3.998   2.788   3.115
 6503SOL    HW220070   3.850   2.773   3.086
 6504SOL     OW20071   4.056   2.112   3.671
 6504SOL    HW120072   4.101   2.196   3.687
 6504SOL    HW220073   3.967   2.126   3.703
 6505SOL     OW20074   4.312   2.590   2.132
 6505SOL    HW120075   4.311   2.666   2.074
 6505SOL    HW220076   4.244   2.608   2.196
 6506SOL     OW20077   3.812   2.683   2.637
 6506SOL    HW120078   3.894   2.675   2.687
 6506SOL    HW220079   3.771   2.762   2.672
 6507SOL     OW20080   3.853   3.705   3.439
 6507SOL    HW120081   3.852   3.685   3.532
 6507SOL    HW220082   3.761   3.702   3.412
 6508SOL     OW20083   4.253   2.053   2.742
 6508SOL    HW120084   4.272   2.059   2.836
 6508SOL    HW220085   4.263   2.143   2.710
 6509SOL     OW20086   4.082   3.673   2.723
 6509SOL    HW120087   4.131   3.591   2.731
 6509SOL    HW220088   4.148   3.741   2.735
 6510SOL     OW20089   4.044   2.820   2.111
 6510SOL    HW120090   4.126   2.838   2.066
 6510SOL    HW220091   4.014   2.737   2.073
 6511SOL     OW20092   4.178   3.115   3.597
 6511SOL    HW120093   4.151   3.126   3.506
 6511SOL    HW220094   4.097   3.125   3.647
 6512SOL     OW20095   3.924   2.145   3.363
 6512SOL    HW120096   3.842   2.194   3.356
 6512SOL    HW220097   3.906   2.079   3.430
 6513SOL     OW20098   4.193   3.597   2.187
 6513SOL    HW120099   4.224   3.657   2.255
 6513SOL    HW220100   4.262   3.597   2.121
 6514SOL     OW20101   3.979   3.655   3.095
 6514SOL    HW120102   4.027   3.586   3.141
 6514SOL    HW220103   3.966   3.620   3.007
 6515SOL     OW20104   4.111   2.556   2.336
 6515SOL    HW120105   4.137   2.465   2.349
 6515SOL    HW220106   4.017   2.558   2.357
 6516SOL     OW20107   4.340   1.972   1.979
 6516SOL    HW120108   4.435   1.957   1.979
 6516SOL    HW220109   4.312   1.949   1.891
 6517SOL     OW20110   0.019   3.285   2.775
 6517SOL    HW120111   0.085   3.323   2.718
 6517SOL    HW220112   4.444   3.268   2.718
 6518SOL     OW20113   4.261   1.926   2.363
 6518SOL    HW120114   4.182   1.931   2.418
 6518SOL    HW220115   4.257   2.005   2.309
 6519SOL     OW20116   4.018   1.910   2.046
 6519SOL    HW120117   4.078   1.974   2.009
 6519SOL    HW220118   4.074   1.845   2.089
 6520SOL     OW20119   0.324   2.537   3.310
 6520SOL    HW120120   0.251   2.475   3.305
 6520SOL    HW220121   0.402   2.483   3.306
 6521SOL     OW20122   4.189   3.007   2.596
 6521SOL    HW120123   4.120   2.988   2.660
 6521SOL    HW220124   4.149   2.989   2.511
 6522SOL     OW20125   3.802   2.417   3.253
 6522SOL    HW120126   3.894   2.415   3.226
 6522SOL    HW220127   3.798   2.487   3.318
 6523SOL     OW20128   4.284   2.074   3.011
 6523SOL    HW120129   4.326   2.006   3.064
 6523SOL    HW220130   4.197   2.085   3.050
 6524SOL     OW20131   4.230   3.249   2.034
 6524SOL    HW120132   4.146   3.234   2.077
 6524SOL    HW220133   4.209   3.265   1.943
 6525SOL     OW20134   4.246   2.128   2.184
 6525SOL    HW120135   4.287   2.073   2.117
 6525SOL    HW220136   4.227   2.210   2.140
 6526SOL     OW20137   4.139   2.674   3.112
 6526SOL    HW120138   4.206   2.685   3.179
 6526SOL    HW220139   4.105   2.586   3.126
 6527SOL     OW20140   3.793   3.435   3.214
 6527SOL    HW120141   3.760   3.507   3.159
 6527SOL    HW220142   3.888   3.441   3.208
 6528SOL     OW20143   4.072   2.970   2.352
 6528SOL    HW120144   4.075   3.043   2.290
 6528SOL    HW220145   4.071   2.892   2.298
 6529SOL     OW20146   4.299   2.401   2.726
 6529SOL    HW120147   4.300   2.467   2.656
 6529SOL    HW220148   4.363   2.431   2.789
 6530SOL     OW20149   4.072   3.394   3.179
 6530SOL    HW120150   4.066   3.351   3.094
 6530SOL    HW220151   4.166   3.396   3.198
 6531SOL     OW20152   4.136   2.605   3.466
 6531SOL    HW120153   4.195   2.649   3.406
 6531SOL    HW220154   4.178   2.521   3.484
 6532SOL     OW20155   4.231   1.914   3.596
 6532SOL    HW120156   4.186   1.853   3.537
 6532SOL    HW220157   4.166   1.981   3.616
 6533SOL     OW20158   4.291   2.751   2.888
 6533SOL    HW120159   4.321   2.840   2.903
 6533SOL    HW220160   4.243   2.728   2.968
 6534SOL     OW20161   4.025   2.063   3.109
 6534SOL    HW120162   3.986   2.095   3.190
 6534SOL    HW220163   4.005   1.969   3.108
 6535SOL     OW20164   3.770   3.172   3.139
 6535SOL    HW120165   3.803   3.118   3.211
 6535SOL    HW220166   3.776   3.262   3.172
 6536SOL     OW20167   4.020   1.928   2.487
 6536SOL    HW120168   4.005   2.020   2.512
 6536SOL    HW220169   4.032   1.883   2.571
 6537SOL     OW20170   4.076   2.777   3.670
 6537SOL    HW120171   4.158   2.793   3.717
 6537SOL    HW220172   4.099   2.714   3.602
 6538SOL     OW20173   4.031   2.671   2.808
 6538SOL    HW120174   4.123   2.698   2.808
 6538SOL    HW220175   4.033   2.581   2.840
 6539SOL     OW20176   4.063   2.388   2.871
 6539SOL    HW120177   4.026   2.301   2.855
 6539SOL    HW220178   4.142   2.391   2.817
 6540SOL     OW20179   3.729   3.184   2.057
 6540SOL    HW120180   3.642   3.197   2.020
 6540SOL    HW220181   3.727   3.094   2.091
 6541SOL     OW20182   3.816   3.650   2.800
 6541SOL    HW120183   3.785   3.571   2.756
 6541SOL    HW220184   3.905   3.662   2.768
 6542SOL     OW20185   4.232   3.444   2.767
 6542SOL    HW120186   4.317   3.477   2.796
 6542SOL    HW220187   4.253   3.373   2.707
 6543SOL     OW20188   3.759   2.406   2.978
 6543SOL    HW120189   3.839   2.389   2.928
 6543SOL    HW220190   3.788   2.410   3.069
 6544SOL     OW20191   3.915   2.380   3.589
 6544SOL    HW120192   3.972   2.344   3.521
 6544SOL    HW220193   3.870   2.453   3.545
 6545SOL     OW20194   0.033   2.419   2.126
 6545SOL    HW120195   0.020   2.346   2.188
 6545SOL    HW220196   4.465   2.482   2.148
 6546SOL     OW20197   3.971   3.415   3.591
 6546SOL    HW120198   3.944   3.479   3.657
 6546SOL    HW220199   3.967   3.331   3.636
 6547SOL     OW20200   4.190   2.355   2.051
 6547SOL    HW120201   4.249   2.428   2.070
 6547SOL    HW220202   4.105   2.395   2.037
 6548SOL     OW20203   3.871   3.002   3.334
 6548SOL    HW120204   3.873   2.949   3.414
 6548SOL    HW220205   3.887   2.939   3.263
 6549SOL     OW20206   3.808   3.131   2.875
 6549SOL    HW120207   3.793   3.140   2.969
 6549SOL    HW220208   3.737   3.074   2.845
 6550SOL     OW20209   4.389   3.514   3.564
 6550SOL    HW120210   4.355   3.600   3.589
 6550SOL    HW220211   4.436   3.529   3.482
 6551SOL     OW20212   3.861   3.658   3.705
 6551SOL    HW120213   3.809   3.594   3.754
 6551SOL    HW220214   3.907   3.708   3.772
 6552SOL     OW20215   3.987   2.182   2.578
 6552SOL    HW120216   3.900   2.216   2.556
 6552SOL    HW220217   3.985   2.171   2.673
 6553SOL     OW20218   4.089   3.168   3.352
 6553SOL    HW120219   4.070   3.244   3.298
 6553SOL    HW220220   4.016   3.108   3.336
 6554SOL     OW20221   4.325   3.352   2.343
 6554SOL    HW120222   4.343   3.293   2.270
 6554SOL    HW220223   4.260   3.413   2.309
 6555SOL     OW20224   3.983   3.212   2.148
 6555SOL    HW120225   3.890   3.208   2.126
 6555SOL    HW220226   3.986   3.247   2.237
 6556SOL     OW20227   3.836   2.883   3.581
 6556SOL    HW120228   3.759   2.860   3.634
 6556SOL    HW220229   3.910   2.846   3.629
 6557SOL     OW20230   4.391   2.068   3.356
 6557SOL    HW120231   4.479   2.064   3.319
 6557SOL    HW220232   4.403   2.056   3.450
 6558SOL     OW20233   3.802   2.196   1.897
 6558SOL    HW120234   3.714   2.177   1.865
 6558SOL    HW220235   3.831   2.271   1.845
 6559SOL     OW20236   3.793   2.019   2.174
 6559SOL    HW120237   3.778   2.099   2.123
 6559SOL    HW220238   3.878   1.987   2.143
 6560SOL     OW20239   4.337   2.701   3.297
 6560SOL    HW120240   4.381   2.785   3.282
 6560SOL    HW220241   4.407   2.638   3.309
 6561SOL     OW20242   4.400   2.418   3.599
 6561SOL    HW120243   4.423   2.496   3.650
 6561SOL    HW220244   4.484   2.382   3.571
 6562SOL     OW20245   4.108   3.601   3.422
 6562SOL    HW120246   4.022   3.641   3.410
 6562SOL    HW220247   4.089   3.519   3.468
 6563SOL     OW20248   4.309   2.594   2.528
 6563SOL    HW120249   4.352   2.678   2.516
 6563SOL    HW220250   4.240   2.592   2.463
 6564SOL     OW20251   3.944   3.169   3.717
 6564SOL    HW120252   3.878   3.105   3.689
 6564SOL    HW220253   3.929   3.180   3.811
 6565SOL     OW20254   3.808   3.096   2.527
 6565SOL    HW120255   3.811   3.047   2.609
 6565SOL    HW220256   3.877   3.057   2.473
 6566SOL     OW20257   4.415   3.249   3.518
 6566SOL    HW120258   4.325   3.215   3.516
 6566SOL    HW220259   4.405   3.342   3.534
 6567SOL     OW20260   4.163   2.295   2.394
 6567SOL    HW120261   4.180   2.227   2.329
 6567SOL    HW220262   4.106   2.253   2.459
 6568SOL     OW20263   4.052   2.415   3.151
 6568SOL    HW120264   4.106   2.359   3.206
 6568SOL    HW220265   4.073   2.388   3.061
 6569SOL     OW20266   0.037   3.459   2.547
 6569SOL    HW120267   0.058   3.519   2.476
 6569SOL    HW220268   4.465   3.406   2.513
 6570SOL     OW20269   3.768   2.934   2.167
 6570SOL    HW120270   3.861   2.924   2.150
 6570SOL    HW220271   3.739   2.846   2.190
 6571SOL     OW20272   3.955   2.485   3.846
 6571SOL    HW120273   3.866   2.485   3.880
 6571SOL    HW220274   3.946   2.459   3.755
 6572SOL     OW20275   3.948   2.145   4.715
 6572SOL    HW120276   3.978   2.110   4.799
 6572SOL    HW220277   3.858   2.112   4.706
 6573SOL     OW20278   3.728   2.244   4.362
 6573SOL    HW120279   3.646   2.269   4.403
 6573SOL    HW220280   3.707   2.164   4.314
 6574SOL     OW20281   4.269   3.110   4.867
 6574SOL    HW120282   4.195   3.167   4.847
 6574SOL    HW220283   4.331   3.167   4.914
 6575SOL     OW20284   0.021   2.642   5.581
 6575SOL    HW120285   0.070   2.689   5.648
 6575SOL    HW220286   0.065   2.667   5.499
 6576SOL     OW20287   4.399   2.856   4.362
 6576SOL    HW120288   4.470   2.848   4.425
 6576SOL    HW220289   4.336   2.914   4.406
 6577SOL     OW20290   4.419   3.023   5.537
 6577SOL    HW120291   4.460   3.104   5.508
 6577SOL    HW220292   4.327   3.032   5.512
 6578SOL     OW20293   4.060   3.295   4.793
 6578SOL    HW120294   3.987   3.252   4.747
 6578SOL    HW220295   4.106   3.343   4.725
 6579SOL     OW20296   4.171   2.261   5.209
 6579SOL    HW120297   4.244   2.200   5.214
 6579SOL    HW220298   4.093   2.206   5.223
 6580SOL     OW20299   3.943   3.576   4.198
 6580SOL    HW120300   3.964   3.652   4.251
 6580SOL    HW220301   4.016   3.568   4.137
 6581SOL     OW20302   3.954   3.302   4.258
 6581SOL    HW120303   3.936   3.396   4.264
 6581SOL    HW220304   3.894   3.262   4.321
 6582SOL     OW20305   3.975   2.951   4.611
 6582SOL    HW120306   3.978   2.866   4.655
 6582SOL    HW220307   3.922   3.006   4.668
 6583SOL     OW20308   4.361   3.659   5.177
 6583SOL    HW120309   4.274   3.626   5.201
 6583SOL    HW220310   4.351   3.754   5.178
 6584SOL     OW20311   4.310   2.847   3.862
 6584SOL    HW120312   4.340   2.900   3.787
 6584SOL    HW220313   4.378   2.859   3.928
 6585SOL     OW20314   3.839   2.513   4.284
 6585SOL    HW120315   3.808   2.425   4.305
 6585SOL    HW220316   3.831   2.562   4.365
 6586SOL     OW20317   3.755   3.458   3.848
 6586SOL    HW120318   3.737   3.366   3.868
 6586SOL    HW220319   3.731   3.505   3.928
 6587SOL     OW20320   3.845   2.603   5.310
 6587SOL    HW120321   3.936   2.628   5.322
 6587SOL    HW220322   3.797   2.686   5.315
 6588SOL     OW20323   4.312   3.249   4.461
 6588SOL    HW120324   4.276   3.160   4.465
 6588SOL    HW220325   4.312   3.270   4.368
 6589SOL     OW20326   0.022   1.870   4.250
 6589SOL    HW120327   0.053   1.932   4.184
 6589SOL    HW220328   4.427   1.883   4.253
 6590SOL     OW20329   3.913   2.829   4.994
 6590SOL    HW120330   3.998   2.788   4.976
 6590SOL    HW220331   3.850   2.773   4.950
 6591SOL     OW20332   4.057   2.112   5.534
 6591SOL    HW120333   4.100   2.196   5.548
 6591SOL    HW220334   3.967   2.126   5.565
 6592SOL     OW20335   4.312   2.590   3.994
 6592SOL    HW120336   4.310   2.667   3.936
 6592SOL    HW220337   4.244   2.608   4.059
 6593SOL     OW20338   3.812   2.683   4.499
 6593SOL    HW120339   3.893   2.675   4.549
 6593SOL    HW220340   3.770   2.762   4.534
 6594SOL     OW20341   3.853   3.706   5.301
 6594SOL    HW120342   3.852   3.686   5.394
 6594SOL    HW220343   3.761   3.701   5.274
 6595SOL     OW20344   4.254   2.053   4.604
 6595SOL    HW120345   4.272   2.059   4.698
 6595SOL    HW220346   4.263   2.143   4.573
 6596SOL     OW20347   4.082   3.673   4.585
 6596SOL    HW120348   4.131   3.591   4.593
 6596SOL    HW220349   4.148   3.741   4.597
 6597SOL     OW20350   4.044   2.820   3.973
 6597SOL    HW120351   4.126   2.838   3.928
 6597SOL    HW220352   4.013   2.737   3.935
 6598SOL     OW20353   4.178   3.115   5.459
 6598SOL    HW120354   4.151   3.126   5.368
 6598SOL    HW220355   4.097   3.124   5.509
 6599SOL     OW20356   3.924   2.146   5.226
 6599SOL    HW120357   3.841   2.193   5.216
 6599SOL    HW220358   3.905   2.079   5.292
 6600SOL     OW20359   4.193   3.597   4.049
 6600SOL    HW120360   4.224   3.657   4.117
 6600SOL    HW220361   4.262   3.598   3.983
 6601SOL     OW20362   3.979   3.655   4.957
 6601SOL    HW120363   4.027   3.586   5.003
 6601SOL    HW220364   3.965   3.620   4.869
 6602SOL     OW20365   4.111   2.556   4.198
 6602SOL    HW120366   4.137   2.465   4.211
 6602SOL    HW220367   4.018   2.558   4.219
 6603SOL     OW20368   4.341   1.973   3.841
 6603SOL    HW120369   4.435   1.957   3.840
 6603SOL    HW220370   4.312   1.950   3.753
 6604SOL     OW20371   0.019   3.286   4.637
 6604SOL    HW120372   0.085   3.323   4.579
 6604SOL    HW220373   4.444   3.268   4.580
 6605SOL     OW20374   4.261   1.926   4.225
 6605SOL    HW120375   4.182   1.931   4.280
 6605SOL    HW220376   4.257   2.005   4.171
 6606SOL     OW20377   4.018   1.910   3.908
 6606SOL    HW120378   4.079   1.974   3.871
 6606SOL    HW220379   4.074   1.845   3.951
 6607SOL     OW20380   0.325   2.537   5.173
 6607SOL    HW120381   0.250   2.478   5.169
 6607SOL    HW220382   0.401   2.479   5.167
 6608SOL     OW20383   4.190   3.007   4.458
 6608SOL    HW120384   4.121   2.988   4.522
 6608SOL    HW220385   4.149   2.989   4.373
 6609SOL     OW20386   3.803   2.417   5.114
 6609SOL    HW120387   3.895   2.416   5.087
 6609SOL    HW220388   3.797   2.487   5.180
 6610SOL     OW20389   4.284   2.074   4.873
 6610SOL    HW120390   4.325   2.005   4.926
 6610SOL    HW220391   4.197   2.085   4.912
 6611SOL     OW20392   4.230   3.248   3.896
 6611SOL    HW120393   4.146   3.234   3.939
 6611SOL    HW220394   4.209   3.265   3.805
 6612SOL     OW20395   4.246   2.128   4.046
 6612SOL    HW120396   4.287   2.073   3.979
 6612SOL    HW220397   4.227   2.210   4.002
 6613SOL     OW20398   4.139   2.674   4.973
 6613SOL    HW120399   4.206   2.685   5.041
 6613SOL    HW220400   4.105   2.586   4.988
 6614SOL     OW20401   3.793   3.435   5.076
 6614SOL    HW120402   3.760   3.506   5.021
 6614SOL    HW220403   3.888   3.442   5.069
 6615SOL     OW20404   4.073   2.970   4.214
 6615SOL    HW120405   4.075   3.043   4.152
 6615SOL    HW220406   4.071   2.892   4.160
 6616SOL     OW20407   4.299   2.400   4.587
 6616SOL    HW120408   4.300   2.467   4.518
 6616SOL    HW220409   4.363   2.432   4.651
 6617SOL     OW20410   4.072   3.395   5.041
 6617SOL    HW120411   4.066   3.351   4.956
 6617SOL    HW220412   4.166   3.396   5.060
 6618SOL     OW20413   4.136   2.606   5.329
 6618SOL    HW120414   4.196   2.649   5.268
 6618SOL    HW220415   4.177   2.521   5.345
 6619SOL     OW20416   4.231   1.914   5.458
 6619SOL    HW120417   4.186   1.854   5.399
 6619SOL    HW220418   4.166   1.981   5.479
 6620SOL     OW20419   4.291   2.750   4.750
 6620SOL    HW120420   4.320   2.840   4.765
 6620SOL    HW220421   4.243   2.728   4.830
 6621SOL     OW20422   4.025   2.063   4.971
 6621SOL    HW120423   3.985   2.095   5.052
 6621SOL    HW220424   4.005   1.969   4.970
 6622SOL     OW20425   3.772   3.173   5.000
 6622SOL    HW120426   3.803   3.118   5.073
 6622SOL    HW220427   3.777   3.262   5.034
 6623SOL     OW20428   4.020   1.929   4.349
 6623SOL    HW120429   4.005   2.020   4.373
 6623SOL    HW220430   4.031   1.883   4.432
 6624SOL     OW20431   4.076   2.777   5.533
 6624SOL    HW120432   4.159   2.792   5.579
 6624SOL    HW220433   4.098   2.714   5.465
 6625SOL     OW20434   4.031   2.671   4.670
 6625SOL    HW120435   4.123   2.698   4.670
 6625SOL    HW220436   4.033   2.581   4.703
 6626SOL     OW20437   4.063   2.388   4.733
 6626SOL    HW120438   4.026   2.301   4.717
 6626SOL    HW220439   4.142   2.390   4.678
 6627SOL     OW20440   3.729   3.184   3.919
 6627SOL    HW120441   3.642   3.197   3.881
 6627SOL    HW220442   3.727   3.094   3.953
 6628SOL     OW20443   3.816   3.650   4.662
 6628SOL    HW120444   3.785   3.570   4.618
 6628SOL    HW220445   3.905   3.662   4.630
 6629SOL     OW20446   4.232   3.445   4.629
 6629SOL    HW120447   4.317   3.477   4.658
 6629SOL    HW220448   4.253   3.373   4.569
 6630SOL     OW20449   3.759   2.405   4.840
 6630SOL    HW120450   3.840   2.388   4.791
 6630SOL    HW220451   3.787   2.410   4.932
 6631SOL     OW20452   3.916   2.381   5.451
 6631SOL    HW120453   3.970   2.342   5.382
 6631SOL    HW220454   3.869   2.452   5.408
 6632SOL     OW20455   0.033   2.419   3.988
 6632SOL    HW120456   0.019   2.346   4.049
 6632SOL    HW220457   4.465   2.482   4.011
 6633SOL     OW20458   3.971   3.415   5.453
 6633SOL    HW120459   3.944   3.479   5.519
 6633SOL    HW220460   3.968   3.331   5.498
 6634SOL     OW20461   4.191   2.355   3.913
 6634SOL    HW120462   4.249   2.428   3.932
 6634SOL    HW220463   4.105   2.395   3.899
 6635SOL     OW20464   3.872   3.002   5.196
 6635SOL    HW120465   3.873   2.949   5.276
 6635SOL    HW220466   3.888   2.939   5.125
 6636SOL     OW20467   3.808   3.131   4.737
 6636SOL    HW120468   3.794   3.141   4.831
 6636SOL    HW220469   3.736   3.075   4.708
 6637SOL     OW20470   4.390   3.514   5.426
 6637SOL    HW120471   4.355   3.599   5.450
 6637SOL    HW220472   4.435   3.529   5.343
 6638SOL     OW20473   3.861   3.658   5.567
 6638SOL    HW120474   3.809   3.594   5.616
 6638SOL    HW220475   3.907   3.708   5.634
 6639SOL     OW20476   3.987   2.182   4.440
 6639SOL    HW120477   3.900   2.215   4.418
 6639SOL    HW220478   3.985   2.171   4.535
 6640SOL     OW20479   4.089   3.168   5.214
 6640SOL    HW120480   4.069   3.244   5.160
 6640SOL    HW220481   4.016   3.108   5.199
 6641SOL     OW20482   4.325   3.352   4.205
 6641SOL    HW120483   4.342   3.293   4.132
 6641SOL    HW220484   4.260   3.413   4.171
 6642SOL     OW20485   3.983   3.212   4.010
 6642SOL    HW120486   3.890   3.208   3.988
 6642SOL    HW220487   3.986   3.247   4.099
 6643SOL     OW20488   3.836   2.885   5.444
 6643SOL    HW120489   3.759   2.860   5.496
 6643SOL    HW220490   3.910   2.846   5.491
 6644SOL     OW20491   4.391   2.068   5.217
 6644SOL    HW120492   4.479   2.063   5.181
 6644SOL    HW220493   4.403   2.057   5.312
 6645SOL     OW20494   3.802   2.196   3.759
 6645SOL    HW120495   3.714   2.177   3.727
 6645SOL    HW220496   3.831   2.271   3.707
 6646SOL     OW20497   3.794   2.019   4.036
 6646SOL    HW120498   3.778   2.099   3.986
 6646SOL    HW220499   3.879   1.987   4.005
 6647SOL     OW20500   4.337   2.701   5.158
 6647SOL    HW120501   4.381   2.785   5.144
 6647SOL    HW220502   4.407   2.638   5.171
 6648SOL     OW20503   4.400   2.418   5.460
 6648SOL    HW120504   4.423   2.495   5.512
 6648SOL    HW220505   4.484   2.382   5.434
 6649SOL     OW20506   4.108   3.601   5.284
 6649SOL    HW120507   4.022   3.641   5.272
 6649SOL    HW220508   4.089   3.519   5.331
 6650SOL     OW20509   4.309   2.594   4.390
 6650SOL    HW120510   4.352   2.679   4.378
 6650SOL    HW220511   4.240   2.592   4.325
 6651SOL     OW20512   3.944   3.169   5.578
 6651SOL    HW120513   3.878   3.104   5.550
 6651SOL    HW220514   3.928   3.179   5.672
 6652SOL     OW20515   3.808   3.096   4.389
 6652SOL    HW120516   3.811   3.048   4.471
 6652SOL    HW220517   3.877   3.057   4.335
 6653SOL     OW20518   4.415   3.249   5.380
 6653SOL    HW120519   4.325   3.215   5.378
 6653SOL    HW220520   4.405   3.342   5.396
 6654SOL     OW20521   4.163   2.295   4.256
 6654SOL    HW120522   4.180   2.226   4.192
 6654SOL    HW220523   4.106   2.253   4.321
 6655SOL     OW20524   4.053   2.415   5.013
 6655SOL    HW120525   4.107   2.359   5.068
 6655SOL    HW220526   4.074   2.388   4.924
 6656SOL     OW20527   0.037   3.459   4.409
 6656SOL    HW120528   0.058   3.519   4.338
 6656SOL    HW220529   4.465   3.406   4.375
 6657SOL     OW20530   3.768   2.934   4.029
 6657SOL    HW120531   3.862   2.924   4.012
 6657SOL    HW220532   3.739   2.846   4.052
 6658SOL     OW20533   3.955   2.485   5.708
 6658SOL    HW120534   3.865   2.485   5.742
 6658SOL    HW220535   3.946   2.459   5.617
 6659SOL     OW20536   3.947   2.146   6.577
 6659SOL    HW120537   3.979   2.110   6.660
 6659SOL    HW220538   3.858   2.112   6.568
 6660SOL     OW20539   3.728   2.244   6.224
 6660SOL    HW120540   3.645   2.270   6.265
 6660SOL    HW220541   3.707   2.164   6.175
 6661SOL     OW20542   4.268   3.110   6.731
 6661SOL    HW120543   4.195   3.168   6.709
 6661SOL    HW220544   4.331   3.166   6.776
 6662SOL     OW20545   0.021   2.643   7.443
 6662SOL    HW120546   0.072   2.688   7.510
 6662SOL    HW220547   0.065   2.665   7.361
 6663SOL     OW20548   4.399   2.856   6.224
 6663SOL    HW120549   4.471   2.848   6.287
 6663SOL    HW220550   4.336   2.914   6.268
 6664SOL     OW20551   4.419   3.023   7.399
 6664SOL    HW120552   4.460   3.104   7.370
 6664SOL    HW220553   4.327   3.032   7.374
 6665SOL     OW20554   4.060   3.295   6.655
 6665SOL    HW120555   3.987   3.252   6.609
 6665SOL    HW220556   4.106   3.343   6.587
 6666SOL     OW20557   4.171   2.261   7.072
 6666SOL    HW120558   4.245   2.201   7.076
 6666SOL    HW220559   4.094   2.206   7.085
 6667SOL     OW20560   3.942   3.576   6.060
 6667SOL    HW120561   3.964   3.652   6.113
 6667SOL    HW220562   4.015   3.568   5.999
 6668SOL     OW20563   3.954   3.302   6.120
 6668SOL    HW120564   3.936   3.396   6.126
 6668SOL    HW220565   3.894   3.262   6.183
 6669SOL     OW20566   3.975   2.951   6.473
 6669SOL    HW120567   3.979   2.866   6.517
 6669SOL    HW220568   3.922   3.006   6.530
 6670SOL     OW20569   4.361   3.659   7.039
 6670SOL    HW120570   4.274   3.626   7.063
 6670SOL    HW220571   4.351   3.755   7.040
 6671SOL     OW20572   4.310   2.847   5.723
 6671SOL    HW120573   4.340   2.900   5.649
 6671SOL    HW220574   4.378   2.859   5.790
 6672SOL     OW20575   3.840   2.513   6.146
 6672SOL    HW120576   3.808   2.425   6.166
 6672SOL    HW220577   3.831   2.562   6.228
 6673SOL     OW20578   3.756   3.458   5.710
 6673SOL    HW120579   3.737   3.366   5.729
 6673SOL    HW220580   3.731   3.504   5.790
 6674SOL     OW20581   3.845   2.604   7.173
 6674SOL    HW120582   3.938   2.627   7.184
 6674SOL    HW220583   3.798   2.687   7.179
 6675SOL     OW20584   4.312   3.249   6.323
 6675SOL    HW120585   4.276   3.160   6.327
 6675SOL    HW220586   4.312   3.270   6.230
 6676SOL     OW20587   0.022   1.869   6.112
 6676SOL    HW120588   0.053   1.932   6.047
 6676SOL    HW220589   4.427   1.883   6.115
 6677SOL     OW20590   3.913   2.828   6.857
 6677SOL    HW120591   3.998   2.788   6.839
 6677SOL    HW220592   3.850   2.774   6.809
 6678SOL     OW20593   4.056   2.112   7.395
 6678SOL    HW120594   4.101   2.195   7.410
 6678SOL    HW220595   3.967   2.126   7.427
 6679SOL     OW20596   4.312   2.590   5.856
 6679SOL    HW120597   4.310   2.667   5.798
 6679SOL    HW220598   4.243   2.608   5.921
 6680SOL     OW20599   3.813   2.682   6.362
 6680SOL    HW120600   3.894   2.675   6.412
 6680SOL    HW220601   3.771   2.761   6.395
 6681SOL     OW20602   3.853   3.705   7.163
 6681SOL    HW120603   3.852   3.686   7.256
 6681SOL    HW220604   3.761   3.702   7.136
 6682SOL     OW20605   4.253   2.053   6.467
 6682SOL    HW120606   4.272   2.059   6.560
 6682SOL    HW220607   4.263   2.143   6.434
 6683SOL     OW20608   4.082   3.673   6.447
 6683SOL    HW120609   4.131   3.591   6.455
 6683SOL    HW220610   4.148   3.741   6.459
 6684SOL     OW20611   4.044   2.819   5.836
 6684SOL    HW120612   4.126   2.838   5.790
 6684SOL    HW220613   4.013   2.737   5.797
 6685SOL     OW20614   4.178   3.115   7.321
 6685SOL    HW120615   4.151   3.126   7.230
 6685SOL    HW220616   4.097   3.125   7.371
 6686SOL     OW20617   3.924   2.145   7.087
 6686SOL    HW120618   3.842   2.194   7.080
 6686SOL    HW220619   3.906   2.078   7.154
 6687SOL     OW20620   4.193   3.597   5.911
 6687SOL    HW120621   4.224   3.657   5.979
 6687SOL    HW220622   4.262   3.597   5.845
 6688SOL     OW20623   3.979   3.655   6.819
 6688SOL    HW120624   4.027   3.586   6.865
 6688SOL    HW220625   3.966   3.620   6.731
 6689SOL     OW20626   4.111   2.556   6.060
 6689SOL    HW120627   4.137   2.465   6.073
 6689SOL    HW220628   4.018   2.558   6.081
 6690SOL     OW20629   4.340   1.972   5.703
 6690SOL    HW120630   4.435   1.957   5.702
 6690SOL    HW220631   4.311   1.949   5.615
 6691SOL     OW20632   0.019   3.285   6.499
 6691SOL    HW120633   0.085   3.323   6.442
 6691SOL    HW220634   4.444   3.268   6.442
 6692SOL     OW20635   4.261   1.926   6.087
 6692SOL    HW120636   4.182   1.931   6.141
 6692SOL    HW220637   4.257   2.005   6.033
 6693SOL     OW20638   4.017   1.910   5.770
 6693SOL    HW120639   4.078   1.974   5.732
 6693SOL    HW220640   4.074   1.846   5.813
 6694SOL     OW20641   0.324   2.538   7.034
 6694SOL    HW120642   0.251   2.475   7.029
 6694SOL    HW220643   0.402   2.484   7.030
 6695SOL     OW20644   4.190   3.007   6.320
 6695SOL    HW120645   4.120   2.988   6.384
 6695SOL    HW220646   4.150   2.990   6.235
 6696SOL     OW20647   3.802   2.416   6.978
 6696SOL    HW120648   3.894   2.415   6.950
 6696SOL    HW220649   3.798   2.487   7.043
 6697SOL     OW20650   4.284   2.074   6.735
 6697SOL    HW120651   4.325   2.006   6.788
 6697SOL    HW220652   4.197   2.085   6.774
 6698SOL     OW20653   4.230   3.249   5.758
 6698SOL    HW120654   4.146   3.234   5.801
 6698SOL    HW220655   4.208   3.264   5.666
 6699SOL     OW20656   4.246   2.128   5.908
 6699SOL    HW120657   4.286   2.073   5.840
 6699SOL    HW220658   4.227   2.210   5.864
 6700SOL     OW20659   4.139   2.674   6.836
 6700SOL    HW120660   4.206   2.685   6.903
 6700SOL    HW220661   4.105   2.586   6.850
 6701SOL     OW20662   3.793   3.435   6.938
 6701SOL    HW120663   3.760   3.506   6.883
 6701SOL    HW220664   3.888   3.442   6.932
 6702SOL     OW20665   4.073   2.970   6.076
 6702SOL    HW120666   4.074   3.043   6.014
 6702SOL    HW220667   4.071   2.891   6.022
 6703SOL     OW20668   4.299   2.401   6.450
 6703SOL    HW120669   4.300   2.467   6.381
 6703SOL    HW220670   4.363   2.431   6.513
 6704SOL     OW20671   4.072   3.394   6.903
 6704SOL    HW120672   4.066   3.351   6.818
 6704SOL    HW220673   4.166   3.396   6.922
 6705SOL     OW20674   4.136   2.605   7.190
 6705SOL    HW120675   4.195   2.649   7.130
 6705SOL    HW220676   4.178   2.521   7.207
 6706SOL     OW20677   4.231   1.914   7.320
 6706SOL    HW120678   4.186   1.854   7.261
 6706SOL    HW220679   4.166   1.981   7.340
 6707SOL     OW20680   4.291   2.751   6.612
 6707SOL    HW120681   4.321   2.840   6.627
 6707SOL    HW220682   4.243   2.728   6.692
 6708SOL     OW20683   4.025   2.063   6.833
 6708SOL    HW120684   3.986   2.095   6.914
 6708SOL    HW220685   4.005   1.969   6.832
 6709SOL     OW20686   3.769   3.172   6.863
 6709SOL    HW120687   3.803   3.118   6.935
 6709SOL    HW220688   3.776   3.262   6.896
 6710SOL     OW20689   4.020   1.928   6.211
 6710SOL    HW120690   4.005   2.020   6.235
 6710SOL    HW220691   4.031   1.883   6.295
 6711SOL     OW20692   4.076   2.777   7.394
 6711SOL    HW120693   4.158   2.793   7.441
 6711SOL    HW220694   4.099   2.714   7.326
 6712SOL     OW20695   4.031   2.671   6.533
 6712SOL    HW120696   4.123   2.698   6.532
 6712SOL    HW220697   4.033   2.581   6.564
 6713SOL     OW20698   4.063   2.388   6.595
 6713SOL    HW120699   4.026   2.301   6.579
 6713SOL    HW220700   4.142   2.391   6.541
 6714SOL     OW20701   3.729   3.184   5.781
 6714SOL    HW120702   3.642   3.197   5.743
 6714SOL    HW220703   3.727   3.094   5.815
 6715SOL     OW20704   3.816   3.650   6.524
 6715SOL    HW120705   3.785   3.571   6.480
 6715SOL    HW220706   3.905   3.662   6.492
 6716SOL     OW20707   4.232   3.444   6.491
 6716SOL    HW120708   4.317   3.477   6.520
 6716SOL    HW220709   4.253   3.373   6.431
 6717SOL     OW20710   3.759   2.406   6.702
 6717SOL    HW120711   3.839   2.389   6.652
 6717SOL    HW220712   3.789   2.410   6.793
 6718SOL     OW20713   3.915   2.380   7.313
 6718SOL    HW120714   3.972   2.343   7.245
 6718SOL    HW220715   3.870   2.453   7.269
 6719SOL     OW20716   0.033   2.419   5.850
 6719SOL    HW120717   0.019   2.346   5.912
 6719SOL    HW220718   4.465   2.482   5.872
 6720SOL     OW20719   3.971   3.415   7.315
 6720SOL    HW120720   3.944   3.479   7.381
 6720SOL    HW220721   3.967   3.331   7.360
 6721SOL     OW20722   4.191   2.355   5.775
 6721SOL    HW120723   4.248   2.429   5.794
 6721SOL    HW220724   4.105   2.395   5.761
 6722SOL     OW20725   3.871   3.002   7.058
 6722SOL    HW120726   3.873   2.949   7.138
 6722SOL    HW220727   3.887   2.939   6.987
 6723SOL     OW20728   3.808   3.131   6.599
 6723SOL    HW120729   3.793   3.140   6.693
 6723SOL    HW220730   3.737   3.074   6.569
 6724SOL     OW20731   4.389   3.514   7.288
 6724SOL    HW120732   4.355   3.600   7.313
 6724SOL    HW220733   4.436   3.529   7.206
 6725SOL     OW20734   3.860   3.658   7.429
 6725SOL    HW120735   3.809   3.594   7.478
 6725SOL    HW220736   3.907   3.708   7.496
 6726SOL     OW20737   3.987   2.182   6.302
 6726SOL    HW120738   3.900   2.215   6.280
 6726SOL    HW220739   3.985   2.171   6.397
 6727SOL     OW20740   4.089   3.168   7.077
 6727SOL    HW120741   4.070   3.244   7.022
 6727SOL    HW220742   4.016   3.108   7.060
 6728SOL     OW20743   4.325   3.352   6.067
 6728SOL    HW120744   4.342   3.293   5.994
 6728SOL    HW220745   4.260   3.413   6.033
 6729SOL     OW20746   3.984   3.212   5.872
 6729SOL    HW120747   3.891   3.208   5.850
 6729SOL    HW220748   3.985   3.247   5.961
 6730SOL     OW20749   3.836   2.883   7.306
 6730SOL    HW120750   3.760   2.860   7.358
 6730SOL    HW220751   3.910   2.846   7.353
 6731SOL     OW20752   4.391   2.068   7.079
 6731SOL    HW120753   4.479   2.064   7.042
 6731SOL    HW220754   4.404   2.057   7.174
 6732SOL     OW20755   3.802   2.196   5.621
 6732SOL    HW120756   3.714   2.177   5.588
 6732SOL    HW220757   3.831   2.271   5.569
 6733SOL     OW20758   3.794   2.019   5.898
 6733SOL    HW120759   3.777   2.099   5.848
 6733SOL    HW220760   3.878   1.987   5.867
 6734SOL     OW20761   4.337   2.701   7.021
 6734SOL    HW120762   4.381   2.785   7.006
 6734SOL    HW220763   4.407   2.638   7.032
 6735SOL     OW20764   4.400   2.418   7.323
 6735SOL    HW120765   4.423   2.496   7.375
 6735SOL    HW220766   4.484   2.382   7.295
 6736SOL     OW20767   4.108   3.601   7.146
 6736SOL    HW120768   4.022   3.641   7.134
 6736SOL    HW220769   4.090   3.519   7.192
 6737SOL     OW20770   4.309   2.594   6.253
 6737SOL    HW120771   4.352   2.679   6.240
 6737SOL    HW220772   4.240   2.592   6.187
 6738SOL     OW20773   3.944   3.169   7.441
 6738SOL    HW120774   3.878   3.105   7.413
 6738SOL    HW220775   3.929   3.179   7.535
 6739SOL     OW20776   3.808   3.097   6.251
 6739SOL    HW120777   3.810   3.048   6.333
 6739SOL    HW220778   3.876   3.057   6.197
 6740SOL     OW20779   4.415   3.249   7.242
 6740SOL    HW120780   4.325   3.215   7.240
 6740SOL    HW220781   4.405   3.342   7.258
 6741SOL     OW20782   4.164   2.295   6.119
 6741SOL    HW120783   4.180   2.227   6.053
 6741SOL    HW220784   4.106   2.253   6.183
 6742SOL     OW20785   4.052   2.415   6.875
 6742SOL    HW120786   4.106   2.359   6.930
 6742SOL    HW220787   4.073   2.388   6.785
 6743SOL     OW20788   0.037   3.459   6.271
 6743SOL    HW120789   0.058   3.519   6.200
 6743SOL    HW220790   4.465   3.406   6.237
 6744SOL     OW20791   3.768   2.934   5.892
 6744SOL    HW120792   3.862   2.924   5.874
 6744SOL    HW220793   3.738   2.846   5.915
 6745SOL     OW20794   3.955   2.485   7.570
 6745SOL    HW120795   3.865   2.485   7.604
 6745SOL    HW220796   3.946   2.459   7.478
 6746SOL     OW20797   3.947   2.146   8.439
 6746SOL    HW120798   3.979   2.110   8.522
 6746SOL    HW220799   3.858   2.111   8.431
 6747SOL     OW20800   3.728   2.244   8.086
 6747SOL    HW120801   3.645   2.269   8.127
 6747SOL    HW220802   3.708   2.164   8.038
 6748SOL     OW20803   4.268   3.110   8.593
 6748SOL    HW120804   4.195   3.168   8.571
 6748SOL    HW220805   4.331   3.166   8.638
 6749SOL     OW20806   0.021   2.643   9.305
 6749SOL    HW120807   0.071   2.688   9.372
 6749SOL    HW220808   0.065   2.666   9.223
 6750SOL     OW20809   4.398   2.856   8.087
 6750SOL    HW120810   4.471   2.849   8.148
 6750SOL    HW220811   4.336   2.914   8.130
 6751SOL     OW20812   4.419   3.023   9.261
 6751SOL    HW120813   4.460   3.104   9.232
 6751SOL    HW220814   4.327   3.032   9.236
 6752SOL     OW20815   4.060   3.295   8.517
 6752SOL    HW120816   3.987   3.253   8.471
 6752SOL    HW220817   4.107   3.343   8.449
 6753SOL     OW20818   4.171   2.261   8.934
 6753SOL    HW120819   4.245   2.201   8.938
 6753SOL    HW220820   4.094   2.206   8.947
 6754SOL     OW20821   3.943   3.576   7.922
 6754SOL    HW120822   3.964   3.652   7.975
 6754SOL    HW220823   4.016   3.568   7.861
 6755SOL     OW20824   3.953   3.302   7.982
 6755SOL    HW120825   3.936   3.396   7.988
 6755SOL    HW220826   3.893   3.263   8.045
 6756SOL     OW20827   3.974   2.950   8.334
 6756SOL    HW120828   3.979   2.866   8.379
 6756SOL    HW220829   3.922   3.006   8.392
 6757SOL     OW20830   4.360   3.659   8.900
 6757SOL    HW120831   4.274   3.626   8.925
 6757SOL    HW220832   4.351   3.755   8.902
 6758SOL     OW20833   4.310   2.848   7.586
 6758SOL    HW120834   4.339   2.900   7.511
 6758SOL    HW220835   4.378   2.859   7.652
 6759SOL     OW20836   3.839   2.513   8.008
 6759SOL    HW120837   3.808   2.425   8.029
 6759SOL    HW220838   3.831   2.562   8.089
 6760SOL     OW20839   3.755   3.458   7.572
 6760SOL    HW120840   3.737   3.366   7.592
 6760SOL    HW220841   3.731   3.505   7.652
 6761SOL     OW20842   3.845   2.604   9.035
 6761SOL    HW120843   3.938   2.627   9.046
 6761SOL    HW220844   3.798   2.687   9.041
 6762SOL     OW20845   4.312   3.249   8.185
 6762SOL    HW120846   4.276   3.160   8.189
 6762SOL    HW220847   4.312   3.270   8.092
 6763SOL     OW20848   0.022   1.869   7.974
 6763SOL    HW120849   0.053   1.932   7.909
 6763SOL    HW220850   4.427   1.883   7.977
 6764SOL     OW20851   3.913   2.828   8.719
 6764SOL    HW120852   3.998   2.789   8.701
 6764SOL    HW220853   3.850   2.773   8.672
 6765SOL     OW20854   4.056   2.112   9.257
 6765SOL    HW120855   4.101   2.195   9.273
 6765SOL    HW220856   3.967   2.126   9.289
 6766SOL     OW20857   4.312   2.590   7.718
 6766SOL    HW120858   4.311   2.666   7.660
 6766SOL    HW220859   4.244   2.608   7.782
 6767SOL     OW20860   3.812   2.683   8.223
 6767SOL    HW120861   3.893   2.675   8.273
 6767SOL    HW220862   3.771   2.762   8.258
 6768SOL     OW20863   3.853   3.705   9.025
 6768SOL    HW120864   3.852   3.685   9.118
 6768SOL    HW220865   3.761   3.702   8.998
 6769SOL     OW20866   4.252   2.053   8.328
 6769SOL    HW120867   4.272   2.059   8.422
 6769SOL    HW220868   4.263   2.143   8.296
 6770SOL     OW20869   4.082   3.673   8.309
 6770SOL    HW120870   4.131   3.591   8.317
 6770SOL    HW220871   4.148   3.741   8.321
 6771SOL     OW20872   4.044   2.820   7.697
 6771SOL    HW120873   4.126   2.838   7.653
 6771SOL    HW220874   4.014   2.737   7.659
 6772SOL     OW20875   4.178   3.115   9.183
 6772SOL    HW120876   4.151   3.126   9.092
 6772SOL    HW220877   4.097   3.125   9.233
 6773SOL     OW20878   3.924   2.145   8.949
 6773SOL    HW120879   3.842   2.194   8.942
 6773SOL    HW220880   3.906   2.079   9.016
 6774SOL     OW20881   4.193   3.597   7.773
 6774SOL    HW120882   4.224   3.657   7.841
 6774SOL    HW220883   4.262   3.597   7.707
 6775SOL     OW20884   3.979   3.655   8.681
 6775SOL    HW120885   4.027   3.586   8.727
 6775SOL    HW220886   3.966   3.620   8.593
 6776SOL     OW20887   4.111   2.556   7.922
 6776SOL    HW120888   4.137   2.465   7.935
 6776SOL    HW220889   4.017   2.558   7.943
 6777SOL     OW20890   4.340   1.972   7.565
 6777SOL    HW120891   4.435   1.957   7.565
 6777SOL    HW220892   4.312   1.949   7.477
 6778SOL     OW20893   0.019   3.285   8.361
 6778SOL    HW120894   0.085   3.323   8.304
 6778SOL    HW220895   4.444   3.268   8.304
 6779SOL     OW20896   4.261   1.926   7.949
 6779SOL    HW120897   4.182   1.931   8.004
 6779SOL    HW220898   4.257   2.005   7.895
 6780SOL     OW20899   4.017   1.910   7.632
 6780SOL    HW120900   4.078   1.973   7.595
 6780SOL    HW220901   4.074   1.845   7.675
 6781SOL     OW20902   0.324   2.538   8.895
 6781SOL    HW120903   0.251   2.475   8.891
 6781SOL    HW220904   0.403   2.484   8.892
 6782SOL     OW20905   4.189   3.007   8.182
 6782SOL    HW120906   4.120   2.988   8.246
 6782SOL    HW220907   4.149   2.990   8.097
 6783SOL     OW20908   3.802   2.417   8.840
 6783SOL    HW120909   3.894   2.415   8.812
 6783SOL    HW220910   3.798   2.487   8.905
 6784SOL     OW20911   4.284   2.074   8.597
 6784SOL    HW120912   4.326   2.006   8.650
 6784SOL    HW220913   4.197   2.084   8.636
 6785SOL     OW20914   4.230   3.248   7.620
 6785SOL    HW120915   4.146   3.234   7.663
 6785SOL    HW220916   4.209   3.265   7.529
 6786SOL     OW20917   4.246   2.128   7.770
 6786SOL    HW120918   4.287   2.073   7.703
 6786SOL    HW220919   4.227   2.210   7.726
 6787SOL     OW20920   4.139   2.674   8.698
 6787SOL    HW120921   4.206   2.685   8.765
 6787SOL    HW220922   4.105   2.586   8.712
 6788SOL     OW20923   3.793   3.435   8.800
 6788SOL    HW120924   3.760   3.507   8.745
 6788SOL    HW220925   3.888   3.441   8.794
 6789SOL     OW20926   4.072   2.970   7.938
 6789SOL    HW120927   4.075   3.043   7.876
 6789SOL    HW220928   4.071   2.892   7.884
 6790SOL     OW20929   4.299   2.401   8.312
 6790SOL    HW120930   4.300   2.467   8.243
 6790SOL    HW220931   4.363   2.431   8.375
 6791SOL     OW20932   4.072   3.394   8.765
 6791SOL    HW120933   4.066   3.351   8.680
 6791SOL    HW220934   4.166   3.396   8.784
 6792SOL     OW20935   4.136   2.605   9.052
 6792SOL    HW120936   4.195   2.649   8.992
 6792SOL    HW220937   4.178   2.521   9.070
 6793SOL     OW20938   4.231   1.914   9.182
 6793SOL    HW120939   4.186   1.853   9.123
 6793SOL    HW220940   4.166   1.981   9.202
 6794SOL     OW20941   4.291   2.751   8.474
 6794SOL    HW120942   4.322   2.840   8.489
 6794SOL    HW220943   4.243   2.728   8.554
 6795SOL     OW20944   4.024   2.063   8.695
 6795SOL    HW120945   3.986   2.095   8.776
 6795SOL    HW220946   4.005   1.969   8.694
 6796SOL     OW20947   3.770   3.172   8.725
 6796SOL    HW120948   3.803   3.118   8.797
 6796SOL    HW220949   3.777   3.262   8.758
 6797SOL     OW20950   4.020   1.928   8.073
 6797SOL    HW120951   4.005   2.020   8.098
 6797SOL    HW220952   4.032   1.883   8.157
 6798SOL     OW20953   4.076   2.777   9.256
 6798SOL    HW120954   4.158   2.793   9.303
 6798SOL    HW220955   4.099   2.714   9.188
 6799SOL     OW20956   4.031   2.671   8.394
 6799SOL    HW120957   4.123   2.698   8.394
 6799SOL    HW220958   4.033   2.581   8.426
 6800SOL     OW20959   4.063   2.388   8.457
 6800SOL    HW120960   4.026   2.301   8.441
 6800SOL    HW220961   4.142   2.391   8.403
 6801SOL     OW20962   3.729   3.184   7.643
 6801SOL    HW120963   3.642   3.197   7.606
 6801SOL    HW220964   3.727   3.094   7.677
 6802SOL     OW20965   3.816   3.650   8.386
 6802SOL    HW120966   3.785   3.571   8.342
 6802SOL    HW220967   3.905   3.663   8.354
 6803SOL     OW20968   4.232   3.444   8.353
 6803SOL    HW120969   4.317   3.477   8.382
 6803SOL    HW220970   4.253   3.373   8.293
 6804SOL     OW20971   3.759   2.406   8.564
 6804SOL    HW120972   3.839   2.389   8.514
 6804SOL    HW220973   3.788   2.410   8.655
 6805SOL     OW20974   3.914   2.380   9.175
 6805SOL    HW120975   3.972   2.344   9.108
 6805SOL    HW220976   3.870   2.453   9.131
 6806SOL     OW20977   0.033   2.418   7.712
 6806SOL    HW120978   0.020   2.346   7.774
 6806SOL    HW220979   4.465   2.482   7.734
 6807SOL     OW20980   3.971   3.415   9.177
 6807SOL    HW120981   3.944   3.479   9.243
 6807SOL    HW220982   3.967   3.331   9.222
 6808SOL     OW20983   4.190   2.355   7.637
 6808SOL    HW120984   4.249   2.428   7.656
 6808SOL    HW220985   4.105   2.395   7.623
 6809SOL     OW20986   3.871   3.002   8.920
 6809SOL    HW120987   3.873   2.949   9.000
 6809SOL    HW220988   3.887   2.939   8.849
 6810SOL     OW20989   3.808   3.131   8.461
 6810SOL    HW120990   3.793   3.140   8.555
 6810SOL    HW220991   3.737   3.074   8.431
 6811SOL     OW20992   4.389   3.513   9.150
 6811SOL    HW120993   4.356   3.600   9.175
 6811SOL    HW220994   4.437   3.529   9.068
 6812SOL     OW20995   3.860   3.658   9.291
 6812SOL    HW120996   3.809   3.594   9.340
 6812SOL    HW220997   3.907   3.708   9.358
 6813SOL     OW20998   3.987   2.182   8.164
 6813SOL    HW120999   3.900   2.216   8.142
 6813SOL    HW221000   3.985   2.171   8.259
 6814SOL     OW21001   4.089   3.168   8.939
 6814SOL    HW121002   4.070   3.244   8.884
 6814SOL    HW221003   4.016   3.108   8.922
 6815SOL     OW21004   4.325   3.352   7.929
 6815SOL    HW121005   4.343   3.293   7.856
 6815SOL    HW221006   4.260   3.413   7.895
 6816SOL     OW21007   3.983   3.212   7.734
 6816SOL    HW121008   3.890   3.208   7.712
 6816SOL    HW221009   3.986   3.247   7.823
 6817SOL     OW21010   3.836   2.883   9.167
 6817SOL    HW121011   3.759   2.860   9.220
 6817SOL    HW221012   3.910   2.846   9.215
 6818SOL     OW21013   4.391   2.068   8.942
 6818SOL    HW121014   4.479   2.064   8.904
 6818SOL    HW221015   4.404   2.057   9.036
 6819SOL     OW21016   3.802   2.197   7.483
 6819SOL    HW121017   3.714   2.177   7.450
 6819SOL    HW221018   3.831   2.271   7.431
 6820SOL     OW21019   3.793   2.019   7.760
 6820SOL    HW121020   3.778   2.099   7.709
 6820SOL    HW221021   3.878   1.987   7.729
 6821SOL     OW21022   4.337   2.701   8.883
 6821SOL    HW121023   4.382   2.785   8.868
 6821SOL    HW221024   4.407   2.638   8.895
 6822SOL     OW21025   4.400   2.418   9.185
 6822SOL    HW121026   4.423   2.496   9.236
 6822SOL    HW221027   4.484   2.382   9.157
 6823SOL     OW21028   4.108   3.601   9.008
 6823SOL    HW121029   4.022   3.641   8.996
 6823SOL    HW221030   4.090   3.519   9.054
 6824SOL     OW21031   4.309   2.594   8.114
 6824SOL    HW121032   4.352   2.678   8.102
 6824SOL    HW221033   4.240   2.592   8.048
 6825SOL     OW21034   3.944   3.169   9.303
 6825SOL    HW121035   3.878   3.105   9.275
 6825SOL    HW221036   3.929   3.179   9.397
 6826SOL     OW21037   3.808   3.096   8.113
 6826SOL    HW121038   3.812   3.047   8.195
 6826SOL    HW221039   3.877   3.057   8.059
 6827SOL     OW21040   4.415   3.249   9.104
 6827SOL    HW121041   4.325   3.215   9.102
 6827SOL    HW221042   4.405   3.342   9.120
 6828SOL     OW21043   4.163   2.295   7.980
 6828SOL    HW121044   4.180   2.227   7.915
 6828SOL    HW221045   4.106   2.253   8.045
 6829SOL     OW21046   4.052   2.415   8.737
 6829SOL    HW121047   4.106   2.359   8.792
 6829SOL    HW221048   4.074   2.388   8.647
 6830SOL     OW21049   0.037   3.459   8.133
 6830SOL    HW121050   0.058   3.519   8.062
 6830SOL    HW221051   4.465   3.406   8.099
 6831SOL     OW21052   3.768   2.934   7.753
 6831SOL    HW121053   3.861   2.924   7.736
 6831SOL    HW221054   3.739   2.846   7.776
 6832SOL     OW21055   3.955   2.485   9.432
 6832SOL    HW121056   3.865   2.485   9.466
 6832SOL    HW221057   3.946   2.459   9.340
 6833SOL     OW21058   3.947   2.146  10.301
 6833SOL    HW121059   3.979   2.111  10.384
 6833SOL    HW221060   3.858   2.111  10.293
 6834SOL     OW21061   3.728   2.244   9.948
 6834SOL    HW121062   3.645   2.269   9.989
 6834SOL    HW221063   3.708   2.164   9.900
 6835SOL     OW21064   4.268   3.110  10.455
 6835SOL    HW121065   4.196   3.168  10.433
 6835SOL    HW221066   4.331   3.166  10.500
 6836SOL     OW21067   0.024   2.673   0.078
 6836SOL    HW121068   0.100   2.711   0.122
 6836SOL    HW221069   0.054   2.655  11.089
 6837SOL     OW21070   4.398   2.856   9.949
 6837SOL    HW121071   4.471   2.848  10.011
 6837SOL    HW221072   4.336   2.914   9.992
 6838SOL     OW21073   4.060   3.294  10.379
 6838SOL    HW121074   3.987   3.253  10.333
 6838SOL    HW221075   4.107   3.343  10.310
 6839SOL     OW21076   4.177   2.263  10.798
 6839SOL    HW121077   4.245   2.195  10.798
 6839SOL    HW221078   4.096   2.216  10.817
 6840SOL     OW21079   3.943   3.576   9.784
 6840SOL    HW121080   3.964   3.652   9.837
 6840SOL    HW221081   4.016   3.568   9.723
 6841SOL     OW21082   3.953   3.302   9.844
 6841SOL    HW121083   3.936   3.396   9.850
 6841SOL    HW221084   3.893   3.263   9.907
 6842SOL     OW21085   3.974   2.950  10.196
 6842SOL    HW121086   3.978   2.866  10.241
 6842SOL    HW221087   3.922   3.006  10.254
 6843SOL     OW21088   4.356   3.661  10.756
 6843SOL    HW121089   4.269   3.631  10.782
 6843SOL    HW221090   4.353   3.757  10.766
 6844SOL     OW21091   4.310   2.848   9.448
 6844SOL    HW121092   4.339   2.900   9.373
 6844SOL    HW221093   4.378   2.859   9.514
 6845SOL     OW21094   3.839   2.513   9.870
 6845SOL    HW121095   3.808   2.425   9.891
 6845SOL    HW221096   3.831   2.562   9.951
 6846SOL     OW21097   3.755   3.458   9.434
 6846SOL    HW121098   3.737   3.366   9.454
 6846SOL    HW221099   3.731   3.505   9.514
 6847SOL     OW21100   3.848   2.589  10.914
 6847SOL    HW121101   3.941   2.611  10.908
 6847SOL    HW221102   3.803   2.673  10.907
 6848SOL     OW21103   4.312   3.249  10.047
 6848SOL    HW121104   4.276   3.160  10.051
 6848SOL    HW221105   4.312   3.270   9.954
 6849SOL     OW21106   0.022   1.869   9.836
 6849SOL    HW121107   0.053   1.932   9.771
 6849SOL    HW221108   4.427   1.883   9.839
 6850SOL     OW21109   3.913   2.827  10.578
 6850SOL    HW121110   3.998   2.787  10.560
 6850SOL    HW221111   3.850   2.771  10.534
 6851SOL     OW21112   4.065   2.119   0.015
 6851SOL    HW121113   4.115   2.194   0.046
 6851SOL    HW221114   3.974   2.142   0.034
 6852SOL     OW21115   4.312   2.590   9.580
 6852SOL    HW121116   4.311   2.667   9.522
 6852SOL    HW221117   4.244   2.608   9.644
 6853SOL     OW21118   3.812   2.683  10.085
 6853SOL    HW121119   3.893   2.675  10.135
 6853SOL    HW221120   3.771   2.762  10.120
 6854SOL     OW21121   3.855   3.702  10.895
 6854SOL    HW121122   3.836   3.669  10.983
 6854SOL    HW221123   3.770   3.705  10.852
 6855SOL     OW21124   4.253   2.054  10.191
 6855SOL    HW121125   4.272   2.060  10.284
 6855SOL    HW221126   4.263   2.143  10.158
 6856SOL     OW21127   4.082   3.673  10.171
 6856SOL    HW121128   4.131   3.591  10.179
 6856SOL    HW221129   4.147   3.741  10.183
 6857SOL     OW21130   4.044   2.820   9.559
 6857SOL    HW121131   4.126   2.838   9.515
 6857SOL    HW221132   4.014   2.737   9.521
 6858SOL     OW21133   4.179   3.124  11.054
 6858SOL    HW121134   4.153   3.136  10.962
 6858SOL    HW221135   4.107   3.075  11.093
 6859SOL     OW21136   3.927   2.144  10.807
 6859SOL    HW121137   3.845   2.193  10.802
 6859SOL    HW221138   3.912   2.079  10.875
 6860SOL     OW21139   4.193   3.597   9.635
 6860SOL    HW121140   4.224   3.657   9.703
 6860SOL    HW221141   4.262   3.597   9.569
 6861SOL     OW21142   3.979   3.655  10.543
 6861SOL    HW121143   4.027   3.586  10.590
 6861SOL    HW221144   3.966   3.619  10.455
 6862SOL     OW21145   4.111   2.556   9.784
 6862SOL    HW121146   4.137   2.465   9.797
 6862SOL    HW221147   4.017   2.558   9.805
 6863SOL     OW21148   4.340   1.973   9.427
 6863SOL    HW121149   4.435   1.957   9.427
 6863SOL    HW221150   4.312   1.949   9.339
 6864SOL     OW21151   0.019   3.286  10.223
 6864SOL    HW121152   0.085   3.324  10.166
 6864SOL    HW221153   4.444   3.268  10.166
 6865SOL     OW21154   4.261   1.926   9.811
 6865SOL    HW121155   4.182   1.931   9.866
 6865SOL    HW221156   4.257   2.005   9.757
 6866SOL     OW21157   4.018   1.910   9.494
 6866SOL    HW121158   4.078   1.974   9.457
 6866SOL    HW221159   4.074   1.845   9.537
 6867SOL     OW21160   0.311   2.540  10.761
 6867SOL    HW121161   0.248   2.468  10.771
 6867SOL    HW221162   0.396   2.496  10.755
 6868SOL     OW21163   4.189   3.007  10.044
 6868SOL    HW121164   4.120   2.988  10.108
 6868SOL    HW221165   4.149   2.989   9.959
 6869SOL     OW21166   3.801   2.416  10.703
 6869SOL    HW121167   3.893   2.415  10.676
 6869SOL    HW221168   3.798   2.478  10.776
 6870SOL     OW21169   4.284   2.074  10.460
 6870SOL    HW121170   4.324   2.003  10.509
 6870SOL    HW221171   4.197   2.084  10.498
 6871SOL     OW21172   4.230   3.248   9.482
 6871SOL    HW121173   4.146   3.234   9.525
 6871SOL    HW221174   4.209   3.265   9.391
 6872SOL     OW21175   4.246   2.128   9.632
 6872SOL    HW121176   4.287   2.073   9.565
 6872SOL    HW221177   4.227   2.210   9.588
 6873SOL     OW21178   4.140   2.674  10.559
 6873SOL    HW121179   4.207   2.684  10.627
 6873SOL    HW221180   4.105   2.586  10.573
 6874SOL     OW21181   3.793   3.437  10.660
 6874SOL    HW121182   3.762   3.508  10.604
 6874SOL    HW221183   3.888   3.442  10.653
 6875SOL     OW21184   4.072   2.970   9.800
 6875SOL    HW121185   4.075   3.043   9.738
 6875SOL    HW221186   4.071   2.892   9.746
 6876SOL     OW21187   4.298   2.401  10.174
 6876SOL    HW121188   4.300   2.467  10.105
 6876SOL    HW221189   4.364   2.430  10.237
 6877SOL     OW21190   4.072   3.393  10.627
 6877SOL    HW121191   4.066   3.349  10.542
 6877SOL    HW221192   4.166   3.396  10.647
 6878SOL     OW21193   4.134   2.598  10.904
 6878SOL    HW121194   4.197   2.643  10.848
 6878SOL    HW221195   4.164   2.507  10.905
 6879SOL     OW21196   4.291   2.751  10.336
 6879SOL    HW121197   4.321   2.840  10.351
 6879SOL    HW221198   4.242   2.729  10.416
 6880SOL     OW21199   4.025   2.063  10.556
 6880SOL    HW121200   3.989   2.096  10.638
 6880SOL    HW221201   4.005   1.969  10.556
 6881SOL     OW21202   3.773   3.174  10.586
 6881SOL    HW121203   3.801   3.118  10.659
 6881SOL    HW221204   3.775   3.263  10.621
 6882SOL     OW21205   4.020   1.928   9.935
 6882SOL    HW121206   4.005   2.020   9.960
 6882SOL    HW221207   4.032   1.883  10.019
 6883SOL     OW21208   4.081   2.780  11.094
 6883SOL    HW121209   4.164   2.796   0.038
 6883SOL    HW221210   4.100   2.713  11.029
 6884SOL     OW21211   4.031   2.670  10.256
 6884SOL    HW121212   4.123   2.698  10.255
 6884SOL    HW221213   4.033   2.580  10.288
 6885SOL     OW21214   4.063   2.388  10.319
 6885SOL    HW121215   4.026   2.301  10.303
 6885SOL    HW221216   4.142   2.391  10.265
 6886SOL     OW21217   3.729   3.184   9.505
 6886SOL    HW121218   3.642   3.197   9.468
 6886SOL    HW221219   3.727   3.094   9.539
 6887SOL     OW21220   3.815   3.650  10.248
 6887SOL    HW121221   3.785   3.571  10.204
 6887SOL    HW221222   3.905   3.663  10.216
 6888SOL     OW21223   4.232   3.445  10.215
 6888SOL    HW121224   4.317   3.477  10.244
 6888SOL    HW221225   4.253   3.373  10.155
 6889SOL     OW21226   3.759   2.406  10.426
 6889SOL    HW121227   3.840   2.389  10.377
 6889SOL    HW221228   3.788   2.411  10.518
 6890SOL     OW21229   0.033   2.418   9.574
 6890SOL    HW121230   0.020   2.347   9.636
 6890SOL    HW221231   4.465   2.482   9.596
 6891SOL     OW21232   3.979   3.428  11.054
 6891SOL    HW121233   3.922   3.463   0.022
 6891SOL    HW221234   3.980   3.334  11.069
 6892SOL     OW21235   4.190   2.355   9.499
 6892SOL    HW121236   4.249   2.428   9.518
 6892SOL    HW221237   4.105   2.395   9.485
 6893SOL     OW21238   3.877   3.000  10.780
 6893SOL    HW121239   3.870   2.945  10.858
 6893SOL    HW221240   3.890   2.938  10.708
 6894SOL     OW21241   3.808   3.131  10.322
 6894SOL    HW121242   3.795   3.141  10.417
 6894SOL    HW221243   3.737   3.074  10.294
 6895SOL     OW21244   4.395   3.529  11.005
 6895SOL    HW121245   4.316   3.581  10.990
 6895SOL    HW221246   4.430   3.514  10.917
 6896SOL     OW21247   3.987   2.182  10.026
 6896SOL    HW121248   3.900   2.216  10.004
 6896SOL    HW221249   3.985   2.171  10.121
 6897SOL     OW21250   4.085   3.171  10.809
 6897SOL    HW121251   4.072   3.243  10.749
 6897SOL    HW221252   4.015   3.109  10.788
 6898SOL     OW21253   4.325   3.352   9.791
 6898SOL    HW121254   4.343   3.293   9.718
 6898SOL    HW221255   4.260   3.414   9.757
 6899SOL     OW21256   3.983   3.212   9.596
 6899SOL    HW121257   3.890   3.208   9.574
 6899SOL    HW221258   3.986   3.247   9.685
 6900SOL     OW21259   3.837   2.874  11.019
 6900SOL    HW121260   3.767   2.859  11.083
 6900SOL    HW221261   3.917   2.844  11.063
 6901SOL     OW21262   4.396   2.066  10.808
 6901SOL    HW121263   4.475   2.070  10.755
 6901SOL    HW221264   4.427   2.075  10.898
 6902SOL     OW21265   3.802   2.196   9.345
 6902SOL    HW121266   3.714   2.177   9.313
 6902SOL    HW221267   3.831   2.271   9.293
 6903SOL     OW21268   3.793   2.019   9.622
 6903SOL    HW121269   3.778   2.099   9.571
 6903SOL    HW221270   3.878   1.987   9.591
 6904SOL     OW21271   4.337   2.700  10.745
 6904SOL    HW121272   4.379   2.785  10.729
 6904SOL    HW221273   4.410   2.639  10.749
 6905SOL     OW21274   4.115   3.596  10.871
 6905SOL    HW121275   4.035   3.648  10.863
 6905SOL    HW221276   4.089   3.521  10.925
 6906SOL     OW21277   4.309   2.594   9.976
 6906SOL    HW121278   4.352   2.678   9.964
 6906SOL    HW221279   4.240   2.592   9.911
 6907SOL     OW21280   3.808   3.096   9.975
 6907SOL    HW121281   3.811   3.048  10.057
 6907SOL    HW221282   3.877   3.057   9.921
 6908SOL     OW21283   4.406   3.254  10.942
 6908SOL    HW121284   4.331   3.205  10.974
 6908SOL    HW221285   4.399   3.340  10.983
 6909SOL     OW21286   4.163   2.295   9.842
 6909SOL    HW121287   4.180   2.227   9.777
 6909SOL    HW221288   4.106   2.253   9.907
 6910SOL     OW21289   4.053   2.415  10.599
 6910SOL    HW121290   4.107   2.357  10.654
 6910SOL    HW221291   4.073   2.388  10.510
 6911SOL     OW21292   0.037   3.459   9.995
 6911SOL    HW121293   0.058   3.520   9.924
 6911SOL    HW221294   4.465   3.406   9.961
 6912SOL     OW21295   3.768   2.934   9.615
 6912SOL    HW121296   3.861   2.924   9.598
 6912SOL    HW221297   3.739   2.846   9.638
 6913SOL     OW21298   3.926   4.296   0.088
 6913SOL    HW121299   3.898   4.352   0.161
 6913SOL    HW221300   3.940   4.356   0.015
 6914SOL     OW21301   3.947   4.005   0.990
 6914SOL    HW121302   3.978   3.970   1.074
 6914SOL    HW221303   3.857   3.972   0.982
 6915SOL     OW21304   3.729   4.102   0.643
 6915SOL    HW121305   3.645   4.129   0.681
 6915SOL    HW221306   3.707   4.025   0.591
 6916SOL     OW21307   0.060   0.012   1.859
 6916SOL    HW121308   0.113   0.079   1.903
 6916SOL    HW221309   0.075   0.028   1.765
 6917SOL     OW21310   4.172   4.118   1.481
 6917SOL    HW121311   4.247   4.059   1.491
 6917SOL    HW221312   4.096   4.063   1.500
 6918SOL     OW21313   3.813   4.366   0.558
 6918SOL    HW121314   3.796   4.277   0.589
 6918SOL    HW221315   3.866   4.406   0.627
 6919SOL     OW21316   3.842   4.474   1.584
 6919SOL    HW121317   3.911   4.491   1.648
 6919SOL    HW221318   3.809   0.061   1.561
 6920SOL     OW21319   0.022   3.734   0.531
 6920SOL    HW121320   0.054   3.792   0.462
 6920SOL    HW221321   4.427   3.746   0.530
 6921SOL     OW21322   4.056   3.976   1.806
 6921SOL    HW121323   4.100   4.058   1.828
 6921SOL    HW221324   3.967   3.986   1.839
 6922SOL     OW21325   4.252   3.914   0.881
 6922SOL    HW121326   4.271   3.920   0.975
 6922SOL    HW221327   4.262   4.003   0.849
 6923SOL     OW21328   3.923   4.007   1.504
 6923SOL    HW121329   3.838   4.050   1.494
 6923SOL    HW221330   3.907   3.939   1.570
 6924SOL     OW21331   4.093   4.388   0.412
 6924SOL    HW121332   4.129   4.313   0.459
 6924SOL    HW221333   4.021   4.418   0.467
 6925SOL     OW21334   4.342   3.843   0.117
 6925SOL    HW121335   4.434   3.816   0.122
 6925SOL    HW221336   4.315   3.817   0.029
 6926SOL     OW21337   4.261   3.789   0.501
 6926SOL    HW121338   4.181   3.792   0.554
 6926SOL    HW221339   4.256   3.867   0.446
 6927SOL     OW21340   4.010   3.771   0.199
 6927SOL    HW121341   4.053   3.826   0.133
 6927SOL    HW221342   4.076   3.708   0.225
 6928SOL     OW21343   0.359   4.395   1.522
 6928SOL    HW121344   0.294   4.370   1.457
 6928SOL    HW221345   0.429   4.330   1.513
 6929SOL     OW21346   3.799   4.279   1.392
 6929SOL    HW121347   3.890   4.272   1.364
 6929SOL    HW221348   3.800   4.353   1.453
 6930SOL     OW21349   4.284   3.936   1.149
 6930SOL    HW121350   4.326   3.869   1.202
 6930SOL    HW221351   4.197   3.947   1.188
 6931SOL     OW21352   4.248   3.993   0.324
 6931SOL    HW121353   4.281   3.934   0.256
 6931SOL    HW221354   4.230   4.075   0.278
 6932SOL     OW21355   4.154   0.010   1.269
 6932SOL    HW121356   4.218   0.008   1.340
 6932SOL    HW221357   4.112   4.424   1.272
 6933SOL     OW21358   4.303   4.263   0.871
 6933SOL    HW121359   4.313   4.332   0.805
 6933SOL    HW221360   4.370   4.283   0.936
 6934SOL     OW21361   4.231   3.776   1.734
 6934SOL    HW121362   4.186   3.716   1.675
 6934SOL    HW221363   4.166   3.843   1.754
 6935SOL     OW21364   4.024   3.924   1.247
 6935SOL    HW121365   3.986   3.957   1.329
 6935SOL    HW221366   4.004   3.831   1.246
 6936SOL     OW21367   4.021   3.791   0.625
 6936SOL    HW121368   4.005   3.882   0.650
 6936SOL    HW221369   4.032   3.745   0.709
 6937SOL     OW21370   4.040   0.013   0.922
 6937SOL    HW121371   4.118   0.070   0.928
 6937SOL    HW221372   4.059   4.440   0.981
 6938SOL     OW21373   4.068   4.242   1.017
 6938SOL    HW121374   4.029   4.157   0.996
 6938SOL    HW221375   4.145   4.247   0.960
 6939SOL     OW21376   3.760   4.271   1.115
 6939SOL    HW121377   3.840   4.252   1.066
 6939SOL    HW221378   3.787   4.273   1.206
 6940SOL     OW21379   3.916   4.245   1.719
 6940SOL    HW121380   3.971   4.197   1.657
 6940SOL    HW221381   3.861   4.301   1.664
 6941SOL     OW21382   4.500   4.293   0.280
 6941SOL    HW121383   0.030   4.212   0.322
 6941SOL    HW221384   4.484   4.353   0.353
 6942SOL     OW21385   4.196   4.216   0.176
 6942SOL    HW121386   4.248   4.286   0.215
 6942SOL    HW221387   4.106   4.248   0.178
 6943SOL     OW21388   3.987   4.045   0.717
 6943SOL    HW121389   3.898   4.074   0.695
 6943SOL    HW221390   3.984   4.031   0.812
 6944SOL     OW21391   4.391   3.928   1.494
 6944SOL    HW121392   4.480   3.929   1.458
 6944SOL    HW221393   4.404   3.922   1.589
 6945SOL     OW21394   3.802   4.050   0.055
 6945SOL    HW121395   3.735   4.046  11.087
 6945SOL    HW221396   3.832   4.141   0.054
 6946SOL     OW21397   3.792   3.883   0.314
 6946SOL    HW121398   3.777   3.958   0.257
 6946SOL    HW221399   3.874   3.845   0.285
 6947SOL     OW21400   4.407   4.272   1.744
 6947SOL    HW121401   4.426   4.355   1.787
 6947SOL    HW221402   4.492   4.238   1.717
 6948SOL     OW21403   4.172   4.153   0.541
 6948SOL    HW121404   4.187   4.086   0.475
 6948SOL    HW221405   4.110   4.114   0.603
 6949SOL     OW21406   4.047   4.264   1.291
 6949SOL    HW121407   4.102   4.208   1.345
 6949SOL    HW221408   4.069   4.238   1.201
 6950SOL     OW21409   3.951   4.294   1.987
 6950SOL    HW121410   3.888   4.357   2.022
 6950SOL    HW221411   3.938   4.297   1.892
 6951SOL     OW21412   3.947   4.005   2.852
 6951SOL    HW121413   3.978   3.970   2.936
 6951SOL    HW221414   3.857   3.972   2.844
 6952SOL     OW21415   3.729   4.101   2.506
 6952SOL    HW121416   3.646   4.130   2.544
 6952SOL    HW221417   3.706   4.024   2.454
 6953SOL     OW21418   0.060   0.012   3.721
 6953SOL    HW121419   0.113   0.079   3.765
 6953SOL    HW221420   0.075   0.028   3.627
 6954SOL     OW21421   4.172   4.118   3.344
 6954SOL    HW121422   4.247   4.059   3.353
 6954SOL    HW221423   4.096   4.063   3.362
 6955SOL     OW21424   3.804   4.370   2.427
 6955SOL    HW121425   3.797   4.279   2.453
 6955SOL    HW221426   3.867   4.408   2.487
 6956SOL     OW21427   3.842   4.474   3.446
 6956SOL    HW121428   3.911   4.491   3.510
 6956SOL    HW221429   3.809   0.061   3.423
 6957SOL     OW21430   0.022   3.730   2.388
 6957SOL    HW121431   0.054   3.794   2.324
 6957SOL    HW221432   4.427   3.744   2.390
 6958SOL     OW21433   4.056   3.976   3.668
 6958SOL    HW121434   4.100   4.058   3.690
 6958SOL    HW221435   3.967   3.986   3.701
 6959SOL     OW21436   4.252   3.913   2.743
 6959SOL    HW121437   4.271   3.920   2.836
 6959SOL    HW221438   4.263   4.002   2.710
 6960SOL     OW21439   3.923   4.007   3.366
 6960SOL    HW121440   3.838   4.050   3.356
 6960SOL    HW221441   3.907   3.939   3.432
 6961SOL     OW21442   4.092   4.392   2.278
 6961SOL    HW121443   4.129   4.315   2.322
 6961SOL    HW221444   4.020   4.420   2.335
 6962SOL     OW21445   4.339   3.831   1.981
 6962SOL    HW121446   4.434   3.822   1.978
 6962SOL    HW221447   4.311   3.810   1.892
 6963SOL     OW21448   4.261   3.789   2.364
 6963SOL    HW121449   4.182   3.793   2.418
 6963SOL    HW221450   4.256   3.866   2.308
 6964SOL     OW21451   4.018   3.771   2.046
 6964SOL    HW121452   4.078   3.836   2.011
 6964SOL    HW221453   4.074   3.707   2.089
 6965SOL     OW21454   0.359   4.395   3.384
 6965SOL    HW121455   0.293   4.370   3.319
 6965SOL    HW221456   0.429   4.331   3.375
 6966SOL     OW21457   3.799   4.279   3.255
 6966SOL    HW121458   3.890   4.272   3.226
 6966SOL    HW221459   3.800   4.353   3.316
 6967SOL     OW21460   4.284   3.935   3.011
 6967SOL    HW121461   4.326   3.869   3.065
 6967SOL    HW221462   4.197   3.947   3.050
 6968SOL     OW21463   4.245   3.988   2.185
 6968SOL    HW121464   4.285   3.933   2.117
 6968SOL    HW221465   4.230   4.072   2.141
 6969SOL     OW21466   4.154   0.010   3.131
 6969SOL    HW121467   4.218   0.008   3.202
 6969SOL    HW221468   4.112   4.424   3.134
 6970SOL     OW21469   4.303   4.264   2.733
 6970SOL    HW121470   4.312   4.332   2.666
 6970SOL    HW221471   4.370   4.284   2.798
 6971SOL     OW21472   4.231   3.776   3.596
 6971SOL    HW121473   4.186   3.716   3.537
 6971SOL    HW221474   4.166   3.843   3.616
 6972SOL     OW21475   4.024   3.924   3.109
 6972SOL    HW121476   3.986   3.957   3.190
 6972SOL    HW221477   4.004   3.831   3.108
 6973SOL     OW21478   4.020   3.790   2.487
 6973SOL    HW121479   4.004   3.881   2.512
 6973SOL    HW221480   4.032   3.745   2.571
 6974SOL     OW21481   4.040   0.014   2.786
 6974SOL    HW121482   4.117   0.070   2.791
 6974SOL    HW221483   4.061   4.440   2.844
 6975SOL     OW21484   4.068   4.242   2.879
 6975SOL    HW121485   4.029   4.157   2.858
 6975SOL    HW221486   4.145   4.247   2.822
 6976SOL     OW21487   3.760   4.270   2.977
 6976SOL    HW121488   3.840   4.253   2.928
 6976SOL    HW221489   3.788   4.273   3.068
 6977SOL     OW21490   3.916   4.245   3.581
 6977SOL    HW121491   3.971   4.197   3.519
 6977SOL    HW221492   3.862   4.301   3.526
 6978SOL     OW21493   0.003   4.295   2.137
 6978SOL    HW121494   0.029   4.210   2.173
 6978SOL    HW221495   4.474   4.346   2.213
 6979SOL     OW21496   4.202   4.214   2.051
 6979SOL    HW121497   4.253   4.294   2.066
 6979SOL    HW221498   4.112   4.244   2.042
 6980SOL     OW21499   3.986   4.044   2.579
 6980SOL    HW121500   3.898   4.074   2.557
 6980SOL    HW221501   3.985   4.031   2.674
 6981SOL     OW21502   4.391   3.928   3.356
 6981SOL    HW121503   4.480   3.930   3.320
 6981SOL    HW221504   4.404   3.923   3.451
 6982SOL     OW21505   3.799   4.046   1.892
 6982SOL    HW121506   3.711   4.037   1.855
 6982SOL    HW221507   3.831   4.130   1.860
 6983SOL     OW21508   3.794   3.881   2.174
 6983SOL    HW121509   3.778   3.961   2.124
 6983SOL    HW221510   3.879   3.849   2.143
 6984SOL     OW21511   4.407   4.271   3.606
 6984SOL    HW121512   4.426   4.355   3.649
 6984SOL    HW221513   4.492   4.238   3.579
 6985SOL     OW21514   4.174   4.152   2.405
 6985SOL    HW121515   4.185   4.088   2.335
 6985SOL    HW221516   4.111   4.113   2.465
 6986SOL     OW21517   4.047   4.264   3.153
 6986SOL    HW121518   4.102   4.208   3.207
 6986SOL    HW221519   4.068   4.239   3.063
 6987SOL     OW21520   3.951   4.293   3.849
 6987SOL    HW121521   3.888   4.357   3.884
 6987SOL    HW221522   3.938   4.297   3.754
 6988SOL     OW21523   3.947   4.005   4.714
 6988SOL    HW121524   3.978   3.970   4.798
 6988SOL    HW221525   3.857   3.972   4.706
 6989SOL     OW21526   3.729   4.101   4.368
 6989SOL    HW121527   3.646   4.130   4.406
 6989SOL    HW221528   3.706   4.024   4.316
 6990SOL     OW21529   0.060   0.012   5.583
 6990SOL    HW121530   0.113   0.079   5.627
 6990SOL    HW221531   0.074   0.028   5.489
 6991SOL     OW21532   4.172   4.118   5.206
 6991SOL    HW121533   4.247   4.059   5.214
 6991SOL    HW221534   4.096   4.063   5.224
 6992SOL     OW21535   3.804   4.370   4.288
 6992SOL    HW121536   3.797   4.278   4.315
 6992SOL    HW221537   3.867   4.408   4.349
 6993SOL     OW21538   3.842   4.474   5.308
 6993SOL    HW121539   3.911   4.491   5.372
 6993SOL    HW221540   3.809   0.061   5.285
 6994SOL     OW21541   0.022   3.730   4.250
 6994SOL    HW121542   0.054   3.794   4.185
 6994SOL    HW221543   4.427   3.744   4.252
 6995SOL     OW21544   4.057   3.975   5.530
 6995SOL    HW121545   4.099   4.058   5.552
 6995SOL    HW221546   3.967   3.986   5.563
 6996SOL     OW21547   4.252   3.913   4.605
 6996SOL    HW121548   4.271   3.920   4.698
 6996SOL    HW221549   4.263   4.002   4.572
 6997SOL     OW21550   3.923   4.007   5.228
 6997SOL    HW121551   3.838   4.050   5.217
 6997SOL    HW221552   3.907   3.939   5.293
 6998SOL     OW21553   4.092   4.392   4.140
 6998SOL    HW121554   4.129   4.315   4.184
 6998SOL    HW221555   4.020   4.420   4.196
 6999SOL     OW21556   4.339   3.831   3.843
 6999SOL    HW121557   4.434   3.823   3.840
 6999SOL    HW221558   4.311   3.810   3.754
 7000SOL     OW21559   4.261   3.789   4.226
 7000SOL    HW121560   4.182   3.793   4.280
 7000SOL    HW221561   4.256   3.866   4.170
 7001SOL     OW21562   4.018   3.771   3.908
 7001SOL    HW121563   4.078   3.836   3.873
 7001SOL    HW221564   4.074   3.707   3.951
 7002SOL     OW21565   0.359   4.395   5.246
 7002SOL    HW121566   0.293   4.370   5.181
 7002SOL    HW221567   0.429   4.330   5.236
 7003SOL     OW21568   3.799   4.279   5.116
 7003SOL    HW121569   3.890   4.272   5.088
 7003SOL    HW221570   3.800   4.353   5.178
 7004SOL     OW21571   4.284   3.935   4.873
 7004SOL    HW121572   4.326   3.868   4.927
 7004SOL    HW221573   4.197   3.947   4.912
 7005SOL     OW21574   4.245   3.988   4.047
 7005SOL    HW121575   4.285   3.933   3.979
 7005SOL    HW221576   4.230   4.072   4.003
 7006SOL     OW21577   4.154   0.010   4.993
 7006SOL    HW121578   4.218   0.008   5.064
 7006SOL    HW221579   4.112   4.424   4.996
 7007SOL     OW21580   4.303   4.263   4.595
 7007SOL    HW121581   4.311   4.332   4.528
 7007SOL    HW221582   4.370   4.285   4.660
 7008SOL     OW21583   4.231   3.776   5.458
 7008SOL    HW121584   4.186   3.716   5.399
 7008SOL    HW221585   4.166   3.843   5.478
 7009SOL     OW21586   4.024   3.925   4.971
 7009SOL    HW121587   3.986   3.957   5.052
 7009SOL    HW221588   4.005   3.831   4.970
 7010SOL     OW21589   4.020   3.790   4.349
 7010SOL    HW121590   4.004   3.881   4.373
 7010SOL    HW221591   4.032   3.745   4.433
 7011SOL     OW21592   4.040   0.014   4.648
 7011SOL    HW121593   4.117   0.070   4.653
 7011SOL    HW221594   4.061   4.440   4.706
 7012SOL     OW21595   4.069   4.242   4.741
 7012SOL    HW121596   4.029   4.157   4.720
 7012SOL    HW221597   4.145   4.247   4.684
 7013SOL     OW21598   3.760   4.270   4.839
 7013SOL    HW121599   3.840   4.253   4.790
 7013SOL    HW221600   3.787   4.273   4.930
 7014SOL     OW21601   3.916   4.245   5.443
 7014SOL    HW121602   3.971   4.197   5.381
 7014SOL    HW221603   3.861   4.301   5.388
 7015SOL     OW21604   0.003   4.295   3.999
 7015SOL    HW121605   0.028   4.210   4.035
 7015SOL    HW221606   4.474   4.346   4.075
 7016SOL     OW21607   4.202   4.214   3.913
 7016SOL    HW121608   4.253   4.294   3.928
 7016SOL    HW221609   4.112   4.244   3.904
 7017SOL     OW21610   3.986   4.044   4.441
 7017SOL    HW121611   3.898   4.074   4.419
 7017SOL    HW221612   3.984   4.031   4.536
 7018SOL     OW21613   4.391   3.928   5.218
 7018SOL    HW121614   4.480   3.930   5.182
 7018SOL    HW221615   4.404   3.922   5.313
 7019SOL     OW21616   3.799   4.046   3.754
 7019SOL    HW121617   3.711   4.038   3.717
 7019SOL    HW221618   3.831   4.130   3.722
 7020SOL     OW21619   3.794   3.881   4.036
 7020SOL    HW121620   3.778   3.961   3.986
 7020SOL    HW221621   3.879   3.849   4.005
 7021SOL     OW21622   4.407   4.271   5.468
 7021SOL    HW121623   4.426   4.355   5.511
 7021SOL    HW221624   4.492   4.238   5.441
 7022SOL     OW21625   4.175   4.152   4.267
 7022SOL    HW121626   4.184   4.088   4.197
 7022SOL    HW221627   4.111   4.113   4.327
 7023SOL     OW21628   4.047   4.264   5.015
 7023SOL    HW121629   4.102   4.208   5.069
 7023SOL    HW221630   4.068   4.239   4.925
 7024SOL     OW21631   3.951   4.294   5.711
 7024SOL    HW121632   3.888   4.357   5.745
 7024SOL    HW221633   3.939   4.297   5.616
 7025SOL     OW21634   3.947   4.005   6.576
 7025SOL    HW121635   3.978   3.970   6.660
 7025SOL    HW221636   3.857   3.972   6.568
 7026SOL     OW21637   3.729   4.101   6.230
 7026SOL    HW121638   3.646   4.130   6.268
 7026SOL    HW221639   3.706   4.024   6.178
 7027SOL     OW21640   0.060   0.013   7.445
 7027SOL    HW121641   0.113   0.079   7.489
 7027SOL    HW221642   0.075   0.028   7.351
 7028SOL     OW21643   4.172   4.118   7.068
 7028SOL    HW121644   4.247   4.059   7.077
 7028SOL    HW221645   4.096   4.063   7.086
 7029SOL     OW21646   3.804   4.370   6.150
 7029SOL    HW121647   3.797   4.278   6.177
 7029SOL    HW221648   3.867   4.408   6.211
 7030SOL     OW21649   3.842   4.474   7.170
 7030SOL    HW121650   3.911   4.491   7.233
 7030SOL    HW221651   3.809   0.061   7.146
 7031SOL     OW21652   0.022   3.731   6.112
 7031SOL    HW121653   0.054   3.794   6.047
 7031SOL    HW221654   4.427   3.744   6.114
 7032SOL     OW21655   4.056   3.975   7.392
 7032SOL    HW121656   4.100   4.058   7.414
 7032SOL    HW221657   3.967   3.986   7.425
 7033SOL     OW21658   4.252   3.913   6.467
 7033SOL    HW121659   4.271   3.920   6.561
 7033SOL    HW221660   4.263   4.002   6.434
 7034SOL     OW21661   3.923   4.007   7.090
 7034SOL    HW121662   3.838   4.050   7.079
 7034SOL    HW221663   3.907   3.939   7.156
 7035SOL     OW21664   4.092   4.392   6.002
 7035SOL    HW121665   4.129   4.315   6.046
 7035SOL    HW221666   4.020   4.420   6.058
 7036SOL     OW21667   4.339   3.831   5.705
 7036SOL    HW121668   4.434   3.822   5.702
 7036SOL    HW221669   4.310   3.810   5.616
 7037SOL     OW21670   4.261   3.789   6.088
 7037SOL    HW121671   4.182   3.793   6.142
 7037SOL    HW221672   4.256   3.866   6.032
 7038SOL     OW21673   4.018   3.771   5.770
 7038SOL    HW121674   4.078   3.836   5.734
 7038SOL    HW221675   4.074   3.707   5.813
 7039SOL     OW21676   0.359   4.395   7.108
 7039SOL    HW121677   0.293   4.370   7.043
 7039SOL    HW221678   0.429   4.331   7.099
 7040SOL     OW21679   3.799   4.279   6.979
 7040SOL    HW121680   3.890   4.272   6.950
 7040SOL    HW221681   3.800   4.353   7.040
 7041SOL     OW21682   4.284   3.936   6.735
 7041SOL    HW121683   4.326   3.868   6.789
 7041SOL    HW221684   4.197   3.947   6.774
 7042SOL     OW21685   4.245   3.988   5.909
 7042SOL    HW121686   4.285   3.933   5.841
 7042SOL    HW221687   4.230   4.072   5.865
 7043SOL     OW21688   4.154   0.010   6.855
 7043SOL    HW121689   4.219   0.008   6.926
 7043SOL    HW221690   4.112   4.424   6.858
 7044SOL     OW21691   4.303   4.264   6.457
 7044SOL    HW121692   4.311   4.332   6.390
 7044SOL    HW221693   4.370   4.285   6.522
 7045SOL     OW21694   4.231   3.776   7.320
 7045SOL    HW121695   4.186   3.716   7.261
 7045SOL    HW221696   4.166   3.843   7.340
 7046SOL     OW21697   4.024   3.924   6.833
 7046SOL    HW121698   3.986   3.957   6.914
 7046SOL    HW221699   4.004   3.831   6.832
 7047SOL     OW21700   4.020   3.790   6.211
 7047SOL    HW121701   4.004   3.881   6.236
 7047SOL    HW221702   4.032   3.745   6.295
 7048SOL     OW21703   4.040   0.014   6.510
 7048SOL    HW121704   4.117   0.070   6.515
 7048SOL    HW221705   4.061   4.440   6.568
 7049SOL     OW21706   4.069   4.242   6.603
 7049SOL    HW121707   4.029   4.157   6.582
 7049SOL    HW221708   4.145   4.247   6.546
 7050SOL     OW21709   3.759   4.270   6.701
 7050SOL    HW121710   3.840   4.253   6.652
 7050SOL    HW221711   3.788   4.273   6.792
 7051SOL     OW21712   3.916   4.245   7.305
 7051SOL    HW121713   3.971   4.197   7.243
 7051SOL    HW221714   3.861   4.301   7.250
 7052SOL     OW21715   0.003   4.295   5.861
 7052SOL    HW121716   0.028   4.210   5.897
 7052SOL    HW221717   4.474   4.346   5.937
 7053SOL     OW21718   4.202   4.214   5.775
 7053SOL    HW121719   4.253   4.294   5.790
 7053SOL    HW221720   4.112   4.244   5.766
 7054SOL     OW21721   3.986   4.044   6.303
 7054SOL    HW121722   3.898   4.074   6.281
 7054SOL    HW221723   3.984   4.031   6.398
 7055SOL     OW21724   4.391   3.928   7.080
 7055SOL    HW121725   4.480   3.930   7.044
 7055SOL    HW221726   4.404   3.922   7.175
 7056SOL     OW21727   3.799   4.046   5.616
 7056SOL    HW121728   3.711   4.037   5.579
 7056SOL    HW221729   3.830   4.130   5.583
 7057SOL     OW21730   3.794   3.881   5.898
 7057SOL    HW121731   3.778   3.961   5.847
 7057SOL    HW221732   3.879   3.849   5.867
 7058SOL     OW21733   4.407   4.271   7.330
 7058SOL    HW121734   4.426   4.355   7.373
 7058SOL    HW221735   4.492   4.238   7.303
 7059SOL     OW21736   4.175   4.152   6.129
 7059SOL    HW121737   4.185   4.088   6.059
 7059SOL    HW221738   4.111   4.113   6.189
 7060SOL     OW21739   4.047   4.264   6.877
 7060SOL    HW121740   4.102   4.208   6.931
 7060SOL    HW221741   4.068   4.239   6.787
 7061SOL     OW21742   3.951   4.294   7.573
 7061SOL    HW121743   3.888   4.357   7.607
 7061SOL    HW221744   3.939   4.297   7.478
 7062SOL     OW21745   3.947   4.005   8.438
 7062SOL    HW121746   3.978   3.970   8.522
 7062SOL    HW221747   3.857   3.972   8.430
 7063SOL     OW21748   3.729   4.101   8.092
 7063SOL    HW121749   3.646   4.130   8.130
 7063SOL    HW221750   3.706   4.024   8.040
 7064SOL     OW21751   0.060   0.013   9.307
 7064SOL    HW121752   0.113   0.079   9.351
 7064SOL    HW221753   0.075   0.028   9.213
 7065SOL     OW21754   4.172   4.118   8.930
 7065SOL    HW121755   4.247   4.059   8.939
 7065SOL    HW221756   4.096   4.062   8.948
 7066SOL     OW21757   3.804   4.370   8.013
 7066SOL    HW121758   3.797   4.279   8.039
 7066SOL    HW221759   3.867   4.408   8.073
 7067SOL     OW21760   3.842   4.474   9.032
 7067SOL    HW121761   3.911   4.491   9.095
 7067SOL    HW221762   3.809   0.061   9.009
 7068SOL     OW21763   0.022   3.730   7.974
 7068SOL    HW121764   0.054   3.794   7.910
 7068SOL    HW221765   4.427   3.744   7.976
 7069SOL     OW21766   4.056   3.976   9.254
 7069SOL    HW121767   4.100   4.058   9.276
 7069SOL    HW221768   3.967   3.986   9.287
 7070SOL     OW21769   4.252   3.913   8.329
 7070SOL    HW121770   4.271   3.920   8.422
 7070SOL    HW221771   4.263   4.002   8.296
 7071SOL     OW21772   3.923   4.007   8.952
 7071SOL    HW121773   3.838   4.050   8.942
 7071SOL    HW221774   3.907   3.939   9.018
 7072SOL     OW21775   4.092   4.392   7.864
 7072SOL    HW121776   4.129   4.315   7.908
 7072SOL    HW221777   4.020   4.420   7.921
 7073SOL     OW21778   4.339   3.831   7.567
 7073SOL    HW121779   4.434   3.823   7.564
 7073SOL    HW221780   4.311   3.810   7.478
 7074SOL     OW21781   4.261   3.789   7.950
 7074SOL    HW121782   4.182   3.793   8.004
 7074SOL    HW221783   4.256   3.866   7.894
 7075SOL     OW21784   4.018   3.771   7.632
 7075SOL    HW121785   4.078   3.836   7.596
 7075SOL    HW221786   4.074   3.707   7.675
 7076SOL     OW21787   0.359   4.395   8.970
 7076SOL    HW121788   0.294   4.370   8.905
 7076SOL    HW221789   0.429   4.331   8.961
 7077SOL     OW21790   3.799   4.279   8.841
 7077SOL    HW121791   3.890   4.272   8.812
 7077SOL    HW221792   3.800   4.353   8.902
 7078SOL     OW21793   4.284   3.935   8.597
 7078SOL    HW121794   4.326   3.869   8.651
 7078SOL    HW221795   4.197   3.947   8.636
 7079SOL     OW21796   4.245   3.988   7.771
 7079SOL    HW121797   4.285   3.933   7.703
 7079SOL    HW221798   4.230   4.072   7.727
 7080SOL     OW21799   4.154   0.010   8.717
 7080SOL    HW121800   4.219   0.008   8.788
 7080SOL    HW221801   4.112   4.424   8.720
 7081SOL     OW21802   4.303   4.264   8.319
 7081SOL    HW121803   4.312   4.332   8.252
 7081SOL    HW221804   4.370   4.284   8.384
 7082SOL     OW21805   4.231   3.776   9.182
 7082SOL    HW121806   4.186   3.716   9.123
 7082SOL    HW221807   4.166   3.843   9.202
 7083SOL     OW21808   4.024   3.924   8.695
 7083SOL    HW121809   3.986   3.957   8.776
 7083SOL    HW221810   4.004   3.831   8.694
 7084SOL     OW21811   4.020   3.790   8.073
 7084SOL    HW121812   4.004   3.881   8.098
 7084SOL    HW221813   4.032   3.745   8.157
 7085SOL     OW21814   4.040   0.014   8.372
 7085SOL    HW121815   4.117   0.070   8.377
 7085SOL    HW221816   4.061   4.440   8.430
 7086SOL     OW21817   4.068   4.242   8.465
 7086SOL    HW121818   4.029   4.157   8.444
 7086SOL    HW221819   4.145   4.247   8.408
 7087SOL     OW21820   3.760   4.270   8.563
 7087SOL    HW121821   3.840   4.253   8.514
 7087SOL    HW221822   3.788   4.273   8.654
 7088SOL     OW21823   3.916   4.245   9.167
 7088SOL    HW121824   3.971   4.197   9.105
 7088SOL    HW221825   3.862   4.301   9.112
 7089SOL     OW21826   0.003   4.295   7.723
 7089SOL    HW121827   0.029   4.210   7.759
 7089SOL    HW221828   4.474   4.346   7.799
 7090SOL     OW21829   4.202   4.214   7.637
 7090SOL    HW121830   4.253   4.294   7.651
 7090SOL    HW221831   4.112   4.244   7.628
 7091SOL     OW21832   3.986   4.044   8.165
 7091SOL    HW121833   3.898   4.074   8.143
 7091SOL    HW221834   3.985   4.031   8.260
 7092SOL     OW21835   4.392   3.928   8.942
 7092SOL    HW121836   4.480   3.930   8.906
 7092SOL    HW221837   4.404   3.923   9.037
 7093SOL     OW21838   3.799   4.046   7.478
 7093SOL    HW121839   3.711   4.037   7.441
 7093SOL    HW221840   3.831   4.130   7.446
 7094SOL     OW21841   3.794   3.881   7.760
 7094SOL    HW121842   3.778   3.961   7.709
 7094SOL    HW221843   3.879   3.849   7.729
 7095SOL     OW21844   4.407   4.271   9.192
 7095SOL    HW121845   4.426   4.355   9.235
 7095SOL    HW221846   4.492   4.238   9.165
 7096SOL     OW21847   4.174   4.152   7.991
 7096SOL    HW121848   4.185   4.088   7.921
 7096SOL    HW221849   4.111   4.113   8.051
 7097SOL     OW21850   4.047   4.264   8.739
 7097SOL    HW121851   4.102   4.208   8.793
 7097SOL    HW221852   4.068   4.239   8.649
 7098SOL     OW21853   3.951   4.294   9.435
 7098SOL    HW121854   3.888   4.357   9.469
 7098SOL    HW221855   3.939   4.297   9.340
 7099SOL     OW21856   3.947   4.005  10.300
 7099SOL    HW121857   3.978   3.970  10.384
 7099SOL    HW221858   3.857   3.972  10.292
 7100SOL     OW21859   3.729   4.101   9.954
 7100SOL    HW121860   3.646   4.130   9.992
 7100SOL    HW221861   3.706   4.024   9.902
 7101SOL     OW21862   4.179   4.122  10.798
 7101SOL    HW121863   4.246   4.053  10.800
 7101SOL    HW221864   4.097   4.076  10.819
 7102SOL     OW21865   3.803   4.371   9.875
 7102SOL    HW121866   3.797   4.279   9.901
 7102SOL    HW221867   3.867   4.408   9.935
 7103SOL     OW21868   3.851   4.458  10.906
 7103SOL    HW121869   3.946   4.466  10.913
 7103SOL    HW221870   3.820   0.048  10.894
 7104SOL     OW21871   0.022   3.730   9.836
 7104SOL    HW121872   0.054   3.794   9.772
 7104SOL    HW221873   4.427   3.744   9.838
 7105SOL     OW21874   4.065   3.980   0.014
 7105SOL    HW121875   4.109   4.060   0.041
 7105SOL    HW221876   3.972   3.996   0.031
 7106SOL     OW21877   4.252   3.913  10.192
 7106SOL    HW121878   4.271   3.921  10.285
 7106SOL    HW221879   4.264   4.002  10.157
 7107SOL     OW21880   3.927   4.006  10.807
 7107SOL    HW121881   3.846   4.057  10.806
 7107SOL    HW221882   3.915   3.944  10.879
 7108SOL     OW21883   4.092   4.393   9.726
 7108SOL    HW121884   4.129   4.315   9.770
 7108SOL    HW221885   4.020   4.420   9.783
 7109SOL     OW21886   4.339   3.831   9.429
 7109SOL    HW121887   4.434   3.823   9.426
 7109SOL    HW221888   4.311   3.810   9.340
 7110SOL     OW21889   4.261   3.789   9.812
 7110SOL    HW121890   4.182   3.793   9.866
 7110SOL    HW221891   4.256   3.866   9.756
 7111SOL     OW21892   4.018   3.771   9.494
 7111SOL    HW121893   4.078   3.836   9.459
 7111SOL    HW221894   4.074   3.707   9.537
 7112SOL     OW21895   0.325   4.399  10.798
 7112SOL    HW121896   0.237   4.359  10.800
 7112SOL    HW221897   0.382   4.328  10.768
 7113SOL     OW21898   3.798   4.280  10.704
 7113SOL    HW121899   3.889   4.273  10.676
 7113SOL    HW221900   3.801   4.340  10.779
 7114SOL     OW21901   4.284   3.936  10.460
 7114SOL    HW121902   4.324   3.865  10.510
 7114SOL    HW221903   4.197   3.947  10.498
 7115SOL     OW21904   4.245   3.988   9.633
 7115SOL    HW121905   4.285   3.933   9.565
 7115SOL    HW221906   4.230   4.072   9.589
 7116SOL     OW21907   4.153   0.008  10.574
 7116SOL    HW121908   4.221   0.004  10.641
 7116SOL    HW221909   4.109   4.423  10.580
 7117SOL     OW21910   4.302   4.264  10.181
 7117SOL    HW121911   4.313   4.332  10.115
 7117SOL    HW221912   4.370   4.282  10.246
 7118SOL     OW21913   4.125   4.463  10.913
 7118SOL    HW121914   4.190   0.027  10.883
 7118SOL    HW221915   4.170   4.379  10.910
 7119SOL     OW21916   4.025   3.924  10.556
 7119SOL    HW121917   3.988   3.957  10.638
 7119SOL    HW221918   4.005   3.831  10.556
 7120SOL     OW21919   4.020   3.790   9.935
 7120SOL    HW121920   4.004   3.881   9.960
 7120SOL    HW221921   4.032   3.745  10.019
 7121SOL     OW21922   4.040   0.014  10.234
 7121SOL    HW121923   4.117   0.071  10.239
 7121SOL    HW221924   4.060   4.440  10.292
 7122SOL     OW21925   4.068   4.242  10.327
 7122SOL    HW121926   4.029   4.157  10.306
 7122SOL    HW221927   4.145   4.247  10.270
 7123SOL     OW21928   3.760   4.271  10.426
 7123SOL    HW121929   3.841   4.253  10.377
 7123SOL    HW221930   3.787   4.275  10.517
 7124SOL     OW21931   0.003   4.295   9.585
 7124SOL    HW121932   0.029   4.210   9.622
 7124SOL    HW221933   4.475   4.346   9.661
 7125SOL     OW21934   4.202   4.214   9.499
 7125SOL    HW121935   4.253   4.294   9.514
 7125SOL    HW221936   4.112   4.244   9.490
 7126SOL     OW21937   3.987   4.044  10.027
 7126SOL    HW121938   3.898   4.074  10.005
 7126SOL    HW221939   3.985   4.031  10.122
 7127SOL     OW21940   4.397   3.927  10.810
 7127SOL    HW121941   4.475   3.934  10.756
 7127SOL    HW221942   4.428   3.941  10.899
 7128SOL     OW21943   3.799   4.046   9.340
 7128SOL    HW121944   3.711   4.038   9.303
 7128SOL    HW221945   3.831   4.130   9.308
 7129SOL     OW21946   3.794   3.881   9.622
 7129SOL    HW121947   3.778   3.961   9.571
 7129SOL    HW221948   3.879   3.849   9.591
 7130SOL     OW21949   4.174   4.153   9.853
 7130SOL    HW121950   4.184   4.088   9.783
 7130SOL    HW221951   4.111   4.113   9.913
 7131SOL     OW21952   4.047   4.262  10.601
 7131SOL    HW121953   4.102   4.206  10.655
 7131SOL    HW221954   4.068   4.237  10.511
   4.50000   4.50000  11.10000
