Built with Packmol
22164
    1LIG      O    1   2.627   2.620   0.038
    1LIG      C    2   2.692   2.670   0.126
    1LIG     C1    3   2.621   2.617   0.219
    1LIG     O1    4   2.685   2.667   0.308
    1LIG     C2    5   2.620   2.618   0.396
    1LIG     C3    6   2.691   2.673   0.487
    1LIG     O2    7   2.627   2.625   0.575
    1LIG     C4    8   2.690   2.675   0.664
    1LIG     C5    9   2.618   2.621   0.756
    1LIG     O3   10   2.681   2.670   0.844
    1LIG     C6   11   2.616   2.621   0.932
    1LIG     C7   12   2.688   2.677   1.023
    1LIG     O4   13   2.624   2.629   1.112
    1LIG     C8   14   2.688   2.679   1.200
    1LIG     C9   15   2.615   2.623   1.291
    1LIG     O5   16   2.679   2.673   1.379
    1LIG    C10   17   2.615   2.624   1.468
    1LIG    C11   18   2.687   2.680   1.559
    1LIG     O6   19   2.623   2.631   1.647
    1LIG    C12   20   2.686   2.680   1.735
    1LIG    C13   21   2.613   2.625   1.827
    1LIG     O7   22   2.677   2.674   1.915
    1LIG    C14   23   2.613   2.625   2.003
    1LIG    C15   24   2.685   2.680   2.095
    1LIG     O8   25   2.621   2.632   2.184
    1LIG    C16   26   2.685   2.681   2.272
    1LIG    C17   27   2.614   2.626   2.363
    1LIG     O9   28   2.677   2.675   2.452
    1LIG    C18   29   2.612   2.626   2.540
    1LIG    C19   30   2.684   2.681   2.631
    1LIG    O10   31   2.621   2.632   2.720
    1LIG    C20   32   2.685   2.682   2.807
    1LIG    C21   33   2.612   2.626   2.899
    1LIG    O11   34   2.676   2.675   2.987
    1LIG    C22   35   2.612   2.626   3.075
    1LIG    C23   36   2.684   2.682   3.166
    1LIG    O12   37   2.620   2.633   3.254
    1LIG    C24   38   2.684   2.682   3.343
    1LIG    C25   39   2.612   2.627   3.435
    1LIG    O13   40   2.675   2.676   3.524
    1LIG    C26   41   2.611   2.627   3.611
    1LIG    C27   42   2.683   2.682   3.703
    1LIG    O14   43   2.619   2.633   3.791
    1LIG    C28   44   2.684   2.682   3.879
    1LIG    C29   45   2.612   2.626   3.971
    1LIG    O15   46   2.676   2.676   4.059
    1LIG    C30   47   2.612   2.626   4.147
    1LIG    C31   48   2.684   2.681   4.238
    1LIG    O16   49   2.620   2.632   4.326
    1LIG    C32   50   2.684   2.681   4.415
    1LIG    C33   51   2.612   2.626   4.506
    1LIG    O17   52   2.676   2.675   4.595
    1LIG    C34   53   2.612   2.625   4.683
    1LIG    C35   54   2.684   2.680   4.774
    1LIG    O18   55   2.620   2.631   4.863
    1LIG    C36   56   2.684   2.681   4.951
    1LIG    C37   57   2.613   2.625   5.042
    1LIG    O19   58   2.677   2.674   5.131
    1LIG    C38   59   2.613   2.624   5.219
    1LIG    C39   60   2.684   2.679   5.311
    1LIG    O20   61   2.621   2.630   5.399
    1LIG    C40   62   2.685   2.679   5.487
    1LIG    C41   63   2.614   2.624   5.579
    1LIG    O21   64   2.677   2.673   5.667
    1LIG    C42   65   2.613   2.623   5.755
    1LIG    C43   66   2.685   2.678   5.846
    1LIG    O22   67   2.622   2.629   5.935
    1LIG    C44   68   2.686   2.678   6.023
    1LIG    C45   69   2.614   2.622   6.114
    1LIG    O23   70   2.678   2.671   6.202
    1LIG    C46   71   2.614   2.622   6.291
    1LIG    C47   72   2.687   2.678   6.382
    1LIG    O24   73   2.623   2.628   6.470
    1LIG    C48   74   2.686   2.677   6.558
    1LIG    C49   75   2.614   2.621   6.650
    1LIG    O25   76   2.678   2.670   6.738
    1LIG    C50   77   2.615   2.621   6.826
    1LIG    C51   78   2.687   2.677   6.917
    1LIG    O26   79   2.624   2.627   7.005
    1LIG    C52   80   2.687   2.676   7.094
    1LIG    C53   81   2.615   2.620   7.185
    1LIG    O27   82   2.679   2.669   7.273
    1LIG    C54   83   2.616   2.619   7.362
    1LIG    C55   84   2.688   2.675   7.454
    1LIG    O28   85   2.624   2.625   7.542
    1LIG    C56   86   2.688   2.674   7.630
    1LIG    C57   87   2.617   2.618   7.723
    1LIG    O29   88   2.681   2.667   7.811
    1LIG    C58   89   2.617   2.617   7.899
    1LIG    C59   90   2.688   2.672   7.991
    1LIG      H   91   2.689   2.780   0.125
    1LIG     H1   92   2.797   2.639   0.125
    1LIG     H2   93   2.624   2.508   0.219
    1LIG     H3   94   2.516   2.648   0.218
    1LIG     H4   95   2.623   2.508   0.397
    1LIG     H5   96   2.515   2.649   0.396
    1LIG     H6   97   2.689   2.783   0.486
    1LIG     H7   98   2.797   2.642   0.487
    1LIG     H8   99   2.688   2.784   0.664
    1LIG     H9  100   2.795   2.644   0.665
    1LIG    H10  101   2.621   2.511   0.755
    1LIG    H11  102   2.513   2.651   0.754
    1LIG    H12  103   2.619   2.512   0.933
    1LIG    H13  104   2.511   2.652   0.933
    1LIG    H14  105   2.685   2.787   1.022
    1LIG    H15  106   2.793   2.647   1.023
    1LIG    H16  107   2.685   2.788   1.201
    1LIG    H17  108   2.793   2.648   1.202
    1LIG    H18  109   2.618   2.514   1.290
    1LIG    H19  110   2.510   2.655   1.290
    1LIG    H20  111   2.617   2.515   1.469
    1LIG    H21  112   2.509   2.655   1.469
    1LIG    H22  113   2.684   2.789   1.558
    1LIG    H23  114   2.792   2.649   1.558
    1LIG    H24  115   2.683   2.790   1.736
    1LIG    H25  116   2.791   2.649   1.737
    1LIG    H26  117   2.616   2.515   1.826
    1LIG    H27  118   2.508   2.656   1.825
    1LIG    H28  119   2.616   2.515   2.004
    1LIG    H29  120   2.508   2.656   2.004
    1LIG    H30  121   2.682   2.790   2.094
    1LIG    H31  122   2.790   2.649   2.094
    1LIG    H32  123   2.682   2.791   2.272
    1LIG    H33  124   2.790   2.650   2.273
    1LIG    H34  125   2.616   2.517   2.362
    1LIG    H35  126   2.508   2.657   2.362
    1LIG    H36  127   2.615   2.516   2.541
    1LIG    H37  128   2.507   2.657   2.541
    1LIG    H38  129   2.681   2.791   2.630
    1LIG    H39  130   2.789   2.650   2.630
    1LIG    H40  131   2.682   2.791   2.809
    1LIG    H41  132   2.790   2.651   2.809
    1LIG    H42  133   2.615   2.517   2.897
    1LIG    H43  134   2.507   2.657   2.897
    1LIG    H44  135   2.615   2.517   3.076
    1LIG    H45  136   2.507   2.657   3.076
    1LIG    H46  137   2.681   2.792   3.165
    1LIG    H47  138   2.790   2.651   3.165
    1LIG    H48  139   2.681   2.792   3.344
    1LIG    H49  140   2.789   2.651   3.344
    1LIG    H50  141   2.615   2.517   3.434
    1LIG    H51  142   2.507   2.658   3.434
    1LIG    H52  143   2.614   2.517   3.612
    1LIG    H53  144   2.506   2.658   3.612
    1LIG    H54  145   2.680   2.792   3.702
    1LIG    H55  146   2.788   2.651   3.701
    1LIG    H56  147   2.681   2.791   3.880
    1LIG    H57  148   2.789   2.651   3.880
    1LIG    H58  149   2.615   2.517   3.970
    1LIG    H59  150   2.507   2.657   3.970
    1LIG    H60  151   2.615   2.516   4.148
    1LIG    H61  152   2.507   2.657   4.148
    1LIG    H62  153   2.681   2.791   4.237
    1LIG    H63  154   2.789   2.651   4.237
    1LIG    H64  155   2.681   2.791   4.416
    1LIG    H65  156   2.789   2.650   4.416
    1LIG    H66  157   2.615   2.516   4.505
    1LIG    H67  158   2.507   2.657   4.505
    1LIG    H68  159   2.615   2.516   4.683
    1LIG    H69  160   2.507   2.656   4.683
    1LIG    H70  161   2.681   2.790   4.773
    1LIG    H71  162   2.789   2.650   4.773
    1LIG    H72  163   2.681   2.790   4.952
    1LIG    H73  164   2.790   2.650   4.951
    1LIG    H74  165   2.616   2.516   5.041
    1LIG    H75  166   2.508   2.656   5.042
    1LIG    H76  167   2.616   2.515   5.219
    1LIG    H77  168   2.508   2.655   5.220
    1LIG    H78  169   2.681   2.789   5.310
    1LIG    H79  170   2.790   2.648   5.309
    1LIG    H80  171   2.682   2.789   5.488
    1LIG    H81  172   2.790   2.649   5.488
    1LIG    H82  173   2.617   2.514   5.577
    1LIG    H83  174   2.508   2.654   5.578
    1LIG    H84  175   2.617   2.513   5.756
    1LIG    H85  176   2.508   2.654   5.756
    1LIG    H86  177   2.682   2.788   5.845
    1LIG    H87  178   2.791   2.648   5.845
    1LIG    H88  179   2.683   2.788   6.024
    1LIG    H89  180   2.791   2.648   6.024
    1LIG    H90  181   2.617   2.513   6.113
    1LIG    H91  182   2.509   2.653   6.113
    1LIG    H92  183   2.618   2.512   6.292
    1LIG    H93  184   2.509   2.652   6.292
    1LIG    H94  185   2.683   2.787   6.381
    1LIG    H95  186   2.792   2.647   6.381
    1LIG    H96  187   2.683   2.786   6.560
    1LIG    H97  188   2.791   2.646   6.560
    1LIG    H98  189   2.618   2.511   6.648
    1LIG    H99  190   2.509   2.651   6.649
    1LIG   H100  191   2.618   2.511   6.827
    1LIG   H101  192   2.510   2.651   6.828
    1LIG   H102  193   2.684   2.786   6.916
    1LIG   H103  194   2.792   2.646   6.916
    1LIG   H104  195   2.684   2.785   7.095
    1LIG   H105  196   2.792   2.645   7.095
    1LIG   H106  197   2.619   2.510   7.184
    1LIG   H107  198   2.510   2.650   7.184
    1LIG   H108  199   2.620   2.510   7.363
    1LIG   H109  200   2.511   2.650   7.363
    1LIG   H110  201   2.684   2.784   7.453
    1LIG   H111  202   2.793   2.644   7.452
    1LIG   H112  203   2.685   2.784   7.631
    1LIG   H113  204   2.794   2.644   7.631
    1LIG   H114  205   2.621   2.509   7.721
    1LIG   H115  206   2.512   2.649   7.722
    1LIG   H116  207   2.621   2.508   7.899
    1LIG   H117  208   2.512   2.649   7.900
    1LIG   H118  209   2.793   2.642   7.991
    1LIG   H119  210   2.641   2.635   8.060
    1MOL     C1  211   2.303   2.237   3.537
    1MOL     H1  212   2.296   2.130   3.559
    1MOL     O1  213   2.254   2.301   3.654
    1MOL     C2  214   2.257   2.445   3.652
    1MOL     H2  215   2.361   2.480   3.646
    1MOL     C3  216   2.195   2.491   3.782
    1MOL     H3  217   2.094   2.447   3.790
    1MOL     H4  218   2.185   2.600   3.782
    1MOL     O2  219   2.274   2.448   3.892
    1MOL     C4  220   2.218   2.490   4.015
    1MOL     C5  221   2.210   2.275   3.420
    1MOL     H5  222   2.109   2.244   3.449
    1MOL     O3  223   2.245   2.215   3.297
    1MOL     C6  224   2.210   2.078   3.286
    1MOL     C7  225   2.210   2.427   3.399
    1MOL     H6  226   2.309   2.458   3.364
    1MOL     O4  227   2.109   2.463   3.306
    1MOL     C8  228   2.158   2.494   3.176
    1MOL     C9  229   2.179   2.501   3.530
    1MOL     H7  230   2.071   2.491   3.549
    1MOL     O5  231   2.211   2.639   3.508
    1MOL    C10  232   2.119   2.737   3.546
    1MOL     H8  233   2.021   2.692   3.568
    1MOL     O6  234   2.155   2.803   3.666
    1MOL    C11  235   2.284   2.866   3.663
    1MOL     H9  236   2.362   2.792   3.640
    1MOL    C12  237   2.308   2.922   3.802
    1MOL    H10  238   2.222   2.985   3.831
    1MOL    H11  239   2.398   2.986   3.802
    1MOL     O7  240   2.325   2.815   3.894
    1MOL    C13  241   2.363   2.861   4.022
    1MOL    C14  242   2.105   2.844   3.436
    1MOL    H12  243   2.026   2.913   3.469
    1MOL     O8  244   2.071   2.792   3.309
    1MOL    C15  245   1.937   2.748   3.296
    1MOL    C16  246   2.234   2.925   3.420
    1MOL    H13  247   2.311   2.860   3.376
    1MOL     O9  248   2.210   3.038   3.337
    1MOL    C17  249   2.257   3.024   3.203
    1MOL    C18  250   2.287   2.976   3.555
    1MOL    H14  251   2.222   3.059   3.586
    1MOL    O10  252   2.420   3.024   3.532
    1MOL    C19  253   2.456   3.152   3.579
    1MOL    H15  254   2.367   3.206   3.612
    1MOL    O11  255   2.540   3.146   3.692
    1MOL    C20  256   2.663   3.075   3.674
    1MOL    H16  257   2.643   2.970   3.651
    1MOL    C21  258   2.738   3.085   3.806
    1MOL    H17  259   2.735   3.190   3.840
    1MOL    H18  260   2.843   3.056   3.792
    1MOL    O12  261   2.676   3.001   3.902
    1MOL    C22  262   2.743   3.005   4.027
    1MOL    C23  263   2.529   3.230   3.468
    1MOL    H19  264   2.551   3.330   3.510
    1MOL    O13  265   2.455   3.244   3.349
    1MOL    C24  266   2.348   3.337   3.355
    1MOL    C25  267   2.662   3.163   3.433
    1MOL    H20  268   2.641   3.068   3.384
    1MOL    O14  269   2.738   3.248   3.348
    1MOL    C26  270   2.735   3.212   3.211
    1MOL    C27  271   2.746   3.135   3.558
    1MOL    H21  272   2.791   3.231   3.590
    1MOL    O15  273   2.850   3.045   3.519
    1MOL    C28  274   2.984   3.075   3.549
    1MOL    H22  275   2.994   3.180   3.577
    1MOL    O16  276   3.031   3.003   3.662
    1MOL    C29  277   3.023   2.860   3.649
    1MOL    H23  278   2.918   2.831   3.634
    1MOL    C30  279   3.070   2.801   3.781
    1MOL    H24  280   3.044   2.694   3.784
    1MOL    H25  281   3.016   2.851   3.864
    1MOL    O17  282   3.210   2.818   3.795
    1MOL    C31  283   3.261   2.752   3.908
    1MOL    C32  284   3.074   3.041   3.428
    1MOL    H26  285   3.176   3.071   3.457
    1MOL    O18  286   3.036   3.106   3.309
    1MOL    C33  287   3.072   3.243   3.303
    1MOL    C34  288   3.075   2.890   3.401
    1MOL    H27  289   2.976   2.860   3.363
    1MOL    O19  290   3.176   2.860   3.306
    1MOL    C35  291   3.128   2.830   3.176
    1MOL    C36  292   3.105   2.811   3.528
    1MOL    H28  293   3.212   2.822   3.552
    1MOL    O20  294   3.075   2.673   3.500
    1MOL    C37  295   3.168   2.574   3.539
    1MOL    H29  296   3.263   2.620   3.566
    1MOL    O21  297   3.127   2.505   3.655
    1MOL    C38  298   2.999   2.439   3.644
    1MOL    H30  299   2.922   2.514   3.621
    1MOL    C39  300   2.968   2.379   3.781
    1MOL    H31  301   2.861   2.355   3.787
    1MOL    H32  302   2.989   2.455   3.858
    1MOL    O22  303   3.047   2.264   3.802
    1MOL    C40  304   3.009   2.195   3.920
    1MOL    C41  305   3.185   2.473   3.424
    1MOL    H33  306   3.263   2.402   3.456
    1MOL    O23  307   3.222   2.531   3.301
    1MOL    C42  308   3.356   2.576   3.294
    1MOL    C43  309   3.057   2.393   3.400
    1MOL    H34  310   2.981   2.460   3.357
    1MOL    O24  311   3.083   2.284   3.312
    1MOL    C44  312   3.037   2.303   3.179
    1MOL    C45  313   3.002   2.335   3.531
    1MOL    H35  314   3.066   2.251   3.561
    1MOL    O25  315   2.869   2.287   3.503
    1MOL    C46  316   2.832   2.159   3.548
    1MOL    H36  317   2.921   2.103   3.578
    1MOL    O26  318   2.751   2.163   3.664
    1MOL    C47  319   2.630   2.238   3.651
    1MOL    H37  320   2.653   2.342   3.626
    1MOL    C48  321   2.563   2.233   3.788
    1MOL    H38  322   2.554   2.128   3.819
    1MOL    H39  323   2.462   2.276   3.782
    1MOL    O27  324   2.643   2.306   3.879
    1MOL    C49  325   2.584   2.316   4.007
    1MOL    C50  326   2.754   2.086   3.437
    1MOL    H40  327   2.733   1.985   3.476
    1MOL    O28  328   2.823   2.076   3.314
    1MOL    C51  329   2.933   1.986   3.315
    1MOL    C52  330   2.620   2.155   3.410
    1MOL    H41  331   2.640   2.252   3.363
    1MOL    O29  332   2.539   2.073   3.326
    1MOL    C53  333   2.541   2.110   3.188
    1MOL    C54  334   2.541   2.180   3.539
    1MOL    H42  335   2.498   2.084   3.572
    1MOL    O30  336   2.436   2.272   3.507
    1MOL    H43  337   2.379   2.773   4.084
    1MOL    H44  338   2.456   2.919   4.017
    1MOL    H45  339   2.285   2.923   4.068
    1MOL    H46  340   2.286   2.457   4.094
    1MOL    H47  341   2.207   2.599   4.019
    1MOL    H48  342   2.119   2.444   4.032
    1MOL    H49  343   2.651   2.375   4.069
    1MOL    H50  344   2.486   2.366   4.001
    1MOL    H51  345   2.570   2.217   4.053
    1MOL    H52  346   3.071   2.105   3.926
    1MOL    H53  347   3.028   2.256   4.010
    1MOL    H54  348   2.903   2.167   3.918
    1MOL    H55  349   3.369   2.771   3.910
    1MOL    H56  350   3.217   2.791   4.001
    1MOL    H57  351   3.244   2.644   3.903
    1MOL    H58  352   2.690   2.937   4.094
    1MOL    H59  353   2.848   2.973   4.018
    1MOL    H60  354   2.741   3.106   4.070
    1MOL    H61  355   3.377   2.598   3.189
    1MOL    H62  356   3.372   2.668   3.352
    1MOL    H63  357   3.426   2.499   3.329
    1MOL    H64  358   3.217   2.816   3.113
    1MOL    H65  359   3.069   2.738   3.176
    1MOL    H66  360   3.069   2.913   3.135
    1MOL    H67  361   3.057   3.275   3.200
    1MOL    H68  362   3.009   3.306   3.368
    1MOL    H69  363   3.178   3.258   3.330
    1MOL    H70  364   2.792   3.290   3.157
    1MOL    H71  365   2.784   3.115   3.194
    1MOL    H72  366   2.632   3.210   3.172
    1MOL    H73  367   2.315   3.354   3.252
    1MOL    H74  368   2.263   3.299   3.413
    1MOL    H75  369   2.381   3.433   3.398
    1MOL    H76  370   2.227   3.116   3.151
    1MOL    H77  371   2.366   3.016   3.200
    1MOL    H78  372   2.211   2.938   3.154
    1MOL    H79  373   1.919   2.733   3.189
    1MOL    H80  374   1.919   2.654   3.348
    1MOL    H81  375   1.867   2.825   3.333
    1MOL    H82  376   2.070   2.513   3.114
    1MOL    H83  377   2.220   2.584   3.178
    1MOL    H84  378   2.214   2.410   3.133
    1MOL    H85  379   2.221   2.051   3.181
    1MOL    H86  380   2.275   2.014   3.346
    1MOL    H87  381   2.105   2.062   3.316
    1MOL    H88  382   2.481   2.036   3.135
    1MOL    H89  383   2.495   2.209   3.174
    1MOL    H90  384   2.643   2.110   3.148
    1MOL    H91  385   2.961   1.971   3.210
    1MOL    H92  386   3.019   2.027   3.369
    1MOL    H93  387   2.904   1.889   3.358
    1MOL    H94  388   3.069   2.215   3.123
    1MOL    H95  389   2.927   2.309   3.176
    1MOL    H96  390   3.080   2.393   3.134
    1MOL     C1  391   2.997   2.237   4.543
    1MOL     H1  392   3.005   2.130   4.520
    1MOL     O1  393   3.046   2.301   4.426
    1MOL     C2  394   3.043   2.445   4.428
    1MOL     H2  395   2.939   2.480   4.434
    1MOL     C3  396   3.105   2.491   4.298
    1MOL     H3  397   3.206   2.447   4.290
    1MOL     H4  398   3.115   2.600   4.298
    1MOL     O2  399   3.026   2.448   4.188
    1MOL     C4  400   3.082   2.490   4.065
    1MOL     C5  401   3.090   2.275   4.660
    1MOL     H5  402   3.191   2.244   4.631
    1MOL     O3  403   3.055   2.215   4.783
    1MOL     C6  404   3.091   2.078   4.794
    1MOL     C7  405   3.090   2.427   4.680
    1MOL     H6  406   2.991   2.458   4.716
    1MOL     O4  407   3.191   2.463   4.774
    1MOL     C8  408   3.143   2.494   4.904
    1MOL     C9  409   3.121   2.501   4.550
    1MOL     H7  410   3.229   2.491   4.531
    1MOL     O5  411   3.089   2.639   4.572
    1MOL    C10  412   3.182   2.737   4.534
    1MOL     H8  413   3.279   2.692   4.512
    1MOL     O6  414   3.145   2.803   4.414
    1MOL    C11  415   3.016   2.866   4.417
    1MOL     H9  416   2.938   2.792   4.439
    1MOL    C12  417   2.992   2.922   4.277
    1MOL    H10  418   3.078   2.985   4.249
    1MOL    H11  419   2.902   2.986   4.278
    1MOL     O7  420   2.975   2.815   4.186
    1MOL    C13  421   2.937   2.861   4.058
    1MOL    C14  422   3.195   2.844   4.644
    1MOL    H12  423   3.274   2.913   4.611
    1MOL     O8  424   3.229   2.792   4.771
    1MOL    C15  425   3.363   2.748   4.784
    1MOL    C16  426   3.066   2.925   4.660
    1MOL    H13  427   2.989   2.860   4.704
    1MOL     O9  428   3.090   3.038   4.743
    1MOL    C17  429   3.043   3.024   4.876
    1MOL    C18  430   3.014   2.976   4.525
    1MOL    H14  431   3.078   3.059   4.494
    1MOL    O10  432   2.880   3.024   4.548
    1MOL    C19  433   2.844   3.152   4.501
    1MOL    H15  434   2.933   3.206   4.467
    1MOL    O11  435   2.760   3.146   4.388
    1MOL    C20  436   2.637   3.075   4.406
    1MOL    H16  437   2.658   2.970   4.429
    1MOL    C21  438   2.562   3.085   4.274
    1MOL    H17  439   2.565   3.190   4.240
    1MOL    H18  440   2.457   3.056   4.288
    1MOL    O12  441   2.624   3.001   4.178
    1MOL    C22  442   2.557   3.005   4.053
    1MOL    C23  443   2.771   3.230   4.612
    1MOL    H19  444   2.749   3.330   4.570
    1MOL    O13  445   2.845   3.244   4.731
    1MOL    C24  446   2.952   3.337   4.725
    1MOL    C25  447   2.638   3.163   4.647
    1MOL    H20  448   2.659   3.068   4.696
    1MOL    O14  449   2.562   3.248   4.732
    1MOL    C26  450   2.565   3.212   4.869
    1MOL    C27  451   2.554   3.135   4.522
    1MOL    H21  452   2.509   3.231   4.489
    1MOL    O15  453   2.450   3.045   4.561
    1MOL    C28  454   2.316   3.075   4.531
    1MOL    H22  455   2.307   3.180   4.503
    1MOL    O16  456   2.269   3.003   4.418
    1MOL    C29  457   2.277   2.860   4.431
    1MOL    H23  458   2.382   2.831   4.446
    1MOL    C30  459   2.230   2.801   4.299
    1MOL    H24  460   2.256   2.694   4.296
    1MOL    H25  461   2.284   2.851   4.216
    1MOL    O17  462   2.090   2.818   4.285
    1MOL    C31  463   2.039   2.752   4.172
    1MOL    C32  464   2.226   3.041   4.651
    1MOL    H26  465   2.124   3.071   4.623
    1MOL    O18  466   2.264   3.106   4.771
    1MOL    C33  467   2.228   3.243   4.777
    1MOL    C34  468   2.225   2.890   4.679
    1MOL    H27  469   2.324   2.860   4.717
    1MOL    O19  470   2.124   2.860   4.774
    1MOL    C35  471   2.172   2.830   4.904
    1MOL    C36  472   2.195   2.811   4.552
    1MOL    H28  473   2.088   2.822   4.528
    1MOL    O20  474   2.225   2.673   4.580
    1MOL    C37  475   2.133   2.574   4.541
    1MOL    H29  476   2.037   2.620   4.514
    1MOL    O21  477   2.173   2.505   4.425
    1MOL    C38  478   2.301   2.439   4.436
    1MOL    H30  479   2.378   2.514   4.459
    1MOL    C39  480   2.332   2.379   4.299
    1MOL    H31  481   2.439   2.355   4.293
    1MOL    H32  482   2.311   2.455   4.222
    1MOL    O22  483   2.253   2.264   4.278
    1MOL    C40  484   2.291   2.195   4.160
    1MOL    C41  485   2.115   2.473   4.656
    1MOL    H33  486   2.037   2.402   4.623
    1MOL    O23  487   2.078   2.531   4.779
    1MOL    C42  488   1.944   2.576   4.785
    1MOL    C43  489   2.244   2.393   4.680
    1MOL    H34  490   2.319   2.460   4.723
    1MOL    O24  491   2.217   2.284   4.768
    1MOL    C44  492   2.263   2.303   4.900
    1MOL    C45  493   2.299   2.335   4.549
    1MOL    H35  494   2.235   2.251   4.518
    1MOL    O25  495   2.431   2.287   4.577
    1MOL    C46  496   2.468   2.159   4.532
    1MOL    H36  497   2.379   2.103   4.502
    1MOL    O26  498   2.549   2.163   4.416
    1MOL    C47  499   2.670   2.238   4.429
    1MOL    H37  500   2.647   2.342   4.454
    1MOL    C48  501   2.737   2.233   4.292
    1MOL    H38  502   2.746   2.128   4.260
    1MOL    H39  503   2.838   2.276   4.298
    1MOL    O27  504   2.657   2.306   4.201
    1MOL    C49  505   2.717   2.316   4.073
    1MOL    C50  506   2.546   2.086   4.643
    1MOL    H40  507   2.567   1.985   4.604
    1MOL    O28  508   2.477   2.076   4.765
    1MOL    C51  509   2.367   1.986   4.765
    1MOL    C52  510   2.680   2.155   4.670
    1MOL    H41  511   2.661   2.252   4.717
    1MOL    O29  512   2.761   2.073   4.754
    1MOL    C53  513   2.759   2.110   4.891
    1MOL    C54  514   2.759   2.180   4.541
    1MOL    H42  515   2.802   2.084   4.508
    1MOL    O30  516   2.865   2.272   4.573
    1MOL    H43  517   2.921   2.773   3.996
    1MOL    H44  518   2.844   2.919   4.063
    1MOL    H45  519   3.015   2.923   4.012
    1MOL    H46  520   3.014   2.457   3.986
    1MOL    H47  521   3.093   2.599   4.061
    1MOL    H48  522   3.181   2.444   4.048
    1MOL    H49  523   2.649   2.375   4.011
    1MOL    H50  524   2.814   2.366   4.079
    1MOL    H51  525   2.730   2.217   4.027
    1MOL    H52  526   2.229   2.105   4.154
    1MOL    H53  527   2.272   2.256   4.070
    1MOL    H54  528   2.397   2.167   4.162
    1MOL    H55  529   1.931   2.771   4.170
    1MOL    H56  530   2.083   2.791   4.078
    1MOL    H57  531   2.057   2.644   4.177
    1MOL    H58  532   2.610   2.937   3.986
    1MOL    H59  533   2.452   2.973   4.062
    1MOL    H60  534   2.559   3.106   4.010
    1MOL    H61  535   1.923   2.598   4.891
    1MOL    H62  536   1.928   2.668   4.728
    1MOL    H63  537   1.874   2.499   4.751
    1MOL    H64  538   2.084   2.816   4.967
    1MOL    H65  539   2.231   2.738   4.904
    1MOL    H66  540   2.231   2.913   4.945
    1MOL    H67  541   2.243   3.275   4.880
    1MOL    H68  542   2.291   3.306   4.712
    1MOL    H69  543   2.122   3.258   4.750
    1MOL    H70  544   2.508   3.290   4.922
    1MOL    H71  545   2.516   3.115   4.886
    1MOL    H72  546   2.668   3.210   4.908
    1MOL    H73  547   2.985   3.354   4.828
    1MOL    H74  548   3.037   3.299   4.667
    1MOL    H75  549   2.919   3.433   4.682
    1MOL    H76  550   3.073   3.116   4.929
    1MOL    H77  551   2.934   3.016   4.879
    1MOL    H78  552   3.089   2.938   4.926
    1MOL    H79  553   3.381   2.733   4.890
    1MOL    H80  554   3.381   2.654   4.731
    1MOL    H81  555   3.433   2.825   4.747
    1MOL    H82  556   3.231   2.513   4.966
    1MOL    H83  557   3.081   2.584   4.902
    1MOL    H84  558   3.086   2.410   4.947
    1MOL    H85  559   3.079   2.051   4.899
    1MOL    H86  560   3.025   2.014   4.734
    1MOL    H87  561   3.195   2.062   4.764
    1MOL    H88  562   2.819   2.036   4.944
    1MOL    H89  563   2.805   2.209   4.906
    1MOL    H90  564   2.657   2.110   4.932
    1MOL    H91  565   2.339   1.971   4.870
    1MOL    H92  566   2.281   2.027   4.711
    1MOL    H93  567   2.396   1.889   4.722
    1MOL    H94  568   2.231   2.215   4.957
    1MOL    H95  569   2.373   2.309   4.904
    1MOL    H96  570   2.220   2.393   4.946
    2SOL     OW  571   0.230   0.628   0.113
    2SOL    HW1  572   0.137   0.626   0.150
    2SOL    HW2  573   0.231   0.589   0.021
    3SOL     OW  574   0.225   0.275   0.996
    3SOL    HW1  575   0.260   0.258   1.088
    3SOL    HW2  576   0.137   0.230   0.984
    4SOL     OW  577   0.019   0.368   0.647
    4SOL    HW1  578  -0.063   0.411   0.686
    4SOL    HW2  579  -0.009   0.295   0.584
    5SOL     OW  580   0.569   1.275   1.165
    5SOL    HW1  581   0.476   1.268   1.128
    5SOL    HW2  582   0.580   1.364   1.209
    6SOL     OW  583   1.555   1.511   0.703
    6SOL    HW1  584   1.498   1.495   0.784
    6SOL    HW2  585   1.496   1.521   0.623
    7SOL     OW  586   1.135   0.703   0.717
    7SOL    HW1  587   1.192   0.781   0.692
    7SOL    HW2  588   1.075   0.729   0.793
    8SOL     OW  589   1.755   0.607   0.231
    8SOL    HW1  590   1.743   0.594   0.132
    8SOL    HW2  591   1.725   0.526   0.280
    9SOL     OW  592   0.768   1.144   1.023
    9SOL    HW1  593   0.690   1.161   1.083
    9SOL    HW2  594   0.802   1.231   0.987
   10SOL     OW  595   0.850   0.798   1.823
   10SOL    HW1  596   0.846   0.874   1.888
   10SOL    HW2  597   0.872   0.834   1.732
   11SOL     OW  598   0.685   1.012   0.665
   11SOL    HW1  599   0.754   0.996   0.735
   11SOL    HW2  600   0.612   1.069   0.703
   12SOL     OW  601   0.686   1.161   1.803
   12SOL    HW1  602   0.746   1.240   1.817
   12SOL    HW2  603   0.600   1.192   1.762
   13SOL     OW  604   0.335   1.435   1.061
   13SOL    HW1  605   0.257   1.404   1.008
   13SOL    HW2  606   0.393   1.493   1.004
   14SOL     OW  607   1.460   1.505   1.339
   14SOL    HW1  608   1.484   1.599   1.365
   14SOL    HW2  609   1.444   1.451   1.421
   15SOL     OW  610   0.438   0.392   1.499
   15SOL    HW1  611   0.520   0.336   1.508
   15SOL    HW2  612   0.357   0.334   1.503
   16SOL     OW  613   1.603   0.447   0.737
   16SOL    HW1  614   1.529   0.493   0.687
   16SOL    HW2  615   1.654   0.515   0.790
   17SOL     OW  616   0.231   1.713   0.483
   17SOL    HW1  617   0.265   1.790   0.537
   17SOL    HW2  618   0.275   1.713   0.393
   18SOL     OW  619   1.127   1.341   1.690
   18SOL    HW1  620   1.174   1.341   1.778
   18SOL    HW2  621   1.079   1.254   1.679
   19SOL     OW  622   0.230   1.434   0.538
   19SOL    HW1  623   0.204   1.530   0.538
   19SOL    HW2  624   0.159   1.380   0.583
   20SOL     OW  625   0.240   1.091   0.886
   20SOL    HW1  626   0.254   1.007   0.938
   20SOL    HW2  627   0.185   1.155   0.941
   21SOL     OW  628   0.620   1.786   1.439
   21SOL    HW1  629   0.528   1.769   1.474
   21SOL    HW2  630   0.648   1.878   1.465
   22SOL     OW  631   0.606   0.964   0.123
   22SOL    HW1  632   0.613   1.048   0.069
   22SOL    HW2  633   0.652   0.977   0.211
   23SOL     OW  634   1.594   0.114   1.480
   23SOL    HW1  635   1.576   0.181   1.408
   23SOL    HW2  636   1.591   0.160   1.569
   24SOL     OW  637   0.122   0.643   0.563
   24SOL    HW1  638   0.077   0.555   0.580
   24SOL    HW2  639   0.121   0.697   0.647
   25SOL     OW  640   1.842   1.767   0.359
   25SOL    HW1  641   1.896   1.738   0.439
   25SOL    HW2  642   1.872   1.857   0.330
   26SOL     OW  643   0.027   1.596   0.117
   26SOL    HW1  644   0.008   1.500   0.138
   26SOL    HW2  645  -0.006   1.654   0.192
   27SOL     OW  646   1.689   0.922   0.612
   27SOL    HW1  647   1.784   0.893   0.620
   27SOL    HW2  648   1.681   0.987   0.537
   28SOL     OW  649   1.641   1.108   0.432
   28SOL    HW1  650   1.727   1.110   0.380
   28SOL    HW2  651   1.655   1.155   0.520
   29SOL     OW  652   0.113   0.737   1.597
   29SOL    HW1  653   0.201   0.724   1.642
   29SOL    HW2  654   0.100   0.834   1.575
   30SOL     OW  655   0.613   1.365   0.726
   30SOL    HW1  656   0.564   1.278   0.735
   30SOL    HW2  657   0.590   1.408   0.639
   31SOL     OW  658   1.293   1.228   1.423
   31SOL    HW1  659   1.330   1.155   1.365
   31SOL    HW2  660   1.345   1.233   1.508
   32SOL     OW  661   0.809   0.004   0.502
   32SOL    HW1  662   0.849   0.095   0.493
   32SOL    HW2  663   0.709   0.012   0.508
   33SOL     OW  664   0.197   0.976   1.264
   33SOL    HW1  665   0.286   0.931   1.250
   33SOL    HW2  666   0.124   0.911   1.245
   34SOL     OW  667   1.525   0.999   0.190
   34SOL    HW1  668   1.462   0.923   0.203
   34SOL    HW2  669   1.573   1.017   0.276
   35SOL     OW  670   1.187   1.792   1.616
   35SOL    HW1  671   1.211   1.852   1.540
   35SOL    HW2  672   1.194   1.697   1.586
   36SOL     OW  673   0.317   0.251   1.801
   36SOL    HW1  674   0.388   0.322   1.807
   36SOL    HW2  675   0.229   0.290   1.829
   37SOL     OW  676   1.466   1.417   0.953
   37SOL    HW1  677   1.407   1.423   1.033
   37SOL    HW2  678   1.451   1.329   0.907
   38SOL     OW  679   1.667   1.714   0.572
   38SOL    HW1  680   1.626   1.691   0.484
   38SOL    HW2  681   1.649   1.640   0.637
   39SOL     OW  682   0.598   0.729   0.270
   39SOL    HW1  683   0.622   0.798   0.202
   39SOL    HW2  684   0.520   0.762   0.324
   40SOL     OW  685   1.281   0.345   0.944
   40SOL    HW1  686   1.195   0.295   0.931
   40SOL    HW2  687   1.343   0.291   1.000
   41SOL     OW  688   1.576   1.662   0.307
   41SOL    HW1  689   1.665   1.708   0.310
   41SOL    HW2  690   1.555   1.638   0.212
   42SOL     OW  691   0.807   0.605   1.465
   42SOL    HW1  692   0.760   0.602   1.554
   42SOL    HW2  693   0.756   0.550   1.399
   43SOL     OW  694   1.394   0.469   1.674
   43SOL    HW1  695   1.374   0.512   1.762
   43SOL    HW2  696   1.472   0.407   1.683
   44SOL     OW  697   0.973   0.890   1.572
   44SOL    HW1  698   1.019   0.806   1.543
   44SOL    HW2  699   0.917   0.924   1.497
   45SOL     OW  700   0.991   0.410   1.242
   45SOL    HW1  701   0.914   0.444   1.296
   45SOL    HW2  702   0.957   0.359   1.163
   46SOL     OW  703   1.041   0.701   0.429
   46SOL    HW1  704   1.067   0.697   0.525
   46SOL    HW2  705   0.956   0.650   0.415
   47SOL     OW  706   0.076   0.811   0.789
   47SOL    HW1  707   0.175   0.799   0.798
   47SOL    HW2  708   0.052   0.906   0.810
   48SOL     OW  709   0.130   1.821   1.571
   48SOL    HW1  710   0.120   1.806   1.670
   48SOL    HW2  711   0.044   1.857   1.535
   49SOL     OW  712   0.865   0.348   0.195
   49SOL    HW1  713   0.924   0.411   0.146
   49SOL    HW2  714   0.884   0.254   0.166
   50SOL     OW  715   1.719   0.585   1.831
   50SOL    HW1  716   1.693   0.674   1.795
   50SOL    HW2  717   1.717   0.517   1.758
   51SOL     OW  718   1.362   1.144   0.545
   51SOL    HW1  719   1.445   1.115   0.497
   51SOL    HW2  720   1.313   1.211   0.489
   52SOL     OW  721   0.550   0.196   0.885
   52SOL    HW1  722   0.545   0.191   0.985
   52SOL    HW2  723   0.552   0.292   0.856
   53SOL     OW  724   1.008   1.456   0.477
   53SOL    HW1  725   0.962   1.528   0.425
   53SOL    HW2  726   1.004   1.476   0.575
   54SOL     OW  727   0.351   1.801   0.853
   54SOL    HW1  728   0.401   1.715   0.859
   54SOL    HW2  729   0.416   1.878   0.850
   55SOL     OW  730   1.795   1.066   0.873
   55SOL    HW1  731   1.733   1.051   0.797
   55SOL    HW2  732   1.743   1.077   0.958
   56SOL     OW  733   1.227   1.550   1.506
   56SOL    HW1  734   1.233   1.473   1.570
   56SOL    HW2  735   1.175   1.524   1.426
   57SOL     OW  736   0.321   0.943   0.242
   57SOL    HW1  737   0.403   0.982   0.200
   57SOL    HW2  738   0.294   0.861   0.193
   58SOL     OW  739   1.458   0.735   0.728
   58SOL    HW1  740   1.453   0.670   0.803
   58SOL    HW2  741   1.538   0.794   0.741
   59SOL     OW  742   0.461   1.266   1.727
   59SOL    HW1  743   0.411   1.267   1.641
   59SOL    HW2  744   0.398   1.248   1.803
   60SOL     OW  745   1.111   1.776   0.237
   60SOL    HW1  746   1.051   1.714   0.287
   60SOL    HW2  747   1.142   1.732   0.152
   61SOL     OW  748   0.202   0.285   1.498
   61SOL    HW1  749   0.122   0.345   1.485
   61SOL    HW2  750   0.192   0.236   1.584
   62SOL     OW  751   1.632   1.377   0.081
   62SOL    HW1  752   1.600   1.471   0.071
   62SOL    HW2  753   1.556   1.314   0.069
   63SOL     OW  754   0.464   1.743   0.323
   63SOL    HW1  755   0.497   1.782   0.409
   63SOL    HW2  756   0.540   1.736   0.258
   64SOL     OW  757   1.400   0.107   0.426
   64SOL    HW1  758   1.376   0.070   0.336
   64SOL    HW2  759   1.499   0.123   0.430
   65SOL     OW  760   0.249   1.785   1.241
   65SOL    HW1  761   0.306   1.720   1.291
   65SOL    HW2  762   0.233   1.752   1.148
   66SOL     OW  763   0.940   1.698   0.904
   66SOL    HW1  764   1.020   1.641   0.925
   66SOL    HW2  765   0.891   1.658   0.827
   67SOL     OW  766   0.382   0.700   0.480
   67SOL    HW1  767   0.427   0.610   0.477
   67SOL    HW2  768   0.288   0.689   0.513
   68SOL     OW  769   1.547   0.222   1.729
   68SOL    HW1  770   1.542   0.259   1.821
   68SOL    HW2  771   1.475   0.153   1.717
   69SOL     OW  772   0.614   0.122   0.117
   69SOL    HW1  773   0.712   0.100   0.124
   69SOL    HW2  774   0.583   0.105   0.024
   70SOL     OW  775   0.781   0.264   1.749
   70SOL    HW1  776   0.848   0.203   1.792
   70SOL    HW2  777   0.708   0.283   1.814
   71SOL     OW  778   0.888   1.514   1.195
   71SOL    HW1  779   0.865   1.489   1.101
   71SOL    HW2  780   0.949   1.445   1.234
   72SOL     OW  781   1.351   0.590   1.433
   72SOL    HW1  782   1.379   0.547   1.518
   72SOL    HW2  783   1.376   0.686   1.434
   73SOL     OW  784   0.803   1.402   0.924
   73SOL    HW1  785   0.893   1.416   0.882
   73SOL    HW2  786   0.732   1.404   0.853
   74SOL     OW  787   0.922   0.503   0.899
   74SOL    HW1  788   0.897   0.494   0.803
   74SOL    HW2  789   0.970   0.421   0.930
   75SOL     OW  790   0.539   0.064   0.512
   75SOL    HW1  791   0.458   0.065   0.570
   75SOL    HW2  792   0.542   0.147   0.457
   76SOL     OW  793   1.434   1.188   0.041
   76SOL    HW1  794   1.466   1.112   0.098
   76SOL    HW2  795   1.342   1.215   0.071
   77SOL     OW  796   0.297   0.035   0.171
   77SOL    HW1  797   0.346   0.119   0.150
   77SOL    HW2  798   0.359  -0.030   0.216
   78SOL     OW  799   0.935   0.236   0.480
   78SOL    HW1  800   0.887   0.277   0.402
   78SOL    HW2  801   1.034   0.234   0.461
   79SOL     OW  802   1.076   0.683   1.464
   79SOL    HW1  803   0.996   0.622   1.467
   79SOL    HW2  804   1.157   0.630   1.440
   80SOL     OW  805   1.227   1.570   0.793
   80SOL    HW1  806   1.248   1.644   0.728
   80SOL    HW2  807   1.295   1.570   0.866
   81SOL     OW  808   0.459   1.152   0.741
   81SOL    HW1  809   0.388   1.125   0.806
   81SOL    HW2  810   0.433   1.124   0.648
   82SOL     OW  811   1.271   1.797   0.591
   82SOL    HW1  812   1.315   1.861   0.527
   82SOL    HW2  813   1.221   1.849   0.661
   83SOL     OW  814   1.032   0.549   0.016
   83SOL    HW1  815   0.991   0.631  -0.023
   83SOL    HW2  816   1.096   0.575   0.089
   84SOL     OW  817   0.078   0.556   1.386
   84SOL    HW1  818   0.170   0.555   1.345
   84SOL    HW2  819   0.072   0.630   1.453
   85SOL     OW  820   0.561   0.222   1.147
   85SOL    HW1  821   0.599   0.138   1.184
   85SOL    HW2  822   0.473   0.241   1.191
   86SOL     OW  823   0.866   0.454   0.642
   86SOL    HW1  824   0.834   0.526   0.580
   86SOL    HW2  825   0.890   0.373   0.589
   87SOL     OW  826   1.017   0.039   0.753
   87SOL    HW1  827   0.945   0.044   0.684
   87SOL    HW2  828   0.993  -0.030   0.822
   88SOL     OW  829   1.429   1.173   0.867
   88SOL    HW1  830   1.374   1.089   0.860
   88SOL    HW2  831   1.455   1.202   0.775
   89SOL     OW  832   1.466   0.590   0.992
   89SOL    HW1  833   1.436   0.495   0.999
   89SOL    HW2  834   1.539   0.606   1.058
   90SOL     OW  835   1.857   0.833   0.377
   90SOL    HW1  836   1.899   0.769   0.441
   90SOL    HW2  837   1.819   0.782   0.299
   91SOL     OW  838   0.488   1.385   0.174
   91SOL    HW1  839   0.401   1.370   0.221
   91SOL    HW2  840   0.471   1.411   0.079
   92SOL     OW  841   1.664   1.280   0.657
   92SOL    HW1  842   1.763   1.288   0.671
   92SOL    HW2  843   1.619   1.364   0.688
   93SOL     OW  844   1.390   0.575   0.078
   93SOL    HW1  845   1.336   0.554   0.159
   93SOL    HW2  846   1.481   0.534   0.087
   94SOL     OW  847   0.527   0.256   0.328
   94SOL    HW1  848   0.554   0.197   0.253
   94SOL    HW2  849   0.527   0.351   0.297
   95SOL     OW  850   1.754   1.223   1.588
   95SOL    HW1  851   1.845   1.184   1.575
   95SOL    HW2  852   1.762   1.319   1.612
   96SOL     OW  853   1.064   1.347   1.340
   96SOL    HW1  854   0.984   1.324   1.395
   96SOL    HW2  855   1.147   1.321   1.389
   97SOL     OW  856   1.592   1.629   1.625
   97SOL    HW1  857   1.619   1.663   1.535
   97SOL    HW2  858   1.671   1.591   1.671
   98SOL     OW  859   1.111   1.195   1.100
   98SOL    HW1  860   1.071   1.239   1.181
   98SOL    HW2  861   1.070   1.232   1.017
   99SOL     OW  862   1.638   1.099   1.079
   99SOL    HW1  863   1.643   1.180   1.138
   99SOL    HW2  864   1.552   1.101   1.028
  100SOL     OW  865   0.915   0.089   1.402
  100SOL    HW1  866   0.940   0.069   1.307
  100SOL    HW2  867   0.987   0.145   1.444
  101SOL     OW  868   0.980   1.116   1.719
  101SOL    HW1  869   0.881   1.122   1.729
  101SOL    HW2  870   1.003   1.036   1.663
  102SOL     OW  871   0.705   1.050   0.368
  102SOL    HW1  872   0.691   1.057   0.467
  102SOL    HW2  873   0.789   0.999   0.350
  103SOL     OW  874   0.410   0.813   1.251
  103SOL    HW1  875   0.496   0.825   1.301
  103SOL    HW2  876   0.368   0.726   1.278
  104SOL     OW  877   1.274   0.386   1.262
  104SOL    HW1  878   1.295   0.460   1.326
  104SOL    HW2  879   1.185   0.403   1.219
  105SOL     OW  880   0.064   1.564   1.331
  105SOL    HW1  881   0.018   1.646   1.297
  105SOL    HW2  882   0.162   1.583   1.340
  106SOL     OW  883   0.367   1.100   0.501
  106SOL    HW1  884   0.360   1.183   0.445
  106SOL    HW2  885   0.371   1.020   0.441
  107SOL     OW  886   0.566   0.537   0.865
  107SOL    HW1  887   0.578   0.603   0.791
  107SOL    HW2  888   0.612   0.571   0.948
  108SOL     OW  889   1.252   1.348   0.388
  108SOL    HW1  890   1.302   1.425   0.428
  108SOL    HW2  891   1.157   1.350   0.420
  109SOL     OW  892   1.272   1.445   1.142
  109SOL    HW1  893   1.319   1.458   1.229
  109SOL    HW2  894   1.206   1.371   1.151
  110SOL     OW  895   1.582   0.639   0.472
  110SOL    HW1  896   1.551   0.700   0.545
  110SOL    HW2  897   1.632   0.691   0.403
  111SOL     OW  898   0.354   1.510   1.329
  111SOL    HW1  899   0.333   1.466   1.242
  111SOL    HW2  900   0.451   1.536   1.332
  112SOL     OW  901   0.402   0.751   1.598
  112SOL    HW1  902   0.470   0.806   1.551
  112SOL    HW2  903   0.442   0.663   1.625
  113SOL     OW  904   1.587   0.779   1.670
  113SOL    HW1  905   1.495   0.817   1.665
  113SOL    HW2  906   1.647   0.826   1.605
  114SOL     OW  907   1.013   0.105   1.770
  114SOL    HW1  908   1.019   0.190   1.718
  114SOL    HW2  909   1.045   0.029   1.713
  115SOL     OW  910   0.504   0.050   1.740
  115SOL    HW1  911   0.462  -0.007   1.670
  115SOL    HW2  912   0.438   0.119   1.772
  116SOL     OW  913   0.573   0.870   1.029
  116SOL    HW1  914   0.617   0.959   1.020
  116SOL    HW2  915   0.510   0.870   1.106
  117SOL     OW  916   1.360   0.862   1.045
  117SOL    HW1  917   1.285   0.862   0.979
  117SOL    HW2  918   1.397   0.770   1.054
  118SOL     OW  919   1.209   0.525   0.275
  118SOL    HW1  920   1.222   0.441   0.329
  118SOL    HW2  921   1.180   0.599   0.335
  119SOL     OW  922   0.307   0.213   1.231
  119SOL    HW1  923   0.284   0.250   1.321
  119SOL    HW2  924   0.277   0.118   1.225
  120SOL     OW  925   0.037   1.310   1.282
  120SOL    HW1  926   0.090   1.261   1.350
  120SOL    HW2  927   0.059   1.408   1.287
  121SOL     OW  928   0.732   0.634   1.064
  121SOL    HW1  929   0.791   0.608   0.988
  121SOL    HW2  930   0.704   0.730   1.053
  122SOL     OW  931   1.728   0.935   1.854
  122SOL    HW1  932   1.682   0.928   1.765
  122SOL    HW2  933   1.666   0.979   1.920
  123SOL     OW  934   0.307   0.063   0.618
  123SOL    HW1  935   0.296   0.157   0.651
  123SOL    HW2  936   0.302   0.000   0.695
  124SOL     OW  937   1.622   0.367   0.374
  124SOL    HW1  938   1.624   0.291   0.438
  124SOL    HW2  939   1.574   0.444   0.414
  125SOL     OW  940   1.023   0.766   0.966
  125SOL    HW1  941   1.038   0.787   1.062
  125SOL    HW2  942   0.993   0.671   0.957
  126SOL     OW  943   0.980   1.573   1.700
  126SOL    HW1  944   0.960   1.617   1.612
  126SOL    HW2  945   1.019   1.482   1.684
  127SOL     OW  946   1.859   1.518   1.605
  127SOL    HW1  947   1.873   1.545   1.510
  127SOL    HW2  948   1.942   1.540   1.658
  128SOL     OW  949   0.350   0.898   1.804
  128SOL    HW1  950   0.426   0.942   1.852
  128SOL    HW2  951   0.385   0.851   1.722
  129SOL     OW  952   1.540   0.274   0.125
  129SOL    HW1  953   1.479   0.199   0.148
  129SOL    HW2  954   1.562   0.326   0.208
  130SOL     OW  955   1.303   0.838   0.042
  130SOL    HW1  956   1.337   0.745   0.057
  130SOL    HW2  957   1.321   0.865  -0.053
  131SOL     OW  958   1.068   1.333   0.849
  131SOL    HW1  959   1.075   1.249   0.794
  131SOL    HW2  960   1.130   1.402   0.813
  132SOL     OW  961   0.319   0.810   0.949
  132SOL    HW1  962   0.412   0.846   0.954
  132SOL    HW2  963   0.313   0.725   1.001
  133SOL     OW  964   0.339   0.509   1.006
  133SOL    HW1  965   0.287   0.426   0.989
  133SOL    HW2  966   0.416   0.514   0.942
  134SOL     OW  967   1.138   0.380   1.678
  134SOL    HW1  968   1.093   0.443   1.742
  134SOL    HW2  969   1.231   0.411   1.661
  135SOL     OW  970   1.160   0.207   1.477
  135SOL    HW1  971   1.160   0.271   1.554
  135SOL    HW2  972   1.188   0.255   1.394
  136SOL     OW  973   0.008   1.326   0.200
  136SOL    HW1  974  -0.085   1.347   0.169
  136SOL    HW2  975   0.018   1.227   0.213
  137SOL     OW  976   0.088   1.801   0.927
  137SOL    HW1  977   0.046   1.715   0.900
  137SOL    HW2  978   0.182   1.804   0.893
  138SOL     OW  979   0.504   1.568   0.910
  138SOL    HW1  980   0.570   1.642   0.919
  138SOL    HW2  981   0.548   1.489   0.868
  139SOL     OW  982   1.002   0.796   1.238
  139SOL    HW1  983   1.043   0.764   1.324
  139SOL    HW2  984   0.906   0.769   1.235
  140SOL     OW  985   0.040   0.544   1.114
  140SOL    HW1  986   0.125   0.511   1.073
  140SOL    HW2  987   0.053   0.559   1.212
  141SOL     OW  988   0.189   0.520   1.722
  141SOL    HW1  989   0.248   0.480   1.652
  141SOL    HW2  990   0.131   0.591   1.681
  142SOL     OW  991   1.369   0.950   1.660
  142SOL    HW1  992   1.408   1.039   1.680
  142SOL    HW2  993   1.379   0.930   1.563
  143SOL     OW  994   0.815   0.572   0.325
  143SOL    HW1  995   0.822   0.483   0.279
  143SOL    HW2  996   0.721   0.606   0.317
  144SOL     OW  997   1.657   0.604   1.206
  144SOL    HW1  998   1.619   0.535   1.268
  144SOL    HW2  999   1.739   0.568   1.162
  145SOL     OW 1000   0.252   1.564   1.744
  145SOL    HW1 1001   0.222   1.621   1.820
  145SOL    HW2 1002   0.245   1.467   1.770
  146SOL     OW 1003   0.671   0.464   1.269
  146SOL    HW1 1004   0.637   0.375   1.239
  146SOL    HW2 1005   0.697   0.518   1.189
  147SOL     OW 1006   0.930   1.678   1.465
  147SOL    HW1 1007   0.906   1.660   1.370
  147SOL    HW2 1008   0.960   1.772   1.475
  148SOL     OW 1009   0.473   0.500   0.191
  148SOL    HW1 1010   0.534   0.580   0.195
  148SOL    HW2 1011   0.378   0.531   0.198
  149SOL     OW 1012   0.159   1.137   1.466
  149SOL    HW1 1013   0.181   1.076   1.542
  149SOL    HW2 1014   0.169   1.088   1.380
  150SOL     OW 1015   1.347   1.059   1.234
  150SOL    HW1 1016   1.371   0.996   1.160
  150SOL    HW2 1017   1.257   1.099   1.216
  151SOL     OW 1018   1.302   0.855   0.309
  151SOL    HW1 1019   1.216   0.824   0.351
  151SOL    HW2 1020   1.298   0.841   0.210
  152SOL     OW 1021   1.759   1.747   1.154
  152SOL    HW1 1022   1.820   1.777   1.081
  152SOL    HW2 1023   1.721   1.658   1.132
  153SOL     OW 1024   1.252   1.731   1.128
  153SOL    HW1 1025   1.336   1.736   1.074
  153SOL    HW2 1026   1.229   1.635   1.146
  154SOL     OW 1027   0.083   1.258   1.022
  154SOL    HW1 1028   0.078   1.257   1.122
  154SOL    HW2 1029   0.000   1.217   0.984
  155SOL     OW 1030   0.688   1.662   1.716
  155SOL    HW1 1031   0.632   1.743   1.725
  155SOL    HW2 1032   0.740   1.666   1.630
  156SOL     OW 1033   0.903   0.086   0.133
  156SOL    HW1 1034   0.954   0.087   0.047
  156SOL    HW2 1035   0.959   0.044   0.204
  157SOL     OW 1036   1.726   0.135   0.523
  157SOL    HW1 1037   1.799   0.118   0.456
  157SOL    HW2 1038   1.695   0.048   0.561
  158SOL     OW 1039   1.388   1.573   0.477
  158SOL    HW1 1040   1.455   1.585   0.403
  158SOL    HW2 1041   1.348   1.662   0.500
  159SOL     OW 1042   0.130   1.794   1.851
  159SOL    HW1 1043   0.089   1.720   1.904
  159SOL    HW2 1044   0.194   1.845   1.909
  160SOL     OW 1045   1.280   0.927   0.672
  160SOL    HW1 1046   1.340   0.846   0.674
  160SOL    HW2 1047   1.320   0.996   0.612
  161SOL     OW 1048   0.830   1.273   1.422
  161SOL    HW1 1049   0.825   1.306   1.517
  161SOL    HW2 1050   0.744   1.292   1.376
  162SOL     OW 1051   0.672   1.616   0.154
  162SOL    HW1 1052   0.681   1.626   0.055
  162SOL    HW2 1053   0.632   1.527   0.175
  163SOL     OW 1054   1.650   1.720   1.394
  163SOL    HW1 1055   1.703   1.730   1.310
  163SOL    HW2 1056   1.623   1.810   1.428
  164SOL     OW 1057   1.841   0.175   0.963
  164SOL    HW1 1058   1.880   0.090   0.927
  164SOL    HW2 1059   1.743   0.177   0.944
  165SOL     OW 1060   0.263   0.326   0.720
  165SOL    HW1 1061   0.184   0.377   0.686
  165SOL    HW2 1062   0.254   0.311   0.818
  166SOL     OW 1063   1.194   1.612   0.031
  166SOL    HW1 1064   1.200   1.519   0.068
  166SOL    HW2 1065   1.135   1.612  -0.049
  167SOL     OW 1066   0.822   1.002   1.372
  167SOL    HW1 1067   0.862   1.001   1.280
  167SOL    HW2 1068   0.832   1.094   1.412
  168SOL     OW 1069   0.916   0.910   0.291
  168SOL    HW1 1070   0.979   0.948   0.223
  168SOL    HW2 1071   0.956   0.827   0.330
  169SOL     OW 1072   1.504   1.607   0.044
  169SOL    HW1 1073   1.412   1.644   0.051
  169SOL    HW2 1074   1.542   1.627  -0.046
  170SOL     OW 1075   0.372   1.288   1.490
  170SOL    HW1 1076   0.359   1.381   1.456
  170SOL    HW2 1077   0.288   1.236   1.477
  171SOL     OW 1078   1.614   1.292   1.289
  171SOL    HW1 1079   1.674   1.295   1.369
  171SOL    HW2 1080   1.539   1.356   1.302
  172SOL     OW 1081   1.039   1.098   0.696
  172SOL    HW1 1082   0.969   1.051   0.750
  172SOL    HW2 1083   1.098   1.030   0.653
  173SOL     OW 1084   1.014   0.236   0.971
  173SOL    HW1 1085   1.006   0.200   0.878
  173SOL    HW2 1086   1.012   0.160   1.036
  174SOL     OW 1087   0.590   1.487   0.491
  174SOL    HW1 1088   0.632   1.429   0.421
  174SOL    HW2 1089   0.546   1.566   0.447
  175SOL     OW 1090   1.709   0.385   1.381
  175SOL    HW1 1091   1.782   0.454   1.385
  175SOL    HW2 1092   1.737   0.310   1.322
  176SOL     OW 1093   0.255   1.348   0.290
  176SOL    HW1 1094   0.159   1.349   0.263
  176SOL    HW2 1095   0.267   1.401   0.374
  177SOL     OW 1096   0.105   1.013   1.726
  177SOL    HW1 1097   0.028   0.980   1.780
  177SOL    HW2 1098   0.190   0.983   1.768
  178SOL     OW 1099   0.672   0.203   1.489
  178SOL    HW1 1100   0.762   0.187   1.449
  178SOL    HW2 1101   0.680   0.208   1.588
  179SOL     OW 1102   0.075   0.345   0.033
  179SOL    HW1 1103  -0.017   0.317   0.004
  179SOL    HW2 1104   0.106   0.422  -0.023
  180SOL     OW 1105   1.440   0.856   1.398
  180SOL    HW1 1106   1.383   0.908   1.335
  180SOL    HW2 1107   1.536   0.868   1.374
  181SOL     OW 1108   0.072   0.166   0.318
  181SOL    HW1 1109   0.055   0.249   0.264
  181SOL    HW2 1110   0.162   0.129   0.296
  182SOL     OW 1111   1.183   1.335   0.119
  182SOL    HW1 1112   1.084   1.324   0.121
  182SOL    HW2 1113   1.217   1.350   0.212
  183SOL     OW 1114   0.613   0.842   1.431
  183SOL    HW1 1115   0.669   0.923   1.414
  183SOL    HW2 1116   0.672   0.762   1.434
  184SOL     OW 1117   1.493   1.767   0.959
  184SOL    HW1 1118   1.526   1.831   0.890
  184SOL    HW2 1119   1.559   1.761   1.034
  185SOL     OW 1120   0.716   0.565   1.708
  185SOL    HW1 1121   0.735   0.630   1.782
  185SOL    HW2 1122   0.776   0.485   1.717
  186SOL     OW 1123   1.450   1.220   1.633
  186SOL    HW1 1124   1.441   1.210   1.732
  186SOL    HW2 1125   1.546   1.213   1.607
  187SOL     OW 1126   0.390   1.741   1.560
  187SOL    HW1 1127   0.299   1.782   1.558
  187SOL    HW2 1128   0.383   1.647   1.592
  188SOL     OW 1129   1.674   0.883   1.254
  188SOL    HW1 1130   1.647   0.794   1.217
  188SOL    HW2 1131   1.675   0.951   1.181
  189SOL     OW 1132   1.225   0.325   0.449
  189SOL    HW1 1133   1.290   0.251   0.438
  189SOL    HW2 1134   1.245   0.375   0.533
  190SOL     OW 1135   0.594   0.745   0.652
  190SOL    HW1 1136   0.644   0.830   0.633
  190SOL    HW2 1137   0.506   0.747   0.604
  191SOL     OW 1138   1.777   0.342   1.642
  191SOL    HW1 1139   1.760   0.373   1.548
  191SOL    HW2 1140   1.693   0.305   1.680
  192SOL     OW 1141   1.730   0.934   1.517
  192SOL    HW1 1142   1.768   1.025   1.532
  192SOL    HW2 1143   1.722   0.917   1.418
  193SOL     OW 1144   0.859   1.374   0.016
  193SOL    HW1 1145   0.813   1.389   0.104
  193SOL    HW2 1146   0.903   1.459  -0.014
  194SOL     OW 1147   0.661   1.790   0.953
  194SOL    HW1 1148   0.615   1.878   0.940
  194SOL    HW2 1149   0.760   1.802   0.946
  195SOL     OW 1150   0.859   0.956   0.861
  195SOL    HW1 1151   0.913   0.887   0.909
  195SOL    HW2 1152   0.827   1.025   0.927
  196SOL     OW 1153   1.083   0.984   0.087
  196SOL    HW1 1154   1.060   1.037   0.005
  196SOL    HW2 1155   1.164   0.928   0.068
  197SOL     OW 1156   1.861   1.569   0.851
  197SOL    HW1 1157   1.790   1.557   0.781
  197SOL    HW2 1158   1.862   1.490   0.911
  198SOL     OW 1159   0.221   1.314   1.844
  198SOL    HW1 1160   0.156   1.241   1.823
  198SOL    HW2 1161   0.225   1.328   1.942
  199SOL     OW 1162   0.079   1.240   0.653
  199SOL    HW1 1163   0.078   1.193   0.741
  199SOL    HW2 1164   0.161   1.212   0.602
  200SOL     OW 1165   0.672   1.391   1.624
  200SOL    HW1 1166   0.594   1.341   1.662
  200SOL    HW2 1167   0.669   1.486   1.655
  201SOL     OW 1168   1.824   0.192   1.227
  201SOL    HW1 1169   1.820   0.102   1.271
  201SOL    HW2 1170   1.827   0.181   1.128
  202SOL     OW 1171   0.428   0.424   0.520
  202SOL    HW1 1172   0.458   0.352   0.458
  202SOL    HW2 1173   0.389   0.384   0.603
  203SOL     OW 1174   1.705   1.487   1.104
  203SOL    HW1 1175   1.612   1.462   1.077
  203SOL    HW2 1176   1.731   1.437   1.186
  204SOL     OW 1177   0.317   0.547   1.280
  204SOL    HW1 1178   0.355   0.488   1.352
  204SOL    HW2 1179   0.357   0.521   1.192
  205SOL     OW 1180   0.812   1.586   0.687
  205SOL    HW1 1181   0.844   1.596   0.593
  205SOL    HW2 1182   0.733   1.524   0.689
  206SOL     OW 1183   1.424   0.214   1.112
  206SOL    HW1 1184   1.476   0.149   1.167
  206SOL    HW2 1185   1.375   0.277   1.173
  207SOL     OW 1186   1.001   0.034   1.154
  207SOL    HW1 1187   0.938  -0.038   1.123
  207SOL    HW2 1188   1.094  -0.002   1.154
  208SOL     OW 1189   0.770   1.330   0.301
  208SOL    HW1 1190   0.724   1.243   0.318
  208SOL    HW2 1191   0.861   1.327   0.342
  209SOL     OW 1192   0.618   1.567   1.284
  209SOL    HW1 1193   0.613   1.649   1.341
  209SOL    HW2 1194   0.707   1.564   1.239
  210SOL     OW 1195   1.352   0.052   0.168
  210SOL    HW1 1196   1.387   0.011   0.084
  210SOL    HW2 1197   1.262   0.014   0.188
  211SOL     OW 1198   1.300   0.453   0.691
  211SOL    HW1 1199   1.241   0.533   0.695
  211SOL    HW2 1200   1.315   0.418   0.784
  212SOL     OW 1201   1.593   0.221   0.882
  212SOL    HW1 1202   1.509   0.220   0.936
  212SOL    HW2 1203   1.595   0.304   0.826
  213SOL     OW 1204   0.039   1.077   0.300
  213SOL    HW1 1205   0.138   1.066   0.291
  213SOL    HW2 1206  -0.001   0.991   0.332
  214SOL     OW 1207   0.875   1.646   0.337
  214SOL    HW1 1208   0.798   1.611   0.283
  214SOL    HW2 1209   0.843   1.717   0.399
  215SOL     OW 1210   0.230   0.628   1.975
  215SOL    HW1 1211   0.137   0.626   2.012
  215SOL    HW2 1212   0.231   0.589   1.883
  216SOL     OW 1213   0.225   0.275   2.858
  216SOL    HW1 1214   0.260   0.258   2.950
  216SOL    HW2 1215   0.137   0.230   2.846
  217SOL     OW 1216   0.019   0.368   2.509
  217SOL    HW1 1217  -0.063   0.411   2.548
  217SOL    HW2 1218  -0.009   0.295   2.446
  218SOL     OW 1219   0.569   1.275   3.027
  218SOL    HW1 1220   0.476   1.268   2.990
  218SOL    HW2 1221   0.580   1.364   3.071
  219SOL     OW 1222   1.555   1.511   2.565
  219SOL    HW1 1223   1.498   1.495   2.646
  219SOL    HW2 1224   1.496   1.521   2.485
  220SOL     OW 1225   1.135   0.703   2.579
  220SOL    HW1 1226   1.192   0.781   2.554
  220SOL    HW2 1227   1.075   0.729   2.655
  221SOL     OW 1228   1.755   0.607   2.093
  221SOL    HW1 1229   1.743   0.594   1.994
  221SOL    HW2 1230   1.725   0.526   2.142
  222SOL     OW 1231   0.768   1.144   2.885
  222SOL    HW1 1232   0.690   1.161   2.945
  222SOL    HW2 1233   0.802   1.231   2.849
  223SOL     OW 1234   0.850   0.798   3.685
  223SOL    HW1 1235   0.846   0.874   3.750
  223SOL    HW2 1236   0.872   0.834   3.594
  224SOL     OW 1237   0.685   1.012   2.527
  224SOL    HW1 1238   0.754   0.996   2.597
  224SOL    HW2 1239   0.612   1.069   2.565
  225SOL     OW 1240   0.686   1.161   3.665
  225SOL    HW1 1241   0.746   1.240   3.679
  225SOL    HW2 1242   0.600   1.192   3.624
  226SOL     OW 1243   0.335   1.435   2.923
  226SOL    HW1 1244   0.257   1.404   2.870
  226SOL    HW2 1245   0.393   1.493   2.866
  227SOL     OW 1246   1.460   1.505   3.201
  227SOL    HW1 1247   1.484   1.599   3.227
  227SOL    HW2 1248   1.444   1.451   3.283
  228SOL     OW 1249   0.438   0.392   3.361
  228SOL    HW1 1250   0.520   0.336   3.370
  228SOL    HW2 1251   0.357   0.334   3.365
  229SOL     OW 1252   1.603   0.447   2.599
  229SOL    HW1 1253   1.529   0.493   2.549
  229SOL    HW2 1254   1.654   0.515   2.652
  230SOL     OW 1255   0.231   1.713   2.345
  230SOL    HW1 1256   0.265   1.790   2.399
  230SOL    HW2 1257   0.275   1.713   2.255
  231SOL     OW 1258   1.127   1.341   3.552
  231SOL    HW1 1259   1.174   1.341   3.640
  231SOL    HW2 1260   1.079   1.254   3.541
  232SOL     OW 1261   0.230   1.434   2.400
  232SOL    HW1 1262   0.204   1.530   2.400
  232SOL    HW2 1263   0.159   1.380   2.445
  233SOL     OW 1264   0.240   1.091   2.748
  233SOL    HW1 1265   0.254   1.007   2.800
  233SOL    HW2 1266   0.185   1.155   2.803
  234SOL     OW 1267   0.620   1.786   3.301
  234SOL    HW1 1268   0.528   1.769   3.336
  234SOL    HW2 1269   0.648   1.878   3.327
  235SOL     OW 1270   0.606   0.964   1.985
  235SOL    HW1 1271   0.613   1.048   1.931
  235SOL    HW2 1272   0.652   0.977   2.073
  236SOL     OW 1273   1.594   0.114   3.342
  236SOL    HW1 1274   1.576   0.181   3.270
  236SOL    HW2 1275   1.591   0.160   3.431
  237SOL     OW 1276   0.122   0.643   2.425
  237SOL    HW1 1277   0.077   0.555   2.442
  237SOL    HW2 1278   0.121   0.697   2.509
  238SOL     OW 1279   1.842   1.767   2.221
  238SOL    HW1 1280   1.896   1.738   2.301
  238SOL    HW2 1281   1.872   1.857   2.192
  239SOL     OW 1282   0.027   1.596   1.979
  239SOL    HW1 1283   0.008   1.500   2.000
  239SOL    HW2 1284  -0.006   1.654   2.054
  240SOL     OW 1285   1.689   0.922   2.474
  240SOL    HW1 1286   1.784   0.893   2.482
  240SOL    HW2 1287   1.681   0.987   2.399
  241SOL     OW 1288   1.641   1.108   2.294
  241SOL    HW1 1289   1.727   1.110   2.242
  241SOL    HW2 1290   1.655   1.155   2.382
  242SOL     OW 1291   0.113   0.737   3.459
  242SOL    HW1 1292   0.201   0.724   3.504
  242SOL    HW2 1293   0.100   0.834   3.437
  243SOL     OW 1294   0.613   1.365   2.588
  243SOL    HW1 1295   0.564   1.278   2.597
  243SOL    HW2 1296   0.590   1.408   2.501
  244SOL     OW 1297   1.293   1.228   3.285
  244SOL    HW1 1298   1.330   1.155   3.227
  244SOL    HW2 1299   1.345   1.233   3.370
  245SOL     OW 1300   0.809   0.004   2.364
  245SOL    HW1 1301   0.849   0.095   2.355
  245SOL    HW2 1302   0.709   0.012   2.370
  246SOL     OW 1303   0.197   0.976   3.126
  246SOL    HW1 1304   0.286   0.931   3.112
  246SOL    HW2 1305   0.124   0.911   3.107
  247SOL     OW 1306   1.525   0.999   2.052
  247SOL    HW1 1307   1.462   0.923   2.065
  247SOL    HW2 1308   1.573   1.017   2.138
  248SOL     OW 1309   1.187   1.792   3.478
  248SOL    HW1 1310   1.211   1.852   3.402
  248SOL    HW2 1311   1.194   1.697   3.448
  249SOL     OW 1312   0.317   0.251   3.663
  249SOL    HW1 1313   0.388   0.322   3.669
  249SOL    HW2 1314   0.229   0.290   3.691
  250SOL     OW 1315   1.466   1.417   2.815
  250SOL    HW1 1316   1.407   1.423   2.895
  250SOL    HW2 1317   1.451   1.329   2.769
  251SOL     OW 1318   1.667   1.714   2.434
  251SOL    HW1 1319   1.626   1.691   2.346
  251SOL    HW2 1320   1.649   1.640   2.499
  252SOL     OW 1321   0.598   0.729   2.132
  252SOL    HW1 1322   0.622   0.798   2.064
  252SOL    HW2 1323   0.520   0.762   2.186
  253SOL     OW 1324   1.281   0.345   2.806
  253SOL    HW1 1325   1.195   0.295   2.793
  253SOL    HW2 1326   1.343   0.291   2.862
  254SOL     OW 1327   1.576   1.662   2.169
  254SOL    HW1 1328   1.665   1.708   2.172
  254SOL    HW2 1329   1.555   1.638   2.074
  255SOL     OW 1330   0.807   0.605   3.327
  255SOL    HW1 1331   0.760   0.602   3.416
  255SOL    HW2 1332   0.756   0.550   3.261
  256SOL     OW 1333   1.394   0.469   3.536
  256SOL    HW1 1334   1.374   0.512   3.624
  256SOL    HW2 1335   1.472   0.407   3.545
  257SOL     OW 1336   0.973   0.890   3.434
  257SOL    HW1 1337   1.019   0.806   3.405
  257SOL    HW2 1338   0.917   0.924   3.359
  258SOL     OW 1339   0.991   0.410   3.104
  258SOL    HW1 1340   0.914   0.444   3.158
  258SOL    HW2 1341   0.957   0.359   3.025
  259SOL     OW 1342   1.041   0.701   2.291
  259SOL    HW1 1343   1.067   0.697   2.387
  259SOL    HW2 1344   0.956   0.650   2.277
  260SOL     OW 1345   0.076   0.811   2.651
  260SOL    HW1 1346   0.175   0.799   2.660
  260SOL    HW2 1347   0.052   0.906   2.672
  261SOL     OW 1348   0.130   1.821   3.433
  261SOL    HW1 1349   0.120   1.806   3.532
  261SOL    HW2 1350   0.044   1.857   3.397
  262SOL     OW 1351   0.865   0.348   2.057
  262SOL    HW1 1352   0.924   0.411   2.008
  262SOL    HW2 1353   0.884   0.254   2.028
  263SOL     OW 1354   1.719   0.585   3.693
  263SOL    HW1 1355   1.693   0.674   3.657
  263SOL    HW2 1356   1.717   0.517   3.620
  264SOL     OW 1357   1.362   1.144   2.407
  264SOL    HW1 1358   1.445   1.115   2.359
  264SOL    HW2 1359   1.313   1.211   2.351
  265SOL     OW 1360   0.550   0.196   2.747
  265SOL    HW1 1361   0.545   0.191   2.847
  265SOL    HW2 1362   0.552   0.292   2.718
  266SOL     OW 1363   1.008   1.456   2.339
  266SOL    HW1 1364   0.962   1.528   2.287
  266SOL    HW2 1365   1.004   1.476   2.437
  267SOL     OW 1366   0.351   1.801   2.715
  267SOL    HW1 1367   0.401   1.715   2.721
  267SOL    HW2 1368   0.416   1.878   2.712
  268SOL     OW 1369   1.795   1.066   2.735
  268SOL    HW1 1370   1.733   1.051   2.659
  268SOL    HW2 1371   1.743   1.077   2.820
  269SOL     OW 1372   1.227   1.550   3.368
  269SOL    HW1 1373   1.233   1.473   3.432
  269SOL    HW2 1374   1.175   1.524   3.288
  270SOL     OW 1375   0.321   0.943   2.104
  270SOL    HW1 1376   0.403   0.982   2.062
  270SOL    HW2 1377   0.294   0.861   2.055
  271SOL     OW 1378   1.458   0.735   2.590
  271SOL    HW1 1379   1.453   0.670   2.665
  271SOL    HW2 1380   1.538   0.794   2.603
  272SOL     OW 1381   0.461   1.266   3.589
  272SOL    HW1 1382   0.411   1.267   3.503
  272SOL    HW2 1383   0.398   1.248   3.665
  273SOL     OW 1384   1.111   1.776   2.099
  273SOL    HW1 1385   1.051   1.714   2.149
  273SOL    HW2 1386   1.142   1.732   2.014
  274SOL     OW 1387   0.202   0.285   3.360
  274SOL    HW1 1388   0.122   0.345   3.347
  274SOL    HW2 1389   0.192   0.236   3.446
  275SOL     OW 1390   1.632   1.377   1.943
  275SOL    HW1 1391   1.600   1.471   1.933
  275SOL    HW2 1392   1.556   1.314   1.931
  276SOL     OW 1393   0.464   1.743   2.185
  276SOL    HW1 1394   0.497   1.782   2.271
  276SOL    HW2 1395   0.540   1.736   2.120
  277SOL     OW 1396   1.400   0.107   2.288
  277SOL    HW1 1397   1.376   0.070   2.198
  277SOL    HW2 1398   1.499   0.123   2.292
  278SOL     OW 1399   0.249   1.785   3.103
  278SOL    HW1 1400   0.306   1.720   3.153
  278SOL    HW2 1401   0.233   1.752   3.010
  279SOL     OW 1402   0.940   1.698   2.766
  279SOL    HW1 1403   1.020   1.641   2.787
  279SOL    HW2 1404   0.891   1.658   2.689
  280SOL     OW 1405   0.382   0.700   2.342
  280SOL    HW1 1406   0.427   0.610   2.339
  280SOL    HW2 1407   0.288   0.689   2.375
  281SOL     OW 1408   1.547   0.222   3.591
  281SOL    HW1 1409   1.542   0.259   3.683
  281SOL    HW2 1410   1.475   0.153   3.579
  282SOL     OW 1411   0.614   0.122   1.979
  282SOL    HW1 1412   0.712   0.100   1.986
  282SOL    HW2 1413   0.583   0.105   1.886
  283SOL     OW 1414   0.781   0.264   3.611
  283SOL    HW1 1415   0.848   0.203   3.654
  283SOL    HW2 1416   0.708   0.283   3.676
  284SOL     OW 1417   0.888   1.514   3.057
  284SOL    HW1 1418   0.865   1.489   2.963
  284SOL    HW2 1419   0.949   1.445   3.096
  285SOL     OW 1420   1.351   0.590   3.295
  285SOL    HW1 1421   1.379   0.547   3.380
  285SOL    HW2 1422   1.376   0.686   3.296
  286SOL     OW 1423   0.803   1.402   2.786
  286SOL    HW1 1424   0.893   1.416   2.744
  286SOL    HW2 1425   0.732   1.404   2.715
  287SOL     OW 1426   0.922   0.503   2.761
  287SOL    HW1 1427   0.897   0.494   2.665
  287SOL    HW2 1428   0.970   0.421   2.792
  288SOL     OW 1429   0.539   0.064   2.374
  288SOL    HW1 1430   0.458   0.065   2.432
  288SOL    HW2 1431   0.542   0.147   2.319
  289SOL     OW 1432   1.434   1.188   1.903
  289SOL    HW1 1433   1.466   1.112   1.960
  289SOL    HW2 1434   1.342   1.215   1.933
  290SOL     OW 1435   0.297   0.035   2.033
  290SOL    HW1 1436   0.346   0.119   2.012
  290SOL    HW2 1437   0.359  -0.030   2.078
  291SOL     OW 1438   0.935   0.236   2.342
  291SOL    HW1 1439   0.887   0.277   2.264
  291SOL    HW2 1440   1.034   0.234   2.323
  292SOL     OW 1441   1.076   0.683   3.326
  292SOL    HW1 1442   0.996   0.622   3.329
  292SOL    HW2 1443   1.157   0.630   3.302
  293SOL     OW 1444   1.227   1.570   2.655
  293SOL    HW1 1445   1.248   1.644   2.590
  293SOL    HW2 1446   1.295   1.570   2.728
  294SOL     OW 1447   0.459   1.152   2.603
  294SOL    HW1 1448   0.388   1.125   2.668
  294SOL    HW2 1449   0.433   1.124   2.510
  295SOL     OW 1450   1.271   1.797   2.453
  295SOL    HW1 1451   1.315   1.861   2.389
  295SOL    HW2 1452   1.221   1.849   2.523
  296SOL     OW 1453   1.032   0.549   1.878
  296SOL    HW1 1454   0.991   0.631   1.839
  296SOL    HW2 1455   1.096   0.575   1.951
  297SOL     OW 1456   0.078   0.556   3.248
  297SOL    HW1 1457   0.170   0.555   3.207
  297SOL    HW2 1458   0.072   0.630   3.315
  298SOL     OW 1459   0.561   0.222   3.009
  298SOL    HW1 1460   0.599   0.138   3.046
  298SOL    HW2 1461   0.473   0.241   3.053
  299SOL     OW 1462   0.866   0.454   2.504
  299SOL    HW1 1463   0.834   0.526   2.442
  299SOL    HW2 1464   0.890   0.373   2.451
  300SOL     OW 1465   1.017   0.039   2.615
  300SOL    HW1 1466   0.945   0.044   2.546
  300SOL    HW2 1467   0.993  -0.030   2.684
  301SOL     OW 1468   1.429   1.173   2.729
  301SOL    HW1 1469   1.374   1.089   2.722
  301SOL    HW2 1470   1.455   1.202   2.637
  302SOL     OW 1471   1.466   0.590   2.854
  302SOL    HW1 1472   1.436   0.495   2.861
  302SOL    HW2 1473   1.539   0.606   2.920
  303SOL     OW 1474   1.857   0.833   2.239
  303SOL    HW1 1475   1.899   0.769   2.303
  303SOL    HW2 1476   1.819   0.782   2.161
  304SOL     OW 1477   0.488   1.385   2.036
  304SOL    HW1 1478   0.401   1.370   2.083
  304SOL    HW2 1479   0.471   1.411   1.941
  305SOL     OW 1480   1.664   1.280   2.519
  305SOL    HW1 1481   1.763   1.288   2.533
  305SOL    HW2 1482   1.619   1.364   2.550
  306SOL     OW 1483   1.390   0.575   1.940
  306SOL    HW1 1484   1.336   0.554   2.021
  306SOL    HW2 1485   1.481   0.534   1.949
  307SOL     OW 1486   0.527   0.256   2.190
  307SOL    HW1 1487   0.554   0.197   2.115
  307SOL    HW2 1488   0.527   0.351   2.159
  308SOL     OW 1489   1.754   1.223   3.450
  308SOL    HW1 1490   1.845   1.184   3.437
  308SOL    HW2 1491   1.762   1.319   3.474
  309SOL     OW 1492   1.064   1.347   3.202
  309SOL    HW1 1493   0.984   1.324   3.257
  309SOL    HW2 1494   1.147   1.321   3.251
  310SOL     OW 1495   1.592   1.629   3.487
  310SOL    HW1 1496   1.619   1.663   3.397
  310SOL    HW2 1497   1.671   1.591   3.533
  311SOL     OW 1498   1.111   1.195   2.962
  311SOL    HW1 1499   1.071   1.239   3.043
  311SOL    HW2 1500   1.070   1.232   2.879
  312SOL     OW 1501   1.638   1.099   2.941
  312SOL    HW1 1502   1.643   1.180   3.000
  312SOL    HW2 1503   1.552   1.101   2.890
  313SOL     OW 1504   0.915   0.089   3.264
  313SOL    HW1 1505   0.940   0.069   3.169
  313SOL    HW2 1506   0.987   0.145   3.306
  314SOL     OW 1507   0.980   1.116   3.581
  314SOL    HW1 1508   0.881   1.122   3.591
  314SOL    HW2 1509   1.003   1.036   3.525
  315SOL     OW 1510   0.705   1.050   2.230
  315SOL    HW1 1511   0.691   1.057   2.329
  315SOL    HW2 1512   0.789   0.999   2.212
  316SOL     OW 1513   0.410   0.813   3.113
  316SOL    HW1 1514   0.496   0.825   3.163
  316SOL    HW2 1515   0.368   0.726   3.140
  317SOL     OW 1516   1.274   0.386   3.124
  317SOL    HW1 1517   1.295   0.460   3.188
  317SOL    HW2 1518   1.185   0.403   3.081
  318SOL     OW 1519   0.064   1.564   3.193
  318SOL    HW1 1520   0.018   1.646   3.159
  318SOL    HW2 1521   0.162   1.583   3.202
  319SOL     OW 1522   0.367   1.100   2.363
  319SOL    HW1 1523   0.360   1.183   2.307
  319SOL    HW2 1524   0.371   1.020   2.303
  320SOL     OW 1525   0.566   0.537   2.727
  320SOL    HW1 1526   0.578   0.603   2.653
  320SOL    HW2 1527   0.612   0.571   2.810
  321SOL     OW 1528   1.252   1.348   2.250
  321SOL    HW1 1529   1.302   1.425   2.290
  321SOL    HW2 1530   1.157   1.350   2.282
  322SOL     OW 1531   1.272   1.445   3.004
  322SOL    HW1 1532   1.319   1.458   3.091
  322SOL    HW2 1533   1.206   1.371   3.013
  323SOL     OW 1534   1.582   0.639   2.334
  323SOL    HW1 1535   1.551   0.700   2.407
  323SOL    HW2 1536   1.632   0.691   2.265
  324SOL     OW 1537   0.354   1.510   3.191
  324SOL    HW1 1538   0.333   1.466   3.104
  324SOL    HW2 1539   0.451   1.536   3.194
  325SOL     OW 1540   0.402   0.751   3.460
  325SOL    HW1 1541   0.470   0.806   3.413
  325SOL    HW2 1542   0.442   0.663   3.487
  326SOL     OW 1543   1.587   0.779   3.532
  326SOL    HW1 1544   1.495   0.817   3.527
  326SOL    HW2 1545   1.647   0.826   3.467
  327SOL     OW 1546   1.013   0.105   3.632
  327SOL    HW1 1547   1.019   0.190   3.580
  327SOL    HW2 1548   1.045   0.029   3.575
  328SOL     OW 1549   0.504   0.050   3.602
  328SOL    HW1 1550   0.462  -0.007   3.532
  328SOL    HW2 1551   0.438   0.119   3.634
  329SOL     OW 1552   0.573   0.870   2.891
  329SOL    HW1 1553   0.617   0.959   2.882
  329SOL    HW2 1554   0.510   0.870   2.968
  330SOL     OW 1555   1.360   0.862   2.907
  330SOL    HW1 1556   1.285   0.862   2.841
  330SOL    HW2 1557   1.397   0.770   2.916
  331SOL     OW 1558   1.209   0.525   2.137
  331SOL    HW1 1559   1.222   0.441   2.191
  331SOL    HW2 1560   1.180   0.599   2.197
  332SOL     OW 1561   0.307   0.213   3.093
  332SOL    HW1 1562   0.284   0.250   3.183
  332SOL    HW2 1563   0.277   0.118   3.087
  333SOL     OW 1564   0.037   1.310   3.144
  333SOL    HW1 1565   0.090   1.261   3.212
  333SOL    HW2 1566   0.059   1.408   3.149
  334SOL     OW 1567   0.732   0.634   2.926
  334SOL    HW1 1568   0.791   0.608   2.850
  334SOL    HW2 1569   0.704   0.730   2.915
  335SOL     OW 1570   1.728   0.935   3.716
  335SOL    HW1 1571   1.682   0.928   3.627
  335SOL    HW2 1572   1.666   0.979   3.782
  336SOL     OW 1573   0.307   0.063   2.480
  336SOL    HW1 1574   0.296   0.157   2.513
  336SOL    HW2 1575   0.302   0.000   2.557
  337SOL     OW 1576   1.622   0.367   2.236
  337SOL    HW1 1577   1.624   0.291   2.300
  337SOL    HW2 1578   1.574   0.444   2.276
  338SOL     OW 1579   1.023   0.766   2.828
  338SOL    HW1 1580   1.038   0.787   2.924
  338SOL    HW2 1581   0.993   0.671   2.819
  339SOL     OW 1582   0.980   1.573   3.562
  339SOL    HW1 1583   0.960   1.617   3.474
  339SOL    HW2 1584   1.019   1.482   3.546
  340SOL     OW 1585   1.859   1.518   3.467
  340SOL    HW1 1586   1.873   1.545   3.372
  340SOL    HW2 1587   1.942   1.540   3.520
  341SOL     OW 1588   0.350   0.898   3.666
  341SOL    HW1 1589   0.426   0.942   3.714
  341SOL    HW2 1590   0.385   0.851   3.584
  342SOL     OW 1591   1.540   0.274   1.987
  342SOL    HW1 1592   1.479   0.199   2.010
  342SOL    HW2 1593   1.562   0.326   2.070
  343SOL     OW 1594   1.303   0.838   1.904
  343SOL    HW1 1595   1.337   0.745   1.919
  343SOL    HW2 1596   1.321   0.865   1.809
  344SOL     OW 1597   1.068   1.333   2.711
  344SOL    HW1 1598   1.075   1.249   2.656
  344SOL    HW2 1599   1.130   1.402   2.675
  345SOL     OW 1600   0.319   0.810   2.811
  345SOL    HW1 1601   0.412   0.846   2.816
  345SOL    HW2 1602   0.313   0.725   2.863
  346SOL     OW 1603   0.339   0.509   2.868
  346SOL    HW1 1604   0.287   0.426   2.851
  346SOL    HW2 1605   0.416   0.514   2.804
  347SOL     OW 1606   1.138   0.380   3.540
  347SOL    HW1 1607   1.093   0.443   3.604
  347SOL    HW2 1608   1.231   0.411   3.523
  348SOL     OW 1609   1.160   0.207   3.339
  348SOL    HW1 1610   1.160   0.271   3.416
  348SOL    HW2 1611   1.188   0.255   3.256
  349SOL     OW 1612   0.008   1.326   2.062
  349SOL    HW1 1613  -0.085   1.347   2.031
  349SOL    HW2 1614   0.018   1.227   2.075
  350SOL     OW 1615   0.088   1.801   2.789
  350SOL    HW1 1616   0.046   1.715   2.762
  350SOL    HW2 1617   0.182   1.804   2.755
  351SOL     OW 1618   0.504   1.568   2.772
  351SOL    HW1 1619   0.570   1.642   2.781
  351SOL    HW2 1620   0.548   1.489   2.730
  352SOL     OW 1621   1.002   0.796   3.100
  352SOL    HW1 1622   1.043   0.764   3.186
  352SOL    HW2 1623   0.906   0.769   3.097
  353SOL     OW 1624   0.040   0.544   2.976
  353SOL    HW1 1625   0.125   0.511   2.935
  353SOL    HW2 1626   0.053   0.559   3.074
  354SOL     OW 1627   0.189   0.520   3.584
  354SOL    HW1 1628   0.248   0.480   3.514
  354SOL    HW2 1629   0.131   0.591   3.543
  355SOL     OW 1630   1.369   0.950   3.522
  355SOL    HW1 1631   1.408   1.039   3.542
  355SOL    HW2 1632   1.379   0.930   3.425
  356SOL     OW 1633   0.815   0.572   2.187
  356SOL    HW1 1634   0.822   0.483   2.141
  356SOL    HW2 1635   0.721   0.606   2.179
  357SOL     OW 1636   1.657   0.604   3.068
  357SOL    HW1 1637   1.619   0.535   3.130
  357SOL    HW2 1638   1.739   0.568   3.024
  358SOL     OW 1639   0.252   1.564   3.606
  358SOL    HW1 1640   0.222   1.621   3.682
  358SOL    HW2 1641   0.245   1.467   3.632
  359SOL     OW 1642   0.671   0.464   3.131
  359SOL    HW1 1643   0.637   0.375   3.101
  359SOL    HW2 1644   0.697   0.518   3.051
  360SOL     OW 1645   0.930   1.678   3.327
  360SOL    HW1 1646   0.906   1.660   3.232
  360SOL    HW2 1647   0.960   1.772   3.337
  361SOL     OW 1648   0.473   0.500   2.053
  361SOL    HW1 1649   0.534   0.580   2.057
  361SOL    HW2 1650   0.378   0.531   2.060
  362SOL     OW 1651   0.159   1.137   3.328
  362SOL    HW1 1652   0.181   1.076   3.404
  362SOL    HW2 1653   0.169   1.088   3.242
  363SOL     OW 1654   1.347   1.059   3.096
  363SOL    HW1 1655   1.371   0.996   3.022
  363SOL    HW2 1656   1.257   1.099   3.078
  364SOL     OW 1657   1.302   0.855   2.171
  364SOL    HW1 1658   1.216   0.824   2.213
  364SOL    HW2 1659   1.298   0.841   2.072
  365SOL     OW 1660   1.759   1.747   3.016
  365SOL    HW1 1661   1.820   1.777   2.943
  365SOL    HW2 1662   1.721   1.658   2.994
  366SOL     OW 1663   1.252   1.731   2.990
  366SOL    HW1 1664   1.336   1.736   2.936
  366SOL    HW2 1665   1.229   1.635   3.008
  367SOL     OW 1666   0.083   1.258   2.884
  367SOL    HW1 1667   0.078   1.257   2.984
  367SOL    HW2 1668   0.000   1.217   2.846
  368SOL     OW 1669   0.688   1.662   3.578
  368SOL    HW1 1670   0.632   1.743   3.587
  368SOL    HW2 1671   0.740   1.666   3.492
  369SOL     OW 1672   1.726   0.135   2.385
  369SOL    HW1 1673   1.799   0.118   2.318
  369SOL    HW2 1674   1.695   0.048   2.423
  370SOL     OW 1675   1.388   1.573   2.339
  370SOL    HW1 1676   1.455   1.585   2.265
  370SOL    HW2 1677   1.348   1.662   2.362
  371SOL     OW 1678   0.130   1.794   3.713
  371SOL    HW1 1679   0.089   1.720   3.766
  371SOL    HW2 1680   0.194   1.845   3.771
  372SOL     OW 1681   1.280   0.927   2.534
  372SOL    HW1 1682   1.340   0.846   2.536
  372SOL    HW2 1683   1.320   0.996   2.474
  373SOL     OW 1684   0.830   1.273   3.284
  373SOL    HW1 1685   0.825   1.306   3.379
  373SOL    HW2 1686   0.744   1.292   3.238
  374SOL     OW 1687   0.672   1.616   2.016
  374SOL    HW1 1688   0.681   1.626   1.917
  374SOL    HW2 1689   0.632   1.527   2.037
  375SOL     OW 1690   1.650   1.720   3.256
  375SOL    HW1 1691   1.703   1.730   3.172
  375SOL    HW2 1692   1.623   1.810   3.290
  376SOL     OW 1693   1.841   0.175   2.825
  376SOL    HW1 1694   1.880   0.090   2.789
  376SOL    HW2 1695   1.743   0.177   2.806
  377SOL     OW 1696   0.263   0.326   2.582
  377SOL    HW1 1697   0.184   0.377   2.548
  377SOL    HW2 1698   0.254   0.311   2.680
  378SOL     OW 1699   1.194   1.612   1.893
  378SOL    HW1 1700   1.200   1.519   1.930
  378SOL    HW2 1701   1.135   1.612   1.813
  379SOL     OW 1702   0.822   1.002   3.234
  379SOL    HW1 1703   0.862   1.001   3.142
  379SOL    HW2 1704   0.832   1.094   3.274
  380SOL     OW 1705   0.916   0.910   2.153
  380SOL    HW1 1706   0.979   0.948   2.085
  380SOL    HW2 1707   0.956   0.827   2.192
  381SOL     OW 1708   1.504   1.607   1.906
  381SOL    HW1 1709   1.412   1.644   1.913
  381SOL    HW2 1710   1.542   1.627   1.816
  382SOL     OW 1711   0.372   1.288   3.352
  382SOL    HW1 1712   0.359   1.381   3.318
  382SOL    HW2 1713   0.288   1.236   3.339
  383SOL     OW 1714   1.614   1.292   3.151
  383SOL    HW1 1715   1.674   1.295   3.231
  383SOL    HW2 1716   1.539   1.356   3.164
  384SOL     OW 1717   1.039   1.098   2.558
  384SOL    HW1 1718   0.969   1.051   2.612
  384SOL    HW2 1719   1.098   1.030   2.515
  385SOL     OW 1720   1.014   0.236   2.833
  385SOL    HW1 1721   1.006   0.200   2.740
  385SOL    HW2 1722   1.012   0.160   2.898
  386SOL     OW 1723   0.590   1.487   2.353
  386SOL    HW1 1724   0.632   1.429   2.283
  386SOL    HW2 1725   0.546   1.566   2.309
  387SOL     OW 1726   1.709   0.385   3.243
  387SOL    HW1 1727   1.782   0.454   3.247
  387SOL    HW2 1728   1.737   0.310   3.184
  388SOL     OW 1729   0.255   1.348   2.152
  388SOL    HW1 1730   0.159   1.349   2.125
  388SOL    HW2 1731   0.267   1.401   2.236
  389SOL     OW 1732   0.105   1.013   3.588
  389SOL    HW1 1733   0.028   0.980   3.642
  389SOL    HW2 1734   0.190   0.983   3.630
  390SOL     OW 1735   0.672   0.203   3.351
  390SOL    HW1 1736   0.762   0.187   3.311
  390SOL    HW2 1737   0.680   0.208   3.450
  391SOL     OW 1738   0.075   0.345   1.895
  391SOL    HW1 1739  -0.017   0.317   1.866
  391SOL    HW2 1740   0.106   0.422   1.839
  392SOL     OW 1741   1.440   0.856   3.260
  392SOL    HW1 1742   1.383   0.908   3.197
  392SOL    HW2 1743   1.536   0.868   3.236
  393SOL     OW 1744   0.072   0.166   2.180
  393SOL    HW1 1745   0.055   0.249   2.126
  393SOL    HW2 1746   0.162   0.129   2.158
  394SOL     OW 1747   1.183   1.335   1.981
  394SOL    HW1 1748   1.084   1.324   1.983
  394SOL    HW2 1749   1.217   1.350   2.074
  395SOL     OW 1750   0.613   0.842   3.293
  395SOL    HW1 1751   0.669   0.923   3.276
  395SOL    HW2 1752   0.672   0.762   3.296
  396SOL     OW 1753   1.493   1.767   2.821
  396SOL    HW1 1754   1.526   1.831   2.752
  396SOL    HW2 1755   1.559   1.761   2.896
  397SOL     OW 1756   0.716   0.565   3.570
  397SOL    HW1 1757   0.735   0.630   3.644
  397SOL    HW2 1758   0.776   0.485   3.579
  398SOL     OW 1759   1.450   1.220   3.495
  398SOL    HW1 1760   1.441   1.210   3.594
  398SOL    HW2 1761   1.546   1.213   3.469
  399SOL     OW 1762   0.390   1.741   3.422
  399SOL    HW1 1763   0.299   1.782   3.420
  399SOL    HW2 1764   0.383   1.647   3.454
  400SOL     OW 1765   1.674   0.883   3.116
  400SOL    HW1 1766   1.647   0.794   3.079
  400SOL    HW2 1767   1.675   0.951   3.043
  401SOL     OW 1768   1.225   0.325   2.311
  401SOL    HW1 1769   1.290   0.251   2.300
  401SOL    HW2 1770   1.245   0.375   2.395
  402SOL     OW 1771   0.594   0.745   2.514
  402SOL    HW1 1772   0.644   0.830   2.495
  402SOL    HW2 1773   0.506   0.747   2.466
  403SOL     OW 1774   1.777   0.342   3.504
  403SOL    HW1 1775   1.760   0.373   3.410
  403SOL    HW2 1776   1.693   0.305   3.542
  404SOL     OW 1777   1.730   0.934   3.379
  404SOL    HW1 1778   1.768   1.025   3.394
  404SOL    HW2 1779   1.722   0.917   3.280
  405SOL     OW 1780   0.859   1.374   1.878
  405SOL    HW1 1781   0.813   1.389   1.966
  405SOL    HW2 1782   0.903   1.459   1.848
  406SOL     OW 1783   0.661   1.790   2.815
  406SOL    HW1 1784   0.615   1.878   2.802
  406SOL    HW2 1785   0.760   1.802   2.808
  407SOL     OW 1786   0.859   0.956   2.723
  407SOL    HW1 1787   0.913   0.887   2.771
  407SOL    HW2 1788   0.827   1.025   2.789
  408SOL     OW 1789   1.083   0.984   1.949
  408SOL    HW1 1790   1.060   1.037   1.867
  408SOL    HW2 1791   1.164   0.928   1.930
  409SOL     OW 1792   1.861   1.569   2.713
  409SOL    HW1 1793   1.790   1.557   2.643
  409SOL    HW2 1794   1.862   1.490   2.773
  410SOL     OW 1795   0.221   1.314   3.706
  410SOL    HW1 1796   0.156   1.241   3.685
  410SOL    HW2 1797   0.225   1.328   3.804
  411SOL     OW 1798   0.079   1.240   2.515
  411SOL    HW1 1799   0.078   1.193   2.603
  411SOL    HW2 1800   0.161   1.212   2.464
  412SOL     OW 1801   0.672   1.391   3.486
  412SOL    HW1 1802   0.594   1.341   3.524
  412SOL    HW2 1803   0.669   1.486   3.517
  413SOL     OW 1804   1.824   0.192   3.089
  413SOL    HW1 1805   1.820   0.102   3.133
  413SOL    HW2 1806   1.827   0.181   2.990
  414SOL     OW 1807   0.428   0.424   2.382
  414SOL    HW1 1808   0.458   0.352   2.320
  414SOL    HW2 1809   0.389   0.384   2.465
  415SOL     OW 1810   1.705   1.487   2.966
  415SOL    HW1 1811   1.612   1.462   2.939
  415SOL    HW2 1812   1.731   1.437   3.048
  416SOL     OW 1813   0.317   0.547   3.142
  416SOL    HW1 1814   0.355   0.488   3.214
  416SOL    HW2 1815   0.357   0.521   3.054
  417SOL     OW 1816   0.812   1.586   2.549
  417SOL    HW1 1817   0.844   1.596   2.455
  417SOL    HW2 1818   0.733   1.524   2.551
  418SOL     OW 1819   1.424   0.214   2.974
  418SOL    HW1 1820   1.476   0.149   3.029
  418SOL    HW2 1821   1.375   0.277   3.035
  419SOL     OW 1822   1.001   0.034   3.016
  419SOL    HW1 1823   0.938  -0.038   2.985
  419SOL    HW2 1824   1.094  -0.002   3.016
  420SOL     OW 1825   0.770   1.330   2.163
  420SOL    HW1 1826   0.724   1.243   2.180
  420SOL    HW2 1827   0.861   1.327   2.204
  421SOL     OW 1828   0.618   1.567   3.146
  421SOL    HW1 1829   0.613   1.649   3.203
  421SOL    HW2 1830   0.707   1.564   3.101
  422SOL     OW 1831   1.352   0.052   2.030
  422SOL    HW1 1832   1.387   0.011   1.946
  422SOL    HW2 1833   1.262   0.014   2.050
  423SOL     OW 1834   1.300   0.453   2.553
  423SOL    HW1 1835   1.241   0.533   2.557
  423SOL    HW2 1836   1.315   0.418   2.646
  424SOL     OW 1837   1.593   0.221   2.744
  424SOL    HW1 1838   1.509   0.220   2.798
  424SOL    HW2 1839   1.595   0.304   2.688
  425SOL     OW 1840   0.039   1.077   2.162
  425SOL    HW1 1841   0.138   1.066   2.153
  425SOL    HW2 1842  -0.001   0.991   2.194
  426SOL     OW 1843   0.875   1.646   2.199
  426SOL    HW1 1844   0.798   1.611   2.145
  426SOL    HW2 1845   0.843   1.717   2.261
  427SOL     OW 1846   0.230   0.628   3.837
  427SOL    HW1 1847   0.137   0.626   3.874
  427SOL    HW2 1848   0.231   0.589   3.745
  428SOL     OW 1849   0.225   0.275   4.720
  428SOL    HW1 1850   0.260   0.258   4.812
  428SOL    HW2 1851   0.137   0.230   4.708
  429SOL     OW 1852   0.019   0.368   4.371
  429SOL    HW1 1853  -0.063   0.411   4.410
  429SOL    HW2 1854  -0.009   0.295   4.308
  430SOL     OW 1855   0.569   1.275   4.889
  430SOL    HW1 1856   0.476   1.268   4.852
  430SOL    HW2 1857   0.580   1.364   4.933
  431SOL     OW 1858   1.555   1.511   4.427
  431SOL    HW1 1859   1.498   1.495   4.508
  431SOL    HW2 1860   1.496   1.521   4.347
  432SOL     OW 1861   1.135   0.703   4.441
  432SOL    HW1 1862   1.192   0.781   4.416
  432SOL    HW2 1863   1.075   0.729   4.517
  433SOL     OW 1864   1.755   0.607   3.955
  433SOL    HW1 1865   1.743   0.594   3.856
  433SOL    HW2 1866   1.725   0.526   4.004
  434SOL     OW 1867   0.768   1.144   4.747
  434SOL    HW1 1868   0.690   1.161   4.807
  434SOL    HW2 1869   0.802   1.231   4.711
  435SOL     OW 1870   0.850   0.798   5.547
  435SOL    HW1 1871   0.846   0.874   5.612
  435SOL    HW2 1872   0.872   0.834   5.456
  436SOL     OW 1873   0.685   1.012   4.389
  436SOL    HW1 1874   0.754   0.996   4.459
  436SOL    HW2 1875   0.612   1.069   4.427
  437SOL     OW 1876   0.686   1.161   5.527
  437SOL    HW1 1877   0.746   1.240   5.541
  437SOL    HW2 1878   0.600   1.192   5.486
  438SOL     OW 1879   0.335   1.435   4.785
  438SOL    HW1 1880   0.257   1.404   4.732
  438SOL    HW2 1881   0.393   1.493   4.728
  439SOL     OW 1882   1.460   1.505   5.063
  439SOL    HW1 1883   1.484   1.599   5.089
  439SOL    HW2 1884   1.444   1.451   5.145
  440SOL     OW 1885   0.438   0.392   5.223
  440SOL    HW1 1886   0.520   0.336   5.232
  440SOL    HW2 1887   0.357   0.334   5.227
  441SOL     OW 1888   1.603   0.447   4.461
  441SOL    HW1 1889   1.529   0.493   4.411
  441SOL    HW2 1890   1.654   0.515   4.514
  442SOL     OW 1891   0.231   1.713   4.207
  442SOL    HW1 1892   0.265   1.790   4.261
  442SOL    HW2 1893   0.275   1.713   4.117
  443SOL     OW 1894   1.127   1.341   5.414
  443SOL    HW1 1895   1.174   1.341   5.502
  443SOL    HW2 1896   1.079   1.254   5.403
  444SOL     OW 1897   0.230   1.434   4.262
  444SOL    HW1 1898   0.204   1.530   4.262
  444SOL    HW2 1899   0.159   1.380   4.307
  445SOL     OW 1900   0.240   1.091   4.610
  445SOL    HW1 1901   0.254   1.007   4.662
  445SOL    HW2 1902   0.185   1.155   4.665
  446SOL     OW 1903   0.620   1.786   5.163
  446SOL    HW1 1904   0.528   1.769   5.198
  446SOL    HW2 1905   0.648   1.878   5.189
  447SOL     OW 1906   0.606   0.964   3.847
  447SOL    HW1 1907   0.613   1.048   3.793
  447SOL    HW2 1908   0.652   0.977   3.935
  448SOL     OW 1909   1.594   0.114   5.204
  448SOL    HW1 1910   1.576   0.181   5.132
  448SOL    HW2 1911   1.591   0.160   5.293
  449SOL     OW 1912   0.122   0.643   4.287
  449SOL    HW1 1913   0.077   0.555   4.304
  449SOL    HW2 1914   0.121   0.697   4.371
  450SOL     OW 1915   1.842   1.767   4.083
  450SOL    HW1 1916   1.896   1.738   4.163
  450SOL    HW2 1917   1.872   1.857   4.054
  451SOL     OW 1918   0.027   1.596   3.841
  451SOL    HW1 1919   0.008   1.500   3.862
  451SOL    HW2 1920  -0.006   1.654   3.916
  452SOL     OW 1921   1.689   0.922   4.336
  452SOL    HW1 1922   1.784   0.893   4.344
  452SOL    HW2 1923   1.681   0.987   4.261
  453SOL     OW 1924   1.641   1.108   4.156
  453SOL    HW1 1925   1.727   1.110   4.104
  453SOL    HW2 1926   1.655   1.155   4.244
  454SOL     OW 1927   0.113   0.737   5.321
  454SOL    HW1 1928   0.201   0.724   5.366
  454SOL    HW2 1929   0.100   0.834   5.299
  455SOL     OW 1930   0.613   1.365   4.450
  455SOL    HW1 1931   0.564   1.278   4.459
  455SOL    HW2 1932   0.590   1.408   4.363
  456SOL     OW 1933   1.293   1.228   5.147
  456SOL    HW1 1934   1.330   1.155   5.089
  456SOL    HW2 1935   1.345   1.233   5.232
  457SOL     OW 1936   0.809   0.004   4.226
  457SOL    HW1 1937   0.849   0.095   4.217
  457SOL    HW2 1938   0.709   0.012   4.232
  458SOL     OW 1939   0.197   0.976   4.988
  458SOL    HW1 1940   0.286   0.931   4.974
  458SOL    HW2 1941   0.124   0.911   4.969
  459SOL     OW 1942   1.525   0.999   3.914
  459SOL    HW1 1943   1.462   0.923   3.927
  459SOL    HW2 1944   1.573   1.017   4.000
  460SOL     OW 1945   1.187   1.792   5.340
  460SOL    HW1 1946   1.211   1.852   5.264
  460SOL    HW2 1947   1.194   1.697   5.310
  461SOL     OW 1948   0.317   0.251   5.525
  461SOL    HW1 1949   0.388   0.322   5.531
  461SOL    HW2 1950   0.229   0.290   5.553
  462SOL     OW 1951   1.466   1.417   4.677
  462SOL    HW1 1952   1.407   1.423   4.757
  462SOL    HW2 1953   1.451   1.329   4.631
  463SOL     OW 1954   1.667   1.714   4.296
  463SOL    HW1 1955   1.626   1.691   4.208
  463SOL    HW2 1956   1.649   1.640   4.361
  464SOL     OW 1957   0.598   0.729   3.994
  464SOL    HW1 1958   0.622   0.798   3.926
  464SOL    HW2 1959   0.520   0.762   4.048
  465SOL     OW 1960   1.281   0.345   4.668
  465SOL    HW1 1961   1.195   0.295   4.655
  465SOL    HW2 1962   1.343   0.291   4.724
  466SOL     OW 1963   1.576   1.662   4.031
  466SOL    HW1 1964   1.665   1.708   4.034
  466SOL    HW2 1965   1.555   1.638   3.936
  467SOL     OW 1966   0.807   0.605   5.189
  467SOL    HW1 1967   0.760   0.602   5.278
  467SOL    HW2 1968   0.756   0.550   5.123
  468SOL     OW 1969   1.394   0.469   5.398
  468SOL    HW1 1970   1.374   0.512   5.486
  468SOL    HW2 1971   1.472   0.407   5.407
  469SOL     OW 1972   0.973   0.890   5.296
  469SOL    HW1 1973   1.019   0.806   5.267
  469SOL    HW2 1974   0.917   0.924   5.221
  470SOL     OW 1975   0.991   0.410   4.966
  470SOL    HW1 1976   0.914   0.444   5.020
  470SOL    HW2 1977   0.957   0.359   4.887
  471SOL     OW 1978   1.041   0.701   4.153
  471SOL    HW1 1979   1.067   0.697   4.249
  471SOL    HW2 1980   0.956   0.650   4.139
  472SOL     OW 1981   0.076   0.811   4.513
  472SOL    HW1 1982   0.175   0.799   4.522
  472SOL    HW2 1983   0.052   0.906   4.534
  473SOL     OW 1984   0.130   1.821   5.295
  473SOL    HW1 1985   0.120   1.806   5.394
  473SOL    HW2 1986   0.044   1.857   5.259
  474SOL     OW 1987   0.865   0.348   3.919
  474SOL    HW1 1988   0.924   0.411   3.870
  474SOL    HW2 1989   0.884   0.254   3.890
  475SOL     OW 1990   1.719   0.585   5.555
  475SOL    HW1 1991   1.693   0.674   5.519
  475SOL    HW2 1992   1.717   0.517   5.482
  476SOL     OW 1993   1.362   1.144   4.269
  476SOL    HW1 1994   1.445   1.115   4.221
  476SOL    HW2 1995   1.313   1.211   4.213
  477SOL     OW 1996   0.550   0.196   4.609
  477SOL    HW1 1997   0.545   0.191   4.709
  477SOL    HW2 1998   0.552   0.292   4.580
  478SOL     OW 1999   1.008   1.456   4.201
  478SOL    HW1 2000   0.962   1.528   4.149
  478SOL    HW2 2001   1.004   1.476   4.299
  479SOL     OW 2002   0.351   1.801   4.577
  479SOL    HW1 2003   0.401   1.715   4.583
  479SOL    HW2 2004   0.416   1.878   4.574
  480SOL     OW 2005   1.795   1.066   4.597
  480SOL    HW1 2006   1.733   1.051   4.521
  480SOL    HW2 2007   1.743   1.077   4.682
  481SOL     OW 2008   1.227   1.550   5.230
  481SOL    HW1 2009   1.233   1.473   5.294
  481SOL    HW2 2010   1.175   1.524   5.150
  482SOL     OW 2011   0.321   0.943   3.966
  482SOL    HW1 2012   0.403   0.982   3.924
  482SOL    HW2 2013   0.294   0.861   3.917
  483SOL     OW 2014   1.458   0.735   4.452
  483SOL    HW1 2015   1.453   0.670   4.527
  483SOL    HW2 2016   1.538   0.794   4.465
  484SOL     OW 2017   0.461   1.266   5.451
  484SOL    HW1 2018   0.411   1.267   5.365
  484SOL    HW2 2019   0.398   1.248   5.527
  485SOL     OW 2020   1.111   1.776   3.961
  485SOL    HW1 2021   1.051   1.714   4.011
  485SOL    HW2 2022   1.142   1.732   3.876
  486SOL     OW 2023   0.202   0.285   5.222
  486SOL    HW1 2024   0.122   0.345   5.209
  486SOL    HW2 2025   0.192   0.236   5.308
  487SOL     OW 2026   1.632   1.377   3.805
  487SOL    HW1 2027   1.600   1.471   3.795
  487SOL    HW2 2028   1.556   1.314   3.793
  488SOL     OW 2029   0.464   1.743   4.047
  488SOL    HW1 2030   0.497   1.782   4.133
  488SOL    HW2 2031   0.540   1.736   3.982
  489SOL     OW 2032   1.400   0.107   4.150
  489SOL    HW1 2033   1.376   0.070   4.060
  489SOL    HW2 2034   1.499   0.123   4.154
  490SOL     OW 2035   0.249   1.785   4.965
  490SOL    HW1 2036   0.306   1.720   5.015
  490SOL    HW2 2037   0.233   1.752   4.872
  491SOL     OW 2038   0.940   1.698   4.628
  491SOL    HW1 2039   1.020   1.641   4.649
  491SOL    HW2 2040   0.891   1.658   4.551
  492SOL     OW 2041   0.382   0.700   4.204
  492SOL    HW1 2042   0.427   0.610   4.201
  492SOL    HW2 2043   0.288   0.689   4.237
  493SOL     OW 2044   1.547   0.222   5.453
  493SOL    HW1 2045   1.542   0.259   5.545
  493SOL    HW2 2046   1.475   0.153   5.441
  494SOL     OW 2047   0.614   0.122   3.841
  494SOL    HW1 2048   0.712   0.100   3.848
  494SOL    HW2 2049   0.583   0.105   3.748
  495SOL     OW 2050   0.781   0.264   5.473
  495SOL    HW1 2051   0.848   0.203   5.516
  495SOL    HW2 2052   0.708   0.283   5.538
  496SOL     OW 2053   0.888   1.514   4.919
  496SOL    HW1 2054   0.865   1.489   4.825
  496SOL    HW2 2055   0.949   1.445   4.958
  497SOL     OW 2056   1.351   0.590   5.157
  497SOL    HW1 2057   1.379   0.547   5.242
  497SOL    HW2 2058   1.376   0.686   5.158
  498SOL     OW 2059   0.803   1.402   4.648
  498SOL    HW1 2060   0.893   1.416   4.606
  498SOL    HW2 2061   0.732   1.404   4.577
  499SOL     OW 2062   0.922   0.503   4.623
  499SOL    HW1 2063   0.897   0.494   4.527
  499SOL    HW2 2064   0.970   0.421   4.654
  500SOL     OW 2065   0.539   0.064   4.236
  500SOL    HW1 2066   0.458   0.065   4.294
  500SOL    HW2 2067   0.542   0.147   4.181
  501SOL     OW 2068   1.434   1.188   3.765
  501SOL    HW1 2069   1.466   1.112   3.822
  501SOL    HW2 2070   1.342   1.215   3.795
  502SOL     OW 2071   0.297   0.035   3.895
  502SOL    HW1 2072   0.346   0.119   3.874
  502SOL    HW2 2073   0.359  -0.030   3.940
  503SOL     OW 2074   0.935   0.236   4.204
  503SOL    HW1 2075   0.887   0.277   4.126
  503SOL    HW2 2076   1.034   0.234   4.185
  504SOL     OW 2077   1.076   0.683   5.188
  504SOL    HW1 2078   0.996   0.622   5.191
  504SOL    HW2 2079   1.157   0.630   5.164
  505SOL     OW 2080   1.227   1.570   4.517
  505SOL    HW1 2081   1.248   1.644   4.452
  505SOL    HW2 2082   1.295   1.570   4.590
  506SOL     OW 2083   0.459   1.152   4.465
  506SOL    HW1 2084   0.388   1.125   4.530
  506SOL    HW2 2085   0.433   1.124   4.372
  507SOL     OW 2086   1.271   1.797   4.315
  507SOL    HW1 2087   1.315   1.861   4.251
  507SOL    HW2 2088   1.221   1.849   4.385
  508SOL     OW 2089   1.032   0.549   3.740
  508SOL    HW1 2090   0.991   0.631   3.701
  508SOL    HW2 2091   1.096   0.575   3.813
  509SOL     OW 2092   0.078   0.556   5.110
  509SOL    HW1 2093   0.170   0.555   5.069
  509SOL    HW2 2094   0.072   0.630   5.177
  510SOL     OW 2095   0.561   0.222   4.871
  510SOL    HW1 2096   0.599   0.138   4.908
  510SOL    HW2 2097   0.473   0.241   4.915
  511SOL     OW 2098   0.866   0.454   4.366
  511SOL    HW1 2099   0.834   0.526   4.304
  511SOL    HW2 2100   0.890   0.373   4.313
  512SOL     OW 2101   1.017   0.039   4.477
  512SOL    HW1 2102   0.945   0.044   4.408
  512SOL    HW2 2103   0.993  -0.030   4.546
  513SOL     OW 2104   1.429   1.173   4.591
  513SOL    HW1 2105   1.374   1.089   4.584
  513SOL    HW2 2106   1.455   1.202   4.499
  514SOL     OW 2107   1.466   0.590   4.716
  514SOL    HW1 2108   1.436   0.495   4.723
  514SOL    HW2 2109   1.539   0.606   4.782
  515SOL     OW 2110   1.857   0.833   4.101
  515SOL    HW1 2111   1.899   0.769   4.165
  515SOL    HW2 2112   1.819   0.782   4.023
  516SOL     OW 2113   0.488   1.385   3.898
  516SOL    HW1 2114   0.401   1.370   3.945
  516SOL    HW2 2115   0.471   1.411   3.803
  517SOL     OW 2116   1.664   1.280   4.381
  517SOL    HW1 2117   1.763   1.288   4.395
  517SOL    HW2 2118   1.619   1.364   4.412
  518SOL     OW 2119   1.390   0.575   3.802
  518SOL    HW1 2120   1.336   0.554   3.883
  518SOL    HW2 2121   1.481   0.534   3.811
  519SOL     OW 2122   0.527   0.256   4.052
  519SOL    HW1 2123   0.554   0.197   3.977
  519SOL    HW2 2124   0.527   0.351   4.021
  520SOL     OW 2125   1.754   1.223   5.312
  520SOL    HW1 2126   1.845   1.184   5.299
  520SOL    HW2 2127   1.762   1.319   5.336
  521SOL     OW 2128   1.064   1.347   5.064
  521SOL    HW1 2129   0.984   1.324   5.119
  521SOL    HW2 2130   1.147   1.321   5.113
  522SOL     OW 2131   1.592   1.629   5.349
  522SOL    HW1 2132   1.619   1.663   5.259
  522SOL    HW2 2133   1.671   1.591   5.395
  523SOL     OW 2134   1.111   1.195   4.824
  523SOL    HW1 2135   1.071   1.239   4.905
  523SOL    HW2 2136   1.070   1.232   4.741
  524SOL     OW 2137   1.638   1.099   4.803
  524SOL    HW1 2138   1.643   1.180   4.862
  524SOL    HW2 2139   1.552   1.101   4.752
  525SOL     OW 2140   0.915   0.089   5.126
  525SOL    HW1 2141   0.940   0.069   5.031
  525SOL    HW2 2142   0.987   0.145   5.168
  526SOL     OW 2143   0.980   1.116   5.443
  526SOL    HW1 2144   0.881   1.122   5.453
  526SOL    HW2 2145   1.003   1.036   5.387
  527SOL     OW 2146   0.705   1.050   4.092
  527SOL    HW1 2147   0.691   1.057   4.191
  527SOL    HW2 2148   0.789   0.999   4.074
  528SOL     OW 2149   0.410   0.813   4.975
  528SOL    HW1 2150   0.496   0.825   5.025
  528SOL    HW2 2151   0.368   0.726   5.002
  529SOL     OW 2152   1.274   0.386   4.986
  529SOL    HW1 2153   1.295   0.460   5.050
  529SOL    HW2 2154   1.185   0.403   4.943
  530SOL     OW 2155   0.064   1.564   5.055
  530SOL    HW1 2156   0.018   1.646   5.021
  530SOL    HW2 2157   0.162   1.583   5.064
  531SOL     OW 2158   0.367   1.100   4.225
  531SOL    HW1 2159   0.360   1.183   4.169
  531SOL    HW2 2160   0.371   1.020   4.165
  532SOL     OW 2161   0.566   0.537   4.589
  532SOL    HW1 2162   0.578   0.603   4.515
  532SOL    HW2 2163   0.612   0.571   4.672
  533SOL     OW 2164   1.252   1.348   4.112
  533SOL    HW1 2165   1.302   1.425   4.152
  533SOL    HW2 2166   1.157   1.350   4.144
  534SOL     OW 2167   1.272   1.445   4.866
  534SOL    HW1 2168   1.319   1.458   4.953
  534SOL    HW2 2169   1.206   1.371   4.875
  535SOL     OW 2170   1.582   0.639   4.196
  535SOL    HW1 2171   1.551   0.700   4.269
  535SOL    HW2 2172   1.632   0.691   4.127
  536SOL     OW 2173   0.354   1.510   5.053
  536SOL    HW1 2174   0.333   1.466   4.966
  536SOL    HW2 2175   0.451   1.536   5.056
  537SOL     OW 2176   0.402   0.751   5.322
  537SOL    HW1 2177   0.470   0.806   5.275
  537SOL    HW2 2178   0.442   0.663   5.349
  538SOL     OW 2179   1.587   0.779   5.394
  538SOL    HW1 2180   1.495   0.817   5.389
  538SOL    HW2 2181   1.647   0.826   5.329
  539SOL     OW 2182   1.013   0.105   5.494
  539SOL    HW1 2183   1.019   0.190   5.442
  539SOL    HW2 2184   1.045   0.029   5.437
  540SOL     OW 2185   0.504   0.050   5.464
  540SOL    HW1 2186   0.462  -0.007   5.394
  540SOL    HW2 2187   0.438   0.119   5.496
  541SOL     OW 2188   0.573   0.870   4.753
  541SOL    HW1 2189   0.617   0.959   4.744
  541SOL    HW2 2190   0.510   0.870   4.830
  542SOL     OW 2191   1.360   0.862   4.769
  542SOL    HW1 2192   1.285   0.862   4.703
  542SOL    HW2 2193   1.397   0.770   4.778
  543SOL     OW 2194   1.209   0.525   3.999
  543SOL    HW1 2195   1.222   0.441   4.053
  543SOL    HW2 2196   1.180   0.599   4.059
  544SOL     OW 2197   0.307   0.213   4.955
  544SOL    HW1 2198   0.284   0.250   5.045
  544SOL    HW2 2199   0.277   0.118   4.949
  545SOL     OW 2200   0.037   1.310   5.006
  545SOL    HW1 2201   0.090   1.261   5.074
  545SOL    HW2 2202   0.059   1.408   5.011
  546SOL     OW 2203   0.732   0.634   4.788
  546SOL    HW1 2204   0.791   0.608   4.712
  546SOL    HW2 2205   0.704   0.730   4.777
  547SOL     OW 2206   1.728   0.935   5.578
  547SOL    HW1 2207   1.682   0.928   5.489
  547SOL    HW2 2208   1.666   0.979   5.644
  548SOL     OW 2209   0.307   0.063   4.342
  548SOL    HW1 2210   0.296   0.157   4.375
  548SOL    HW2 2211   0.302   0.000   4.419
  549SOL     OW 2212   1.622   0.367   4.098
  549SOL    HW1 2213   1.624   0.291   4.162
  549SOL    HW2 2214   1.574   0.444   4.138
  550SOL     OW 2215   1.023   0.766   4.690
  550SOL    HW1 2216   1.038   0.787   4.786
  550SOL    HW2 2217   0.993   0.671   4.681
  551SOL     OW 2218   0.980   1.573   5.424
  551SOL    HW1 2219   0.960   1.617   5.336
  551SOL    HW2 2220   1.019   1.482   5.408
  552SOL     OW 2221   1.859   1.518   5.329
  552SOL    HW1 2222   1.873   1.545   5.234
  552SOL    HW2 2223   1.942   1.540   5.382
  553SOL     OW 2224   0.350   0.898   5.528
  553SOL    HW1 2225   0.426   0.942   5.576
  553SOL    HW2 2226   0.385   0.851   5.446
  554SOL     OW 2227   1.540   0.274   3.849
  554SOL    HW1 2228   1.479   0.199   3.872
  554SOL    HW2 2229   1.562   0.326   3.932
  555SOL     OW 2230   1.303   0.838   3.766
  555SOL    HW1 2231   1.337   0.745   3.781
  555SOL    HW2 2232   1.321   0.865   3.671
  556SOL     OW 2233   1.068   1.333   4.573
  556SOL    HW1 2234   1.075   1.249   4.518
  556SOL    HW2 2235   1.130   1.402   4.537
  557SOL     OW 2236   0.319   0.810   4.673
  557SOL    HW1 2237   0.412   0.846   4.678
  557SOL    HW2 2238   0.313   0.725   4.725
  558SOL     OW 2239   0.339   0.509   4.730
  558SOL    HW1 2240   0.287   0.426   4.713
  558SOL    HW2 2241   0.416   0.514   4.666
  559SOL     OW 2242   1.138   0.380   5.402
  559SOL    HW1 2243   1.093   0.443   5.466
  559SOL    HW2 2244   1.231   0.411   5.385
  560SOL     OW 2245   1.160   0.207   5.201
  560SOL    HW1 2246   1.160   0.271   5.278
  560SOL    HW2 2247   1.188   0.255   5.118
  561SOL     OW 2248   0.008   1.326   3.924
  561SOL    HW1 2249  -0.085   1.347   3.893
  561SOL    HW2 2250   0.018   1.227   3.937
  562SOL     OW 2251   0.088   1.801   4.651
  562SOL    HW1 2252   0.046   1.715   4.624
  562SOL    HW2 2253   0.182   1.804   4.617
  563SOL     OW 2254   0.504   1.568   4.634
  563SOL    HW1 2255   0.570   1.642   4.643
  563SOL    HW2 2256   0.548   1.489   4.592
  564SOL     OW 2257   1.002   0.796   4.962
  564SOL    HW1 2258   1.043   0.764   5.048
  564SOL    HW2 2259   0.906   0.769   4.959
  565SOL     OW 2260   0.040   0.544   4.838
  565SOL    HW1 2261   0.125   0.511   4.797
  565SOL    HW2 2262   0.053   0.559   4.936
  566SOL     OW 2263   0.189   0.520   5.446
  566SOL    HW1 2264   0.248   0.480   5.376
  566SOL    HW2 2265   0.131   0.591   5.405
  567SOL     OW 2266   1.369   0.950   5.384
  567SOL    HW1 2267   1.408   1.039   5.404
  567SOL    HW2 2268   1.379   0.930   5.287
  568SOL     OW 2269   0.815   0.572   4.049
  568SOL    HW1 2270   0.822   0.483   4.003
  568SOL    HW2 2271   0.721   0.606   4.041
  569SOL     OW 2272   1.657   0.604   4.930
  569SOL    HW1 2273   1.619   0.535   4.992
  569SOL    HW2 2274   1.739   0.568   4.886
  570SOL     OW 2275   0.252   1.564   5.468
  570SOL    HW1 2276   0.222   1.621   5.544
  570SOL    HW2 2277   0.245   1.467   5.494
  571SOL     OW 2278   0.671   0.464   4.993
  571SOL    HW1 2279   0.637   0.375   4.963
  571SOL    HW2 2280   0.697   0.518   4.913
  572SOL     OW 2281   0.930   1.678   5.189
  572SOL    HW1 2282   0.906   1.660   5.094
  572SOL    HW2 2283   0.960   1.772   5.199
  573SOL     OW 2284   0.473   0.500   3.915
  573SOL    HW1 2285   0.534   0.580   3.919
  573SOL    HW2 2286   0.378   0.531   3.922
  574SOL     OW 2287   0.159   1.137   5.190
  574SOL    HW1 2288   0.181   1.076   5.266
  574SOL    HW2 2289   0.169   1.088   5.104
  575SOL     OW 2290   1.347   1.059   4.958
  575SOL    HW1 2291   1.371   0.996   4.884
  575SOL    HW2 2292   1.257   1.099   4.940
  576SOL     OW 2293   1.302   0.855   4.033
  576SOL    HW1 2294   1.216   0.824   4.075
  576SOL    HW2 2295   1.298   0.841   3.934
  577SOL     OW 2296   1.759   1.747   4.878
  577SOL    HW1 2297   1.820   1.777   4.805
  577SOL    HW2 2298   1.721   1.658   4.856
  578SOL     OW 2299   1.252   1.731   4.852
  578SOL    HW1 2300   1.336   1.736   4.798
  578SOL    HW2 2301   1.229   1.635   4.870
  579SOL     OW 2302   0.083   1.258   4.746
  579SOL    HW1 2303   0.078   1.257   4.846
  579SOL    HW2 2304   0.000   1.217   4.708
  580SOL     OW 2305   0.688   1.662   5.440
  580SOL    HW1 2306   0.632   1.743   5.449
  580SOL    HW2 2307   0.740   1.666   5.354
  581SOL     OW 2308   1.726   0.135   4.247
  581SOL    HW1 2309   1.799   0.118   4.180
  581SOL    HW2 2310   1.695   0.048   4.285
  582SOL     OW 2311   1.388   1.573   4.201
  582SOL    HW1 2312   1.455   1.585   4.127
  582SOL    HW2 2313   1.348   1.662   4.224
  583SOL     OW 2314   0.130   1.794   5.575
  583SOL    HW1 2315   0.089   1.720   5.628
  583SOL    HW2 2316   0.194   1.845   5.633
  584SOL     OW 2317   1.280   0.927   4.396
  584SOL    HW1 2318   1.340   0.846   4.398
  584SOL    HW2 2319   1.320   0.996   4.336
  585SOL     OW 2320   0.830   1.273   5.146
  585SOL    HW1 2321   0.825   1.306   5.241
  585SOL    HW2 2322   0.744   1.292   5.100
  586SOL     OW 2323   0.672   1.616   3.878
  586SOL    HW1 2324   0.681   1.626   3.779
  586SOL    HW2 2325   0.632   1.527   3.899
  587SOL     OW 2326   1.650   1.720   5.118
  587SOL    HW1 2327   1.703   1.730   5.034
  587SOL    HW2 2328   1.623   1.810   5.152
  588SOL     OW 2329   1.841   0.175   4.687
  588SOL    HW1 2330   1.880   0.090   4.651
  588SOL    HW2 2331   1.743   0.177   4.668
  589SOL     OW 2332   0.263   0.326   4.444
  589SOL    HW1 2333   0.184   0.377   4.410
  589SOL    HW2 2334   0.254   0.311   4.542
  590SOL     OW 2335   1.194   1.612   3.755
  590SOL    HW1 2336   1.200   1.519   3.792
  590SOL    HW2 2337   1.135   1.612   3.675
  591SOL     OW 2338   0.822   1.002   5.096
  591SOL    HW1 2339   0.862   1.001   5.004
  591SOL    HW2 2340   0.832   1.094   5.136
  592SOL     OW 2341   0.916   0.910   4.015
  592SOL    HW1 2342   0.979   0.948   3.947
  592SOL    HW2 2343   0.956   0.827   4.054
  593SOL     OW 2344   1.504   1.607   3.768
  593SOL    HW1 2345   1.412   1.644   3.775
  593SOL    HW2 2346   1.542   1.627   3.678
  594SOL     OW 2347   0.372   1.288   5.214
  594SOL    HW1 2348   0.359   1.381   5.180
  594SOL    HW2 2349   0.288   1.236   5.201
  595SOL     OW 2350   1.614   1.292   5.013
  595SOL    HW1 2351   1.674   1.295   5.093
  595SOL    HW2 2352   1.539   1.356   5.026
  596SOL     OW 2353   1.039   1.098   4.420
  596SOL    HW1 2354   0.969   1.051   4.474
  596SOL    HW2 2355   1.098   1.030   4.377
  597SOL     OW 2356   1.014   0.236   4.695
  597SOL    HW1 2357   1.006   0.200   4.602
  597SOL    HW2 2358   1.012   0.160   4.760
  598SOL     OW 2359   0.590   1.487   4.215
  598SOL    HW1 2360   0.632   1.429   4.145
  598SOL    HW2 2361   0.546   1.566   4.171
  599SOL     OW 2362   1.709   0.385   5.105
  599SOL    HW1 2363   1.782   0.454   5.109
  599SOL    HW2 2364   1.737   0.310   5.046
  600SOL     OW 2365   0.255   1.348   4.014
  600SOL    HW1 2366   0.159   1.349   3.987
  600SOL    HW2 2367   0.267   1.401   4.098
  601SOL     OW 2368   0.105   1.013   5.450
  601SOL    HW1 2369   0.028   0.980   5.504
  601SOL    HW2 2370   0.190   0.983   5.492
  602SOL     OW 2371   0.672   0.203   5.213
  602SOL    HW1 2372   0.762   0.187   5.173
  602SOL    HW2 2373   0.680   0.208   5.312
  603SOL     OW 2374   0.075   0.345   3.757
  603SOL    HW1 2375  -0.017   0.317   3.728
  603SOL    HW2 2376   0.106   0.422   3.701
  604SOL     OW 2377   1.440   0.856   5.122
  604SOL    HW1 2378   1.383   0.908   5.059
  604SOL    HW2 2379   1.536   0.868   5.098
  605SOL     OW 2380   0.072   0.166   4.042
  605SOL    HW1 2381   0.055   0.249   3.988
  605SOL    HW2 2382   0.162   0.129   4.020
  606SOL     OW 2383   1.183   1.335   3.843
  606SOL    HW1 2384   1.084   1.324   3.845
  606SOL    HW2 2385   1.217   1.350   3.936
  607SOL     OW 2386   0.613   0.842   5.155
  607SOL    HW1 2387   0.669   0.923   5.138
  607SOL    HW2 2388   0.672   0.762   5.158
  608SOL     OW 2389   1.493   1.767   4.683
  608SOL    HW1 2390   1.526   1.831   4.614
  608SOL    HW2 2391   1.559   1.761   4.758
  609SOL     OW 2392   0.716   0.565   5.432
  609SOL    HW1 2393   0.735   0.630   5.506
  609SOL    HW2 2394   0.776   0.485   5.441
  610SOL     OW 2395   1.450   1.220   5.357
  610SOL    HW1 2396   1.441   1.210   5.456
  610SOL    HW2 2397   1.546   1.213   5.331
  611SOL     OW 2398   0.390   1.741   5.284
  611SOL    HW1 2399   0.299   1.782   5.282
  611SOL    HW2 2400   0.383   1.647   5.316
  612SOL     OW 2401   1.674   0.883   4.978
  612SOL    HW1 2402   1.647   0.794   4.941
  612SOL    HW2 2403   1.675   0.951   4.905
  613SOL     OW 2404   1.225   0.325   4.173
  613SOL    HW1 2405   1.290   0.251   4.162
  613SOL    HW2 2406   1.245   0.375   4.257
  614SOL     OW 2407   0.594   0.745   4.376
  614SOL    HW1 2408   0.644   0.830   4.357
  614SOL    HW2 2409   0.506   0.747   4.328
  615SOL     OW 2410   1.777   0.342   5.366
  615SOL    HW1 2411   1.760   0.373   5.272
  615SOL    HW2 2412   1.693   0.305   5.404
  616SOL     OW 2413   1.730   0.934   5.241
  616SOL    HW1 2414   1.768   1.025   5.256
  616SOL    HW2 2415   1.722   0.917   5.142
  617SOL     OW 2416   0.859   1.374   3.740
  617SOL    HW1 2417   0.813   1.389   3.828
  617SOL    HW2 2418   0.903   1.459   3.710
  618SOL     OW 2419   0.661   1.790   4.677
  618SOL    HW1 2420   0.615   1.878   4.664
  618SOL    HW2 2421   0.760   1.802   4.670
  619SOL     OW 2422   0.859   0.956   4.585
  619SOL    HW1 2423   0.913   0.887   4.633
  619SOL    HW2 2424   0.827   1.025   4.651
  620SOL     OW 2425   1.083   0.984   3.811
  620SOL    HW1 2426   1.060   1.037   3.729
  620SOL    HW2 2427   1.164   0.928   3.792
  621SOL     OW 2428   1.861   1.569   4.575
  621SOL    HW1 2429   1.790   1.557   4.505
  621SOL    HW2 2430   1.862   1.490   4.635
  622SOL     OW 2431   0.221   1.314   5.568
  622SOL    HW1 2432   0.156   1.241   5.547
  622SOL    HW2 2433   0.225   1.328   5.666
  623SOL     OW 2434   0.079   1.240   4.377
  623SOL    HW1 2435   0.078   1.193   4.465
  623SOL    HW2 2436   0.161   1.212   4.326
  624SOL     OW 2437   0.672   1.391   5.348
  624SOL    HW1 2438   0.594   1.341   5.386
  624SOL    HW2 2439   0.669   1.486   5.379
  625SOL     OW 2440   1.824   0.192   4.951
  625SOL    HW1 2441   1.820   0.102   4.995
  625SOL    HW2 2442   1.827   0.181   4.852
  626SOL     OW 2443   0.428   0.424   4.244
  626SOL    HW1 2444   0.458   0.352   4.182
  626SOL    HW2 2445   0.389   0.384   4.327
  627SOL     OW 2446   1.705   1.487   4.828
  627SOL    HW1 2447   1.612   1.462   4.801
  627SOL    HW2 2448   1.731   1.437   4.910
  628SOL     OW 2449   0.317   0.547   5.004
  628SOL    HW1 2450   0.355   0.488   5.076
  628SOL    HW2 2451   0.357   0.521   4.916
  629SOL     OW 2452   0.812   1.586   4.411
  629SOL    HW1 2453   0.844   1.596   4.317
  629SOL    HW2 2454   0.733   1.524   4.413
  630SOL     OW 2455   1.424   0.214   4.836
  630SOL    HW1 2456   1.476   0.149   4.891
  630SOL    HW2 2457   1.375   0.277   4.897
  631SOL     OW 2458   1.001   0.034   4.878
  631SOL    HW1 2459   0.938  -0.038   4.847
  631SOL    HW2 2460   1.094  -0.002   4.878
  632SOL     OW 2461   0.770   1.330   4.025
  632SOL    HW1 2462   0.724   1.243   4.042
  632SOL    HW2 2463   0.861   1.327   4.066
  633SOL     OW 2464   0.618   1.567   5.008
  633SOL    HW1 2465   0.613   1.649   5.065
  633SOL    HW2 2466   0.707   1.564   4.963
  634SOL     OW 2467   1.352   0.052   3.892
  634SOL    HW1 2468   1.387   0.011   3.808
  634SOL    HW2 2469   1.262   0.014   3.912
  635SOL     OW 2470   1.300   0.453   4.415
  635SOL    HW1 2471   1.241   0.533   4.419
  635SOL    HW2 2472   1.315   0.418   4.508
  636SOL     OW 2473   1.593   0.221   4.606
  636SOL    HW1 2474   1.509   0.220   4.660
  636SOL    HW2 2475   1.595   0.304   4.550
  637SOL     OW 2476   0.039   1.077   4.024
  637SOL    HW1 2477   0.138   1.066   4.015
  637SOL    HW2 2478  -0.001   0.991   4.056
  638SOL     OW 2479   0.875   1.646   4.061
  638SOL    HW1 2480   0.798   1.611   4.007
  638SOL    HW2 2481   0.843   1.717   4.123
  639SOL     OW 2482   0.230   0.628   5.699
  639SOL    HW1 2483   0.137   0.626   5.736
  639SOL    HW2 2484   0.231   0.589   5.607
  640SOL     OW 2485   0.225   0.275   6.582
  640SOL    HW1 2486   0.260   0.258   6.674
  640SOL    HW2 2487   0.137   0.230   6.570
  641SOL     OW 2488   0.019   0.368   6.233
  641SOL    HW1 2489  -0.063   0.411   6.272
  641SOL    HW2 2490  -0.009   0.295   6.170
  642SOL     OW 2491   0.569   1.275   6.751
  642SOL    HW1 2492   0.476   1.268   6.714
  642SOL    HW2 2493   0.580   1.364   6.795
  643SOL     OW 2494   1.555   1.511   6.289
  643SOL    HW1 2495   1.498   1.495   6.370
  643SOL    HW2 2496   1.496   1.521   6.209
  644SOL     OW 2497   1.135   0.703   6.303
  644SOL    HW1 2498   1.192   0.781   6.278
  644SOL    HW2 2499   1.075   0.729   6.379
  645SOL     OW 2500   1.755   0.607   5.817
  645SOL    HW1 2501   1.743   0.594   5.718
  645SOL    HW2 2502   1.725   0.526   5.866
  646SOL     OW 2503   0.768   1.144   6.609
  646SOL    HW1 2504   0.690   1.161   6.669
  646SOL    HW2 2505   0.802   1.231   6.573
  647SOL     OW 2506   0.850   0.798   7.409
  647SOL    HW1 2507   0.846   0.874   7.474
  647SOL    HW2 2508   0.872   0.834   7.318
  648SOL     OW 2509   0.685   1.012   6.251
  648SOL    HW1 2510   0.754   0.996   6.321
  648SOL    HW2 2511   0.612   1.069   6.289
  649SOL     OW 2512   0.686   1.161   7.389
  649SOL    HW1 2513   0.746   1.240   7.403
  649SOL    HW2 2514   0.600   1.192   7.348
  650SOL     OW 2515   0.335   1.435   6.647
  650SOL    HW1 2516   0.257   1.404   6.594
  650SOL    HW2 2517   0.393   1.493   6.590
  651SOL     OW 2518   1.460   1.505   6.925
  651SOL    HW1 2519   1.484   1.599   6.951
  651SOL    HW2 2520   1.444   1.451   7.007
  652SOL     OW 2521   0.438   0.392   7.085
  652SOL    HW1 2522   0.520   0.336   7.094
  652SOL    HW2 2523   0.357   0.334   7.089
  653SOL     OW 2524   1.603   0.447   6.323
  653SOL    HW1 2525   1.529   0.493   6.273
  653SOL    HW2 2526   1.654   0.515   6.376
  654SOL     OW 2527   0.231   1.713   6.069
  654SOL    HW1 2528   0.265   1.790   6.123
  654SOL    HW2 2529   0.275   1.713   5.979
  655SOL     OW 2530   1.127   1.341   7.276
  655SOL    HW1 2531   1.174   1.341   7.364
  655SOL    HW2 2532   1.079   1.254   7.265
  656SOL     OW 2533   0.230   1.434   6.124
  656SOL    HW1 2534   0.204   1.530   6.124
  656SOL    HW2 2535   0.159   1.380   6.169
  657SOL     OW 2536   0.240   1.091   6.472
  657SOL    HW1 2537   0.254   1.007   6.524
  657SOL    HW2 2538   0.185   1.155   6.527
  658SOL     OW 2539   0.620   1.786   7.025
  658SOL    HW1 2540   0.528   1.769   7.060
  658SOL    HW2 2541   0.648   1.878   7.051
  659SOL     OW 2542   0.606   0.964   5.709
  659SOL    HW1 2543   0.613   1.048   5.655
  659SOL    HW2 2544   0.652   0.977   5.797
  660SOL     OW 2545   1.594   0.114   7.066
  660SOL    HW1 2546   1.576   0.181   6.994
  660SOL    HW2 2547   1.591   0.160   7.155
  661SOL     OW 2548   0.122   0.643   6.149
  661SOL    HW1 2549   0.077   0.555   6.166
  661SOL    HW2 2550   0.121   0.697   6.233
  662SOL     OW 2551   1.842   1.767   5.945
  662SOL    HW1 2552   1.896   1.738   6.025
  662SOL    HW2 2553   1.872   1.857   5.916
  663SOL     OW 2554   0.027   1.596   5.703
  663SOL    HW1 2555   0.008   1.500   5.724
  663SOL    HW2 2556  -0.006   1.654   5.778
  664SOL     OW 2557   1.689   0.922   6.198
  664SOL    HW1 2558   1.784   0.893   6.206
  664SOL    HW2 2559   1.681   0.987   6.123
  665SOL     OW 2560   1.641   1.108   6.018
  665SOL    HW1 2561   1.727   1.110   5.966
  665SOL    HW2 2562   1.655   1.155   6.106
  666SOL     OW 2563   0.113   0.737   7.183
  666SOL    HW1 2564   0.201   0.724   7.228
  666SOL    HW2 2565   0.100   0.834   7.161
  667SOL     OW 2566   0.613   1.365   6.312
  667SOL    HW1 2567   0.564   1.278   6.321
  667SOL    HW2 2568   0.590   1.408   6.225
  668SOL     OW 2569   1.293   1.228   7.009
  668SOL    HW1 2570   1.330   1.155   6.951
  668SOL    HW2 2571   1.345   1.233   7.094
  669SOL     OW 2572   0.809   0.004   6.088
  669SOL    HW1 2573   0.849   0.095   6.079
  669SOL    HW2 2574   0.709   0.012   6.094
  670SOL     OW 2575   0.197   0.976   6.850
  670SOL    HW1 2576   0.286   0.931   6.836
  670SOL    HW2 2577   0.124   0.911   6.831
  671SOL     OW 2578   1.525   0.999   5.776
  671SOL    HW1 2579   1.462   0.923   5.789
  671SOL    HW2 2580   1.573   1.017   5.862
  672SOL     OW 2581   1.187   1.792   7.202
  672SOL    HW1 2582   1.211   1.852   7.126
  672SOL    HW2 2583   1.194   1.697   7.172
  673SOL     OW 2584   0.317   0.251   7.387
  673SOL    HW1 2585   0.388   0.322   7.393
  673SOL    HW2 2586   0.229   0.290   7.415
  674SOL     OW 2587   1.466   1.417   6.539
  674SOL    HW1 2588   1.407   1.423   6.619
  674SOL    HW2 2589   1.451   1.329   6.493
  675SOL     OW 2590   1.667   1.714   6.158
  675SOL    HW1 2591   1.626   1.691   6.070
  675SOL    HW2 2592   1.649   1.640   6.223
  676SOL     OW 2593   0.598   0.729   5.856
  676SOL    HW1 2594   0.622   0.798   5.788
  676SOL    HW2 2595   0.520   0.762   5.910
  677SOL     OW 2596   1.281   0.345   6.530
  677SOL    HW1 2597   1.195   0.295   6.517
  677SOL    HW2 2598   1.343   0.291   6.586
  678SOL     OW 2599   1.576   1.662   5.893
  678SOL    HW1 2600   1.665   1.708   5.896
  678SOL    HW2 2601   1.555   1.638   5.798
  679SOL     OW 2602   0.807   0.605   7.051
  679SOL    HW1 2603   0.760   0.602   7.140
  679SOL    HW2 2604   0.756   0.550   6.985
  680SOL     OW 2605   1.394   0.469   7.260
  680SOL    HW1 2606   1.374   0.512   7.348
  680SOL    HW2 2607   1.472   0.407   7.269
  681SOL     OW 2608   0.973   0.890   7.158
  681SOL    HW1 2609   1.019   0.806   7.129
  681SOL    HW2 2610   0.917   0.924   7.083
  682SOL     OW 2611   0.991   0.410   6.828
  682SOL    HW1 2612   0.914   0.444   6.882
  682SOL    HW2 2613   0.957   0.359   6.749
  683SOL     OW 2614   1.041   0.701   6.015
  683SOL    HW1 2615   1.067   0.697   6.111
  683SOL    HW2 2616   0.956   0.650   6.001
  684SOL     OW 2617   0.076   0.811   6.375
  684SOL    HW1 2618   0.175   0.799   6.384
  684SOL    HW2 2619   0.052   0.906   6.396
  685SOL     OW 2620   0.130   1.821   7.157
  685SOL    HW1 2621   0.120   1.806   7.256
  685SOL    HW2 2622   0.044   1.857   7.121
  686SOL     OW 2623   0.865   0.348   5.781
  686SOL    HW1 2624   0.924   0.411   5.732
  686SOL    HW2 2625   0.884   0.254   5.752
  687SOL     OW 2626   1.719   0.585   7.417
  687SOL    HW1 2627   1.693   0.674   7.381
  687SOL    HW2 2628   1.717   0.517   7.344
  688SOL     OW 2629   1.362   1.144   6.131
  688SOL    HW1 2630   1.445   1.115   6.083
  688SOL    HW2 2631   1.313   1.211   6.075
  689SOL     OW 2632   0.550   0.196   6.471
  689SOL    HW1 2633   0.545   0.191   6.571
  689SOL    HW2 2634   0.552   0.292   6.442
  690SOL     OW 2635   1.008   1.456   6.063
  690SOL    HW1 2636   0.962   1.528   6.011
  690SOL    HW2 2637   1.004   1.476   6.161
  691SOL     OW 2638   0.351   1.801   6.439
  691SOL    HW1 2639   0.401   1.715   6.445
  691SOL    HW2 2640   0.416   1.878   6.436
  692SOL     OW 2641   1.795   1.066   6.459
  692SOL    HW1 2642   1.733   1.051   6.383
  692SOL    HW2 2643   1.743   1.077   6.544
  693SOL     OW 2644   1.227   1.550   7.092
  693SOL    HW1 2645   1.233   1.473   7.156
  693SOL    HW2 2646   1.175   1.524   7.012
  694SOL     OW 2647   0.321   0.943   5.828
  694SOL    HW1 2648   0.403   0.982   5.786
  694SOL    HW2 2649   0.294   0.861   5.779
  695SOL     OW 2650   1.458   0.735   6.314
  695SOL    HW1 2651   1.453   0.670   6.389
  695SOL    HW2 2652   1.538   0.794   6.327
  696SOL     OW 2653   0.461   1.266   7.313
  696SOL    HW1 2654   0.411   1.267   7.227
  696SOL    HW2 2655   0.398   1.248   7.389
  697SOL     OW 2656   1.111   1.776   5.823
  697SOL    HW1 2657   1.051   1.714   5.873
  697SOL    HW2 2658   1.142   1.732   5.738
  698SOL     OW 2659   0.202   0.285   7.084
  698SOL    HW1 2660   0.122   0.345   7.071
  698SOL    HW2 2661   0.192   0.236   7.170
  699SOL     OW 2662   1.632   1.377   5.667
  699SOL    HW1 2663   1.600   1.471   5.657
  699SOL    HW2 2664   1.556   1.314   5.655
  700SOL     OW 2665   0.464   1.743   5.909
  700SOL    HW1 2666   0.497   1.782   5.995
  700SOL    HW2 2667   0.540   1.736   5.844
  701SOL     OW 2668   1.400   0.107   6.012
  701SOL    HW1 2669   1.376   0.070   5.922
  701SOL    HW2 2670   1.499   0.123   6.016
  702SOL     OW 2671   0.249   1.785   6.827
  702SOL    HW1 2672   0.306   1.720   6.877
  702SOL    HW2 2673   0.233   1.752   6.734
  703SOL     OW 2674   0.940   1.698   6.490
  703SOL    HW1 2675   1.020   1.641   6.511
  703SOL    HW2 2676   0.891   1.658   6.413
  704SOL     OW 2677   0.382   0.700   6.066
  704SOL    HW1 2678   0.427   0.610   6.063
  704SOL    HW2 2679   0.288   0.689   6.099
  705SOL     OW 2680   1.547   0.222   7.315
  705SOL    HW1 2681   1.542   0.259   7.407
  705SOL    HW2 2682   1.475   0.153   7.303
  706SOL     OW 2683   0.614   0.122   5.703
  706SOL    HW1 2684   0.712   0.100   5.710
  706SOL    HW2 2685   0.583   0.105   5.610
  707SOL     OW 2686   0.781   0.264   7.335
  707SOL    HW1 2687   0.848   0.203   7.378
  707SOL    HW2 2688   0.708   0.283   7.400
  708SOL     OW 2689   0.888   1.514   6.781
  708SOL    HW1 2690   0.865   1.489   6.687
  708SOL    HW2 2691   0.949   1.445   6.820
  709SOL     OW 2692   1.351   0.590   7.019
  709SOL    HW1 2693   1.379   0.547   7.104
  709SOL    HW2 2694   1.376   0.686   7.020
  710SOL     OW 2695   0.803   1.402   6.510
  710SOL    HW1 2696   0.893   1.416   6.468
  710SOL    HW2 2697   0.732   1.404   6.439
  711SOL     OW 2698   0.922   0.503   6.485
  711SOL    HW1 2699   0.897   0.494   6.389
  711SOL    HW2 2700   0.970   0.421   6.516
  712SOL     OW 2701   0.539   0.064   6.098
  712SOL    HW1 2702   0.458   0.065   6.156
  712SOL    HW2 2703   0.542   0.147   6.043
  713SOL     OW 2704   1.434   1.188   5.627
  713SOL    HW1 2705   1.466   1.112   5.684
  713SOL    HW2 2706   1.342   1.215   5.657
  714SOL     OW 2707   0.297   0.035   5.757
  714SOL    HW1 2708   0.346   0.119   5.736
  714SOL    HW2 2709   0.359  -0.030   5.802
  715SOL     OW 2710   0.935   0.236   6.066
  715SOL    HW1 2711   0.887   0.277   5.988
  715SOL    HW2 2712   1.034   0.234   6.047
  716SOL     OW 2713   1.076   0.683   7.050
  716SOL    HW1 2714   0.996   0.622   7.053
  716SOL    HW2 2715   1.157   0.630   7.026
  717SOL     OW 2716   1.227   1.570   6.379
  717SOL    HW1 2717   1.248   1.644   6.314
  717SOL    HW2 2718   1.295   1.570   6.452
  718SOL     OW 2719   0.459   1.152   6.327
  718SOL    HW1 2720   0.388   1.125   6.392
  718SOL    HW2 2721   0.433   1.124   6.234
  719SOL     OW 2722   1.271   1.797   6.177
  719SOL    HW1 2723   1.315   1.861   6.113
  719SOL    HW2 2724   1.221   1.849   6.247
  720SOL     OW 2725   1.032   0.549   5.602
  720SOL    HW1 2726   0.991   0.631   5.563
  720SOL    HW2 2727   1.096   0.575   5.675
  721SOL     OW 2728   0.078   0.556   6.972
  721SOL    HW1 2729   0.170   0.555   6.931
  721SOL    HW2 2730   0.072   0.630   7.039
  722SOL     OW 2731   0.561   0.222   6.733
  722SOL    HW1 2732   0.599   0.138   6.770
  722SOL    HW2 2733   0.473   0.241   6.777
  723SOL     OW 2734   0.866   0.454   6.228
  723SOL    HW1 2735   0.834   0.526   6.166
  723SOL    HW2 2736   0.890   0.373   6.175
  724SOL     OW 2737   1.017   0.039   6.339
  724SOL    HW1 2738   0.945   0.044   6.270
  724SOL    HW2 2739   0.993  -0.030   6.408
  725SOL     OW 2740   1.429   1.173   6.453
  725SOL    HW1 2741   1.374   1.089   6.446
  725SOL    HW2 2742   1.455   1.202   6.361
  726SOL     OW 2743   1.466   0.590   6.578
  726SOL    HW1 2744   1.436   0.495   6.585
  726SOL    HW2 2745   1.539   0.606   6.644
  727SOL     OW 2746   1.857   0.833   5.963
  727SOL    HW1 2747   1.899   0.769   6.027
  727SOL    HW2 2748   1.819   0.782   5.885
  728SOL     OW 2749   0.488   1.385   5.760
  728SOL    HW1 2750   0.401   1.370   5.807
  728SOL    HW2 2751   0.471   1.411   5.665
  729SOL     OW 2752   1.664   1.280   6.243
  729SOL    HW1 2753   1.763   1.288   6.257
  729SOL    HW2 2754   1.619   1.364   6.274
  730SOL     OW 2755   1.390   0.575   5.664
  730SOL    HW1 2756   1.336   0.554   5.745
  730SOL    HW2 2757   1.481   0.534   5.673
  731SOL     OW 2758   0.527   0.256   5.914
  731SOL    HW1 2759   0.554   0.197   5.839
  731SOL    HW2 2760   0.527   0.351   5.883
  732SOL     OW 2761   1.754   1.223   7.174
  732SOL    HW1 2762   1.845   1.184   7.161
  732SOL    HW2 2763   1.762   1.319   7.198
  733SOL     OW 2764   1.064   1.347   6.926
  733SOL    HW1 2765   0.984   1.324   6.981
  733SOL    HW2 2766   1.147   1.321   6.975
  734SOL     OW 2767   1.592   1.629   7.211
  734SOL    HW1 2768   1.619   1.663   7.121
  734SOL    HW2 2769   1.671   1.591   7.257
  735SOL     OW 2770   1.111   1.195   6.686
  735SOL    HW1 2771   1.071   1.239   6.767
  735SOL    HW2 2772   1.070   1.232   6.603
  736SOL     OW 2773   1.638   1.099   6.665
  736SOL    HW1 2774   1.643   1.180   6.724
  736SOL    HW2 2775   1.552   1.101   6.614
  737SOL     OW 2776   0.915   0.089   6.988
  737SOL    HW1 2777   0.940   0.069   6.893
  737SOL    HW2 2778   0.987   0.145   7.030
  738SOL     OW 2779   0.980   1.116   7.305
  738SOL    HW1 2780   0.881   1.122   7.315
  738SOL    HW2 2781   1.003   1.036   7.249
  739SOL     OW 2782   0.705   1.050   5.954
  739SOL    HW1 2783   0.691   1.057   6.053
  739SOL    HW2 2784   0.789   0.999   5.936
  740SOL     OW 2785   0.410   0.813   6.837
  740SOL    HW1 2786   0.496   0.825   6.887
  740SOL    HW2 2787   0.368   0.726   6.864
  741SOL     OW 2788   1.274   0.386   6.848
  741SOL    HW1 2789   1.295   0.460   6.912
  741SOL    HW2 2790   1.185   0.403   6.805
  742SOL     OW 2791   0.064   1.564   6.917
  742SOL    HW1 2792   0.018   1.646   6.883
  742SOL    HW2 2793   0.162   1.583   6.926
  743SOL     OW 2794   0.367   1.100   6.087
  743SOL    HW1 2795   0.360   1.183   6.031
  743SOL    HW2 2796   0.371   1.020   6.027
  744SOL     OW 2797   0.566   0.537   6.451
  744SOL    HW1 2798   0.578   0.603   6.377
  744SOL    HW2 2799   0.612   0.571   6.534
  745SOL     OW 2800   1.252   1.348   5.974
  745SOL    HW1 2801   1.302   1.425   6.014
  745SOL    HW2 2802   1.157   1.350   6.006
  746SOL     OW 2803   1.272   1.445   6.728
  746SOL    HW1 2804   1.319   1.458   6.815
  746SOL    HW2 2805   1.206   1.371   6.737
  747SOL     OW 2806   1.582   0.639   6.058
  747SOL    HW1 2807   1.551   0.700   6.131
  747SOL    HW2 2808   1.632   0.691   5.989
  748SOL     OW 2809   0.354   1.510   6.915
  748SOL    HW1 2810   0.333   1.466   6.828
  748SOL    HW2 2811   0.451   1.536   6.918
  749SOL     OW 2812   0.402   0.751   7.184
  749SOL    HW1 2813   0.470   0.806   7.137
  749SOL    HW2 2814   0.442   0.663   7.211
  750SOL     OW 2815   1.587   0.779   7.256
  750SOL    HW1 2816   1.495   0.817   7.251
  750SOL    HW2 2817   1.647   0.826   7.191
  751SOL     OW 2818   1.013   0.105   7.356
  751SOL    HW1 2819   1.019   0.190   7.304
  751SOL    HW2 2820   1.045   0.029   7.299
  752SOL     OW 2821   0.504   0.050   7.326
  752SOL    HW1 2822   0.462  -0.007   7.256
  752SOL    HW2 2823   0.438   0.119   7.358
  753SOL     OW 2824   0.573   0.870   6.615
  753SOL    HW1 2825   0.617   0.959   6.606
  753SOL    HW2 2826   0.510   0.870   6.692
  754SOL     OW 2827   1.360   0.862   6.631
  754SOL    HW1 2828   1.285   0.862   6.565
  754SOL    HW2 2829   1.397   0.770   6.640
  755SOL     OW 2830   1.209   0.525   5.861
  755SOL    HW1 2831   1.222   0.441   5.915
  755SOL    HW2 2832   1.180   0.599   5.921
  756SOL     OW 2833   0.307   0.213   6.817
  756SOL    HW1 2834   0.284   0.250   6.907
  756SOL    HW2 2835   0.277   0.118   6.811
  757SOL     OW 2836   0.037   1.310   6.868
  757SOL    HW1 2837   0.090   1.261   6.936
  757SOL    HW2 2838   0.059   1.408   6.873
  758SOL     OW 2839   0.732   0.634   6.650
  758SOL    HW1 2840   0.791   0.608   6.574
  758SOL    HW2 2841   0.704   0.730   6.639
  759SOL     OW 2842   1.728   0.935   7.440
  759SOL    HW1 2843   1.682   0.928   7.351
  759SOL    HW2 2844   1.666   0.979   7.506
  760SOL     OW 2845   0.307   0.063   6.204
  760SOL    HW1 2846   0.296   0.157   6.237
  760SOL    HW2 2847   0.302   0.000   6.281
  761SOL     OW 2848   1.622   0.367   5.960
  761SOL    HW1 2849   1.624   0.291   6.024
  761SOL    HW2 2850   1.574   0.444   6.000
  762SOL     OW 2851   1.023   0.766   6.552
  762SOL    HW1 2852   1.038   0.787   6.648
  762SOL    HW2 2853   0.993   0.671   6.543
  763SOL     OW 2854   0.980   1.573   7.286
  763SOL    HW1 2855   0.960   1.617   7.198
  763SOL    HW2 2856   1.019   1.482   7.270
  764SOL     OW 2857   1.859   1.518   7.191
  764SOL    HW1 2858   1.873   1.545   7.096
  764SOL    HW2 2859   1.942   1.540   7.244
  765SOL     OW 2860   0.350   0.898   7.390
  765SOL    HW1 2861   0.426   0.942   7.438
  765SOL    HW2 2862   0.385   0.851   7.308
  766SOL     OW 2863   1.540   0.274   5.711
  766SOL    HW1 2864   1.479   0.199   5.734
  766SOL    HW2 2865   1.562   0.326   5.794
  767SOL     OW 2866   1.303   0.838   5.628
  767SOL    HW1 2867   1.337   0.745   5.643
  767SOL    HW2 2868   1.321   0.865   5.533
  768SOL     OW 2869   1.068   1.333   6.435
  768SOL    HW1 2870   1.075   1.249   6.380
  768SOL    HW2 2871   1.130   1.402   6.399
  769SOL     OW 2872   0.319   0.810   6.535
  769SOL    HW1 2873   0.412   0.846   6.540
  769SOL    HW2 2874   0.313   0.725   6.587
  770SOL     OW 2875   0.339   0.509   6.592
  770SOL    HW1 2876   0.287   0.426   6.575
  770SOL    HW2 2877   0.416   0.514   6.528
  771SOL     OW 2878   1.138   0.380   7.264
  771SOL    HW1 2879   1.093   0.443   7.328
  771SOL    HW2 2880   1.231   0.411   7.247
  772SOL     OW 2881   1.160   0.207   7.063
  772SOL    HW1 2882   1.160   0.271   7.140
  772SOL    HW2 2883   1.188   0.255   6.980
  773SOL     OW 2884   0.008   1.326   5.786
  773SOL    HW1 2885  -0.085   1.347   5.755
  773SOL    HW2 2886   0.018   1.227   5.799
  774SOL     OW 2887   0.088   1.801   6.513
  774SOL    HW1 2888   0.046   1.715   6.486
  774SOL    HW2 2889   0.182   1.804   6.479
  775SOL     OW 2890   0.504   1.568   6.496
  775SOL    HW1 2891   0.570   1.642   6.505
  775SOL    HW2 2892   0.548   1.489   6.454
  776SOL     OW 2893   1.002   0.796   6.824
  776SOL    HW1 2894   1.043   0.764   6.910
  776SOL    HW2 2895   0.906   0.769   6.821
  777SOL     OW 2896   0.040   0.544   6.700
  777SOL    HW1 2897   0.125   0.511   6.659
  777SOL    HW2 2898   0.053   0.559   6.798
  778SOL     OW 2899   0.189   0.520   7.308
  778SOL    HW1 2900   0.248   0.480   7.238
  778SOL    HW2 2901   0.131   0.591   7.267
  779SOL     OW 2902   1.369   0.950   7.246
  779SOL    HW1 2903   1.408   1.039   7.266
  779SOL    HW2 2904   1.379   0.930   7.149
  780SOL     OW 2905   0.815   0.572   5.911
  780SOL    HW1 2906   0.822   0.483   5.865
  780SOL    HW2 2907   0.721   0.606   5.903
  781SOL     OW 2908   1.657   0.604   6.792
  781SOL    HW1 2909   1.619   0.535   6.854
  781SOL    HW2 2910   1.739   0.568   6.748
  782SOL     OW 2911   0.252   1.564   7.330
  782SOL    HW1 2912   0.222   1.621   7.406
  782SOL    HW2 2913   0.245   1.467   7.356
  783SOL     OW 2914   0.671   0.464   6.855
  783SOL    HW1 2915   0.637   0.375   6.825
  783SOL    HW2 2916   0.697   0.518   6.775
  784SOL     OW 2917   0.930   1.678   7.051
  784SOL    HW1 2918   0.906   1.660   6.956
  784SOL    HW2 2919   0.960   1.772   7.061
  785SOL     OW 2920   0.473   0.500   5.777
  785SOL    HW1 2921   0.534   0.580   5.781
  785SOL    HW2 2922   0.378   0.531   5.784
  786SOL     OW 2923   0.159   1.137   7.052
  786SOL    HW1 2924   0.181   1.076   7.128
  786SOL    HW2 2925   0.169   1.088   6.966
  787SOL     OW 2926   1.347   1.059   6.820
  787SOL    HW1 2927   1.371   0.996   6.746
  787SOL    HW2 2928   1.257   1.099   6.802
  788SOL     OW 2929   1.302   0.855   5.895
  788SOL    HW1 2930   1.216   0.824   5.937
  788SOL    HW2 2931   1.298   0.841   5.796
  789SOL     OW 2932   1.759   1.747   6.740
  789SOL    HW1 2933   1.820   1.777   6.667
  789SOL    HW2 2934   1.721   1.658   6.718
  790SOL     OW 2935   1.252   1.731   6.714
  790SOL    HW1 2936   1.336   1.736   6.660
  790SOL    HW2 2937   1.229   1.635   6.732
  791SOL     OW 2938   0.083   1.258   6.608
  791SOL    HW1 2939   0.078   1.257   6.708
  791SOL    HW2 2940   0.000   1.217   6.570
  792SOL     OW 2941   0.688   1.662   7.302
  792SOL    HW1 2942   0.632   1.743   7.311
  792SOL    HW2 2943   0.740   1.666   7.216
  793SOL     OW 2944   1.726   0.135   6.109
  793SOL    HW1 2945   1.799   0.118   6.042
  793SOL    HW2 2946   1.695   0.048   6.147
  794SOL     OW 2947   1.388   1.573   6.063
  794SOL    HW1 2948   1.455   1.585   5.989
  794SOL    HW2 2949   1.348   1.662   6.086
  795SOL     OW 2950   0.130   1.794   7.437
  795SOL    HW1 2951   0.089   1.720   7.490
  795SOL    HW2 2952   0.194   1.845   7.495
  796SOL     OW 2953   1.280   0.927   6.258
  796SOL    HW1 2954   1.340   0.846   6.260
  796SOL    HW2 2955   1.320   0.996   6.198
  797SOL     OW 2956   0.830   1.273   7.008
  797SOL    HW1 2957   0.825   1.306   7.103
  797SOL    HW2 2958   0.744   1.292   6.962
  798SOL     OW 2959   0.672   1.616   5.740
  798SOL    HW1 2960   0.681   1.626   5.641
  798SOL    HW2 2961   0.632   1.527   5.761
  799SOL     OW 2962   1.650   1.720   6.980
  799SOL    HW1 2963   1.703   1.730   6.896
  799SOL    HW2 2964   1.623   1.810   7.014
  800SOL     OW 2965   1.841   0.175   6.549
  800SOL    HW1 2966   1.880   0.090   6.513
  800SOL    HW2 2967   1.743   0.177   6.530
  801SOL     OW 2968   0.263   0.326   6.306
  801SOL    HW1 2969   0.184   0.377   6.272
  801SOL    HW2 2970   0.254   0.311   6.404
  802SOL     OW 2971   1.194   1.612   5.617
  802SOL    HW1 2972   1.200   1.519   5.654
  802SOL    HW2 2973   1.135   1.612   5.537
  803SOL     OW 2974   0.822   1.002   6.958
  803SOL    HW1 2975   0.862   1.001   6.866
  803SOL    HW2 2976   0.832   1.094   6.998
  804SOL     OW 2977   0.916   0.910   5.877
  804SOL    HW1 2978   0.979   0.948   5.809
  804SOL    HW2 2979   0.956   0.827   5.916
  805SOL     OW 2980   1.504   1.607   5.630
  805SOL    HW1 2981   1.412   1.644   5.637
  805SOL    HW2 2982   1.542   1.627   5.540
  806SOL     OW 2983   0.372   1.288   7.076
  806SOL    HW1 2984   0.359   1.381   7.042
  806SOL    HW2 2985   0.288   1.236   7.063
  807SOL     OW 2986   1.614   1.292   6.875
  807SOL    HW1 2987   1.674   1.295   6.955
  807SOL    HW2 2988   1.539   1.356   6.888
  808SOL     OW 2989   1.039   1.098   6.282
  808SOL    HW1 2990   0.969   1.051   6.336
  808SOL    HW2 2991   1.098   1.030   6.239
  809SOL     OW 2992   1.014   0.236   6.557
  809SOL    HW1 2993   1.006   0.200   6.464
  809SOL    HW2 2994   1.012   0.160   6.622
  810SOL     OW 2995   0.590   1.487   6.077
  810SOL    HW1 2996   0.632   1.429   6.007
  810SOL    HW2 2997   0.546   1.566   6.033
  811SOL     OW 2998   1.709   0.385   6.967
  811SOL    HW1 2999   1.782   0.454   6.971
  811SOL    HW2 3000   1.737   0.310   6.908
  812SOL     OW 3001   0.255   1.348   5.876
  812SOL    HW1 3002   0.159   1.349   5.849
  812SOL    HW2 3003   0.267   1.401   5.960
  813SOL     OW 3004   0.105   1.013   7.312
  813SOL    HW1 3005   0.028   0.980   7.366
  813SOL    HW2 3006   0.190   0.983   7.354
  814SOL     OW 3007   0.672   0.203   7.075
  814SOL    HW1 3008   0.762   0.187   7.035
  814SOL    HW2 3009   0.680   0.208   7.174
  815SOL     OW 3010   0.075   0.345   5.619
  815SOL    HW1 3011  -0.017   0.317   5.590
  815SOL    HW2 3012   0.106   0.422   5.563
  816SOL     OW 3013   1.440   0.856   6.984
  816SOL    HW1 3014   1.383   0.908   6.921
  816SOL    HW2 3015   1.536   0.868   6.960
  817SOL     OW 3016   0.072   0.166   5.904
  817SOL    HW1 3017   0.055   0.249   5.850
  817SOL    HW2 3018   0.162   0.129   5.882
  818SOL     OW 3019   1.183   1.335   5.705
  818SOL    HW1 3020   1.084   1.324   5.707
  818SOL    HW2 3021   1.217   1.350   5.798
  819SOL     OW 3022   0.613   0.842   7.017
  819SOL    HW1 3023   0.669   0.923   7.000
  819SOL    HW2 3024   0.672   0.762   7.020
  820SOL     OW 3025   1.493   1.767   6.545
  820SOL    HW1 3026   1.526   1.831   6.476
  820SOL    HW2 3027   1.559   1.761   6.620
  821SOL     OW 3028   0.716   0.565   7.294
  821SOL    HW1 3029   0.735   0.630   7.368
  821SOL    HW2 3030   0.776   0.485   7.303
  822SOL     OW 3031   1.450   1.220   7.219
  822SOL    HW1 3032   1.441   1.210   7.318
  822SOL    HW2 3033   1.546   1.213   7.193
  823SOL     OW 3034   0.390   1.741   7.146
  823SOL    HW1 3035   0.299   1.782   7.144
  823SOL    HW2 3036   0.383   1.647   7.178
  824SOL     OW 3037   1.674   0.883   6.840
  824SOL    HW1 3038   1.647   0.794   6.803
  824SOL    HW2 3039   1.675   0.951   6.767
  825SOL     OW 3040   1.225   0.325   6.035
  825SOL    HW1 3041   1.290   0.251   6.024
  825SOL    HW2 3042   1.245   0.375   6.119
  826SOL     OW 3043   0.594   0.745   6.238
  826SOL    HW1 3044   0.644   0.830   6.219
  826SOL    HW2 3045   0.506   0.747   6.190
  827SOL     OW 3046   1.777   0.342   7.228
  827SOL    HW1 3047   1.760   0.373   7.134
  827SOL    HW2 3048   1.693   0.305   7.266
  828SOL     OW 3049   1.730   0.934   7.103
  828SOL    HW1 3050   1.768   1.025   7.118
  828SOL    HW2 3051   1.722   0.917   7.004
  829SOL     OW 3052   0.859   1.374   5.602
  829SOL    HW1 3053   0.813   1.389   5.690
  829SOL    HW2 3054   0.903   1.459   5.572
  830SOL     OW 3055   0.661   1.790   6.539
  830SOL    HW1 3056   0.615   1.878   6.526
  830SOL    HW2 3057   0.760   1.802   6.532
  831SOL     OW 3058   0.859   0.956   6.447
  831SOL    HW1 3059   0.913   0.887   6.495
  831SOL    HW2 3060   0.827   1.025   6.513
  832SOL     OW 3061   1.083   0.984   5.673
  832SOL    HW1 3062   1.060   1.037   5.591
  832SOL    HW2 3063   1.164   0.928   5.654
  833SOL     OW 3064   1.861   1.569   6.437
  833SOL    HW1 3065   1.790   1.557   6.367
  833SOL    HW2 3066   1.862   1.490   6.497
  834SOL     OW 3067   0.221   1.314   7.430
  834SOL    HW1 3068   0.156   1.241   7.409
  834SOL    HW2 3069   0.225   1.328   7.528
  835SOL     OW 3070   0.079   1.240   6.239
  835SOL    HW1 3071   0.078   1.193   6.327
  835SOL    HW2 3072   0.161   1.212   6.188
  836SOL     OW 3073   0.672   1.391   7.210
  836SOL    HW1 3074   0.594   1.341   7.248
  836SOL    HW2 3075   0.669   1.486   7.241
  837SOL     OW 3076   1.824   0.192   6.813
  837SOL    HW1 3077   1.820   0.102   6.857
  837SOL    HW2 3078   1.827   0.181   6.714
  838SOL     OW 3079   0.428   0.424   6.106
  838SOL    HW1 3080   0.458   0.352   6.044
  838SOL    HW2 3081   0.389   0.384   6.189
  839SOL     OW 3082   1.705   1.487   6.690
  839SOL    HW1 3083   1.612   1.462   6.663
  839SOL    HW2 3084   1.731   1.437   6.772
  840SOL     OW 3085   0.317   0.547   6.866
  840SOL    HW1 3086   0.355   0.488   6.938
  840SOL    HW2 3087   0.357   0.521   6.778
  841SOL     OW 3088   0.812   1.586   6.273
  841SOL    HW1 3089   0.844   1.596   6.179
  841SOL    HW2 3090   0.733   1.524   6.275
  842SOL     OW 3091   1.424   0.214   6.698
  842SOL    HW1 3092   1.476   0.149   6.753
  842SOL    HW2 3093   1.375   0.277   6.759
  843SOL     OW 3094   1.001   0.034   6.740
  843SOL    HW1 3095   0.938  -0.038   6.709
  843SOL    HW2 3096   1.094  -0.002   6.740
  844SOL     OW 3097   0.770   1.330   5.887
  844SOL    HW1 3098   0.724   1.243   5.904
  844SOL    HW2 3099   0.861   1.327   5.928
  845SOL     OW 3100   0.618   1.567   6.870
  845SOL    HW1 3101   0.613   1.649   6.927
  845SOL    HW2 3102   0.707   1.564   6.825
  846SOL     OW 3103   1.352   0.052   5.754
  846SOL    HW1 3104   1.387   0.011   5.670
  846SOL    HW2 3105   1.262   0.014   5.774
  847SOL     OW 3106   1.300   0.453   6.277
  847SOL    HW1 3107   1.241   0.533   6.281
  847SOL    HW2 3108   1.315   0.418   6.370
  848SOL     OW 3109   1.593   0.221   6.468
  848SOL    HW1 3110   1.509   0.220   6.522
  848SOL    HW2 3111   1.595   0.304   6.412
  849SOL     OW 3112   0.039   1.077   5.886
  849SOL    HW1 3113   0.138   1.066   5.877
  849SOL    HW2 3114  -0.001   0.991   5.918
  850SOL     OW 3115   0.875   1.646   5.923
  850SOL    HW1 3116   0.798   1.611   5.869
  850SOL    HW2 3117   0.843   1.717   5.985
  851SOL     OW 3118   0.230   0.628   7.561
  851SOL    HW1 3119   0.137   0.626   7.598
  851SOL    HW2 3120   0.231   0.589   7.469
  852SOL     OW 3121   1.755   0.607   7.679
  852SOL    HW1 3122   1.743   0.594   7.580
  852SOL    HW2 3123   1.725   0.526   7.728
  853SOL     OW 3124   0.231   1.713   7.931
  853SOL    HW1 3125   0.265   1.790   7.985
  853SOL    HW2 3126   0.275   1.713   7.841
  854SOL     OW 3127   0.230   1.434   7.986
  854SOL    HW1 3128   0.204   1.530   7.986
  854SOL    HW2 3129   0.159   1.380   8.031
  855SOL     OW 3130   0.606   0.964   7.571
  855SOL    HW1 3131   0.613   1.048   7.517
  855SOL    HW2 3132   0.652   0.977   7.659
  856SOL     OW 3133   1.842   1.767   7.807
  856SOL    HW1 3134   1.896   1.738   7.887
  856SOL    HW2 3135   1.872   1.857   7.778
  857SOL     OW 3136   0.027   1.596   7.565
  857SOL    HW1 3137   0.008   1.500   7.586
  857SOL    HW2 3138  -0.006   1.654   7.640
  858SOL     OW 3139   1.689   0.922   8.060
  858SOL    HW1 3140   1.784   0.893   8.068
  858SOL    HW2 3141   1.681   0.987   7.985
  859SOL     OW 3142   1.641   1.108   7.880
  859SOL    HW1 3143   1.727   1.110   7.828
  859SOL    HW2 3144   1.655   1.155   7.968
  860SOL     OW 3145   0.809   0.004   7.950
  860SOL    HW1 3146   0.849   0.095   7.941
  860SOL    HW2 3147   0.709   0.012   7.956
  861SOL     OW 3148   1.525   0.999   7.638
  861SOL    HW1 3149   1.462   0.923   7.651
  861SOL    HW2 3150   1.573   1.017   7.724
  862SOL     OW 3151   0.598   0.729   7.718
  862SOL    HW1 3152   0.622   0.798   7.650
  862SOL    HW2 3153   0.520   0.762   7.772
  863SOL     OW 3154   1.576   1.662   7.755
  863SOL    HW1 3155   1.665   1.708   7.758
  863SOL    HW2 3156   1.555   1.638   7.660
  864SOL     OW 3157   0.076   0.811   8.237
  864SOL    HW1 3158   0.175   0.799   8.246
  864SOL    HW2 3159   0.052   0.906   8.258
  865SOL     OW 3160   0.865   0.348   7.643
  865SOL    HW1 3161   0.924   0.411   7.594
  865SOL    HW2 3162   0.884   0.254   7.614
  866SOL     OW 3163   0.321   0.943   7.690
  866SOL    HW1 3164   0.403   0.982   7.648
  866SOL    HW2 3165   0.294   0.861   7.641
  867SOL     OW 3166   1.111   1.776   7.685
  867SOL    HW1 3167   1.051   1.714   7.735
  867SOL    HW2 3168   1.142   1.732   7.600
  868SOL     OW 3169   1.632   1.377   7.529
  868SOL    HW1 3170   1.600   1.471   7.519
  868SOL    HW2 3171   1.556   1.314   7.517
  869SOL     OW 3172   0.464   1.743   7.771
  869SOL    HW1 3173   0.497   1.782   7.857
  869SOL    HW2 3174   0.540   1.736   7.706
  870SOL     OW 3175   1.400   0.107   7.874
  870SOL    HW1 3176   1.376   0.070   7.784
  870SOL    HW2 3177   1.499   0.123   7.878
  871SOL     OW 3178   0.382   0.700   7.928
  871SOL    HW1 3179   0.427   0.610   7.925
  871SOL    HW2 3180   0.288   0.689   7.961
  872SOL     OW 3181   0.614   0.122   7.565
  872SOL    HW1 3182   0.712   0.100   7.572
  872SOL    HW2 3183   0.583   0.105   7.472
  873SOL     OW 3184   0.539   0.064   7.960
  873SOL    HW1 3185   0.458   0.065   8.018
  873SOL    HW2 3186   0.542   0.147   7.905
  874SOL     OW 3187   1.434   1.188   7.489
  874SOL    HW1 3188   1.466   1.112   7.546
  874SOL    HW2 3189   1.342   1.215   7.519
  875SOL     OW 3190   0.297   0.035   7.619
  875SOL    HW1 3191   0.346   0.119   7.598
  875SOL    HW2 3192   0.359  -0.030   7.664
  876SOL     OW 3193   0.935   0.236   7.928
  876SOL    HW1 3194   0.887   0.277   7.850
  876SOL    HW2 3195   1.034   0.234   7.909
  877SOL     OW 3196   0.459   1.152   8.189
  877SOL    HW1 3197   0.388   1.125   8.254
  877SOL    HW2 3198   0.433   1.124   8.096
  878SOL     OW 3199   1.271   1.797   8.039
  878SOL    HW1 3200   1.315   1.861   7.975
  878SOL    HW2 3201   1.221   1.849   8.109
  879SOL     OW 3202   1.032   0.549   7.464
  879SOL    HW1 3203   0.991   0.631   7.425
  879SOL    HW2 3204   1.096   0.575   7.537
  880SOL     OW 3205   1.857   0.833   7.825
  880SOL    HW1 3206   1.899   0.769   7.889
  880SOL    HW2 3207   1.819   0.782   7.747
  881SOL     OW 3208   0.488   1.385   7.622
  881SOL    HW1 3209   0.401   1.370   7.669
  881SOL    HW2 3210   0.471   1.411   7.527
  882SOL     OW 3211   1.390   0.575   7.526
  882SOL    HW1 3212   1.336   0.554   7.607
  882SOL    HW2 3213   1.481   0.534   7.535
  883SOL     OW 3214   0.527   0.256   7.776
  883SOL    HW1 3215   0.554   0.197   7.701
  883SOL    HW2 3216   0.527   0.351   7.745
  884SOL     OW 3217   0.705   1.050   7.816
  884SOL    HW1 3218   0.691   1.057   7.915
  884SOL    HW2 3219   0.789   0.999   7.798
  885SOL     OW 3220   0.367   1.100   7.949
  885SOL    HW1 3221   0.360   1.183   7.893
  885SOL    HW2 3222   0.371   1.020   7.889
  886SOL     OW 3223   1.252   1.348   7.836
  886SOL    HW1 3224   1.302   1.425   7.876
  886SOL    HW2 3225   1.157   1.350   7.868
  887SOL     OW 3226   1.582   0.639   7.920
  887SOL    HW1 3227   1.551   0.700   7.993
  887SOL    HW2 3228   1.632   0.691   7.851
  888SOL     OW 3229   1.209   0.525   7.723
  888SOL    HW1 3230   1.222   0.441   7.777
  888SOL    HW2 3231   1.180   0.599   7.783
  889SOL     OW 3232   1.622   0.367   7.822
  889SOL    HW1 3233   1.624   0.291   7.886
  889SOL    HW2 3234   1.574   0.444   7.862
  890SOL     OW 3235   1.540   0.274   7.573
  890SOL    HW1 3236   1.479   0.199   7.596
  890SOL    HW2 3237   1.562   0.326   7.656
  891SOL     OW 3238   1.303   0.838   7.490
  891SOL    HW1 3239   1.337   0.745   7.505
  891SOL    HW2 3240   1.321   0.865   7.395
  892SOL     OW 3241   0.008   1.326   7.648
  892SOL    HW1 3242  -0.085   1.347   7.617
  892SOL    HW2 3243   0.018   1.227   7.661
  893SOL     OW 3244   0.815   0.572   7.773
  893SOL    HW1 3245   0.822   0.483   7.727
  893SOL    HW2 3246   0.721   0.606   7.765
  894SOL     OW 3247   0.473   0.500   7.639
  894SOL    HW1 3248   0.534   0.580   7.643
  894SOL    HW2 3249   0.378   0.531   7.646
  895SOL     OW 3250   1.302   0.855   7.757
  895SOL    HW1 3251   1.216   0.824   7.799
  895SOL    HW2 3252   1.298   0.841   7.658
  896SOL     OW 3253   1.726   0.135   7.971
  896SOL    HW1 3254   1.799   0.118   7.904
  896SOL    HW2 3255   1.695   0.048   8.009
  897SOL     OW 3256   1.388   1.573   7.925
  897SOL    HW1 3257   1.455   1.585   7.851
  897SOL    HW2 3258   1.348   1.662   7.948
  898SOL     OW 3259   0.672   1.616   7.602
  898SOL    HW1 3260   0.681   1.626   7.503
  898SOL    HW2 3261   0.632   1.527   7.623
  899SOL     OW 3262   1.194   1.612   7.479
  899SOL    HW1 3263   1.200   1.519   7.516
  899SOL    HW2 3264   1.135   1.612   7.399
  900SOL     OW 3265   0.916   0.910   7.739
  900SOL    HW1 3266   0.979   0.948   7.671
  900SOL    HW2 3267   0.956   0.827   7.778
  901SOL     OW 3268   1.504   1.607   7.492
  901SOL    HW1 3269   1.412   1.644   7.499
  901SOL    HW2 3270   1.542   1.627   7.402
  902SOL     OW 3271   0.590   1.487   7.939
  902SOL    HW1 3272   0.632   1.429   7.869
  902SOL    HW2 3273   0.546   1.566   7.895
  903SOL     OW 3274   0.255   1.348   7.738
  903SOL    HW1 3275   0.159   1.349   7.711
  903SOL    HW2 3276   0.267   1.401   7.822
  904SOL     OW 3277   0.075   0.345   7.481
  904SOL    HW1 3278  -0.017   0.317   7.452
  904SOL    HW2 3279   0.106   0.422   7.425
  905SOL     OW 3280   0.072   0.166   7.766
  905SOL    HW1 3281   0.055   0.249   7.712
  905SOL    HW2 3282   0.162   0.129   7.744
  906SOL     OW 3283   1.183   1.335   7.567
  906SOL    HW1 3284   1.084   1.324   7.569
  906SOL    HW2 3285   1.217   1.350   7.660
  907SOL     OW 3286   1.225   0.325   7.897
  907SOL    HW1 3287   1.290   0.251   7.886
  907SOL    HW2 3288   1.245   0.375   7.981
  908SOL     OW 3289   0.594   0.745   8.100
  908SOL    HW1 3290   0.644   0.830   8.081
  908SOL    HW2 3291   0.506   0.747   8.052
  909SOL     OW 3292   0.859   1.374   7.464
  909SOL    HW1 3293   0.813   1.389   7.552
  909SOL    HW2 3294   0.903   1.459   7.434
  910SOL     OW 3295   1.083   0.984   7.535
  910SOL    HW1 3296   1.060   1.037   7.453
  910SOL    HW2 3297   1.164   0.928   7.516
  911SOL     OW 3298   0.428   0.424   7.968
  911SOL    HW1 3299   0.458   0.352   7.906
  911SOL    HW2 3300   0.389   0.384   8.051
  912SOL     OW 3301   0.770   1.330   7.749
  912SOL    HW1 3302   0.724   1.243   7.766
  912SOL    HW2 3303   0.861   1.327   7.790
  913SOL     OW 3304   1.352   0.052   7.616
  913SOL    HW1 3305   1.387   0.011   7.532
  913SOL    HW2 3306   1.262   0.014   7.636
  914SOL     OW 3307   0.039   1.077   7.748
  914SOL    HW1 3308   0.138   1.066   7.739
  914SOL    HW2 3309  -0.001   0.991   7.780
  915SOL     OW 3310   0.875   1.646   7.785
  915SOL    HW1 3311   0.798   1.611   7.731
  915SOL    HW2 3312   0.843   1.717   7.847
  916SOL     OW 3313   0.230   2.490   0.113
  916SOL    HW1 3314   0.137   2.488   0.150
  916SOL    HW2 3315   0.231   2.451   0.021
  917SOL     OW 3316   0.225   2.137   0.996
  917SOL    HW1 3317   0.260   2.120   1.088
  917SOL    HW2 3318   0.137   2.092   0.984
  918SOL     OW 3319   0.019   2.230   0.647
  918SOL    HW1 3320  -0.063   2.273   0.686
  918SOL    HW2 3321  -0.009   2.157   0.584
  919SOL     OW 3322   0.569   3.137   1.165
  919SOL    HW1 3323   0.476   3.130   1.128
  919SOL    HW2 3324   0.580   3.226   1.209
  920SOL     OW 3325   1.555   3.373   0.703
  920SOL    HW1 3326   1.498   3.357   0.784
  920SOL    HW2 3327   1.496   3.383   0.623
  921SOL     OW 3328   1.135   2.565   0.717
  921SOL    HW1 3329   1.192   2.643   0.692
  921SOL    HW2 3330   1.075   2.591   0.793
  922SOL     OW 3331   1.755   2.469   0.231
  922SOL    HW1 3332   1.743   2.456   0.132
  922SOL    HW2 3333   1.725   2.388   0.280
  923SOL     OW 3334   0.768   3.006   1.023
  923SOL    HW1 3335   0.690   3.023   1.083
  923SOL    HW2 3336   0.802   3.093   0.987
  924SOL     OW 3337   0.850   2.660   1.823
  924SOL    HW1 3338   0.846   2.736   1.888
  924SOL    HW2 3339   0.872   2.696   1.732
  925SOL     OW 3340   0.685   2.874   0.665
  925SOL    HW1 3341   0.754   2.858   0.735
  925SOL    HW2 3342   0.612   2.931   0.703
  926SOL     OW 3343   0.686   3.023   1.803
  926SOL    HW1 3344   0.746   3.102   1.817
  926SOL    HW2 3345   0.600   3.054   1.762
  927SOL     OW 3346   0.335   3.297   1.061
  927SOL    HW1 3347   0.257   3.266   1.008
  927SOL    HW2 3348   0.393   3.355   1.004
  928SOL     OW 3349   1.460   3.367   1.339
  928SOL    HW1 3350   1.484   3.461   1.365
  928SOL    HW2 3351   1.444   3.313   1.421
  929SOL     OW 3352   0.438   2.254   1.499
  929SOL    HW1 3353   0.520   2.198   1.508
  929SOL    HW2 3354   0.357   2.196   1.503
  930SOL     OW 3355   1.603   2.309   0.737
  930SOL    HW1 3356   1.529   2.355   0.687
  930SOL    HW2 3357   1.654   2.377   0.790
  931SOL     OW 3358   0.231   3.575   0.483
  931SOL    HW1 3359   0.265   3.652   0.537
  931SOL    HW2 3360   0.275   3.575   0.393
  932SOL     OW 3361   1.127   3.203   1.690
  932SOL    HW1 3362   1.174   3.203   1.778
  932SOL    HW2 3363   1.079   3.116   1.679
  933SOL     OW 3364   0.230   3.296   0.538
  933SOL    HW1 3365   0.204   3.392   0.538
  933SOL    HW2 3366   0.159   3.242   0.583
  934SOL     OW 3367   0.240   2.953   0.886
  934SOL    HW1 3368   0.254   2.869   0.938
  934SOL    HW2 3369   0.185   3.017   0.941
  935SOL     OW 3370   0.620   3.648   1.439
  935SOL    HW1 3371   0.528   3.631   1.474
  935SOL    HW2 3372   0.648   3.740   1.465
  936SOL     OW 3373   0.606   2.826   0.123
  936SOL    HW1 3374   0.613   2.910   0.069
  936SOL    HW2 3375   0.652   2.839   0.211
  937SOL     OW 3376   1.594   1.976   1.480
  937SOL    HW1 3377   1.576   2.043   1.408
  937SOL    HW2 3378   1.591   2.022   1.569
  938SOL     OW 3379   0.122   2.505   0.563
  938SOL    HW1 3380   0.077   2.417   0.580
  938SOL    HW2 3381   0.121   2.559   0.647
  939SOL     OW 3382   1.842   3.629   0.359
  939SOL    HW1 3383   1.896   3.600   0.439
  939SOL    HW2 3384   1.872   3.719   0.330
  940SOL     OW 3385   0.027   3.458   0.117
  940SOL    HW1 3386   0.008   3.362   0.138
  940SOL    HW2 3387  -0.006   3.516   0.192
  941SOL     OW 3388   1.689   2.784   0.612
  941SOL    HW1 3389   1.784   2.755   0.620
  941SOL    HW2 3390   1.681   2.849   0.537
  942SOL     OW 3391   1.641   2.970   0.432
  942SOL    HW1 3392   1.727   2.972   0.380
  942SOL    HW2 3393   1.655   3.017   0.520
  943SOL     OW 3394   0.113   2.599   1.597
  943SOL    HW1 3395   0.201   2.586   1.642
  943SOL    HW2 3396   0.100   2.696   1.575
  944SOL     OW 3397   0.613   3.227   0.726
  944SOL    HW1 3398   0.564   3.140   0.735
  944SOL    HW2 3399   0.590   3.270   0.639
  945SOL     OW 3400   1.293   3.090   1.423
  945SOL    HW1 3401   1.330   3.017   1.365
  945SOL    HW2 3402   1.345   3.095   1.508
  946SOL     OW 3403   0.809   1.866   0.502
  946SOL    HW1 3404   0.849   1.957   0.493
  946SOL    HW2 3405   0.709   1.874   0.508
  947SOL     OW 3406   0.197   2.838   1.264
  947SOL    HW1 3407   0.286   2.793   1.250
  947SOL    HW2 3408   0.124   2.773   1.245
  948SOL     OW 3409   1.525   2.861   0.190
  948SOL    HW1 3410   1.462   2.785   0.203
  948SOL    HW2 3411   1.573   2.879   0.276
  949SOL     OW 3412   1.187   3.654   1.616
  949SOL    HW1 3413   1.211   3.714   1.540
  949SOL    HW2 3414   1.194   3.559   1.586
  950SOL     OW 3415   0.317   2.113   1.801
  950SOL    HW1 3416   0.388   2.184   1.807
  950SOL    HW2 3417   0.229   2.152   1.829
  951SOL     OW 3418   1.466   3.279   0.953
  951SOL    HW1 3419   1.407   3.285   1.033
  951SOL    HW2 3420   1.451   3.191   0.907
  952SOL     OW 3421   1.667   3.576   0.572
  952SOL    HW1 3422   1.626   3.553   0.484
  952SOL    HW2 3423   1.649   3.502   0.637
  953SOL     OW 3424   0.598   2.591   0.270
  953SOL    HW1 3425   0.622   2.660   0.202
  953SOL    HW2 3426   0.520   2.624   0.324
  954SOL     OW 3427   1.281   2.207   0.944
  954SOL    HW1 3428   1.195   2.157   0.931
  954SOL    HW2 3429   1.343   2.153   1.000
  955SOL     OW 3430   1.576   3.524   0.307
  955SOL    HW1 3431   1.665   3.570   0.310
  955SOL    HW2 3432   1.555   3.500   0.212
  956SOL     OW 3433   0.807   2.467   1.465
  956SOL    HW1 3434   0.760   2.464   1.554
  956SOL    HW2 3435   0.756   2.412   1.399
  957SOL     OW 3436   1.394   2.331   1.674
  957SOL    HW1 3437   1.374   2.374   1.762
  957SOL    HW2 3438   1.472   2.269   1.683
  958SOL     OW 3439   0.973   2.752   1.572
  958SOL    HW1 3440   1.019   2.668   1.543
  958SOL    HW2 3441   0.917   2.786   1.497
  959SOL     OW 3442   0.991   2.272   1.242
  959SOL    HW1 3443   0.914   2.306   1.296
  959SOL    HW2 3444   0.957   2.221   1.163
  960SOL     OW 3445   1.041   2.563   0.429
  960SOL    HW1 3446   1.067   2.559   0.525
  960SOL    HW2 3447   0.956   2.512   0.415
  961SOL     OW 3448   0.076   2.673   0.789
  961SOL    HW1 3449   0.175   2.661   0.798
  961SOL    HW2 3450   0.052   2.768   0.810
  962SOL     OW 3451   0.130   3.683   1.571
  962SOL    HW1 3452   0.120   3.668   1.670
  962SOL    HW2 3453   0.044   3.719   1.535
  963SOL     OW 3454   0.865   2.210   0.195
  963SOL    HW1 3455   0.924   2.273   0.146
  963SOL    HW2 3456   0.884   2.116   0.166
  964SOL     OW 3457   1.719   2.447   1.831
  964SOL    HW1 3458   1.693   2.536   1.795
  964SOL    HW2 3459   1.717   2.379   1.758
  965SOL     OW 3460   1.362   3.006   0.545
  965SOL    HW1 3461   1.445   2.977   0.497
  965SOL    HW2 3462   1.313   3.073   0.489
  966SOL     OW 3463   0.550   2.058   0.885
  966SOL    HW1 3464   0.545   2.053   0.985
  966SOL    HW2 3465   0.552   2.154   0.856
  967SOL     OW 3466   1.008   3.318   0.477
  967SOL    HW1 3467   0.962   3.390   0.425
  967SOL    HW2 3468   1.004   3.338   0.575
  968SOL     OW 3469   0.351   3.663   0.853
  968SOL    HW1 3470   0.401   3.577   0.859
  968SOL    HW2 3471   0.416   3.740   0.850
  969SOL     OW 3472   1.795   2.928   0.873
  969SOL    HW1 3473   1.733   2.913   0.797
  969SOL    HW2 3474   1.743   2.939   0.958
  970SOL     OW 3475   1.227   3.412   1.506
  970SOL    HW1 3476   1.233   3.335   1.570
  970SOL    HW2 3477   1.175   3.386   1.426
  971SOL     OW 3478   0.321   2.805   0.242
  971SOL    HW1 3479   0.403   2.844   0.200
  971SOL    HW2 3480   0.294   2.723   0.193
  972SOL     OW 3481   1.458   2.597   0.728
  972SOL    HW1 3482   1.453   2.532   0.803
  972SOL    HW2 3483   1.538   2.656   0.741
  973SOL     OW 3484   0.461   3.128   1.727
  973SOL    HW1 3485   0.411   3.129   1.641
  973SOL    HW2 3486   0.398   3.110   1.803
  974SOL     OW 3487   1.111   3.638   0.237
  974SOL    HW1 3488   1.051   3.576   0.287
  974SOL    HW2 3489   1.142   3.594   0.152
  975SOL     OW 3490   0.202   2.147   1.498
  975SOL    HW1 3491   0.122   2.207   1.485
  975SOL    HW2 3492   0.192   2.098   1.584
  976SOL     OW 3493   1.632   3.239   0.081
  976SOL    HW1 3494   1.600   3.333   0.071
  976SOL    HW2 3495   1.556   3.176   0.069
  977SOL     OW 3496   0.464   3.605   0.323
  977SOL    HW1 3497   0.497   3.644   0.409
  977SOL    HW2 3498   0.540   3.598   0.258
  978SOL     OW 3499   1.400   1.969   0.426
  978SOL    HW1 3500   1.376   1.932   0.336
  978SOL    HW2 3501   1.499   1.985   0.430
  979SOL     OW 3502   0.249   3.647   1.241
  979SOL    HW1 3503   0.306   3.582   1.291
  979SOL    HW2 3504   0.233   3.614   1.148
  980SOL     OW 3505   0.940   3.560   0.904
  980SOL    HW1 3506   1.020   3.503   0.925
  980SOL    HW2 3507   0.891   3.520   0.827
  981SOL     OW 3508   0.382   2.562   0.480
  981SOL    HW1 3509   0.427   2.472   0.477
  981SOL    HW2 3510   0.288   2.551   0.513
  982SOL     OW 3511   1.547   2.084   1.729
  982SOL    HW1 3512   1.542   2.121   1.821
  982SOL    HW2 3513   1.475   2.015   1.717
  983SOL     OW 3514   0.614   1.984   0.117
  983SOL    HW1 3515   0.712   1.962   0.124
  983SOL    HW2 3516   0.583   1.967   0.024
  984SOL     OW 3517   0.781   2.126   1.749
  984SOL    HW1 3518   0.848   2.065   1.792
  984SOL    HW2 3519   0.708   2.145   1.814
  985SOL     OW 3520   0.888   3.376   1.195
  985SOL    HW1 3521   0.865   3.351   1.101
  985SOL    HW2 3522   0.949   3.307   1.234
  986SOL     OW 3523   1.351   2.452   1.433
  986SOL    HW1 3524   1.379   2.409   1.518
  986SOL    HW2 3525   1.376   2.548   1.434
  987SOL     OW 3526   0.803   3.264   0.924
  987SOL    HW1 3527   0.893   3.278   0.882
  987SOL    HW2 3528   0.732   3.266   0.853
  988SOL     OW 3529   0.922   2.365   0.899
  988SOL    HW1 3530   0.897   2.356   0.803
  988SOL    HW2 3531   0.970   2.283   0.930
  989SOL     OW 3532   0.539   1.926   0.512
  989SOL    HW1 3533   0.458   1.927   0.570
  989SOL    HW2 3534   0.542   2.009   0.457
  990SOL     OW 3535   1.434   3.050   0.041
  990SOL    HW1 3536   1.466   2.974   0.098
  990SOL    HW2 3537   1.342   3.077   0.071
  991SOL     OW 3538   0.297   1.897   0.171
  991SOL    HW1 3539   0.346   1.981   0.150
  991SOL    HW2 3540   0.359   1.832   0.216
  992SOL     OW 3541   0.935   2.098   0.480
  992SOL    HW1 3542   0.887   2.139   0.402
  992SOL    HW2 3543   1.034   2.096   0.461
  993SOL     OW 3544   1.076   2.545   1.464
  993SOL    HW1 3545   0.996   2.484   1.467
  993SOL    HW2 3546   1.157   2.492   1.440
  994SOL     OW 3547   1.227   3.432   0.793
  994SOL    HW1 3548   1.248   3.506   0.728
  994SOL    HW2 3549   1.295   3.432   0.866
  995SOL     OW 3550   0.459   3.014   0.741
  995SOL    HW1 3551   0.388   2.987   0.806
  995SOL    HW2 3552   0.433   2.986   0.648
  996SOL     OW 3553   1.271   3.659   0.591
  996SOL    HW1 3554   1.315   3.723   0.527
  996SOL    HW2 3555   1.221   3.711   0.661
  997SOL     OW 3556   1.032   2.411   0.016
  997SOL    HW1 3557   0.991   2.493  -0.023
  997SOL    HW2 3558   1.096   2.437   0.089
  998SOL     OW 3559   0.078   2.418   1.386
  998SOL    HW1 3560   0.170   2.417   1.345
  998SOL    HW2 3561   0.072   2.492   1.453
  999SOL     OW 3562   0.561   2.084   1.147
  999SOL    HW1 3563   0.599   2.000   1.184
  999SOL    HW2 3564   0.473   2.103   1.191
 1000SOL     OW 3565   0.866   2.316   0.642
 1000SOL    HW1 3566   0.834   2.388   0.580
 1000SOL    HW2 3567   0.890   2.235   0.589
 1001SOL     OW 3568   1.017   1.901   0.753
 1001SOL    HW1 3569   0.945   1.906   0.684
 1001SOL    HW2 3570   0.993   1.832   0.822
 1002SOL     OW 3571   1.429   3.035   0.867
 1002SOL    HW1 3572   1.374   2.951   0.860
 1002SOL    HW2 3573   1.455   3.064   0.775
 1003SOL     OW 3574   1.466   2.452   0.992
 1003SOL    HW1 3575   1.436   2.357   0.999
 1003SOL    HW2 3576   1.539   2.468   1.058
 1004SOL     OW 3577   1.857   2.695   0.377
 1004SOL    HW1 3578   1.899   2.631   0.441
 1004SOL    HW2 3579   1.819   2.644   0.299
 1005SOL     OW 3580   0.488   3.247   0.174
 1005SOL    HW1 3581   0.401   3.232   0.221
 1005SOL    HW2 3582   0.471   3.273   0.079
 1006SOL     OW 3583   1.664   3.142   0.657
 1006SOL    HW1 3584   1.763   3.150   0.671
 1006SOL    HW2 3585   1.619   3.226   0.688
 1007SOL     OW 3586   1.390   2.437   0.078
 1007SOL    HW1 3587   1.336   2.416   0.159
 1007SOL    HW2 3588   1.481   2.396   0.087
 1008SOL     OW 3589   0.527   2.118   0.328
 1008SOL    HW1 3590   0.554   2.059   0.253
 1008SOL    HW2 3591   0.527   2.213   0.297
 1009SOL     OW 3592   1.754   3.085   1.588
 1009SOL    HW1 3593   1.845   3.046   1.575
 1009SOL    HW2 3594   1.762   3.181   1.612
 1010SOL     OW 3595   1.064   3.209   1.340
 1010SOL    HW1 3596   0.984   3.186   1.395
 1010SOL    HW2 3597   1.147   3.183   1.389
 1011SOL     OW 3598   1.592   3.491   1.625
 1011SOL    HW1 3599   1.619   3.525   1.535
 1011SOL    HW2 3600   1.671   3.453   1.671
 1012SOL     OW 3601   1.111   3.057   1.100
 1012SOL    HW1 3602   1.071   3.101   1.181
 1012SOL    HW2 3603   1.070   3.094   1.017
 1013SOL     OW 3604   1.638   2.961   1.079
 1013SOL    HW1 3605   1.643   3.042   1.138
 1013SOL    HW2 3606   1.552   2.963   1.028
 1014SOL     OW 3607   0.915   1.951   1.402
 1014SOL    HW1 3608   0.940   1.931   1.307
 1014SOL    HW2 3609   0.987   2.007   1.444
 1015SOL     OW 3610   0.980   2.978   1.719
 1015SOL    HW1 3611   0.881   2.984   1.729
 1015SOL    HW2 3612   1.003   2.898   1.663
 1016SOL     OW 3613   0.705   2.912   0.368
 1016SOL    HW1 3614   0.691   2.919   0.467
 1016SOL    HW2 3615   0.789   2.861   0.350
 1017SOL     OW 3616   0.410   2.675   1.251
 1017SOL    HW1 3617   0.496   2.687   1.301
 1017SOL    HW2 3618   0.368   2.588   1.278
 1018SOL     OW 3619   1.274   2.248   1.262
 1018SOL    HW1 3620   1.295   2.322   1.326
 1018SOL    HW2 3621   1.185   2.265   1.219
 1019SOL     OW 3622   0.064   3.426   1.331
 1019SOL    HW1 3623   0.018   3.508   1.297
 1019SOL    HW2 3624   0.162   3.445   1.340
 1020SOL     OW 3625   0.367   2.962   0.501
 1020SOL    HW1 3626   0.360   3.045   0.445
 1020SOL    HW2 3627   0.371   2.882   0.441
 1021SOL     OW 3628   0.566   2.399   0.865
 1021SOL    HW1 3629   0.578   2.465   0.791
 1021SOL    HW2 3630   0.612   2.433   0.948
 1022SOL     OW 3631   1.252   3.210   0.388
 1022SOL    HW1 3632   1.302   3.287   0.428
 1022SOL    HW2 3633   1.157   3.212   0.420
 1023SOL     OW 3634   1.272   3.307   1.142
 1023SOL    HW1 3635   1.319   3.320   1.229
 1023SOL    HW2 3636   1.206   3.233   1.151
 1024SOL     OW 3637   1.582   2.501   0.472
 1024SOL    HW1 3638   1.551   2.562   0.545
 1024SOL    HW2 3639   1.632   2.553   0.403
 1025SOL     OW 3640   0.354   3.372   1.329
 1025SOL    HW1 3641   0.333   3.328   1.242
 1025SOL    HW2 3642   0.451   3.398   1.332
 1026SOL     OW 3643   0.402   2.613   1.598
 1026SOL    HW1 3644   0.470   2.668   1.551
 1026SOL    HW2 3645   0.442   2.525   1.625
 1027SOL     OW 3646   1.587   2.641   1.670
 1027SOL    HW1 3647   1.495   2.679   1.665
 1027SOL    HW2 3648   1.647   2.688   1.605
 1028SOL     OW 3649   1.013   1.967   1.770
 1028SOL    HW1 3650   1.019   2.052   1.718
 1028SOL    HW2 3651   1.045   1.891   1.713
 1029SOL     OW 3652   0.504   1.912   1.740
 1029SOL    HW1 3653   0.462   1.855   1.670
 1029SOL    HW2 3654   0.438   1.981   1.772
 1030SOL     OW 3655   0.573   2.732   1.029
 1030SOL    HW1 3656   0.617   2.821   1.020
 1030SOL    HW2 3657   0.510   2.732   1.106
 1031SOL     OW 3658   1.360   2.724   1.045
 1031SOL    HW1 3659   1.285   2.724   0.979
 1031SOL    HW2 3660   1.397   2.632   1.054
 1032SOL     OW 3661   1.209   2.387   0.275
 1032SOL    HW1 3662   1.222   2.303   0.329
 1032SOL    HW2 3663   1.180   2.461   0.335
 1033SOL     OW 3664   0.307   2.075   1.231
 1033SOL    HW1 3665   0.284   2.112   1.321
 1033SOL    HW2 3666   0.277   1.980   1.225
 1034SOL     OW 3667   0.037   3.172   1.282
 1034SOL    HW1 3668   0.090   3.123   1.350
 1034SOL    HW2 3669   0.059   3.270   1.287
 1035SOL     OW 3670   0.732   2.496   1.064
 1035SOL    HW1 3671   0.791   2.470   0.988
 1035SOL    HW2 3672   0.704   2.592   1.053
 1036SOL     OW 3673   1.728   2.797   1.854
 1036SOL    HW1 3674   1.682   2.790   1.765
 1036SOL    HW2 3675   1.666   2.841   1.920
 1037SOL     OW 3676   0.307   1.925   0.618
 1037SOL    HW1 3677   0.296   2.019   0.651
 1037SOL    HW2 3678   0.302   1.862   0.695
 1038SOL     OW 3679   1.622   2.229   0.374
 1038SOL    HW1 3680   1.624   2.153   0.438
 1038SOL    HW2 3681   1.574   2.306   0.414
 1039SOL     OW 3682   1.023   2.628   0.966
 1039SOL    HW1 3683   1.038   2.649   1.062
 1039SOL    HW2 3684   0.993   2.533   0.957
 1040SOL     OW 3685   0.980   3.435   1.700
 1040SOL    HW1 3686   0.960   3.479   1.612
 1040SOL    HW2 3687   1.019   3.344   1.684
 1041SOL     OW 3688   1.859   3.380   1.605
 1041SOL    HW1 3689   1.873   3.407   1.510
 1041SOL    HW2 3690   1.942   3.402   1.658
 1042SOL     OW 3691   0.350   2.760   1.804
 1042SOL    HW1 3692   0.426   2.804   1.852
 1042SOL    HW2 3693   0.385   2.713   1.722
 1043SOL     OW 3694   1.540   2.136   0.125
 1043SOL    HW1 3695   1.479   2.061   0.148
 1043SOL    HW2 3696   1.562   2.188   0.208
 1044SOL     OW 3697   1.303   2.700   0.042
 1044SOL    HW1 3698   1.337   2.607   0.057
 1044SOL    HW2 3699   1.321   2.727  -0.053
 1045SOL     OW 3700   1.068   3.195   0.849
 1045SOL    HW1 3701   1.075   3.111   0.794
 1045SOL    HW2 3702   1.130   3.264   0.813
 1046SOL     OW 3703   0.319   2.672   0.949
 1046SOL    HW1 3704   0.412   2.708   0.954
 1046SOL    HW2 3705   0.313   2.587   1.001
 1047SOL     OW 3706   0.339   2.371   1.006
 1047SOL    HW1 3707   0.287   2.288   0.989
 1047SOL    HW2 3708   0.416   2.376   0.942
 1048SOL     OW 3709   1.138   2.242   1.678
 1048SOL    HW1 3710   1.093   2.305   1.742
 1048SOL    HW2 3711   1.231   2.273   1.661
 1049SOL     OW 3712   1.160   2.069   1.477
 1049SOL    HW1 3713   1.160   2.133   1.554
 1049SOL    HW2 3714   1.188   2.117   1.394
 1050SOL     OW 3715   0.008   3.188   0.200
 1050SOL    HW1 3716  -0.085   3.209   0.169
 1050SOL    HW2 3717   0.018   3.089   0.213
 1051SOL     OW 3718   0.088   3.663   0.927
 1051SOL    HW1 3719   0.046   3.577   0.900
 1051SOL    HW2 3720   0.182   3.666   0.893
 1052SOL     OW 3721   0.504   3.430   0.910
 1052SOL    HW1 3722   0.570   3.504   0.919
 1052SOL    HW2 3723   0.548   3.351   0.868
 1053SOL     OW 3724   1.002   2.658   1.238
 1053SOL    HW1 3725   1.043   2.626   1.324
 1053SOL    HW2 3726   0.906   2.631   1.235
 1054SOL     OW 3727   0.040   2.406   1.114
 1054SOL    HW1 3728   0.125   2.373   1.073
 1054SOL    HW2 3729   0.053   2.421   1.212
 1055SOL     OW 3730   0.189   2.382   1.722
 1055SOL    HW1 3731   0.248   2.342   1.652
 1055SOL    HW2 3732   0.131   2.453   1.681
 1056SOL     OW 3733   1.369   2.812   1.660
 1056SOL    HW1 3734   1.408   2.901   1.680
 1056SOL    HW2 3735   1.379   2.792   1.563
 1057SOL     OW 3736   0.815   2.434   0.325
 1057SOL    HW1 3737   0.822   2.345   0.279
 1057SOL    HW2 3738   0.721   2.468   0.317
 1058SOL     OW 3739   1.657   2.466   1.206
 1058SOL    HW1 3740   1.619   2.397   1.268
 1058SOL    HW2 3741   1.739   2.430   1.162
 1059SOL     OW 3742   0.252   3.426   1.744
 1059SOL    HW1 3743   0.222   3.483   1.820
 1059SOL    HW2 3744   0.245   3.329   1.770
 1060SOL     OW 3745   0.671   2.326   1.269
 1060SOL    HW1 3746   0.637   2.237   1.239
 1060SOL    HW2 3747   0.697   2.380   1.189
 1061SOL     OW 3748   0.930   3.540   1.465
 1061SOL    HW1 3749   0.906   3.522   1.370
 1061SOL    HW2 3750   0.960   3.634   1.475
 1062SOL     OW 3751   0.473   2.362   0.191
 1062SOL    HW1 3752   0.534   2.442   0.195
 1062SOL    HW2 3753   0.378   2.393   0.198
 1063SOL     OW 3754   0.159   2.999   1.466
 1063SOL    HW1 3755   0.181   2.938   1.542
 1063SOL    HW2 3756   0.169   2.950   1.380
 1064SOL     OW 3757   1.347   2.921   1.234
 1064SOL    HW1 3758   1.371   2.858   1.160
 1064SOL    HW2 3759   1.257   2.961   1.216
 1065SOL     OW 3760   1.302   2.717   0.309
 1065SOL    HW1 3761   1.216   2.686   0.351
 1065SOL    HW2 3762   1.298   2.703   0.210
 1066SOL     OW 3763   1.759   3.609   1.154
 1066SOL    HW1 3764   1.820   3.639   1.081
 1066SOL    HW2 3765   1.721   3.520   1.132
 1067SOL     OW 3766   1.252   3.593   1.128
 1067SOL    HW1 3767   1.336   3.598   1.074
 1067SOL    HW2 3768   1.229   3.497   1.146
 1068SOL     OW 3769   0.083   3.120   1.022
 1068SOL    HW1 3770   0.078   3.119   1.122
 1068SOL    HW2 3771   0.000   3.079   0.984
 1069SOL     OW 3772   0.688   3.524   1.716
 1069SOL    HW1 3773   0.632   3.605   1.725
 1069SOL    HW2 3774   0.740   3.528   1.630
 1070SOL     OW 3775   0.903   1.948   0.133
 1070SOL    HW1 3776   0.954   1.949   0.047
 1070SOL    HW2 3777   0.959   1.906   0.204
 1071SOL     OW 3778   1.726   1.997   0.523
 1071SOL    HW1 3779   1.799   1.980   0.456
 1071SOL    HW2 3780   1.695   1.910   0.561
 1072SOL     OW 3781   1.388   3.435   0.477
 1072SOL    HW1 3782   1.455   3.447   0.403
 1072SOL    HW2 3783   1.348   3.524   0.500
 1073SOL     OW 3784   0.130   3.656   1.851
 1073SOL    HW1 3785   0.089   3.582   1.904
 1073SOL    HW2 3786   0.194   3.707   1.909
 1074SOL     OW 3787   1.280   2.789   0.672
 1074SOL    HW1 3788   1.340   2.708   0.674
 1074SOL    HW2 3789   1.320   2.858   0.612
 1075SOL     OW 3790   0.830   3.135   1.422
 1075SOL    HW1 3791   0.825   3.168   1.517
 1075SOL    HW2 3792   0.744   3.154   1.376
 1076SOL     OW 3793   0.672   3.478   0.154
 1076SOL    HW1 3794   0.681   3.488   0.055
 1076SOL    HW2 3795   0.632   3.389   0.175
 1077SOL     OW 3796   1.650   3.582   1.394
 1077SOL    HW1 3797   1.703   3.592   1.310
 1077SOL    HW2 3798   1.623   3.672   1.428
 1078SOL     OW 3799   1.841   2.037   0.963
 1078SOL    HW1 3800   1.880   1.952   0.927
 1078SOL    HW2 3801   1.743   2.039   0.944
 1079SOL     OW 3802   0.263   2.188   0.720
 1079SOL    HW1 3803   0.184   2.239   0.686
 1079SOL    HW2 3804   0.254   2.173   0.818
 1080SOL     OW 3805   1.194   3.474   0.031
 1080SOL    HW1 3806   1.200   3.381   0.068
 1080SOL    HW2 3807   1.135   3.474  -0.049
 1081SOL     OW 3808   0.822   2.864   1.372
 1081SOL    HW1 3809   0.862   2.863   1.280
 1081SOL    HW2 3810   0.832   2.956   1.412
 1082SOL     OW 3811   0.916   2.772   0.291
 1082SOL    HW1 3812   0.979   2.810   0.223
 1082SOL    HW2 3813   0.956   2.689   0.330
 1083SOL     OW 3814   1.504   3.469   0.044
 1083SOL    HW1 3815   1.412   3.506   0.051
 1083SOL    HW2 3816   1.542   3.489  -0.046
 1084SOL     OW 3817   0.372   3.150   1.490
 1084SOL    HW1 3818   0.359   3.243   1.456
 1084SOL    HW2 3819   0.288   3.098   1.477
 1085SOL     OW 3820   1.614   3.154   1.289
 1085SOL    HW1 3821   1.674   3.157   1.369
 1085SOL    HW2 3822   1.539   3.218   1.302
 1086SOL     OW 3823   1.039   2.960   0.696
 1086SOL    HW1 3824   0.969   2.913   0.750
 1086SOL    HW2 3825   1.098   2.892   0.653
 1087SOL     OW 3826   1.014   2.098   0.971
 1087SOL    HW1 3827   1.006   2.062   0.878
 1087SOL    HW2 3828   1.012   2.022   1.036
 1088SOL     OW 3829   0.590   3.349   0.491
 1088SOL    HW1 3830   0.632   3.291   0.421
 1088SOL    HW2 3831   0.546   3.428   0.447
 1089SOL     OW 3832   1.709   2.247   1.381
 1089SOL    HW1 3833   1.782   2.316   1.385
 1089SOL    HW2 3834   1.737   2.172   1.322
 1090SOL     OW 3835   0.255   3.210   0.290
 1090SOL    HW1 3836   0.159   3.211   0.263
 1090SOL    HW2 3837   0.267   3.263   0.374
 1091SOL     OW 3838   0.105   2.875   1.726
 1091SOL    HW1 3839   0.028   2.842   1.780
 1091SOL    HW2 3840   0.190   2.845   1.768
 1092SOL     OW 3841   0.672   2.065   1.489
 1092SOL    HW1 3842   0.762   2.049   1.449
 1092SOL    HW2 3843   0.680   2.070   1.588
 1093SOL     OW 3844   0.075   2.207   0.033
 1093SOL    HW1 3845  -0.017   2.179   0.004
 1093SOL    HW2 3846   0.106   2.284  -0.023
 1094SOL     OW 3847   1.440   2.718   1.398
 1094SOL    HW1 3848   1.383   2.770   1.335
 1094SOL    HW2 3849   1.536   2.730   1.374
 1095SOL     OW 3850   0.072   2.028   0.318
 1095SOL    HW1 3851   0.055   2.111   0.264
 1095SOL    HW2 3852   0.162   1.991   0.296
 1096SOL     OW 3853   1.183   3.197   0.119
 1096SOL    HW1 3854   1.084   3.186   0.121
 1096SOL    HW2 3855   1.217   3.212   0.212
 1097SOL     OW 3856   0.613   2.704   1.431
 1097SOL    HW1 3857   0.669   2.785   1.414
 1097SOL    HW2 3858   0.672   2.624   1.434
 1098SOL     OW 3859   1.493   3.629   0.959
 1098SOL    HW1 3860   1.526   3.693   0.890
 1098SOL    HW2 3861   1.559   3.623   1.034
 1099SOL     OW 3862   0.716   2.427   1.708
 1099SOL    HW1 3863   0.735   2.492   1.782
 1099SOL    HW2 3864   0.776   2.347   1.717
 1100SOL     OW 3865   1.450   3.082   1.633
 1100SOL    HW1 3866   1.441   3.072   1.732
 1100SOL    HW2 3867   1.546   3.075   1.607
 1101SOL     OW 3868   0.390   3.603   1.560
 1101SOL    HW1 3869   0.299   3.644   1.558
 1101SOL    HW2 3870   0.383   3.509   1.592
 1102SOL     OW 3871   1.674   2.745   1.254
 1102SOL    HW1 3872   1.647   2.656   1.217
 1102SOL    HW2 3873   1.675   2.813   1.181
 1103SOL     OW 3874   1.225   2.187   0.449
 1103SOL    HW1 3875   1.290   2.113   0.438
 1103SOL    HW2 3876   1.245   2.237   0.533
 1104SOL     OW 3877   0.594   2.607   0.652
 1104SOL    HW1 3878   0.644   2.692   0.633
 1104SOL    HW2 3879   0.506   2.609   0.604
 1105SOL     OW 3880   1.777   2.204   1.642
 1105SOL    HW1 3881   1.760   2.235   1.548
 1105SOL    HW2 3882   1.693   2.167   1.680
 1106SOL     OW 3883   1.730   2.796   1.517
 1106SOL    HW1 3884   1.768   2.887   1.532
 1106SOL    HW2 3885   1.722   2.779   1.418
 1107SOL     OW 3886   0.859   3.236   0.016
 1107SOL    HW1 3887   0.813   3.251   0.104
 1107SOL    HW2 3888   0.903   3.321  -0.014
 1108SOL     OW 3889   0.661   3.652   0.953
 1108SOL    HW1 3890   0.615   3.740   0.940
 1108SOL    HW2 3891   0.760   3.664   0.946
 1109SOL     OW 3892   0.859   2.818   0.861
 1109SOL    HW1 3893   0.913   2.749   0.909
 1109SOL    HW2 3894   0.827   2.887   0.927
 1110SOL     OW 3895   1.083   2.846   0.087
 1110SOL    HW1 3896   1.060   2.899   0.005
 1110SOL    HW2 3897   1.164   2.790   0.068
 1111SOL     OW 3898   1.861   3.431   0.851
 1111SOL    HW1 3899   1.790   3.419   0.781
 1111SOL    HW2 3900   1.862   3.352   0.911
 1112SOL     OW 3901   0.221   3.176   1.844
 1112SOL    HW1 3902   0.156   3.103   1.823
 1112SOL    HW2 3903   0.225   3.190   1.942
 1113SOL     OW 3904   0.079   3.102   0.653
 1113SOL    HW1 3905   0.078   3.055   0.741
 1113SOL    HW2 3906   0.161   3.074   0.602
 1114SOL     OW 3907   0.672   3.253   1.624
 1114SOL    HW1 3908   0.594   3.203   1.662
 1114SOL    HW2 3909   0.669   3.348   1.655
 1115SOL     OW 3910   1.824   2.054   1.227
 1115SOL    HW1 3911   1.820   1.964   1.271
 1115SOL    HW2 3912   1.827   2.043   1.128
 1116SOL     OW 3913   0.428   2.286   0.520
 1116SOL    HW1 3914   0.458   2.214   0.458
 1116SOL    HW2 3915   0.389   2.246   0.603
 1117SOL     OW 3916   1.705   3.349   1.104
 1117SOL    HW1 3917   1.612   3.324   1.077
 1117SOL    HW2 3918   1.731   3.299   1.186
 1118SOL     OW 3919   0.317   2.409   1.280
 1118SOL    HW1 3920   0.355   2.350   1.352
 1118SOL    HW2 3921   0.357   2.383   1.192
 1119SOL     OW 3922   0.812   3.448   0.687
 1119SOL    HW1 3923   0.844   3.458   0.593
 1119SOL    HW2 3924   0.733   3.386   0.689
 1120SOL     OW 3925   1.424   2.076   1.112
 1120SOL    HW1 3926   1.476   2.011   1.167
 1120SOL    HW2 3927   1.375   2.139   1.173
 1121SOL     OW 3928   1.001   1.896   1.154
 1121SOL    HW1 3929   0.938   1.824   1.123
 1121SOL    HW2 3930   1.094   1.860   1.154
 1122SOL     OW 3931   0.770   3.192   0.301
 1122SOL    HW1 3932   0.724   3.105   0.318
 1122SOL    HW2 3933   0.861   3.189   0.342
 1123SOL     OW 3934   0.618   3.429   1.284
 1123SOL    HW1 3935   0.613   3.511   1.341
 1123SOL    HW2 3936   0.707   3.426   1.239
 1124SOL     OW 3937   1.352   1.914   0.168
 1124SOL    HW1 3938   1.387   1.873   0.084
 1124SOL    HW2 3939   1.262   1.876   0.188
 1125SOL     OW 3940   1.300   2.315   0.691
 1125SOL    HW1 3941   1.241   2.395   0.695
 1125SOL    HW2 3942   1.315   2.280   0.784
 1126SOL     OW 3943   1.593   2.083   0.882
 1126SOL    HW1 3944   1.509   2.082   0.936
 1126SOL    HW2 3945   1.595   2.166   0.826
 1127SOL     OW 3946   0.039   2.939   0.300
 1127SOL    HW1 3947   0.138   2.928   0.291
 1127SOL    HW2 3948  -0.001   2.853   0.332
 1128SOL     OW 3949   0.875   3.508   0.337
 1128SOL    HW1 3950   0.798   3.473   0.283
 1128SOL    HW2 3951   0.843   3.579   0.399
 1129SOL     OW 3952   0.230   2.490   1.975
 1129SOL    HW1 3953   0.137   2.488   2.012
 1129SOL    HW2 3954   0.231   2.451   1.883
 1130SOL     OW 3955   0.225   2.137   2.858
 1130SOL    HW1 3956   0.260   2.120   2.950
 1130SOL    HW2 3957   0.137   2.092   2.846
 1131SOL     OW 3958   0.019   2.230   2.509
 1131SOL    HW1 3959  -0.063   2.273   2.548
 1131SOL    HW2 3960  -0.009   2.157   2.446
 1132SOL     OW 3961   0.569   3.137   3.027
 1132SOL    HW1 3962   0.476   3.130   2.990
 1132SOL    HW2 3963   0.580   3.226   3.071
 1133SOL     OW 3964   1.555   3.373   2.565
 1133SOL    HW1 3965   1.498   3.357   2.646
 1133SOL    HW2 3966   1.496   3.383   2.485
 1134SOL     OW 3967   1.135   2.565   2.579
 1134SOL    HW1 3968   1.192   2.643   2.554
 1134SOL    HW2 3969   1.075   2.591   2.655
 1135SOL     OW 3970   1.755   2.469   2.093
 1135SOL    HW1 3971   1.743   2.456   1.994
 1135SOL    HW2 3972   1.725   2.388   2.142
 1136SOL     OW 3973   0.768   3.006   2.885
 1136SOL    HW1 3974   0.690   3.023   2.945
 1136SOL    HW2 3975   0.802   3.093   2.849
 1137SOL     OW 3976   0.850   2.660   3.685
 1137SOL    HW1 3977   0.846   2.736   3.750
 1137SOL    HW2 3978   0.872   2.696   3.594
 1138SOL     OW 3979   0.685   2.874   2.527
 1138SOL    HW1 3980   0.754   2.858   2.597
 1138SOL    HW2 3981   0.612   2.931   2.565
 1139SOL     OW 3982   0.686   3.023   3.665
 1139SOL    HW1 3983   0.746   3.102   3.679
 1139SOL    HW2 3984   0.600   3.054   3.624
 1140SOL     OW 3985   0.335   3.297   2.923
 1140SOL    HW1 3986   0.257   3.266   2.870
 1140SOL    HW2 3987   0.393   3.355   2.866
 1141SOL     OW 3988   1.460   3.367   3.201
 1141SOL    HW1 3989   1.484   3.461   3.227
 1141SOL    HW2 3990   1.444   3.313   3.283
 1142SOL     OW 3991   0.438   2.254   3.361
 1142SOL    HW1 3992   0.520   2.198   3.370
 1142SOL    HW2 3993   0.357   2.196   3.365
 1143SOL     OW 3994   1.603   2.309   2.599
 1143SOL    HW1 3995   1.529   2.355   2.549
 1143SOL    HW2 3996   1.654   2.377   2.652
 1144SOL     OW 3997   0.231   3.575   2.345
 1144SOL    HW1 3998   0.265   3.652   2.399
 1144SOL    HW2 3999   0.275   3.575   2.255
 1145SOL     OW 4000   1.127   3.203   3.552
 1145SOL    HW1 4001   1.174   3.203   3.640
 1145SOL    HW2 4002   1.079   3.116   3.541
 1146SOL     OW 4003   0.230   3.296   2.400
 1146SOL    HW1 4004   0.204   3.392   2.400
 1146SOL    HW2 4005   0.159   3.242   2.445
 1147SOL     OW 4006   0.240   2.953   2.748
 1147SOL    HW1 4007   0.254   2.869   2.800
 1147SOL    HW2 4008   0.185   3.017   2.803
 1148SOL     OW 4009   0.620   3.648   3.301
 1148SOL    HW1 4010   0.528   3.631   3.336
 1148SOL    HW2 4011   0.648   3.740   3.327
 1149SOL     OW 4012   0.606   2.826   1.985
 1149SOL    HW1 4013   0.613   2.910   1.931
 1149SOL    HW2 4014   0.652   2.839   2.073
 1150SOL     OW 4015   1.594   1.976   3.342
 1150SOL    HW1 4016   1.576   2.043   3.270
 1150SOL    HW2 4017   1.591   2.022   3.431
 1151SOL     OW 4018   0.122   2.505   2.425
 1151SOL    HW1 4019   0.077   2.417   2.442
 1151SOL    HW2 4020   0.121   2.559   2.509
 1152SOL     OW 4021   1.842   3.629   2.221
 1152SOL    HW1 4022   1.896   3.600   2.301
 1152SOL    HW2 4023   1.872   3.719   2.192
 1153SOL     OW 4024   0.027   3.458   1.979
 1153SOL    HW1 4025   0.008   3.362   2.000
 1153SOL    HW2 4026  -0.006   3.516   2.054
 1154SOL     OW 4027   1.689   2.784   2.474
 1154SOL    HW1 4028   1.784   2.755   2.482
 1154SOL    HW2 4029   1.681   2.849   2.399
 1155SOL     OW 4030   1.641   2.970   2.294
 1155SOL    HW1 4031   1.727   2.972   2.242
 1155SOL    HW2 4032   1.655   3.017   2.382
 1156SOL     OW 4033   0.113   2.599   3.459
 1156SOL    HW1 4034   0.201   2.586   3.504
 1156SOL    HW2 4035   0.100   2.696   3.437
 1157SOL     OW 4036   0.613   3.227   2.588
 1157SOL    HW1 4037   0.564   3.140   2.597
 1157SOL    HW2 4038   0.590   3.270   2.501
 1158SOL     OW 4039   1.293   3.090   3.285
 1158SOL    HW1 4040   1.330   3.017   3.227
 1158SOL    HW2 4041   1.345   3.095   3.370
 1159SOL     OW 4042   0.809   1.866   2.364
 1159SOL    HW1 4043   0.849   1.957   2.355
 1159SOL    HW2 4044   0.709   1.874   2.370
 1160SOL     OW 4045   0.197   2.838   3.126
 1160SOL    HW1 4046   0.286   2.793   3.112
 1160SOL    HW2 4047   0.124   2.773   3.107
 1161SOL     OW 4048   1.525   2.861   2.052
 1161SOL    HW1 4049   1.462   2.785   2.065
 1161SOL    HW2 4050   1.573   2.879   2.138
 1162SOL     OW 4051   1.187   3.654   3.478
 1162SOL    HW1 4052   1.211   3.714   3.402
 1162SOL    HW2 4053   1.194   3.559   3.448
 1163SOL     OW 4054   0.317   2.113   3.663
 1163SOL    HW1 4055   0.388   2.184   3.669
 1163SOL    HW2 4056   0.229   2.152   3.691
 1164SOL     OW 4057   1.466   3.279   2.815
 1164SOL    HW1 4058   1.407   3.285   2.895
 1164SOL    HW2 4059   1.451   3.191   2.769
 1165SOL     OW 4060   1.667   3.576   2.434
 1165SOL    HW1 4061   1.626   3.553   2.346
 1165SOL    HW2 4062   1.649   3.502   2.499
 1166SOL     OW 4063   0.598   2.591   2.132
 1166SOL    HW1 4064   0.622   2.660   2.064
 1166SOL    HW2 4065   0.520   2.624   2.186
 1167SOL     OW 4066   1.281   2.207   2.806
 1167SOL    HW1 4067   1.195   2.157   2.793
 1167SOL    HW2 4068   1.343   2.153   2.862
 1168SOL     OW 4069   1.576   3.524   2.169
 1168SOL    HW1 4070   1.665   3.570   2.172
 1168SOL    HW2 4071   1.555   3.500   2.074
 1169SOL     OW 4072   0.807   2.467   3.327
 1169SOL    HW1 4073   0.760   2.464   3.416
 1169SOL    HW2 4074   0.756   2.412   3.261
 1170SOL     OW 4075   1.394   2.331   3.536
 1170SOL    HW1 4076   1.374   2.374   3.624
 1170SOL    HW2 4077   1.472   2.269   3.545
 1171SOL     OW 4078   0.973   2.752   3.434
 1171SOL    HW1 4079   1.019   2.668   3.405
 1171SOL    HW2 4080   0.917   2.786   3.359
 1172SOL     OW 4081   0.991   2.272   3.104
 1172SOL    HW1 4082   0.914   2.306   3.158
 1172SOL    HW2 4083   0.957   2.221   3.025
 1173SOL     OW 4084   1.041   2.563   2.291
 1173SOL    HW1 4085   1.067   2.559   2.387
 1173SOL    HW2 4086   0.956   2.512   2.277
 1174SOL     OW 4087   0.076   2.673   2.651
 1174SOL    HW1 4088   0.175   2.661   2.660
 1174SOL    HW2 4089   0.052   2.768   2.672
 1175SOL     OW 4090   0.130   3.683   3.433
 1175SOL    HW1 4091   0.120   3.668   3.532
 1175SOL    HW2 4092   0.044   3.719   3.397
 1176SOL     OW 4093   0.865   2.210   2.057
 1176SOL    HW1 4094   0.924   2.273   2.008
 1176SOL    HW2 4095   0.884   2.116   2.028
 1177SOL     OW 4096   1.719   2.447   3.693
 1177SOL    HW1 4097   1.693   2.536   3.657
 1177SOL    HW2 4098   1.717   2.379   3.620
 1178SOL     OW 4099   1.362   3.006   2.407
 1178SOL    HW1 4100   1.445   2.977   2.359
 1178SOL    HW2 4101   1.313   3.073   2.351
 1179SOL     OW 4102   0.550   2.058   2.747
 1179SOL    HW1 4103   0.545   2.053   2.847
 1179SOL    HW2 4104   0.552   2.154   2.718
 1180SOL     OW 4105   1.008   3.318   2.339
 1180SOL    HW1 4106   0.962   3.390   2.287
 1180SOL    HW2 4107   1.004   3.338   2.437
 1181SOL     OW 4108   0.351   3.663   2.715
 1181SOL    HW1 4109   0.401   3.577   2.721
 1181SOL    HW2 4110   0.416   3.740   2.712
 1182SOL     OW 4111   1.795   2.928   2.735
 1182SOL    HW1 4112   1.733   2.913   2.659
 1182SOL    HW2 4113   1.743   2.939   2.820
 1183SOL     OW 4114   1.227   3.412   3.368
 1183SOL    HW1 4115   1.233   3.335   3.432
 1183SOL    HW2 4116   1.175   3.386   3.288
 1184SOL     OW 4117   0.321   2.805   2.104
 1184SOL    HW1 4118   0.403   2.844   2.062
 1184SOL    HW2 4119   0.294   2.723   2.055
 1185SOL     OW 4120   1.458   2.597   2.590
 1185SOL    HW1 4121   1.453   2.532   2.665
 1185SOL    HW2 4122   1.538   2.656   2.603
 1186SOL     OW 4123   0.461   3.128   3.589
 1186SOL    HW1 4124   0.411   3.129   3.503
 1186SOL    HW2 4125   0.398   3.110   3.665
 1187SOL     OW 4126   1.111   3.638   2.099
 1187SOL    HW1 4127   1.051   3.576   2.149
 1187SOL    HW2 4128   1.142   3.594   2.014
 1188SOL     OW 4129   0.202   2.147   3.360
 1188SOL    HW1 4130   0.122   2.207   3.347
 1188SOL    HW2 4131   0.192   2.098   3.446
 1189SOL     OW 4132   1.632   3.239   1.943
 1189SOL    HW1 4133   1.600   3.333   1.933
 1189SOL    HW2 4134   1.556   3.176   1.931
 1190SOL     OW 4135   0.464   3.605   2.185
 1190SOL    HW1 4136   0.497   3.644   2.271
 1190SOL    HW2 4137   0.540   3.598   2.120
 1191SOL     OW 4138   1.400   1.969   2.288
 1191SOL    HW1 4139   1.376   1.932   2.198
 1191SOL    HW2 4140   1.499   1.985   2.292
 1192SOL     OW 4141   0.249   3.647   3.103
 1192SOL    HW1 4142   0.306   3.582   3.153
 1192SOL    HW2 4143   0.233   3.614   3.010
 1193SOL     OW 4144   0.940   3.560   2.766
 1193SOL    HW1 4145   1.020   3.503   2.787
 1193SOL    HW2 4146   0.891   3.520   2.689
 1194SOL     OW 4147   0.382   2.562   2.342
 1194SOL    HW1 4148   0.427   2.472   2.339
 1194SOL    HW2 4149   0.288   2.551   2.375
 1195SOL     OW 4150   1.547   2.084   3.591
 1195SOL    HW1 4151   1.542   2.121   3.683
 1195SOL    HW2 4152   1.475   2.015   3.579
 1196SOL     OW 4153   0.614   1.984   1.979
 1196SOL    HW1 4154   0.712   1.962   1.986
 1196SOL    HW2 4155   0.583   1.967   1.886
 1197SOL     OW 4156   0.781   2.126   3.611
 1197SOL    HW1 4157   0.848   2.065   3.654
 1197SOL    HW2 4158   0.708   2.145   3.676
 1198SOL     OW 4159   0.888   3.376   3.057
 1198SOL    HW1 4160   0.865   3.351   2.963
 1198SOL    HW2 4161   0.949   3.307   3.096
 1199SOL     OW 4162   1.351   2.452   3.295
 1199SOL    HW1 4163   1.379   2.409   3.380
 1199SOL    HW2 4164   1.376   2.548   3.296
 1200SOL     OW 4165   0.803   3.264   2.786
 1200SOL    HW1 4166   0.893   3.278   2.744
 1200SOL    HW2 4167   0.732   3.266   2.715
 1201SOL     OW 4168   0.922   2.365   2.761
 1201SOL    HW1 4169   0.897   2.356   2.665
 1201SOL    HW2 4170   0.970   2.283   2.792
 1202SOL     OW 4171   0.539   1.926   2.374
 1202SOL    HW1 4172   0.458   1.927   2.432
 1202SOL    HW2 4173   0.542   2.009   2.319
 1203SOL     OW 4174   1.434   3.050   1.903
 1203SOL    HW1 4175   1.466   2.974   1.960
 1203SOL    HW2 4176   1.342   3.077   1.933
 1204SOL     OW 4177   0.297   1.897   2.033
 1204SOL    HW1 4178   0.346   1.981   2.012
 1204SOL    HW2 4179   0.359   1.832   2.078
 1205SOL     OW 4180   0.935   2.098   2.342
 1205SOL    HW1 4181   0.887   2.139   2.264
 1205SOL    HW2 4182   1.034   2.096   2.323
 1206SOL     OW 4183   1.076   2.545   3.326
 1206SOL    HW1 4184   0.996   2.484   3.329
 1206SOL    HW2 4185   1.157   2.492   3.302
 1207SOL     OW 4186   1.227   3.432   2.655
 1207SOL    HW1 4187   1.248   3.506   2.590
 1207SOL    HW2 4188   1.295   3.432   2.728
 1208SOL     OW 4189   0.459   3.014   2.603
 1208SOL    HW1 4190   0.388   2.987   2.668
 1208SOL    HW2 4191   0.433   2.986   2.510
 1209SOL     OW 4192   1.271   3.659   2.453
 1209SOL    HW1 4193   1.315   3.723   2.389
 1209SOL    HW2 4194   1.221   3.711   2.523
 1210SOL     OW 4195   1.032   2.411   1.878
 1210SOL    HW1 4196   0.991   2.493   1.839
 1210SOL    HW2 4197   1.096   2.437   1.951
 1211SOL     OW 4198   0.078   2.418   3.248
 1211SOL    HW1 4199   0.170   2.417   3.207
 1211SOL    HW2 4200   0.072   2.492   3.315
 1212SOL     OW 4201   0.561   2.084   3.009
 1212SOL    HW1 4202   0.599   2.000   3.046
 1212SOL    HW2 4203   0.473   2.103   3.053
 1213SOL     OW 4204   0.866   2.316   2.504
 1213SOL    HW1 4205   0.834   2.388   2.442
 1213SOL    HW2 4206   0.890   2.235   2.451
 1214SOL     OW 4207   1.017   1.901   2.615
 1214SOL    HW1 4208   0.945   1.906   2.546
 1214SOL    HW2 4209   0.993   1.832   2.684
 1215SOL     OW 4210   1.429   3.035   2.729
 1215SOL    HW1 4211   1.374   2.951   2.722
 1215SOL    HW2 4212   1.455   3.064   2.637
 1216SOL     OW 4213   1.466   2.452   2.854
 1216SOL    HW1 4214   1.436   2.357   2.861
 1216SOL    HW2 4215   1.539   2.468   2.920
 1217SOL     OW 4216   1.857   2.695   2.239
 1217SOL    HW1 4217   1.899   2.631   2.303
 1217SOL    HW2 4218   1.819   2.644   2.161
 1218SOL     OW 4219   0.488   3.247   2.036
 1218SOL    HW1 4220   0.401   3.232   2.083
 1218SOL    HW2 4221   0.471   3.273   1.941
 1219SOL     OW 4222   1.664   3.142   2.519
 1219SOL    HW1 4223   1.763   3.150   2.533
 1219SOL    HW2 4224   1.619   3.226   2.550
 1220SOL     OW 4225   1.390   2.437   1.940
 1220SOL    HW1 4226   1.336   2.416   2.021
 1220SOL    HW2 4227   1.481   2.396   1.949
 1221SOL     OW 4228   0.527   2.118   2.190
 1221SOL    HW1 4229   0.554   2.059   2.115
 1221SOL    HW2 4230   0.527   2.213   2.159
 1222SOL     OW 4231   1.754   3.085   3.450
 1222SOL    HW1 4232   1.845   3.046   3.437
 1222SOL    HW2 4233   1.762   3.181   3.474
 1223SOL     OW 4234   1.064   3.209   3.202
 1223SOL    HW1 4235   0.984   3.186   3.257
 1223SOL    HW2 4236   1.147   3.183   3.251
 1224SOL     OW 4237   1.592   3.491   3.487
 1224SOL    HW1 4238   1.619   3.525   3.397
 1224SOL    HW2 4239   1.671   3.453   3.533
 1225SOL     OW 4240   1.111   3.057   2.962
 1225SOL    HW1 4241   1.071   3.101   3.043
 1225SOL    HW2 4242   1.070   3.094   2.879
 1226SOL     OW 4243   1.638   2.961   2.941
 1226SOL    HW1 4244   1.643   3.042   3.000
 1226SOL    HW2 4245   1.552   2.963   2.890
 1227SOL     OW 4246   0.915   1.951   3.264
 1227SOL    HW1 4247   0.940   1.931   3.169
 1227SOL    HW2 4248   0.987   2.007   3.306
 1228SOL     OW 4249   0.980   2.978   3.581
 1228SOL    HW1 4250   0.881   2.984   3.591
 1228SOL    HW2 4251   1.003   2.898   3.525
 1229SOL     OW 4252   0.705   2.912   2.230
 1229SOL    HW1 4253   0.691   2.919   2.329
 1229SOL    HW2 4254   0.789   2.861   2.212
 1230SOL     OW 4255   0.410   2.675   3.113
 1230SOL    HW1 4256   0.496   2.687   3.163
 1230SOL    HW2 4257   0.368   2.588   3.140
 1231SOL     OW 4258   1.274   2.248   3.124
 1231SOL    HW1 4259   1.295   2.322   3.188
 1231SOL    HW2 4260   1.185   2.265   3.081
 1232SOL     OW 4261   0.064   3.426   3.193
 1232SOL    HW1 4262   0.018   3.508   3.159
 1232SOL    HW2 4263   0.162   3.445   3.202
 1233SOL     OW 4264   0.367   2.962   2.363
 1233SOL    HW1 4265   0.360   3.045   2.307
 1233SOL    HW2 4266   0.371   2.882   2.303
 1234SOL     OW 4267   0.566   2.399   2.727
 1234SOL    HW1 4268   0.578   2.465   2.653
 1234SOL    HW2 4269   0.612   2.433   2.810
 1235SOL     OW 4270   1.252   3.210   2.250
 1235SOL    HW1 4271   1.302   3.287   2.290
 1235SOL    HW2 4272   1.157   3.212   2.282
 1236SOL     OW 4273   1.272   3.307   3.004
 1236SOL    HW1 4274   1.319   3.320   3.091
 1236SOL    HW2 4275   1.206   3.233   3.013
 1237SOL     OW 4276   1.582   2.501   2.334
 1237SOL    HW1 4277   1.551   2.562   2.407
 1237SOL    HW2 4278   1.632   2.553   2.265
 1238SOL     OW 4279   0.354   3.372   3.191
 1238SOL    HW1 4280   0.333   3.328   3.104
 1238SOL    HW2 4281   0.451   3.398   3.194
 1239SOL     OW 4282   0.402   2.613   3.460
 1239SOL    HW1 4283   0.470   2.668   3.413
 1239SOL    HW2 4284   0.442   2.525   3.487
 1240SOL     OW 4285   1.587   2.641   3.532
 1240SOL    HW1 4286   1.495   2.679   3.527
 1240SOL    HW2 4287   1.647   2.688   3.467
 1241SOL     OW 4288   1.013   1.967   3.632
 1241SOL    HW1 4289   1.019   2.052   3.580
 1241SOL    HW2 4290   1.045   1.891   3.575
 1242SOL     OW 4291   0.504   1.912   3.602
 1242SOL    HW1 4292   0.462   1.855   3.532
 1242SOL    HW2 4293   0.438   1.981   3.634
 1243SOL     OW 4294   0.573   2.732   2.891
 1243SOL    HW1 4295   0.617   2.821   2.882
 1243SOL    HW2 4296   0.510   2.732   2.968
 1244SOL     OW 4297   1.360   2.724   2.907
 1244SOL    HW1 4298   1.285   2.724   2.841
 1244SOL    HW2 4299   1.397   2.632   2.916
 1245SOL     OW 4300   1.209   2.387   2.137
 1245SOL    HW1 4301   1.222   2.303   2.191
 1245SOL    HW2 4302   1.180   2.461   2.197
 1246SOL     OW 4303   0.307   2.075   3.093
 1246SOL    HW1 4304   0.284   2.112   3.183
 1246SOL    HW2 4305   0.277   1.980   3.087
 1247SOL     OW 4306   0.037   3.172   3.144
 1247SOL    HW1 4307   0.090   3.123   3.212
 1247SOL    HW2 4308   0.059   3.270   3.149
 1248SOL     OW 4309   0.732   2.496   2.926
 1248SOL    HW1 4310   0.791   2.470   2.850
 1248SOL    HW2 4311   0.704   2.592   2.915
 1249SOL     OW 4312   1.728   2.797   3.716
 1249SOL    HW1 4313   1.682   2.790   3.627
 1249SOL    HW2 4314   1.666   2.841   3.782
 1250SOL     OW 4315   0.307   1.925   2.480
 1250SOL    HW1 4316   0.296   2.019   2.513
 1250SOL    HW2 4317   0.302   1.862   2.557
 1251SOL     OW 4318   1.622   2.229   2.236
 1251SOL    HW1 4319   1.624   2.153   2.300
 1251SOL    HW2 4320   1.574   2.306   2.276
 1252SOL     OW 4321   1.023   2.628   2.828
 1252SOL    HW1 4322   1.038   2.649   2.924
 1252SOL    HW2 4323   0.993   2.533   2.819
 1253SOL     OW 4324   0.980   3.435   3.562
 1253SOL    HW1 4325   0.960   3.479   3.474
 1253SOL    HW2 4326   1.019   3.344   3.546
 1254SOL     OW 4327   1.859   3.380   3.467
 1254SOL    HW1 4328   1.873   3.407   3.372
 1254SOL    HW2 4329   1.942   3.402   3.520
 1255SOL     OW 4330   0.350   2.760   3.666
 1255SOL    HW1 4331   0.426   2.804   3.714
 1255SOL    HW2 4332   0.385   2.713   3.584
 1256SOL     OW 4333   1.540   2.136   1.987
 1256SOL    HW1 4334   1.479   2.061   2.010
 1256SOL    HW2 4335   1.562   2.188   2.070
 1257SOL     OW 4336   1.303   2.700   1.904
 1257SOL    HW1 4337   1.337   2.607   1.919
 1257SOL    HW2 4338   1.321   2.727   1.809
 1258SOL     OW 4339   1.068   3.195   2.711
 1258SOL    HW1 4340   1.075   3.111   2.656
 1258SOL    HW2 4341   1.130   3.264   2.675
 1259SOL     OW 4342   0.319   2.672   2.811
 1259SOL    HW1 4343   0.412   2.708   2.816
 1259SOL    HW2 4344   0.313   2.587   2.863
 1260SOL     OW 4345   0.339   2.371   2.868
 1260SOL    HW1 4346   0.287   2.288   2.851
 1260SOL    HW2 4347   0.416   2.376   2.804
 1261SOL     OW 4348   1.138   2.242   3.540
 1261SOL    HW1 4349   1.093   2.305   3.604
 1261SOL    HW2 4350   1.231   2.273   3.523
 1262SOL     OW 4351   1.160   2.069   3.339
 1262SOL    HW1 4352   1.160   2.133   3.416
 1262SOL    HW2 4353   1.188   2.117   3.256
 1263SOL     OW 4354   0.008   3.188   2.062
 1263SOL    HW1 4355  -0.085   3.209   2.031
 1263SOL    HW2 4356   0.018   3.089   2.075
 1264SOL     OW 4357   0.088   3.663   2.789
 1264SOL    HW1 4358   0.046   3.577   2.762
 1264SOL    HW2 4359   0.182   3.666   2.755
 1265SOL     OW 4360   0.504   3.430   2.772
 1265SOL    HW1 4361   0.570   3.504   2.781
 1265SOL    HW2 4362   0.548   3.351   2.730
 1266SOL     OW 4363   1.002   2.658   3.100
 1266SOL    HW1 4364   1.043   2.626   3.186
 1266SOL    HW2 4365   0.906   2.631   3.097
 1267SOL     OW 4366   0.040   2.406   2.976
 1267SOL    HW1 4367   0.125   2.373   2.935
 1267SOL    HW2 4368   0.053   2.421   3.074
 1268SOL     OW 4369   0.189   2.382   3.584
 1268SOL    HW1 4370   0.248   2.342   3.514
 1268SOL    HW2 4371   0.131   2.453   3.543
 1269SOL     OW 4372   1.369   2.812   3.522
 1269SOL    HW1 4373   1.408   2.901   3.542
 1269SOL    HW2 4374   1.379   2.792   3.425
 1270SOL     OW 4375   0.815   2.434   2.187
 1270SOL    HW1 4376   0.822   2.345   2.141
 1270SOL    HW2 4377   0.721   2.468   2.179
 1271SOL     OW 4378   1.657   2.466   3.068
 1271SOL    HW1 4379   1.619   2.397   3.130
 1271SOL    HW2 4380   1.739   2.430   3.024
 1272SOL     OW 4381   0.252   3.426   3.606
 1272SOL    HW1 4382   0.222   3.483   3.682
 1272SOL    HW2 4383   0.245   3.329   3.632
 1273SOL     OW 4384   0.671   2.326   3.131
 1273SOL    HW1 4385   0.637   2.237   3.101
 1273SOL    HW2 4386   0.697   2.380   3.051
 1274SOL     OW 4387   0.930   3.540   3.327
 1274SOL    HW1 4388   0.906   3.522   3.232
 1274SOL    HW2 4389   0.960   3.634   3.337
 1275SOL     OW 4390   0.473   2.362   2.053
 1275SOL    HW1 4391   0.534   2.442   2.057
 1275SOL    HW2 4392   0.378   2.393   2.060
 1276SOL     OW 4393   0.159   2.999   3.328
 1276SOL    HW1 4394   0.181   2.938   3.404
 1276SOL    HW2 4395   0.169   2.950   3.242
 1277SOL     OW 4396   1.347   2.921   3.096
 1277SOL    HW1 4397   1.371   2.858   3.022
 1277SOL    HW2 4398   1.257   2.961   3.078
 1278SOL     OW 4399   1.302   2.717   2.171
 1278SOL    HW1 4400   1.216   2.686   2.213
 1278SOL    HW2 4401   1.298   2.703   2.072
 1279SOL     OW 4402   1.759   3.609   3.016
 1279SOL    HW1 4403   1.820   3.639   2.943
 1279SOL    HW2 4404   1.721   3.520   2.994
 1280SOL     OW 4405   1.252   3.593   2.990
 1280SOL    HW1 4406   1.336   3.598   2.936
 1280SOL    HW2 4407   1.229   3.497   3.008
 1281SOL     OW 4408   0.083   3.120   2.884
 1281SOL    HW1 4409   0.078   3.119   2.984
 1281SOL    HW2 4410   0.000   3.079   2.846
 1282SOL     OW 4411   0.688   3.524   3.578
 1282SOL    HW1 4412   0.632   3.605   3.587
 1282SOL    HW2 4413   0.740   3.528   3.492
 1283SOL     OW 4414   1.726   1.997   2.385
 1283SOL    HW1 4415   1.799   1.980   2.318
 1283SOL    HW2 4416   1.695   1.910   2.423
 1284SOL     OW 4417   1.388   3.435   2.339
 1284SOL    HW1 4418   1.455   3.447   2.265
 1284SOL    HW2 4419   1.348   3.524   2.362
 1285SOL     OW 4420   0.130   3.656   3.713
 1285SOL    HW1 4421   0.089   3.582   3.766
 1285SOL    HW2 4422   0.194   3.707   3.771
 1286SOL     OW 4423   1.280   2.789   2.534
 1286SOL    HW1 4424   1.340   2.708   2.536
 1286SOL    HW2 4425   1.320   2.858   2.474
 1287SOL     OW 4426   0.830   3.135   3.284
 1287SOL    HW1 4427   0.825   3.168   3.379
 1287SOL    HW2 4428   0.744   3.154   3.238
 1288SOL     OW 4429   0.672   3.478   2.016
 1288SOL    HW1 4430   0.681   3.488   1.917
 1288SOL    HW2 4431   0.632   3.389   2.037
 1289SOL     OW 4432   1.650   3.582   3.256
 1289SOL    HW1 4433   1.703   3.592   3.172
 1289SOL    HW2 4434   1.623   3.672   3.290
 1290SOL     OW 4435   1.841   2.037   2.825
 1290SOL    HW1 4436   1.880   1.952   2.789
 1290SOL    HW2 4437   1.743   2.039   2.806
 1291SOL     OW 4438   0.263   2.188   2.582
 1291SOL    HW1 4439   0.184   2.239   2.548
 1291SOL    HW2 4440   0.254   2.173   2.680
 1292SOL     OW 4441   1.194   3.474   1.893
 1292SOL    HW1 4442   1.200   3.381   1.930
 1292SOL    HW2 4443   1.135   3.474   1.813
 1293SOL     OW 4444   0.822   2.864   3.234
 1293SOL    HW1 4445   0.862   2.863   3.142
 1293SOL    HW2 4446   0.832   2.956   3.274
 1294SOL     OW 4447   0.916   2.772   2.153
 1294SOL    HW1 4448   0.979   2.810   2.085
 1294SOL    HW2 4449   0.956   2.689   2.192
 1295SOL     OW 4450   1.504   3.469   1.906
 1295SOL    HW1 4451   1.412   3.506   1.913
 1295SOL    HW2 4452   1.542   3.489   1.816
 1296SOL     OW 4453   0.372   3.150   3.352
 1296SOL    HW1 4454   0.359   3.243   3.318
 1296SOL    HW2 4455   0.288   3.098   3.339
 1297SOL     OW 4456   1.614   3.154   3.151
 1297SOL    HW1 4457   1.674   3.157   3.231
 1297SOL    HW2 4458   1.539   3.218   3.164
 1298SOL     OW 4459   1.039   2.960   2.558
 1298SOL    HW1 4460   0.969   2.913   2.612
 1298SOL    HW2 4461   1.098   2.892   2.515
 1299SOL     OW 4462   1.014   2.098   2.833
 1299SOL    HW1 4463   1.006   2.062   2.740
 1299SOL    HW2 4464   1.012   2.022   2.898
 1300SOL     OW 4465   0.590   3.349   2.353
 1300SOL    HW1 4466   0.632   3.291   2.283
 1300SOL    HW2 4467   0.546   3.428   2.309
 1301SOL     OW 4468   1.709   2.247   3.243
 1301SOL    HW1 4469   1.782   2.316   3.247
 1301SOL    HW2 4470   1.737   2.172   3.184
 1302SOL     OW 4471   0.255   3.210   2.152
 1302SOL    HW1 4472   0.159   3.211   2.125
 1302SOL    HW2 4473   0.267   3.263   2.236
 1303SOL     OW 4474   0.105   2.875   3.588
 1303SOL    HW1 4475   0.028   2.842   3.642
 1303SOL    HW2 4476   0.190   2.845   3.630
 1304SOL     OW 4477   0.672   2.065   3.351
 1304SOL    HW1 4478   0.762   2.049   3.311
 1304SOL    HW2 4479   0.680   2.070   3.450
 1305SOL     OW 4480   0.075   2.207   1.895
 1305SOL    HW1 4481  -0.017   2.179   1.866
 1305SOL    HW2 4482   0.106   2.284   1.839
 1306SOL     OW 4483   1.440   2.718   3.260
 1306SOL    HW1 4484   1.383   2.770   3.197
 1306SOL    HW2 4485   1.536   2.730   3.236
 1307SOL     OW 4486   0.072   2.028   2.180
 1307SOL    HW1 4487   0.055   2.111   2.126
 1307SOL    HW2 4488   0.162   1.991   2.158
 1308SOL     OW 4489   1.183   3.197   1.981
 1308SOL    HW1 4490   1.084   3.186   1.983
 1308SOL    HW2 4491   1.217   3.212   2.074
 1309SOL     OW 4492   0.613   2.704   3.293
 1309SOL    HW1 4493   0.669   2.785   3.276
 1309SOL    HW2 4494   0.672   2.624   3.296
 1310SOL     OW 4495   1.493   3.629   2.821
 1310SOL    HW1 4496   1.526   3.693   2.752
 1310SOL    HW2 4497   1.559   3.623   2.896
 1311SOL     OW 4498   0.716   2.427   3.570
 1311SOL    HW1 4499   0.735   2.492   3.644
 1311SOL    HW2 4500   0.776   2.347   3.579
 1312SOL     OW 4501   1.450   3.082   3.495
 1312SOL    HW1 4502   1.441   3.072   3.594
 1312SOL    HW2 4503   1.546   3.075   3.469
 1313SOL     OW 4504   0.390   3.603   3.422
 1313SOL    HW1 4505   0.299   3.644   3.420
 1313SOL    HW2 4506   0.383   3.509   3.454
 1314SOL     OW 4507   1.674   2.745   3.116
 1314SOL    HW1 4508   1.647   2.656   3.079
 1314SOL    HW2 4509   1.675   2.813   3.043
 1315SOL     OW 4510   1.225   2.187   2.311
 1315SOL    HW1 4511   1.290   2.113   2.300
 1315SOL    HW2 4512   1.245   2.237   2.395
 1316SOL     OW 4513   0.594   2.607   2.514
 1316SOL    HW1 4514   0.644   2.692   2.495
 1316SOL    HW2 4515   0.506   2.609   2.466
 1317SOL     OW 4516   1.777   2.204   3.504
 1317SOL    HW1 4517   1.760   2.235   3.410
 1317SOL    HW2 4518   1.693   2.167   3.542
 1318SOL     OW 4519   0.859   3.236   1.878
 1318SOL    HW1 4520   0.813   3.251   1.966
 1318SOL    HW2 4521   0.903   3.321   1.848
 1319SOL     OW 4522   0.661   3.652   2.815
 1319SOL    HW1 4523   0.615   3.740   2.802
 1319SOL    HW2 4524   0.760   3.664   2.808
 1320SOL     OW 4525   0.859   2.818   2.723
 1320SOL    HW1 4526   0.913   2.749   2.771
 1320SOL    HW2 4527   0.827   2.887   2.789
 1321SOL     OW 4528   1.083   2.846   1.949
 1321SOL    HW1 4529   1.060   2.899   1.867
 1321SOL    HW2 4530   1.164   2.790   1.930
 1322SOL     OW 4531   1.861   3.431   2.713
 1322SOL    HW1 4532   1.790   3.419   2.643
 1322SOL    HW2 4533   1.862   3.352   2.773
 1323SOL     OW 4534   0.221   3.176   3.706
 1323SOL    HW1 4535   0.156   3.103   3.685
 1323SOL    HW2 4536   0.225   3.190   3.804
 1324SOL     OW 4537   0.079   3.102   2.515
 1324SOL    HW1 4538   0.078   3.055   2.603
 1324SOL    HW2 4539   0.161   3.074   2.464
 1325SOL     OW 4540   0.672   3.253   3.486
 1325SOL    HW1 4541   0.594   3.203   3.524
 1325SOL    HW2 4542   0.669   3.348   3.517
 1326SOL     OW 4543   1.824   2.054   3.089
 1326SOL    HW1 4544   1.820   1.964   3.133
 1326SOL    HW2 4545   1.827   2.043   2.990
 1327SOL     OW 4546   0.428   2.286   2.382
 1327SOL    HW1 4547   0.458   2.214   2.320
 1327SOL    HW2 4548   0.389   2.246   2.465
 1328SOL     OW 4549   1.705   3.349   2.966
 1328SOL    HW1 4550   1.612   3.324   2.939
 1328SOL    HW2 4551   1.731   3.299   3.048
 1329SOL     OW 4552   0.317   2.409   3.142
 1329SOL    HW1 4553   0.355   2.350   3.214
 1329SOL    HW2 4554   0.357   2.383   3.054
 1330SOL     OW 4555   0.812   3.448   2.549
 1330SOL    HW1 4556   0.844   3.458   2.455
 1330SOL    HW2 4557   0.733   3.386   2.551
 1331SOL     OW 4558   1.424   2.076   2.974
 1331SOL    HW1 4559   1.476   2.011   3.029
 1331SOL    HW2 4560   1.375   2.139   3.035
 1332SOL     OW 4561   1.001   1.896   3.016
 1332SOL    HW1 4562   0.938   1.824   2.985
 1332SOL    HW2 4563   1.094   1.860   3.016
 1333SOL     OW 4564   0.770   3.192   2.163
 1333SOL    HW1 4565   0.724   3.105   2.180
 1333SOL    HW2 4566   0.861   3.189   2.204
 1334SOL     OW 4567   0.618   3.429   3.146
 1334SOL    HW1 4568   0.613   3.511   3.203
 1334SOL    HW2 4569   0.707   3.426   3.101
 1335SOL     OW 4570   1.352   1.914   2.030
 1335SOL    HW1 4571   1.387   1.873   1.946
 1335SOL    HW2 4572   1.262   1.876   2.050
 1336SOL     OW 4573   1.300   2.315   2.553
 1336SOL    HW1 4574   1.241   2.395   2.557
 1336SOL    HW2 4575   1.315   2.280   2.646
 1337SOL     OW 4576   1.593   2.083   2.744
 1337SOL    HW1 4577   1.509   2.082   2.798
 1337SOL    HW2 4578   1.595   2.166   2.688
 1338SOL     OW 4579   0.039   2.939   2.162
 1338SOL    HW1 4580   0.138   2.928   2.153
 1338SOL    HW2 4581  -0.001   2.853   2.194
 1339SOL     OW 4582   0.875   3.508   2.199
 1339SOL    HW1 4583   0.798   3.473   2.145
 1339SOL    HW2 4584   0.843   3.579   2.261
 1340SOL     OW 4585   0.230   2.490   3.837
 1340SOL    HW1 4586   0.137   2.488   3.874
 1340SOL    HW2 4587   0.231   2.451   3.745
 1341SOL     OW 4588   0.225   2.137   4.720
 1341SOL    HW1 4589   0.260   2.120   4.812
 1341SOL    HW2 4590   0.137   2.092   4.708
 1342SOL     OW 4591   0.019   2.230   4.371
 1342SOL    HW1 4592  -0.063   2.273   4.410
 1342SOL    HW2 4593  -0.009   2.157   4.308
 1343SOL     OW 4594   0.569   3.137   4.889
 1343SOL    HW1 4595   0.476   3.130   4.852
 1343SOL    HW2 4596   0.580   3.226   4.933
 1344SOL     OW 4597   1.555   3.373   4.427
 1344SOL    HW1 4598   1.498   3.357   4.508
 1344SOL    HW2 4599   1.496   3.383   4.347
 1345SOL     OW 4600   1.135   2.565   4.441
 1345SOL    HW1 4601   1.192   2.643   4.416
 1345SOL    HW2 4602   1.075   2.591   4.517
 1346SOL     OW 4603   1.755   2.469   3.955
 1346SOL    HW1 4604   1.743   2.456   3.856
 1346SOL    HW2 4605   1.725   2.388   4.004
 1347SOL     OW 4606   0.768   3.006   4.747
 1347SOL    HW1 4607   0.690   3.023   4.807
 1347SOL    HW2 4608   0.802   3.093   4.711
 1348SOL     OW 4609   0.850   2.660   5.547
 1348SOL    HW1 4610   0.846   2.736   5.612
 1348SOL    HW2 4611   0.872   2.696   5.456
 1349SOL     OW 4612   0.685   2.874   4.389
 1349SOL    HW1 4613   0.754   2.858   4.459
 1349SOL    HW2 4614   0.612   2.931   4.427
 1350SOL     OW 4615   0.686   3.023   5.527
 1350SOL    HW1 4616   0.746   3.102   5.541
 1350SOL    HW2 4617   0.600   3.054   5.486
 1351SOL     OW 4618   0.335   3.297   4.785
 1351SOL    HW1 4619   0.257   3.266   4.732
 1351SOL    HW2 4620   0.393   3.355   4.728
 1352SOL     OW 4621   1.460   3.367   5.063
 1352SOL    HW1 4622   1.484   3.461   5.089
 1352SOL    HW2 4623   1.444   3.313   5.145
 1353SOL     OW 4624   0.438   2.254   5.223
 1353SOL    HW1 4625   0.520   2.198   5.232
 1353SOL    HW2 4626   0.357   2.196   5.227
 1354SOL     OW 4627   1.603   2.309   4.461
 1354SOL    HW1 4628   1.529   2.355   4.411
 1354SOL    HW2 4629   1.654   2.377   4.514
 1355SOL     OW 4630   0.231   3.575   4.207
 1355SOL    HW1 4631   0.265   3.652   4.261
 1355SOL    HW2 4632   0.275   3.575   4.117
 1356SOL     OW 4633   1.127   3.203   5.414
 1356SOL    HW1 4634   1.174   3.203   5.502
 1356SOL    HW2 4635   1.079   3.116   5.403
 1357SOL     OW 4636   0.230   3.296   4.262
 1357SOL    HW1 4637   0.204   3.392   4.262
 1357SOL    HW2 4638   0.159   3.242   4.307
 1358SOL     OW 4639   0.240   2.953   4.610
 1358SOL    HW1 4640   0.254   2.869   4.662
 1358SOL    HW2 4641   0.185   3.017   4.665
 1359SOL     OW 4642   0.620   3.648   5.163
 1359SOL    HW1 4643   0.528   3.631   5.198
 1359SOL    HW2 4644   0.648   3.740   5.189
 1360SOL     OW 4645   0.606   2.826   3.847
 1360SOL    HW1 4646   0.613   2.910   3.793
 1360SOL    HW2 4647   0.652   2.839   3.935
 1361SOL     OW 4648   1.594   1.976   5.204
 1361SOL    HW1 4649   1.576   2.043   5.132
 1361SOL    HW2 4650   1.591   2.022   5.293
 1362SOL     OW 4651   0.122   2.505   4.287
 1362SOL    HW1 4652   0.077   2.417   4.304
 1362SOL    HW2 4653   0.121   2.559   4.371
 1363SOL     OW 4654   1.842   3.629   4.083
 1363SOL    HW1 4655   1.896   3.600   4.163
 1363SOL    HW2 4656   1.872   3.719   4.054
 1364SOL     OW 4657   0.027   3.458   3.841
 1364SOL    HW1 4658   0.008   3.362   3.862
 1364SOL    HW2 4659  -0.006   3.516   3.916
 1365SOL     OW 4660   1.689   2.784   4.336
 1365SOL    HW1 4661   1.784   2.755   4.344
 1365SOL    HW2 4662   1.681   2.849   4.261
 1366SOL     OW 4663   1.641   2.970   4.156
 1366SOL    HW1 4664   1.727   2.972   4.104
 1366SOL    HW2 4665   1.655   3.017   4.244
 1367SOL     OW 4666   0.113   2.599   5.321
 1367SOL    HW1 4667   0.201   2.586   5.366
 1367SOL    HW2 4668   0.100   2.696   5.299
 1368SOL     OW 4669   0.613   3.227   4.450
 1368SOL    HW1 4670   0.564   3.140   4.459
 1368SOL    HW2 4671   0.590   3.270   4.363
 1369SOL     OW 4672   1.293   3.090   5.147
 1369SOL    HW1 4673   1.330   3.017   5.089
 1369SOL    HW2 4674   1.345   3.095   5.232
 1370SOL     OW 4675   0.809   1.866   4.226
 1370SOL    HW1 4676   0.849   1.957   4.217
 1370SOL    HW2 4677   0.709   1.874   4.232
 1371SOL     OW 4678   0.197   2.838   4.988
 1371SOL    HW1 4679   0.286   2.793   4.974
 1371SOL    HW2 4680   0.124   2.773   4.969
 1372SOL     OW 4681   1.525   2.861   3.914
 1372SOL    HW1 4682   1.462   2.785   3.927
 1372SOL    HW2 4683   1.573   2.879   4.000
 1373SOL     OW 4684   1.187   3.654   5.340
 1373SOL    HW1 4685   1.211   3.714   5.264
 1373SOL    HW2 4686   1.194   3.559   5.310
 1374SOL     OW 4687   0.317   2.113   5.525
 1374SOL    HW1 4688   0.388   2.184   5.531
 1374SOL    HW2 4689   0.229   2.152   5.553
 1375SOL     OW 4690   1.466   3.279   4.677
 1375SOL    HW1 4691   1.407   3.285   4.757
 1375SOL    HW2 4692   1.451   3.191   4.631
 1376SOL     OW 4693   1.667   3.576   4.296
 1376SOL    HW1 4694   1.626   3.553   4.208
 1376SOL    HW2 4695   1.649   3.502   4.361
 1377SOL     OW 4696   0.598   2.591   3.994
 1377SOL    HW1 4697   0.622   2.660   3.926
 1377SOL    HW2 4698   0.520   2.624   4.048
 1378SOL     OW 4699   1.281   2.207   4.668
 1378SOL    HW1 4700   1.195   2.157   4.655
 1378SOL    HW2 4701   1.343   2.153   4.724
 1379SOL     OW 4702   1.576   3.524   4.031
 1379SOL    HW1 4703   1.665   3.570   4.034
 1379SOL    HW2 4704   1.555   3.500   3.936
 1380SOL     OW 4705   0.807   2.467   5.189
 1380SOL    HW1 4706   0.760   2.464   5.278
 1380SOL    HW2 4707   0.756   2.412   5.123
 1381SOL     OW 4708   1.394   2.331   5.398
 1381SOL    HW1 4709   1.374   2.374   5.486
 1381SOL    HW2 4710   1.472   2.269   5.407
 1382SOL     OW 4711   0.973   2.752   5.296
 1382SOL    HW1 4712   1.019   2.668   5.267
 1382SOL    HW2 4713   0.917   2.786   5.221
 1383SOL     OW 4714   0.991   2.272   4.966
 1383SOL    HW1 4715   0.914   2.306   5.020
 1383SOL    HW2 4716   0.957   2.221   4.887
 1384SOL     OW 4717   1.041   2.563   4.153
 1384SOL    HW1 4718   1.067   2.559   4.249
 1384SOL    HW2 4719   0.956   2.512   4.139
 1385SOL     OW 4720   0.076   2.673   4.513
 1385SOL    HW1 4721   0.175   2.661   4.522
 1385SOL    HW2 4722   0.052   2.768   4.534
 1386SOL     OW 4723   0.130   3.683   5.295
 1386SOL    HW1 4724   0.120   3.668   5.394
 1386SOL    HW2 4725   0.044   3.719   5.259
 1387SOL     OW 4726   0.865   2.210   3.919
 1387SOL    HW1 4727   0.924   2.273   3.870
 1387SOL    HW2 4728   0.884   2.116   3.890
 1388SOL     OW 4729   1.719   2.447   5.555
 1388SOL    HW1 4730   1.693   2.536   5.519
 1388SOL    HW2 4731   1.717   2.379   5.482
 1389SOL     OW 4732   1.362   3.006   4.269
 1389SOL    HW1 4733   1.445   2.977   4.221
 1389SOL    HW2 4734   1.313   3.073   4.213
 1390SOL     OW 4735   0.550   2.058   4.609
 1390SOL    HW1 4736   0.545   2.053   4.709
 1390SOL    HW2 4737   0.552   2.154   4.580
 1391SOL     OW 4738   1.008   3.318   4.201
 1391SOL    HW1 4739   0.962   3.390   4.149
 1391SOL    HW2 4740   1.004   3.338   4.299
 1392SOL     OW 4741   0.351   3.663   4.577
 1392SOL    HW1 4742   0.401   3.577   4.583
 1392SOL    HW2 4743   0.416   3.740   4.574
 1393SOL     OW 4744   1.795   2.928   4.597
 1393SOL    HW1 4745   1.733   2.913   4.521
 1393SOL    HW2 4746   1.743   2.939   4.682
 1394SOL     OW 4747   1.227   3.412   5.230
 1394SOL    HW1 4748   1.233   3.335   5.294
 1394SOL    HW2 4749   1.175   3.386   5.150
 1395SOL     OW 4750   0.321   2.805   3.966
 1395SOL    HW1 4751   0.403   2.844   3.924
 1395SOL    HW2 4752   0.294   2.723   3.917
 1396SOL     OW 4753   1.458   2.597   4.452
 1396SOL    HW1 4754   1.453   2.532   4.527
 1396SOL    HW2 4755   1.538   2.656   4.465
 1397SOL     OW 4756   0.461   3.128   5.451
 1397SOL    HW1 4757   0.411   3.129   5.365
 1397SOL    HW2 4758   0.398   3.110   5.527
 1398SOL     OW 4759   1.111   3.638   3.961
 1398SOL    HW1 4760   1.051   3.576   4.011
 1398SOL    HW2 4761   1.142   3.594   3.876
 1399SOL     OW 4762   0.202   2.147   5.222
 1399SOL    HW1 4763   0.122   2.207   5.209
 1399SOL    HW2 4764   0.192   2.098   5.308
 1400SOL     OW 4765   1.632   3.239   3.805
 1400SOL    HW1 4766   1.600   3.333   3.795
 1400SOL    HW2 4767   1.556   3.176   3.793
 1401SOL     OW 4768   0.464   3.605   4.047
 1401SOL    HW1 4769   0.497   3.644   4.133
 1401SOL    HW2 4770   0.540   3.598   3.982
 1402SOL     OW 4771   1.400   1.969   4.150
 1402SOL    HW1 4772   1.376   1.932   4.060
 1402SOL    HW2 4773   1.499   1.985   4.154
 1403SOL     OW 4774   0.249   3.647   4.965
 1403SOL    HW1 4775   0.306   3.582   5.015
 1403SOL    HW2 4776   0.233   3.614   4.872
 1404SOL     OW 4777   0.940   3.560   4.628
 1404SOL    HW1 4778   1.020   3.503   4.649
 1404SOL    HW2 4779   0.891   3.520   4.551
 1405SOL     OW 4780   0.382   2.562   4.204
 1405SOL    HW1 4781   0.427   2.472   4.201
 1405SOL    HW2 4782   0.288   2.551   4.237
 1406SOL     OW 4783   1.547   2.084   5.453
 1406SOL    HW1 4784   1.542   2.121   5.545
 1406SOL    HW2 4785   1.475   2.015   5.441
 1407SOL     OW 4786   0.614   1.984   3.841
 1407SOL    HW1 4787   0.712   1.962   3.848
 1407SOL    HW2 4788   0.583   1.967   3.748
 1408SOL     OW 4789   0.781   2.126   5.473
 1408SOL    HW1 4790   0.848   2.065   5.516
 1408SOL    HW2 4791   0.708   2.145   5.538
 1409SOL     OW 4792   0.888   3.376   4.919
 1409SOL    HW1 4793   0.865   3.351   4.825
 1409SOL    HW2 4794   0.949   3.307   4.958
 1410SOL     OW 4795   1.351   2.452   5.157
 1410SOL    HW1 4796   1.379   2.409   5.242
 1410SOL    HW2 4797   1.376   2.548   5.158
 1411SOL     OW 4798   0.803   3.264   4.648
 1411SOL    HW1 4799   0.893   3.278   4.606
 1411SOL    HW2 4800   0.732   3.266   4.577
 1412SOL     OW 4801   0.922   2.365   4.623
 1412SOL    HW1 4802   0.897   2.356   4.527
 1412SOL    HW2 4803   0.970   2.283   4.654
 1413SOL     OW 4804   0.539   1.926   4.236
 1413SOL    HW1 4805   0.458   1.927   4.294
 1413SOL    HW2 4806   0.542   2.009   4.181
 1414SOL     OW 4807   1.434   3.050   3.765
 1414SOL    HW1 4808   1.466   2.974   3.822
 1414SOL    HW2 4809   1.342   3.077   3.795
 1415SOL     OW 4810   0.297   1.897   3.895
 1415SOL    HW1 4811   0.346   1.981   3.874
 1415SOL    HW2 4812   0.359   1.832   3.940
 1416SOL     OW 4813   0.935   2.098   4.204
 1416SOL    HW1 4814   0.887   2.139   4.126
 1416SOL    HW2 4815   1.034   2.096   4.185
 1417SOL     OW 4816   1.076   2.545   5.188
 1417SOL    HW1 4817   0.996   2.484   5.191
 1417SOL    HW2 4818   1.157   2.492   5.164
 1418SOL     OW 4819   1.227   3.432   4.517
 1418SOL    HW1 4820   1.248   3.506   4.452
 1418SOL    HW2 4821   1.295   3.432   4.590
 1419SOL     OW 4822   0.459   3.014   4.465
 1419SOL    HW1 4823   0.388   2.987   4.530
 1419SOL    HW2 4824   0.433   2.986   4.372
 1420SOL     OW 4825   1.271   3.659   4.315
 1420SOL    HW1 4826   1.315   3.723   4.251
 1420SOL    HW2 4827   1.221   3.711   4.385
 1421SOL     OW 4828   1.032   2.411   3.740
 1421SOL    HW1 4829   0.991   2.493   3.701
 1421SOL    HW2 4830   1.096   2.437   3.813
 1422SOL     OW 4831   0.078   2.418   5.110
 1422SOL    HW1 4832   0.170   2.417   5.069
 1422SOL    HW2 4833   0.072   2.492   5.177
 1423SOL     OW 4834   0.561   2.084   4.871
 1423SOL    HW1 4835   0.599   2.000   4.908
 1423SOL    HW2 4836   0.473   2.103   4.915
 1424SOL     OW 4837   0.866   2.316   4.366
 1424SOL    HW1 4838   0.834   2.388   4.304
 1424SOL    HW2 4839   0.890   2.235   4.313
 1425SOL     OW 4840   1.017   1.901   4.477
 1425SOL    HW1 4841   0.945   1.906   4.408
 1425SOL    HW2 4842   0.993   1.832   4.546
 1426SOL     OW 4843   1.429   3.035   4.591
 1426SOL    HW1 4844   1.374   2.951   4.584
 1426SOL    HW2 4845   1.455   3.064   4.499
 1427SOL     OW 4846   1.466   2.452   4.716
 1427SOL    HW1 4847   1.436   2.357   4.723
 1427SOL    HW2 4848   1.539   2.468   4.782
 1428SOL     OW 4849   0.488   3.247   3.898
 1428SOL    HW1 4850   0.401   3.232   3.945
 1428SOL    HW2 4851   0.471   3.273   3.803
 1429SOL     OW 4852   1.664   3.142   4.381
 1429SOL    HW1 4853   1.763   3.150   4.395
 1429SOL    HW2 4854   1.619   3.226   4.412
 1430SOL     OW 4855   1.390   2.437   3.802
 1430SOL    HW1 4856   1.336   2.416   3.883
 1430SOL    HW2 4857   1.481   2.396   3.811
 1431SOL     OW 4858   0.527   2.118   4.052
 1431SOL    HW1 4859   0.554   2.059   3.977
 1431SOL    HW2 4860   0.527   2.213   4.021
 1432SOL     OW 4861   1.754   3.085   5.312
 1432SOL    HW1 4862   1.845   3.046   5.299
 1432SOL    HW2 4863   1.762   3.181   5.336
 1433SOL     OW 4864   1.064   3.209   5.064
 1433SOL    HW1 4865   0.984   3.186   5.119
 1433SOL    HW2 4866   1.147   3.183   5.113
 1434SOL     OW 4867   1.592   3.491   5.349
 1434SOL    HW1 4868   1.619   3.525   5.259
 1434SOL    HW2 4869   1.671   3.453   5.395
 1435SOL     OW 4870   1.111   3.057   4.824
 1435SOL    HW1 4871   1.071   3.101   4.905
 1435SOL    HW2 4872   1.070   3.094   4.741
 1436SOL     OW 4873   1.638   2.961   4.803
 1436SOL    HW1 4874   1.643   3.042   4.862
 1436SOL    HW2 4875   1.552   2.963   4.752
 1437SOL     OW 4876   0.915   1.951   5.126
 1437SOL    HW1 4877   0.940   1.931   5.031
 1437SOL    HW2 4878   0.987   2.007   5.168
 1438SOL     OW 4879   0.980   2.978   5.443
 1438SOL    HW1 4880   0.881   2.984   5.453
 1438SOL    HW2 4881   1.003   2.898   5.387
 1439SOL     OW 4882   0.705   2.912   4.092
 1439SOL    HW1 4883   0.691   2.919   4.191
 1439SOL    HW2 4884   0.789   2.861   4.074
 1440SOL     OW 4885   0.410   2.675   4.975
 1440SOL    HW1 4886   0.496   2.687   5.025
 1440SOL    HW2 4887   0.368   2.588   5.002
 1441SOL     OW 4888   1.274   2.248   4.986
 1441SOL    HW1 4889   1.295   2.322   5.050
 1441SOL    HW2 4890   1.185   2.265   4.943
 1442SOL     OW 4891   0.064   3.426   5.055
 1442SOL    HW1 4892   0.018   3.508   5.021
 1442SOL    HW2 4893   0.162   3.445   5.064
 1443SOL     OW 4894   0.367   2.962   4.225
 1443SOL    HW1 4895   0.360   3.045   4.169
 1443SOL    HW2 4896   0.371   2.882   4.165
 1444SOL     OW 4897   0.566   2.399   4.589
 1444SOL    HW1 4898   0.578   2.465   4.515
 1444SOL    HW2 4899   0.612   2.433   4.672
 1445SOL     OW 4900   1.252   3.210   4.112
 1445SOL    HW1 4901   1.302   3.287   4.152
 1445SOL    HW2 4902   1.157   3.212   4.144
 1446SOL     OW 4903   1.272   3.307   4.866
 1446SOL    HW1 4904   1.319   3.320   4.953
 1446SOL    HW2 4905   1.206   3.233   4.875
 1447SOL     OW 4906   1.582   2.501   4.196
 1447SOL    HW1 4907   1.551   2.562   4.269
 1447SOL    HW2 4908   1.632   2.553   4.127
 1448SOL     OW 4909   0.354   3.372   5.053
 1448SOL    HW1 4910   0.333   3.328   4.966
 1448SOL    HW2 4911   0.451   3.398   5.056
 1449SOL     OW 4912   0.402   2.613   5.322
 1449SOL    HW1 4913   0.470   2.668   5.275
 1449SOL    HW2 4914   0.442   2.525   5.349
 1450SOL     OW 4915   1.587   2.641   5.394
 1450SOL    HW1 4916   1.495   2.679   5.389
 1450SOL    HW2 4917   1.647   2.688   5.329
 1451SOL     OW 4918   1.013   1.967   5.494
 1451SOL    HW1 4919   1.019   2.052   5.442
 1451SOL    HW2 4920   1.045   1.891   5.437
 1452SOL     OW 4921   0.504   1.912   5.464
 1452SOL    HW1 4922   0.462   1.855   5.394
 1452SOL    HW2 4923   0.438   1.981   5.496
 1453SOL     OW 4924   0.573   2.732   4.753
 1453SOL    HW1 4925   0.617   2.821   4.744
 1453SOL    HW2 4926   0.510   2.732   4.830
 1454SOL     OW 4927   1.360   2.724   4.769
 1454SOL    HW1 4928   1.285   2.724   4.703
 1454SOL    HW2 4929   1.397   2.632   4.778
 1455SOL     OW 4930   1.209   2.387   3.999
 1455SOL    HW1 4931   1.222   2.303   4.053
 1455SOL    HW2 4932   1.180   2.461   4.059
 1456SOL     OW 4933   0.307   2.075   4.955
 1456SOL    HW1 4934   0.284   2.112   5.045
 1456SOL    HW2 4935   0.277   1.980   4.949
 1457SOL     OW 4936   0.037   3.172   5.006
 1457SOL    HW1 4937   0.090   3.123   5.074
 1457SOL    HW2 4938   0.059   3.270   5.011
 1458SOL     OW 4939   0.732   2.496   4.788
 1458SOL    HW1 4940   0.791   2.470   4.712
 1458SOL    HW2 4941   0.704   2.592   4.777
 1459SOL     OW 4942   1.728   2.797   5.578
 1459SOL    HW1 4943   1.682   2.790   5.489
 1459SOL    HW2 4944   1.666   2.841   5.644
 1460SOL     OW 4945   0.307   1.925   4.342
 1460SOL    HW1 4946   0.296   2.019   4.375
 1460SOL    HW2 4947   0.302   1.862   4.419
 1461SOL     OW 4948   1.622   2.229   4.098
 1461SOL    HW1 4949   1.624   2.153   4.162
 1461SOL    HW2 4950   1.574   2.306   4.138
 1462SOL     OW 4951   1.023   2.628   4.690
 1462SOL    HW1 4952   1.038   2.649   4.786
 1462SOL    HW2 4953   0.993   2.533   4.681
 1463SOL     OW 4954   0.980   3.435   5.424
 1463SOL    HW1 4955   0.960   3.479   5.336
 1463SOL    HW2 4956   1.019   3.344   5.408
 1464SOL     OW 4957   1.859   3.380   5.329
 1464SOL    HW1 4958   1.873   3.407   5.234
 1464SOL    HW2 4959   1.942   3.402   5.382
 1465SOL     OW 4960   0.350   2.760   5.528
 1465SOL    HW1 4961   0.426   2.804   5.576
 1465SOL    HW2 4962   0.385   2.713   5.446
 1466SOL     OW 4963   1.540   2.136   3.849
 1466SOL    HW1 4964   1.479   2.061   3.872
 1466SOL    HW2 4965   1.562   2.188   3.932
 1467SOL     OW 4966   1.303   2.700   3.766
 1467SOL    HW1 4967   1.337   2.607   3.781
 1467SOL    HW2 4968   1.321   2.727   3.671
 1468SOL     OW 4969   1.068   3.195   4.573
 1468SOL    HW1 4970   1.075   3.111   4.518
 1468SOL    HW2 4971   1.130   3.264   4.537
 1469SOL     OW 4972   0.319   2.672   4.673
 1469SOL    HW1 4973   0.412   2.708   4.678
 1469SOL    HW2 4974   0.313   2.587   4.725
 1470SOL     OW 4975   0.339   2.371   4.730
 1470SOL    HW1 4976   0.287   2.288   4.713
 1470SOL    HW2 4977   0.416   2.376   4.666
 1471SOL     OW 4978   1.138   2.242   5.402
 1471SOL    HW1 4979   1.093   2.305   5.466
 1471SOL    HW2 4980   1.231   2.273   5.385
 1472SOL     OW 4981   1.160   2.069   5.201
 1472SOL    HW1 4982   1.160   2.133   5.278
 1472SOL    HW2 4983   1.188   2.117   5.118
 1473SOL     OW 4984   0.008   3.188   3.924
 1473SOL    HW1 4985  -0.085   3.209   3.893
 1473SOL    HW2 4986   0.018   3.089   3.937
 1474SOL     OW 4987   0.088   3.663   4.651
 1474SOL    HW1 4988   0.046   3.577   4.624
 1474SOL    HW2 4989   0.182   3.666   4.617
 1475SOL     OW 4990   0.504   3.430   4.634
 1475SOL    HW1 4991   0.570   3.504   4.643
 1475SOL    HW2 4992   0.548   3.351   4.592
 1476SOL     OW 4993   1.002   2.658   4.962
 1476SOL    HW1 4994   1.043   2.626   5.048
 1476SOL    HW2 4995   0.906   2.631   4.959
 1477SOL     OW 4996   0.040   2.406   4.838
 1477SOL    HW1 4997   0.125   2.373   4.797
 1477SOL    HW2 4998   0.053   2.421   4.936
 1478SOL     OW 4999   0.189   2.382   5.446
 1478SOL    HW1 5000   0.248   2.342   5.376
 1478SOL    HW2 5001   0.131   2.453   5.405
 1479SOL     OW 5002   1.369   2.812   5.384
 1479SOL    HW1 5003   1.408   2.901   5.404
 1479SOL    HW2 5004   1.379   2.792   5.287
 1480SOL     OW 5005   0.815   2.434   4.049
 1480SOL    HW1 5006   0.822   2.345   4.003
 1480SOL    HW2 5007   0.721   2.468   4.041
 1481SOL     OW 5008   1.657   2.466   4.930
 1481SOL    HW1 5009   1.619   2.397   4.992
 1481SOL    HW2 5010   1.739   2.430   4.886
 1482SOL     OW 5011   0.252   3.426   5.468
 1482SOL    HW1 5012   0.222   3.483   5.544
 1482SOL    HW2 5013   0.245   3.329   5.494
 1483SOL     OW 5014   0.671   2.326   4.993
 1483SOL    HW1 5015   0.637   2.237   4.963
 1483SOL    HW2 5016   0.697   2.380   4.913
 1484SOL     OW 5017   0.930   3.540   5.189
 1484SOL    HW1 5018   0.906   3.522   5.094
 1484SOL    HW2 5019   0.960   3.634   5.199
 1485SOL     OW 5020   0.473   2.362   3.915
 1485SOL    HW1 5021   0.534   2.442   3.919
 1485SOL    HW2 5022   0.378   2.393   3.922
 1486SOL     OW 5023   0.159   2.999   5.190
 1486SOL    HW1 5024   0.181   2.938   5.266
 1486SOL    HW2 5025   0.169   2.950   5.104
 1487SOL     OW 5026   1.347   2.921   4.958
 1487SOL    HW1 5027   1.371   2.858   4.884
 1487SOL    HW2 5028   1.257   2.961   4.940
 1488SOL     OW 5029   1.302   2.717   4.033
 1488SOL    HW1 5030   1.216   2.686   4.075
 1488SOL    HW2 5031   1.298   2.703   3.934
 1489SOL     OW 5032   1.759   3.609   4.878
 1489SOL    HW1 5033   1.820   3.639   4.805
 1489SOL    HW2 5034   1.721   3.520   4.856
 1490SOL     OW 5035   1.252   3.593   4.852
 1490SOL    HW1 5036   1.336   3.598   4.798
 1490SOL    HW2 5037   1.229   3.497   4.870
 1491SOL     OW 5038   0.083   3.120   4.746
 1491SOL    HW1 5039   0.078   3.119   4.846
 1491SOL    HW2 5040   0.000   3.079   4.708
 1492SOL     OW 5041   0.688   3.524   5.440
 1492SOL    HW1 5042   0.632   3.605   5.449
 1492SOL    HW2 5043   0.740   3.528   5.354
 1493SOL     OW 5044   1.726   1.997   4.247
 1493SOL    HW1 5045   1.799   1.980   4.180
 1493SOL    HW2 5046   1.695   1.910   4.285
 1494SOL     OW 5047   1.388   3.435   4.201
 1494SOL    HW1 5048   1.455   3.447   4.127
 1494SOL    HW2 5049   1.348   3.524   4.224
 1495SOL     OW 5050   0.130   3.656   5.575
 1495SOL    HW1 5051   0.089   3.582   5.628
 1495SOL    HW2 5052   0.194   3.707   5.633
 1496SOL     OW 5053   1.280   2.789   4.396
 1496SOL    HW1 5054   1.340   2.708   4.398
 1496SOL    HW2 5055   1.320   2.858   4.336
 1497SOL     OW 5056   0.830   3.135   5.146
 1497SOL    HW1 5057   0.825   3.168   5.241
 1497SOL    HW2 5058   0.744   3.154   5.100
 1498SOL     OW 5059   0.672   3.478   3.878
 1498SOL    HW1 5060   0.681   3.488   3.779
 1498SOL    HW2 5061   0.632   3.389   3.899
 1499SOL     OW 5062   1.650   3.582   5.118
 1499SOL    HW1 5063   1.703   3.592   5.034
 1499SOL    HW2 5064   1.623   3.672   5.152
 1500SOL     OW 5065   1.841   2.037   4.687
 1500SOL    HW1 5066   1.880   1.952   4.651
 1500SOL    HW2 5067   1.743   2.039   4.668
 1501SOL     OW 5068   0.263   2.188   4.444
 1501SOL    HW1 5069   0.184   2.239   4.410
 1501SOL    HW2 5070   0.254   2.173   4.542
 1502SOL     OW 5071   1.194   3.474   3.755
 1502SOL    HW1 5072   1.200   3.381   3.792
 1502SOL    HW2 5073   1.135   3.474   3.675
 1503SOL     OW 5074   0.822   2.864   5.096
 1503SOL    HW1 5075   0.862   2.863   5.004
 1503SOL    HW2 5076   0.832   2.956   5.136
 1504SOL     OW 5077   0.916   2.772   4.015
 1504SOL    HW1 5078   0.979   2.810   3.947
 1504SOL    HW2 5079   0.956   2.689   4.054
 1505SOL     OW 5080   1.504   3.469   3.768
 1505SOL    HW1 5081   1.412   3.506   3.775
 1505SOL    HW2 5082   1.542   3.489   3.678
 1506SOL     OW 5083   0.372   3.150   5.214
 1506SOL    HW1 5084   0.359   3.243   5.180
 1506SOL    HW2 5085   0.288   3.098   5.201
 1507SOL     OW 5086   1.614   3.154   5.013
 1507SOL    HW1 5087   1.674   3.157   5.093
 1507SOL    HW2 5088   1.539   3.218   5.026
 1508SOL     OW 5089   1.039   2.960   4.420
 1508SOL    HW1 5090   0.969   2.913   4.474
 1508SOL    HW2 5091   1.098   2.892   4.377
 1509SOL     OW 5092   1.014   2.098   4.695
 1509SOL    HW1 5093   1.006   2.062   4.602
 1509SOL    HW2 5094   1.012   2.022   4.760
 1510SOL     OW 5095   0.590   3.349   4.215
 1510SOL    HW1 5096   0.632   3.291   4.145
 1510SOL    HW2 5097   0.546   3.428   4.171
 1511SOL     OW 5098   1.709   2.247   5.105
 1511SOL    HW1 5099   1.782   2.316   5.109
 1511SOL    HW2 5100   1.737   2.172   5.046
 1512SOL     OW 5101   0.255   3.210   4.014
 1512SOL    HW1 5102   0.159   3.211   3.987
 1512SOL    HW2 5103   0.267   3.263   4.098
 1513SOL     OW 5104   0.105   2.875   5.450
 1513SOL    HW1 5105   0.028   2.842   5.504
 1513SOL    HW2 5106   0.190   2.845   5.492
 1514SOL     OW 5107   0.672   2.065   5.213
 1514SOL    HW1 5108   0.762   2.049   5.173
 1514SOL    HW2 5109   0.680   2.070   5.312
 1515SOL     OW 5110   0.075   2.207   3.757
 1515SOL    HW1 5111  -0.017   2.179   3.728
 1515SOL    HW2 5112   0.106   2.284   3.701
 1516SOL     OW 5113   1.440   2.718   5.122
 1516SOL    HW1 5114   1.383   2.770   5.059
 1516SOL    HW2 5115   1.536   2.730   5.098
 1517SOL     OW 5116   0.072   2.028   4.042
 1517SOL    HW1 5117   0.055   2.111   3.988
 1517SOL    HW2 5118   0.162   1.991   4.020
 1518SOL     OW 5119   1.183   3.197   3.843
 1518SOL    HW1 5120   1.084   3.186   3.845
 1518SOL    HW2 5121   1.217   3.212   3.936
 1519SOL     OW 5122   0.613   2.704   5.155
 1519SOL    HW1 5123   0.669   2.785   5.138
 1519SOL    HW2 5124   0.672   2.624   5.158
 1520SOL     OW 5125   1.493   3.629   4.683
 1520SOL    HW1 5126   1.526   3.693   4.614
 1520SOL    HW2 5127   1.559   3.623   4.758
 1521SOL     OW 5128   0.716   2.427   5.432
 1521SOL    HW1 5129   0.735   2.492   5.506
 1521SOL    HW2 5130   0.776   2.347   5.441
 1522SOL     OW 5131   1.450   3.082   5.357
 1522SOL    HW1 5132   1.441   3.072   5.456
 1522SOL    HW2 5133   1.546   3.075   5.331
 1523SOL     OW 5134   0.390   3.603   5.284
 1523SOL    HW1 5135   0.299   3.644   5.282
 1523SOL    HW2 5136   0.383   3.509   5.316
 1524SOL     OW 5137   1.674   2.745   4.978
 1524SOL    HW1 5138   1.647   2.656   4.941
 1524SOL    HW2 5139   1.675   2.813   4.905
 1525SOL     OW 5140   1.225   2.187   4.173
 1525SOL    HW1 5141   1.290   2.113   4.162
 1525SOL    HW2 5142   1.245   2.237   4.257
 1526SOL     OW 5143   0.594   2.607   4.376
 1526SOL    HW1 5144   0.644   2.692   4.357
 1526SOL    HW2 5145   0.506   2.609   4.328
 1527SOL     OW 5146   1.777   2.204   5.366
 1527SOL    HW1 5147   1.760   2.235   5.272
 1527SOL    HW2 5148   1.693   2.167   5.404
 1528SOL     OW 5149   1.730   2.796   5.241
 1528SOL    HW1 5150   1.768   2.887   5.256
 1528SOL    HW2 5151   1.722   2.779   5.142
 1529SOL     OW 5152   0.859   3.236   3.740
 1529SOL    HW1 5153   0.813   3.251   3.828
 1529SOL    HW2 5154   0.903   3.321   3.710
 1530SOL     OW 5155   0.661   3.652   4.677
 1530SOL    HW1 5156   0.615   3.740   4.664
 1530SOL    HW2 5157   0.760   3.664   4.670
 1531SOL     OW 5158   0.859   2.818   4.585
 1531SOL    HW1 5159   0.913   2.749   4.633
 1531SOL    HW2 5160   0.827   2.887   4.651
 1532SOL     OW 5161   1.083   2.846   3.811
 1532SOL    HW1 5162   1.060   2.899   3.729
 1532SOL    HW2 5163   1.164   2.790   3.792
 1533SOL     OW 5164   1.861   3.431   4.575
 1533SOL    HW1 5165   1.790   3.419   4.505
 1533SOL    HW2 5166   1.862   3.352   4.635
 1534SOL     OW 5167   0.221   3.176   5.568
 1534SOL    HW1 5168   0.156   3.103   5.547
 1534SOL    HW2 5169   0.225   3.190   5.666
 1535SOL     OW 5170   0.079   3.102   4.377
 1535SOL    HW1 5171   0.078   3.055   4.465
 1535SOL    HW2 5172   0.161   3.074   4.326
 1536SOL     OW 5173   0.672   3.253   5.348
 1536SOL    HW1 5174   0.594   3.203   5.386
 1536SOL    HW2 5175   0.669   3.348   5.379
 1537SOL     OW 5176   1.824   2.054   4.951
 1537SOL    HW1 5177   1.820   1.964   4.995
 1537SOL    HW2 5178   1.827   2.043   4.852
 1538SOL     OW 5179   0.428   2.286   4.244
 1538SOL    HW1 5180   0.458   2.214   4.182
 1538SOL    HW2 5181   0.389   2.246   4.327
 1539SOL     OW 5182   1.705   3.349   4.828
 1539SOL    HW1 5183   1.612   3.324   4.801
 1539SOL    HW2 5184   1.731   3.299   4.910
 1540SOL     OW 5185   0.317   2.409   5.004
 1540SOL    HW1 5186   0.355   2.350   5.076
 1540SOL    HW2 5187   0.357   2.383   4.916
 1541SOL     OW 5188   0.812   3.448   4.411
 1541SOL    HW1 5189   0.844   3.458   4.317
 1541SOL    HW2 5190   0.733   3.386   4.413
 1542SOL     OW 5191   1.424   2.076   4.836
 1542SOL    HW1 5192   1.476   2.011   4.891
 1542SOL    HW2 5193   1.375   2.139   4.897
 1543SOL     OW 5194   1.001   1.896   4.878
 1543SOL    HW1 5195   0.938   1.824   4.847
 1543SOL    HW2 5196   1.094   1.860   4.878
 1544SOL     OW 5197   0.770   3.192   4.025
 1544SOL    HW1 5198   0.724   3.105   4.042
 1544SOL    HW2 5199   0.861   3.189   4.066
 1545SOL     OW 5200   0.618   3.429   5.008
 1545SOL    HW1 5201   0.613   3.511   5.065
 1545SOL    HW2 5202   0.707   3.426   4.963
 1546SOL     OW 5203   1.352   1.914   3.892
 1546SOL    HW1 5204   1.387   1.873   3.808
 1546SOL    HW2 5205   1.262   1.876   3.912
 1547SOL     OW 5206   1.300   2.315   4.415
 1547SOL    HW1 5207   1.241   2.395   4.419
 1547SOL    HW2 5208   1.315   2.280   4.508
 1548SOL     OW 5209   1.593   2.083   4.606
 1548SOL    HW1 5210   1.509   2.082   4.660
 1548SOL    HW2 5211   1.595   2.166   4.550
 1549SOL     OW 5212   0.039   2.939   4.024
 1549SOL    HW1 5213   0.138   2.928   4.015
 1549SOL    HW2 5214  -0.001   2.853   4.056
 1550SOL     OW 5215   0.875   3.508   4.061
 1550SOL    HW1 5216   0.798   3.473   4.007
 1550SOL    HW2 5217   0.843   3.579   4.123
 1551SOL     OW 5218   0.230   2.490   5.699
 1551SOL    HW1 5219   0.137   2.488   5.736
 1551SOL    HW2 5220   0.231   2.451   5.607
 1552SOL     OW 5221   0.225   2.137   6.582
 1552SOL    HW1 5222   0.260   2.120   6.674
 1552SOL    HW2 5223   0.137   2.092   6.570
 1553SOL     OW 5224   0.019   2.230   6.233
 1553SOL    HW1 5225  -0.063   2.273   6.272
 1553SOL    HW2 5226  -0.009   2.157   6.170
 1554SOL     OW 5227   0.569   3.137   6.751
 1554SOL    HW1 5228   0.476   3.130   6.714
 1554SOL    HW2 5229   0.580   3.226   6.795
 1555SOL     OW 5230   1.555   3.373   6.289
 1555SOL    HW1 5231   1.498   3.357   6.370
 1555SOL    HW2 5232   1.496   3.383   6.209
 1556SOL     OW 5233   1.135   2.565   6.303
 1556SOL    HW1 5234   1.192   2.643   6.278
 1556SOL    HW2 5235   1.075   2.591   6.379
 1557SOL     OW 5236   1.755   2.469   5.817
 1557SOL    HW1 5237   1.743   2.456   5.718
 1557SOL    HW2 5238   1.725   2.388   5.866
 1558SOL     OW 5239   0.768   3.006   6.609
 1558SOL    HW1 5240   0.690   3.023   6.669
 1558SOL    HW2 5241   0.802   3.093   6.573
 1559SOL     OW 5242   0.850   2.660   7.409
 1559SOL    HW1 5243   0.846   2.736   7.474
 1559SOL    HW2 5244   0.872   2.696   7.318
 1560SOL     OW 5245   0.685   2.874   6.251
 1560SOL    HW1 5246   0.754   2.858   6.321
 1560SOL    HW2 5247   0.612   2.931   6.289
 1561SOL     OW 5248   0.686   3.023   7.389
 1561SOL    HW1 5249   0.746   3.102   7.403
 1561SOL    HW2 5250   0.600   3.054   7.348
 1562SOL     OW 5251   0.335   3.297   6.647
 1562SOL    HW1 5252   0.257   3.266   6.594
 1562SOL    HW2 5253   0.393   3.355   6.590
 1563SOL     OW 5254   1.460   3.367   6.925
 1563SOL    HW1 5255   1.484   3.461   6.951
 1563SOL    HW2 5256   1.444   3.313   7.007
 1564SOL     OW 5257   0.438   2.254   7.085
 1564SOL    HW1 5258   0.520   2.198   7.094
 1564SOL    HW2 5259   0.357   2.196   7.089
 1565SOL     OW 5260   1.603   2.309   6.323
 1565SOL    HW1 5261   1.529   2.355   6.273
 1565SOL    HW2 5262   1.654   2.377   6.376
 1566SOL     OW 5263   0.231   3.575   6.069
 1566SOL    HW1 5264   0.265   3.652   6.123
 1566SOL    HW2 5265   0.275   3.575   5.979
 1567SOL     OW 5266   1.127   3.203   7.276
 1567SOL    HW1 5267   1.174   3.203   7.364
 1567SOL    HW2 5268   1.079   3.116   7.265
 1568SOL     OW 5269   0.230   3.296   6.124
 1568SOL    HW1 5270   0.204   3.392   6.124
 1568SOL    HW2 5271   0.159   3.242   6.169
 1569SOL     OW 5272   0.240   2.953   6.472
 1569SOL    HW1 5273   0.254   2.869   6.524
 1569SOL    HW2 5274   0.185   3.017   6.527
 1570SOL     OW 5275   0.620   3.648   7.025
 1570SOL    HW1 5276   0.528   3.631   7.060
 1570SOL    HW2 5277   0.648   3.740   7.051
 1571SOL     OW 5278   0.606   2.826   5.709
 1571SOL    HW1 5279   0.613   2.910   5.655
 1571SOL    HW2 5280   0.652   2.839   5.797
 1572SOL     OW 5281   1.594   1.976   7.066
 1572SOL    HW1 5282   1.576   2.043   6.994
 1572SOL    HW2 5283   1.591   2.022   7.155
 1573SOL     OW 5284   0.122   2.505   6.149
 1573SOL    HW1 5285   0.077   2.417   6.166
 1573SOL    HW2 5286   0.121   2.559   6.233
 1574SOL     OW 5287   1.842   3.629   5.945
 1574SOL    HW1 5288   1.896   3.600   6.025
 1574SOL    HW2 5289   1.872   3.719   5.916
 1575SOL     OW 5290   0.027   3.458   5.703
 1575SOL    HW1 5291   0.008   3.362   5.724
 1575SOL    HW2 5292  -0.006   3.516   5.778
 1576SOL     OW 5293   1.689   2.784   6.198
 1576SOL    HW1 5294   1.784   2.755   6.206
 1576SOL    HW2 5295   1.681   2.849   6.123
 1577SOL     OW 5296   1.641   2.970   6.018
 1577SOL    HW1 5297   1.727   2.972   5.966
 1577SOL    HW2 5298   1.655   3.017   6.106
 1578SOL     OW 5299   0.113   2.599   7.183
 1578SOL    HW1 5300   0.201   2.586   7.228
 1578SOL    HW2 5301   0.100   2.696   7.161
 1579SOL     OW 5302   0.613   3.227   6.312
 1579SOL    HW1 5303   0.564   3.140   6.321
 1579SOL    HW2 5304   0.590   3.270   6.225
 1580SOL     OW 5305   1.293   3.090   7.009
 1580SOL    HW1 5306   1.330   3.017   6.951
 1580SOL    HW2 5307   1.345   3.095   7.094
 1581SOL     OW 5308   0.809   1.866   6.088
 1581SOL    HW1 5309   0.849   1.957   6.079
 1581SOL    HW2 5310   0.709   1.874   6.094
 1582SOL     OW 5311   0.197   2.838   6.850
 1582SOL    HW1 5312   0.286   2.793   6.836
 1582SOL    HW2 5313   0.124   2.773   6.831
 1583SOL     OW 5314   1.525   2.861   5.776
 1583SOL    HW1 5315   1.462   2.785   5.789
 1583SOL    HW2 5316   1.573   2.879   5.862
 1584SOL     OW 5317   1.187   3.654   7.202
 1584SOL    HW1 5318   1.211   3.714   7.126
 1584SOL    HW2 5319   1.194   3.559   7.172
 1585SOL     OW 5320   0.317   2.113   7.387
 1585SOL    HW1 5321   0.388   2.184   7.393
 1585SOL    HW2 5322   0.229   2.152   7.415
 1586SOL     OW 5323   1.466   3.279   6.539
 1586SOL    HW1 5324   1.407   3.285   6.619
 1586SOL    HW2 5325   1.451   3.191   6.493
 1587SOL     OW 5326   1.667   3.576   6.158
 1587SOL    HW1 5327   1.626   3.553   6.070
 1587SOL    HW2 5328   1.649   3.502   6.223
 1588SOL     OW 5329   0.598   2.591   5.856
 1588SOL    HW1 5330   0.622   2.660   5.788
 1588SOL    HW2 5331   0.520   2.624   5.910
 1589SOL     OW 5332   1.281   2.207   6.530
 1589SOL    HW1 5333   1.195   2.157   6.517
 1589SOL    HW2 5334   1.343   2.153   6.586
 1590SOL     OW 5335   1.576   3.524   5.893
 1590SOL    HW1 5336   1.665   3.570   5.896
 1590SOL    HW2 5337   1.555   3.500   5.798
 1591SOL     OW 5338   0.807   2.467   7.051
 1591SOL    HW1 5339   0.760   2.464   7.140
 1591SOL    HW2 5340   0.756   2.412   6.985
 1592SOL     OW 5341   1.394   2.331   7.260
 1592SOL    HW1 5342   1.374   2.374   7.348
 1592SOL    HW2 5343   1.472   2.269   7.269
 1593SOL     OW 5344   0.973   2.752   7.158
 1593SOL    HW1 5345   1.019   2.668   7.129
 1593SOL    HW2 5346   0.917   2.786   7.083
 1594SOL     OW 5347   0.991   2.272   6.828
 1594SOL    HW1 5348   0.914   2.306   6.882
 1594SOL    HW2 5349   0.957   2.221   6.749
 1595SOL     OW 5350   1.041   2.563   6.015
 1595SOL    HW1 5351   1.067   2.559   6.111
 1595SOL    HW2 5352   0.956   2.512   6.001
 1596SOL     OW 5353   0.076   2.673   6.375
 1596SOL    HW1 5354   0.175   2.661   6.384
 1596SOL    HW2 5355   0.052   2.768   6.396
 1597SOL     OW 5356   0.130   3.683   7.157
 1597SOL    HW1 5357   0.120   3.668   7.256
 1597SOL    HW2 5358   0.044   3.719   7.121
 1598SOL     OW 5359   0.865   2.210   5.781
 1598SOL    HW1 5360   0.924   2.273   5.732
 1598SOL    HW2 5361   0.884   2.116   5.752
 1599SOL     OW 5362   1.719   2.447   7.417
 1599SOL    HW1 5363   1.693   2.536   7.381
 1599SOL    HW2 5364   1.717   2.379   7.344
 1600SOL     OW 5365   1.362   3.006   6.131
 1600SOL    HW1 5366   1.445   2.977   6.083
 1600SOL    HW2 5367   1.313   3.073   6.075
 1601SOL     OW 5368   0.550   2.058   6.471
 1601SOL    HW1 5369   0.545   2.053   6.571
 1601SOL    HW2 5370   0.552   2.154   6.442
 1602SOL     OW 5371   1.008   3.318   6.063
 1602SOL    HW1 5372   0.962   3.390   6.011
 1602SOL    HW2 5373   1.004   3.338   6.161
 1603SOL     OW 5374   0.351   3.663   6.439
 1603SOL    HW1 5375   0.401   3.577   6.445
 1603SOL    HW2 5376   0.416   3.740   6.436
 1604SOL     OW 5377   1.795   2.928   6.459
 1604SOL    HW1 5378   1.733   2.913   6.383
 1604SOL    HW2 5379   1.743   2.939   6.544
 1605SOL     OW 5380   1.227   3.412   7.092
 1605SOL    HW1 5381   1.233   3.335   7.156
 1605SOL    HW2 5382   1.175   3.386   7.012
 1606SOL     OW 5383   0.321   2.805   5.828
 1606SOL    HW1 5384   0.403   2.844   5.786
 1606SOL    HW2 5385   0.294   2.723   5.779
 1607SOL     OW 5386   1.458   2.597   6.314
 1607SOL    HW1 5387   1.453   2.532   6.389
 1607SOL    HW2 5388   1.538   2.656   6.327
 1608SOL     OW 5389   0.461   3.128   7.313
 1608SOL    HW1 5390   0.411   3.129   7.227
 1608SOL    HW2 5391   0.398   3.110   7.389
 1609SOL     OW 5392   1.111   3.638   5.823
 1609SOL    HW1 5393   1.051   3.576   5.873
 1609SOL    HW2 5394   1.142   3.594   5.738
 1610SOL     OW 5395   0.202   2.147   7.084
 1610SOL    HW1 5396   0.122   2.207   7.071
 1610SOL    HW2 5397   0.192   2.098   7.170
 1611SOL     OW 5398   1.632   3.239   5.667
 1611SOL    HW1 5399   1.600   3.333   5.657
 1611SOL    HW2 5400   1.556   3.176   5.655
 1612SOL     OW 5401   0.464   3.605   5.909
 1612SOL    HW1 5402   0.497   3.644   5.995
 1612SOL    HW2 5403   0.540   3.598   5.844
 1613SOL     OW 5404   1.400   1.969   6.012
 1613SOL    HW1 5405   1.376   1.932   5.922
 1613SOL    HW2 5406   1.499   1.985   6.016
 1614SOL     OW 5407   0.249   3.647   6.827
 1614SOL    HW1 5408   0.306   3.582   6.877
 1614SOL    HW2 5409   0.233   3.614   6.734
 1615SOL     OW 5410   0.940   3.560   6.490
 1615SOL    HW1 5411   1.020   3.503   6.511
 1615SOL    HW2 5412   0.891   3.520   6.413
 1616SOL     OW 5413   0.382   2.562   6.066
 1616SOL    HW1 5414   0.427   2.472   6.063
 1616SOL    HW2 5415   0.288   2.551   6.099
 1617SOL     OW 5416   1.547   2.084   7.315
 1617SOL    HW1 5417   1.542   2.121   7.407
 1617SOL    HW2 5418   1.475   2.015   7.303
 1618SOL     OW 5419   0.614   1.984   5.703
 1618SOL    HW1 5420   0.712   1.962   5.710
 1618SOL    HW2 5421   0.583   1.967   5.610
 1619SOL     OW 5422   0.781   2.126   7.335
 1619SOL    HW1 5423   0.848   2.065   7.378
 1619SOL    HW2 5424   0.708   2.145   7.400
 1620SOL     OW 5425   0.888   3.376   6.781
 1620SOL    HW1 5426   0.865   3.351   6.687
 1620SOL    HW2 5427   0.949   3.307   6.820
 1621SOL     OW 5428   1.351   2.452   7.019
 1621SOL    HW1 5429   1.379   2.409   7.104
 1621SOL    HW2 5430   1.376   2.548   7.020
 1622SOL     OW 5431   0.803   3.264   6.510
 1622SOL    HW1 5432   0.893   3.278   6.468
 1622SOL    HW2 5433   0.732   3.266   6.439
 1623SOL     OW 5434   0.922   2.365   6.485
 1623SOL    HW1 5435   0.897   2.356   6.389
 1623SOL    HW2 5436   0.970   2.283   6.516
 1624SOL     OW 5437   0.539   1.926   6.098
 1624SOL    HW1 5438   0.458   1.927   6.156
 1624SOL    HW2 5439   0.542   2.009   6.043
 1625SOL     OW 5440   1.434   3.050   5.627
 1625SOL    HW1 5441   1.466   2.974   5.684
 1625SOL    HW2 5442   1.342   3.077   5.657
 1626SOL     OW 5443   0.297   1.897   5.757
 1626SOL    HW1 5444   0.346   1.981   5.736
 1626SOL    HW2 5445   0.359   1.832   5.802
 1627SOL     OW 5446   0.935   2.098   6.066
 1627SOL    HW1 5447   0.887   2.139   5.988
 1627SOL    HW2 5448   1.034   2.096   6.047
 1628SOL     OW 5449   1.076   2.545   7.050
 1628SOL    HW1 5450   0.996   2.484   7.053
 1628SOL    HW2 5451   1.157   2.492   7.026
 1629SOL     OW 5452   1.227   3.432   6.379
 1629SOL    HW1 5453   1.248   3.506   6.314
 1629SOL    HW2 5454   1.295   3.432   6.452
 1630SOL     OW 5455   0.459   3.014   6.327
 1630SOL    HW1 5456   0.388   2.987   6.392
 1630SOL    HW2 5457   0.433   2.986   6.234
 1631SOL     OW 5458   1.271   3.659   6.177
 1631SOL    HW1 5459   1.315   3.723   6.113
 1631SOL    HW2 5460   1.221   3.711   6.247
 1632SOL     OW 5461   1.032   2.411   5.602
 1632SOL    HW1 5462   0.991   2.493   5.563
 1632SOL    HW2 5463   1.096   2.437   5.675
 1633SOL     OW 5464   0.078   2.418   6.972
 1633SOL    HW1 5465   0.170   2.417   6.931
 1633SOL    HW2 5466   0.072   2.492   7.039
 1634SOL     OW 5467   0.561   2.084   6.733
 1634SOL    HW1 5468   0.599   2.000   6.770
 1634SOL    HW2 5469   0.473   2.103   6.777
 1635SOL     OW 5470   0.866   2.316   6.228
 1635SOL    HW1 5471   0.834   2.388   6.166
 1635SOL    HW2 5472   0.890   2.235   6.175
 1636SOL     OW 5473   1.017   1.901   6.339
 1636SOL    HW1 5474   0.945   1.906   6.270
 1636SOL    HW2 5475   0.993   1.832   6.408
 1637SOL     OW 5476   1.429   3.035   6.453
 1637SOL    HW1 5477   1.374   2.951   6.446
 1637SOL    HW2 5478   1.455   3.064   6.361
 1638SOL     OW 5479   1.466   2.452   6.578
 1638SOL    HW1 5480   1.436   2.357   6.585
 1638SOL    HW2 5481   1.539   2.468   6.644
 1639SOL     OW 5482   1.857   2.695   5.963
 1639SOL    HW1 5483   1.899   2.631   6.027
 1639SOL    HW2 5484   1.819   2.644   5.885
 1640SOL     OW 5485   0.488   3.247   5.760
 1640SOL    HW1 5486   0.401   3.232   5.807
 1640SOL    HW2 5487   0.471   3.273   5.665
 1641SOL     OW 5488   1.664   3.142   6.243
 1641SOL    HW1 5489   1.763   3.150   6.257
 1641SOL    HW2 5490   1.619   3.226   6.274
 1642SOL     OW 5491   1.390   2.437   5.664
 1642SOL    HW1 5492   1.336   2.416   5.745
 1642SOL    HW2 5493   1.481   2.396   5.673
 1643SOL     OW 5494   0.527   2.118   5.914
 1643SOL    HW1 5495   0.554   2.059   5.839
 1643SOL    HW2 5496   0.527   2.213   5.883
 1644SOL     OW 5497   1.754   3.085   7.174
 1644SOL    HW1 5498   1.845   3.046   7.161
 1644SOL    HW2 5499   1.762   3.181   7.198
 1645SOL     OW 5500   1.064   3.209   6.926
 1645SOL    HW1 5501   0.984   3.186   6.981
 1645SOL    HW2 5502   1.147   3.183   6.975
 1646SOL     OW 5503   1.592   3.491   7.211
 1646SOL    HW1 5504   1.619   3.525   7.121
 1646SOL    HW2 5505   1.671   3.453   7.257
 1647SOL     OW 5506   1.111   3.057   6.686
 1647SOL    HW1 5507   1.071   3.101   6.767
 1647SOL    HW2 5508   1.070   3.094   6.603
 1648SOL     OW 5509   1.638   2.961   6.665
 1648SOL    HW1 5510   1.643   3.042   6.724
 1648SOL    HW2 5511   1.552   2.963   6.614
 1649SOL     OW 5512   0.915   1.951   6.988
 1649SOL    HW1 5513   0.940   1.931   6.893
 1649SOL    HW2 5514   0.987   2.007   7.030
 1650SOL     OW 5515   0.980   2.978   7.305
 1650SOL    HW1 5516   0.881   2.984   7.315
 1650SOL    HW2 5517   1.003   2.898   7.249
 1651SOL     OW 5518   0.705   2.912   5.954
 1651SOL    HW1 5519   0.691   2.919   6.053
 1651SOL    HW2 5520   0.789   2.861   5.936
 1652SOL     OW 5521   0.410   2.675   6.837
 1652SOL    HW1 5522   0.496   2.687   6.887
 1652SOL    HW2 5523   0.368   2.588   6.864
 1653SOL     OW 5524   1.274   2.248   6.848
 1653SOL    HW1 5525   1.295   2.322   6.912
 1653SOL    HW2 5526   1.185   2.265   6.805
 1654SOL     OW 5527   0.064   3.426   6.917
 1654SOL    HW1 5528   0.018   3.508   6.883
 1654SOL    HW2 5529   0.162   3.445   6.926
 1655SOL     OW 5530   0.367   2.962   6.087
 1655SOL    HW1 5531   0.360   3.045   6.031
 1655SOL    HW2 5532   0.371   2.882   6.027
 1656SOL     OW 5533   0.566   2.399   6.451
 1656SOL    HW1 5534   0.578   2.465   6.377
 1656SOL    HW2 5535   0.612   2.433   6.534
 1657SOL     OW 5536   1.252   3.210   5.974
 1657SOL    HW1 5537   1.302   3.287   6.014
 1657SOL    HW2 5538   1.157   3.212   6.006
 1658SOL     OW 5539   1.272   3.307   6.728
 1658SOL    HW1 5540   1.319   3.320   6.815
 1658SOL    HW2 5541   1.206   3.233   6.737
 1659SOL     OW 5542   1.582   2.501   6.058
 1659SOL    HW1 5543   1.551   2.562   6.131
 1659SOL    HW2 5544   1.632   2.553   5.989
 1660SOL     OW 5545   0.354   3.372   6.915
 1660SOL    HW1 5546   0.333   3.328   6.828
 1660SOL    HW2 5547   0.451   3.398   6.918
 1661SOL     OW 5548   0.402   2.613   7.184
 1661SOL    HW1 5549   0.470   2.668   7.137
 1661SOL    HW2 5550   0.442   2.525   7.211
 1662SOL     OW 5551   1.587   2.641   7.256
 1662SOL    HW1 5552   1.495   2.679   7.251
 1662SOL    HW2 5553   1.647   2.688   7.191
 1663SOL     OW 5554   1.013   1.967   7.356
 1663SOL    HW1 5555   1.019   2.052   7.304
 1663SOL    HW2 5556   1.045   1.891   7.299
 1664SOL     OW 5557   0.504   1.912   7.326
 1664SOL    HW1 5558   0.462   1.855   7.256
 1664SOL    HW2 5559   0.438   1.981   7.358
 1665SOL     OW 5560   0.573   2.732   6.615
 1665SOL    HW1 5561   0.617   2.821   6.606
 1665SOL    HW2 5562   0.510   2.732   6.692
 1666SOL     OW 5563   1.360   2.724   6.631
 1666SOL    HW1 5564   1.285   2.724   6.565
 1666SOL    HW2 5565   1.397   2.632   6.640
 1667SOL     OW 5566   1.209   2.387   5.861
 1667SOL    HW1 5567   1.222   2.303   5.915
 1667SOL    HW2 5568   1.180   2.461   5.921
 1668SOL     OW 5569   0.307   2.075   6.817
 1668SOL    HW1 5570   0.284   2.112   6.907
 1668SOL    HW2 5571   0.277   1.980   6.811
 1669SOL     OW 5572   0.037   3.172   6.868
 1669SOL    HW1 5573   0.090   3.123   6.936
 1669SOL    HW2 5574   0.059   3.270   6.873
 1670SOL     OW 5575   0.732   2.496   6.650
 1670SOL    HW1 5576   0.791   2.470   6.574
 1670SOL    HW2 5577   0.704   2.592   6.639
 1671SOL     OW 5578   1.728   2.797   7.440
 1671SOL    HW1 5579   1.682   2.790   7.351
 1671SOL    HW2 5580   1.666   2.841   7.506
 1672SOL     OW 5581   0.307   1.925   6.204
 1672SOL    HW1 5582   0.296   2.019   6.237
 1672SOL    HW2 5583   0.302   1.862   6.281
 1673SOL     OW 5584   1.622   2.229   5.960
 1673SOL    HW1 5585   1.624   2.153   6.024
 1673SOL    HW2 5586   1.574   2.306   6.000
 1674SOL     OW 5587   1.023   2.628   6.552
 1674SOL    HW1 5588   1.038   2.649   6.648
 1674SOL    HW2 5589   0.993   2.533   6.543
 1675SOL     OW 5590   0.980   3.435   7.286
 1675SOL    HW1 5591   0.960   3.479   7.198
 1675SOL    HW2 5592   1.019   3.344   7.270
 1676SOL     OW 5593   1.859   3.380   7.191
 1676SOL    HW1 5594   1.873   3.407   7.096
 1676SOL    HW2 5595   1.942   3.402   7.244
 1677SOL     OW 5596   0.350   2.760   7.390
 1677SOL    HW1 5597   0.426   2.804   7.438
 1677SOL    HW2 5598   0.385   2.713   7.308
 1678SOL     OW 5599   1.540   2.136   5.711
 1678SOL    HW1 5600   1.479   2.061   5.734
 1678SOL    HW2 5601   1.562   2.188   5.794
 1679SOL     OW 5602   1.303   2.700   5.628
 1679SOL    HW1 5603   1.337   2.607   5.643
 1679SOL    HW2 5604   1.321   2.727   5.533
 1680SOL     OW 5605   1.068   3.195   6.435
 1680SOL    HW1 5606   1.075   3.111   6.380
 1680SOL    HW2 5607   1.130   3.264   6.399
 1681SOL     OW 5608   0.319   2.672   6.535
 1681SOL    HW1 5609   0.412   2.708   6.540
 1681SOL    HW2 5610   0.313   2.587   6.587
 1682SOL     OW 5611   0.339   2.371   6.592
 1682SOL    HW1 5612   0.287   2.288   6.575
 1682SOL    HW2 5613   0.416   2.376   6.528
 1683SOL     OW 5614   1.138   2.242   7.264
 1683SOL    HW1 5615   1.093   2.305   7.328
 1683SOL    HW2 5616   1.231   2.273   7.247
 1684SOL     OW 5617   1.160   2.069   7.063
 1684SOL    HW1 5618   1.160   2.133   7.140
 1684SOL    HW2 5619   1.188   2.117   6.980
 1685SOL     OW 5620   0.008   3.188   5.786
 1685SOL    HW1 5621  -0.085   3.209   5.755
 1685SOL    HW2 5622   0.018   3.089   5.799
 1686SOL     OW 5623   0.088   3.663   6.513
 1686SOL    HW1 5624   0.046   3.577   6.486
 1686SOL    HW2 5625   0.182   3.666   6.479
 1687SOL     OW 5626   0.504   3.430   6.496
 1687SOL    HW1 5627   0.570   3.504   6.505
 1687SOL    HW2 5628   0.548   3.351   6.454
 1688SOL     OW 5629   1.002   2.658   6.824
 1688SOL    HW1 5630   1.043   2.626   6.910
 1688SOL    HW2 5631   0.906   2.631   6.821
 1689SOL     OW 5632   0.040   2.406   6.700
 1689SOL    HW1 5633   0.125   2.373   6.659
 1689SOL    HW2 5634   0.053   2.421   6.798
 1690SOL     OW 5635   0.189   2.382   7.308
 1690SOL    HW1 5636   0.248   2.342   7.238
 1690SOL    HW2 5637   0.131   2.453   7.267
 1691SOL     OW 5638   1.369   2.812   7.246
 1691SOL    HW1 5639   1.408   2.901   7.266
 1691SOL    HW2 5640   1.379   2.792   7.149
 1692SOL     OW 5641   0.815   2.434   5.911
 1692SOL    HW1 5642   0.822   2.345   5.865
 1692SOL    HW2 5643   0.721   2.468   5.903
 1693SOL     OW 5644   1.657   2.466   6.792
 1693SOL    HW1 5645   1.619   2.397   6.854
 1693SOL    HW2 5646   1.739   2.430   6.748
 1694SOL     OW 5647   0.252   3.426   7.330
 1694SOL    HW1 5648   0.222   3.483   7.406
 1694SOL    HW2 5649   0.245   3.329   7.356
 1695SOL     OW 5650   0.671   2.326   6.855
 1695SOL    HW1 5651   0.637   2.237   6.825
 1695SOL    HW2 5652   0.697   2.380   6.775
 1696SOL     OW 5653   0.930   3.540   7.051
 1696SOL    HW1 5654   0.906   3.522   6.956
 1696SOL    HW2 5655   0.960   3.634   7.061
 1697SOL     OW 5656   0.473   2.362   5.777
 1697SOL    HW1 5657   0.534   2.442   5.781
 1697SOL    HW2 5658   0.378   2.393   5.784
 1698SOL     OW 5659   0.159   2.999   7.052
 1698SOL    HW1 5660   0.181   2.938   7.128
 1698SOL    HW2 5661   0.169   2.950   6.966
 1699SOL     OW 5662   1.347   2.921   6.820
 1699SOL    HW1 5663   1.371   2.858   6.746
 1699SOL    HW2 5664   1.257   2.961   6.802
 1700SOL     OW 5665   1.302   2.717   5.895
 1700SOL    HW1 5666   1.216   2.686   5.937
 1700SOL    HW2 5667   1.298   2.703   5.796
 1701SOL     OW 5668   1.759   3.609   6.740
 1701SOL    HW1 5669   1.820   3.639   6.667
 1701SOL    HW2 5670   1.721   3.520   6.718
 1702SOL     OW 5671   1.252   3.593   6.714
 1702SOL    HW1 5672   1.336   3.598   6.660
 1702SOL    HW2 5673   1.229   3.497   6.732
 1703SOL     OW 5674   0.083   3.120   6.608
 1703SOL    HW1 5675   0.078   3.119   6.708
 1703SOL    HW2 5676   0.000   3.079   6.570
 1704SOL     OW 5677   0.688   3.524   7.302
 1704SOL    HW1 5678   0.632   3.605   7.311
 1704SOL    HW2 5679   0.740   3.528   7.216
 1705SOL     OW 5680   1.726   1.997   6.109
 1705SOL    HW1 5681   1.799   1.980   6.042
 1705SOL    HW2 5682   1.695   1.910   6.147
 1706SOL     OW 5683   1.388   3.435   6.063
 1706SOL    HW1 5684   1.455   3.447   5.989
 1706SOL    HW2 5685   1.348   3.524   6.086
 1707SOL     OW 5686   0.130   3.656   7.437
 1707SOL    HW1 5687   0.089   3.582   7.490
 1707SOL    HW2 5688   0.194   3.707   7.495
 1708SOL     OW 5689   1.280   2.789   6.258
 1708SOL    HW1 5690   1.340   2.708   6.260
 1708SOL    HW2 5691   1.320   2.858   6.198
 1709SOL     OW 5692   0.830   3.135   7.008
 1709SOL    HW1 5693   0.825   3.168   7.103
 1709SOL    HW2 5694   0.744   3.154   6.962
 1710SOL     OW 5695   0.672   3.478   5.740
 1710SOL    HW1 5696   0.681   3.488   5.641
 1710SOL    HW2 5697   0.632   3.389   5.761
 1711SOL     OW 5698   1.650   3.582   6.980
 1711SOL    HW1 5699   1.703   3.592   6.896
 1711SOL    HW2 5700   1.623   3.672   7.014
 1712SOL     OW 5701   1.841   2.037   6.549
 1712SOL    HW1 5702   1.880   1.952   6.513
 1712SOL    HW2 5703   1.743   2.039   6.530
 1713SOL     OW 5704   0.263   2.188   6.306
 1713SOL    HW1 5705   0.184   2.239   6.272
 1713SOL    HW2 5706   0.254   2.173   6.404
 1714SOL     OW 5707   1.194   3.474   5.617
 1714SOL    HW1 5708   1.200   3.381   5.654
 1714SOL    HW2 5709   1.135   3.474   5.537
 1715SOL     OW 5710   0.822   2.864   6.958
 1715SOL    HW1 5711   0.862   2.863   6.866
 1715SOL    HW2 5712   0.832   2.956   6.998
 1716SOL     OW 5713   0.916   2.772   5.877
 1716SOL    HW1 5714   0.979   2.810   5.809
 1716SOL    HW2 5715   0.956   2.689   5.916
 1717SOL     OW 5716   1.504   3.469   5.630
 1717SOL    HW1 5717   1.412   3.506   5.637
 1717SOL    HW2 5718   1.542   3.489   5.540
 1718SOL     OW 5719   0.372   3.150   7.076
 1718SOL    HW1 5720   0.359   3.243   7.042
 1718SOL    HW2 5721   0.288   3.098   7.063
 1719SOL     OW 5722   1.614   3.154   6.875
 1719SOL    HW1 5723   1.674   3.157   6.955
 1719SOL    HW2 5724   1.539   3.218   6.888
 1720SOL     OW 5725   1.039   2.960   6.282
 1720SOL    HW1 5726   0.969   2.913   6.336
 1720SOL    HW2 5727   1.098   2.892   6.239
 1721SOL     OW 5728   1.014   2.098   6.557
 1721SOL    HW1 5729   1.006   2.062   6.464
 1721SOL    HW2 5730   1.012   2.022   6.622
 1722SOL     OW 5731   0.590   3.349   6.077
 1722SOL    HW1 5732   0.632   3.291   6.007
 1722SOL    HW2 5733   0.546   3.428   6.033
 1723SOL     OW 5734   1.709   2.247   6.967
 1723SOL    HW1 5735   1.782   2.316   6.971
 1723SOL    HW2 5736   1.737   2.172   6.908
 1724SOL     OW 5737   0.255   3.210   5.876
 1724SOL    HW1 5738   0.159   3.211   5.849
 1724SOL    HW2 5739   0.267   3.263   5.960
 1725SOL     OW 5740   0.105   2.875   7.312
 1725SOL    HW1 5741   0.028   2.842   7.366
 1725SOL    HW2 5742   0.190   2.845   7.354
 1726SOL     OW 5743   0.672   2.065   7.075
 1726SOL    HW1 5744   0.762   2.049   7.035
 1726SOL    HW2 5745   0.680   2.070   7.174
 1727SOL     OW 5746   0.075   2.207   5.619
 1727SOL    HW1 5747  -0.017   2.179   5.590
 1727SOL    HW2 5748   0.106   2.284   5.563
 1728SOL     OW 5749   1.440   2.718   6.984
 1728SOL    HW1 5750   1.383   2.770   6.921
 1728SOL    HW2 5751   1.536   2.730   6.960
 1729SOL     OW 5752   0.072   2.028   5.904
 1729SOL    HW1 5753   0.055   2.111   5.850
 1729SOL    HW2 5754   0.162   1.991   5.882
 1730SOL     OW 5755   1.183   3.197   5.705
 1730SOL    HW1 5756   1.084   3.186   5.707
 1730SOL    HW2 5757   1.217   3.212   5.798
 1731SOL     OW 5758   0.613   2.704   7.017
 1731SOL    HW1 5759   0.669   2.785   7.000
 1731SOL    HW2 5760   0.672   2.624   7.020
 1732SOL     OW 5761   1.493   3.629   6.545
 1732SOL    HW1 5762   1.526   3.693   6.476
 1732SOL    HW2 5763   1.559   3.623   6.620
 1733SOL     OW 5764   0.716   2.427   7.294
 1733SOL    HW1 5765   0.735   2.492   7.368
 1733SOL    HW2 5766   0.776   2.347   7.303
 1734SOL     OW 5767   1.450   3.082   7.219
 1734SOL    HW1 5768   1.441   3.072   7.318
 1734SOL    HW2 5769   1.546   3.075   7.193
 1735SOL     OW 5770   0.390   3.603   7.146
 1735SOL    HW1 5771   0.299   3.644   7.144
 1735SOL    HW2 5772   0.383   3.509   7.178
 1736SOL     OW 5773   1.674   2.745   6.840
 1736SOL    HW1 5774   1.647   2.656   6.803
 1736SOL    HW2 5775   1.675   2.813   6.767
 1737SOL     OW 5776   1.225   2.187   6.035
 1737SOL    HW1 5777   1.290   2.113   6.024
 1737SOL    HW2 5778   1.245   2.237   6.119
 1738SOL     OW 5779   0.594   2.607   6.238
 1738SOL    HW1 5780   0.644   2.692   6.219
 1738SOL    HW2 5781   0.506   2.609   6.190
 1739SOL     OW 5782   1.777   2.204   7.228
 1739SOL    HW1 5783   1.760   2.235   7.134
 1739SOL    HW2 5784   1.693   2.167   7.266
 1740SOL     OW 5785   1.730   2.796   7.103
 1740SOL    HW1 5786   1.768   2.887   7.118
 1740SOL    HW2 5787   1.722   2.779   7.004
 1741SOL     OW 5788   0.859   3.236   5.602
 1741SOL    HW1 5789   0.813   3.251   5.690
 1741SOL    HW2 5790   0.903   3.321   5.572
 1742SOL     OW 5791   0.661   3.652   6.539
 1742SOL    HW1 5792   0.615   3.740   6.526
 1742SOL    HW2 5793   0.760   3.664   6.532
 1743SOL     OW 5794   0.859   2.818   6.447
 1743SOL    HW1 5795   0.913   2.749   6.495
 1743SOL    HW2 5796   0.827   2.887   6.513
 1744SOL     OW 5797   1.083   2.846   5.673
 1744SOL    HW1 5798   1.060   2.899   5.591
 1744SOL    HW2 5799   1.164   2.790   5.654
 1745SOL     OW 5800   1.861   3.431   6.437
 1745SOL    HW1 5801   1.790   3.419   6.367
 1745SOL    HW2 5802   1.862   3.352   6.497
 1746SOL     OW 5803   0.221   3.176   7.430
 1746SOL    HW1 5804   0.156   3.103   7.409
 1746SOL    HW2 5805   0.225   3.190   7.528
 1747SOL     OW 5806   0.079   3.102   6.239
 1747SOL    HW1 5807   0.078   3.055   6.327
 1747SOL    HW2 5808   0.161   3.074   6.188
 1748SOL     OW 5809   0.672   3.253   7.210
 1748SOL    HW1 5810   0.594   3.203   7.248
 1748SOL    HW2 5811   0.669   3.348   7.241
 1749SOL     OW 5812   1.824   2.054   6.813
 1749SOL    HW1 5813   1.820   1.964   6.857
 1749SOL    HW2 5814   1.827   2.043   6.714
 1750SOL     OW 5815   0.428   2.286   6.106
 1750SOL    HW1 5816   0.458   2.214   6.044
 1750SOL    HW2 5817   0.389   2.246   6.189
 1751SOL     OW 5818   1.705   3.349   6.690
 1751SOL    HW1 5819   1.612   3.324   6.663
 1751SOL    HW2 5820   1.731   3.299   6.772
 1752SOL     OW 5821   0.317   2.409   6.866
 1752SOL    HW1 5822   0.355   2.350   6.938
 1752SOL    HW2 5823   0.357   2.383   6.778
 1753SOL     OW 5824   0.812   3.448   6.273
 1753SOL    HW1 5825   0.844   3.458   6.179
 1753SOL    HW2 5826   0.733   3.386   6.275
 1754SOL     OW 5827   1.424   2.076   6.698
 1754SOL    HW1 5828   1.476   2.011   6.753
 1754SOL    HW2 5829   1.375   2.139   6.759
 1755SOL     OW 5830   1.001   1.896   6.740
 1755SOL    HW1 5831   0.938   1.824   6.709
 1755SOL    HW2 5832   1.094   1.860   6.740
 1756SOL     OW 5833   0.770   3.192   5.887
 1756SOL    HW1 5834   0.724   3.105   5.904
 1756SOL    HW2 5835   0.861   3.189   5.928
 1757SOL     OW 5836   0.618   3.429   6.870
 1757SOL    HW1 5837   0.613   3.511   6.927
 1757SOL    HW2 5838   0.707   3.426   6.825
 1758SOL     OW 5839   1.352   1.914   5.754
 1758SOL    HW1 5840   1.387   1.873   5.670
 1758SOL    HW2 5841   1.262   1.876   5.774
 1759SOL     OW 5842   1.300   2.315   6.277
 1759SOL    HW1 5843   1.241   2.395   6.281
 1759SOL    HW2 5844   1.315   2.280   6.370
 1760SOL     OW 5845   1.593   2.083   6.468
 1760SOL    HW1 5846   1.509   2.082   6.522
 1760SOL    HW2 5847   1.595   2.166   6.412
 1761SOL     OW 5848   0.039   2.939   5.886
 1761SOL    HW1 5849   0.138   2.928   5.877
 1761SOL    HW2 5850  -0.001   2.853   5.918
 1762SOL     OW 5851   0.875   3.508   5.923
 1762SOL    HW1 5852   0.798   3.473   5.869
 1762SOL    HW2 5853   0.843   3.579   5.985
 1763SOL     OW 5854   0.230   2.490   7.561
 1763SOL    HW1 5855   0.137   2.488   7.598
 1763SOL    HW2 5856   0.231   2.451   7.469
 1764SOL     OW 5857   1.755   2.469   7.679
 1764SOL    HW1 5858   1.743   2.456   7.580
 1764SOL    HW2 5859   1.725   2.388   7.728
 1765SOL     OW 5860   0.231   3.575   7.931
 1765SOL    HW1 5861   0.265   3.652   7.985
 1765SOL    HW2 5862   0.275   3.575   7.841
 1766SOL     OW 5863   0.230   3.296   7.986
 1766SOL    HW1 5864   0.204   3.392   7.986
 1766SOL    HW2 5865   0.159   3.242   8.031
 1767SOL     OW 5866   0.606   2.826   7.571
 1767SOL    HW1 5867   0.613   2.910   7.517
 1767SOL    HW2 5868   0.652   2.839   7.659
 1768SOL     OW 5869   1.842   3.629   7.807
 1768SOL    HW1 5870   1.896   3.600   7.887
 1768SOL    HW2 5871   1.872   3.719   7.778
 1769SOL     OW 5872   0.027   3.458   7.565
 1769SOL    HW1 5873   0.008   3.362   7.586
 1769SOL    HW2 5874  -0.006   3.516   7.640
 1770SOL     OW 5875   1.689   2.784   8.060
 1770SOL    HW1 5876   1.784   2.755   8.068
 1770SOL    HW2 5877   1.681   2.849   7.985
 1771SOL     OW 5878   1.641   2.970   7.880
 1771SOL    HW1 5879   1.727   2.972   7.828
 1771SOL    HW2 5880   1.655   3.017   7.968
 1772SOL     OW 5881   0.809   1.866   7.950
 1772SOL    HW1 5882   0.849   1.957   7.941
 1772SOL    HW2 5883   0.709   1.874   7.956
 1773SOL     OW 5884   1.525   2.861   7.638
 1773SOL    HW1 5885   1.462   2.785   7.651
 1773SOL    HW2 5886   1.573   2.879   7.724
 1774SOL     OW 5887   0.598   2.591   7.718
 1774SOL    HW1 5888   0.622   2.660   7.650
 1774SOL    HW2 5889   0.520   2.624   7.772
 1775SOL     OW 5890   1.576   3.524   7.755
 1775SOL    HW1 5891   1.665   3.570   7.758
 1775SOL    HW2 5892   1.555   3.500   7.660
 1776SOL     OW 5893   0.076   2.673   8.237
 1776SOL    HW1 5894   0.175   2.661   8.246
 1776SOL    HW2 5895   0.052   2.768   8.258
 1777SOL     OW 5896   0.865   2.210   7.643
 1777SOL    HW1 5897   0.924   2.273   7.594
 1777SOL    HW2 5898   0.884   2.116   7.614
 1778SOL     OW 5899   0.321   2.805   7.690
 1778SOL    HW1 5900   0.403   2.844   7.648
 1778SOL    HW2 5901   0.294   2.723   7.641
 1779SOL     OW 5902   1.111   3.638   7.685
 1779SOL    HW1 5903   1.051   3.576   7.735
 1779SOL    HW2 5904   1.142   3.594   7.600
 1780SOL     OW 5905   1.632   3.239   7.529
 1780SOL    HW1 5906   1.600   3.333   7.519
 1780SOL    HW2 5907   1.556   3.176   7.517
 1781SOL     OW 5908   0.464   3.605   7.771
 1781SOL    HW1 5909   0.497   3.644   7.857
 1781SOL    HW2 5910   0.540   3.598   7.706
 1782SOL     OW 5911   1.400   1.969   7.874
 1782SOL    HW1 5912   1.376   1.932   7.784
 1782SOL    HW2 5913   1.499   1.985   7.878
 1783SOL     OW 5914   0.382   2.562   7.928
 1783SOL    HW1 5915   0.427   2.472   7.925
 1783SOL    HW2 5916   0.288   2.551   7.961
 1784SOL     OW 5917   0.614   1.984   7.565
 1784SOL    HW1 5918   0.712   1.962   7.572
 1784SOL    HW2 5919   0.583   1.967   7.472
 1785SOL     OW 5920   0.539   1.926   7.960
 1785SOL    HW1 5921   0.458   1.927   8.018
 1785SOL    HW2 5922   0.542   2.009   7.905
 1786SOL     OW 5923   1.434   3.050   7.489
 1786SOL    HW1 5924   1.466   2.974   7.546
 1786SOL    HW2 5925   1.342   3.077   7.519
 1787SOL     OW 5926   0.297   1.897   7.619
 1787SOL    HW1 5927   0.346   1.981   7.598
 1787SOL    HW2 5928   0.359   1.832   7.664
 1788SOL     OW 5929   0.935   2.098   7.928
 1788SOL    HW1 5930   0.887   2.139   7.850
 1788SOL    HW2 5931   1.034   2.096   7.909
 1789SOL     OW 5932   0.459   3.014   8.189
 1789SOL    HW1 5933   0.388   2.987   8.254
 1789SOL    HW2 5934   0.433   2.986   8.096
 1790SOL     OW 5935   1.271   3.659   8.039
 1790SOL    HW1 5936   1.315   3.723   7.975
 1790SOL    HW2 5937   1.221   3.711   8.109
 1791SOL     OW 5938   1.032   2.411   7.464
 1791SOL    HW1 5939   0.991   2.493   7.425
 1791SOL    HW2 5940   1.096   2.437   7.537
 1792SOL     OW 5941   1.857   2.695   7.825
 1792SOL    HW1 5942   1.899   2.631   7.889
 1792SOL    HW2 5943   1.819   2.644   7.747
 1793SOL     OW 5944   0.488   3.247   7.622
 1793SOL    HW1 5945   0.401   3.232   7.669
 1793SOL    HW2 5946   0.471   3.273   7.527
 1794SOL     OW 5947   1.390   2.437   7.526
 1794SOL    HW1 5948   1.336   2.416   7.607
 1794SOL    HW2 5949   1.481   2.396   7.535
 1795SOL     OW 5950   0.527   2.118   7.776
 1795SOL    HW1 5951   0.554   2.059   7.701
 1795SOL    HW2 5952   0.527   2.213   7.745
 1796SOL     OW 5953   0.705   2.912   7.816
 1796SOL    HW1 5954   0.691   2.919   7.915
 1796SOL    HW2 5955   0.789   2.861   7.798
 1797SOL     OW 5956   0.367   2.962   7.949
 1797SOL    HW1 5957   0.360   3.045   7.893
 1797SOL    HW2 5958   0.371   2.882   7.889
 1798SOL     OW 5959   1.252   3.210   7.836
 1798SOL    HW1 5960   1.302   3.287   7.876
 1798SOL    HW2 5961   1.157   3.212   7.868
 1799SOL     OW 5962   1.582   2.501   7.920
 1799SOL    HW1 5963   1.551   2.562   7.993
 1799SOL    HW2 5964   1.632   2.553   7.851
 1800SOL     OW 5965   1.209   2.387   7.723
 1800SOL    HW1 5966   1.222   2.303   7.777
 1800SOL    HW2 5967   1.180   2.461   7.783
 1801SOL     OW 5968   1.622   2.229   7.822
 1801SOL    HW1 5969   1.624   2.153   7.886
 1801SOL    HW2 5970   1.574   2.306   7.862
 1802SOL     OW 5971   1.540   2.136   7.573
 1802SOL    HW1 5972   1.479   2.061   7.596
 1802SOL    HW2 5973   1.562   2.188   7.656
 1803SOL     OW 5974   1.303   2.700   7.490
 1803SOL    HW1 5975   1.337   2.607   7.505
 1803SOL    HW2 5976   1.321   2.727   7.395
 1804SOL     OW 5977   0.008   3.188   7.648
 1804SOL    HW1 5978  -0.085   3.209   7.617
 1804SOL    HW2 5979   0.018   3.089   7.661
 1805SOL     OW 5980   0.815   2.434   7.773
 1805SOL    HW1 5981   0.822   2.345   7.727
 1805SOL    HW2 5982   0.721   2.468   7.765
 1806SOL     OW 5983   0.473   2.362   7.639
 1806SOL    HW1 5984   0.534   2.442   7.643
 1806SOL    HW2 5985   0.378   2.393   7.646
 1807SOL     OW 5986   1.302   2.717   7.757
 1807SOL    HW1 5987   1.216   2.686   7.799
 1807SOL    HW2 5988   1.298   2.703   7.658
 1808SOL     OW 5989   1.726   1.997   7.971
 1808SOL    HW1 5990   1.799   1.980   7.904
 1808SOL    HW2 5991   1.695   1.910   8.009
 1809SOL     OW 5992   1.388   3.435   7.925
 1809SOL    HW1 5993   1.455   3.447   7.851
 1809SOL    HW2 5994   1.348   3.524   7.948
 1810SOL     OW 5995   0.672   3.478   7.602
 1810SOL    HW1 5996   0.681   3.488   7.503
 1810SOL    HW2 5997   0.632   3.389   7.623
 1811SOL     OW 5998   1.194   3.474   7.479
 1811SOL    HW1 5999   1.200   3.381   7.516
 1811SOL    HW2 6000   1.135   3.474   7.399
 1812SOL     OW 6001   0.916   2.772   7.739
 1812SOL    HW1 6002   0.979   2.810   7.671
 1812SOL    HW2 6003   0.956   2.689   7.778
 1813SOL     OW 6004   1.504   3.469   7.492
 1813SOL    HW1 6005   1.412   3.506   7.499
 1813SOL    HW2 6006   1.542   3.489   7.402
 1814SOL     OW 6007   0.590   3.349   7.939
 1814SOL    HW1 6008   0.632   3.291   7.869
 1814SOL    HW2 6009   0.546   3.428   7.895
 1815SOL     OW 6010   0.255   3.210   7.738
 1815SOL    HW1 6011   0.159   3.211   7.711
 1815SOL    HW2 6012   0.267   3.263   7.822
 1816SOL     OW 6013   0.075   2.207   7.481
 1816SOL    HW1 6014  -0.017   2.179   7.452
 1816SOL    HW2 6015   0.106   2.284   7.425
 1817SOL     OW 6016   0.072   2.028   7.766
 1817SOL    HW1 6017   0.055   2.111   7.712
 1817SOL    HW2 6018   0.162   1.991   7.744
 1818SOL     OW 6019   1.183   3.197   7.567
 1818SOL    HW1 6020   1.084   3.186   7.569
 1818SOL    HW2 6021   1.217   3.212   7.660
 1819SOL     OW 6022   1.225   2.187   7.897
 1819SOL    HW1 6023   1.290   2.113   7.886
 1819SOL    HW2 6024   1.245   2.237   7.981
 1820SOL     OW 6025   0.594   2.607   8.100
 1820SOL    HW1 6026   0.644   2.692   8.081
 1820SOL    HW2 6027   0.506   2.609   8.052
 1821SOL     OW 6028   0.859   3.236   7.464
 1821SOL    HW1 6029   0.813   3.251   7.552
 1821SOL    HW2 6030   0.903   3.321   7.434
 1822SOL     OW 6031   1.083   2.846   7.535
 1822SOL    HW1 6032   1.060   2.899   7.453
 1822SOL    HW2 6033   1.164   2.790   7.516
 1823SOL     OW 6034   0.428   2.286   7.968
 1823SOL    HW1 6035   0.458   2.214   7.906
 1823SOL    HW2 6036   0.389   2.246   8.051
 1824SOL     OW 6037   0.770   3.192   7.749
 1824SOL    HW1 6038   0.724   3.105   7.766
 1824SOL    HW2 6039   0.861   3.189   7.790
 1825SOL     OW 6040   1.352   1.914   7.616
 1825SOL    HW1 6041   1.387   1.873   7.532
 1825SOL    HW2 6042   1.262   1.876   7.636
 1826SOL     OW 6043   0.039   2.939   7.748
 1826SOL    HW1 6044   0.138   2.928   7.739
 1826SOL    HW2 6045  -0.001   2.853   7.780
 1827SOL     OW 6046   0.875   3.508   7.785
 1827SOL    HW1 6047   0.798   3.473   7.731
 1827SOL    HW2 6048   0.843   3.579   7.847
 1828SOL     OW 6049   0.230   4.352   0.113
 1828SOL    HW1 6050   0.137   4.350   0.150
 1828SOL    HW2 6051   0.231   4.313   0.021
 1829SOL     OW 6052   0.225   3.999   0.996
 1829SOL    HW1 6053   0.260   3.982   1.088
 1829SOL    HW2 6054   0.137   3.954   0.984
 1830SOL     OW 6055   0.019   4.092   0.647
 1830SOL    HW1 6056  -0.063   4.135   0.686
 1830SOL    HW2 6057  -0.009   4.019   0.584
 1831SOL     OW 6058   0.569   4.999   1.165
 1831SOL    HW1 6059   0.476   4.992   1.128
 1831SOL    HW2 6060   0.580   5.088   1.209
 1832SOL     OW 6061   1.555   5.235   0.703
 1832SOL    HW1 6062   1.498   5.219   0.784
 1832SOL    HW2 6063   1.496   5.245   0.623
 1833SOL     OW 6064   1.135   4.427   0.717
 1833SOL    HW1 6065   1.192   4.505   0.692
 1833SOL    HW2 6066   1.075   4.453   0.793
 1834SOL     OW 6067   1.755   4.331   0.231
 1834SOL    HW1 6068   1.743   4.318   0.132
 1834SOL    HW2 6069   1.725   4.250   0.280
 1835SOL     OW 6070   0.768   4.868   1.023
 1835SOL    HW1 6071   0.690   4.885   1.083
 1835SOL    HW2 6072   0.802   4.955   0.987
 1836SOL     OW 6073   0.850   4.522   1.823
 1836SOL    HW1 6074   0.846   4.598   1.888
 1836SOL    HW2 6075   0.872   4.558   1.732
 1837SOL     OW 6076   0.685   4.736   0.665
 1837SOL    HW1 6077   0.754   4.720   0.735
 1837SOL    HW2 6078   0.612   4.793   0.703
 1838SOL     OW 6079   0.686   4.885   1.803
 1838SOL    HW1 6080   0.746   4.964   1.817
 1838SOL    HW2 6081   0.600   4.916   1.762
 1839SOL     OW 6082   0.335   5.159   1.061
 1839SOL    HW1 6083   0.257   5.128   1.008
 1839SOL    HW2 6084   0.393   5.217   1.004
 1840SOL     OW 6085   1.460   5.229   1.339
 1840SOL    HW1 6086   1.484   5.323   1.365
 1840SOL    HW2 6087   1.444   5.175   1.421
 1841SOL     OW 6088   0.438   4.116   1.499
 1841SOL    HW1 6089   0.520   4.060   1.508
 1841SOL    HW2 6090   0.357   4.058   1.503
 1842SOL     OW 6091   1.603   4.171   0.737
 1842SOL    HW1 6092   1.529   4.217   0.687
 1842SOL    HW2 6093   1.654   4.239   0.790
 1843SOL     OW 6094   1.127   5.065   1.690
 1843SOL    HW1 6095   1.174   5.065   1.778
 1843SOL    HW2 6096   1.079   4.978   1.679
 1844SOL     OW 6097   0.230   5.158   0.538
 1844SOL    HW1 6098   0.204   5.254   0.538
 1844SOL    HW2 6099   0.159   5.104   0.583
 1845SOL     OW 6100   0.240   4.815   0.886
 1845SOL    HW1 6101   0.254   4.731   0.938
 1845SOL    HW2 6102   0.185   4.879   0.941
 1846SOL     OW 6103   0.606   4.688   0.123
 1846SOL    HW1 6104   0.613   4.772   0.069
 1846SOL    HW2 6105   0.652   4.701   0.211
 1847SOL     OW 6106   1.594   3.838   1.480
 1847SOL    HW1 6107   1.576   3.905   1.408
 1847SOL    HW2 6108   1.591   3.884   1.569
 1848SOL     OW 6109   0.122   4.367   0.563
 1848SOL    HW1 6110   0.077   4.279   0.580
 1848SOL    HW2 6111   0.121   4.421   0.647
 1849SOL     OW 6112   0.027   5.320   0.117
 1849SOL    HW1 6113   0.008   5.224   0.138
 1849SOL    HW2 6114  -0.006   5.378   0.192
 1850SOL     OW 6115   1.689   4.646   0.612
 1850SOL    HW1 6116   1.784   4.617   0.620
 1850SOL    HW2 6117   1.681   4.711   0.537
 1851SOL     OW 6118   1.641   4.832   0.432
 1851SOL    HW1 6119   1.727   4.834   0.380
 1851SOL    HW2 6120   1.655   4.879   0.520
 1852SOL     OW 6121   0.113   4.461   1.597
 1852SOL    HW1 6122   0.201   4.448   1.642
 1852SOL    HW2 6123   0.100   4.558   1.575
 1853SOL     OW 6124   0.613   5.089   0.726
 1853SOL    HW1 6125   0.564   5.002   0.735
 1853SOL    HW2 6126   0.590   5.132   0.639
 1854SOL     OW 6127   1.293   4.952   1.423
 1854SOL    HW1 6128   1.330   4.879   1.365
 1854SOL    HW2 6129   1.345   4.957   1.508
 1855SOL     OW 6130   0.809   3.728   0.502
 1855SOL    HW1 6131   0.849   3.819   0.493
 1855SOL    HW2 6132   0.709   3.736   0.508
 1856SOL     OW 6133   0.197   4.700   1.264
 1856SOL    HW1 6134   0.286   4.655   1.250
 1856SOL    HW2 6135   0.124   4.635   1.245
 1857SOL     OW 6136   1.525   4.723   0.190
 1857SOL    HW1 6137   1.462   4.647   0.203
 1857SOL    HW2 6138   1.573   4.741   0.276
 1858SOL     OW 6139   0.317   3.975   1.801
 1858SOL    HW1 6140   0.388   4.046   1.807
 1858SOL    HW2 6141   0.229   4.014   1.829
 1859SOL     OW 6142   1.466   5.141   0.953
 1859SOL    HW1 6143   1.407   5.147   1.033
 1859SOL    HW2 6144   1.451   5.053   0.907
 1860SOL     OW 6145   0.598   4.453   0.270
 1860SOL    HW1 6146   0.622   4.522   0.202
 1860SOL    HW2 6147   0.520   4.486   0.324
 1861SOL     OW 6148   1.281   4.069   0.944
 1861SOL    HW1 6149   1.195   4.019   0.931
 1861SOL    HW2 6150   1.343   4.015   1.000
 1862SOL     OW 6151   0.807   4.329   1.465
 1862SOL    HW1 6152   0.760   4.326   1.554
 1862SOL    HW2 6153   0.756   4.274   1.399
 1863SOL     OW 6154   1.394   4.193   1.674
 1863SOL    HW1 6155   1.374   4.236   1.762
 1863SOL    HW2 6156   1.472   4.131   1.683
 1864SOL     OW 6157   0.973   4.614   1.572
 1864SOL    HW1 6158   1.019   4.530   1.543
 1864SOL    HW2 6159   0.917   4.648   1.497
 1865SOL     OW 6160   0.991   4.134   1.242
 1865SOL    HW1 6161   0.914   4.168   1.296
 1865SOL    HW2 6162   0.957   4.083   1.163
 1866SOL     OW 6163   1.041   4.425   0.429
 1866SOL    HW1 6164   1.067   4.421   0.525
 1866SOL    HW2 6165   0.956   4.374   0.415
 1867SOL     OW 6166   0.076   4.535   0.789
 1867SOL    HW1 6167   0.175   4.523   0.798
 1867SOL    HW2 6168   0.052   4.630   0.810
 1868SOL     OW 6169   0.865   4.072   0.195
 1868SOL    HW1 6170   0.924   4.135   0.146
 1868SOL    HW2 6171   0.884   3.978   0.166
 1869SOL     OW 6172   1.719   4.309   1.831
 1869SOL    HW1 6173   1.693   4.398   1.795
 1869SOL    HW2 6174   1.717   4.241   1.758
 1870SOL     OW 6175   1.362   4.868   0.545
 1870SOL    HW1 6176   1.445   4.839   0.497
 1870SOL    HW2 6177   1.313   4.935   0.489
 1871SOL     OW 6178   0.550   3.920   0.885
 1871SOL    HW1 6179   0.545   3.915   0.985
 1871SOL    HW2 6180   0.552   4.016   0.856
 1872SOL     OW 6181   1.008   5.180   0.477
 1872SOL    HW1 6182   0.962   5.252   0.425
 1872SOL    HW2 6183   1.004   5.200   0.575
 1873SOL     OW 6184   1.795   4.790   0.873
 1873SOL    HW1 6185   1.733   4.775   0.797
 1873SOL    HW2 6186   1.743   4.801   0.958
 1874SOL     OW 6187   1.227   5.274   1.506
 1874SOL    HW1 6188   1.233   5.197   1.570
 1874SOL    HW2 6189   1.175   5.248   1.426
 1875SOL     OW 6190   0.321   4.667   0.242
 1875SOL    HW1 6191   0.403   4.706   0.200
 1875SOL    HW2 6192   0.294   4.585   0.193
 1876SOL     OW 6193   1.458   4.459   0.728
 1876SOL    HW1 6194   1.453   4.394   0.803
 1876SOL    HW2 6195   1.538   4.518   0.741
 1877SOL     OW 6196   0.461   4.990   1.727
 1877SOL    HW1 6197   0.411   4.991   1.641
 1877SOL    HW2 6198   0.398   4.972   1.803
 1878SOL     OW 6199   1.111   5.500   0.237
 1878SOL    HW1 6200   1.051   5.438   0.287
 1878SOL    HW2 6201   1.142   5.456   0.152
 1879SOL     OW 6202   0.202   4.009   1.498
 1879SOL    HW1 6203   0.122   4.069   1.485
 1879SOL    HW2 6204   0.192   3.960   1.584
 1880SOL     OW 6205   1.632   5.101   0.081
 1880SOL    HW1 6206   1.600   5.195   0.071
 1880SOL    HW2 6207   1.556   5.038   0.069
 1881SOL     OW 6208   1.400   3.831   0.426
 1881SOL    HW1 6209   1.376   3.794   0.336
 1881SOL    HW2 6210   1.499   3.847   0.430
 1882SOL     OW 6211   0.382   4.424   0.480
 1882SOL    HW1 6212   0.427   4.334   0.477
 1882SOL    HW2 6213   0.288   4.413   0.513
 1883SOL     OW 6214   1.547   3.946   1.729
 1883SOL    HW1 6215   1.542   3.983   1.821
 1883SOL    HW2 6216   1.475   3.877   1.717
 1884SOL     OW 6217   0.614   3.846   0.117
 1884SOL    HW1 6218   0.712   3.824   0.124
 1884SOL    HW2 6219   0.583   3.829   0.024
 1885SOL     OW 6220   0.781   3.988   1.749
 1885SOL    HW1 6221   0.848   3.927   1.792
 1885SOL    HW2 6222   0.708   4.007   1.814
 1886SOL     OW 6223   1.351   4.314   1.433
 1886SOL    HW1 6224   1.379   4.271   1.518
 1886SOL    HW2 6225   1.376   4.410   1.434
 1887SOL     OW 6226   0.803   5.126   0.924
 1887SOL    HW1 6227   0.893   5.140   0.882
 1887SOL    HW2 6228   0.732   5.128   0.853
 1888SOL     OW 6229   0.922   4.227   0.899
 1888SOL    HW1 6230   0.897   4.218   0.803
 1888SOL    HW2 6231   0.970   4.145   0.930
 1889SOL     OW 6232   0.539   3.788   0.512
 1889SOL    HW1 6233   0.458   3.789   0.570
 1889SOL    HW2 6234   0.542   3.871   0.457
 1890SOL     OW 6235   1.434   4.912   0.041
 1890SOL    HW1 6236   1.466   4.836   0.098
 1890SOL    HW2 6237   1.342   4.939   0.071
 1891SOL     OW 6238   0.297   3.759   0.171
 1891SOL    HW1 6239   0.346   3.843   0.150
 1891SOL    HW2 6240   0.359   3.694   0.216
 1892SOL     OW 6241   0.935   3.960   0.480
 1892SOL    HW1 6242   0.887   4.001   0.402
 1892SOL    HW2 6243   1.034   3.958   0.461
 1893SOL     OW 6244   1.076   4.407   1.464
 1893SOL    HW1 6245   0.996   4.346   1.467
 1893SOL    HW2 6246   1.157   4.354   1.440
 1894SOL     OW 6247   1.227   5.294   0.793
 1894SOL    HW1 6248   1.248   5.368   0.728
 1894SOL    HW2 6249   1.295   5.294   0.866
 1895SOL     OW 6250   0.459   4.876   0.741
 1895SOL    HW1 6251   0.388   4.849   0.806
 1895SOL    HW2 6252   0.433   4.848   0.648
 1896SOL     OW 6253   1.032   4.273   0.016
 1896SOL    HW1 6254   0.991   4.355  -0.023
 1896SOL    HW2 6255   1.096   4.299   0.089
 1897SOL     OW 6256   0.078   4.280   1.386
 1897SOL    HW1 6257   0.170   4.279   1.345
 1897SOL    HW2 6258   0.072   4.354   1.453
 1898SOL     OW 6259   0.561   3.946   1.147
 1898SOL    HW1 6260   0.599   3.862   1.184
 1898SOL    HW2 6261   0.473   3.965   1.191
 1899SOL     OW 6262   0.866   4.178   0.642
 1899SOL    HW1 6263   0.834   4.250   0.580
 1899SOL    HW2 6264   0.890   4.097   0.589
 1900SOL     OW 6265   1.017   3.763   0.753
 1900SOL    HW1 6266   0.945   3.768   0.684
 1900SOL    HW2 6267   0.993   3.694   0.822
 1901SOL     OW 6268   1.429   4.897   0.867
 1901SOL    HW1 6269   1.374   4.813   0.860
 1901SOL    HW2 6270   1.455   4.926   0.775
 1902SOL     OW 6271   1.466   4.314   0.992
 1902SOL    HW1 6272   1.436   4.219   0.999
 1902SOL    HW2 6273   1.539   4.330   1.058
 1903SOL     OW 6274   1.857   4.557   0.377
 1903SOL    HW1 6275   1.899   4.493   0.441
 1903SOL    HW2 6276   1.819   4.506   0.299
 1904SOL     OW 6277   0.488   5.109   0.174
 1904SOL    HW1 6278   0.401   5.094   0.221
 1904SOL    HW2 6279   0.471   5.135   0.079
 1905SOL     OW 6280   1.664   5.004   0.657
 1905SOL    HW1 6281   1.763   5.012   0.671
 1905SOL    HW2 6282   1.619   5.088   0.688
 1906SOL     OW 6283   1.390   4.299   0.078
 1906SOL    HW1 6284   1.336   4.278   0.159
 1906SOL    HW2 6285   1.481   4.258   0.087
 1907SOL     OW 6286   0.527   3.980   0.328
 1907SOL    HW1 6287   0.554   3.921   0.253
 1907SOL    HW2 6288   0.527   4.075   0.297
 1908SOL     OW 6289   1.754   4.947   1.588
 1908SOL    HW1 6290   1.845   4.908   1.575
 1908SOL    HW2 6291   1.762   5.043   1.612
 1909SOL     OW 6292   1.064   5.071   1.340
 1909SOL    HW1 6293   0.984   5.048   1.395
 1909SOL    HW2 6294   1.147   5.045   1.389
 1910SOL     OW 6295   1.111   4.919   1.100
 1910SOL    HW1 6296   1.071   4.963   1.181
 1910SOL    HW2 6297   1.070   4.956   1.017
 1911SOL     OW 6298   1.638   4.823   1.079
 1911SOL    HW1 6299   1.643   4.904   1.138
 1911SOL    HW2 6300   1.552   4.825   1.028
 1912SOL     OW 6301   0.915   3.813   1.402
 1912SOL    HW1 6302   0.940   3.793   1.307
 1912SOL    HW2 6303   0.987   3.869   1.444
 1913SOL     OW 6304   0.980   4.840   1.719
 1913SOL    HW1 6305   0.881   4.846   1.729
 1913SOL    HW2 6306   1.003   4.760   1.663
 1914SOL     OW 6307   0.705   4.774   0.368
 1914SOL    HW1 6308   0.691   4.781   0.467
 1914SOL    HW2 6309   0.789   4.723   0.350
 1915SOL     OW 6310   0.410   4.537   1.251
 1915SOL    HW1 6311   0.496   4.549   1.301
 1915SOL    HW2 6312   0.368   4.450   1.278
 1916SOL     OW 6313   1.274   4.110   1.262
 1916SOL    HW1 6314   1.295   4.184   1.326
 1916SOL    HW2 6315   1.185   4.127   1.219
 1917SOL     OW 6316   0.064   5.288   1.331
 1917SOL    HW1 6317   0.018   5.370   1.297
 1917SOL    HW2 6318   0.162   5.307   1.340
 1918SOL     OW 6319   0.367   4.824   0.501
 1918SOL    HW1 6320   0.360   4.907   0.445
 1918SOL    HW2 6321   0.371   4.744   0.441
 1919SOL     OW 6322   0.566   4.261   0.865
 1919SOL    HW1 6323   0.578   4.327   0.791
 1919SOL    HW2 6324   0.612   4.295   0.948
 1920SOL     OW 6325   1.252   5.072   0.388
 1920SOL    HW1 6326   1.302   5.149   0.428
 1920SOL    HW2 6327   1.157   5.074   0.420
 1921SOL     OW 6328   1.272   5.169   1.142
 1921SOL    HW1 6329   1.319   5.182   1.229
 1921SOL    HW2 6330   1.206   5.095   1.151
 1922SOL     OW 6331   1.582   4.363   0.472
 1922SOL    HW1 6332   1.551   4.424   0.545
 1922SOL    HW2 6333   1.632   4.415   0.403
 1923SOL     OW 6334   0.354   5.234   1.329
 1923SOL    HW1 6335   0.333   5.190   1.242
 1923SOL    HW2 6336   0.451   5.260   1.332
 1924SOL     OW 6337   0.402   4.475   1.598
 1924SOL    HW1 6338   0.470   4.530   1.551
 1924SOL    HW2 6339   0.442   4.387   1.625
 1925SOL     OW 6340   1.587   4.503   1.670
 1925SOL    HW1 6341   1.495   4.541   1.665
 1925SOL    HW2 6342   1.647   4.550   1.605
 1926SOL     OW 6343   1.013   3.829   1.770
 1926SOL    HW1 6344   1.019   3.914   1.718
 1926SOL    HW2 6345   1.045   3.753   1.713
 1927SOL     OW 6346   0.504   3.774   1.740
 1927SOL    HW1 6347   0.462   3.717   1.670
 1927SOL    HW2 6348   0.438   3.843   1.772
 1928SOL     OW 6349   0.573   4.594   1.029
 1928SOL    HW1 6350   0.617   4.683   1.020
 1928SOL    HW2 6351   0.510   4.594   1.106
 1929SOL     OW 6352   1.360   4.586   1.045
 1929SOL    HW1 6353   1.285   4.586   0.979
 1929SOL    HW2 6354   1.397   4.494   1.054
 1930SOL     OW 6355   1.209   4.249   0.275
 1930SOL    HW1 6356   1.222   4.165   0.329
 1930SOL    HW2 6357   1.180   4.323   0.335
 1931SOL     OW 6358   0.307   3.937   1.231
 1931SOL    HW1 6359   0.284   3.974   1.321
 1931SOL    HW2 6360   0.277   3.842   1.225
 1932SOL     OW 6361   0.037   5.034   1.282
 1932SOL    HW1 6362   0.090   4.985   1.350
 1932SOL    HW2 6363   0.059   5.132   1.287
 1933SOL     OW 6364   0.732   4.358   1.064
 1933SOL    HW1 6365   0.791   4.332   0.988
 1933SOL    HW2 6366   0.704   4.454   1.053
 1934SOL     OW 6367   1.728   4.659   1.854
 1934SOL    HW1 6368   1.682   4.652   1.765
 1934SOL    HW2 6369   1.666   4.703   1.920
 1935SOL     OW 6370   0.307   3.787   0.618
 1935SOL    HW1 6371   0.296   3.881   0.651
 1935SOL    HW2 6372   0.302   3.724   0.695
 1936SOL     OW 6373   1.622   4.091   0.374
 1936SOL    HW1 6374   1.624   4.015   0.438
 1936SOL    HW2 6375   1.574   4.168   0.414
 1937SOL     OW 6376   1.023   4.490   0.966
 1937SOL    HW1 6377   1.038   4.511   1.062
 1937SOL    HW2 6378   0.993   4.395   0.957
 1938SOL     OW 6379   1.859   5.242   1.605
 1938SOL    HW1 6380   1.873   5.269   1.510
 1938SOL    HW2 6381   1.942   5.264   1.658
 1939SOL     OW 6382   0.350   4.622   1.804
 1939SOL    HW1 6383   0.426   4.666   1.852
 1939SOL    HW2 6384   0.385   4.575   1.722
 1940SOL     OW 6385   1.540   3.998   0.125
 1940SOL    HW1 6386   1.479   3.923   0.148
 1940SOL    HW2 6387   1.562   4.050   0.208
 1941SOL     OW 6388   1.303   4.562   0.042
 1941SOL    HW1 6389   1.337   4.469   0.057
 1941SOL    HW2 6390   1.321   4.589  -0.053
 1942SOL     OW 6391   1.068   5.057   0.849
 1942SOL    HW1 6392   1.075   4.973   0.794
 1942SOL    HW2 6393   1.130   5.126   0.813
 1943SOL     OW 6394   0.319   4.534   0.949
 1943SOL    HW1 6395   0.412   4.570   0.954
 1943SOL    HW2 6396   0.313   4.449   1.001
 1944SOL     OW 6397   0.339   4.233   1.006
 1944SOL    HW1 6398   0.287   4.150   0.989
 1944SOL    HW2 6399   0.416   4.238   0.942
 1945SOL     OW 6400   1.138   4.104   1.678
 1945SOL    HW1 6401   1.093   4.167   1.742
 1945SOL    HW2 6402   1.231   4.135   1.661
 1946SOL     OW 6403   1.160   3.931   1.477
 1946SOL    HW1 6404   1.160   3.995   1.554
 1946SOL    HW2 6405   1.188   3.979   1.394
 1947SOL     OW 6406   0.008   5.050   0.200
 1947SOL    HW1 6407  -0.085   5.071   0.169
 1947SOL    HW2 6408   0.018   4.951   0.213
 1948SOL     OW 6409   1.002   4.520   1.238
 1948SOL    HW1 6410   1.043   4.488   1.324
 1948SOL    HW2 6411   0.906   4.493   1.235
 1949SOL     OW 6412   0.040   4.268   1.114
 1949SOL    HW1 6413   0.125   4.235   1.073
 1949SOL    HW2 6414   0.053   4.283   1.212
 1950SOL     OW 6415   0.189   4.244   1.722
 1950SOL    HW1 6416   0.248   4.204   1.652
 1950SOL    HW2 6417   0.131   4.315   1.681
 1951SOL     OW 6418   1.369   4.674   1.660
 1951SOL    HW1 6419   1.408   4.763   1.680
 1951SOL    HW2 6420   1.379   4.654   1.563
 1952SOL     OW 6421   0.815   4.296   0.325
 1952SOL    HW1 6422   0.822   4.207   0.279
 1952SOL    HW2 6423   0.721   4.330   0.317
 1953SOL     OW 6424   1.657   4.328   1.206
 1953SOL    HW1 6425   1.619   4.259   1.268
 1953SOL    HW2 6426   1.739   4.292   1.162
 1954SOL     OW 6427   0.252   5.288   1.744
 1954SOL    HW1 6428   0.222   5.345   1.820
 1954SOL    HW2 6429   0.245   5.191   1.770
 1955SOL     OW 6430   0.671   4.188   1.269
 1955SOL    HW1 6431   0.637   4.099   1.239
 1955SOL    HW2 6432   0.697   4.242   1.189
 1956SOL     OW 6433   0.473   4.224   0.191
 1956SOL    HW1 6434   0.534   4.304   0.195
 1956SOL    HW2 6435   0.378   4.255   0.198
 1957SOL     OW 6436   0.159   4.861   1.466
 1957SOL    HW1 6437   0.181   4.800   1.542
 1957SOL    HW2 6438   0.169   4.812   1.380
 1958SOL     OW 6439   1.347   4.783   1.234
 1958SOL    HW1 6440   1.371   4.720   1.160
 1958SOL    HW2 6441   1.257   4.823   1.216
 1959SOL     OW 6442   1.302   4.579   0.309
 1959SOL    HW1 6443   1.216   4.548   0.351
 1959SOL    HW2 6444   1.298   4.565   0.210
 1960SOL     OW 6445   0.083   4.982   1.022
 1960SOL    HW1 6446   0.078   4.981   1.122
 1960SOL    HW2 6447   0.000   4.941   0.984
 1961SOL     OW 6448   0.688   5.386   1.716
 1961SOL    HW1 6449   0.632   5.467   1.725
 1961SOL    HW2 6450   0.740   5.390   1.630
 1962SOL     OW 6451   0.903   3.810   0.133
 1962SOL    HW1 6452   0.954   3.811   0.047
 1962SOL    HW2 6453   0.959   3.768   0.204
 1963SOL     OW 6454   1.726   3.859   0.523
 1963SOL    HW1 6455   1.799   3.842   0.456
 1963SOL    HW2 6456   1.695   3.772   0.561
 1964SOL     OW 6457   1.280   4.651   0.672
 1964SOL    HW1 6458   1.340   4.570   0.674
 1964SOL    HW2 6459   1.320   4.720   0.612
 1965SOL     OW 6460   0.830   4.997   1.422
 1965SOL    HW1 6461   0.825   5.030   1.517
 1965SOL    HW2 6462   0.744   5.016   1.376
 1966SOL     OW 6463   1.841   3.899   0.963
 1966SOL    HW1 6464   1.880   3.814   0.927
 1966SOL    HW2 6465   1.743   3.901   0.944
 1967SOL     OW 6466   0.263   4.050   0.720
 1967SOL    HW1 6467   0.184   4.101   0.686
 1967SOL    HW2 6468   0.254   4.035   0.818
 1968SOL     OW 6469   1.194   5.336   0.031
 1968SOL    HW1 6470   1.200   5.243   0.068
 1968SOL    HW2 6471   1.135   5.336  -0.049
 1969SOL     OW 6472   0.822   4.726   1.372
 1969SOL    HW1 6473   0.862   4.725   1.280
 1969SOL    HW2 6474   0.832   4.818   1.412
 1970SOL     OW 6475   0.916   4.634   0.291
 1970SOL    HW1 6476   0.979   4.672   0.223
 1970SOL    HW2 6477   0.956   4.551   0.330
 1971SOL     OW 6478   0.372   5.012   1.490
 1971SOL    HW1 6479   0.359   5.105   1.456
 1971SOL    HW2 6480   0.288   4.960   1.477
 1972SOL     OW 6481   1.614   5.016   1.289
 1972SOL    HW1 6482   1.674   5.019   1.369
 1972SOL    HW2 6483   1.539   5.080   1.302
 1973SOL     OW 6484   1.039   4.822   0.696
 1973SOL    HW1 6485   0.969   4.775   0.750
 1973SOL    HW2 6486   1.098   4.754   0.653
 1974SOL     OW 6487   1.014   3.960   0.971
 1974SOL    HW1 6488   1.006   3.924   0.878
 1974SOL    HW2 6489   1.012   3.884   1.036
 1975SOL     OW 6490   1.709   4.109   1.381
 1975SOL    HW1 6491   1.782   4.178   1.385
 1975SOL    HW2 6492   1.737   4.034   1.322
 1976SOL     OW 6493   0.255   5.072   0.290
 1976SOL    HW1 6494   0.159   5.073   0.263
 1976SOL    HW2 6495   0.267   5.125   0.374
 1977SOL     OW 6496   0.105   4.737   1.726
 1977SOL    HW1 6497   0.028   4.704   1.780
 1977SOL    HW2 6498   0.190   4.707   1.768
 1978SOL     OW 6499   0.672   3.927   1.489
 1978SOL    HW1 6500   0.762   3.911   1.449
 1978SOL    HW2 6501   0.680   3.932   1.588
 1979SOL     OW 6502   0.075   4.069   0.033
 1979SOL    HW1 6503  -0.017   4.041   0.004
 1979SOL    HW2 6504   0.106   4.146  -0.023
 1980SOL     OW 6505   1.440   4.580   1.398
 1980SOL    HW1 6506   1.383   4.632   1.335
 1980SOL    HW2 6507   1.536   4.592   1.374
 1981SOL     OW 6508   0.072   3.890   0.318
 1981SOL    HW1 6509   0.055   3.973   0.264
 1981SOL    HW2 6510   0.162   3.853   0.296
 1982SOL     OW 6511   1.183   5.059   0.119
 1982SOL    HW1 6512   1.084   5.048   0.121
 1982SOL    HW2 6513   1.217   5.074   0.212
 1983SOL     OW 6514   0.613   4.566   1.431
 1983SOL    HW1 6515   0.669   4.647   1.414
 1983SOL    HW2 6516   0.672   4.486   1.434
 1984SOL     OW 6517   0.716   4.289   1.708
 1984SOL    HW1 6518   0.735   4.354   1.782
 1984SOL    HW2 6519   0.776   4.209   1.717
 1985SOL     OW 6520   1.450   4.944   1.633
 1985SOL    HW1 6521   1.441   4.934   1.732
 1985SOL    HW2 6522   1.546   4.937   1.607
 1986SOL     OW 6523   1.674   4.607   1.254
 1986SOL    HW1 6524   1.647   4.518   1.217
 1986SOL    HW2 6525   1.675   4.675   1.181
 1987SOL     OW 6526   1.225   4.049   0.449
 1987SOL    HW1 6527   1.290   3.975   0.438
 1987SOL    HW2 6528   1.245   4.099   0.533
 1988SOL     OW 6529   0.594   4.469   0.652
 1988SOL    HW1 6530   0.644   4.554   0.633
 1988SOL    HW2 6531   0.506   4.471   0.604
 1989SOL     OW 6532   1.777   4.066   1.642
 1989SOL    HW1 6533   1.760   4.097   1.548
 1989SOL    HW2 6534   1.693   4.029   1.680
 1990SOL     OW 6535   1.730   4.658   1.517
 1990SOL    HW1 6536   1.768   4.749   1.532
 1990SOL    HW2 6537   1.722   4.641   1.418
 1991SOL     OW 6538   0.859   5.098   0.016
 1991SOL    HW1 6539   0.813   5.113   0.104
 1991SOL    HW2 6540   0.903   5.183  -0.014
 1992SOL     OW 6541   0.859   4.680   0.861
 1992SOL    HW1 6542   0.913   4.611   0.909
 1992SOL    HW2 6543   0.827   4.749   0.927
 1993SOL     OW 6544   1.083   4.708   0.087
 1993SOL    HW1 6545   1.060   4.761   0.005
 1993SOL    HW2 6546   1.164   4.652   0.068
 1994SOL     OW 6547   0.221   5.038   1.844
 1994SOL    HW1 6548   0.156   4.965   1.823
 1994SOL    HW2 6549   0.225   5.052   1.942
 1995SOL     OW 6550   0.079   4.964   0.653
 1995SOL    HW1 6551   0.078   4.917   0.741
 1995SOL    HW2 6552   0.161   4.936   0.602
 1996SOL     OW 6553   0.672   5.115   1.624
 1996SOL    HW1 6554   0.594   5.065   1.662
 1996SOL    HW2 6555   0.669   5.210   1.655
 1997SOL     OW 6556   1.824   3.916   1.227
 1997SOL    HW1 6557   1.820   3.826   1.271
 1997SOL    HW2 6558   1.827   3.905   1.128
 1998SOL     OW 6559   0.428   4.148   0.520
 1998SOL    HW1 6560   0.458   4.076   0.458
 1998SOL    HW2 6561   0.389   4.108   0.603
 1999SOL     OW 6562   1.705   5.211   1.104
 1999SOL    HW1 6563   1.612   5.186   1.077
 1999SOL    HW2 6564   1.731   5.161   1.186
 2000SOL     OW 6565   0.317   4.271   1.280
 2000SOL    HW1 6566   0.355   4.212   1.352
 2000SOL    HW2 6567   0.357   4.245   1.192
 2001SOL     OW 6568   1.424   3.938   1.112
 2001SOL    HW1 6569   1.476   3.873   1.167
 2001SOL    HW2 6570   1.375   4.001   1.173
 2002SOL     OW 6571   1.001   3.758   1.154
 2002SOL    HW1 6572   0.938   3.686   1.123
 2002SOL    HW2 6573   1.094   3.722   1.154
 2003SOL     OW 6574   0.770   5.054   0.301
 2003SOL    HW1 6575   0.724   4.967   0.318
 2003SOL    HW2 6576   0.861   5.051   0.342
 2004SOL     OW 6577   0.618   5.291   1.284
 2004SOL    HW1 6578   0.613   5.373   1.341
 2004SOL    HW2 6579   0.707   5.288   1.239
 2005SOL     OW 6580   1.352   3.776   0.168
 2005SOL    HW1 6581   1.387   3.735   0.084
 2005SOL    HW2 6582   1.262   3.738   0.188
 2006SOL     OW 6583   1.300   4.177   0.691
 2006SOL    HW1 6584   1.241   4.257   0.695
 2006SOL    HW2 6585   1.315   4.142   0.784
 2007SOL     OW 6586   1.593   3.945   0.882
 2007SOL    HW1 6587   1.509   3.944   0.936
 2007SOL    HW2 6588   1.595   4.028   0.826
 2008SOL     OW 6589   0.039   4.801   0.300
 2008SOL    HW1 6590   0.138   4.790   0.291
 2008SOL    HW2 6591  -0.001   4.715   0.332
 2009SOL     OW 6592   0.230   4.352   1.975
 2009SOL    HW1 6593   0.137   4.350   2.012
 2009SOL    HW2 6594   0.231   4.313   1.883
 2010SOL     OW 6595   0.225   3.999   2.858
 2010SOL    HW1 6596   0.260   3.982   2.950
 2010SOL    HW2 6597   0.137   3.954   2.846
 2011SOL     OW 6598   0.019   4.092   2.509
 2011SOL    HW1 6599  -0.063   4.135   2.548
 2011SOL    HW2 6600  -0.009   4.019   2.446
 2012SOL     OW 6601   0.569   4.999   3.027
 2012SOL    HW1 6602   0.476   4.992   2.990
 2012SOL    HW2 6603   0.580   5.088   3.071
 2013SOL     OW 6604   1.555   5.235   2.565
 2013SOL    HW1 6605   1.498   5.219   2.646
 2013SOL    HW2 6606   1.496   5.245   2.485
 2014SOL     OW 6607   1.135   4.427   2.579
 2014SOL    HW1 6608   1.192   4.505   2.554
 2014SOL    HW2 6609   1.075   4.453   2.655
 2015SOL     OW 6610   1.755   4.331   2.093
 2015SOL    HW1 6611   1.743   4.318   1.994
 2015SOL    HW2 6612   1.725   4.250   2.142
 2016SOL     OW 6613   0.768   4.868   2.885
 2016SOL    HW1 6614   0.690   4.885   2.945
 2016SOL    HW2 6615   0.802   4.955   2.849
 2017SOL     OW 6616   0.850   4.522   3.685
 2017SOL    HW1 6617   0.846   4.598   3.750
 2017SOL    HW2 6618   0.872   4.558   3.594
 2018SOL     OW 6619   0.685   4.736   2.527
 2018SOL    HW1 6620   0.754   4.720   2.597
 2018SOL    HW2 6621   0.612   4.793   2.565
 2019SOL     OW 6622   0.686   4.885   3.665
 2019SOL    HW1 6623   0.746   4.964   3.679
 2019SOL    HW2 6624   0.600   4.916   3.624
 2020SOL     OW 6625   0.335   5.159   2.923
 2020SOL    HW1 6626   0.257   5.128   2.870
 2020SOL    HW2 6627   0.393   5.217   2.866
 2021SOL     OW 6628   1.460   5.229   3.201
 2021SOL    HW1 6629   1.484   5.323   3.227
 2021SOL    HW2 6630   1.444   5.175   3.283
 2022SOL     OW 6631   0.438   4.116   3.361
 2022SOL    HW1 6632   0.520   4.060   3.370
 2022SOL    HW2 6633   0.357   4.058   3.365
 2023SOL     OW 6634   1.603   4.171   2.599
 2023SOL    HW1 6635   1.529   4.217   2.549
 2023SOL    HW2 6636   1.654   4.239   2.652
 2024SOL     OW 6637   1.127   5.065   3.552
 2024SOL    HW1 6638   1.174   5.065   3.640
 2024SOL    HW2 6639   1.079   4.978   3.541
 2025SOL     OW 6640   0.230   5.158   2.400
 2025SOL    HW1 6641   0.204   5.254   2.400
 2025SOL    HW2 6642   0.159   5.104   2.445
 2026SOL     OW 6643   0.240   4.815   2.748
 2026SOL    HW1 6644   0.254   4.731   2.800
 2026SOL    HW2 6645   0.185   4.879   2.803
 2027SOL     OW 6646   0.606   4.688   1.985
 2027SOL    HW1 6647   0.613   4.772   1.931
 2027SOL    HW2 6648   0.652   4.701   2.073
 2028SOL     OW 6649   1.594   3.838   3.342
 2028SOL    HW1 6650   1.576   3.905   3.270
 2028SOL    HW2 6651   1.591   3.884   3.431
 2029SOL     OW 6652   0.122   4.367   2.425
 2029SOL    HW1 6653   0.077   4.279   2.442
 2029SOL    HW2 6654   0.121   4.421   2.509
 2030SOL     OW 6655   0.027   5.320   1.979
 2030SOL    HW1 6656   0.008   5.224   2.000
 2030SOL    HW2 6657  -0.006   5.378   2.054
 2031SOL     OW 6658   1.689   4.646   2.474
 2031SOL    HW1 6659   1.784   4.617   2.482
 2031SOL    HW2 6660   1.681   4.711   2.399
 2032SOL     OW 6661   1.641   4.832   2.294
 2032SOL    HW1 6662   1.727   4.834   2.242
 2032SOL    HW2 6663   1.655   4.879   2.382
 2033SOL     OW 6664   0.113   4.461   3.459
 2033SOL    HW1 6665   0.201   4.448   3.504
 2033SOL    HW2 6666   0.100   4.558   3.437
 2034SOL     OW 6667   0.613   5.089   2.588
 2034SOL    HW1 6668   0.564   5.002   2.597
 2034SOL    HW2 6669   0.590   5.132   2.501
 2035SOL     OW 6670   1.293   4.952   3.285
 2035SOL    HW1 6671   1.330   4.879   3.227
 2035SOL    HW2 6672   1.345   4.957   3.370
 2036SOL     OW 6673   0.809   3.728   2.364
 2036SOL    HW1 6674   0.849   3.819   2.355
 2036SOL    HW2 6675   0.709   3.736   2.370
 2037SOL     OW 6676   0.197   4.700   3.126
 2037SOL    HW1 6677   0.286   4.655   3.112
 2037SOL    HW2 6678   0.124   4.635   3.107
 2038SOL     OW 6679   1.525   4.723   2.052
 2038SOL    HW1 6680   1.462   4.647   2.065
 2038SOL    HW2 6681   1.573   4.741   2.138
 2039SOL     OW 6682   0.317   3.975   3.663
 2039SOL    HW1 6683   0.388   4.046   3.669
 2039SOL    HW2 6684   0.229   4.014   3.691
 2040SOL     OW 6685   1.466   5.141   2.815
 2040SOL    HW1 6686   1.407   5.147   2.895
 2040SOL    HW2 6687   1.451   5.053   2.769
 2041SOL     OW 6688   0.598   4.453   2.132
 2041SOL    HW1 6689   0.622   4.522   2.064
 2041SOL    HW2 6690   0.520   4.486   2.186
 2042SOL     OW 6691   1.281   4.069   2.806
 2042SOL    HW1 6692   1.195   4.019   2.793
 2042SOL    HW2 6693   1.343   4.015   2.862
 2043SOL     OW 6694   0.807   4.329   3.327
 2043SOL    HW1 6695   0.760   4.326   3.416
 2043SOL    HW2 6696   0.756   4.274   3.261
 2044SOL     OW 6697   1.394   4.193   3.536
 2044SOL    HW1 6698   1.374   4.236   3.624
 2044SOL    HW2 6699   1.472   4.131   3.545
 2045SOL     OW 6700   0.973   4.614   3.434
 2045SOL    HW1 6701   1.019   4.530   3.405
 2045SOL    HW2 6702   0.917   4.648   3.359
 2046SOL     OW 6703   0.991   4.134   3.104
 2046SOL    HW1 6704   0.914   4.168   3.158
 2046SOL    HW2 6705   0.957   4.083   3.025
 2047SOL     OW 6706   1.041   4.425   2.291
 2047SOL    HW1 6707   1.067   4.421   2.387
 2047SOL    HW2 6708   0.956   4.374   2.277
 2048SOL     OW 6709   0.076   4.535   2.651
 2048SOL    HW1 6710   0.175   4.523   2.660
 2048SOL    HW2 6711   0.052   4.630   2.672
 2049SOL     OW 6712   0.865   4.072   2.057
 2049SOL    HW1 6713   0.924   4.135   2.008
 2049SOL    HW2 6714   0.884   3.978   2.028
 2050SOL     OW 6715   1.719   4.309   3.693
 2050SOL    HW1 6716   1.693   4.398   3.657
 2050SOL    HW2 6717   1.717   4.241   3.620
 2051SOL     OW 6718   1.362   4.868   2.407
 2051SOL    HW1 6719   1.445   4.839   2.359
 2051SOL    HW2 6720   1.313   4.935   2.351
 2052SOL     OW 6721   0.550   3.920   2.747
 2052SOL    HW1 6722   0.545   3.915   2.847
 2052SOL    HW2 6723   0.552   4.016   2.718
 2053SOL     OW 6724   1.008   5.180   2.339
 2053SOL    HW1 6725   0.962   5.252   2.287
 2053SOL    HW2 6726   1.004   5.200   2.437
 2054SOL     OW 6727   1.795   4.790   2.735
 2054SOL    HW1 6728   1.733   4.775   2.659
 2054SOL    HW2 6729   1.743   4.801   2.820
 2055SOL     OW 6730   1.227   5.274   3.368
 2055SOL    HW1 6731   1.233   5.197   3.432
 2055SOL    HW2 6732   1.175   5.248   3.288
 2056SOL     OW 6733   0.321   4.667   2.104
 2056SOL    HW1 6734   0.403   4.706   2.062
 2056SOL    HW2 6735   0.294   4.585   2.055
 2057SOL     OW 6736   1.458   4.459   2.590
 2057SOL    HW1 6737   1.453   4.394   2.665
 2057SOL    HW2 6738   1.538   4.518   2.603
 2058SOL     OW 6739   0.461   4.990   3.589
 2058SOL    HW1 6740   0.411   4.991   3.503
 2058SOL    HW2 6741   0.398   4.972   3.665
 2059SOL     OW 6742   1.111   5.500   2.099
 2059SOL    HW1 6743   1.051   5.438   2.149
 2059SOL    HW2 6744   1.142   5.456   2.014
 2060SOL     OW 6745   0.202   4.009   3.360
 2060SOL    HW1 6746   0.122   4.069   3.347
 2060SOL    HW2 6747   0.192   3.960   3.446
 2061SOL     OW 6748   1.632   5.101   1.943
 2061SOL    HW1 6749   1.600   5.195   1.933
 2061SOL    HW2 6750   1.556   5.038   1.931
 2062SOL     OW 6751   1.400   3.831   2.288
 2062SOL    HW1 6752   1.376   3.794   2.198
 2062SOL    HW2 6753   1.499   3.847   2.292
 2063SOL     OW 6754   0.382   4.424   2.342
 2063SOL    HW1 6755   0.427   4.334   2.339
 2063SOL    HW2 6756   0.288   4.413   2.375
 2064SOL     OW 6757   1.547   3.946   3.591
 2064SOL    HW1 6758   1.542   3.983   3.683
 2064SOL    HW2 6759   1.475   3.877   3.579
 2065SOL     OW 6760   0.614   3.846   1.979
 2065SOL    HW1 6761   0.712   3.824   1.986
 2065SOL    HW2 6762   0.583   3.829   1.886
 2066SOL     OW 6763   0.781   3.988   3.611
 2066SOL    HW1 6764   0.848   3.927   3.654
 2066SOL    HW2 6765   0.708   4.007   3.676
 2067SOL     OW 6766   1.351   4.314   3.295
 2067SOL    HW1 6767   1.379   4.271   3.380
 2067SOL    HW2 6768   1.376   4.410   3.296
 2068SOL     OW 6769   0.803   5.126   2.786
 2068SOL    HW1 6770   0.893   5.140   2.744
 2068SOL    HW2 6771   0.732   5.128   2.715
 2069SOL     OW 6772   0.922   4.227   2.761
 2069SOL    HW1 6773   0.897   4.218   2.665
 2069SOL    HW2 6774   0.970   4.145   2.792
 2070SOL     OW 6775   0.539   3.788   2.374
 2070SOL    HW1 6776   0.458   3.789   2.432
 2070SOL    HW2 6777   0.542   3.871   2.319
 2071SOL     OW 6778   1.434   4.912   1.903
 2071SOL    HW1 6779   1.466   4.836   1.960
 2071SOL    HW2 6780   1.342   4.939   1.933
 2072SOL     OW 6781   0.297   3.759   2.033
 2072SOL    HW1 6782   0.346   3.843   2.012
 2072SOL    HW2 6783   0.359   3.694   2.078
 2073SOL     OW 6784   0.935   3.960   2.342
 2073SOL    HW1 6785   0.887   4.001   2.264
 2073SOL    HW2 6786   1.034   3.958   2.323
 2074SOL     OW 6787   1.076   4.407   3.326
 2074SOL    HW1 6788   0.996   4.346   3.329
 2074SOL    HW2 6789   1.157   4.354   3.302
 2075SOL     OW 6790   1.227   5.294   2.655
 2075SOL    HW1 6791   1.248   5.368   2.590
 2075SOL    HW2 6792   1.295   5.294   2.728
 2076SOL     OW 6793   0.459   4.876   2.603
 2076SOL    HW1 6794   0.388   4.849   2.668
 2076SOL    HW2 6795   0.433   4.848   2.510
 2077SOL     OW 6796   1.032   4.273   1.878
 2077SOL    HW1 6797   0.991   4.355   1.839
 2077SOL    HW2 6798   1.096   4.299   1.951
 2078SOL     OW 6799   0.078   4.280   3.248
 2078SOL    HW1 6800   0.170   4.279   3.207
 2078SOL    HW2 6801   0.072   4.354   3.315
 2079SOL     OW 6802   0.561   3.946   3.009
 2079SOL    HW1 6803   0.599   3.862   3.046
 2079SOL    HW2 6804   0.473   3.965   3.053
 2080SOL     OW 6805   0.866   4.178   2.504
 2080SOL    HW1 6806   0.834   4.250   2.442
 2080SOL    HW2 6807   0.890   4.097   2.451
 2081SOL     OW 6808   1.017   3.763   2.615
 2081SOL    HW1 6809   0.945   3.768   2.546
 2081SOL    HW2 6810   0.993   3.694   2.684
 2082SOL     OW 6811   1.429   4.897   2.729
 2082SOL    HW1 6812   1.374   4.813   2.722
 2082SOL    HW2 6813   1.455   4.926   2.637
 2083SOL     OW 6814   1.466   4.314   2.854
 2083SOL    HW1 6815   1.436   4.219   2.861
 2083SOL    HW2 6816   1.539   4.330   2.920
 2084SOL     OW 6817   1.857   4.557   2.239
 2084SOL    HW1 6818   1.899   4.493   2.303
 2084SOL    HW2 6819   1.819   4.506   2.161
 2085SOL     OW 6820   0.488   5.109   2.036
 2085SOL    HW1 6821   0.401   5.094   2.083
 2085SOL    HW2 6822   0.471   5.135   1.941
 2086SOL     OW 6823   1.664   5.004   2.519
 2086SOL    HW1 6824   1.763   5.012   2.533
 2086SOL    HW2 6825   1.619   5.088   2.550
 2087SOL     OW 6826   1.390   4.299   1.940
 2087SOL    HW1 6827   1.336   4.278   2.021
 2087SOL    HW2 6828   1.481   4.258   1.949
 2088SOL     OW 6829   0.527   3.980   2.190
 2088SOL    HW1 6830   0.554   3.921   2.115
 2088SOL    HW2 6831   0.527   4.075   2.159
 2089SOL     OW 6832   1.754   4.947   3.450
 2089SOL    HW1 6833   1.845   4.908   3.437
 2089SOL    HW2 6834   1.762   5.043   3.474
 2090SOL     OW 6835   1.064   5.071   3.202
 2090SOL    HW1 6836   0.984   5.048   3.257
 2090SOL    HW2 6837   1.147   5.045   3.251
 2091SOL     OW 6838   1.111   4.919   2.962
 2091SOL    HW1 6839   1.071   4.963   3.043
 2091SOL    HW2 6840   1.070   4.956   2.879
 2092SOL     OW 6841   1.638   4.823   2.941
 2092SOL    HW1 6842   1.643   4.904   3.000
 2092SOL    HW2 6843   1.552   4.825   2.890
 2093SOL     OW 6844   0.915   3.813   3.264
 2093SOL    HW1 6845   0.940   3.793   3.169
 2093SOL    HW2 6846   0.987   3.869   3.306
 2094SOL     OW 6847   0.980   4.840   3.581
 2094SOL    HW1 6848   0.881   4.846   3.591
 2094SOL    HW2 6849   1.003   4.760   3.525
 2095SOL     OW 6850   0.705   4.774   2.230
 2095SOL    HW1 6851   0.691   4.781   2.329
 2095SOL    HW2 6852   0.789   4.723   2.212
 2096SOL     OW 6853   0.410   4.537   3.113
 2096SOL    HW1 6854   0.496   4.549   3.163
 2096SOL    HW2 6855   0.368   4.450   3.140
 2097SOL     OW 6856   1.274   4.110   3.124
 2097SOL    HW1 6857   1.295   4.184   3.188
 2097SOL    HW2 6858   1.185   4.127   3.081
 2098SOL     OW 6859   0.064   5.288   3.193
 2098SOL    HW1 6860   0.018   5.370   3.159
 2098SOL    HW2 6861   0.162   5.307   3.202
 2099SOL     OW 6862   0.367   4.824   2.363
 2099SOL    HW1 6863   0.360   4.907   2.307
 2099SOL    HW2 6864   0.371   4.744   2.303
 2100SOL     OW 6865   0.566   4.261   2.727
 2100SOL    HW1 6866   0.578   4.327   2.653
 2100SOL    HW2 6867   0.612   4.295   2.810
 2101SOL     OW 6868   1.252   5.072   2.250
 2101SOL    HW1 6869   1.302   5.149   2.290
 2101SOL    HW2 6870   1.157   5.074   2.282
 2102SOL     OW 6871   1.272   5.169   3.004
 2102SOL    HW1 6872   1.319   5.182   3.091
 2102SOL    HW2 6873   1.206   5.095   3.013
 2103SOL     OW 6874   1.582   4.363   2.334
 2103SOL    HW1 6875   1.551   4.424   2.407
 2103SOL    HW2 6876   1.632   4.415   2.265
 2104SOL     OW 6877   0.354   5.234   3.191
 2104SOL    HW1 6878   0.333   5.190   3.104
 2104SOL    HW2 6879   0.451   5.260   3.194
 2105SOL     OW 6880   0.402   4.475   3.460
 2105SOL    HW1 6881   0.470   4.530   3.413
 2105SOL    HW2 6882   0.442   4.387   3.487
 2106SOL     OW 6883   1.587   4.503   3.532
 2106SOL    HW1 6884   1.495   4.541   3.527
 2106SOL    HW2 6885   1.647   4.550   3.467
 2107SOL     OW 6886   1.013   3.829   3.632
 2107SOL    HW1 6887   1.019   3.914   3.580
 2107SOL    HW2 6888   1.045   3.753   3.575
 2108SOL     OW 6889   0.504   3.774   3.602
 2108SOL    HW1 6890   0.462   3.717   3.532
 2108SOL    HW2 6891   0.438   3.843   3.634
 2109SOL     OW 6892   0.573   4.594   2.891
 2109SOL    HW1 6893   0.617   4.683   2.882
 2109SOL    HW2 6894   0.510   4.594   2.968
 2110SOL     OW 6895   1.360   4.586   2.907
 2110SOL    HW1 6896   1.285   4.586   2.841
 2110SOL    HW2 6897   1.397   4.494   2.916
 2111SOL     OW 6898   1.209   4.249   2.137
 2111SOL    HW1 6899   1.222   4.165   2.191
 2111SOL    HW2 6900   1.180   4.323   2.197
 2112SOL     OW 6901   0.307   3.937   3.093
 2112SOL    HW1 6902   0.284   3.974   3.183
 2112SOL    HW2 6903   0.277   3.842   3.087
 2113SOL     OW 6904   0.037   5.034   3.144
 2113SOL    HW1 6905   0.090   4.985   3.212
 2113SOL    HW2 6906   0.059   5.132   3.149
 2114SOL     OW 6907   0.732   4.358   2.926
 2114SOL    HW1 6908   0.791   4.332   2.850
 2114SOL    HW2 6909   0.704   4.454   2.915
 2115SOL     OW 6910   1.728   4.659   3.716
 2115SOL    HW1 6911   1.682   4.652   3.627
 2115SOL    HW2 6912   1.666   4.703   3.782
 2116SOL     OW 6913   0.307   3.787   2.480
 2116SOL    HW1 6914   0.296   3.881   2.513
 2116SOL    HW2 6915   0.302   3.724   2.557
 2117SOL     OW 6916   1.622   4.091   2.236
 2117SOL    HW1 6917   1.624   4.015   2.300
 2117SOL    HW2 6918   1.574   4.168   2.276
 2118SOL     OW 6919   1.023   4.490   2.828
 2118SOL    HW1 6920   1.038   4.511   2.924
 2118SOL    HW2 6921   0.993   4.395   2.819
 2119SOL     OW 6922   1.859   5.242   3.467
 2119SOL    HW1 6923   1.873   5.269   3.372
 2119SOL    HW2 6924   1.942   5.264   3.520
 2120SOL     OW 6925   0.350   4.622   3.666
 2120SOL    HW1 6926   0.426   4.666   3.714
 2120SOL    HW2 6927   0.385   4.575   3.584
 2121SOL     OW 6928   1.540   3.998   1.987
 2121SOL    HW1 6929   1.479   3.923   2.010
 2121SOL    HW2 6930   1.562   4.050   2.070
 2122SOL     OW 6931   1.303   4.562   1.904
 2122SOL    HW1 6932   1.337   4.469   1.919
 2122SOL    HW2 6933   1.321   4.589   1.809
 2123SOL     OW 6934   1.068   5.057   2.711
 2123SOL    HW1 6935   1.075   4.973   2.656
 2123SOL    HW2 6936   1.130   5.126   2.675
 2124SOL     OW 6937   0.319   4.534   2.811
 2124SOL    HW1 6938   0.412   4.570   2.816
 2124SOL    HW2 6939   0.313   4.449   2.863
 2125SOL     OW 6940   0.339   4.233   2.868
 2125SOL    HW1 6941   0.287   4.150   2.851
 2125SOL    HW2 6942   0.416   4.238   2.804
 2126SOL     OW 6943   1.138   4.104   3.540
 2126SOL    HW1 6944   1.093   4.167   3.604
 2126SOL    HW2 6945   1.231   4.135   3.523
 2127SOL     OW 6946   1.160   3.931   3.339
 2127SOL    HW1 6947   1.160   3.995   3.416
 2127SOL    HW2 6948   1.188   3.979   3.256
 2128SOL     OW 6949   0.008   5.050   2.062
 2128SOL    HW1 6950  -0.085   5.071   2.031
 2128SOL    HW2 6951   0.018   4.951   2.075
 2129SOL     OW 6952   1.002   4.520   3.100
 2129SOL    HW1 6953   1.043   4.488   3.186
 2129SOL    HW2 6954   0.906   4.493   3.097
 2130SOL     OW 6955   0.040   4.268   2.976
 2130SOL    HW1 6956   0.125   4.235   2.935
 2130SOL    HW2 6957   0.053   4.283   3.074
 2131SOL     OW 6958   0.189   4.244   3.584
 2131SOL    HW1 6959   0.248   4.204   3.514
 2131SOL    HW2 6960   0.131   4.315   3.543
 2132SOL     OW 6961   1.369   4.674   3.522
 2132SOL    HW1 6962   1.408   4.763   3.542
 2132SOL    HW2 6963   1.379   4.654   3.425
 2133SOL     OW 6964   0.815   4.296   2.187
 2133SOL    HW1 6965   0.822   4.207   2.141
 2133SOL    HW2 6966   0.721   4.330   2.179
 2134SOL     OW 6967   1.657   4.328   3.068
 2134SOL    HW1 6968   1.619   4.259   3.130
 2134SOL    HW2 6969   1.739   4.292   3.024
 2135SOL     OW 6970   0.252   5.288   3.606
 2135SOL    HW1 6971   0.222   5.345   3.682
 2135SOL    HW2 6972   0.245   5.191   3.632
 2136SOL     OW 6973   0.671   4.188   3.131
 2136SOL    HW1 6974   0.637   4.099   3.101
 2136SOL    HW2 6975   0.697   4.242   3.051
 2137SOL     OW 6976   0.473   4.224   2.053
 2137SOL    HW1 6977   0.534   4.304   2.057
 2137SOL    HW2 6978   0.378   4.255   2.060
 2138SOL     OW 6979   0.159   4.861   3.328
 2138SOL    HW1 6980   0.181   4.800   3.404
 2138SOL    HW2 6981   0.169   4.812   3.242
 2139SOL     OW 6982   1.347   4.783   3.096
 2139SOL    HW1 6983   1.371   4.720   3.022
 2139SOL    HW2 6984   1.257   4.823   3.078
 2140SOL     OW 6985   1.302   4.579   2.171
 2140SOL    HW1 6986   1.216   4.548   2.213
 2140SOL    HW2 6987   1.298   4.565   2.072
 2141SOL     OW 6988   0.083   4.982   2.884
 2141SOL    HW1 6989   0.078   4.981   2.984
 2141SOL    HW2 6990   0.000   4.941   2.846
 2142SOL     OW 6991   0.688   5.386   3.578
 2142SOL    HW1 6992   0.632   5.467   3.587
 2142SOL    HW2 6993   0.740   5.390   3.492
 2143SOL     OW 6994   1.726   3.859   2.385
 2143SOL    HW1 6995   1.799   3.842   2.318
 2143SOL    HW2 6996   1.695   3.772   2.423
 2144SOL     OW 6997   1.280   4.651   2.534
 2144SOL    HW1 6998   1.340   4.570   2.536
 2144SOL    HW2 6999   1.320   4.720   2.474
 2145SOL     OW 7000   0.830   4.997   3.284
 2145SOL    HW1 7001   0.825   5.030   3.379
 2145SOL    HW2 7002   0.744   5.016   3.238
 2146SOL     OW 7003   1.841   3.899   2.825
 2146SOL    HW1 7004   1.880   3.814   2.789
 2146SOL    HW2 7005   1.743   3.901   2.806
 2147SOL     OW 7006   0.263   4.050   2.582
 2147SOL    HW1 7007   0.184   4.101   2.548
 2147SOL    HW2 7008   0.254   4.035   2.680
 2148SOL     OW 7009   0.822   4.726   3.234
 2148SOL    HW1 7010   0.862   4.725   3.142
 2148SOL    HW2 7011   0.832   4.818   3.274
 2149SOL     OW 7012   0.916   4.634   2.153
 2149SOL    HW1 7013   0.979   4.672   2.085
 2149SOL    HW2 7014   0.956   4.551   2.192
 2150SOL     OW 7015   0.372   5.012   3.352
 2150SOL    HW1 7016   0.359   5.105   3.318
 2150SOL    HW2 7017   0.288   4.960   3.339
 2151SOL     OW 7018   1.614   5.016   3.151
 2151SOL    HW1 7019   1.674   5.019   3.231
 2151SOL    HW2 7020   1.539   5.080   3.164
 2152SOL     OW 7021   1.039   4.822   2.558
 2152SOL    HW1 7022   0.969   4.775   2.612
 2152SOL    HW2 7023   1.098   4.754   2.515
 2153SOL     OW 7024   1.014   3.960   2.833
 2153SOL    HW1 7025   1.006   3.924   2.740
 2153SOL    HW2 7026   1.012   3.884   2.898
 2154SOL     OW 7027   1.709   4.109   3.243
 2154SOL    HW1 7028   1.782   4.178   3.247
 2154SOL    HW2 7029   1.737   4.034   3.184
 2155SOL     OW 7030   0.255   5.072   2.152
 2155SOL    HW1 7031   0.159   5.073   2.125
 2155SOL    HW2 7032   0.267   5.125   2.236
 2156SOL     OW 7033   0.105   4.737   3.588
 2156SOL    HW1 7034   0.028   4.704   3.642
 2156SOL    HW2 7035   0.190   4.707   3.630
 2157SOL     OW 7036   0.672   3.927   3.351
 2157SOL    HW1 7037   0.762   3.911   3.311
 2157SOL    HW2 7038   0.680   3.932   3.450
 2158SOL     OW 7039   0.075   4.069   1.895
 2158SOL    HW1 7040  -0.017   4.041   1.866
 2158SOL    HW2 7041   0.106   4.146   1.839
 2159SOL     OW 7042   1.440   4.580   3.260
 2159SOL    HW1 7043   1.383   4.632   3.197
 2159SOL    HW2 7044   1.536   4.592   3.236
 2160SOL     OW 7045   0.072   3.890   2.180
 2160SOL    HW1 7046   0.055   3.973   2.126
 2160SOL    HW2 7047   0.162   3.853   2.158
 2161SOL     OW 7048   1.183   5.059   1.981
 2161SOL    HW1 7049   1.084   5.048   1.983
 2161SOL    HW2 7050   1.217   5.074   2.074
 2162SOL     OW 7051   0.613   4.566   3.293
 2162SOL    HW1 7052   0.669   4.647   3.276
 2162SOL    HW2 7053   0.672   4.486   3.296
 2163SOL     OW 7054   0.716   4.289   3.570
 2163SOL    HW1 7055   0.735   4.354   3.644
 2163SOL    HW2 7056   0.776   4.209   3.579
 2164SOL     OW 7057   1.450   4.944   3.495
 2164SOL    HW1 7058   1.441   4.934   3.594
 2164SOL    HW2 7059   1.546   4.937   3.469
 2165SOL     OW 7060   1.674   4.607   3.116
 2165SOL    HW1 7061   1.647   4.518   3.079
 2165SOL    HW2 7062   1.675   4.675   3.043
 2166SOL     OW 7063   1.225   4.049   2.311
 2166SOL    HW1 7064   1.290   3.975   2.300
 2166SOL    HW2 7065   1.245   4.099   2.395
 2167SOL     OW 7066   0.594   4.469   2.514
 2167SOL    HW1 7067   0.644   4.554   2.495
 2167SOL    HW2 7068   0.506   4.471   2.466
 2168SOL     OW 7069   1.777   4.066   3.504
 2168SOL    HW1 7070   1.760   4.097   3.410
 2168SOL    HW2 7071   1.693   4.029   3.542
 2169SOL     OW 7072   1.730   4.658   3.379
 2169SOL    HW1 7073   1.768   4.749   3.394
 2169SOL    HW2 7074   1.722   4.641   3.280
 2170SOL     OW 7075   0.859   5.098   1.878
 2170SOL    HW1 7076   0.813   5.113   1.966
 2170SOL    HW2 7077   0.903   5.183   1.848
 2171SOL     OW 7078   0.859   4.680   2.723
 2171SOL    HW1 7079   0.913   4.611   2.771
 2171SOL    HW2 7080   0.827   4.749   2.789
 2172SOL     OW 7081   1.083   4.708   1.949
 2172SOL    HW1 7082   1.060   4.761   1.867
 2172SOL    HW2 7083   1.164   4.652   1.930
 2173SOL     OW 7084   0.221   5.038   3.706
 2173SOL    HW1 7085   0.156   4.965   3.685
 2173SOL    HW2 7086   0.225   5.052   3.804
 2174SOL     OW 7087   0.079   4.964   2.515
 2174SOL    HW1 7088   0.078   4.917   2.603
 2174SOL    HW2 7089   0.161   4.936   2.464
 2175SOL     OW 7090   0.672   5.115   3.486
 2175SOL    HW1 7091   0.594   5.065   3.524
 2175SOL    HW2 7092   0.669   5.210   3.517
 2176SOL     OW 7093   1.824   3.916   3.089
 2176SOL    HW1 7094   1.820   3.826   3.133
 2176SOL    HW2 7095   1.827   3.905   2.990
 2177SOL     OW 7096   0.428   4.148   2.382
 2177SOL    HW1 7097   0.458   4.076   2.320
 2177SOL    HW2 7098   0.389   4.108   2.465
 2178SOL     OW 7099   1.705   5.211   2.966
 2178SOL    HW1 7100   1.612   5.186   2.939
 2178SOL    HW2 7101   1.731   5.161   3.048
 2179SOL     OW 7102   0.317   4.271   3.142
 2179SOL    HW1 7103   0.355   4.212   3.214
 2179SOL    HW2 7104   0.357   4.245   3.054
 2180SOL     OW 7105   1.424   3.938   2.974
 2180SOL    HW1 7106   1.476   3.873   3.029
 2180SOL    HW2 7107   1.375   4.001   3.035
 2181SOL     OW 7108   1.001   3.758   3.016
 2181SOL    HW1 7109   0.938   3.686   2.985
 2181SOL    HW2 7110   1.094   3.722   3.016
 2182SOL     OW 7111   0.770   5.054   2.163
 2182SOL    HW1 7112   0.724   4.967   2.180
 2182SOL    HW2 7113   0.861   5.051   2.204
 2183SOL     OW 7114   0.618   5.291   3.146
 2183SOL    HW1 7115   0.613   5.373   3.203
 2183SOL    HW2 7116   0.707   5.288   3.101
 2184SOL     OW 7117   1.352   3.776   2.030
 2184SOL    HW1 7118   1.387   3.735   1.946
 2184SOL    HW2 7119   1.262   3.738   2.050
 2185SOL     OW 7120   1.300   4.177   2.553
 2185SOL    HW1 7121   1.241   4.257   2.557
 2185SOL    HW2 7122   1.315   4.142   2.646
 2186SOL     OW 7123   1.593   3.945   2.744
 2186SOL    HW1 7124   1.509   3.944   2.798
 2186SOL    HW2 7125   1.595   4.028   2.688
 2187SOL     OW 7126   0.039   4.801   2.162
 2187SOL    HW1 7127   0.138   4.790   2.153
 2187SOL    HW2 7128  -0.001   4.715   2.194
 2188SOL     OW 7129   0.230   4.352   3.837
 2188SOL    HW1 7130   0.137   4.350   3.874
 2188SOL    HW2 7131   0.231   4.313   3.745
 2189SOL     OW 7132   0.225   3.999   4.720
 2189SOL    HW1 7133   0.260   3.982   4.812
 2189SOL    HW2 7134   0.137   3.954   4.708
 2190SOL     OW 7135   0.019   4.092   4.371
 2190SOL    HW1 7136  -0.063   4.135   4.410
 2190SOL    HW2 7137  -0.009   4.019   4.308
 2191SOL     OW 7138   0.569   4.999   4.889
 2191SOL    HW1 7139   0.476   4.992   4.852
 2191SOL    HW2 7140   0.580   5.088   4.933
 2192SOL     OW 7141   1.555   5.235   4.427
 2192SOL    HW1 7142   1.498   5.219   4.508
 2192SOL    HW2 7143   1.496   5.245   4.347
 2193SOL     OW 7144   1.135   4.427   4.441
 2193SOL    HW1 7145   1.192   4.505   4.416
 2193SOL    HW2 7146   1.075   4.453   4.517
 2194SOL     OW 7147   1.755   4.331   3.955
 2194SOL    HW1 7148   1.743   4.318   3.856
 2194SOL    HW2 7149   1.725   4.250   4.004
 2195SOL     OW 7150   0.768   4.868   4.747
 2195SOL    HW1 7151   0.690   4.885   4.807
 2195SOL    HW2 7152   0.802   4.955   4.711
 2196SOL     OW 7153   0.850   4.522   5.547
 2196SOL    HW1 7154   0.846   4.598   5.612
 2196SOL    HW2 7155   0.872   4.558   5.456
 2197SOL     OW 7156   0.685   4.736   4.389
 2197SOL    HW1 7157   0.754   4.720   4.459
 2197SOL    HW2 7158   0.612   4.793   4.427
 2198SOL     OW 7159   0.686   4.885   5.527
 2198SOL    HW1 7160   0.746   4.964   5.541
 2198SOL    HW2 7161   0.600   4.916   5.486
 2199SOL     OW 7162   0.335   5.159   4.785
 2199SOL    HW1 7163   0.257   5.128   4.732
 2199SOL    HW2 7164   0.393   5.217   4.728
 2200SOL     OW 7165   1.460   5.229   5.063
 2200SOL    HW1 7166   1.484   5.323   5.089
 2200SOL    HW2 7167   1.444   5.175   5.145
 2201SOL     OW 7168   0.438   4.116   5.223
 2201SOL    HW1 7169   0.520   4.060   5.232
 2201SOL    HW2 7170   0.357   4.058   5.227
 2202SOL     OW 7171   1.603   4.171   4.461
 2202SOL    HW1 7172   1.529   4.217   4.411
 2202SOL    HW2 7173   1.654   4.239   4.514
 2203SOL     OW 7174   1.127   5.065   5.414
 2203SOL    HW1 7175   1.174   5.065   5.502
 2203SOL    HW2 7176   1.079   4.978   5.403
 2204SOL     OW 7177   0.230   5.158   4.262
 2204SOL    HW1 7178   0.204   5.254   4.262
 2204SOL    HW2 7179   0.159   5.104   4.307
 2205SOL     OW 7180   0.240   4.815   4.610
 2205SOL    HW1 7181   0.254   4.731   4.662
 2205SOL    HW2 7182   0.185   4.879   4.665
 2206SOL     OW 7183   0.606   4.688   3.847
 2206SOL    HW1 7184   0.613   4.772   3.793
 2206SOL    HW2 7185   0.652   4.701   3.935
 2207SOL     OW 7186   1.594   3.838   5.204
 2207SOL    HW1 7187   1.576   3.905   5.132
 2207SOL    HW2 7188   1.591   3.884   5.293
 2208SOL     OW 7189   0.122   4.367   4.287
 2208SOL    HW1 7190   0.077   4.279   4.304
 2208SOL    HW2 7191   0.121   4.421   4.371
 2209SOL     OW 7192   0.027   5.320   3.841
 2209SOL    HW1 7193   0.008   5.224   3.862
 2209SOL    HW2 7194  -0.006   5.378   3.916
 2210SOL     OW 7195   1.689   4.646   4.336
 2210SOL    HW1 7196   1.784   4.617   4.344
 2210SOL    HW2 7197   1.681   4.711   4.261
 2211SOL     OW 7198   1.641   4.832   4.156
 2211SOL    HW1 7199   1.727   4.834   4.104
 2211SOL    HW2 7200   1.655   4.879   4.244
 2212SOL     OW 7201   0.113   4.461   5.321
 2212SOL    HW1 7202   0.201   4.448   5.366
 2212SOL    HW2 7203   0.100   4.558   5.299
 2213SOL     OW 7204   0.613   5.089   4.450
 2213SOL    HW1 7205   0.564   5.002   4.459
 2213SOL    HW2 7206   0.590   5.132   4.363
 2214SOL     OW 7207   1.293   4.952   5.147
 2214SOL    HW1 7208   1.330   4.879   5.089
 2214SOL    HW2 7209   1.345   4.957   5.232
 2215SOL     OW 7210   0.809   3.728   4.226
 2215SOL    HW1 7211   0.849   3.819   4.217
 2215SOL    HW2 7212   0.709   3.736   4.232
 2216SOL     OW 7213   0.197   4.700   4.988
 2216SOL    HW1 7214   0.286   4.655   4.974
 2216SOL    HW2 7215   0.124   4.635   4.969
 2217SOL     OW 7216   1.525   4.723   3.914
 2217SOL    HW1 7217   1.462   4.647   3.927
 2217SOL    HW2 7218   1.573   4.741   4.000
 2218SOL     OW 7219   0.317   3.975   5.525
 2218SOL    HW1 7220   0.388   4.046   5.531
 2218SOL    HW2 7221   0.229   4.014   5.553
 2219SOL     OW 7222   1.466   5.141   4.677
 2219SOL    HW1 7223   1.407   5.147   4.757
 2219SOL    HW2 7224   1.451   5.053   4.631
 2220SOL     OW 7225   0.598   4.453   3.994
 2220SOL    HW1 7226   0.622   4.522   3.926
 2220SOL    HW2 7227   0.520   4.486   4.048
 2221SOL     OW 7228   1.281   4.069   4.668
 2221SOL    HW1 7229   1.195   4.019   4.655
 2221SOL    HW2 7230   1.343   4.015   4.724
 2222SOL     OW 7231   0.807   4.329   5.189
 2222SOL    HW1 7232   0.760   4.326   5.278
 2222SOL    HW2 7233   0.756   4.274   5.123
 2223SOL     OW 7234   1.394   4.193   5.398
 2223SOL    HW1 7235   1.374   4.236   5.486
 2223SOL    HW2 7236   1.472   4.131   5.407
 2224SOL     OW 7237   0.973   4.614   5.296
 2224SOL    HW1 7238   1.019   4.530   5.267
 2224SOL    HW2 7239   0.917   4.648   5.221
 2225SOL     OW 7240   0.991   4.134   4.966
 2225SOL    HW1 7241   0.914   4.168   5.020
 2225SOL    HW2 7242   0.957   4.083   4.887
 2226SOL     OW 7243   1.041   4.425   4.153
 2226SOL    HW1 7244   1.067   4.421   4.249
 2226SOL    HW2 7245   0.956   4.374   4.139
 2227SOL     OW 7246   0.076   4.535   4.513
 2227SOL    HW1 7247   0.175   4.523   4.522
 2227SOL    HW2 7248   0.052   4.630   4.534
 2228SOL     OW 7249   0.865   4.072   3.919
 2228SOL    HW1 7250   0.924   4.135   3.870
 2228SOL    HW2 7251   0.884   3.978   3.890
 2229SOL     OW 7252   1.719   4.309   5.555
 2229SOL    HW1 7253   1.693   4.398   5.519
 2229SOL    HW2 7254   1.717   4.241   5.482
 2230SOL     OW 7255   1.362   4.868   4.269
 2230SOL    HW1 7256   1.445   4.839   4.221
 2230SOL    HW2 7257   1.313   4.935   4.213
 2231SOL     OW 7258   0.550   3.920   4.609
 2231SOL    HW1 7259   0.545   3.915   4.709
 2231SOL    HW2 7260   0.552   4.016   4.580
 2232SOL     OW 7261   1.008   5.180   4.201
 2232SOL    HW1 7262   0.962   5.252   4.149
 2232SOL    HW2 7263   1.004   5.200   4.299
 2233SOL     OW 7264   1.795   4.790   4.597
 2233SOL    HW1 7265   1.733   4.775   4.521
 2233SOL    HW2 7266   1.743   4.801   4.682
 2234SOL     OW 7267   1.227   5.274   5.230
 2234SOL    HW1 7268   1.233   5.197   5.294
 2234SOL    HW2 7269   1.175   5.248   5.150
 2235SOL     OW 7270   0.321   4.667   3.966
 2235SOL    HW1 7271   0.403   4.706   3.924
 2235SOL    HW2 7272   0.294   4.585   3.917
 2236SOL     OW 7273   1.458   4.459   4.452
 2236SOL    HW1 7274   1.453   4.394   4.527
 2236SOL    HW2 7275   1.538   4.518   4.465
 2237SOL     OW 7276   0.461   4.990   5.451
 2237SOL    HW1 7277   0.411   4.991   5.365
 2237SOL    HW2 7278   0.398   4.972   5.527
 2238SOL     OW 7279   1.111   5.500   3.961
 2238SOL    HW1 7280   1.051   5.438   4.011
 2238SOL    HW2 7281   1.142   5.456   3.876
 2239SOL     OW 7282   0.202   4.009   5.222
 2239SOL    HW1 7283   0.122   4.069   5.209
 2239SOL    HW2 7284   0.192   3.960   5.308
 2240SOL     OW 7285   1.632   5.101   3.805
 2240SOL    HW1 7286   1.600   5.195   3.795
 2240SOL    HW2 7287   1.556   5.038   3.793
 2241SOL     OW 7288   1.400   3.831   4.150
 2241SOL    HW1 7289   1.376   3.794   4.060
 2241SOL    HW2 7290   1.499   3.847   4.154
 2242SOL     OW 7291   0.382   4.424   4.204
 2242SOL    HW1 7292   0.427   4.334   4.201
 2242SOL    HW2 7293   0.288   4.413   4.237
 2243SOL     OW 7294   1.547   3.946   5.453
 2243SOL    HW1 7295   1.542   3.983   5.545
 2243SOL    HW2 7296   1.475   3.877   5.441
 2244SOL     OW 7297   0.614   3.846   3.841
 2244SOL    HW1 7298   0.712   3.824   3.848
 2244SOL    HW2 7299   0.583   3.829   3.748
 2245SOL     OW 7300   0.781   3.988   5.473
 2245SOL    HW1 7301   0.848   3.927   5.516
 2245SOL    HW2 7302   0.708   4.007   5.538
 2246SOL     OW 7303   1.351   4.314   5.157
 2246SOL    HW1 7304   1.379   4.271   5.242
 2246SOL    HW2 7305   1.376   4.410   5.158
 2247SOL     OW 7306   0.803   5.126   4.648
 2247SOL    HW1 7307   0.893   5.140   4.606
 2247SOL    HW2 7308   0.732   5.128   4.577
 2248SOL     OW 7309   0.922   4.227   4.623
 2248SOL    HW1 7310   0.897   4.218   4.527
 2248SOL    HW2 7311   0.970   4.145   4.654
 2249SOL     OW 7312   0.539   3.788   4.236
 2249SOL    HW1 7313   0.458   3.789   4.294
 2249SOL    HW2 7314   0.542   3.871   4.181
 2250SOL     OW 7315   1.434   4.912   3.765
 2250SOL    HW1 7316   1.466   4.836   3.822
 2250SOL    HW2 7317   1.342   4.939   3.795
 2251SOL     OW 7318   0.297   3.759   3.895
 2251SOL    HW1 7319   0.346   3.843   3.874
 2251SOL    HW2 7320   0.359   3.694   3.940
 2252SOL     OW 7321   0.935   3.960   4.204
 2252SOL    HW1 7322   0.887   4.001   4.126
 2252SOL    HW2 7323   1.034   3.958   4.185
 2253SOL     OW 7324   1.076   4.407   5.188
 2253SOL    HW1 7325   0.996   4.346   5.191
 2253SOL    HW2 7326   1.157   4.354   5.164
 2254SOL     OW 7327   1.227   5.294   4.517
 2254SOL    HW1 7328   1.248   5.368   4.452
 2254SOL    HW2 7329   1.295   5.294   4.590
 2255SOL     OW 7330   0.459   4.876   4.465
 2255SOL    HW1 7331   0.388   4.849   4.530
 2255SOL    HW2 7332   0.433   4.848   4.372
 2256SOL     OW 7333   1.032   4.273   3.740
 2256SOL    HW1 7334   0.991   4.355   3.701
 2256SOL    HW2 7335   1.096   4.299   3.813
 2257SOL     OW 7336   0.078   4.280   5.110
 2257SOL    HW1 7337   0.170   4.279   5.069
 2257SOL    HW2 7338   0.072   4.354   5.177
 2258SOL     OW 7339   0.561   3.946   4.871
 2258SOL    HW1 7340   0.599   3.862   4.908
 2258SOL    HW2 7341   0.473   3.965   4.915
 2259SOL     OW 7342   0.866   4.178   4.366
 2259SOL    HW1 7343   0.834   4.250   4.304
 2259SOL    HW2 7344   0.890   4.097   4.313
 2260SOL     OW 7345   1.017   3.763   4.477
 2260SOL    HW1 7346   0.945   3.768   4.408
 2260SOL    HW2 7347   0.993   3.694   4.546
 2261SOL     OW 7348   1.429   4.897   4.591
 2261SOL    HW1 7349   1.374   4.813   4.584
 2261SOL    HW2 7350   1.455   4.926   4.499
 2262SOL     OW 7351   1.466   4.314   4.716
 2262SOL    HW1 7352   1.436   4.219   4.723
 2262SOL    HW2 7353   1.539   4.330   4.782
 2263SOL     OW 7354   1.857   4.557   4.101
 2263SOL    HW1 7355   1.899   4.493   4.165
 2263SOL    HW2 7356   1.819   4.506   4.023
 2264SOL     OW 7357   0.488   5.109   3.898
 2264SOL    HW1 7358   0.401   5.094   3.945
 2264SOL    HW2 7359   0.471   5.135   3.803
 2265SOL     OW 7360   1.664   5.004   4.381
 2265SOL    HW1 7361   1.763   5.012   4.395
 2265SOL    HW2 7362   1.619   5.088   4.412
 2266SOL     OW 7363   1.390   4.299   3.802
 2266SOL    HW1 7364   1.336   4.278   3.883
 2266SOL    HW2 7365   1.481   4.258   3.811
 2267SOL     OW 7366   0.527   3.980   4.052
 2267SOL    HW1 7367   0.554   3.921   3.977
 2267SOL    HW2 7368   0.527   4.075   4.021
 2268SOL     OW 7369   1.754   4.947   5.312
 2268SOL    HW1 7370   1.845   4.908   5.299
 2268SOL    HW2 7371   1.762   5.043   5.336
 2269SOL     OW 7372   1.064   5.071   5.064
 2269SOL    HW1 7373   0.984   5.048   5.119
 2269SOL    HW2 7374   1.147   5.045   5.113
 2270SOL     OW 7375   1.111   4.919   4.824
 2270SOL    HW1 7376   1.071   4.963   4.905
 2270SOL    HW2 7377   1.070   4.956   4.741
 2271SOL     OW 7378   1.638   4.823   4.803
 2271SOL    HW1 7379   1.643   4.904   4.862
 2271SOL    HW2 7380   1.552   4.825   4.752
 2272SOL     OW 7381   0.915   3.813   5.126
 2272SOL    HW1 7382   0.940   3.793   5.031
 2272SOL    HW2 7383   0.987   3.869   5.168
 2273SOL     OW 7384   0.980   4.840   5.443
 2273SOL    HW1 7385   0.881   4.846   5.453
 2273SOL    HW2 7386   1.003   4.760   5.387
 2274SOL     OW 7387   0.705   4.774   4.092
 2274SOL    HW1 7388   0.691   4.781   4.191
 2274SOL    HW2 7389   0.789   4.723   4.074
 2275SOL     OW 7390   0.410   4.537   4.975
 2275SOL    HW1 7391   0.496   4.549   5.025
 2275SOL    HW2 7392   0.368   4.450   5.002
 2276SOL     OW 7393   1.274   4.110   4.986
 2276SOL    HW1 7394   1.295   4.184   5.050
 2276SOL    HW2 7395   1.185   4.127   4.943
 2277SOL     OW 7396   0.064   5.288   5.055
 2277SOL    HW1 7397   0.018   5.370   5.021
 2277SOL    HW2 7398   0.162   5.307   5.064
 2278SOL     OW 7399   0.367   4.824   4.225
 2278SOL    HW1 7400   0.360   4.907   4.169
 2278SOL    HW2 7401   0.371   4.744   4.165
 2279SOL     OW 7402   0.566   4.261   4.589
 2279SOL    HW1 7403   0.578   4.327   4.515
 2279SOL    HW2 7404   0.612   4.295   4.672
 2280SOL     OW 7405   1.252   5.072   4.112
 2280SOL    HW1 7406   1.302   5.149   4.152
 2280SOL    HW2 7407   1.157   5.074   4.144
 2281SOL     OW 7408   1.272   5.169   4.866
 2281SOL    HW1 7409   1.319   5.182   4.953
 2281SOL    HW2 7410   1.206   5.095   4.875
 2282SOL     OW 7411   1.582   4.363   4.196
 2282SOL    HW1 7412   1.551   4.424   4.269
 2282SOL    HW2 7413   1.632   4.415   4.127
 2283SOL     OW 7414   0.354   5.234   5.053
 2283SOL    HW1 7415   0.333   5.190   4.966
 2283SOL    HW2 7416   0.451   5.260   5.056
 2284SOL     OW 7417   0.402   4.475   5.322
 2284SOL    HW1 7418   0.470   4.530   5.275
 2284SOL    HW2 7419   0.442   4.387   5.349
 2285SOL     OW 7420   1.587   4.503   5.394
 2285SOL    HW1 7421   1.495   4.541   5.389
 2285SOL    HW2 7422   1.647   4.550   5.329
 2286SOL     OW 7423   1.013   3.829   5.494
 2286SOL    HW1 7424   1.019   3.914   5.442
 2286SOL    HW2 7425   1.045   3.753   5.437
 2287SOL     OW 7426   0.504   3.774   5.464
 2287SOL    HW1 7427   0.462   3.717   5.394
 2287SOL    HW2 7428   0.438   3.843   5.496
 2288SOL     OW 7429   0.573   4.594   4.753
 2288SOL    HW1 7430   0.617   4.683   4.744
 2288SOL    HW2 7431   0.510   4.594   4.830
 2289SOL     OW 7432   1.360   4.586   4.769
 2289SOL    HW1 7433   1.285   4.586   4.703
 2289SOL    HW2 7434   1.397   4.494   4.778
 2290SOL     OW 7435   1.209   4.249   3.999
 2290SOL    HW1 7436   1.222   4.165   4.053
 2290SOL    HW2 7437   1.180   4.323   4.059
 2291SOL     OW 7438   0.307   3.937   4.955
 2291SOL    HW1 7439   0.284   3.974   5.045
 2291SOL    HW2 7440   0.277   3.842   4.949
 2292SOL     OW 7441   0.037   5.034   5.006
 2292SOL    HW1 7442   0.090   4.985   5.074
 2292SOL    HW2 7443   0.059   5.132   5.011
 2293SOL     OW 7444   0.732   4.358   4.788
 2293SOL    HW1 7445   0.791   4.332   4.712
 2293SOL    HW2 7446   0.704   4.454   4.777
 2294SOL     OW 7447   1.728   4.659   5.578
 2294SOL    HW1 7448   1.682   4.652   5.489
 2294SOL    HW2 7449   1.666   4.703   5.644
 2295SOL     OW 7450   0.307   3.787   4.342
 2295SOL    HW1 7451   0.296   3.881   4.375
 2295SOL    HW2 7452   0.302   3.724   4.419
 2296SOL     OW 7453   1.622   4.091   4.098
 2296SOL    HW1 7454   1.624   4.015   4.162
 2296SOL    HW2 7455   1.574   4.168   4.138
 2297SOL     OW 7456   1.023   4.490   4.690
 2297SOL    HW1 7457   1.038   4.511   4.786
 2297SOL    HW2 7458   0.993   4.395   4.681
 2298SOL     OW 7459   1.859   5.242   5.329
 2298SOL    HW1 7460   1.873   5.269   5.234
 2298SOL    HW2 7461   1.942   5.264   5.382
 2299SOL     OW 7462   0.350   4.622   5.528
 2299SOL    HW1 7463   0.426   4.666   5.576
 2299SOL    HW2 7464   0.385   4.575   5.446
 2300SOL     OW 7465   1.540   3.998   3.849
 2300SOL    HW1 7466   1.479   3.923   3.872
 2300SOL    HW2 7467   1.562   4.050   3.932
 2301SOL     OW 7468   1.303   4.562   3.766
 2301SOL    HW1 7469   1.337   4.469   3.781
 2301SOL    HW2 7470   1.321   4.589   3.671
 2302SOL     OW 7471   1.068   5.057   4.573
 2302SOL    HW1 7472   1.075   4.973   4.518
 2302SOL    HW2 7473   1.130   5.126   4.537
 2303SOL     OW 7474   0.319   4.534   4.673
 2303SOL    HW1 7475   0.412   4.570   4.678
 2303SOL    HW2 7476   0.313   4.449   4.725
 2304SOL     OW 7477   0.339   4.233   4.730
 2304SOL    HW1 7478   0.287   4.150   4.713
 2304SOL    HW2 7479   0.416   4.238   4.666
 2305SOL     OW 7480   1.138   4.104   5.402
 2305SOL    HW1 7481   1.093   4.167   5.466
 2305SOL    HW2 7482   1.231   4.135   5.385
 2306SOL     OW 7483   1.160   3.931   5.201
 2306SOL    HW1 7484   1.160   3.995   5.278
 2306SOL    HW2 7485   1.188   3.979   5.118
 2307SOL     OW 7486   0.008   5.050   3.924
 2307SOL    HW1 7487  -0.085   5.071   3.893
 2307SOL    HW2 7488   0.018   4.951   3.937
 2308SOL     OW 7489   1.002   4.520   4.962
 2308SOL    HW1 7490   1.043   4.488   5.048
 2308SOL    HW2 7491   0.906   4.493   4.959
 2309SOL     OW 7492   0.040   4.268   4.838
 2309SOL    HW1 7493   0.125   4.235   4.797
 2309SOL    HW2 7494   0.053   4.283   4.936
 2310SOL     OW 7495   0.189   4.244   5.446
 2310SOL    HW1 7496   0.248   4.204   5.376
 2310SOL    HW2 7497   0.131   4.315   5.405
 2311SOL     OW 7498   1.369   4.674   5.384
 2311SOL    HW1 7499   1.408   4.763   5.404
 2311SOL    HW2 7500   1.379   4.654   5.287
 2312SOL     OW 7501   0.815   4.296   4.049
 2312SOL    HW1 7502   0.822   4.207   4.003
 2312SOL    HW2 7503   0.721   4.330   4.041
 2313SOL     OW 7504   1.657   4.328   4.930
 2313SOL    HW1 7505   1.619   4.259   4.992
 2313SOL    HW2 7506   1.739   4.292   4.886
 2314SOL     OW 7507   0.252   5.288   5.468
 2314SOL    HW1 7508   0.222   5.345   5.544
 2314SOL    HW2 7509   0.245   5.191   5.494
 2315SOL     OW 7510   0.671   4.188   4.993
 2315SOL    HW1 7511   0.637   4.099   4.963
 2315SOL    HW2 7512   0.697   4.242   4.913
 2316SOL     OW 7513   0.473   4.224   3.915
 2316SOL    HW1 7514   0.534   4.304   3.919
 2316SOL    HW2 7515   0.378   4.255   3.922
 2317SOL     OW 7516   0.159   4.861   5.190
 2317SOL    HW1 7517   0.181   4.800   5.266
 2317SOL    HW2 7518   0.169   4.812   5.104
 2318SOL     OW 7519   1.347   4.783   4.958
 2318SOL    HW1 7520   1.371   4.720   4.884
 2318SOL    HW2 7521   1.257   4.823   4.940
 2319SOL     OW 7522   1.302   4.579   4.033
 2319SOL    HW1 7523   1.216   4.548   4.075
 2319SOL    HW2 7524   1.298   4.565   3.934
 2320SOL     OW 7525   0.083   4.982   4.746
 2320SOL    HW1 7526   0.078   4.981   4.846
 2320SOL    HW2 7527   0.000   4.941   4.708
 2321SOL     OW 7528   0.688   5.386   5.440
 2321SOL    HW1 7529   0.632   5.467   5.449
 2321SOL    HW2 7530   0.740   5.390   5.354
 2322SOL     OW 7531   1.726   3.859   4.247
 2322SOL    HW1 7532   1.799   3.842   4.180
 2322SOL    HW2 7533   1.695   3.772   4.285
 2323SOL     OW 7534   1.280   4.651   4.396
 2323SOL    HW1 7535   1.340   4.570   4.398
 2323SOL    HW2 7536   1.320   4.720   4.336
 2324SOL     OW 7537   0.830   4.997   5.146
 2324SOL    HW1 7538   0.825   5.030   5.241
 2324SOL    HW2 7539   0.744   5.016   5.100
 2325SOL     OW 7540   1.841   3.899   4.687
 2325SOL    HW1 7541   1.880   3.814   4.651
 2325SOL    HW2 7542   1.743   3.901   4.668
 2326SOL     OW 7543   0.263   4.050   4.444
 2326SOL    HW1 7544   0.184   4.101   4.410
 2326SOL    HW2 7545   0.254   4.035   4.542
 2327SOL     OW 7546   0.822   4.726   5.096
 2327SOL    HW1 7547   0.862   4.725   5.004
 2327SOL    HW2 7548   0.832   4.818   5.136
 2328SOL     OW 7549   0.916   4.634   4.015
 2328SOL    HW1 7550   0.979   4.672   3.947
 2328SOL    HW2 7551   0.956   4.551   4.054
 2329SOL     OW 7552   0.372   5.012   5.214
 2329SOL    HW1 7553   0.359   5.105   5.180
 2329SOL    HW2 7554   0.288   4.960   5.201
 2330SOL     OW 7555   1.614   5.016   5.013
 2330SOL    HW1 7556   1.674   5.019   5.093
 2330SOL    HW2 7557   1.539   5.080   5.026
 2331SOL     OW 7558   1.039   4.822   4.420
 2331SOL    HW1 7559   0.969   4.775   4.474
 2331SOL    HW2 7560   1.098   4.754   4.377
 2332SOL     OW 7561   1.014   3.960   4.695
 2332SOL    HW1 7562   1.006   3.924   4.602
 2332SOL    HW2 7563   1.012   3.884   4.760
 2333SOL     OW 7564   1.709   4.109   5.105
 2333SOL    HW1 7565   1.782   4.178   5.109
 2333SOL    HW2 7566   1.737   4.034   5.046
 2334SOL     OW 7567   0.255   5.072   4.014
 2334SOL    HW1 7568   0.159   5.073   3.987
 2334SOL    HW2 7569   0.267   5.125   4.098
 2335SOL     OW 7570   0.105   4.737   5.450
 2335SOL    HW1 7571   0.028   4.704   5.504
 2335SOL    HW2 7572   0.190   4.707   5.492
 2336SOL     OW 7573   0.672   3.927   5.213
 2336SOL    HW1 7574   0.762   3.911   5.173
 2336SOL    HW2 7575   0.680   3.932   5.312
 2337SOL     OW 7576   0.075   4.069   3.757
 2337SOL    HW1 7577  -0.017   4.041   3.728
 2337SOL    HW2 7578   0.106   4.146   3.701
 2338SOL     OW 7579   1.440   4.580   5.122
 2338SOL    HW1 7580   1.383   4.632   5.059
 2338SOL    HW2 7581   1.536   4.592   5.098
 2339SOL     OW 7582   0.072   3.890   4.042
 2339SOL    HW1 7583   0.055   3.973   3.988
 2339SOL    HW2 7584   0.162   3.853   4.020
 2340SOL     OW 7585   1.183   5.059   3.843
 2340SOL    HW1 7586   1.084   5.048   3.845
 2340SOL    HW2 7587   1.217   5.074   3.936
 2341SOL     OW 7588   0.613   4.566   5.155
 2341SOL    HW1 7589   0.669   4.647   5.138
 2341SOL    HW2 7590   0.672   4.486   5.158
 2342SOL     OW 7591   0.716   4.289   5.432
 2342SOL    HW1 7592   0.735   4.354   5.506
 2342SOL    HW2 7593   0.776   4.209   5.441
 2343SOL     OW 7594   1.450   4.944   5.357
 2343SOL    HW1 7595   1.441   4.934   5.456
 2343SOL    HW2 7596   1.546   4.937   5.331
 2344SOL     OW 7597   1.674   4.607   4.978
 2344SOL    HW1 7598   1.647   4.518   4.941
 2344SOL    HW2 7599   1.675   4.675   4.905
 2345SOL     OW 7600   1.225   4.049   4.173
 2345SOL    HW1 7601   1.290   3.975   4.162
 2345SOL    HW2 7602   1.245   4.099   4.257
 2346SOL     OW 7603   0.594   4.469   4.376
 2346SOL    HW1 7604   0.644   4.554   4.357
 2346SOL    HW2 7605   0.506   4.471   4.328
 2347SOL     OW 7606   1.777   4.066   5.366
 2347SOL    HW1 7607   1.760   4.097   5.272
 2347SOL    HW2 7608   1.693   4.029   5.404
 2348SOL     OW 7609   1.730   4.658   5.241
 2348SOL    HW1 7610   1.768   4.749   5.256
 2348SOL    HW2 7611   1.722   4.641   5.142
 2349SOL     OW 7612   0.859   5.098   3.740
 2349SOL    HW1 7613   0.813   5.113   3.828
 2349SOL    HW2 7614   0.903   5.183   3.710
 2350SOL     OW 7615   0.859   4.680   4.585
 2350SOL    HW1 7616   0.913   4.611   4.633
 2350SOL    HW2 7617   0.827   4.749   4.651
 2351SOL     OW 7618   1.083   4.708   3.811
 2351SOL    HW1 7619   1.060   4.761   3.729
 2351SOL    HW2 7620   1.164   4.652   3.792
 2352SOL     OW 7621   0.221   5.038   5.568
 2352SOL    HW1 7622   0.156   4.965   5.547
 2352SOL    HW2 7623   0.225   5.052   5.666
 2353SOL     OW 7624   0.079   4.964   4.377
 2353SOL    HW1 7625   0.078   4.917   4.465
 2353SOL    HW2 7626   0.161   4.936   4.326
 2354SOL     OW 7627   0.672   5.115   5.348
 2354SOL    HW1 7628   0.594   5.065   5.386
 2354SOL    HW2 7629   0.669   5.210   5.379
 2355SOL     OW 7630   1.824   3.916   4.951
 2355SOL    HW1 7631   1.820   3.826   4.995
 2355SOL    HW2 7632   1.827   3.905   4.852
 2356SOL     OW 7633   0.428   4.148   4.244
 2356SOL    HW1 7634   0.458   4.076   4.182
 2356SOL    HW2 7635   0.389   4.108   4.327
 2357SOL     OW 7636   1.705   5.211   4.828
 2357SOL    HW1 7637   1.612   5.186   4.801
 2357SOL    HW2 7638   1.731   5.161   4.910
 2358SOL     OW 7639   0.317   4.271   5.004
 2358SOL    HW1 7640   0.355   4.212   5.076
 2358SOL    HW2 7641   0.357   4.245   4.916
 2359SOL     OW 7642   1.424   3.938   4.836
 2359SOL    HW1 7643   1.476   3.873   4.891
 2359SOL    HW2 7644   1.375   4.001   4.897
 2360SOL     OW 7645   1.001   3.758   4.878
 2360SOL    HW1 7646   0.938   3.686   4.847
 2360SOL    HW2 7647   1.094   3.722   4.878
 2361SOL     OW 7648   0.770   5.054   4.025
 2361SOL    HW1 7649   0.724   4.967   4.042
 2361SOL    HW2 7650   0.861   5.051   4.066
 2362SOL     OW 7651   0.618   5.291   5.008
 2362SOL    HW1 7652   0.613   5.373   5.065
 2362SOL    HW2 7653   0.707   5.288   4.963
 2363SOL     OW 7654   1.352   3.776   3.892
 2363SOL    HW1 7655   1.387   3.735   3.808
 2363SOL    HW2 7656   1.262   3.738   3.912
 2364SOL     OW 7657   1.300   4.177   4.415
 2364SOL    HW1 7658   1.241   4.257   4.419
 2364SOL    HW2 7659   1.315   4.142   4.508
 2365SOL     OW 7660   1.593   3.945   4.606
 2365SOL    HW1 7661   1.509   3.944   4.660
 2365SOL    HW2 7662   1.595   4.028   4.550
 2366SOL     OW 7663   0.039   4.801   4.024
 2366SOL    HW1 7664   0.138   4.790   4.015
 2366SOL    HW2 7665  -0.001   4.715   4.056
 2367SOL     OW 7666   0.230   4.352   5.699
 2367SOL    HW1 7667   0.137   4.350   5.736
 2367SOL    HW2 7668   0.231   4.313   5.607
 2368SOL     OW 7669   0.225   3.999   6.582
 2368SOL    HW1 7670   0.260   3.982   6.674
 2368SOL    HW2 7671   0.137   3.954   6.570
 2369SOL     OW 7672   0.019   4.092   6.233
 2369SOL    HW1 7673  -0.063   4.135   6.272
 2369SOL    HW2 7674  -0.009   4.019   6.170
 2370SOL     OW 7675   0.569   4.999   6.751
 2370SOL    HW1 7676   0.476   4.992   6.714
 2370SOL    HW2 7677   0.580   5.088   6.795
 2371SOL     OW 7678   1.555   5.235   6.289
 2371SOL    HW1 7679   1.498   5.219   6.370
 2371SOL    HW2 7680   1.496   5.245   6.209
 2372SOL     OW 7681   1.135   4.427   6.303
 2372SOL    HW1 7682   1.192   4.505   6.278
 2372SOL    HW2 7683   1.075   4.453   6.379
 2373SOL     OW 7684   1.755   4.331   5.817
 2373SOL    HW1 7685   1.743   4.318   5.718
 2373SOL    HW2 7686   1.725   4.250   5.866
 2374SOL     OW 7687   0.768   4.868   6.609
 2374SOL    HW1 7688   0.690   4.885   6.669
 2374SOL    HW2 7689   0.802   4.955   6.573
 2375SOL     OW 7690   0.850   4.522   7.409
 2375SOL    HW1 7691   0.846   4.598   7.474
 2375SOL    HW2 7692   0.872   4.558   7.318
 2376SOL     OW 7693   0.685   4.736   6.251
 2376SOL    HW1 7694   0.754   4.720   6.321
 2376SOL    HW2 7695   0.612   4.793   6.289
 2377SOL     OW 7696   0.686   4.885   7.389
 2377SOL    HW1 7697   0.746   4.964   7.403
 2377SOL    HW2 7698   0.600   4.916   7.348
 2378SOL     OW 7699   0.335   5.159   6.647
 2378SOL    HW1 7700   0.257   5.128   6.594
 2378SOL    HW2 7701   0.393   5.217   6.590
 2379SOL     OW 7702   1.460   5.229   6.925
 2379SOL    HW1 7703   1.484   5.323   6.951
 2379SOL    HW2 7704   1.444   5.175   7.007
 2380SOL     OW 7705   0.438   4.116   7.085
 2380SOL    HW1 7706   0.520   4.060   7.094
 2380SOL    HW2 7707   0.357   4.058   7.089
 2381SOL     OW 7708   1.603   4.171   6.323
 2381SOL    HW1 7709   1.529   4.217   6.273
 2381SOL    HW2 7710   1.654   4.239   6.376
 2382SOL     OW 7711   1.127   5.065   7.276
 2382SOL    HW1 7712   1.174   5.065   7.364
 2382SOL    HW2 7713   1.079   4.978   7.265
 2383SOL     OW 7714   0.230   5.158   6.124
 2383SOL    HW1 7715   0.204   5.254   6.124
 2383SOL    HW2 7716   0.159   5.104   6.169
 2384SOL     OW 7717   0.240   4.815   6.472
 2384SOL    HW1 7718   0.254   4.731   6.524
 2384SOL    HW2 7719   0.185   4.879   6.527
 2385SOL     OW 7720   0.606   4.688   5.709
 2385SOL    HW1 7721   0.613   4.772   5.655
 2385SOL    HW2 7722   0.652   4.701   5.797
 2386SOL     OW 7723   1.594   3.838   7.066
 2386SOL    HW1 7724   1.576   3.905   6.994
 2386SOL    HW2 7725   1.591   3.884   7.155
 2387SOL     OW 7726   0.122   4.367   6.149
 2387SOL    HW1 7727   0.077   4.279   6.166
 2387SOL    HW2 7728   0.121   4.421   6.233
 2388SOL     OW 7729   0.027   5.320   5.703
 2388SOL    HW1 7730   0.008   5.224   5.724
 2388SOL    HW2 7731  -0.006   5.378   5.778
 2389SOL     OW 7732   1.689   4.646   6.198
 2389SOL    HW1 7733   1.784   4.617   6.206
 2389SOL    HW2 7734   1.681   4.711   6.123
 2390SOL     OW 7735   1.641   4.832   6.018
 2390SOL    HW1 7736   1.727   4.834   5.966
 2390SOL    HW2 7737   1.655   4.879   6.106
 2391SOL     OW 7738   0.113   4.461   7.183
 2391SOL    HW1 7739   0.201   4.448   7.228
 2391SOL    HW2 7740   0.100   4.558   7.161
 2392SOL     OW 7741   0.613   5.089   6.312
 2392SOL    HW1 7742   0.564   5.002   6.321
 2392SOL    HW2 7743   0.590   5.132   6.225
 2393SOL     OW 7744   1.293   4.952   7.009
 2393SOL    HW1 7745   1.330   4.879   6.951
 2393SOL    HW2 7746   1.345   4.957   7.094
 2394SOL     OW 7747   0.809   3.728   6.088
 2394SOL    HW1 7748   0.849   3.819   6.079
 2394SOL    HW2 7749   0.709   3.736   6.094
 2395SOL     OW 7750   0.197   4.700   6.850
 2395SOL    HW1 7751   0.286   4.655   6.836
 2395SOL    HW2 7752   0.124   4.635   6.831
 2396SOL     OW 7753   1.525   4.723   5.776
 2396SOL    HW1 7754   1.462   4.647   5.789
 2396SOL    HW2 7755   1.573   4.741   5.862
 2397SOL     OW 7756   0.317   3.975   7.387
 2397SOL    HW1 7757   0.388   4.046   7.393
 2397SOL    HW2 7758   0.229   4.014   7.415
 2398SOL     OW 7759   1.466   5.141   6.539
 2398SOL    HW1 7760   1.407   5.147   6.619
 2398SOL    HW2 7761   1.451   5.053   6.493
 2399SOL     OW 7762   0.598   4.453   5.856
 2399SOL    HW1 7763   0.622   4.522   5.788
 2399SOL    HW2 7764   0.520   4.486   5.910
 2400SOL     OW 7765   1.281   4.069   6.530
 2400SOL    HW1 7766   1.195   4.019   6.517
 2400SOL    HW2 7767   1.343   4.015   6.586
 2401SOL     OW 7768   0.807   4.329   7.051
 2401SOL    HW1 7769   0.760   4.326   7.140
 2401SOL    HW2 7770   0.756   4.274   6.985
 2402SOL     OW 7771   1.394   4.193   7.260
 2402SOL    HW1 7772   1.374   4.236   7.348
 2402SOL    HW2 7773   1.472   4.131   7.269
 2403SOL     OW 7774   0.973   4.614   7.158
 2403SOL    HW1 7775   1.019   4.530   7.129
 2403SOL    HW2 7776   0.917   4.648   7.083
 2404SOL     OW 7777   0.991   4.134   6.828
 2404SOL    HW1 7778   0.914   4.168   6.882
 2404SOL    HW2 7779   0.957   4.083   6.749
 2405SOL     OW 7780   1.041   4.425   6.015
 2405SOL    HW1 7781   1.067   4.421   6.111
 2405SOL    HW2 7782   0.956   4.374   6.001
 2406SOL     OW 7783   0.076   4.535   6.375
 2406SOL    HW1 7784   0.175   4.523   6.384
 2406SOL    HW2 7785   0.052   4.630   6.396
 2407SOL     OW 7786   0.865   4.072   5.781
 2407SOL    HW1 7787   0.924   4.135   5.732
 2407SOL    HW2 7788   0.884   3.978   5.752
 2408SOL     OW 7789   1.719   4.309   7.417
 2408SOL    HW1 7790   1.693   4.398   7.381
 2408SOL    HW2 7791   1.717   4.241   7.344
 2409SOL     OW 7792   1.362   4.868   6.131
 2409SOL    HW1 7793   1.445   4.839   6.083
 2409SOL    HW2 7794   1.313   4.935   6.075
 2410SOL     OW 7795   0.550   3.920   6.471
 2410SOL    HW1 7796   0.545   3.915   6.571
 2410SOL    HW2 7797   0.552   4.016   6.442
 2411SOL     OW 7798   1.008   5.180   6.063
 2411SOL    HW1 7799   0.962   5.252   6.011
 2411SOL    HW2 7800   1.004   5.200   6.161
 2412SOL     OW 7801   1.795   4.790   6.459
 2412SOL    HW1 7802   1.733   4.775   6.383
 2412SOL    HW2 7803   1.743   4.801   6.544
 2413SOL     OW 7804   1.227   5.274   7.092
 2413SOL    HW1 7805   1.233   5.197   7.156
 2413SOL    HW2 7806   1.175   5.248   7.012
 2414SOL     OW 7807   0.321   4.667   5.828
 2414SOL    HW1 7808   0.403   4.706   5.786
 2414SOL    HW2 7809   0.294   4.585   5.779
 2415SOL     OW 7810   1.458   4.459   6.314
 2415SOL    HW1 7811   1.453   4.394   6.389
 2415SOL    HW2 7812   1.538   4.518   6.327
 2416SOL     OW 7813   0.461   4.990   7.313
 2416SOL    HW1 7814   0.411   4.991   7.227
 2416SOL    HW2 7815   0.398   4.972   7.389
 2417SOL     OW 7816   1.111   5.500   5.823
 2417SOL    HW1 7817   1.051   5.438   5.873
 2417SOL    HW2 7818   1.142   5.456   5.738
 2418SOL     OW 7819   0.202   4.009   7.084
 2418SOL    HW1 7820   0.122   4.069   7.071
 2418SOL    HW2 7821   0.192   3.960   7.170
 2419SOL     OW 7822   1.632   5.101   5.667
 2419SOL    HW1 7823   1.600   5.195   5.657
 2419SOL    HW2 7824   1.556   5.038   5.655
 2420SOL     OW 7825   1.400   3.831   6.012
 2420SOL    HW1 7826   1.376   3.794   5.922
 2420SOL    HW2 7827   1.499   3.847   6.016
 2421SOL     OW 7828   0.382   4.424   6.066
 2421SOL    HW1 7829   0.427   4.334   6.063
 2421SOL    HW2 7830   0.288   4.413   6.099
 2422SOL     OW 7831   1.547   3.946   7.315
 2422SOL    HW1 7832   1.542   3.983   7.407
 2422SOL    HW2 7833   1.475   3.877   7.303
 2423SOL     OW 7834   0.614   3.846   5.703
 2423SOL    HW1 7835   0.712   3.824   5.710
 2423SOL    HW2 7836   0.583   3.829   5.610
 2424SOL     OW 7837   0.781   3.988   7.335
 2424SOL    HW1 7838   0.848   3.927   7.378
 2424SOL    HW2 7839   0.708   4.007   7.400
 2425SOL     OW 7840   1.351   4.314   7.019
 2425SOL    HW1 7841   1.379   4.271   7.104
 2425SOL    HW2 7842   1.376   4.410   7.020
 2426SOL     OW 7843   0.803   5.126   6.510
 2426SOL    HW1 7844   0.893   5.140   6.468
 2426SOL    HW2 7845   0.732   5.128   6.439
 2427SOL     OW 7846   0.922   4.227   6.485
 2427SOL    HW1 7847   0.897   4.218   6.389
 2427SOL    HW2 7848   0.970   4.145   6.516
 2428SOL     OW 7849   0.539   3.788   6.098
 2428SOL    HW1 7850   0.458   3.789   6.156
 2428SOL    HW2 7851   0.542   3.871   6.043
 2429SOL     OW 7852   1.434   4.912   5.627
 2429SOL    HW1 7853   1.466   4.836   5.684
 2429SOL    HW2 7854   1.342   4.939   5.657
 2430SOL     OW 7855   0.297   3.759   5.757
 2430SOL    HW1 7856   0.346   3.843   5.736
 2430SOL    HW2 7857   0.359   3.694   5.802
 2431SOL     OW 7858   0.935   3.960   6.066
 2431SOL    HW1 7859   0.887   4.001   5.988
 2431SOL    HW2 7860   1.034   3.958   6.047
 2432SOL     OW 7861   1.076   4.407   7.050
 2432SOL    HW1 7862   0.996   4.346   7.053
 2432SOL    HW2 7863   1.157   4.354   7.026
 2433SOL     OW 7864   1.227   5.294   6.379
 2433SOL    HW1 7865   1.248   5.368   6.314
 2433SOL    HW2 7866   1.295   5.294   6.452
 2434SOL     OW 7867   0.459   4.876   6.327
 2434SOL    HW1 7868   0.388   4.849   6.392
 2434SOL    HW2 7869   0.433   4.848   6.234
 2435SOL     OW 7870   1.032   4.273   5.602
 2435SOL    HW1 7871   0.991   4.355   5.563
 2435SOL    HW2 7872   1.096   4.299   5.675
 2436SOL     OW 7873   0.078   4.280   6.972
 2436SOL    HW1 7874   0.170   4.279   6.931
 2436SOL    HW2 7875   0.072   4.354   7.039
 2437SOL     OW 7876   0.561   3.946   6.733
 2437SOL    HW1 7877   0.599   3.862   6.770
 2437SOL    HW2 7878   0.473   3.965   6.777
 2438SOL     OW 7879   0.866   4.178   6.228
 2438SOL    HW1 7880   0.834   4.250   6.166
 2438SOL    HW2 7881   0.890   4.097   6.175
 2439SOL     OW 7882   1.017   3.763   6.339
 2439SOL    HW1 7883   0.945   3.768   6.270
 2439SOL    HW2 7884   0.993   3.694   6.408
 2440SOL     OW 7885   1.429   4.897   6.453
 2440SOL    HW1 7886   1.374   4.813   6.446
 2440SOL    HW2 7887   1.455   4.926   6.361
 2441SOL     OW 7888   1.466   4.314   6.578
 2441SOL    HW1 7889   1.436   4.219   6.585
 2441SOL    HW2 7890   1.539   4.330   6.644
 2442SOL     OW 7891   1.857   4.557   5.963
 2442SOL    HW1 7892   1.899   4.493   6.027
 2442SOL    HW2 7893   1.819   4.506   5.885
 2443SOL     OW 7894   0.488   5.109   5.760
 2443SOL    HW1 7895   0.401   5.094   5.807
 2443SOL    HW2 7896   0.471   5.135   5.665
 2444SOL     OW 7897   1.664   5.004   6.243
 2444SOL    HW1 7898   1.763   5.012   6.257
 2444SOL    HW2 7899   1.619   5.088   6.274
 2445SOL     OW 7900   1.390   4.299   5.664
 2445SOL    HW1 7901   1.336   4.278   5.745
 2445SOL    HW2 7902   1.481   4.258   5.673
 2446SOL     OW 7903   0.527   3.980   5.914
 2446SOL    HW1 7904   0.554   3.921   5.839
 2446SOL    HW2 7905   0.527   4.075   5.883
 2447SOL     OW 7906   1.754   4.947   7.174
 2447SOL    HW1 7907   1.845   4.908   7.161
 2447SOL    HW2 7908   1.762   5.043   7.198
 2448SOL     OW 7909   1.064   5.071   6.926
 2448SOL    HW1 7910   0.984   5.048   6.981
 2448SOL    HW2 7911   1.147   5.045   6.975
 2449SOL     OW 7912   1.111   4.919   6.686
 2449SOL    HW1 7913   1.071   4.963   6.767
 2449SOL    HW2 7914   1.070   4.956   6.603
 2450SOL     OW 7915   1.638   4.823   6.665
 2450SOL    HW1 7916   1.643   4.904   6.724
 2450SOL    HW2 7917   1.552   4.825   6.614
 2451SOL     OW 7918   0.915   3.813   6.988
 2451SOL    HW1 7919   0.940   3.793   6.893
 2451SOL    HW2 7920   0.987   3.869   7.030
 2452SOL     OW 7921   0.980   4.840   7.305
 2452SOL    HW1 7922   0.881   4.846   7.315
 2452SOL    HW2 7923   1.003   4.760   7.249
 2453SOL     OW 7924   0.705   4.774   5.954
 2453SOL    HW1 7925   0.691   4.781   6.053
 2453SOL    HW2 7926   0.789   4.723   5.936
 2454SOL     OW 7927   0.410   4.537   6.837
 2454SOL    HW1 7928   0.496   4.549   6.887
 2454SOL    HW2 7929   0.368   4.450   6.864
 2455SOL     OW 7930   1.274   4.110   6.848
 2455SOL    HW1 7931   1.295   4.184   6.912
 2455SOL    HW2 7932   1.185   4.127   6.805
 2456SOL     OW 7933   0.064   5.288   6.917
 2456SOL    HW1 7934   0.018   5.370   6.883
 2456SOL    HW2 7935   0.162   5.307   6.926
 2457SOL     OW 7936   0.367   4.824   6.087
 2457SOL    HW1 7937   0.360   4.907   6.031
 2457SOL    HW2 7938   0.371   4.744   6.027
 2458SOL     OW 7939   0.566   4.261   6.451
 2458SOL    HW1 7940   0.578   4.327   6.377
 2458SOL    HW2 7941   0.612   4.295   6.534
 2459SOL     OW 7942   1.252   5.072   5.974
 2459SOL    HW1 7943   1.302   5.149   6.014
 2459SOL    HW2 7944   1.157   5.074   6.006
 2460SOL     OW 7945   1.272   5.169   6.728
 2460SOL    HW1 7946   1.319   5.182   6.815
 2460SOL    HW2 7947   1.206   5.095   6.737
 2461SOL     OW 7948   1.582   4.363   6.058
 2461SOL    HW1 7949   1.551   4.424   6.131
 2461SOL    HW2 7950   1.632   4.415   5.989
 2462SOL     OW 7951   0.354   5.234   6.915
 2462SOL    HW1 7952   0.333   5.190   6.828
 2462SOL    HW2 7953   0.451   5.260   6.918
 2463SOL     OW 7954   0.402   4.475   7.184
 2463SOL    HW1 7955   0.470   4.530   7.137
 2463SOL    HW2 7956   0.442   4.387   7.211
 2464SOL     OW 7957   1.587   4.503   7.256
 2464SOL    HW1 7958   1.495   4.541   7.251
 2464SOL    HW2 7959   1.647   4.550   7.191
 2465SOL     OW 7960   1.013   3.829   7.356
 2465SOL    HW1 7961   1.019   3.914   7.304
 2465SOL    HW2 7962   1.045   3.753   7.299
 2466SOL     OW 7963   0.504   3.774   7.326
 2466SOL    HW1 7964   0.462   3.717   7.256
 2466SOL    HW2 7965   0.438   3.843   7.358
 2467SOL     OW 7966   0.573   4.594   6.615
 2467SOL    HW1 7967   0.617   4.683   6.606
 2467SOL    HW2 7968   0.510   4.594   6.692
 2468SOL     OW 7969   1.360   4.586   6.631
 2468SOL    HW1 7970   1.285   4.586   6.565
 2468SOL    HW2 7971   1.397   4.494   6.640
 2469SOL     OW 7972   1.209   4.249   5.861
 2469SOL    HW1 7973   1.222   4.165   5.915
 2469SOL    HW2 7974   1.180   4.323   5.921
 2470SOL     OW 7975   0.307   3.937   6.817
 2470SOL    HW1 7976   0.284   3.974   6.907
 2470SOL    HW2 7977   0.277   3.842   6.811
 2471SOL     OW 7978   0.037   5.034   6.868
 2471SOL    HW1 7979   0.090   4.985   6.936
 2471SOL    HW2 7980   0.059   5.132   6.873
 2472SOL     OW 7981   0.732   4.358   6.650
 2472SOL    HW1 7982   0.791   4.332   6.574
 2472SOL    HW2 7983   0.704   4.454   6.639
 2473SOL     OW 7984   1.728   4.659   7.440
 2473SOL    HW1 7985   1.682   4.652   7.351
 2473SOL    HW2 7986   1.666   4.703   7.506
 2474SOL     OW 7987   0.307   3.787   6.204
 2474SOL    HW1 7988   0.296   3.881   6.237
 2474SOL    HW2 7989   0.302   3.724   6.281
 2475SOL     OW 7990   1.622   4.091   5.960
 2475SOL    HW1 7991   1.624   4.015   6.024
 2475SOL    HW2 7992   1.574   4.168   6.000
 2476SOL     OW 7993   1.023   4.490   6.552
 2476SOL    HW1 7994   1.038   4.511   6.648
 2476SOL    HW2 7995   0.993   4.395   6.543
 2477SOL     OW 7996   1.859   5.242   7.191
 2477SOL    HW1 7997   1.873   5.269   7.096
 2477SOL    HW2 7998   1.942   5.264   7.244
 2478SOL     OW 7999   0.350   4.622   7.390
 2478SOL    HW1 8000   0.426   4.666   7.438
 2478SOL    HW2 8001   0.385   4.575   7.308
 2479SOL     OW 8002   1.540   3.998   5.711
 2479SOL    HW1 8003   1.479   3.923   5.734
 2479SOL    HW2 8004   1.562   4.050   5.794
 2480SOL     OW 8005   1.303   4.562   5.628
 2480SOL    HW1 8006   1.337   4.469   5.643
 2480SOL    HW2 8007   1.321   4.589   5.533
 2481SOL     OW 8008   1.068   5.057   6.435
 2481SOL    HW1 8009   1.075   4.973   6.380
 2481SOL    HW2 8010   1.130   5.126   6.399
 2482SOL     OW 8011   0.319   4.534   6.535
 2482SOL    HW1 8012   0.412   4.570   6.540
 2482SOL    HW2 8013   0.313   4.449   6.587
 2483SOL     OW 8014   0.339   4.233   6.592
 2483SOL    HW1 8015   0.287   4.150   6.575
 2483SOL    HW2 8016   0.416   4.238   6.528
 2484SOL     OW 8017   1.138   4.104   7.264
 2484SOL    HW1 8018   1.093   4.167   7.328
 2484SOL    HW2 8019   1.231   4.135   7.247
 2485SOL     OW 8020   1.160   3.931   7.063
 2485SOL    HW1 8021   1.160   3.995   7.140
 2485SOL    HW2 8022   1.188   3.979   6.980
 2486SOL     OW 8023   0.008   5.050   5.786
 2486SOL    HW1 8024  -0.085   5.071   5.755
 2486SOL    HW2 8025   0.018   4.951   5.799
 2487SOL     OW 8026   1.002   4.520   6.824
 2487SOL    HW1 8027   1.043   4.488   6.910
 2487SOL    HW2 8028   0.906   4.493   6.821
 2488SOL     OW 8029   0.040   4.268   6.700
 2488SOL    HW1 8030   0.125   4.235   6.659
 2488SOL    HW2 8031   0.053   4.283   6.798
 2489SOL     OW 8032   0.189   4.244   7.308
 2489SOL    HW1 8033   0.248   4.204   7.238
 2489SOL    HW2 8034   0.131   4.315   7.267
 2490SOL     OW 8035   1.369   4.674   7.246
 2490SOL    HW1 8036   1.408   4.763   7.266
 2490SOL    HW2 8037   1.379   4.654   7.149
 2491SOL     OW 8038   0.815   4.296   5.911
 2491SOL    HW1 8039   0.822   4.207   5.865
 2491SOL    HW2 8040   0.721   4.330   5.903
 2492SOL     OW 8041   1.657   4.328   6.792
 2492SOL    HW1 8042   1.619   4.259   6.854
 2492SOL    HW2 8043   1.739   4.292   6.748
 2493SOL     OW 8044   0.252   5.288   7.330
 2493SOL    HW1 8045   0.222   5.345   7.406
 2493SOL    HW2 8046   0.245   5.191   7.356
 2494SOL     OW 8047   0.671   4.188   6.855
 2494SOL    HW1 8048   0.637   4.099   6.825
 2494SOL    HW2 8049   0.697   4.242   6.775
 2495SOL     OW 8050   0.473   4.224   5.777
 2495SOL    HW1 8051   0.534   4.304   5.781
 2495SOL    HW2 8052   0.378   4.255   5.784
 2496SOL     OW 8053   0.159   4.861   7.052
 2496SOL    HW1 8054   0.181   4.800   7.128
 2496SOL    HW2 8055   0.169   4.812   6.966
 2497SOL     OW 8056   1.347   4.783   6.820
 2497SOL    HW1 8057   1.371   4.720   6.746
 2497SOL    HW2 8058   1.257   4.823   6.802
 2498SOL     OW 8059   1.302   4.579   5.895
 2498SOL    HW1 8060   1.216   4.548   5.937
 2498SOL    HW2 8061   1.298   4.565   5.796
 2499SOL     OW 8062   0.083   4.982   6.608
 2499SOL    HW1 8063   0.078   4.981   6.708
 2499SOL    HW2 8064   0.000   4.941   6.570
 2500SOL     OW 8065   0.688   5.386   7.302
 2500SOL    HW1 8066   0.632   5.467   7.311
 2500SOL    HW2 8067   0.740   5.390   7.216
 2501SOL     OW 8068   1.726   3.859   6.109
 2501SOL    HW1 8069   1.799   3.842   6.042
 2501SOL    HW2 8070   1.695   3.772   6.147
 2502SOL     OW 8071   1.280   4.651   6.258
 2502SOL    HW1 8072   1.340   4.570   6.260
 2502SOL    HW2 8073   1.320   4.720   6.198
 2503SOL     OW 8074   0.830   4.997   7.008
 2503SOL    HW1 8075   0.825   5.030   7.103
 2503SOL    HW2 8076   0.744   5.016   6.962
 2504SOL     OW 8077   1.841   3.899   6.549
 2504SOL    HW1 8078   1.880   3.814   6.513
 2504SOL    HW2 8079   1.743   3.901   6.530
 2505SOL     OW 8080   0.263   4.050   6.306
 2505SOL    HW1 8081   0.184   4.101   6.272
 2505SOL    HW2 8082   0.254   4.035   6.404
 2506SOL     OW 8083   0.822   4.726   6.958
 2506SOL    HW1 8084   0.862   4.725   6.866
 2506SOL    HW2 8085   0.832   4.818   6.998
 2507SOL     OW 8086   0.916   4.634   5.877
 2507SOL    HW1 8087   0.979   4.672   5.809
 2507SOL    HW2 8088   0.956   4.551   5.916
 2508SOL     OW 8089   0.372   5.012   7.076
 2508SOL    HW1 8090   0.359   5.105   7.042
 2508SOL    HW2 8091   0.288   4.960   7.063
 2509SOL     OW 8092   1.614   5.016   6.875
 2509SOL    HW1 8093   1.674   5.019   6.955
 2509SOL    HW2 8094   1.539   5.080   6.888
 2510SOL     OW 8095   1.039   4.822   6.282
 2510SOL    HW1 8096   0.969   4.775   6.336
 2510SOL    HW2 8097   1.098   4.754   6.239
 2511SOL     OW 8098   1.014   3.960   6.557
 2511SOL    HW1 8099   1.006   3.924   6.464
 2511SOL    HW2 8100   1.012   3.884   6.622
 2512SOL     OW 8101   1.709   4.109   6.967
 2512SOL    HW1 8102   1.782   4.178   6.971
 2512SOL    HW2 8103   1.737   4.034   6.908
 2513SOL     OW 8104   0.255   5.072   5.876
 2513SOL    HW1 8105   0.159   5.073   5.849
 2513SOL    HW2 8106   0.267   5.125   5.960
 2514SOL     OW 8107   0.105   4.737   7.312
 2514SOL    HW1 8108   0.028   4.704   7.366
 2514SOL    HW2 8109   0.190   4.707   7.354
 2515SOL     OW 8110   0.672   3.927   7.075
 2515SOL    HW1 8111   0.762   3.911   7.035
 2515SOL    HW2 8112   0.680   3.932   7.174
 2516SOL     OW 8113   0.075   4.069   5.619
 2516SOL    HW1 8114  -0.017   4.041   5.590
 2516SOL    HW2 8115   0.106   4.146   5.563
 2517SOL     OW 8116   1.440   4.580   6.984
 2517SOL    HW1 8117   1.383   4.632   6.921
 2517SOL    HW2 8118   1.536   4.592   6.960
 2518SOL     OW 8119   0.072   3.890   5.904
 2518SOL    HW1 8120   0.055   3.973   5.850
 2518SOL    HW2 8121   0.162   3.853   5.882
 2519SOL     OW 8122   1.183   5.059   5.705
 2519SOL    HW1 8123   1.084   5.048   5.707
 2519SOL    HW2 8124   1.217   5.074   5.798
 2520SOL     OW 8125   0.613   4.566   7.017
 2520SOL    HW1 8126   0.669   4.647   7.000
 2520SOL    HW2 8127   0.672   4.486   7.020
 2521SOL     OW 8128   0.716   4.289   7.294
 2521SOL    HW1 8129   0.735   4.354   7.368
 2521SOL    HW2 8130   0.776   4.209   7.303
 2522SOL     OW 8131   1.450   4.944   7.219
 2522SOL    HW1 8132   1.441   4.934   7.318
 2522SOL    HW2 8133   1.546   4.937   7.193
 2523SOL     OW 8134   1.674   4.607   6.840
 2523SOL    HW1 8135   1.647   4.518   6.803
 2523SOL    HW2 8136   1.675   4.675   6.767
 2524SOL     OW 8137   1.225   4.049   6.035
 2524SOL    HW1 8138   1.290   3.975   6.024
 2524SOL    HW2 8139   1.245   4.099   6.119
 2525SOL     OW 8140   0.594   4.469   6.238
 2525SOL    HW1 8141   0.644   4.554   6.219
 2525SOL    HW2 8142   0.506   4.471   6.190
 2526SOL     OW 8143   1.777   4.066   7.228
 2526SOL    HW1 8144   1.760   4.097   7.134
 2526SOL    HW2 8145   1.693   4.029   7.266
 2527SOL     OW 8146   1.730   4.658   7.103
 2527SOL    HW1 8147   1.768   4.749   7.118
 2527SOL    HW2 8148   1.722   4.641   7.004
 2528SOL     OW 8149   0.859   5.098   5.602
 2528SOL    HW1 8150   0.813   5.113   5.690
 2528SOL    HW2 8151   0.903   5.183   5.572
 2529SOL     OW 8152   0.859   4.680   6.447
 2529SOL    HW1 8153   0.913   4.611   6.495
 2529SOL    HW2 8154   0.827   4.749   6.513
 2530SOL     OW 8155   1.083   4.708   5.673
 2530SOL    HW1 8156   1.060   4.761   5.591
 2530SOL    HW2 8157   1.164   4.652   5.654
 2531SOL     OW 8158   0.221   5.038   7.430
 2531SOL    HW1 8159   0.156   4.965   7.409
 2531SOL    HW2 8160   0.225   5.052   7.528
 2532SOL     OW 8161   0.079   4.964   6.239
 2532SOL    HW1 8162   0.078   4.917   6.327
 2532SOL    HW2 8163   0.161   4.936   6.188
 2533SOL     OW 8164   0.672   5.115   7.210
 2533SOL    HW1 8165   0.594   5.065   7.248
 2533SOL    HW2 8166   0.669   5.210   7.241
 2534SOL     OW 8167   1.824   3.916   6.813
 2534SOL    HW1 8168   1.820   3.826   6.857
 2534SOL    HW2 8169   1.827   3.905   6.714
 2535SOL     OW 8170   0.428   4.148   6.106
 2535SOL    HW1 8171   0.458   4.076   6.044
 2535SOL    HW2 8172   0.389   4.108   6.189
 2536SOL     OW 8173   1.705   5.211   6.690
 2536SOL    HW1 8174   1.612   5.186   6.663
 2536SOL    HW2 8175   1.731   5.161   6.772
 2537SOL     OW 8176   0.317   4.271   6.866
 2537SOL    HW1 8177   0.355   4.212   6.938
 2537SOL    HW2 8178   0.357   4.245   6.778
 2538SOL     OW 8179   1.424   3.938   6.698
 2538SOL    HW1 8180   1.476   3.873   6.753
 2538SOL    HW2 8181   1.375   4.001   6.759
 2539SOL     OW 8182   1.001   3.758   6.740
 2539SOL    HW1 8183   0.938   3.686   6.709
 2539SOL    HW2 8184   1.094   3.722   6.740
 2540SOL     OW 8185   0.770   5.054   5.887
 2540SOL    HW1 8186   0.724   4.967   5.904
 2540SOL    HW2 8187   0.861   5.051   5.928
 2541SOL     OW 8188   0.618   5.291   6.870
 2541SOL    HW1 8189   0.613   5.373   6.927
 2541SOL    HW2 8190   0.707   5.288   6.825
 2542SOL     OW 8191   1.352   3.776   5.754
 2542SOL    HW1 8192   1.387   3.735   5.670
 2542SOL    HW2 8193   1.262   3.738   5.774
 2543SOL     OW 8194   1.300   4.177   6.277
 2543SOL    HW1 8195   1.241   4.257   6.281
 2543SOL    HW2 8196   1.315   4.142   6.370
 2544SOL     OW 8197   1.593   3.945   6.468
 2544SOL    HW1 8198   1.509   3.944   6.522
 2544SOL    HW2 8199   1.595   4.028   6.412
 2545SOL     OW 8200   0.039   4.801   5.886
 2545SOL    HW1 8201   0.138   4.790   5.877
 2545SOL    HW2 8202  -0.001   4.715   5.918
 2546SOL     OW 8203   0.230   4.352   7.561
 2546SOL    HW1 8204   0.137   4.350   7.598
 2546SOL    HW2 8205   0.231   4.313   7.469
 2547SOL     OW 8206   1.755   4.331   7.679
 2547SOL    HW1 8207   1.743   4.318   7.580
 2547SOL    HW2 8208   1.725   4.250   7.728
 2548SOL     OW 8209   0.231   5.437   7.931
 2548SOL    HW1 8210   0.265   5.514   7.985
 2548SOL    HW2 8211   0.275   5.437   7.841
 2549SOL     OW 8212   0.230   5.158   7.986
 2549SOL    HW1 8213   0.204   5.254   7.986
 2549SOL    HW2 8214   0.159   5.104   8.031
 2550SOL     OW 8215   0.606   4.688   7.571
 2550SOL    HW1 8216   0.613   4.772   7.517
 2550SOL    HW2 8217   0.652   4.701   7.659
 2551SOL     OW 8218   0.027   5.320   7.565
 2551SOL    HW1 8219   0.008   5.224   7.586
 2551SOL    HW2 8220  -0.006   5.378   7.640
 2552SOL     OW 8221   1.689   4.646   8.060
 2552SOL    HW1 8222   1.784   4.617   8.068
 2552SOL    HW2 8223   1.681   4.711   7.985
 2553SOL     OW 8224   1.641   4.832   7.880
 2553SOL    HW1 8225   1.727   4.834   7.828
 2553SOL    HW2 8226   1.655   4.879   7.968
 2554SOL     OW 8227   0.809   3.728   7.950
 2554SOL    HW1 8228   0.849   3.819   7.941
 2554SOL    HW2 8229   0.709   3.736   7.956
 2555SOL     OW 8230   1.525   4.723   7.638
 2555SOL    HW1 8231   1.462   4.647   7.651
 2555SOL    HW2 8232   1.573   4.741   7.724
 2556SOL     OW 8233   0.598   4.453   7.718
 2556SOL    HW1 8234   0.622   4.522   7.650
 2556SOL    HW2 8235   0.520   4.486   7.772
 2557SOL     OW 8236   0.076   4.535   8.237
 2557SOL    HW1 8237   0.175   4.523   8.246
 2557SOL    HW2 8238   0.052   4.630   8.258
 2558SOL     OW 8239   0.865   4.072   7.643
 2558SOL    HW1 8240   0.924   4.135   7.594
 2558SOL    HW2 8241   0.884   3.978   7.614
 2559SOL     OW 8242   0.321   4.667   7.690
 2559SOL    HW1 8243   0.403   4.706   7.648
 2559SOL    HW2 8244   0.294   4.585   7.641
 2560SOL     OW 8245   1.111   5.500   7.685
 2560SOL    HW1 8246   1.051   5.438   7.735
 2560SOL    HW2 8247   1.142   5.456   7.600
 2561SOL     OW 8248   1.632   5.101   7.529
 2561SOL    HW1 8249   1.600   5.195   7.519
 2561SOL    HW2 8250   1.556   5.038   7.517
 2562SOL     OW 8251   1.400   3.831   7.874
 2562SOL    HW1 8252   1.376   3.794   7.784
 2562SOL    HW2 8253   1.499   3.847   7.878
 2563SOL     OW 8254   0.382   4.424   7.928
 2563SOL    HW1 8255   0.427   4.334   7.925
 2563SOL    HW2 8256   0.288   4.413   7.961
 2564SOL     OW 8257   0.614   3.846   7.565
 2564SOL    HW1 8258   0.712   3.824   7.572
 2564SOL    HW2 8259   0.583   3.829   7.472
 2565SOL     OW 8260   0.539   3.788   7.960
 2565SOL    HW1 8261   0.458   3.789   8.018
 2565SOL    HW2 8262   0.542   3.871   7.905
 2566SOL     OW 8263   1.434   4.912   7.489
 2566SOL    HW1 8264   1.466   4.836   7.546
 2566SOL    HW2 8265   1.342   4.939   7.519
 2567SOL     OW 8266   0.297   3.759   7.619
 2567SOL    HW1 8267   0.346   3.843   7.598
 2567SOL    HW2 8268   0.359   3.694   7.664
 2568SOL     OW 8269   0.935   3.960   7.928
 2568SOL    HW1 8270   0.887   4.001   7.850
 2568SOL    HW2 8271   1.034   3.958   7.909
 2569SOL     OW 8272   0.459   4.876   8.189
 2569SOL    HW1 8273   0.388   4.849   8.254
 2569SOL    HW2 8274   0.433   4.848   8.096
 2570SOL     OW 8275   1.032   4.273   7.464
 2570SOL    HW1 8276   0.991   4.355   7.425
 2570SOL    HW2 8277   1.096   4.299   7.537
 2571SOL     OW 8278   1.857   4.557   7.825
 2571SOL    HW1 8279   1.899   4.493   7.889
 2571SOL    HW2 8280   1.819   4.506   7.747
 2572SOL     OW 8281   0.488   5.109   7.622
 2572SOL    HW1 8282   0.401   5.094   7.669
 2572SOL    HW2 8283   0.471   5.135   7.527
 2573SOL     OW 8284   1.390   4.299   7.526
 2573SOL    HW1 8285   1.336   4.278   7.607
 2573SOL    HW2 8286   1.481   4.258   7.535
 2574SOL     OW 8287   0.527   3.980   7.776
 2574SOL    HW1 8288   0.554   3.921   7.701
 2574SOL    HW2 8289   0.527   4.075   7.745
 2575SOL     OW 8290   0.705   4.774   7.816
 2575SOL    HW1 8291   0.691   4.781   7.915
 2575SOL    HW2 8292   0.789   4.723   7.798
 2576SOL     OW 8293   0.367   4.824   7.949
 2576SOL    HW1 8294   0.360   4.907   7.893
 2576SOL    HW2 8295   0.371   4.744   7.889
 2577SOL     OW 8296   1.252   5.072   7.836
 2577SOL    HW1 8297   1.302   5.149   7.876
 2577SOL    HW2 8298   1.157   5.074   7.868
 2578SOL     OW 8299   1.582   4.363   7.920
 2578SOL    HW1 8300   1.551   4.424   7.993
 2578SOL    HW2 8301   1.632   4.415   7.851
 2579SOL     OW 8302   1.209   4.249   7.723
 2579SOL    HW1 8303   1.222   4.165   7.777
 2579SOL    HW2 8304   1.180   4.323   7.783
 2580SOL     OW 8305   1.622   4.091   7.822
 2580SOL    HW1 8306   1.624   4.015   7.886
 2580SOL    HW2 8307   1.574   4.168   7.862
 2581SOL     OW 8308   1.540   3.998   7.573
 2581SOL    HW1 8309   1.479   3.923   7.596
 2581SOL    HW2 8310   1.562   4.050   7.656
 2582SOL     OW 8311   1.303   4.562   7.490
 2582SOL    HW1 8312   1.337   4.469   7.505
 2582SOL    HW2 8313   1.321   4.589   7.395
 2583SOL     OW 8314   0.008   5.050   7.648
 2583SOL    HW1 8315  -0.085   5.071   7.617
 2583SOL    HW2 8316   0.018   4.951   7.661
 2584SOL     OW 8317   0.815   4.296   7.773
 2584SOL    HW1 8318   0.822   4.207   7.727
 2584SOL    HW2 8319   0.721   4.330   7.765
 2585SOL     OW 8320   0.473   4.224   7.639
 2585SOL    HW1 8321   0.534   4.304   7.643
 2585SOL    HW2 8322   0.378   4.255   7.646
 2586SOL     OW 8323   1.302   4.579   7.757
 2586SOL    HW1 8324   1.216   4.548   7.799
 2586SOL    HW2 8325   1.298   4.565   7.658
 2587SOL     OW 8326   1.726   3.859   7.971
 2587SOL    HW1 8327   1.799   3.842   7.904
 2587SOL    HW2 8328   1.695   3.772   8.009
 2588SOL     OW 8329   0.916   4.634   7.739
 2588SOL    HW1 8330   0.979   4.672   7.671
 2588SOL    HW2 8331   0.956   4.551   7.778
 2589SOL     OW 8332   0.255   5.072   7.738
 2589SOL    HW1 8333   0.159   5.073   7.711
 2589SOL    HW2 8334   0.267   5.125   7.822
 2590SOL     OW 8335   0.075   4.069   7.481
 2590SOL    HW1 8336  -0.017   4.041   7.452
 2590SOL    HW2 8337   0.106   4.146   7.425
 2591SOL     OW 8338   0.072   3.890   7.766
 2591SOL    HW1 8339   0.055   3.973   7.712
 2591SOL    HW2 8340   0.162   3.853   7.744
 2592SOL     OW 8341   1.183   5.059   7.567
 2592SOL    HW1 8342   1.084   5.048   7.569
 2592SOL    HW2 8343   1.217   5.074   7.660
 2593SOL     OW 8344   1.225   4.049   7.897
 2593SOL    HW1 8345   1.290   3.975   7.886
 2593SOL    HW2 8346   1.245   4.099   7.981
 2594SOL     OW 8347   0.594   4.469   8.100
 2594SOL    HW1 8348   0.644   4.554   8.081
 2594SOL    HW2 8349   0.506   4.471   8.052
 2595SOL     OW 8350   0.859   5.098   7.464
 2595SOL    HW1 8351   0.813   5.113   7.552
 2595SOL    HW2 8352   0.903   5.183   7.434
 2596SOL     OW 8353   1.083   4.708   7.535
 2596SOL    HW1 8354   1.060   4.761   7.453
 2596SOL    HW2 8355   1.164   4.652   7.516
 2597SOL     OW 8356   0.428   4.148   7.968
 2597SOL    HW1 8357   0.458   4.076   7.906
 2597SOL    HW2 8358   0.389   4.108   8.051
 2598SOL     OW 8359   0.770   5.054   7.749
 2598SOL    HW1 8360   0.724   4.967   7.766
 2598SOL    HW2 8361   0.861   5.051   7.790
 2599SOL     OW 8362   1.352   3.776   7.616
 2599SOL    HW1 8363   1.387   3.735   7.532
 2599SOL    HW2 8364   1.262   3.738   7.636
 2600SOL     OW 8365   0.039   4.801   7.748
 2600SOL    HW1 8366   0.138   4.790   7.739
 2600SOL    HW2 8367  -0.001   4.715   7.780
 2601SOL     OW 8368   2.092   0.628   0.113
 2601SOL    HW1 8369   1.999   0.626   0.150
 2601SOL    HW2 8370   2.093   0.589   0.021
 2602SOL     OW 8371   2.087   0.275   0.996
 2602SOL    HW1 8372   2.122   0.258   1.088
 2602SOL    HW2 8373   1.999   0.230   0.984
 2603SOL     OW 8374   1.881   0.368   0.647
 2603SOL    HW1 8375   1.799   0.411   0.686
 2603SOL    HW2 8376   1.853   0.295   0.584
 2604SOL     OW 8377   2.431   1.275   1.165
 2604SOL    HW1 8378   2.338   1.268   1.128
 2604SOL    HW2 8379   2.442   1.364   1.209
 2605SOL     OW 8380   3.417   1.511   0.703
 2605SOL    HW1 8381   3.360   1.495   0.784
 2605SOL    HW2 8382   3.358   1.521   0.623
 2606SOL     OW 8383   2.997   0.703   0.717
 2606SOL    HW1 8384   3.054   0.781   0.692
 2606SOL    HW2 8385   2.937   0.729   0.793
 2607SOL     OW 8386   3.617   0.607   0.231
 2607SOL    HW1 8387   3.605   0.594   0.132
 2607SOL    HW2 8388   3.587   0.526   0.280
 2608SOL     OW 8389   2.630   1.144   1.023
 2608SOL    HW1 8390   2.552   1.161   1.083
 2608SOL    HW2 8391   2.664   1.231   0.987
 2609SOL     OW 8392   2.712   0.798   1.823
 2609SOL    HW1 8393   2.708   0.874   1.888
 2609SOL    HW2 8394   2.734   0.834   1.732
 2610SOL     OW 8395   2.547   1.012   0.665
 2610SOL    HW1 8396   2.616   0.996   0.735
 2610SOL    HW2 8397   2.474   1.069   0.703
 2611SOL     OW 8398   2.548   1.161   1.803
 2611SOL    HW1 8399   2.608   1.240   1.817
 2611SOL    HW2 8400   2.462   1.192   1.762
 2612SOL     OW 8401   2.197   1.435   1.061
 2612SOL    HW1 8402   2.119   1.404   1.008
 2612SOL    HW2 8403   2.255   1.493   1.004
 2613SOL     OW 8404   3.322   1.505   1.339
 2613SOL    HW1 8405   3.346   1.599   1.365
 2613SOL    HW2 8406   3.306   1.451   1.421
 2614SOL     OW 8407   2.300   0.392   1.499
 2614SOL    HW1 8408   2.382   0.336   1.508
 2614SOL    HW2 8409   2.219   0.334   1.503
 2615SOL     OW 8410   3.465   0.447   0.737
 2615SOL    HW1 8411   3.391   0.493   0.687
 2615SOL    HW2 8412   3.516   0.515   0.790
 2616SOL     OW 8413   2.093   1.713   0.483
 2616SOL    HW1 8414   2.127   1.790   0.537
 2616SOL    HW2 8415   2.137   1.713   0.393
 2617SOL     OW 8416   2.989   1.341   1.690
 2617SOL    HW1 8417   3.036   1.341   1.778
 2617SOL    HW2 8418   2.941   1.254   1.679
 2618SOL     OW 8419   2.092   1.434   0.538
 2618SOL    HW1 8420   2.066   1.530   0.538
 2618SOL    HW2 8421   2.021   1.380   0.583
 2619SOL     OW 8422   2.102   1.091   0.886
 2619SOL    HW1 8423   2.116   1.007   0.938
 2619SOL    HW2 8424   2.047   1.155   0.941
 2620SOL     OW 8425   2.482   1.786   1.439
 2620SOL    HW1 8426   2.390   1.769   1.474
 2620SOL    HW2 8427   2.510   1.878   1.465
 2621SOL     OW 8428   2.468   0.964   0.123
 2621SOL    HW1 8429   2.475   1.048   0.069
 2621SOL    HW2 8430   2.514   0.977   0.211
 2622SOL     OW 8431   3.456   0.114   1.480
 2622SOL    HW1 8432   3.438   0.181   1.408
 2622SOL    HW2 8433   3.453   0.160   1.569
 2623SOL     OW 8434   1.984   0.643   0.563
 2623SOL    HW1 8435   1.939   0.555   0.580
 2623SOL    HW2 8436   1.983   0.697   0.647
 2624SOL     OW 8437   3.704   1.767   0.359
 2624SOL    HW1 8438   3.758   1.738   0.439
 2624SOL    HW2 8439   3.734   1.857   0.330
 2625SOL     OW 8440   1.889   1.596   0.117
 2625SOL    HW1 8441   1.870   1.500   0.138
 2625SOL    HW2 8442   1.856   1.654   0.192
 2626SOL     OW 8443   3.551   0.922   0.612
 2626SOL    HW1 8444   3.646   0.893   0.620
 2626SOL    HW2 8445   3.543   0.987   0.537
 2627SOL     OW 8446   3.503   1.108   0.432
 2627SOL    HW1 8447   3.589   1.110   0.380
 2627SOL    HW2 8448   3.517   1.155   0.520
 2628SOL     OW 8449   1.975   0.737   1.597
 2628SOL    HW1 8450   2.063   0.724   1.642
 2628SOL    HW2 8451   1.962   0.834   1.575
 2629SOL     OW 8452   2.475   1.365   0.726
 2629SOL    HW1 8453   2.426   1.278   0.735
 2629SOL    HW2 8454   2.452   1.408   0.639
 2630SOL     OW 8455   3.155   1.228   1.423
 2630SOL    HW1 8456   3.192   1.155   1.365
 2630SOL    HW2 8457   3.207   1.233   1.508
 2631SOL     OW 8458   2.671   0.004   0.502
 2631SOL    HW1 8459   2.711   0.095   0.493
 2631SOL    HW2 8460   2.571   0.012   0.508
 2632SOL     OW 8461   2.059   0.976   1.264
 2632SOL    HW1 8462   2.148   0.931   1.250
 2632SOL    HW2 8463   1.986   0.911   1.245
 2633SOL     OW 8464   3.387   0.999   0.190
 2633SOL    HW1 8465   3.324   0.923   0.203
 2633SOL    HW2 8466   3.435   1.017   0.276
 2634SOL     OW 8467   3.049   1.792   1.616
 2634SOL    HW1 8468   3.073   1.852   1.540
 2634SOL    HW2 8469   3.056   1.697   1.586
 2635SOL     OW 8470   2.179   0.251   1.801
 2635SOL    HW1 8471   2.250   0.322   1.807
 2635SOL    HW2 8472   2.091   0.290   1.829
 2636SOL     OW 8473   3.328   1.417   0.953
 2636SOL    HW1 8474   3.269   1.423   1.033
 2636SOL    HW2 8475   3.313   1.329   0.907
 2637SOL     OW 8476   3.529   1.714   0.572
 2637SOL    HW1 8477   3.488   1.691   0.484
 2637SOL    HW2 8478   3.511   1.640   0.637
 2638SOL     OW 8479   2.460   0.729   0.270
 2638SOL    HW1 8480   2.484   0.798   0.202
 2638SOL    HW2 8481   2.382   0.762   0.324
 2639SOL     OW 8482   3.143   0.345   0.944
 2639SOL    HW1 8483   3.057   0.295   0.931
 2639SOL    HW2 8484   3.205   0.291   1.000
 2640SOL     OW 8485   3.438   1.662   0.307
 2640SOL    HW1 8486   3.527   1.708   0.310
 2640SOL    HW2 8487   3.417   1.638   0.212
 2641SOL     OW 8488   2.669   0.605   1.465
 2641SOL    HW1 8489   2.622   0.602   1.554
 2641SOL    HW2 8490   2.618   0.550   1.399
 2642SOL     OW 8491   3.256   0.469   1.674
 2642SOL    HW1 8492   3.236   0.512   1.762
 2642SOL    HW2 8493   3.334   0.407   1.683
 2643SOL     OW 8494   2.835   0.890   1.572
 2643SOL    HW1 8495   2.881   0.806   1.543
 2643SOL    HW2 8496   2.779   0.924   1.497
 2644SOL     OW 8497   2.853   0.410   1.242
 2644SOL    HW1 8498   2.776   0.444   1.296
 2644SOL    HW2 8499   2.819   0.359   1.163
 2645SOL     OW 8500   2.903   0.701   0.429
 2645SOL    HW1 8501   2.929   0.697   0.525
 2645SOL    HW2 8502   2.818   0.650   0.415
 2646SOL     OW 8503   1.938   0.811   0.789
 2646SOL    HW1 8504   2.037   0.799   0.798
 2646SOL    HW2 8505   1.914   0.906   0.810
 2647SOL     OW 8506   1.992   1.821   1.571
 2647SOL    HW1 8507   1.982   1.806   1.670
 2647SOL    HW2 8508   1.906   1.857   1.535
 2648SOL     OW 8509   2.727   0.348   0.195
 2648SOL    HW1 8510   2.786   0.411   0.146
 2648SOL    HW2 8511   2.746   0.254   0.166
 2649SOL     OW 8512   3.581   0.585   1.831
 2649SOL    HW1 8513   3.555   0.674   1.795
 2649SOL    HW2 8514   3.579   0.517   1.758
 2650SOL     OW 8515   3.224   1.144   0.545
 2650SOL    HW1 8516   3.307   1.115   0.497
 2650SOL    HW2 8517   3.175   1.211   0.489
 2651SOL     OW 8518   2.412   0.196   0.885
 2651SOL    HW1 8519   2.407   0.191   0.985
 2651SOL    HW2 8520   2.414   0.292   0.856
 2652SOL     OW 8521   2.870   1.456   0.477
 2652SOL    HW1 8522   2.824   1.528   0.425
 2652SOL    HW2 8523   2.866   1.476   0.575
 2653SOL     OW 8524   2.213   1.801   0.853
 2653SOL    HW1 8525   2.263   1.715   0.859
 2653SOL    HW2 8526   2.278   1.878   0.850
 2654SOL     OW 8527   3.657   1.066   0.873
 2654SOL    HW1 8528   3.595   1.051   0.797
 2654SOL    HW2 8529   3.605   1.077   0.958
 2655SOL     OW 8530   3.089   1.550   1.506
 2655SOL    HW1 8531   3.095   1.473   1.570
 2655SOL    HW2 8532   3.037   1.524   1.426
 2656SOL     OW 8533   2.183   0.943   0.242
 2656SOL    HW1 8534   2.265   0.982   0.200
 2656SOL    HW2 8535   2.156   0.861   0.193
 2657SOL     OW 8536   3.320   0.735   0.728
 2657SOL    HW1 8537   3.315   0.670   0.803
 2657SOL    HW2 8538   3.400   0.794   0.741
 2658SOL     OW 8539   2.323   1.266   1.727
 2658SOL    HW1 8540   2.273   1.267   1.641
 2658SOL    HW2 8541   2.260   1.248   1.803
 2659SOL     OW 8542   2.973   1.776   0.237
 2659SOL    HW1 8543   2.913   1.714   0.287
 2659SOL    HW2 8544   3.004   1.732   0.152
 2660SOL     OW 8545   2.064   0.285   1.498
 2660SOL    HW1 8546   1.984   0.345   1.485
 2660SOL    HW2 8547   2.054   0.236   1.584
 2661SOL     OW 8548   3.494   1.377   0.081
 2661SOL    HW1 8549   3.462   1.471   0.071
 2661SOL    HW2 8550   3.418   1.314   0.069
 2662SOL     OW 8551   2.326   1.743   0.323
 2662SOL    HW1 8552   2.359   1.782   0.409
 2662SOL    HW2 8553   2.402   1.736   0.258
 2663SOL     OW 8554   3.262   0.107   0.426
 2663SOL    HW1 8555   3.238   0.070   0.336
 2663SOL    HW2 8556   3.361   0.123   0.430
 2664SOL     OW 8557   2.111   1.785   1.241
 2664SOL    HW1 8558   2.168   1.720   1.291
 2664SOL    HW2 8559   2.095   1.752   1.148
 2665SOL     OW 8560   2.802   1.698   0.904
 2665SOL    HW1 8561   2.882   1.641   0.925
 2665SOL    HW2 8562   2.753   1.658   0.827
 2666SOL     OW 8563   2.244   0.700   0.480
 2666SOL    HW1 8564   2.289   0.610   0.477
 2666SOL    HW2 8565   2.150   0.689   0.513
 2667SOL     OW 8566   3.409   0.222   1.729
 2667SOL    HW1 8567   3.404   0.259   1.821
 2667SOL    HW2 8568   3.337   0.153   1.717
 2668SOL     OW 8569   2.476   0.122   0.117
 2668SOL    HW1 8570   2.574   0.100   0.124
 2668SOL    HW2 8571   2.445   0.105   0.024
 2669SOL     OW 8572   2.643   0.264   1.749
 2669SOL    HW1 8573   2.710   0.203   1.792
 2669SOL    HW2 8574   2.570   0.283   1.814
 2670SOL     OW 8575   2.750   1.514   1.195
 2670SOL    HW1 8576   2.727   1.489   1.101
 2670SOL    HW2 8577   2.811   1.445   1.234
 2671SOL     OW 8578   3.213   0.590   1.433
 2671SOL    HW1 8579   3.241   0.547   1.518
 2671SOL    HW2 8580   3.238   0.686   1.434
 2672SOL     OW 8581   2.665   1.402   0.924
 2672SOL    HW1 8582   2.755   1.416   0.882
 2672SOL    HW2 8583   2.594   1.404   0.853
 2673SOL     OW 8584   2.784   0.503   0.899
 2673SOL    HW1 8585   2.759   0.494   0.803
 2673SOL    HW2 8586   2.832   0.421   0.930
 2674SOL     OW 8587   2.401   0.064   0.512
 2674SOL    HW1 8588   2.320   0.065   0.570
 2674SOL    HW2 8589   2.404   0.147   0.457
 2675SOL     OW 8590   3.296   1.188   0.041
 2675SOL    HW1 8591   3.328   1.112   0.098
 2675SOL    HW2 8592   3.204   1.215   0.071
 2676SOL     OW 8593   2.159   0.035   0.171
 2676SOL    HW1 8594   2.208   0.119   0.150
 2676SOL    HW2 8595   2.221  -0.030   0.216
 2677SOL     OW 8596   2.797   0.236   0.480
 2677SOL    HW1 8597   2.749   0.277   0.402
 2677SOL    HW2 8598   2.896   0.234   0.461
 2678SOL     OW 8599   2.938   0.683   1.464
 2678SOL    HW1 8600   2.858   0.622   1.467
 2678SOL    HW2 8601   3.019   0.630   1.440
 2679SOL     OW 8602   3.089   1.570   0.793
 2679SOL    HW1 8603   3.110   1.644   0.728
 2679SOL    HW2 8604   3.157   1.570   0.866
 2680SOL     OW 8605   2.321   1.152   0.741
 2680SOL    HW1 8606   2.250   1.125   0.806
 2680SOL    HW2 8607   2.295   1.124   0.648
 2681SOL     OW 8608   3.133   1.797   0.591
 2681SOL    HW1 8609   3.177   1.861   0.527
 2681SOL    HW2 8610   3.083   1.849   0.661
 2682SOL     OW 8611   2.894   0.549   0.016
 2682SOL    HW1 8612   2.853   0.631  -0.023
 2682SOL    HW2 8613   2.958   0.575   0.089
 2683SOL     OW 8614   1.940   0.556   1.386
 2683SOL    HW1 8615   2.032   0.555   1.345
 2683SOL    HW2 8616   1.934   0.630   1.453
 2684SOL     OW 8617   2.423   0.222   1.147
 2684SOL    HW1 8618   2.461   0.138   1.184
 2684SOL    HW2 8619   2.335   0.241   1.191
 2685SOL     OW 8620   2.728   0.454   0.642
 2685SOL    HW1 8621   2.696   0.526   0.580
 2685SOL    HW2 8622   2.752   0.373   0.589
 2686SOL     OW 8623   2.879   0.039   0.753
 2686SOL    HW1 8624   2.807   0.044   0.684
 2686SOL    HW2 8625   2.855  -0.030   0.822
 2687SOL     OW 8626   3.291   1.173   0.867
 2687SOL    HW1 8627   3.236   1.089   0.860
 2687SOL    HW2 8628   3.317   1.202   0.775
 2688SOL     OW 8629   3.328   0.590   0.992
 2688SOL    HW1 8630   3.298   0.495   0.999
 2688SOL    HW2 8631   3.401   0.606   1.058
 2689SOL     OW 8632   3.719   0.833   0.377
 2689SOL    HW1 8633   3.761   0.769   0.441
 2689SOL    HW2 8634   3.681   0.782   0.299
 2690SOL     OW 8635   2.350   1.385   0.174
 2690SOL    HW1 8636   2.263   1.370   0.221
 2690SOL    HW2 8637   2.333   1.411   0.079
 2691SOL     OW 8638   3.526   1.280   0.657
 2691SOL    HW1 8639   3.625   1.288   0.671
 2691SOL    HW2 8640   3.481   1.364   0.688
 2692SOL     OW 8641   3.252   0.575   0.078
 2692SOL    HW1 8642   3.198   0.554   0.159
 2692SOL    HW2 8643   3.343   0.534   0.087
 2693SOL     OW 8644   2.389   0.256   0.328
 2693SOL    HW1 8645   2.416   0.197   0.253
 2693SOL    HW2 8646   2.389   0.351   0.297
 2694SOL     OW 8647   3.616   1.223   1.588
 2694SOL    HW1 8648   3.707   1.184   1.575
 2694SOL    HW2 8649   3.624   1.319   1.612
 2695SOL     OW 8650   2.926   1.347   1.340
 2695SOL    HW1 8651   2.846   1.324   1.395
 2695SOL    HW2 8652   3.009   1.321   1.389
 2696SOL     OW 8653   3.454   1.629   1.625
 2696SOL    HW1 8654   3.481   1.663   1.535
 2696SOL    HW2 8655   3.533   1.591   1.671
 2697SOL     OW 8656   2.973   1.195   1.100
 2697SOL    HW1 8657   2.933   1.239   1.181
 2697SOL    HW2 8658   2.932   1.232   1.017
 2698SOL     OW 8659   3.500   1.099   1.079
 2698SOL    HW1 8660   3.505   1.180   1.138
 2698SOL    HW2 8661   3.414   1.101   1.028
 2699SOL     OW 8662   2.777   0.089   1.402
 2699SOL    HW1 8663   2.802   0.069   1.307
 2699SOL    HW2 8664   2.849   0.145   1.444
 2700SOL     OW 8665   2.842   1.116   1.719
 2700SOL    HW1 8666   2.743   1.122   1.729
 2700SOL    HW2 8667   2.865   1.036   1.663
 2701SOL     OW 8668   2.567   1.050   0.368
 2701SOL    HW1 8669   2.553   1.057   0.467
 2701SOL    HW2 8670   2.651   0.999   0.350
 2702SOL     OW 8671   2.272   0.813   1.251
 2702SOL    HW1 8672   2.358   0.825   1.301
 2702SOL    HW2 8673   2.230   0.726   1.278
 2703SOL     OW 8674   3.136   0.386   1.262
 2703SOL    HW1 8675   3.157   0.460   1.326
 2703SOL    HW2 8676   3.047   0.403   1.219
 2704SOL     OW 8677   1.926   1.564   1.331
 2704SOL    HW1 8678   1.880   1.646   1.297
 2704SOL    HW2 8679   2.024   1.583   1.340
 2705SOL     OW 8680   2.229   1.100   0.501
 2705SOL    HW1 8681   2.222   1.183   0.445
 2705SOL    HW2 8682   2.233   1.020   0.441
 2706SOL     OW 8683   2.428   0.537   0.865
 2706SOL    HW1 8684   2.440   0.603   0.791
 2706SOL    HW2 8685   2.474   0.571   0.948
 2707SOL     OW 8686   3.114   1.348   0.388
 2707SOL    HW1 8687   3.164   1.425   0.428
 2707SOL    HW2 8688   3.019   1.350   0.420
 2708SOL     OW 8689   3.134   1.445   1.142
 2708SOL    HW1 8690   3.181   1.458   1.229
 2708SOL    HW2 8691   3.068   1.371   1.151
 2709SOL     OW 8692   3.444   0.639   0.472
 2709SOL    HW1 8693   3.413   0.700   0.545
 2709SOL    HW2 8694   3.494   0.691   0.403
 2710SOL     OW 8695   2.216   1.510   1.329
 2710SOL    HW1 8696   2.195   1.466   1.242
 2710SOL    HW2 8697   2.313   1.536   1.332
 2711SOL     OW 8698   2.264   0.751   1.598
 2711SOL    HW1 8699   2.332   0.806   1.551
 2711SOL    HW2 8700   2.304   0.663   1.625
 2712SOL     OW 8701   3.449   0.779   1.670
 2712SOL    HW1 8702   3.357   0.817   1.665
 2712SOL    HW2 8703   3.509   0.826   1.605
 2713SOL     OW 8704   2.875   0.105   1.770
 2713SOL    HW1 8705   2.881   0.190   1.718
 2713SOL    HW2 8706   2.907   0.029   1.713
 2714SOL     OW 8707   2.366   0.050   1.740
 2714SOL    HW1 8708   2.324  -0.007   1.670
 2714SOL    HW2 8709   2.300   0.119   1.772
 2715SOL     OW 8710   2.435   0.870   1.029
 2715SOL    HW1 8711   2.479   0.959   1.020
 2715SOL    HW2 8712   2.372   0.870   1.106
 2716SOL     OW 8713   3.222   0.862   1.045
 2716SOL    HW1 8714   3.147   0.862   0.979
 2716SOL    HW2 8715   3.259   0.770   1.054
 2717SOL     OW 8716   3.071   0.525   0.275
 2717SOL    HW1 8717   3.084   0.441   0.329
 2717SOL    HW2 8718   3.042   0.599   0.335
 2718SOL     OW 8719   2.169   0.213   1.231
 2718SOL    HW1 8720   2.146   0.250   1.321
 2718SOL    HW2 8721   2.139   0.118   1.225
 2719SOL     OW 8722   1.899   1.310   1.282
 2719SOL    HW1 8723   1.952   1.261   1.350
 2719SOL    HW2 8724   1.921   1.408   1.287
 2720SOL     OW 8725   2.594   0.634   1.064
 2720SOL    HW1 8726   2.653   0.608   0.988
 2720SOL    HW2 8727   2.566   0.730   1.053
 2721SOL     OW 8728   3.590   0.935   1.854
 2721SOL    HW1 8729   3.544   0.928   1.765
 2721SOL    HW2 8730   3.528   0.979   1.920
 2722SOL     OW 8731   2.169   0.063   0.618
 2722SOL    HW1 8732   2.158   0.157   0.651
 2722SOL    HW2 8733   2.164   0.000   0.695
 2723SOL     OW 8734   3.484   0.367   0.374
 2723SOL    HW1 8735   3.486   0.291   0.438
 2723SOL    HW2 8736   3.436   0.444   0.414
 2724SOL     OW 8737   2.885   0.766   0.966
 2724SOL    HW1 8738   2.900   0.787   1.062
 2724SOL    HW2 8739   2.855   0.671   0.957
 2725SOL     OW 8740   2.842   1.573   1.700
 2725SOL    HW1 8741   2.822   1.617   1.612
 2725SOL    HW2 8742   2.881   1.482   1.684
 2726SOL     OW 8743   3.721   1.518   1.605
 2726SOL    HW1 8744   3.735   1.545   1.510
 2726SOL    HW2 8745   3.804   1.540   1.658
 2727SOL     OW 8746   2.212   0.898   1.804
 2727SOL    HW1 8747   2.288   0.942   1.852
 2727SOL    HW2 8748   2.247   0.851   1.722
 2728SOL     OW 8749   3.402   0.274   0.125
 2728SOL    HW1 8750   3.341   0.199   0.148
 2728SOL    HW2 8751   3.424   0.326   0.208
 2729SOL     OW 8752   3.165   0.838   0.042
 2729SOL    HW1 8753   3.199   0.745   0.057
 2729SOL    HW2 8754   3.183   0.865  -0.053
 2730SOL     OW 8755   2.930   1.333   0.849
 2730SOL    HW1 8756   2.937   1.249   0.794
 2730SOL    HW2 8757   2.992   1.402   0.813
 2731SOL     OW 8758   2.181   0.810   0.949
 2731SOL    HW1 8759   2.274   0.846   0.954
 2731SOL    HW2 8760   2.175   0.725   1.001
 2732SOL     OW 8761   2.201   0.509   1.006
 2732SOL    HW1 8762   2.149   0.426   0.989
 2732SOL    HW2 8763   2.278   0.514   0.942
 2733SOL     OW 8764   3.000   0.380   1.678
 2733SOL    HW1 8765   2.955   0.443   1.742
 2733SOL    HW2 8766   3.093   0.411   1.661
 2734SOL     OW 8767   3.022   0.207   1.477
 2734SOL    HW1 8768   3.022   0.271   1.554
 2734SOL    HW2 8769   3.050   0.255   1.394
 2735SOL     OW 8770   1.870   1.326   0.200
 2735SOL    HW1 8771   1.777   1.347   0.169
 2735SOL    HW2 8772   1.880   1.227   0.213
 2736SOL     OW 8773   1.950   1.801   0.927
 2736SOL    HW1 8774   1.908   1.715   0.900
 2736SOL    HW2 8775   2.044   1.804   0.893
 2737SOL     OW 8776   2.366   1.568   0.910
 2737SOL    HW1 8777   2.432   1.642   0.919
 2737SOL    HW2 8778   2.410   1.489   0.868
 2738SOL     OW 8779   2.864   0.796   1.238
 2738SOL    HW1 8780   2.905   0.764   1.324
 2738SOL    HW2 8781   2.768   0.769   1.235
 2739SOL     OW 8782   1.902   0.544   1.114
 2739SOL    HW1 8783   1.987   0.511   1.073
 2739SOL    HW2 8784   1.915   0.559   1.212
 2740SOL     OW 8785   2.051   0.520   1.722
 2740SOL    HW1 8786   2.110   0.480   1.652
 2740SOL    HW2 8787   1.993   0.591   1.681
 2741SOL     OW 8788   3.231   0.950   1.660
 2741SOL    HW1 8789   3.270   1.039   1.680
 2741SOL    HW2 8790   3.241   0.930   1.563
 2742SOL     OW 8791   2.677   0.572   0.325
 2742SOL    HW1 8792   2.684   0.483   0.279
 2742SOL    HW2 8793   2.583   0.606   0.317
 2743SOL     OW 8794   3.519   0.604   1.206
 2743SOL    HW1 8795   3.481   0.535   1.268
 2743SOL    HW2 8796   3.601   0.568   1.162
 2744SOL     OW 8797   2.114   1.564   1.744
 2744SOL    HW1 8798   2.084   1.621   1.820
 2744SOL    HW2 8799   2.107   1.467   1.770
 2745SOL     OW 8800   2.533   0.464   1.269
 2745SOL    HW1 8801   2.499   0.375   1.239
 2745SOL    HW2 8802   2.559   0.518   1.189
 2746SOL     OW 8803   2.792   1.678   1.465
 2746SOL    HW1 8804   2.768   1.660   1.370
 2746SOL    HW2 8805   2.822   1.772   1.475
 2747SOL     OW 8806   2.335   0.500   0.191
 2747SOL    HW1 8807   2.396   0.580   0.195
 2747SOL    HW2 8808   2.240   0.531   0.198
 2748SOL     OW 8809   2.021   1.137   1.466
 2748SOL    HW1 8810   2.043   1.076   1.542
 2748SOL    HW2 8811   2.031   1.088   1.380
 2749SOL     OW 8812   3.209   1.059   1.234
 2749SOL    HW1 8813   3.233   0.996   1.160
 2749SOL    HW2 8814   3.119   1.099   1.216
 2750SOL     OW 8815   3.164   0.855   0.309
 2750SOL    HW1 8816   3.078   0.824   0.351
 2750SOL    HW2 8817   3.160   0.841   0.210
 2751SOL     OW 8818   3.621   1.747   1.154
 2751SOL    HW1 8819   3.682   1.777   1.081
 2751SOL    HW2 8820   3.583   1.658   1.132
 2752SOL     OW 8821   3.114   1.731   1.128
 2752SOL    HW1 8822   3.198   1.736   1.074
 2752SOL    HW2 8823   3.091   1.635   1.146
 2753SOL     OW 8824   1.945   1.258   1.022
 2753SOL    HW1 8825   1.940   1.257   1.122
 2753SOL    HW2 8826   1.862   1.217   0.984
 2754SOL     OW 8827   2.550   1.662   1.716
 2754SOL    HW1 8828   2.494   1.743   1.725
 2754SOL    HW2 8829   2.602   1.666   1.630
 2755SOL     OW 8830   2.765   0.086   0.133
 2755SOL    HW1 8831   2.816   0.087   0.047
 2755SOL    HW2 8832   2.821   0.044   0.204
 2756SOL     OW 8833   3.588   0.135   0.523
 2756SOL    HW1 8834   3.661   0.118   0.456
 2756SOL    HW2 8835   3.557   0.048   0.561
 2757SOL     OW 8836   3.250   1.573   0.477
 2757SOL    HW1 8837   3.317   1.585   0.403
 2757SOL    HW2 8838   3.210   1.662   0.500
 2758SOL     OW 8839   1.992   1.794   1.851
 2758SOL    HW1 8840   1.951   1.720   1.904
 2758SOL    HW2 8841   2.056   1.845   1.909
 2759SOL     OW 8842   3.142   0.927   0.672
 2759SOL    HW1 8843   3.202   0.846   0.674
 2759SOL    HW2 8844   3.182   0.996   0.612
 2760SOL     OW 8845   2.692   1.273   1.422
 2760SOL    HW1 8846   2.687   1.306   1.517
 2760SOL    HW2 8847   2.606   1.292   1.376
 2761SOL     OW 8848   2.534   1.616   0.154
 2761SOL    HW1 8849   2.543   1.626   0.055
 2761SOL    HW2 8850   2.494   1.527   0.175
 2762SOL     OW 8851   3.512   1.720   1.394
 2762SOL    HW1 8852   3.565   1.730   1.310
 2762SOL    HW2 8853   3.485   1.810   1.428
 2763SOL     OW 8854   3.703   0.175   0.963
 2763SOL    HW1 8855   3.742   0.090   0.927
 2763SOL    HW2 8856   3.605   0.177   0.944
 2764SOL     OW 8857   2.125   0.326   0.720
 2764SOL    HW1 8858   2.046   0.377   0.686
 2764SOL    HW2 8859   2.116   0.311   0.818
 2765SOL     OW 8860   3.056   1.612   0.031
 2765SOL    HW1 8861   3.062   1.519   0.068
 2765SOL    HW2 8862   2.997   1.612  -0.049
 2766SOL     OW 8863   2.684   1.002   1.372
 2766SOL    HW1 8864   2.724   1.001   1.280
 2766SOL    HW2 8865   2.694   1.094   1.412
 2767SOL     OW 8866   2.778   0.910   0.291
 2767SOL    HW1 8867   2.841   0.948   0.223
 2767SOL    HW2 8868   2.818   0.827   0.330
 2768SOL     OW 8869   3.366   1.607   0.044
 2768SOL    HW1 8870   3.274   1.644   0.051
 2768SOL    HW2 8871   3.404   1.627  -0.046
 2769SOL     OW 8872   2.234   1.288   1.490
 2769SOL    HW1 8873   2.221   1.381   1.456
 2769SOL    HW2 8874   2.150   1.236   1.477
 2770SOL     OW 8875   3.476   1.292   1.289
 2770SOL    HW1 8876   3.536   1.295   1.369
 2770SOL    HW2 8877   3.401   1.356   1.302
 2771SOL     OW 8878   2.901   1.098   0.696
 2771SOL    HW1 8879   2.831   1.051   0.750
 2771SOL    HW2 8880   2.960   1.030   0.653
 2772SOL     OW 8881   2.876   0.236   0.971
 2772SOL    HW1 8882   2.868   0.200   0.878
 2772SOL    HW2 8883   2.874   0.160   1.036
 2773SOL     OW 8884   2.452   1.487   0.491
 2773SOL    HW1 8885   2.494   1.429   0.421
 2773SOL    HW2 8886   2.408   1.566   0.447
 2774SOL     OW 8887   3.571   0.385   1.381
 2774SOL    HW1 8888   3.644   0.454   1.385
 2774SOL    HW2 8889   3.599   0.310   1.322
 2775SOL     OW 8890   2.117   1.348   0.290
 2775SOL    HW1 8891   2.021   1.349   0.263
 2775SOL    HW2 8892   2.129   1.401   0.374
 2776SOL     OW 8893   1.967   1.013   1.726
 2776SOL    HW1 8894   1.890   0.980   1.780
 2776SOL    HW2 8895   2.052   0.983   1.768
 2777SOL     OW 8896   2.534   0.203   1.489
 2777SOL    HW1 8897   2.624   0.187   1.449
 2777SOL    HW2 8898   2.542   0.208   1.588
 2778SOL     OW 8899   1.937   0.345   0.033
 2778SOL    HW1 8900   1.845   0.317   0.004
 2778SOL    HW2 8901   1.968   0.422  -0.023
 2779SOL     OW 8902   3.302   0.856   1.398
 2779SOL    HW1 8903   3.245   0.908   1.335
 2779SOL    HW2 8904   3.398   0.868   1.374
 2780SOL     OW 8905   1.934   0.166   0.318
 2780SOL    HW1 8906   1.917   0.249   0.264
 2780SOL    HW2 8907   2.024   0.129   0.296
 2781SOL     OW 8908   3.045   1.335   0.119
 2781SOL    HW1 8909   2.946   1.324   0.121
 2781SOL    HW2 8910   3.079   1.350   0.212
 2782SOL     OW 8911   2.475   0.842   1.431
 2782SOL    HW1 8912   2.531   0.923   1.414
 2782SOL    HW2 8913   2.534   0.762   1.434
 2783SOL     OW 8914   3.355   1.767   0.959
 2783SOL    HW1 8915   3.388   1.831   0.890
 2783SOL    HW2 8916   3.421   1.761   1.034
 2784SOL     OW 8917   2.578   0.565   1.708
 2784SOL    HW1 8918   2.597   0.630   1.782
 2784SOL    HW2 8919   2.638   0.485   1.717
 2785SOL     OW 8920   3.312   1.220   1.633
 2785SOL    HW1 8921   3.303   1.210   1.732
 2785SOL    HW2 8922   3.408   1.213   1.607
 2786SOL     OW 8923   2.252   1.741   1.560
 2786SOL    HW1 8924   2.161   1.782   1.558
 2786SOL    HW2 8925   2.245   1.647   1.592
 2787SOL     OW 8926   3.536   0.883   1.254
 2787SOL    HW1 8927   3.509   0.794   1.217
 2787SOL    HW2 8928   3.537   0.951   1.181
 2788SOL     OW 8929   3.087   0.325   0.449
 2788SOL    HW1 8930   3.152   0.251   0.438
 2788SOL    HW2 8931   3.107   0.375   0.533
 2789SOL     OW 8932   2.456   0.745   0.652
 2789SOL    HW1 8933   2.506   0.830   0.633
 2789SOL    HW2 8934   2.368   0.747   0.604
 2790SOL     OW 8935   3.639   0.342   1.642
 2790SOL    HW1 8936   3.622   0.373   1.548
 2790SOL    HW2 8937   3.555   0.305   1.680
 2791SOL     OW 8938   3.592   0.934   1.517
 2791SOL    HW1 8939   3.630   1.025   1.532
 2791SOL    HW2 8940   3.584   0.917   1.418
 2792SOL     OW 8941   2.721   1.374   0.016
 2792SOL    HW1 8942   2.675   1.389   0.104
 2792SOL    HW2 8943   2.765   1.459  -0.014
 2793SOL     OW 8944   2.523   1.790   0.953
 2793SOL    HW1 8945   2.477   1.878   0.940
 2793SOL    HW2 8946   2.622   1.802   0.946
 2794SOL     OW 8947   2.721   0.956   0.861
 2794SOL    HW1 8948   2.775   0.887   0.909
 2794SOL    HW2 8949   2.689   1.025   0.927
 2795SOL     OW 8950   2.945   0.984   0.087
 2795SOL    HW1 8951   2.922   1.037   0.005
 2795SOL    HW2 8952   3.026   0.928   0.068
 2796SOL     OW 8953   3.723   1.569   0.851
 2796SOL    HW1 8954   3.652   1.557   0.781
 2796SOL    HW2 8955   3.724   1.490   0.911
 2797SOL     OW 8956   2.083   1.314   1.844
 2797SOL    HW1 8957   2.018   1.241   1.823
 2797SOL    HW2 8958   2.087   1.328   1.942
 2798SOL     OW 8959   1.941   1.240   0.653
 2798SOL    HW1 8960   1.940   1.193   0.741
 2798SOL    HW2 8961   2.023   1.212   0.602
 2799SOL     OW 8962   2.534   1.391   1.624
 2799SOL    HW1 8963   2.456   1.341   1.662
 2799SOL    HW2 8964   2.531   1.486   1.655
 2800SOL     OW 8965   3.686   0.192   1.227
 2800SOL    HW1 8966   3.682   0.102   1.271
 2800SOL    HW2 8967   3.689   0.181   1.128
 2801SOL     OW 8968   2.290   0.424   0.520
 2801SOL    HW1 8969   2.320   0.352   0.458
 2801SOL    HW2 8970   2.251   0.384   0.603
 2802SOL     OW 8971   3.567   1.487   1.104
 2802SOL    HW1 8972   3.474   1.462   1.077
 2802SOL    HW2 8973   3.593   1.437   1.186
 2803SOL     OW 8974   2.179   0.547   1.280
 2803SOL    HW1 8975   2.217   0.488   1.352
 2803SOL    HW2 8976   2.219   0.521   1.192
 2804SOL     OW 8977   2.674   1.586   0.687
 2804SOL    HW1 8978   2.706   1.596   0.593
 2804SOL    HW2 8979   2.595   1.524   0.689
 2805SOL     OW 8980   3.286   0.214   1.112
 2805SOL    HW1 8981   3.338   0.149   1.167
 2805SOL    HW2 8982   3.237   0.277   1.173
 2806SOL     OW 8983   2.863   0.034   1.154
 2806SOL    HW1 8984   2.800  -0.038   1.123
 2806SOL    HW2 8985   2.956  -0.002   1.154
 2807SOL     OW 8986   2.632   1.330   0.301
 2807SOL    HW1 8987   2.586   1.243   0.318
 2807SOL    HW2 8988   2.723   1.327   0.342
 2808SOL     OW 8989   2.480   1.567   1.284
 2808SOL    HW1 8990   2.475   1.649   1.341
 2808SOL    HW2 8991   2.569   1.564   1.239
 2809SOL     OW 8992   3.214   0.052   0.168
 2809SOL    HW1 8993   3.249   0.011   0.084
 2809SOL    HW2 8994   3.124   0.014   0.188
 2810SOL     OW 8995   3.162   0.453   0.691
 2810SOL    HW1 8996   3.103   0.533   0.695
 2810SOL    HW2 8997   3.177   0.418   0.784
 2811SOL     OW 8998   3.455   0.221   0.882
 2811SOL    HW1 8999   3.371   0.220   0.936
 2811SOL    HW2 9000   3.457   0.304   0.826
 2812SOL     OW 9001   1.901   1.077   0.300
 2812SOL    HW1 9002   2.000   1.066   0.291
 2812SOL    HW2 9003   1.861   0.991   0.332
 2813SOL     OW 9004   2.737   1.646   0.337
 2813SOL    HW1 9005   2.660   1.611   0.283
 2813SOL    HW2 9006   2.705   1.717   0.399
 2814SOL     OW 9007   2.092   0.628   1.975
 2814SOL    HW1 9008   1.999   0.626   2.012
 2814SOL    HW2 9009   2.093   0.589   1.883
 2815SOL     OW 9010   2.087   0.275   2.858
 2815SOL    HW1 9011   2.122   0.258   2.950
 2815SOL    HW2 9012   1.999   0.230   2.846
 2816SOL     OW 9013   1.881   0.368   2.509
 2816SOL    HW1 9014   1.799   0.411   2.548
 2816SOL    HW2 9015   1.853   0.295   2.446
 2817SOL     OW 9016   2.431   1.275   3.027
 2817SOL    HW1 9017   2.338   1.268   2.990
 2817SOL    HW2 9018   2.442   1.364   3.071
 2818SOL     OW 9019   3.417   1.511   2.565
 2818SOL    HW1 9020   3.360   1.495   2.646
 2818SOL    HW2 9021   3.358   1.521   2.485
 2819SOL     OW 9022   2.997   0.703   2.579
 2819SOL    HW1 9023   3.054   0.781   2.554
 2819SOL    HW2 9024   2.937   0.729   2.655
 2820SOL     OW 9025   3.617   0.607   2.093
 2820SOL    HW1 9026   3.605   0.594   1.994
 2820SOL    HW2 9027   3.587   0.526   2.142
 2821SOL     OW 9028   2.630   1.144   2.885
 2821SOL    HW1 9029   2.552   1.161   2.945
 2821SOL    HW2 9030   2.664   1.231   2.849
 2822SOL     OW 9031   2.712   0.798   3.685
 2822SOL    HW1 9032   2.708   0.874   3.750
 2822SOL    HW2 9033   2.734   0.834   3.594
 2823SOL     OW 9034   2.547   1.012   2.527
 2823SOL    HW1 9035   2.616   0.996   2.597
 2823SOL    HW2 9036   2.474   1.069   2.565
 2824SOL     OW 9037   2.548   1.161   3.665
 2824SOL    HW1 9038   2.608   1.240   3.679
 2824SOL    HW2 9039   2.462   1.192   3.624
 2825SOL     OW 9040   2.197   1.435   2.923
 2825SOL    HW1 9041   2.119   1.404   2.870
 2825SOL    HW2 9042   2.255   1.493   2.866
 2826SOL     OW 9043   3.322   1.505   3.201
 2826SOL    HW1 9044   3.346   1.599   3.227
 2826SOL    HW2 9045   3.306   1.451   3.283
 2827SOL     OW 9046   2.300   0.392   3.361
 2827SOL    HW1 9047   2.382   0.336   3.370
 2827SOL    HW2 9048   2.219   0.334   3.365
 2828SOL     OW 9049   3.465   0.447   2.599
 2828SOL    HW1 9050   3.391   0.493   2.549
 2828SOL    HW2 9051   3.516   0.515   2.652
 2829SOL     OW 9052   2.093   1.713   2.345
 2829SOL    HW1 9053   2.127   1.790   2.399
 2829SOL    HW2 9054   2.137   1.713   2.255
 2830SOL     OW 9055   2.989   1.341   3.552
 2830SOL    HW1 9056   3.036   1.341   3.640
 2830SOL    HW2 9057   2.941   1.254   3.541
 2831SOL     OW 9058   2.092   1.434   2.400
 2831SOL    HW1 9059   2.066   1.530   2.400
 2831SOL    HW2 9060   2.021   1.380   2.445
 2832SOL     OW 9061   2.102   1.091   2.748
 2832SOL    HW1 9062   2.116   1.007   2.800
 2832SOL    HW2 9063   2.047   1.155   2.803
 2833SOL     OW 9064   2.482   1.786   3.301
 2833SOL    HW1 9065   2.390   1.769   3.336
 2833SOL    HW2 9066   2.510   1.878   3.327
 2834SOL     OW 9067   2.468   0.964   1.985
 2834SOL    HW1 9068   2.475   1.048   1.931
 2834SOL    HW2 9069   2.514   0.977   2.073
 2835SOL     OW 9070   3.456   0.114   3.342
 2835SOL    HW1 9071   3.438   0.181   3.270
 2835SOL    HW2 9072   3.453   0.160   3.431
 2836SOL     OW 9073   1.984   0.643   2.425
 2836SOL    HW1 9074   1.939   0.555   2.442
 2836SOL    HW2 9075   1.983   0.697   2.509
 2837SOL     OW 9076   3.704   1.767   2.221
 2837SOL    HW1 9077   3.758   1.738   2.301
 2837SOL    HW2 9078   3.734   1.857   2.192
 2838SOL     OW 9079   1.889   1.596   1.979
 2838SOL    HW1 9080   1.870   1.500   2.000
 2838SOL    HW2 9081   1.856   1.654   2.054
 2839SOL     OW 9082   3.551   0.922   2.474
 2839SOL    HW1 9083   3.646   0.893   2.482
 2839SOL    HW2 9084   3.543   0.987   2.399
 2840SOL     OW 9085   3.503   1.108   2.294
 2840SOL    HW1 9086   3.589   1.110   2.242
 2840SOL    HW2 9087   3.517   1.155   2.382
 2841SOL     OW 9088   1.975   0.737   3.459
 2841SOL    HW1 9089   2.063   0.724   3.504
 2841SOL    HW2 9090   1.962   0.834   3.437
 2842SOL     OW 9091   2.475   1.365   2.588
 2842SOL    HW1 9092   2.426   1.278   2.597
 2842SOL    HW2 9093   2.452   1.408   2.501
 2843SOL     OW 9094   3.155   1.228   3.285
 2843SOL    HW1 9095   3.192   1.155   3.227
 2843SOL    HW2 9096   3.207   1.233   3.370
 2844SOL     OW 9097   2.671   0.004   2.364
 2844SOL    HW1 9098   2.711   0.095   2.355
 2844SOL    HW2 9099   2.571   0.012   2.370
 2845SOL     OW 9100   2.059   0.976   3.126
 2845SOL    HW1 9101   2.148   0.931   3.112
 2845SOL    HW2 9102   1.986   0.911   3.107
 2846SOL     OW 9103   3.387   0.999   2.052
 2846SOL    HW1 9104   3.324   0.923   2.065
 2846SOL    HW2 9105   3.435   1.017   2.138
 2847SOL     OW 9106   3.049   1.792   3.478
 2847SOL    HW1 9107   3.073   1.852   3.402
 2847SOL    HW2 9108   3.056   1.697   3.448
 2848SOL     OW 9109   2.179   0.251   3.663
 2848SOL    HW1 9110   2.250   0.322   3.669
 2848SOL    HW2 9111   2.091   0.290   3.691
 2849SOL     OW 9112   3.328   1.417   2.815
 2849SOL    HW1 9113   3.269   1.423   2.895
 2849SOL    HW2 9114   3.313   1.329   2.769
 2850SOL     OW 9115   3.529   1.714   2.434
 2850SOL    HW1 9116   3.488   1.691   2.346
 2850SOL    HW2 9117   3.511   1.640   2.499
 2851SOL     OW 9118   2.460   0.729   2.132
 2851SOL    HW1 9119   2.484   0.798   2.064
 2851SOL    HW2 9120   2.382   0.762   2.186
 2852SOL     OW 9121   3.143   0.345   2.806
 2852SOL    HW1 9122   3.057   0.295   2.793
 2852SOL    HW2 9123   3.205   0.291   2.862
 2853SOL     OW 9124   3.438   1.662   2.169
 2853SOL    HW1 9125   3.527   1.708   2.172
 2853SOL    HW2 9126   3.417   1.638   2.074
 2854SOL     OW 9127   2.669   0.605   3.327
 2854SOL    HW1 9128   2.622   0.602   3.416
 2854SOL    HW2 9129   2.618   0.550   3.261
 2855SOL     OW 9130   3.256   0.469   3.536
 2855SOL    HW1 9131   3.236   0.512   3.624
 2855SOL    HW2 9132   3.334   0.407   3.545
 2856SOL     OW 9133   2.835   0.890   3.434
 2856SOL    HW1 9134   2.881   0.806   3.405
 2856SOL    HW2 9135   2.779   0.924   3.359
 2857SOL     OW 9136   2.853   0.410   3.104
 2857SOL    HW1 9137   2.776   0.444   3.158
 2857SOL    HW2 9138   2.819   0.359   3.025
 2858SOL     OW 9139   2.903   0.701   2.291
 2858SOL    HW1 9140   2.929   0.697   2.387
 2858SOL    HW2 9141   2.818   0.650   2.277
 2859SOL     OW 9142   1.938   0.811   2.651
 2859SOL    HW1 9143   2.037   0.799   2.660
 2859SOL    HW2 9144   1.914   0.906   2.672
 2860SOL     OW 9145   1.992   1.821   3.433
 2860SOL    HW1 9146   1.982   1.806   3.532
 2860SOL    HW2 9147   1.906   1.857   3.397
 2861SOL     OW 9148   2.727   0.348   2.057
 2861SOL    HW1 9149   2.786   0.411   2.008
 2861SOL    HW2 9150   2.746   0.254   2.028
 2862SOL     OW 9151   3.581   0.585   3.693
 2862SOL    HW1 9152   3.555   0.674   3.657
 2862SOL    HW2 9153   3.579   0.517   3.620
 2863SOL     OW 9154   3.224   1.144   2.407
 2863SOL    HW1 9155   3.307   1.115   2.359
 2863SOL    HW2 9156   3.175   1.211   2.351
 2864SOL     OW 9157   2.412   0.196   2.747
 2864SOL    HW1 9158   2.407   0.191   2.847
 2864SOL    HW2 9159   2.414   0.292   2.718
 2865SOL     OW 9160   2.870   1.456   2.339
 2865SOL    HW1 9161   2.824   1.528   2.287
 2865SOL    HW2 9162   2.866   1.476   2.437
 2866SOL     OW 9163   2.213   1.801   2.715
 2866SOL    HW1 9164   2.263   1.715   2.721
 2866SOL    HW2 9165   2.278   1.878   2.712
 2867SOL     OW 9166   3.657   1.066   2.735
 2867SOL    HW1 9167   3.595   1.051   2.659
 2867SOL    HW2 9168   3.605   1.077   2.820
 2868SOL     OW 9169   3.089   1.550   3.368
 2868SOL    HW1 9170   3.095   1.473   3.432
 2868SOL    HW2 9171   3.037   1.524   3.288
 2869SOL     OW 9172   2.183   0.943   2.104
 2869SOL    HW1 9173   2.265   0.982   2.062
 2869SOL    HW2 9174   2.156   0.861   2.055
 2870SOL     OW 9175   3.320   0.735   2.590
 2870SOL    HW1 9176   3.315   0.670   2.665
 2870SOL    HW2 9177   3.400   0.794   2.603
 2871SOL     OW 9178   2.323   1.266   3.589
 2871SOL    HW1 9179   2.273   1.267   3.503
 2871SOL    HW2 9180   2.260   1.248   3.665
 2872SOL     OW 9181   2.973   1.776   2.099
 2872SOL    HW1 9182   2.913   1.714   2.149
 2872SOL    HW2 9183   3.004   1.732   2.014
 2873SOL     OW 9184   2.064   0.285   3.360
 2873SOL    HW1 9185   1.984   0.345   3.347
 2873SOL    HW2 9186   2.054   0.236   3.446
 2874SOL     OW 9187   3.494   1.377   1.943
 2874SOL    HW1 9188   3.462   1.471   1.933
 2874SOL    HW2 9189   3.418   1.314   1.931
 2875SOL     OW 9190   2.326   1.743   2.185
 2875SOL    HW1 9191   2.359   1.782   2.271
 2875SOL    HW2 9192   2.402   1.736   2.120
 2876SOL     OW 9193   3.262   0.107   2.288
 2876SOL    HW1 9194   3.238   0.070   2.198
 2876SOL    HW2 9195   3.361   0.123   2.292
 2877SOL     OW 9196   2.111   1.785   3.103
 2877SOL    HW1 9197   2.168   1.720   3.153
 2877SOL    HW2 9198   2.095   1.752   3.010
 2878SOL     OW 9199   2.802   1.698   2.766
 2878SOL    HW1 9200   2.882   1.641   2.787
 2878SOL    HW2 9201   2.753   1.658   2.689
 2879SOL     OW 9202   2.244   0.700   2.342
 2879SOL    HW1 9203   2.289   0.610   2.339
 2879SOL    HW2 9204   2.150   0.689   2.375
 2880SOL     OW 9205   3.409   0.222   3.591
 2880SOL    HW1 9206   3.404   0.259   3.683
 2880SOL    HW2 9207   3.337   0.153   3.579
 2881SOL     OW 9208   2.476   0.122   1.979
 2881SOL    HW1 9209   2.574   0.100   1.986
 2881SOL    HW2 9210   2.445   0.105   1.886
 2882SOL     OW 9211   2.643   0.264   3.611
 2882SOL    HW1 9212   2.710   0.203   3.654
 2882SOL    HW2 9213   2.570   0.283   3.676
 2883SOL     OW 9214   2.750   1.514   3.057
 2883SOL    HW1 9215   2.727   1.489   2.963
 2883SOL    HW2 9216   2.811   1.445   3.096
 2884SOL     OW 9217   3.213   0.590   3.295
 2884SOL    HW1 9218   3.241   0.547   3.380
 2884SOL    HW2 9219   3.238   0.686   3.296
 2885SOL     OW 9220   2.665   1.402   2.786
 2885SOL    HW1 9221   2.755   1.416   2.744
 2885SOL    HW2 9222   2.594   1.404   2.715
 2886SOL     OW 9223   2.784   0.503   2.761
 2886SOL    HW1 9224   2.759   0.494   2.665
 2886SOL    HW2 9225   2.832   0.421   2.792
 2887SOL     OW 9226   2.401   0.064   2.374
 2887SOL    HW1 9227   2.320   0.065   2.432
 2887SOL    HW2 9228   2.404   0.147   2.319
 2888SOL     OW 9229   3.296   1.188   1.903
 2888SOL    HW1 9230   3.328   1.112   1.960
 2888SOL    HW2 9231   3.204   1.215   1.933
 2889SOL     OW 9232   2.159   0.035   2.033
 2889SOL    HW1 9233   2.208   0.119   2.012
 2889SOL    HW2 9234   2.221  -0.030   2.078
 2890SOL     OW 9235   2.797   0.236   2.342
 2890SOL    HW1 9236   2.749   0.277   2.264
 2890SOL    HW2 9237   2.896   0.234   2.323
 2891SOL     OW 9238   2.938   0.683   3.326
 2891SOL    HW1 9239   2.858   0.622   3.329
 2891SOL    HW2 9240   3.019   0.630   3.302
 2892SOL     OW 9241   3.089   1.570   2.655
 2892SOL    HW1 9242   3.110   1.644   2.590
 2892SOL    HW2 9243   3.157   1.570   2.728
 2893SOL     OW 9244   2.321   1.152   2.603
 2893SOL    HW1 9245   2.250   1.125   2.668
 2893SOL    HW2 9246   2.295   1.124   2.510
 2894SOL     OW 9247   3.133   1.797   2.453
 2894SOL    HW1 9248   3.177   1.861   2.389
 2894SOL    HW2 9249   3.083   1.849   2.523
 2895SOL     OW 9250   2.894   0.549   1.878
 2895SOL    HW1 9251   2.853   0.631   1.839
 2895SOL    HW2 9252   2.958   0.575   1.951
 2896SOL     OW 9253   1.940   0.556   3.248
 2896SOL    HW1 9254   2.032   0.555   3.207
 2896SOL    HW2 9255   1.934   0.630   3.315
 2897SOL     OW 9256   2.423   0.222   3.009
 2897SOL    HW1 9257   2.461   0.138   3.046
 2897SOL    HW2 9258   2.335   0.241   3.053
 2898SOL     OW 9259   2.728   0.454   2.504
 2898SOL    HW1 9260   2.696   0.526   2.442
 2898SOL    HW2 9261   2.752   0.373   2.451
 2899SOL     OW 9262   2.879   0.039   2.615
 2899SOL    HW1 9263   2.807   0.044   2.546
 2899SOL    HW2 9264   2.855  -0.030   2.684
 2900SOL     OW 9265   3.291   1.173   2.729
 2900SOL    HW1 9266   3.236   1.089   2.722
 2900SOL    HW2 9267   3.317   1.202   2.637
 2901SOL     OW 9268   3.328   0.590   2.854
 2901SOL    HW1 9269   3.298   0.495   2.861
 2901SOL    HW2 9270   3.401   0.606   2.920
 2902SOL     OW 9271   3.719   0.833   2.239
 2902SOL    HW1 9272   3.761   0.769   2.303
 2902SOL    HW2 9273   3.681   0.782   2.161
 2903SOL     OW 9274   2.350   1.385   2.036
 2903SOL    HW1 9275   2.263   1.370   2.083
 2903SOL    HW2 9276   2.333   1.411   1.941
 2904SOL     OW 9277   3.526   1.280   2.519
 2904SOL    HW1 9278   3.625   1.288   2.533
 2904SOL    HW2 9279   3.481   1.364   2.550
 2905SOL     OW 9280   3.252   0.575   1.940
 2905SOL    HW1 9281   3.198   0.554   2.021
 2905SOL    HW2 9282   3.343   0.534   1.949
 2906SOL     OW 9283   2.389   0.256   2.190
 2906SOL    HW1 9284   2.416   0.197   2.115
 2906SOL    HW2 9285   2.389   0.351   2.159
 2907SOL     OW 9286   3.616   1.223   3.450
 2907SOL    HW1 9287   3.707   1.184   3.437
 2907SOL    HW2 9288   3.624   1.319   3.474
 2908SOL     OW 9289   2.926   1.347   3.202
 2908SOL    HW1 9290   2.846   1.324   3.257
 2908SOL    HW2 9291   3.009   1.321   3.251
 2909SOL     OW 9292   3.454   1.629   3.487
 2909SOL    HW1 9293   3.481   1.663   3.397
 2909SOL    HW2 9294   3.533   1.591   3.533
 2910SOL     OW 9295   2.973   1.195   2.962
 2910SOL    HW1 9296   2.933   1.239   3.043
 2910SOL    HW2 9297   2.932   1.232   2.879
 2911SOL     OW 9298   3.500   1.099   2.941
 2911SOL    HW1 9299   3.505   1.180   3.000
 2911SOL    HW2 9300   3.414   1.101   2.890
 2912SOL     OW 9301   2.777   0.089   3.264
 2912SOL    HW1 9302   2.802   0.069   3.169
 2912SOL    HW2 9303   2.849   0.145   3.306
 2913SOL     OW 9304   2.842   1.116   3.581
 2913SOL    HW1 9305   2.743   1.122   3.591
 2913SOL    HW2 9306   2.865   1.036   3.525
 2914SOL     OW 9307   2.567   1.050   2.230
 2914SOL    HW1 9308   2.553   1.057   2.329
 2914SOL    HW2 9309   2.651   0.999   2.212
 2915SOL     OW 9310   2.272   0.813   3.113
 2915SOL    HW1 9311   2.358   0.825   3.163
 2915SOL    HW2 9312   2.230   0.726   3.140
 2916SOL     OW 9313   3.136   0.386   3.124
 2916SOL    HW1 9314   3.157   0.460   3.188
 2916SOL    HW2 9315   3.047   0.403   3.081
 2917SOL     OW 9316   1.926   1.564   3.193
 2917SOL    HW1 9317   1.880   1.646   3.159
 2917SOL    HW2 9318   2.024   1.583   3.202
 2918SOL     OW 9319   2.229   1.100   2.363
 2918SOL    HW1 9320   2.222   1.183   2.307
 2918SOL    HW2 9321   2.233   1.020   2.303
 2919SOL     OW 9322   2.428   0.537   2.727
 2919SOL    HW1 9323   2.440   0.603   2.653
 2919SOL    HW2 9324   2.474   0.571   2.810
 2920SOL     OW 9325   3.114   1.348   2.250
 2920SOL    HW1 9326   3.164   1.425   2.290
 2920SOL    HW2 9327   3.019   1.350   2.282
 2921SOL     OW 9328   3.134   1.445   3.004
 2921SOL    HW1 9329   3.181   1.458   3.091
 2921SOL    HW2 9330   3.068   1.371   3.013
 2922SOL     OW 9331   3.444   0.639   2.334
 2922SOL    HW1 9332   3.413   0.700   2.407
 2922SOL    HW2 9333   3.494   0.691   2.265
 2923SOL     OW 9334   2.216   1.510   3.191
 2923SOL    HW1 9335   2.195   1.466   3.104
 2923SOL    HW2 9336   2.313   1.536   3.194
 2924SOL     OW 9337   2.264   0.751   3.460
 2924SOL    HW1 9338   2.332   0.806   3.413
 2924SOL    HW2 9339   2.304   0.663   3.487
 2925SOL     OW 9340   3.449   0.779   3.532
 2925SOL    HW1 9341   3.357   0.817   3.527
 2925SOL    HW2 9342   3.509   0.826   3.467
 2926SOL     OW 9343   2.875   0.105   3.632
 2926SOL    HW1 9344   2.881   0.190   3.580
 2926SOL    HW2 9345   2.907   0.029   3.575
 2927SOL     OW 9346   2.366   0.050   3.602
 2927SOL    HW1 9347   2.324  -0.007   3.532
 2927SOL    HW2 9348   2.300   0.119   3.634
 2928SOL     OW 9349   2.435   0.870   2.891
 2928SOL    HW1 9350   2.479   0.959   2.882
 2928SOL    HW2 9351   2.372   0.870   2.968
 2929SOL     OW 9352   3.222   0.862   2.907
 2929SOL    HW1 9353   3.147   0.862   2.841
 2929SOL    HW2 9354   3.259   0.770   2.916
 2930SOL     OW 9355   3.071   0.525   2.137
 2930SOL    HW1 9356   3.084   0.441   2.191
 2930SOL    HW2 9357   3.042   0.599   2.197
 2931SOL     OW 9358   2.169   0.213   3.093
 2931SOL    HW1 9359   2.146   0.250   3.183
 2931SOL    HW2 9360   2.139   0.118   3.087
 2932SOL     OW 9361   1.899   1.310   3.144
 2932SOL    HW1 9362   1.952   1.261   3.212
 2932SOL    HW2 9363   1.921   1.408   3.149
 2933SOL     OW 9364   2.594   0.634   2.926
 2933SOL    HW1 9365   2.653   0.608   2.850
 2933SOL    HW2 9366   2.566   0.730   2.915
 2934SOL     OW 9367   3.590   0.935   3.716
 2934SOL    HW1 9368   3.544   0.928   3.627
 2934SOL    HW2 9369   3.528   0.979   3.782
 2935SOL     OW 9370   2.169   0.063   2.480
 2935SOL    HW1 9371   2.158   0.157   2.513
 2935SOL    HW2 9372   2.164   0.000   2.557
 2936SOL     OW 9373   3.484   0.367   2.236
 2936SOL    HW1 9374   3.486   0.291   2.300
 2936SOL    HW2 9375   3.436   0.444   2.276
 2937SOL     OW 9376   2.885   0.766   2.828
 2937SOL    HW1 9377   2.900   0.787   2.924
 2937SOL    HW2 9378   2.855   0.671   2.819
 2938SOL     OW 9379   2.842   1.573   3.562
 2938SOL    HW1 9380   2.822   1.617   3.474
 2938SOL    HW2 9381   2.881   1.482   3.546
 2939SOL     OW 9382   3.721   1.518   3.467
 2939SOL    HW1 9383   3.735   1.545   3.372
 2939SOL    HW2 9384   3.804   1.540   3.520
 2940SOL     OW 9385   2.212   0.898   3.666
 2940SOL    HW1 9386   2.288   0.942   3.714
 2940SOL    HW2 9387   2.247   0.851   3.584
 2941SOL     OW 9388   3.402   0.274   1.987
 2941SOL    HW1 9389   3.341   0.199   2.010
 2941SOL    HW2 9390   3.424   0.326   2.070
 2942SOL     OW 9391   3.165   0.838   1.904
 2942SOL    HW1 9392   3.199   0.745   1.919
 2942SOL    HW2 9393   3.183   0.865   1.809
 2943SOL     OW 9394   2.930   1.333   2.711
 2943SOL    HW1 9395   2.937   1.249   2.656
 2943SOL    HW2 9396   2.992   1.402   2.675
 2944SOL     OW 9397   2.181   0.810   2.811
 2944SOL    HW1 9398   2.274   0.846   2.816
 2944SOL    HW2 9399   2.175   0.725   2.863
 2945SOL     OW 9400   2.201   0.509   2.868
 2945SOL    HW1 9401   2.149   0.426   2.851
 2945SOL    HW2 9402   2.278   0.514   2.804
 2946SOL     OW 9403   3.000   0.380   3.540
 2946SOL    HW1 9404   2.955   0.443   3.604
 2946SOL    HW2 9405   3.093   0.411   3.523
 2947SOL     OW 9406   3.022   0.207   3.339
 2947SOL    HW1 9407   3.022   0.271   3.416
 2947SOL    HW2 9408   3.050   0.255   3.256
 2948SOL     OW 9409   1.870   1.326   2.062
 2948SOL    HW1 9410   1.777   1.347   2.031
 2948SOL    HW2 9411   1.880   1.227   2.075
 2949SOL     OW 9412   1.950   1.801   2.789
 2949SOL    HW1 9413   1.908   1.715   2.762
 2949SOL    HW2 9414   2.044   1.804   2.755
 2950SOL     OW 9415   2.366   1.568   2.772
 2950SOL    HW1 9416   2.432   1.642   2.781
 2950SOL    HW2 9417   2.410   1.489   2.730
 2951SOL     OW 9418   2.864   0.796   3.100
 2951SOL    HW1 9419   2.905   0.764   3.186
 2951SOL    HW2 9420   2.768   0.769   3.097
 2952SOL     OW 9421   1.902   0.544   2.976
 2952SOL    HW1 9422   1.987   0.511   2.935
 2952SOL    HW2 9423   1.915   0.559   3.074
 2953SOL     OW 9424   2.051   0.520   3.584
 2953SOL    HW1 9425   2.110   0.480   3.514
 2953SOL    HW2 9426   1.993   0.591   3.543
 2954SOL     OW 9427   3.231   0.950   3.522
 2954SOL    HW1 9428   3.270   1.039   3.542
 2954SOL    HW2 9429   3.241   0.930   3.425
 2955SOL     OW 9430   2.677   0.572   2.187
 2955SOL    HW1 9431   2.684   0.483   2.141
 2955SOL    HW2 9432   2.583   0.606   2.179
 2956SOL     OW 9433   3.519   0.604   3.068
 2956SOL    HW1 9434   3.481   0.535   3.130
 2956SOL    HW2 9435   3.601   0.568   3.024
 2957SOL     OW 9436   2.114   1.564   3.606
 2957SOL    HW1 9437   2.084   1.621   3.682
 2957SOL    HW2 9438   2.107   1.467   3.632
 2958SOL     OW 9439   2.533   0.464   3.131
 2958SOL    HW1 9440   2.499   0.375   3.101
 2958SOL    HW2 9441   2.559   0.518   3.051
 2959SOL     OW 9442   2.792   1.678   3.327
 2959SOL    HW1 9443   2.768   1.660   3.232
 2959SOL    HW2 9444   2.822   1.772   3.337
 2960SOL     OW 9445   2.335   0.500   2.053
 2960SOL    HW1 9446   2.396   0.580   2.057
 2960SOL    HW2 9447   2.240   0.531   2.060
 2961SOL     OW 9448   2.021   1.137   3.328
 2961SOL    HW1 9449   2.043   1.076   3.404
 2961SOL    HW2 9450   2.031   1.088   3.242
 2962SOL     OW 9451   3.209   1.059   3.096
 2962SOL    HW1 9452   3.233   0.996   3.022
 2962SOL    HW2 9453   3.119   1.099   3.078
 2963SOL     OW 9454   3.164   0.855   2.171
 2963SOL    HW1 9455   3.078   0.824   2.213
 2963SOL    HW2 9456   3.160   0.841   2.072
 2964SOL     OW 9457   3.621   1.747   3.016
 2964SOL    HW1 9458   3.682   1.777   2.943
 2964SOL    HW2 9459   3.583   1.658   2.994
 2965SOL     OW 9460   3.114   1.731   2.990
 2965SOL    HW1 9461   3.198   1.736   2.936
 2965SOL    HW2 9462   3.091   1.635   3.008
 2966SOL     OW 9463   1.945   1.258   2.884
 2966SOL    HW1 9464   1.940   1.257   2.984
 2966SOL    HW2 9465   1.862   1.217   2.846
 2967SOL     OW 9466   2.550   1.662   3.578
 2967SOL    HW1 9467   2.494   1.743   3.587
 2967SOL    HW2 9468   2.602   1.666   3.492
 2968SOL     OW 9469   3.588   0.135   2.385
 2968SOL    HW1 9470   3.661   0.118   2.318
 2968SOL    HW2 9471   3.557   0.048   2.423
 2969SOL     OW 9472   3.250   1.573   2.339
 2969SOL    HW1 9473   3.317   1.585   2.265
 2969SOL    HW2 9474   3.210   1.662   2.362
 2970SOL     OW 9475   1.992   1.794   3.713
 2970SOL    HW1 9476   1.951   1.720   3.766
 2970SOL    HW2 9477   2.056   1.845   3.771
 2971SOL     OW 9478   3.142   0.927   2.534
 2971SOL    HW1 9479   3.202   0.846   2.536
 2971SOL    HW2 9480   3.182   0.996   2.474
 2972SOL     OW 9481   2.692   1.273   3.284
 2972SOL    HW1 9482   2.687   1.306   3.379
 2972SOL    HW2 9483   2.606   1.292   3.238
 2973SOL     OW 9484   2.534   1.616   2.016
 2973SOL    HW1 9485   2.543   1.626   1.917
 2973SOL    HW2 9486   2.494   1.527   2.037
 2974SOL     OW 9487   3.512   1.720   3.256
 2974SOL    HW1 9488   3.565   1.730   3.172
 2974SOL    HW2 9489   3.485   1.810   3.290
 2975SOL     OW 9490   3.703   0.175   2.825
 2975SOL    HW1 9491   3.742   0.090   2.789
 2975SOL    HW2 9492   3.605   0.177   2.806
 2976SOL     OW 9493   2.125   0.326   2.582
 2976SOL    HW1 9494   2.046   0.377   2.548
 2976SOL    HW2 9495   2.116   0.311   2.680
 2977SOL     OW 9496   3.056   1.612   1.893
 2977SOL    HW1 9497   3.062   1.519   1.930
 2977SOL    HW2 9498   2.997   1.612   1.813
 2978SOL     OW 9499   2.684   1.002   3.234
 2978SOL    HW1 9500   2.724   1.001   3.142
 2978SOL    HW2 9501   2.694   1.094   3.274
 2979SOL     OW 9502   2.778   0.910   2.153
 2979SOL    HW1 9503   2.841   0.948   2.085
 2979SOL    HW2 9504   2.818   0.827   2.192
 2980SOL     OW 9505   3.366   1.607   1.906
 2980SOL    HW1 9506   3.274   1.644   1.913
 2980SOL    HW2 9507   3.404   1.627   1.816
 2981SOL     OW 9508   2.234   1.288   3.352
 2981SOL    HW1 9509   2.221   1.381   3.318
 2981SOL    HW2 9510   2.150   1.236   3.339
 2982SOL     OW 9511   3.476   1.292   3.151
 2982SOL    HW1 9512   3.536   1.295   3.231
 2982SOL    HW2 9513   3.401   1.356   3.164
 2983SOL     OW 9514   2.901   1.098   2.558
 2983SOL    HW1 9515   2.831   1.051   2.612
 2983SOL    HW2 9516   2.960   1.030   2.515
 2984SOL     OW 9517   2.876   0.236   2.833
 2984SOL    HW1 9518   2.868   0.200   2.740
 2984SOL    HW2 9519   2.874   0.160   2.898
 2985SOL     OW 9520   2.452   1.487   2.353
 2985SOL    HW1 9521   2.494   1.429   2.283
 2985SOL    HW2 9522   2.408   1.566   2.309
 2986SOL     OW 9523   3.571   0.385   3.243
 2986SOL    HW1 9524   3.644   0.454   3.247
 2986SOL    HW2 9525   3.599   0.310   3.184
 2987SOL     OW 9526   2.117   1.348   2.152
 2987SOL    HW1 9527   2.021   1.349   2.125
 2987SOL    HW2 9528   2.129   1.401   2.236
 2988SOL     OW 9529   1.967   1.013   3.588
 2988SOL    HW1 9530   1.890   0.980   3.642
 2988SOL    HW2 9531   2.052   0.983   3.630
 2989SOL     OW 9532   2.534   0.203   3.351
 2989SOL    HW1 9533   2.624   0.187   3.311
 2989SOL    HW2 9534   2.542   0.208   3.450
 2990SOL     OW 9535   1.937   0.345   1.895
 2990SOL    HW1 9536   1.845   0.317   1.866
 2990SOL    HW2 9537   1.968   0.422   1.839
 2991SOL     OW 9538   3.302   0.856   3.260
 2991SOL    HW1 9539   3.245   0.908   3.197
 2991SOL    HW2 9540   3.398   0.868   3.236
 2992SOL     OW 9541   1.934   0.166   2.180
 2992SOL    HW1 9542   1.917   0.249   2.126
 2992SOL    HW2 9543   2.024   0.129   2.158
 2993SOL     OW 9544   3.045   1.335   1.981
 2993SOL    HW1 9545   2.946   1.324   1.983
 2993SOL    HW2 9546   3.079   1.350   2.074
 2994SOL     OW 9547   2.475   0.842   3.293
 2994SOL    HW1 9548   2.531   0.923   3.276
 2994SOL    HW2 9549   2.534   0.762   3.296
 2995SOL     OW 9550   3.355   1.767   2.821
 2995SOL    HW1 9551   3.388   1.831   2.752
 2995SOL    HW2 9552   3.421   1.761   2.896
 2996SOL     OW 9553   2.578   0.565   3.570
 2996SOL    HW1 9554   2.597   0.630   3.644
 2996SOL    HW2 9555   2.638   0.485   3.579
 2997SOL     OW 9556   3.312   1.220   3.495
 2997SOL    HW1 9557   3.303   1.210   3.594
 2997SOL    HW2 9558   3.408   1.213   3.469
 2998SOL     OW 9559   2.252   1.741   3.422
 2998SOL    HW1 9560   2.161   1.782   3.420
 2998SOL    HW2 9561   2.245   1.647   3.454
 2999SOL     OW 9562   3.536   0.883   3.116
 2999SOL    HW1 9563   3.509   0.794   3.079
 2999SOL    HW2 9564   3.537   0.951   3.043
 3000SOL     OW 9565   3.087   0.325   2.311
 3000SOL    HW1 9566   3.152   0.251   2.300
 3000SOL    HW2 9567   3.107   0.375   2.395
 3001SOL     OW 9568   2.456   0.745   2.514
 3001SOL    HW1 9569   2.506   0.830   2.495
 3001SOL    HW2 9570   2.368   0.747   2.466
 3002SOL     OW 9571   3.639   0.342   3.504
 3002SOL    HW1 9572   3.622   0.373   3.410
 3002SOL    HW2 9573   3.555   0.305   3.542
 3003SOL     OW 9574   3.592   0.934   3.379
 3003SOL    HW1 9575   3.630   1.025   3.394
 3003SOL    HW2 9576   3.584   0.917   3.280
 3004SOL     OW 9577   2.721   1.374   1.878
 3004SOL    HW1 9578   2.675   1.389   1.966
 3004SOL    HW2 9579   2.765   1.459   1.848
 3005SOL     OW 9580   2.523   1.790   2.815
 3005SOL    HW1 9581   2.477   1.878   2.802
 3005SOL    HW2 9582   2.622   1.802   2.808
 3006SOL     OW 9583   2.721   0.956   2.723
 3006SOL    HW1 9584   2.775   0.887   2.771
 3006SOL    HW2 9585   2.689   1.025   2.789
 3007SOL     OW 9586   2.945   0.984   1.949
 3007SOL    HW1 9587   2.922   1.037   1.867
 3007SOL    HW2 9588   3.026   0.928   1.930
 3008SOL     OW 9589   3.723   1.569   2.713
 3008SOL    HW1 9590   3.652   1.557   2.643
 3008SOL    HW2 9591   3.724   1.490   2.773
 3009SOL     OW 9592   2.083   1.314   3.706
 3009SOL    HW1 9593   2.018   1.241   3.685
 3009SOL    HW2 9594   2.087   1.328   3.804
 3010SOL     OW 9595   1.941   1.240   2.515
 3010SOL    HW1 9596   1.940   1.193   2.603
 3010SOL    HW2 9597   2.023   1.212   2.464
 3011SOL     OW 9598   2.534   1.391   3.486
 3011SOL    HW1 9599   2.456   1.341   3.524
 3011SOL    HW2 9600   2.531   1.486   3.517
 3012SOL     OW 9601   3.686   0.192   3.089
 3012SOL    HW1 9602   3.682   0.102   3.133
 3012SOL    HW2 9603   3.689   0.181   2.990
 3013SOL     OW 9604   2.290   0.424   2.382
 3013SOL    HW1 9605   2.320   0.352   2.320
 3013SOL    HW2 9606   2.251   0.384   2.465
 3014SOL     OW 9607   3.567   1.487   2.966
 3014SOL    HW1 9608   3.474   1.462   2.939
 3014SOL    HW2 9609   3.593   1.437   3.048
 3015SOL     OW 9610   2.179   0.547   3.142
 3015SOL    HW1 9611   2.217   0.488   3.214
 3015SOL    HW2 9612   2.219   0.521   3.054
 3016SOL     OW 9613   2.674   1.586   2.549
 3016SOL    HW1 9614   2.706   1.596   2.455
 3016SOL    HW2 9615   2.595   1.524   2.551
 3017SOL     OW 9616   3.286   0.214   2.974
 3017SOL    HW1 9617   3.338   0.149   3.029
 3017SOL    HW2 9618   3.237   0.277   3.035
 3018SOL     OW 9619   2.863   0.034   3.016
 3018SOL    HW1 9620   2.800  -0.038   2.985
 3018SOL    HW2 9621   2.956  -0.002   3.016
 3019SOL     OW 9622   2.632   1.330   2.163
 3019SOL    HW1 9623   2.586   1.243   2.180
 3019SOL    HW2 9624   2.723   1.327   2.204
 3020SOL     OW 9625   2.480   1.567   3.146
 3020SOL    HW1 9626   2.475   1.649   3.203
 3020SOL    HW2 9627   2.569   1.564   3.101
 3021SOL     OW 9628   3.214   0.052   2.030
 3021SOL    HW1 9629   3.249   0.011   1.946
 3021SOL    HW2 9630   3.124   0.014   2.050
 3022SOL     OW 9631   3.162   0.453   2.553
 3022SOL    HW1 9632   3.103   0.533   2.557
 3022SOL    HW2 9633   3.177   0.418   2.646
 3023SOL     OW 9634   3.455   0.221   2.744
 3023SOL    HW1 9635   3.371   0.220   2.798
 3023SOL    HW2 9636   3.457   0.304   2.688
 3024SOL     OW 9637   1.901   1.077   2.162
 3024SOL    HW1 9638   2.000   1.066   2.153
 3024SOL    HW2 9639   1.861   0.991   2.194
 3025SOL     OW 9640   2.737   1.646   2.199
 3025SOL    HW1 9641   2.660   1.611   2.145
 3025SOL    HW2 9642   2.705   1.717   2.261
 3026SOL     OW 9643   2.092   0.628   3.837
 3026SOL    HW1 9644   1.999   0.626   3.874
 3026SOL    HW2 9645   2.093   0.589   3.745
 3027SOL     OW 9646   2.087   0.275   4.720
 3027SOL    HW1 9647   2.122   0.258   4.812
 3027SOL    HW2 9648   1.999   0.230   4.708
 3028SOL     OW 9649   1.881   0.368   4.371
 3028SOL    HW1 9650   1.799   0.411   4.410
 3028SOL    HW2 9651   1.853   0.295   4.308
 3029SOL     OW 9652   2.431   1.275   4.889
 3029SOL    HW1 9653   2.338   1.268   4.852
 3029SOL    HW2 9654   2.442   1.364   4.933
 3030SOL     OW 9655   3.417   1.511   4.427
 3030SOL    HW1 9656   3.360   1.495   4.508
 3030SOL    HW2 9657   3.358   1.521   4.347
 3031SOL     OW 9658   2.997   0.703   4.441
 3031SOL    HW1 9659   3.054   0.781   4.416
 3031SOL    HW2 9660   2.937   0.729   4.517
 3032SOL     OW 9661   3.617   0.607   3.955
 3032SOL    HW1 9662   3.605   0.594   3.856
 3032SOL    HW2 9663   3.587   0.526   4.004
 3033SOL     OW 9664   2.630   1.144   4.747
 3033SOL    HW1 9665   2.552   1.161   4.807
 3033SOL    HW2 9666   2.664   1.231   4.711
 3034SOL     OW 9667   2.712   0.798   5.547
 3034SOL    HW1 9668   2.708   0.874   5.612
 3034SOL    HW2 9669   2.734   0.834   5.456
 3035SOL     OW 9670   2.547   1.012   4.389
 3035SOL    HW1 9671   2.616   0.996   4.459
 3035SOL    HW2 9672   2.474   1.069   4.427
 3036SOL     OW 9673   2.548   1.161   5.527
 3036SOL    HW1 9674   2.608   1.240   5.541
 3036SOL    HW2 9675   2.462   1.192   5.486
 3037SOL     OW 9676   2.197   1.435   4.785
 3037SOL    HW1 9677   2.119   1.404   4.732
 3037SOL    HW2 9678   2.255   1.493   4.728
 3038SOL     OW 9679   3.322   1.505   5.063
 3038SOL    HW1 9680   3.346   1.599   5.089
 3038SOL    HW2 9681   3.306   1.451   5.145
 3039SOL     OW 9682   2.300   0.392   5.223
 3039SOL    HW1 9683   2.382   0.336   5.232
 3039SOL    HW2 9684   2.219   0.334   5.227
 3040SOL     OW 9685   3.465   0.447   4.461
 3040SOL    HW1 9686   3.391   0.493   4.411
 3040SOL    HW2 9687   3.516   0.515   4.514
 3041SOL     OW 9688   2.093   1.713   4.207
 3041SOL    HW1 9689   2.127   1.790   4.261
 3041SOL    HW2 9690   2.137   1.713   4.117
 3042SOL     OW 9691   2.989   1.341   5.414
 3042SOL    HW1 9692   3.036   1.341   5.502
 3042SOL    HW2 9693   2.941   1.254   5.403
 3043SOL     OW 9694   2.092   1.434   4.262
 3043SOL    HW1 9695   2.066   1.530   4.262
 3043SOL    HW2 9696   2.021   1.380   4.307
 3044SOL     OW 9697   2.102   1.091   4.610
 3044SOL    HW1 9698   2.116   1.007   4.662
 3044SOL    HW2 9699   2.047   1.155   4.665
 3045SOL     OW 9700   2.482   1.786   5.163
 3045SOL    HW1 9701   2.390   1.769   5.198
 3045SOL    HW2 9702   2.510   1.878   5.189
 3046SOL     OW 9703   2.468   0.964   3.847
 3046SOL    HW1 9704   2.475   1.048   3.793
 3046SOL    HW2 9705   2.514   0.977   3.935
 3047SOL     OW 9706   3.456   0.114   5.204
 3047SOL    HW1 9707   3.438   0.181   5.132
 3047SOL    HW2 9708   3.453   0.160   5.293
 3048SOL     OW 9709   1.984   0.643   4.287
 3048SOL    HW1 9710   1.939   0.555   4.304
 3048SOL    HW2 9711   1.983   0.697   4.371
 3049SOL     OW 9712   3.704   1.767   4.083
 3049SOL    HW1 9713   3.758   1.738   4.163
 3049SOL    HW2 9714   3.734   1.857   4.054
 3050SOL     OW 9715   1.889   1.596   3.841
 3050SOL    HW1 9716   1.870   1.500   3.862
 3050SOL    HW2 9717   1.856   1.654   3.916
 3051SOL     OW 9718   3.551   0.922   4.336
 3051SOL    HW1 9719   3.646   0.893   4.344
 3051SOL    HW2 9720   3.543   0.987   4.261
 3052SOL     OW 9721   3.503   1.108   4.156
 3052SOL    HW1 9722   3.589   1.110   4.104
 3052SOL    HW2 9723   3.517   1.155   4.244
 3053SOL     OW 9724   1.975   0.737   5.321
 3053SOL    HW1 9725   2.063   0.724   5.366
 3053SOL    HW2 9726   1.962   0.834   5.299
 3054SOL     OW 9727   2.475   1.365   4.450
 3054SOL    HW1 9728   2.426   1.278   4.459
 3054SOL    HW2 9729   2.452   1.408   4.363
 3055SOL     OW 9730   3.155   1.228   5.147
 3055SOL    HW1 9731   3.192   1.155   5.089
 3055SOL    HW2 9732   3.207   1.233   5.232
 3056SOL     OW 9733   2.671   0.004   4.226
 3056SOL    HW1 9734   2.711   0.095   4.217
 3056SOL    HW2 9735   2.571   0.012   4.232
 3057SOL     OW 9736   2.059   0.976   4.988
 3057SOL    HW1 9737   2.148   0.931   4.974
 3057SOL    HW2 9738   1.986   0.911   4.969
 3058SOL     OW 9739   3.387   0.999   3.914
 3058SOL    HW1 9740   3.324   0.923   3.927
 3058SOL    HW2 9741   3.435   1.017   4.000
 3059SOL     OW 9742   3.049   1.792   5.340
 3059SOL    HW1 9743   3.073   1.852   5.264
 3059SOL    HW2 9744   3.056   1.697   5.310
 3060SOL     OW 9745   2.179   0.251   5.525
 3060SOL    HW1 9746   2.250   0.322   5.531
 3060SOL    HW2 9747   2.091   0.290   5.553
 3061SOL     OW 9748   3.328   1.417   4.677
 3061SOL    HW1 9749   3.269   1.423   4.757
 3061SOL    HW2 9750   3.313   1.329   4.631
 3062SOL     OW 9751   3.529   1.714   4.296
 3062SOL    HW1 9752   3.488   1.691   4.208
 3062SOL    HW2 9753   3.511   1.640   4.361
 3063SOL     OW 9754   2.460   0.729   3.994
 3063SOL    HW1 9755   2.484   0.798   3.926
 3063SOL    HW2 9756   2.382   0.762   4.048
 3064SOL     OW 9757   3.143   0.345   4.668
 3064SOL    HW1 9758   3.057   0.295   4.655
 3064SOL    HW2 9759   3.205   0.291   4.724
 3065SOL     OW 9760   3.438   1.662   4.031
 3065SOL    HW1 9761   3.527   1.708   4.034
 3065SOL    HW2 9762   3.417   1.638   3.936
 3066SOL     OW 9763   2.669   0.605   5.189
 3066SOL    HW1 9764   2.622   0.602   5.278
 3066SOL    HW2 9765   2.618   0.550   5.123
 3067SOL     OW 9766   3.256   0.469   5.398
 3067SOL    HW1 9767   3.236   0.512   5.486
 3067SOL    HW2 9768   3.334   0.407   5.407
 3068SOL     OW 9769   2.835   0.890   5.296
 3068SOL    HW1 9770   2.881   0.806   5.267
 3068SOL    HW2 9771   2.779   0.924   5.221
 3069SOL     OW 9772   2.853   0.410   4.966
 3069SOL    HW1 9773   2.776   0.444   5.020
 3069SOL    HW2 9774   2.819   0.359   4.887
 3070SOL     OW 9775   2.903   0.701   4.153
 3070SOL    HW1 9776   2.929   0.697   4.249
 3070SOL    HW2 9777   2.818   0.650   4.139
 3071SOL     OW 9778   1.938   0.811   4.513
 3071SOL    HW1 9779   2.037   0.799   4.522
 3071SOL    HW2 9780   1.914   0.906   4.534
 3072SOL     OW 9781   1.992   1.821   5.295
 3072SOL    HW1 9782   1.982   1.806   5.394
 3072SOL    HW2 9783   1.906   1.857   5.259
 3073SOL     OW 9784   2.727   0.348   3.919
 3073SOL    HW1 9785   2.786   0.411   3.870
 3073SOL    HW2 9786   2.746   0.254   3.890
 3074SOL     OW 9787   3.581   0.585   5.555
 3074SOL    HW1 9788   3.555   0.674   5.519
 3074SOL    HW2 9789   3.579   0.517   5.482
 3075SOL     OW 9790   3.224   1.144   4.269
 3075SOL    HW1 9791   3.307   1.115   4.221
 3075SOL    HW2 9792   3.175   1.211   4.213
 3076SOL     OW 9793   2.412   0.196   4.609
 3076SOL    HW1 9794   2.407   0.191   4.709
 3076SOL    HW2 9795   2.414   0.292   4.580
 3077SOL     OW 9796   2.870   1.456   4.201
 3077SOL    HW1 9797   2.824   1.528   4.149
 3077SOL    HW2 9798   2.866   1.476   4.299
 3078SOL     OW 9799   2.213   1.801   4.577
 3078SOL    HW1 9800   2.263   1.715   4.583
 3078SOL    HW2 9801   2.278   1.878   4.574
 3079SOL     OW 9802   3.657   1.066   4.597
 3079SOL    HW1 9803   3.595   1.051   4.521
 3079SOL    HW2 9804   3.605   1.077   4.682
 3080SOL     OW 9805   3.089   1.550   5.230
 3080SOL    HW1 9806   3.095   1.473   5.294
 3080SOL    HW2 9807   3.037   1.524   5.150
 3081SOL     OW 9808   2.183   0.943   3.966
 3081SOL    HW1 9809   2.265   0.982   3.924
 3081SOL    HW2 9810   2.156   0.861   3.917
 3082SOL     OW 9811   3.320   0.735   4.452
 3082SOL    HW1 9812   3.315   0.670   4.527
 3082SOL    HW2 9813   3.400   0.794   4.465
 3083SOL     OW 9814   2.323   1.266   5.451
 3083SOL    HW1 9815   2.273   1.267   5.365
 3083SOL    HW2 9816   2.260   1.248   5.527
 3084SOL     OW 9817   2.973   1.776   3.961
 3084SOL    HW1 9818   2.913   1.714   4.011
 3084SOL    HW2 9819   3.004   1.732   3.876
 3085SOL     OW 9820   2.064   0.285   5.222
 3085SOL    HW1 9821   1.984   0.345   5.209
 3085SOL    HW2 9822   2.054   0.236   5.308
 3086SOL     OW 9823   3.494   1.377   3.805
 3086SOL    HW1 9824   3.462   1.471   3.795
 3086SOL    HW2 9825   3.418   1.314   3.793
 3087SOL     OW 9826   2.326   1.743   4.047
 3087SOL    HW1 9827   2.359   1.782   4.133
 3087SOL    HW2 9828   2.402   1.736   3.982
 3088SOL     OW 9829   3.262   0.107   4.150
 3088SOL    HW1 9830   3.238   0.070   4.060
 3088SOL    HW2 9831   3.361   0.123   4.154
 3089SOL     OW 9832   2.111   1.785   4.965
 3089SOL    HW1 9833   2.168   1.720   5.015
 3089SOL    HW2 9834   2.095   1.752   4.872
 3090SOL     OW 9835   2.802   1.698   4.628
 3090SOL    HW1 9836   2.882   1.641   4.649
 3090SOL    HW2 9837   2.753   1.658   4.551
 3091SOL     OW 9838   2.244   0.700   4.204
 3091SOL    HW1 9839   2.289   0.610   4.201
 3091SOL    HW2 9840   2.150   0.689   4.237
 3092SOL     OW 9841   3.409   0.222   5.453
 3092SOL    HW1 9842   3.404   0.259   5.545
 3092SOL    HW2 9843   3.337   0.153   5.441
 3093SOL     OW 9844   2.476   0.122   3.841
 3093SOL    HW1 9845   2.574   0.100   3.848
 3093SOL    HW2 9846   2.445   0.105   3.748
 3094SOL     OW 9847   2.643   0.264   5.473
 3094SOL    HW1 9848   2.710   0.203   5.516
 3094SOL    HW2 9849   2.570   0.283   5.538
 3095SOL     OW 9850   2.750   1.514   4.919
 3095SOL    HW1 9851   2.727   1.489   4.825
 3095SOL    HW2 9852   2.811   1.445   4.958
 3096SOL     OW 9853   3.213   0.590   5.157
 3096SOL    HW1 9854   3.241   0.547   5.242
 3096SOL    HW2 9855   3.238   0.686   5.158
 3097SOL     OW 9856   2.665   1.402   4.648
 3097SOL    HW1 9857   2.755   1.416   4.606
 3097SOL    HW2 9858   2.594   1.404   4.577
 3098SOL     OW 9859   2.784   0.503   4.623
 3098SOL    HW1 9860   2.759   0.494   4.527
 3098SOL    HW2 9861   2.832   0.421   4.654
 3099SOL     OW 9862   2.401   0.064   4.236
 3099SOL    HW1 9863   2.320   0.065   4.294
 3099SOL    HW2 9864   2.404   0.147   4.181
 3100SOL     OW 9865   3.296   1.188   3.765
 3100SOL    HW1 9866   3.328   1.112   3.822
 3100SOL    HW2 9867   3.204   1.215   3.795
 3101SOL     OW 9868   2.159   0.035   3.895
 3101SOL    HW1 9869   2.208   0.119   3.874
 3101SOL    HW2 9870   2.221  -0.030   3.940
 3102SOL     OW 9871   2.797   0.236   4.204
 3102SOL    HW1 9872   2.749   0.277   4.126
 3102SOL    HW2 9873   2.896   0.234   4.185
 3103SOL     OW 9874   2.938   0.683   5.188
 3103SOL    HW1 9875   2.858   0.622   5.191
 3103SOL    HW2 9876   3.019   0.630   5.164
 3104SOL     OW 9877   3.089   1.570   4.517
 3104SOL    HW1 9878   3.110   1.644   4.452
 3104SOL    HW2 9879   3.157   1.570   4.590
 3105SOL     OW 9880   2.321   1.152   4.465
 3105SOL    HW1 9881   2.250   1.125   4.530
 3105SOL    HW2 9882   2.295   1.124   4.372
 3106SOL     OW 9883   3.133   1.797   4.315
 3106SOL    HW1 9884   3.177   1.861   4.251
 3106SOL    HW2 9885   3.083   1.849   4.385
 3107SOL     OW 9886   2.894   0.549   3.740
 3107SOL    HW1 9887   2.853   0.631   3.701
 3107SOL    HW2 9888   2.958   0.575   3.813
 3108SOL     OW 9889   1.940   0.556   5.110
 3108SOL    HW1 9890   2.032   0.555   5.069
 3108SOL    HW2 9891   1.934   0.630   5.177
 3109SOL     OW 9892   2.423   0.222   4.871
 3109SOL    HW1 9893   2.461   0.138   4.908
 3109SOL    HW2 9894   2.335   0.241   4.915
 3110SOL     OW 9895   2.728   0.454   4.366
 3110SOL    HW1 9896   2.696   0.526   4.304
 3110SOL    HW2 9897   2.752   0.373   4.313
 3111SOL     OW 9898   2.879   0.039   4.477
 3111SOL    HW1 9899   2.807   0.044   4.408
 3111SOL    HW2 9900   2.855  -0.030   4.546
 3112SOL     OW 9901   3.291   1.173   4.591
 3112SOL    HW1 9902   3.236   1.089   4.584
 3112SOL    HW2 9903   3.317   1.202   4.499
 3113SOL     OW 9904   3.328   0.590   4.716
 3113SOL    HW1 9905   3.298   0.495   4.723
 3113SOL    HW2 9906   3.401   0.606   4.782
 3114SOL     OW 9907   3.719   0.833   4.101
 3114SOL    HW1 9908   3.761   0.769   4.165
 3114SOL    HW2 9909   3.681   0.782   4.023
 3115SOL     OW 9910   2.350   1.385   3.898
 3115SOL    HW1 9911   2.263   1.370   3.945
 3115SOL    HW2 9912   2.333   1.411   3.803
 3116SOL     OW 9913   3.526   1.280   4.381
 3116SOL    HW1 9914   3.625   1.288   4.395
 3116SOL    HW2 9915   3.481   1.364   4.412
 3117SOL     OW 9916   3.252   0.575   3.802
 3117SOL    HW1 9917   3.198   0.554   3.883
 3117SOL    HW2 9918   3.343   0.534   3.811
 3118SOL     OW 9919   2.389   0.256   4.052
 3118SOL    HW1 9920   2.416   0.197   3.977
 3118SOL    HW2 9921   2.389   0.351   4.021
 3119SOL     OW 9922   3.616   1.223   5.312
 3119SOL    HW1 9923   3.707   1.184   5.299
 3119SOL    HW2 9924   3.624   1.319   5.336
 3120SOL     OW 9925   2.926   1.347   5.064
 3120SOL    HW1 9926   2.846   1.324   5.119
 3120SOL    HW2 9927   3.009   1.321   5.113
 3121SOL     OW 9928   3.454   1.629   5.349
 3121SOL    HW1 9929   3.481   1.663   5.259
 3121SOL    HW2 9930   3.533   1.591   5.395
 3122SOL     OW 9931   2.973   1.195   4.824
 3122SOL    HW1 9932   2.933   1.239   4.905
 3122SOL    HW2 9933   2.932   1.232   4.741
 3123SOL     OW 9934   3.500   1.099   4.803
 3123SOL    HW1 9935   3.505   1.180   4.862
 3123SOL    HW2 9936   3.414   1.101   4.752
 3124SOL     OW 9937   2.777   0.089   5.126
 3124SOL    HW1 9938   2.802   0.069   5.031
 3124SOL    HW2 9939   2.849   0.145   5.168
 3125SOL     OW 9940   2.842   1.116   5.443
 3125SOL    HW1 9941   2.743   1.122   5.453
 3125SOL    HW2 9942   2.865   1.036   5.387
 3126SOL     OW 9943   2.567   1.050   4.092
 3126SOL    HW1 9944   2.553   1.057   4.191
 3126SOL    HW2 9945   2.651   0.999   4.074
 3127SOL     OW 9946   2.272   0.813   4.975
 3127SOL    HW1 9947   2.358   0.825   5.025
 3127SOL    HW2 9948   2.230   0.726   5.002
 3128SOL     OW 9949   3.136   0.386   4.986
 3128SOL    HW1 9950   3.157   0.460   5.050
 3128SOL    HW2 9951   3.047   0.403   4.943
 3129SOL     OW 9952   1.926   1.564   5.055
 3129SOL    HW1 9953   1.880   1.646   5.021
 3129SOL    HW2 9954   2.024   1.583   5.064
 3130SOL     OW 9955   2.229   1.100   4.225
 3130SOL    HW1 9956   2.222   1.183   4.169
 3130SOL    HW2 9957   2.233   1.020   4.165
 3131SOL     OW 9958   2.428   0.537   4.589
 3131SOL    HW1 9959   2.440   0.603   4.515
 3131SOL    HW2 9960   2.474   0.571   4.672
 3132SOL     OW 9961   3.114   1.348   4.112
 3132SOL    HW1 9962   3.164   1.425   4.152
 3132SOL    HW2 9963   3.019   1.350   4.144
 3133SOL     OW 9964   3.134   1.445   4.866
 3133SOL    HW1 9965   3.181   1.458   4.953
 3133SOL    HW2 9966   3.068   1.371   4.875
 3134SOL     OW 9967   3.444   0.639   4.196
 3134SOL    HW1 9968   3.413   0.700   4.269
 3134SOL    HW2 9969   3.494   0.691   4.127
 3135SOL     OW 9970   2.216   1.510   5.053
 3135SOL    HW1 9971   2.195   1.466   4.966
 3135SOL    HW2 9972   2.313   1.536   5.056
 3136SOL     OW 9973   2.264   0.751   5.322
 3136SOL    HW1 9974   2.332   0.806   5.275
 3136SOL    HW2 9975   2.304   0.663   5.349
 3137SOL     OW 9976   3.449   0.779   5.394
 3137SOL    HW1 9977   3.357   0.817   5.389
 3137SOL    HW2 9978   3.509   0.826   5.329
 3138SOL     OW 9979   2.875   0.105   5.494
 3138SOL    HW1 9980   2.881   0.190   5.442
 3138SOL    HW2 9981   2.907   0.029   5.437
 3139SOL     OW 9982   2.366   0.050   5.464
 3139SOL    HW1 9983   2.324  -0.007   5.394
 3139SOL    HW2 9984   2.300   0.119   5.496
 3140SOL     OW 9985   2.435   0.870   4.753
 3140SOL    HW1 9986   2.479   0.959   4.744
 3140SOL    HW2 9987   2.372   0.870   4.830
 3141SOL     OW 9988   3.222   0.862   4.769
 3141SOL    HW1 9989   3.147   0.862   4.703
 3141SOL    HW2 9990   3.259   0.770   4.778
 3142SOL     OW 9991   3.071   0.525   3.999
 3142SOL    HW1 9992   3.084   0.441   4.053
 3142SOL    HW2 9993   3.042   0.599   4.059
 3143SOL     OW 9994   2.169   0.213   4.955
 3143SOL    HW1 9995   2.146   0.250   5.045
 3143SOL    HW2 9996   2.139   0.118   4.949
 3144SOL     OW 9997   1.899   1.310   5.006
 3144SOL    HW1 9998   1.952   1.261   5.074
 3144SOL    HW2 9999   1.921   1.408   5.011
 3145SOL     OW10000   2.594   0.634   4.788
 3145SOL    HW110001   2.653   0.608   4.712
 3145SOL    HW210002   2.566   0.730   4.777
 3146SOL     OW10003   3.590   0.935   5.578
 3146SOL    HW110004   3.544   0.928   5.489
 3146SOL    HW210005   3.528   0.979   5.644
 3147SOL     OW10006   2.169   0.063   4.342
 3147SOL    HW110007   2.158   0.157   4.375
 3147SOL    HW210008   2.164   0.000   4.419
 3148SOL     OW10009   3.484   0.367   4.098
 3148SOL    HW110010   3.486   0.291   4.162
 3148SOL    HW210011   3.436   0.444   4.138
 3149SOL     OW10012   2.885   0.766   4.690
 3149SOL    HW110013   2.900   0.787   4.786
 3149SOL    HW210014   2.855   0.671   4.681
 3150SOL     OW10015   2.842   1.573   5.424
 3150SOL    HW110016   2.822   1.617   5.336
 3150SOL    HW210017   2.881   1.482   5.408
 3151SOL     OW10018   3.721   1.518   5.329
 3151SOL    HW110019   3.735   1.545   5.234
 3151SOL    HW210020   3.804   1.540   5.382
 3152SOL     OW10021   2.212   0.898   5.528
 3152SOL    HW110022   2.288   0.942   5.576
 3152SOL    HW210023   2.247   0.851   5.446
 3153SOL     OW10024   3.402   0.274   3.849
 3153SOL    HW110025   3.341   0.199   3.872
 3153SOL    HW210026   3.424   0.326   3.932
 3154SOL     OW10027   3.165   0.838   3.766
 3154SOL    HW110028   3.199   0.745   3.781
 3154SOL    HW210029   3.183   0.865   3.671
 3155SOL     OW10030   2.930   1.333   4.573
 3155SOL    HW110031   2.937   1.249   4.518
 3155SOL    HW210032   2.992   1.402   4.537
 3156SOL     OW10033   2.181   0.810   4.673
 3156SOL    HW110034   2.274   0.846   4.678
 3156SOL    HW210035   2.175   0.725   4.725
 3157SOL     OW10036   2.201   0.509   4.730
 3157SOL    HW110037   2.149   0.426   4.713
 3157SOL    HW210038   2.278   0.514   4.666
 3158SOL     OW10039   3.000   0.380   5.402
 3158SOL    HW110040   2.955   0.443   5.466
 3158SOL    HW210041   3.093   0.411   5.385
 3159SOL     OW10042   3.022   0.207   5.201
 3159SOL    HW110043   3.022   0.271   5.278
 3159SOL    HW210044   3.050   0.255   5.118
 3160SOL     OW10045   1.870   1.326   3.924
 3160SOL    HW110046   1.777   1.347   3.893
 3160SOL    HW210047   1.880   1.227   3.937
 3161SOL     OW10048   1.950   1.801   4.651
 3161SOL    HW110049   1.908   1.715   4.624
 3161SOL    HW210050   2.044   1.804   4.617
 3162SOL     OW10051   2.366   1.568   4.634
 3162SOL    HW110052   2.432   1.642   4.643
 3162SOL    HW210053   2.410   1.489   4.592
 3163SOL     OW10054   2.864   0.796   4.962
 3163SOL    HW110055   2.905   0.764   5.048
 3163SOL    HW210056   2.768   0.769   4.959
 3164SOL     OW10057   1.902   0.544   4.838
 3164SOL    HW110058   1.987   0.511   4.797
 3164SOL    HW210059   1.915   0.559   4.936
 3165SOL     OW10060   2.051   0.520   5.446
 3165SOL    HW110061   2.110   0.480   5.376
 3165SOL    HW210062   1.993   0.591   5.405
 3166SOL     OW10063   3.231   0.950   5.384
 3166SOL    HW110064   3.270   1.039   5.404
 3166SOL    HW210065   3.241   0.930   5.287
 3167SOL     OW10066   2.677   0.572   4.049
 3167SOL    HW110067   2.684   0.483   4.003
 3167SOL    HW210068   2.583   0.606   4.041
 3168SOL     OW10069   3.519   0.604   4.930
 3168SOL    HW110070   3.481   0.535   4.992
 3168SOL    HW210071   3.601   0.568   4.886
 3169SOL     OW10072   2.114   1.564   5.468
 3169SOL    HW110073   2.084   1.621   5.544
 3169SOL    HW210074   2.107   1.467   5.494
 3170SOL     OW10075   2.533   0.464   4.993
 3170SOL    HW110076   2.499   0.375   4.963
 3170SOL    HW210077   2.559   0.518   4.913
 3171SOL     OW10078   2.792   1.678   5.189
 3171SOL    HW110079   2.768   1.660   5.094
 3171SOL    HW210080   2.822   1.772   5.199
 3172SOL     OW10081   2.335   0.500   3.915
 3172SOL    HW110082   2.396   0.580   3.919
 3172SOL    HW210083   2.240   0.531   3.922
 3173SOL     OW10084   2.021   1.137   5.190
 3173SOL    HW110085   2.043   1.076   5.266
 3173SOL    HW210086   2.031   1.088   5.104
 3174SOL     OW10087   3.209   1.059   4.958
 3174SOL    HW110088   3.233   0.996   4.884
 3174SOL    HW210089   3.119   1.099   4.940
 3175SOL     OW10090   3.164   0.855   4.033
 3175SOL    HW110091   3.078   0.824   4.075
 3175SOL    HW210092   3.160   0.841   3.934
 3176SOL     OW10093   3.621   1.747   4.878
 3176SOL    HW110094   3.682   1.777   4.805
 3176SOL    HW210095   3.583   1.658   4.856
 3177SOL     OW10096   3.114   1.731   4.852
 3177SOL    HW110097   3.198   1.736   4.798
 3177SOL    HW210098   3.091   1.635   4.870
 3178SOL     OW10099   1.945   1.258   4.746
 3178SOL    HW110100   1.940   1.257   4.846
 3178SOL    HW210101   1.862   1.217   4.708
 3179SOL     OW10102   2.550   1.662   5.440
 3179SOL    HW110103   2.494   1.743   5.449
 3179SOL    HW210104   2.602   1.666   5.354
 3180SOL     OW10105   3.588   0.135   4.247
 3180SOL    HW110106   3.661   0.118   4.180
 3180SOL    HW210107   3.557   0.048   4.285
 3181SOL     OW10108   3.250   1.573   4.201
 3181SOL    HW110109   3.317   1.585   4.127
 3181SOL    HW210110   3.210   1.662   4.224
 3182SOL     OW10111   1.992   1.794   5.575
 3182SOL    HW110112   1.951   1.720   5.628
 3182SOL    HW210113   2.056   1.845   5.633
 3183SOL     OW10114   3.142   0.927   4.396
 3183SOL    HW110115   3.202   0.846   4.398
 3183SOL    HW210116   3.182   0.996   4.336
 3184SOL     OW10117   2.692   1.273   5.146
 3184SOL    HW110118   2.687   1.306   5.241
 3184SOL    HW210119   2.606   1.292   5.100
 3185SOL     OW10120   2.534   1.616   3.878
 3185SOL    HW110121   2.543   1.626   3.779
 3185SOL    HW210122   2.494   1.527   3.899
 3186SOL     OW10123   3.512   1.720   5.118
 3186SOL    HW110124   3.565   1.730   5.034
 3186SOL    HW210125   3.485   1.810   5.152
 3187SOL     OW10126   3.703   0.175   4.687
 3187SOL    HW110127   3.742   0.090   4.651
 3187SOL    HW210128   3.605   0.177   4.668
 3188SOL     OW10129   2.125   0.326   4.444
 3188SOL    HW110130   2.046   0.377   4.410
 3188SOL    HW210131   2.116   0.311   4.542
 3189SOL     OW10132   3.056   1.612   3.755
 3189SOL    HW110133   3.062   1.519   3.792
 3189SOL    HW210134   2.997   1.612   3.675
 3190SOL     OW10135   2.684   1.002   5.096
 3190SOL    HW110136   2.724   1.001   5.004
 3190SOL    HW210137   2.694   1.094   5.136
 3191SOL     OW10138   2.778   0.910   4.015
 3191SOL    HW110139   2.841   0.948   3.947
 3191SOL    HW210140   2.818   0.827   4.054
 3192SOL     OW10141   3.366   1.607   3.768
 3192SOL    HW110142   3.274   1.644   3.775
 3192SOL    HW210143   3.404   1.627   3.678
 3193SOL     OW10144   2.234   1.288   5.214
 3193SOL    HW110145   2.221   1.381   5.180
 3193SOL    HW210146   2.150   1.236   5.201
 3194SOL     OW10147   3.476   1.292   5.013
 3194SOL    HW110148   3.536   1.295   5.093
 3194SOL    HW210149   3.401   1.356   5.026
 3195SOL     OW10150   2.901   1.098   4.420
 3195SOL    HW110151   2.831   1.051   4.474
 3195SOL    HW210152   2.960   1.030   4.377
 3196SOL     OW10153   2.876   0.236   4.695
 3196SOL    HW110154   2.868   0.200   4.602
 3196SOL    HW210155   2.874   0.160   4.760
 3197SOL     OW10156   2.452   1.487   4.215
 3197SOL    HW110157   2.494   1.429   4.145
 3197SOL    HW210158   2.408   1.566   4.171
 3198SOL     OW10159   3.571   0.385   5.105
 3198SOL    HW110160   3.644   0.454   5.109
 3198SOL    HW210161   3.599   0.310   5.046
 3199SOL     OW10162   2.117   1.348   4.014
 3199SOL    HW110163   2.021   1.349   3.987
 3199SOL    HW210164   2.129   1.401   4.098
 3200SOL     OW10165   1.967   1.013   5.450
 3200SOL    HW110166   1.890   0.980   5.504
 3200SOL    HW210167   2.052   0.983   5.492
 3201SOL     OW10168   2.534   0.203   5.213
 3201SOL    HW110169   2.624   0.187   5.173
 3201SOL    HW210170   2.542   0.208   5.312
 3202SOL     OW10171   1.937   0.345   3.757
 3202SOL    HW110172   1.845   0.317   3.728
 3202SOL    HW210173   1.968   0.422   3.701
 3203SOL     OW10174   3.302   0.856   5.122
 3203SOL    HW110175   3.245   0.908   5.059
 3203SOL    HW210176   3.398   0.868   5.098
 3204SOL     OW10177   1.934   0.166   4.042
 3204SOL    HW110178   1.917   0.249   3.988
 3204SOL    HW210179   2.024   0.129   4.020
 3205SOL     OW10180   3.045   1.335   3.843
 3205SOL    HW110181   2.946   1.324   3.845
 3205SOL    HW210182   3.079   1.350   3.936
 3206SOL     OW10183   2.475   0.842   5.155
 3206SOL    HW110184   2.531   0.923   5.138
 3206SOL    HW210185   2.534   0.762   5.158
 3207SOL     OW10186   3.355   1.767   4.683
 3207SOL    HW110187   3.388   1.831   4.614
 3207SOL    HW210188   3.421   1.761   4.758
 3208SOL     OW10189   2.578   0.565   5.432
 3208SOL    HW110190   2.597   0.630   5.506
 3208SOL    HW210191   2.638   0.485   5.441
 3209SOL     OW10192   3.312   1.220   5.357
 3209SOL    HW110193   3.303   1.210   5.456
 3209SOL    HW210194   3.408   1.213   5.331
 3210SOL     OW10195   2.252   1.741   5.284
 3210SOL    HW110196   2.161   1.782   5.282
 3210SOL    HW210197   2.245   1.647   5.316
 3211SOL     OW10198   3.536   0.883   4.978
 3211SOL    HW110199   3.509   0.794   4.941
 3211SOL    HW210200   3.537   0.951   4.905
 3212SOL     OW10201   3.087   0.325   4.173
 3212SOL    HW110202   3.152   0.251   4.162
 3212SOL    HW210203   3.107   0.375   4.257
 3213SOL     OW10204   2.456   0.745   4.376
 3213SOL    HW110205   2.506   0.830   4.357
 3213SOL    HW210206   2.368   0.747   4.328
 3214SOL     OW10207   3.639   0.342   5.366
 3214SOL    HW110208   3.622   0.373   5.272
 3214SOL    HW210209   3.555   0.305   5.404
 3215SOL     OW10210   3.592   0.934   5.241
 3215SOL    HW110211   3.630   1.025   5.256
 3215SOL    HW210212   3.584   0.917   5.142
 3216SOL     OW10213   2.721   1.374   3.740
 3216SOL    HW110214   2.675   1.389   3.828
 3216SOL    HW210215   2.765   1.459   3.710
 3217SOL     OW10216   2.721   0.956   4.585
 3217SOL    HW110217   2.775   0.887   4.633
 3217SOL    HW210218   2.689   1.025   4.651
 3218SOL     OW10219   2.945   0.984   3.811
 3218SOL    HW110220   2.922   1.037   3.729
 3218SOL    HW210221   3.026   0.928   3.792
 3219SOL     OW10222   3.723   1.569   4.575
 3219SOL    HW110223   3.652   1.557   4.505
 3219SOL    HW210224   3.724   1.490   4.635
 3220SOL     OW10225   2.083   1.314   5.568
 3220SOL    HW110226   2.018   1.241   5.547
 3220SOL    HW210227   2.087   1.328   5.666
 3221SOL     OW10228   1.941   1.240   4.377
 3221SOL    HW110229   1.940   1.193   4.465
 3221SOL    HW210230   2.023   1.212   4.326
 3222SOL     OW10231   2.534   1.391   5.348
 3222SOL    HW110232   2.456   1.341   5.386
 3222SOL    HW210233   2.531   1.486   5.379
 3223SOL     OW10234   3.686   0.192   4.951
 3223SOL    HW110235   3.682   0.102   4.995
 3223SOL    HW210236   3.689   0.181   4.852
 3224SOL     OW10237   2.290   0.424   4.244
 3224SOL    HW110238   2.320   0.352   4.182
 3224SOL    HW210239   2.251   0.384   4.327
 3225SOL     OW10240   3.567   1.487   4.828
 3225SOL    HW110241   3.474   1.462   4.801
 3225SOL    HW210242   3.593   1.437   4.910
 3226SOL     OW10243   2.179   0.547   5.004
 3226SOL    HW110244   2.217   0.488   5.076
 3226SOL    HW210245   2.219   0.521   4.916
 3227SOL     OW10246   2.674   1.586   4.411
 3227SOL    HW110247   2.706   1.596   4.317
 3227SOL    HW210248   2.595   1.524   4.413
 3228SOL     OW10249   3.286   0.214   4.836
 3228SOL    HW110250   3.338   0.149   4.891
 3228SOL    HW210251   3.237   0.277   4.897
 3229SOL     OW10252   2.863   0.034   4.878
 3229SOL    HW110253   2.800  -0.038   4.847
 3229SOL    HW210254   2.956  -0.002   4.878
 3230SOL     OW10255   2.632   1.330   4.025
 3230SOL    HW110256   2.586   1.243   4.042
 3230SOL    HW210257   2.723   1.327   4.066
 3231SOL     OW10258   2.480   1.567   5.008
 3231SOL    HW110259   2.475   1.649   5.065
 3231SOL    HW210260   2.569   1.564   4.963
 3232SOL     OW10261   3.214   0.052   3.892
 3232SOL    HW110262   3.249   0.011   3.808
 3232SOL    HW210263   3.124   0.014   3.912
 3233SOL     OW10264   3.162   0.453   4.415
 3233SOL    HW110265   3.103   0.533   4.419
 3233SOL    HW210266   3.177   0.418   4.508
 3234SOL     OW10267   3.455   0.221   4.606
 3234SOL    HW110268   3.371   0.220   4.660
 3234SOL    HW210269   3.457   0.304   4.550
 3235SOL     OW10270   1.901   1.077   4.024
 3235SOL    HW110271   2.000   1.066   4.015
 3235SOL    HW210272   1.861   0.991   4.056
 3236SOL     OW10273   2.737   1.646   4.061
 3236SOL    HW110274   2.660   1.611   4.007
 3236SOL    HW210275   2.705   1.717   4.123
 3237SOL     OW10276   2.092   0.628   5.699
 3237SOL    HW110277   1.999   0.626   5.736
 3237SOL    HW210278   2.093   0.589   5.607
 3238SOL     OW10279   2.087   0.275   6.582
 3238SOL    HW110280   2.122   0.258   6.674
 3238SOL    HW210281   1.999   0.230   6.570
 3239SOL     OW10282   1.881   0.368   6.233
 3239SOL    HW110283   1.799   0.411   6.272
 3239SOL    HW210284   1.853   0.295   6.170
 3240SOL     OW10285   2.431   1.275   6.751
 3240SOL    HW110286   2.338   1.268   6.714
 3240SOL    HW210287   2.442   1.364   6.795
 3241SOL     OW10288   3.417   1.511   6.289
 3241SOL    HW110289   3.360   1.495   6.370
 3241SOL    HW210290   3.358   1.521   6.209
 3242SOL     OW10291   2.997   0.703   6.303
 3242SOL    HW110292   3.054   0.781   6.278
 3242SOL    HW210293   2.937   0.729   6.379
 3243SOL     OW10294   3.617   0.607   5.817
 3243SOL    HW110295   3.605   0.594   5.718
 3243SOL    HW210296   3.587   0.526   5.866
 3244SOL     OW10297   2.630   1.144   6.609
 3244SOL    HW110298   2.552   1.161   6.669
 3244SOL    HW210299   2.664   1.231   6.573
 3245SOL     OW10300   2.712   0.798   7.409
 3245SOL    HW110301   2.708   0.874   7.474
 3245SOL    HW210302   2.734   0.834   7.318
 3246SOL     OW10303   2.547   1.012   6.251
 3246SOL    HW110304   2.616   0.996   6.321
 3246SOL    HW210305   2.474   1.069   6.289
 3247SOL     OW10306   2.548   1.161   7.389
 3247SOL    HW110307   2.608   1.240   7.403
 3247SOL    HW210308   2.462   1.192   7.348
 3248SOL     OW10309   2.197   1.435   6.647
 3248SOL    HW110310   2.119   1.404   6.594
 3248SOL    HW210311   2.255   1.493   6.590
 3249SOL     OW10312   3.322   1.505   6.925
 3249SOL    HW110313   3.346   1.599   6.951
 3249SOL    HW210314   3.306   1.451   7.007
 3250SOL     OW10315   2.300   0.392   7.085
 3250SOL    HW110316   2.382   0.336   7.094
 3250SOL    HW210317   2.219   0.334   7.089
 3251SOL     OW10318   3.465   0.447   6.323
 3251SOL    HW110319   3.391   0.493   6.273
 3251SOL    HW210320   3.516   0.515   6.376
 3252SOL     OW10321   2.093   1.713   6.069
 3252SOL    HW110322   2.127   1.790   6.123
 3252SOL    HW210323   2.137   1.713   5.979
 3253SOL     OW10324   2.989   1.341   7.276
 3253SOL    HW110325   3.036   1.341   7.364
 3253SOL    HW210326   2.941   1.254   7.265
 3254SOL     OW10327   2.092   1.434   6.124
 3254SOL    HW110328   2.066   1.530   6.124
 3254SOL    HW210329   2.021   1.380   6.169
 3255SOL     OW10330   2.102   1.091   6.472
 3255SOL    HW110331   2.116   1.007   6.524
 3255SOL    HW210332   2.047   1.155   6.527
 3256SOL     OW10333   2.482   1.786   7.025
 3256SOL    HW110334   2.390   1.769   7.060
 3256SOL    HW210335   2.510   1.878   7.051
 3257SOL     OW10336   2.468   0.964   5.709
 3257SOL    HW110337   2.475   1.048   5.655
 3257SOL    HW210338   2.514   0.977   5.797
 3258SOL     OW10339   3.456   0.114   7.066
 3258SOL    HW110340   3.438   0.181   6.994
 3258SOL    HW210341   3.453   0.160   7.155
 3259SOL     OW10342   1.984   0.643   6.149
 3259SOL    HW110343   1.939   0.555   6.166
 3259SOL    HW210344   1.983   0.697   6.233
 3260SOL     OW10345   3.704   1.767   5.945
 3260SOL    HW110346   3.758   1.738   6.025
 3260SOL    HW210347   3.734   1.857   5.916
 3261SOL     OW10348   1.889   1.596   5.703
 3261SOL    HW110349   1.870   1.500   5.724
 3261SOL    HW210350   1.856   1.654   5.778
 3262SOL     OW10351   3.551   0.922   6.198
 3262SOL    HW110352   3.646   0.893   6.206
 3262SOL    HW210353   3.543   0.987   6.123
 3263SOL     OW10354   3.503   1.108   6.018
 3263SOL    HW110355   3.589   1.110   5.966
 3263SOL    HW210356   3.517   1.155   6.106
 3264SOL     OW10357   1.975   0.737   7.183
 3264SOL    HW110358   2.063   0.724   7.228
 3264SOL    HW210359   1.962   0.834   7.161
 3265SOL     OW10360   2.475   1.365   6.312
 3265SOL    HW110361   2.426   1.278   6.321
 3265SOL    HW210362   2.452   1.408   6.225
 3266SOL     OW10363   3.155   1.228   7.009
 3266SOL    HW110364   3.192   1.155   6.951
 3266SOL    HW210365   3.207   1.233   7.094
 3267SOL     OW10366   2.671   0.004   6.088
 3267SOL    HW110367   2.711   0.095   6.079
 3267SOL    HW210368   2.571   0.012   6.094
 3268SOL     OW10369   2.059   0.976   6.850
 3268SOL    HW110370   2.148   0.931   6.836
 3268SOL    HW210371   1.986   0.911   6.831
 3269SOL     OW10372   3.387   0.999   5.776
 3269SOL    HW110373   3.324   0.923   5.789
 3269SOL    HW210374   3.435   1.017   5.862
 3270SOL     OW10375   3.049   1.792   7.202
 3270SOL    HW110376   3.073   1.852   7.126
 3270SOL    HW210377   3.056   1.697   7.172
 3271SOL     OW10378   2.179   0.251   7.387
 3271SOL    HW110379   2.250   0.322   7.393
 3271SOL    HW210380   2.091   0.290   7.415
 3272SOL     OW10381   3.328   1.417   6.539
 3272SOL    HW110382   3.269   1.423   6.619
 3272SOL    HW210383   3.313   1.329   6.493
 3273SOL     OW10384   3.529   1.714   6.158
 3273SOL    HW110385   3.488   1.691   6.070
 3273SOL    HW210386   3.511   1.640   6.223
 3274SOL     OW10387   2.460   0.729   5.856
 3274SOL    HW110388   2.484   0.798   5.788
 3274SOL    HW210389   2.382   0.762   5.910
 3275SOL     OW10390   3.143   0.345   6.530
 3275SOL    HW110391   3.057   0.295   6.517
 3275SOL    HW210392   3.205   0.291   6.586
 3276SOL     OW10393   3.438   1.662   5.893
 3276SOL    HW110394   3.527   1.708   5.896
 3276SOL    HW210395   3.417   1.638   5.798
 3277SOL     OW10396   2.669   0.605   7.051
 3277SOL    HW110397   2.622   0.602   7.140
 3277SOL    HW210398   2.618   0.550   6.985
 3278SOL     OW10399   3.256   0.469   7.260
 3278SOL    HW110400   3.236   0.512   7.348
 3278SOL    HW210401   3.334   0.407   7.269
 3279SOL     OW10402   2.835   0.890   7.158
 3279SOL    HW110403   2.881   0.806   7.129
 3279SOL    HW210404   2.779   0.924   7.083
 3280SOL     OW10405   2.853   0.410   6.828
 3280SOL    HW110406   2.776   0.444   6.882
 3280SOL    HW210407   2.819   0.359   6.749
 3281SOL     OW10408   2.903   0.701   6.015
 3281SOL    HW110409   2.929   0.697   6.111
 3281SOL    HW210410   2.818   0.650   6.001
 3282SOL     OW10411   1.938   0.811   6.375
 3282SOL    HW110412   2.037   0.799   6.384
 3282SOL    HW210413   1.914   0.906   6.396
 3283SOL     OW10414   1.992   1.821   7.157
 3283SOL    HW110415   1.982   1.806   7.256
 3283SOL    HW210416   1.906   1.857   7.121
 3284SOL     OW10417   2.727   0.348   5.781
 3284SOL    HW110418   2.786   0.411   5.732
 3284SOL    HW210419   2.746   0.254   5.752
 3285SOL     OW10420   3.581   0.585   7.417
 3285SOL    HW110421   3.555   0.674   7.381
 3285SOL    HW210422   3.579   0.517   7.344
 3286SOL     OW10423   3.224   1.144   6.131
 3286SOL    HW110424   3.307   1.115   6.083
 3286SOL    HW210425   3.175   1.211   6.075
 3287SOL     OW10426   2.412   0.196   6.471
 3287SOL    HW110427   2.407   0.191   6.571
 3287SOL    HW210428   2.414   0.292   6.442
 3288SOL     OW10429   2.870   1.456   6.063
 3288SOL    HW110430   2.824   1.528   6.011
 3288SOL    HW210431   2.866   1.476   6.161
 3289SOL     OW10432   2.213   1.801   6.439
 3289SOL    HW110433   2.263   1.715   6.445
 3289SOL    HW210434   2.278   1.878   6.436
 3290SOL     OW10435   3.657   1.066   6.459
 3290SOL    HW110436   3.595   1.051   6.383
 3290SOL    HW210437   3.605   1.077   6.544
 3291SOL     OW10438   3.089   1.550   7.092
 3291SOL    HW110439   3.095   1.473   7.156
 3291SOL    HW210440   3.037   1.524   7.012
 3292SOL     OW10441   2.183   0.943   5.828
 3292SOL    HW110442   2.265   0.982   5.786
 3292SOL    HW210443   2.156   0.861   5.779
 3293SOL     OW10444   3.320   0.735   6.314
 3293SOL    HW110445   3.315   0.670   6.389
 3293SOL    HW210446   3.400   0.794   6.327
 3294SOL     OW10447   2.323   1.266   7.313
 3294SOL    HW110448   2.273   1.267   7.227
 3294SOL    HW210449   2.260   1.248   7.389
 3295SOL     OW10450   2.973   1.776   5.823
 3295SOL    HW110451   2.913   1.714   5.873
 3295SOL    HW210452   3.004   1.732   5.738
 3296SOL     OW10453   2.064   0.285   7.084
 3296SOL    HW110454   1.984   0.345   7.071
 3296SOL    HW210455   2.054   0.236   7.170
 3297SOL     OW10456   3.494   1.377   5.667
 3297SOL    HW110457   3.462   1.471   5.657
 3297SOL    HW210458   3.418   1.314   5.655
 3298SOL     OW10459   2.326   1.743   5.909
 3298SOL    HW110460   2.359   1.782   5.995
 3298SOL    HW210461   2.402   1.736   5.844
 3299SOL     OW10462   3.262   0.107   6.012
 3299SOL    HW110463   3.238   0.070   5.922
 3299SOL    HW210464   3.361   0.123   6.016
 3300SOL     OW10465   2.111   1.785   6.827
 3300SOL    HW110466   2.168   1.720   6.877
 3300SOL    HW210467   2.095   1.752   6.734
 3301SOL     OW10468   2.802   1.698   6.490
 3301SOL    HW110469   2.882   1.641   6.511
 3301SOL    HW210470   2.753   1.658   6.413
 3302SOL     OW10471   2.244   0.700   6.066
 3302SOL    HW110472   2.289   0.610   6.063
 3302SOL    HW210473   2.150   0.689   6.099
 3303SOL     OW10474   3.409   0.222   7.315
 3303SOL    HW110475   3.404   0.259   7.407
 3303SOL    HW210476   3.337   0.153   7.303
 3304SOL     OW10477   2.476   0.122   5.703
 3304SOL    HW110478   2.574   0.100   5.710
 3304SOL    HW210479   2.445   0.105   5.610
 3305SOL     OW10480   2.643   0.264   7.335
 3305SOL    HW110481   2.710   0.203   7.378
 3305SOL    HW210482   2.570   0.283   7.400
 3306SOL     OW10483   2.750   1.514   6.781
 3306SOL    HW110484   2.727   1.489   6.687
 3306SOL    HW210485   2.811   1.445   6.820
 3307SOL     OW10486   3.213   0.590   7.019
 3307SOL    HW110487   3.241   0.547   7.104
 3307SOL    HW210488   3.238   0.686   7.020
 3308SOL     OW10489   2.665   1.402   6.510
 3308SOL    HW110490   2.755   1.416   6.468
 3308SOL    HW210491   2.594   1.404   6.439
 3309SOL     OW10492   2.784   0.503   6.485
 3309SOL    HW110493   2.759   0.494   6.389
 3309SOL    HW210494   2.832   0.421   6.516
 3310SOL     OW10495   2.401   0.064   6.098
 3310SOL    HW110496   2.320   0.065   6.156
 3310SOL    HW210497   2.404   0.147   6.043
 3311SOL     OW10498   3.296   1.188   5.627
 3311SOL    HW110499   3.328   1.112   5.684
 3311SOL    HW210500   3.204   1.215   5.657
 3312SOL     OW10501   2.159   0.035   5.757
 3312SOL    HW110502   2.208   0.119   5.736
 3312SOL    HW210503   2.221  -0.030   5.802
 3313SOL     OW10504   2.797   0.236   6.066
 3313SOL    HW110505   2.749   0.277   5.988
 3313SOL    HW210506   2.896   0.234   6.047
 3314SOL     OW10507   2.938   0.683   7.050
 3314SOL    HW110508   2.858   0.622   7.053
 3314SOL    HW210509   3.019   0.630   7.026
 3315SOL     OW10510   3.089   1.570   6.379
 3315SOL    HW110511   3.110   1.644   6.314
 3315SOL    HW210512   3.157   1.570   6.452
 3316SOL     OW10513   2.321   1.152   6.327
 3316SOL    HW110514   2.250   1.125   6.392
 3316SOL    HW210515   2.295   1.124   6.234
 3317SOL     OW10516   3.133   1.797   6.177
 3317SOL    HW110517   3.177   1.861   6.113
 3317SOL    HW210518   3.083   1.849   6.247
 3318SOL     OW10519   2.894   0.549   5.602
 3318SOL    HW110520   2.853   0.631   5.563
 3318SOL    HW210521   2.958   0.575   5.675
 3319SOL     OW10522   1.940   0.556   6.972
 3319SOL    HW110523   2.032   0.555   6.931
 3319SOL    HW210524   1.934   0.630   7.039
 3320SOL     OW10525   2.423   0.222   6.733
 3320SOL    HW110526   2.461   0.138   6.770
 3320SOL    HW210527   2.335   0.241   6.777
 3321SOL     OW10528   2.728   0.454   6.228
 3321SOL    HW110529   2.696   0.526   6.166
 3321SOL    HW210530   2.752   0.373   6.175
 3322SOL     OW10531   2.879   0.039   6.339
 3322SOL    HW110532   2.807   0.044   6.270
 3322SOL    HW210533   2.855  -0.030   6.408
 3323SOL     OW10534   3.291   1.173   6.453
 3323SOL    HW110535   3.236   1.089   6.446
 3323SOL    HW210536   3.317   1.202   6.361
 3324SOL     OW10537   3.328   0.590   6.578
 3324SOL    HW110538   3.298   0.495   6.585
 3324SOL    HW210539   3.401   0.606   6.644
 3325SOL     OW10540   3.719   0.833   5.963
 3325SOL    HW110541   3.761   0.769   6.027
 3325SOL    HW210542   3.681   0.782   5.885
 3326SOL     OW10543   2.350   1.385   5.760
 3326SOL    HW110544   2.263   1.370   5.807
 3326SOL    HW210545   2.333   1.411   5.665
 3327SOL     OW10546   3.526   1.280   6.243
 3327SOL    HW110547   3.625   1.288   6.257
 3327SOL    HW210548   3.481   1.364   6.274
 3328SOL     OW10549   3.252   0.575   5.664
 3328SOL    HW110550   3.198   0.554   5.745
 3328SOL    HW210551   3.343   0.534   5.673
 3329SOL     OW10552   2.389   0.256   5.914
 3329SOL    HW110553   2.416   0.197   5.839
 3329SOL    HW210554   2.389   0.351   5.883
 3330SOL     OW10555   3.616   1.223   7.174
 3330SOL    HW110556   3.707   1.184   7.161
 3330SOL    HW210557   3.624   1.319   7.198
 3331SOL     OW10558   2.926   1.347   6.926
 3331SOL    HW110559   2.846   1.324   6.981
 3331SOL    HW210560   3.009   1.321   6.975
 3332SOL     OW10561   3.454   1.629   7.211
 3332SOL    HW110562   3.481   1.663   7.121
 3332SOL    HW210563   3.533   1.591   7.257
 3333SOL     OW10564   2.973   1.195   6.686
 3333SOL    HW110565   2.933   1.239   6.767
 3333SOL    HW210566   2.932   1.232   6.603
 3334SOL     OW10567   3.500   1.099   6.665
 3334SOL    HW110568   3.505   1.180   6.724
 3334SOL    HW210569   3.414   1.101   6.614
 3335SOL     OW10570   2.777   0.089   6.988
 3335SOL    HW110571   2.802   0.069   6.893
 3335SOL    HW210572   2.849   0.145   7.030
 3336SOL     OW10573   2.842   1.116   7.305
 3336SOL    HW110574   2.743   1.122   7.315
 3336SOL    HW210575   2.865   1.036   7.249
 3337SOL     OW10576   2.567   1.050   5.954
 3337SOL    HW110577   2.553   1.057   6.053
 3337SOL    HW210578   2.651   0.999   5.936
 3338SOL     OW10579   2.272   0.813   6.837
 3338SOL    HW110580   2.358   0.825   6.887
 3338SOL    HW210581   2.230   0.726   6.864
 3339SOL     OW10582   3.136   0.386   6.848
 3339SOL    HW110583   3.157   0.460   6.912
 3339SOL    HW210584   3.047   0.403   6.805
 3340SOL     OW10585   1.926   1.564   6.917
 3340SOL    HW110586   1.880   1.646   6.883
 3340SOL    HW210587   2.024   1.583   6.926
 3341SOL     OW10588   2.229   1.100   6.087
 3341SOL    HW110589   2.222   1.183   6.031
 3341SOL    HW210590   2.233   1.020   6.027
 3342SOL     OW10591   2.428   0.537   6.451
 3342SOL    HW110592   2.440   0.603   6.377
 3342SOL    HW210593   2.474   0.571   6.534
 3343SOL     OW10594   3.114   1.348   5.974
 3343SOL    HW110595   3.164   1.425   6.014
 3343SOL    HW210596   3.019   1.350   6.006
 3344SOL     OW10597   3.134   1.445   6.728
 3344SOL    HW110598   3.181   1.458   6.815
 3344SOL    HW210599   3.068   1.371   6.737
 3345SOL     OW10600   3.444   0.639   6.058
 3345SOL    HW110601   3.413   0.700   6.131
 3345SOL    HW210602   3.494   0.691   5.989
 3346SOL     OW10603   2.216   1.510   6.915
 3346SOL    HW110604   2.195   1.466   6.828
 3346SOL    HW210605   2.313   1.536   6.918
 3347SOL     OW10606   2.264   0.751   7.184
 3347SOL    HW110607   2.332   0.806   7.137
 3347SOL    HW210608   2.304   0.663   7.211
 3348SOL     OW10609   3.449   0.779   7.256
 3348SOL    HW110610   3.357   0.817   7.251
 3348SOL    HW210611   3.509   0.826   7.191
 3349SOL     OW10612   2.875   0.105   7.356
 3349SOL    HW110613   2.881   0.190   7.304
 3349SOL    HW210614   2.907   0.029   7.299
 3350SOL     OW10615   2.366   0.050   7.326
 3350SOL    HW110616   2.324  -0.007   7.256
 3350SOL    HW210617   2.300   0.119   7.358
 3351SOL     OW10618   2.435   0.870   6.615
 3351SOL    HW110619   2.479   0.959   6.606
 3351SOL    HW210620   2.372   0.870   6.692
 3352SOL     OW10621   3.222   0.862   6.631
 3352SOL    HW110622   3.147   0.862   6.565
 3352SOL    HW210623   3.259   0.770   6.640
 3353SOL     OW10624   3.071   0.525   5.861
 3353SOL    HW110625   3.084   0.441   5.915
 3353SOL    HW210626   3.042   0.599   5.921
 3354SOL     OW10627   2.169   0.213   6.817
 3354SOL    HW110628   2.146   0.250   6.907
 3354SOL    HW210629   2.139   0.118   6.811
 3355SOL     OW10630   1.899   1.310   6.868
 3355SOL    HW110631   1.952   1.261   6.936
 3355SOL    HW210632   1.921   1.408   6.873
 3356SOL     OW10633   2.594   0.634   6.650
 3356SOL    HW110634   2.653   0.608   6.574
 3356SOL    HW210635   2.566   0.730   6.639
 3357SOL     OW10636   3.590   0.935   7.440
 3357SOL    HW110637   3.544   0.928   7.351
 3357SOL    HW210638   3.528   0.979   7.506
 3358SOL     OW10639   2.169   0.063   6.204
 3358SOL    HW110640   2.158   0.157   6.237
 3358SOL    HW210641   2.164   0.000   6.281
 3359SOL     OW10642   3.484   0.367   5.960
 3359SOL    HW110643   3.486   0.291   6.024
 3359SOL    HW210644   3.436   0.444   6.000
 3360SOL     OW10645   2.885   0.766   6.552
 3360SOL    HW110646   2.900   0.787   6.648
 3360SOL    HW210647   2.855   0.671   6.543
 3361SOL     OW10648   2.842   1.573   7.286
 3361SOL    HW110649   2.822   1.617   7.198
 3361SOL    HW210650   2.881   1.482   7.270
 3362SOL     OW10651   3.721   1.518   7.191
 3362SOL    HW110652   3.735   1.545   7.096
 3362SOL    HW210653   3.804   1.540   7.244
 3363SOL     OW10654   2.212   0.898   7.390
 3363SOL    HW110655   2.288   0.942   7.438
 3363SOL    HW210656   2.247   0.851   7.308
 3364SOL     OW10657   3.402   0.274   5.711
 3364SOL    HW110658   3.341   0.199   5.734
 3364SOL    HW210659   3.424   0.326   5.794
 3365SOL     OW10660   3.165   0.838   5.628
 3365SOL    HW110661   3.199   0.745   5.643
 3365SOL    HW210662   3.183   0.865   5.533
 3366SOL     OW10663   2.930   1.333   6.435
 3366SOL    HW110664   2.937   1.249   6.380
 3366SOL    HW210665   2.992   1.402   6.399
 3367SOL     OW10666   2.181   0.810   6.535
 3367SOL    HW110667   2.274   0.846   6.540
 3367SOL    HW210668   2.175   0.725   6.587
 3368SOL     OW10669   2.201   0.509   6.592
 3368SOL    HW110670   2.149   0.426   6.575
 3368SOL    HW210671   2.278   0.514   6.528
 3369SOL     OW10672   3.000   0.380   7.264
 3369SOL    HW110673   2.955   0.443   7.328
 3369SOL    HW210674   3.093   0.411   7.247
 3370SOL     OW10675   3.022   0.207   7.063
 3370SOL    HW110676   3.022   0.271   7.140
 3370SOL    HW210677   3.050   0.255   6.980
 3371SOL     OW10678   1.870   1.326   5.786
 3371SOL    HW110679   1.777   1.347   5.755
 3371SOL    HW210680   1.880   1.227   5.799
 3372SOL     OW10681   1.950   1.801   6.513
 3372SOL    HW110682   1.908   1.715   6.486
 3372SOL    HW210683   2.044   1.804   6.479
 3373SOL     OW10684   2.366   1.568   6.496
 3373SOL    HW110685   2.432   1.642   6.505
 3373SOL    HW210686   2.410   1.489   6.454
 3374SOL     OW10687   2.864   0.796   6.824
 3374SOL    HW110688   2.905   0.764   6.910
 3374SOL    HW210689   2.768   0.769   6.821
 3375SOL     OW10690   1.902   0.544   6.700
 3375SOL    HW110691   1.987   0.511   6.659
 3375SOL    HW210692   1.915   0.559   6.798
 3376SOL     OW10693   2.051   0.520   7.308
 3376SOL    HW110694   2.110   0.480   7.238
 3376SOL    HW210695   1.993   0.591   7.267
 3377SOL     OW10696   3.231   0.950   7.246
 3377SOL    HW110697   3.270   1.039   7.266
 3377SOL    HW210698   3.241   0.930   7.149
 3378SOL     OW10699   2.677   0.572   5.911
 3378SOL    HW110700   2.684   0.483   5.865
 3378SOL    HW210701   2.583   0.606   5.903
 3379SOL     OW10702   3.519   0.604   6.792
 3379SOL    HW110703   3.481   0.535   6.854
 3379SOL    HW210704   3.601   0.568   6.748
 3380SOL     OW10705   2.114   1.564   7.330
 3380SOL    HW110706   2.084   1.621   7.406
 3380SOL    HW210707   2.107   1.467   7.356
 3381SOL     OW10708   2.533   0.464   6.855
 3381SOL    HW110709   2.499   0.375   6.825
 3381SOL    HW210710   2.559   0.518   6.775
 3382SOL     OW10711   2.792   1.678   7.051
 3382SOL    HW110712   2.768   1.660   6.956
 3382SOL    HW210713   2.822   1.772   7.061
 3383SOL     OW10714   2.335   0.500   5.777
 3383SOL    HW110715   2.396   0.580   5.781
 3383SOL    HW210716   2.240   0.531   5.784
 3384SOL     OW10717   2.021   1.137   7.052
 3384SOL    HW110718   2.043   1.076   7.128
 3384SOL    HW210719   2.031   1.088   6.966
 3385SOL     OW10720   3.209   1.059   6.820
 3385SOL    HW110721   3.233   0.996   6.746
 3385SOL    HW210722   3.119   1.099   6.802
 3386SOL     OW10723   3.164   0.855   5.895
 3386SOL    HW110724   3.078   0.824   5.937
 3386SOL    HW210725   3.160   0.841   5.796
 3387SOL     OW10726   3.621   1.747   6.740
 3387SOL    HW110727   3.682   1.777   6.667
 3387SOL    HW210728   3.583   1.658   6.718
 3388SOL     OW10729   3.114   1.731   6.714
 3388SOL    HW110730   3.198   1.736   6.660
 3388SOL    HW210731   3.091   1.635   6.732
 3389SOL     OW10732   1.945   1.258   6.608
 3389SOL    HW110733   1.940   1.257   6.708
 3389SOL    HW210734   1.862   1.217   6.570
 3390SOL     OW10735   2.550   1.662   7.302
 3390SOL    HW110736   2.494   1.743   7.311
 3390SOL    HW210737   2.602   1.666   7.216
 3391SOL     OW10738   3.588   0.135   6.109
 3391SOL    HW110739   3.661   0.118   6.042
 3391SOL    HW210740   3.557   0.048   6.147
 3392SOL     OW10741   3.250   1.573   6.063
 3392SOL    HW110742   3.317   1.585   5.989
 3392SOL    HW210743   3.210   1.662   6.086
 3393SOL     OW10744   1.992   1.794   7.437
 3393SOL    HW110745   1.951   1.720   7.490
 3393SOL    HW210746   2.056   1.845   7.495
 3394SOL     OW10747   3.142   0.927   6.258
 3394SOL    HW110748   3.202   0.846   6.260
 3394SOL    HW210749   3.182   0.996   6.198
 3395SOL     OW10750   2.692   1.273   7.008
 3395SOL    HW110751   2.687   1.306   7.103
 3395SOL    HW210752   2.606   1.292   6.962
 3396SOL     OW10753   2.534   1.616   5.740
 3396SOL    HW110754   2.543   1.626   5.641
 3396SOL    HW210755   2.494   1.527   5.761
 3397SOL     OW10756   3.512   1.720   6.980
 3397SOL    HW110757   3.565   1.730   6.896
 3397SOL    HW210758   3.485   1.810   7.014
 3398SOL     OW10759   3.703   0.175   6.549
 3398SOL    HW110760   3.742   0.090   6.513
 3398SOL    HW210761   3.605   0.177   6.530
 3399SOL     OW10762   2.125   0.326   6.306
 3399SOL    HW110763   2.046   0.377   6.272
 3399SOL    HW210764   2.116   0.311   6.404
 3400SOL     OW10765   3.056   1.612   5.617
 3400SOL    HW110766   3.062   1.519   5.654
 3400SOL    HW210767   2.997   1.612   5.537
 3401SOL     OW10768   2.684   1.002   6.958
 3401SOL    HW110769   2.724   1.001   6.866
 3401SOL    HW210770   2.694   1.094   6.998
 3402SOL     OW10771   2.778   0.910   5.877
 3402SOL    HW110772   2.841   0.948   5.809
 3402SOL    HW210773   2.818   0.827   5.916
 3403SOL     OW10774   3.366   1.607   5.630
 3403SOL    HW110775   3.274   1.644   5.637
 3403SOL    HW210776   3.404   1.627   5.540
 3404SOL     OW10777   2.234   1.288   7.076
 3404SOL    HW110778   2.221   1.381   7.042
 3404SOL    HW210779   2.150   1.236   7.063
 3405SOL     OW10780   3.476   1.292   6.875
 3405SOL    HW110781   3.536   1.295   6.955
 3405SOL    HW210782   3.401   1.356   6.888
 3406SOL     OW10783   2.901   1.098   6.282
 3406SOL    HW110784   2.831   1.051   6.336
 3406SOL    HW210785   2.960   1.030   6.239
 3407SOL     OW10786   2.876   0.236   6.557
 3407SOL    HW110787   2.868   0.200   6.464
 3407SOL    HW210788   2.874   0.160   6.622
 3408SOL     OW10789   2.452   1.487   6.077
 3408SOL    HW110790   2.494   1.429   6.007
 3408SOL    HW210791   2.408   1.566   6.033
 3409SOL     OW10792   3.571   0.385   6.967
 3409SOL    HW110793   3.644   0.454   6.971
 3409SOL    HW210794   3.599   0.310   6.908
 3410SOL     OW10795   2.117   1.348   5.876
 3410SOL    HW110796   2.021   1.349   5.849
 3410SOL    HW210797   2.129   1.401   5.960
 3411SOL     OW10798   1.967   1.013   7.312
 3411SOL    HW110799   1.890   0.980   7.366
 3411SOL    HW210800   2.052   0.983   7.354
 3412SOL     OW10801   2.534   0.203   7.075
 3412SOL    HW110802   2.624   0.187   7.035
 3412SOL    HW210803   2.542   0.208   7.174
 3413SOL     OW10804   1.937   0.345   5.619
 3413SOL    HW110805   1.845   0.317   5.590
 3413SOL    HW210806   1.968   0.422   5.563
 3414SOL     OW10807   3.302   0.856   6.984
 3414SOL    HW110808   3.245   0.908   6.921
 3414SOL    HW210809   3.398   0.868   6.960
 3415SOL     OW10810   1.934   0.166   5.904
 3415SOL    HW110811   1.917   0.249   5.850
 3415SOL    HW210812   2.024   0.129   5.882
 3416SOL     OW10813   3.045   1.335   5.705
 3416SOL    HW110814   2.946   1.324   5.707
 3416SOL    HW210815   3.079   1.350   5.798
 3417SOL     OW10816   2.475   0.842   7.017
 3417SOL    HW110817   2.531   0.923   7.000
 3417SOL    HW210818   2.534   0.762   7.020
 3418SOL     OW10819   3.355   1.767   6.545
 3418SOL    HW110820   3.388   1.831   6.476
 3418SOL    HW210821   3.421   1.761   6.620
 3419SOL     OW10822   2.578   0.565   7.294
 3419SOL    HW110823   2.597   0.630   7.368
 3419SOL    HW210824   2.638   0.485   7.303
 3420SOL     OW10825   3.312   1.220   7.219
 3420SOL    HW110826   3.303   1.210   7.318
 3420SOL    HW210827   3.408   1.213   7.193
 3421SOL     OW10828   2.252   1.741   7.146
 3421SOL    HW110829   2.161   1.782   7.144
 3421SOL    HW210830   2.245   1.647   7.178
 3422SOL     OW10831   3.536   0.883   6.840
 3422SOL    HW110832   3.509   0.794   6.803
 3422SOL    HW210833   3.537   0.951   6.767
 3423SOL     OW10834   3.087   0.325   6.035
 3423SOL    HW110835   3.152   0.251   6.024
 3423SOL    HW210836   3.107   0.375   6.119
 3424SOL     OW10837   2.456   0.745   6.238
 3424SOL    HW110838   2.506   0.830   6.219
 3424SOL    HW210839   2.368   0.747   6.190
 3425SOL     OW10840   3.639   0.342   7.228
 3425SOL    HW110841   3.622   0.373   7.134
 3425SOL    HW210842   3.555   0.305   7.266
 3426SOL     OW10843   3.592   0.934   7.103
 3426SOL    HW110844   3.630   1.025   7.118
 3426SOL    HW210845   3.584   0.917   7.004
 3427SOL     OW10846   2.721   1.374   5.602
 3427SOL    HW110847   2.675   1.389   5.690
 3427SOL    HW210848   2.765   1.459   5.572
 3428SOL     OW10849   2.523   1.790   6.539
 3428SOL    HW110850   2.477   1.878   6.526
 3428SOL    HW210851   2.622   1.802   6.532
 3429SOL     OW10852   2.721   0.956   6.447
 3429SOL    HW110853   2.775   0.887   6.495
 3429SOL    HW210854   2.689   1.025   6.513
 3430SOL     OW10855   2.945   0.984   5.673
 3430SOL    HW110856   2.922   1.037   5.591
 3430SOL    HW210857   3.026   0.928   5.654
 3431SOL     OW10858   3.723   1.569   6.437
 3431SOL    HW110859   3.652   1.557   6.367
 3431SOL    HW210860   3.724   1.490   6.497
 3432SOL     OW10861   2.083   1.314   7.430
 3432SOL    HW110862   2.018   1.241   7.409
 3432SOL    HW210863   2.087   1.328   7.528
 3433SOL     OW10864   1.941   1.240   6.239
 3433SOL    HW110865   1.940   1.193   6.327
 3433SOL    HW210866   2.023   1.212   6.188
 3434SOL     OW10867   2.534   1.391   7.210
 3434SOL    HW110868   2.456   1.341   7.248
 3434SOL    HW210869   2.531   1.486   7.241
 3435SOL     OW10870   3.686   0.192   6.813
 3435SOL    HW110871   3.682   0.102   6.857
 3435SOL    HW210872   3.689   0.181   6.714
 3436SOL     OW10873   2.290   0.424   6.106
 3436SOL    HW110874   2.320   0.352   6.044
 3436SOL    HW210875   2.251   0.384   6.189
 3437SOL     OW10876   3.567   1.487   6.690
 3437SOL    HW110877   3.474   1.462   6.663
 3437SOL    HW210878   3.593   1.437   6.772
 3438SOL     OW10879   2.179   0.547   6.866
 3438SOL    HW110880   2.217   0.488   6.938
 3438SOL    HW210881   2.219   0.521   6.778
 3439SOL     OW10882   2.674   1.586   6.273
 3439SOL    HW110883   2.706   1.596   6.179
 3439SOL    HW210884   2.595   1.524   6.275
 3440SOL     OW10885   3.286   0.214   6.698
 3440SOL    HW110886   3.338   0.149   6.753
 3440SOL    HW210887   3.237   0.277   6.759
 3441SOL     OW10888   2.863   0.034   6.740
 3441SOL    HW110889   2.800  -0.038   6.709
 3441SOL    HW210890   2.956  -0.002   6.740
 3442SOL     OW10891   2.632   1.330   5.887
 3442SOL    HW110892   2.586   1.243   5.904
 3442SOL    HW210893   2.723   1.327   5.928
 3443SOL     OW10894   2.480   1.567   6.870
 3443SOL    HW110895   2.475   1.649   6.927
 3443SOL    HW210896   2.569   1.564   6.825
 3444SOL     OW10897   3.214   0.052   5.754
 3444SOL    HW110898   3.249   0.011   5.670
 3444SOL    HW210899   3.124   0.014   5.774
 3445SOL     OW10900   3.162   0.453   6.277
 3445SOL    HW110901   3.103   0.533   6.281
 3445SOL    HW210902   3.177   0.418   6.370
 3446SOL     OW10903   3.455   0.221   6.468
 3446SOL    HW110904   3.371   0.220   6.522
 3446SOL    HW210905   3.457   0.304   6.412
 3447SOL     OW10906   1.901   1.077   5.886
 3447SOL    HW110907   2.000   1.066   5.877
 3447SOL    HW210908   1.861   0.991   5.918
 3448SOL     OW10909   2.737   1.646   5.923
 3448SOL    HW110910   2.660   1.611   5.869
 3448SOL    HW210911   2.705   1.717   5.985
 3449SOL     OW10912   2.092   0.628   7.561
 3449SOL    HW110913   1.999   0.626   7.598
 3449SOL    HW210914   2.093   0.589   7.469
 3450SOL     OW10915   3.617   0.607   7.679
 3450SOL    HW110916   3.605   0.594   7.580
 3450SOL    HW210917   3.587   0.526   7.728
 3451SOL     OW10918   2.093   1.713   7.931
 3451SOL    HW110919   2.127   1.790   7.985
 3451SOL    HW210920   2.137   1.713   7.841
 3452SOL     OW10921   2.092   1.434   7.986
 3452SOL    HW110922   2.066   1.530   7.986
 3452SOL    HW210923   2.021   1.380   8.031
 3453SOL     OW10924   2.468   0.964   7.571
 3453SOL    HW110925   2.475   1.048   7.517
 3453SOL    HW210926   2.514   0.977   7.659
 3454SOL     OW10927   3.704   1.767   7.807
 3454SOL    HW110928   3.758   1.738   7.887
 3454SOL    HW210929   3.734   1.857   7.778
 3455SOL     OW10930   1.889   1.596   7.565
 3455SOL    HW110931   1.870   1.500   7.586
 3455SOL    HW210932   1.856   1.654   7.640
 3456SOL     OW10933   3.551   0.922   8.060
 3456SOL    HW110934   3.646   0.893   8.068
 3456SOL    HW210935   3.543   0.987   7.985
 3457SOL     OW10936   3.503   1.108   7.880
 3457SOL    HW110937   3.589   1.110   7.828
 3457SOL    HW210938   3.517   1.155   7.968
 3458SOL     OW10939   2.671   0.004   7.950
 3458SOL    HW110940   2.711   0.095   7.941
 3458SOL    HW210941   2.571   0.012   7.956
 3459SOL     OW10942   3.387   0.999   7.638
 3459SOL    HW110943   3.324   0.923   7.651
 3459SOL    HW210944   3.435   1.017   7.724
 3460SOL     OW10945   2.460   0.729   7.718
 3460SOL    HW110946   2.484   0.798   7.650
 3460SOL    HW210947   2.382   0.762   7.772
 3461SOL     OW10948   3.438   1.662   7.755
 3461SOL    HW110949   3.527   1.708   7.758
 3461SOL    HW210950   3.417   1.638   7.660
 3462SOL     OW10951   1.938   0.811   8.237
 3462SOL    HW110952   2.037   0.799   8.246
 3462SOL    HW210953   1.914   0.906   8.258
 3463SOL     OW10954   2.727   0.348   7.643
 3463SOL    HW110955   2.786   0.411   7.594
 3463SOL    HW210956   2.746   0.254   7.614
 3464SOL     OW10957   2.183   0.943   7.690
 3464SOL    HW110958   2.265   0.982   7.648
 3464SOL    HW210959   2.156   0.861   7.641
 3465SOL     OW10960   2.973   1.776   7.685
 3465SOL    HW110961   2.913   1.714   7.735
 3465SOL    HW210962   3.004   1.732   7.600
 3466SOL     OW10963   3.494   1.377   7.529
 3466SOL    HW110964   3.462   1.471   7.519
 3466SOL    HW210965   3.418   1.314   7.517
 3467SOL     OW10966   2.326   1.743   7.771
 3467SOL    HW110967   2.359   1.782   7.857
 3467SOL    HW210968   2.402   1.736   7.706
 3468SOL     OW10969   3.262   0.107   7.874
 3468SOL    HW110970   3.238   0.070   7.784
 3468SOL    HW210971   3.361   0.123   7.878
 3469SOL     OW10972   2.244   0.700   7.928
 3469SOL    HW110973   2.289   0.610   7.925
 3469SOL    HW210974   2.150   0.689   7.961
 3470SOL     OW10975   2.476   0.122   7.565
 3470SOL    HW110976   2.574   0.100   7.572
 3470SOL    HW210977   2.445   0.105   7.472
 3471SOL     OW10978   2.401   0.064   7.960
 3471SOL    HW110979   2.320   0.065   8.018
 3471SOL    HW210980   2.404   0.147   7.905
 3472SOL     OW10981   3.296   1.188   7.489
 3472SOL    HW110982   3.328   1.112   7.546
 3472SOL    HW210983   3.204   1.215   7.519
 3473SOL     OW10984   2.159   0.035   7.619
 3473SOL    HW110985   2.208   0.119   7.598
 3473SOL    HW210986   2.221  -0.030   7.664
 3474SOL     OW10987   2.797   0.236   7.928
 3474SOL    HW110988   2.749   0.277   7.850
 3474SOL    HW210989   2.896   0.234   7.909
 3475SOL     OW10990   2.321   1.152   8.189
 3475SOL    HW110991   2.250   1.125   8.254
 3475SOL    HW210992   2.295   1.124   8.096
 3476SOL     OW10993   3.133   1.797   8.039
 3476SOL    HW110994   3.177   1.861   7.975
 3476SOL    HW210995   3.083   1.849   8.109
 3477SOL     OW10996   2.894   0.549   7.464
 3477SOL    HW110997   2.853   0.631   7.425
 3477SOL    HW210998   2.958   0.575   7.537
 3478SOL     OW10999   3.719   0.833   7.825
 3478SOL    HW111000   3.761   0.769   7.889
 3478SOL    HW211001   3.681   0.782   7.747
 3479SOL     OW11002   2.350   1.385   7.622
 3479SOL    HW111003   2.263   1.370   7.669
 3479SOL    HW211004   2.333   1.411   7.527
 3480SOL     OW11005   3.252   0.575   7.526
 3480SOL    HW111006   3.198   0.554   7.607
 3480SOL    HW211007   3.343   0.534   7.535
 3481SOL     OW11008   2.389   0.256   7.776
 3481SOL    HW111009   2.416   0.197   7.701
 3481SOL    HW211010   2.389   0.351   7.745
 3482SOL     OW11011   2.567   1.050   7.816
 3482SOL    HW111012   2.553   1.057   7.915
 3482SOL    HW211013   2.651   0.999   7.798
 3483SOL     OW11014   2.229   1.100   7.949
 3483SOL    HW111015   2.222   1.183   7.893
 3483SOL    HW211016   2.233   1.020   7.889
 3484SOL     OW11017   3.114   1.348   7.836
 3484SOL    HW111018   3.164   1.425   7.876
 3484SOL    HW211019   3.019   1.350   7.868
 3485SOL     OW11020   3.444   0.639   7.920
 3485SOL    HW111021   3.413   0.700   7.993
 3485SOL    HW211022   3.494   0.691   7.851
 3486SOL     OW11023   3.071   0.525   7.723
 3486SOL    HW111024   3.084   0.441   7.777
 3486SOL    HW211025   3.042   0.599   7.783
 3487SOL     OW11026   3.484   0.367   7.822
 3487SOL    HW111027   3.486   0.291   7.886
 3487SOL    HW211028   3.436   0.444   7.862
 3488SOL     OW11029   3.402   0.274   7.573
 3488SOL    HW111030   3.341   0.199   7.596
 3488SOL    HW211031   3.424   0.326   7.656
 3489SOL     OW11032   3.165   0.838   7.490
 3489SOL    HW111033   3.199   0.745   7.505
 3489SOL    HW211034   3.183   0.865   7.395
 3490SOL     OW11035   1.870   1.326   7.648
 3490SOL    HW111036   1.777   1.347   7.617
 3490SOL    HW211037   1.880   1.227   7.661
 3491SOL     OW11038   2.677   0.572   7.773
 3491SOL    HW111039   2.684   0.483   7.727
 3491SOL    HW211040   2.583   0.606   7.765
 3492SOL     OW11041   2.335   0.500   7.639
 3492SOL    HW111042   2.396   0.580   7.643
 3492SOL    HW211043   2.240   0.531   7.646
 3493SOL     OW11044   3.164   0.855   7.757
 3493SOL    HW111045   3.078   0.824   7.799
 3493SOL    HW211046   3.160   0.841   7.658
 3494SOL     OW11047   3.588   0.135   7.971
 3494SOL    HW111048   3.661   0.118   7.904
 3494SOL    HW211049   3.557   0.048   8.009
 3495SOL     OW11050   3.250   1.573   7.925
 3495SOL    HW111051   3.317   1.585   7.851
 3495SOL    HW211052   3.210   1.662   7.948
 3496SOL     OW11053   2.534   1.616   7.602
 3496SOL    HW111054   2.543   1.626   7.503
 3496SOL    HW211055   2.494   1.527   7.623
 3497SOL     OW11056   3.056   1.612   7.479
 3497SOL    HW111057   3.062   1.519   7.516
 3497SOL    HW211058   2.997   1.612   7.399
 3498SOL     OW11059   2.778   0.910   7.739
 3498SOL    HW111060   2.841   0.948   7.671
 3498SOL    HW211061   2.818   0.827   7.778
 3499SOL     OW11062   3.366   1.607   7.492
 3499SOL    HW111063   3.274   1.644   7.499
 3499SOL    HW211064   3.404   1.627   7.402
 3500SOL     OW11065   2.452   1.487   7.939
 3500SOL    HW111066   2.494   1.429   7.869
 3500SOL    HW211067   2.408   1.566   7.895
 3501SOL     OW11068   2.117   1.348   7.738
 3501SOL    HW111069   2.021   1.349   7.711
 3501SOL    HW211070   2.129   1.401   7.822
 3502SOL     OW11071   1.937   0.345   7.481
 3502SOL    HW111072   1.845   0.317   7.452
 3502SOL    HW211073   1.968   0.422   7.425
 3503SOL     OW11074   1.934   0.166   7.766
 3503SOL    HW111075   1.917   0.249   7.712
 3503SOL    HW211076   2.024   0.129   7.744
 3504SOL     OW11077   3.045   1.335   7.567
 3504SOL    HW111078   2.946   1.324   7.569
 3504SOL    HW211079   3.079   1.350   7.660
 3505SOL     OW11080   3.087   0.325   7.897
 3505SOL    HW111081   3.152   0.251   7.886
 3505SOL    HW211082   3.107   0.375   7.981
 3506SOL     OW11083   2.456   0.745   8.100
 3506SOL    HW111084   2.506   0.830   8.081
 3506SOL    HW211085   2.368   0.747   8.052
 3507SOL     OW11086   2.721   1.374   7.464
 3507SOL    HW111087   2.675   1.389   7.552
 3507SOL    HW211088   2.765   1.459   7.434
 3508SOL     OW11089   2.945   0.984   7.535
 3508SOL    HW111090   2.922   1.037   7.453
 3508SOL    HW211091   3.026   0.928   7.516
 3509SOL     OW11092   2.290   0.424   7.968
 3509SOL    HW111093   2.320   0.352   7.906
 3509SOL    HW211094   2.251   0.384   8.051
 3510SOL     OW11095   2.632   1.330   7.749
 3510SOL    HW111096   2.586   1.243   7.766
 3510SOL    HW211097   2.723   1.327   7.790
 3511SOL     OW11098   3.214   0.052   7.616
 3511SOL    HW111099   3.249   0.011   7.532
 3511SOL    HW211100   3.124   0.014   7.636
 3512SOL     OW11101   1.901   1.077   7.748
 3512SOL    HW111102   2.000   1.066   7.739
 3512SOL    HW211103   1.861   0.991   7.780
 3513SOL     OW11104   2.737   1.646   7.785
 3513SOL    HW111105   2.660   1.611   7.731
 3513SOL    HW211106   2.705   1.717   7.847
 3514SOL     OW11107   2.092   2.490   0.113
 3514SOL    HW111108   1.999   2.488   0.150
 3514SOL    HW211109   2.093   2.451   0.021
 3515SOL     OW11110   2.087   2.137   0.996
 3515SOL    HW111111   2.122   2.120   1.088
 3515SOL    HW211112   1.999   2.092   0.984
 3516SOL     OW11113   1.881   2.230   0.647
 3516SOL    HW111114   1.799   2.273   0.686
 3516SOL    HW211115   1.853   2.157   0.584
 3517SOL     OW11116   2.431   3.137   1.165
 3517SOL    HW111117   2.338   3.130   1.128
 3517SOL    HW211118   2.442   3.226   1.209
 3518SOL     OW11119   3.417   3.373   0.703
 3518SOL    HW111120   3.360   3.357   0.784
 3518SOL    HW211121   3.358   3.383   0.623
 3519SOL     OW11122   2.997   2.565   0.717
 3519SOL    HW111123   3.054   2.643   0.692
 3519SOL    HW211124   2.937   2.591   0.793
 3520SOL     OW11125   3.617   2.469   0.231
 3520SOL    HW111126   3.605   2.456   0.132
 3520SOL    HW211127   3.587   2.388   0.280
 3521SOL     OW11128   2.630   3.006   1.023
 3521SOL    HW111129   2.552   3.023   1.083
 3521SOL    HW211130   2.664   3.093   0.987
 3522SOL     OW11131   2.548   3.023   1.803
 3522SOL    HW111132   2.608   3.102   1.817
 3522SOL    HW211133   2.462   3.054   1.762
 3523SOL     OW11134   2.197   3.297   1.061
 3523SOL    HW111135   2.119   3.266   1.008
 3523SOL    HW211136   2.255   3.355   1.004
 3524SOL     OW11137   3.322   3.367   1.339
 3524SOL    HW111138   3.346   3.461   1.365
 3524SOL    HW211139   3.306   3.313   1.421
 3525SOL     OW11140   2.300   2.254   1.499
 3525SOL    HW111141   2.382   2.198   1.508
 3525SOL    HW211142   2.219   2.196   1.503
 3526SOL     OW11143   3.465   2.309   0.737
 3526SOL    HW111144   3.391   2.355   0.687
 3526SOL    HW211145   3.516   2.377   0.790
 3527SOL     OW11146   2.093   3.575   0.483
 3527SOL    HW111147   2.127   3.652   0.537
 3527SOL    HW211148   2.137   3.575   0.393
 3528SOL     OW11149   2.989   3.203   1.690
 3528SOL    HW111150   3.036   3.203   1.778
 3528SOL    HW211151   2.941   3.116   1.679
 3529SOL     OW11152   2.092   3.296   0.538
 3529SOL    HW111153   2.066   3.392   0.538
 3529SOL    HW211154   2.021   3.242   0.583
 3530SOL     OW11155   2.102   2.953   0.886
 3530SOL    HW111156   2.116   2.869   0.938
 3530SOL    HW211157   2.047   3.017   0.941
 3531SOL     OW11158   2.482   3.648   1.439
 3531SOL    HW111159   2.390   3.631   1.474
 3531SOL    HW211160   2.510   3.740   1.465
 3532SOL     OW11161   2.468   2.826   0.123
 3532SOL    HW111162   2.475   2.910   0.069
 3532SOL    HW211163   2.514   2.839   0.211
 3533SOL     OW11164   3.456   1.976   1.480
 3533SOL    HW111165   3.438   2.043   1.408
 3533SOL    HW211166   3.453   2.022   1.569
 3534SOL     OW11167   1.984   2.505   0.563
 3534SOL    HW111168   1.939   2.417   0.580
 3534SOL    HW211169   1.983   2.559   0.647
 3535SOL     OW11170   3.704   3.629   0.359
 3535SOL    HW111171   3.758   3.600   0.439
 3535SOL    HW211172   3.734   3.719   0.330
 3536SOL     OW11173   1.889   3.458   0.117
 3536SOL    HW111174   1.870   3.362   0.138
 3536SOL    HW211175   1.856   3.516   0.192
 3537SOL     OW11176   3.551   2.784   0.612
 3537SOL    HW111177   3.646   2.755   0.620
 3537SOL    HW211178   3.543   2.849   0.537
 3538SOL     OW11179   3.503   2.970   0.432
 3538SOL    HW111180   3.589   2.972   0.380
 3538SOL    HW211181   3.517   3.017   0.520
 3539SOL     OW11182   1.975   2.599   1.597
 3539SOL    HW111183   2.063   2.586   1.642
 3539SOL    HW211184   1.962   2.696   1.575
 3540SOL     OW11185   2.475   3.227   0.726
 3540SOL    HW111186   2.426   3.140   0.735
 3540SOL    HW211187   2.452   3.270   0.639
 3541SOL     OW11188   3.155   3.090   1.423
 3541SOL    HW111189   3.192   3.017   1.365
 3541SOL    HW211190   3.207   3.095   1.508
 3542SOL     OW11191   2.671   1.866   0.502
 3542SOL    HW111192   2.711   1.957   0.493
 3542SOL    HW211193   2.571   1.874   0.508
 3543SOL     OW11194   2.059   2.838   1.264
 3543SOL    HW111195   2.148   2.793   1.250
 3543SOL    HW211196   1.986   2.773   1.245
 3544SOL     OW11197   3.387   2.861   0.190
 3544SOL    HW111198   3.324   2.785   0.203
 3544SOL    HW211199   3.435   2.879   0.276
 3545SOL     OW11200   3.049   3.654   1.616
 3545SOL    HW111201   3.073   3.714   1.540
 3545SOL    HW211202   3.056   3.559   1.586
 3546SOL     OW11203   2.179   2.113   1.801
 3546SOL    HW111204   2.250   2.184   1.807
 3546SOL    HW211205   2.091   2.152   1.829
 3547SOL     OW11206   3.328   3.279   0.953
 3547SOL    HW111207   3.269   3.285   1.033
 3547SOL    HW211208   3.313   3.191   0.907
 3548SOL     OW11209   3.529   3.576   0.572
 3548SOL    HW111210   3.488   3.553   0.484
 3548SOL    HW211211   3.511   3.502   0.637
 3549SOL     OW11212   3.143   2.207   0.944
 3549SOL    HW111213   3.057   2.157   0.931
 3549SOL    HW211214   3.205   2.153   1.000
 3550SOL     OW11215   3.438   3.524   0.307
 3550SOL    HW111216   3.527   3.570   0.310
 3550SOL    HW211217   3.417   3.500   0.212
 3551SOL     OW11218   3.256   2.331   1.674
 3551SOL    HW111219   3.236   2.374   1.762
 3551SOL    HW211220   3.334   2.269   1.683
 3552SOL     OW11221   2.853   2.272   1.242
 3552SOL    HW111222   2.776   2.306   1.296
 3552SOL    HW211223   2.819   2.221   1.163
 3553SOL     OW11224   1.938   2.673   0.789
 3553SOL    HW111225   2.037   2.661   0.798
 3553SOL    HW211226   1.914   2.768   0.810
 3554SOL     OW11227   1.992   3.683   1.571
 3554SOL    HW111228   1.982   3.668   1.670
 3554SOL    HW211229   1.906   3.719   1.535
 3555SOL     OW11230   2.727   2.210   0.195
 3555SOL    HW111231   2.786   2.273   0.146
 3555SOL    HW211232   2.746   2.116   0.166
 3556SOL     OW11233   3.581   2.447   1.831
 3556SOL    HW111234   3.555   2.536   1.795
 3556SOL    HW211235   3.579   2.379   1.758
 3557SOL     OW11236   3.224   3.006   0.545
 3557SOL    HW111237   3.307   2.977   0.497
 3557SOL    HW211238   3.175   3.073   0.489
 3558SOL     OW11239   2.412   2.058   0.885
 3558SOL    HW111240   2.407   2.053   0.985
 3558SOL    HW211241   2.414   2.154   0.856
 3559SOL     OW11242   2.870   3.318   0.477
 3559SOL    HW111243   2.824   3.390   0.425
 3559SOL    HW211244   2.866   3.338   0.575
 3560SOL     OW11245   2.213   3.663   0.853
 3560SOL    HW111246   2.263   3.577   0.859
 3560SOL    HW211247   2.278   3.740   0.850
 3561SOL     OW11248   3.657   2.928   0.873
 3561SOL    HW111249   3.595   2.913   0.797
 3561SOL    HW211250   3.605   2.939   0.958
 3562SOL     OW11251   3.089   3.412   1.506
 3562SOL    HW111252   3.095   3.335   1.570
 3562SOL    HW211253   3.037   3.386   1.426
 3563SOL     OW11254   2.183   2.805   0.242
 3563SOL    HW111255   2.265   2.844   0.200
 3563SOL    HW211256   2.156   2.723   0.193
 3564SOL     OW11257   3.320   2.597   0.728
 3564SOL    HW111258   3.315   2.532   0.803
 3564SOL    HW211259   3.400   2.656   0.741
 3565SOL     OW11260   2.323   3.128   1.727
 3565SOL    HW111261   2.273   3.129   1.641
 3565SOL    HW211262   2.260   3.110   1.803
 3566SOL     OW11263   2.973   3.638   0.237
 3566SOL    HW111264   2.913   3.576   0.287
 3566SOL    HW211265   3.004   3.594   0.152
 3567SOL     OW11266   2.064   2.147   1.498
 3567SOL    HW111267   1.984   2.207   1.485
 3567SOL    HW211268   2.054   2.098   1.584
 3568SOL     OW11269   3.494   3.239   0.081
 3568SOL    HW111270   3.462   3.333   0.071
 3568SOL    HW211271   3.418   3.176   0.069
 3569SOL     OW11272   2.326   3.605   0.323
 3569SOL    HW111273   2.359   3.644   0.409
 3569SOL    HW211274   2.402   3.598   0.258
 3570SOL     OW11275   3.262   1.969   0.426
 3570SOL    HW111276   3.238   1.932   0.336
 3570SOL    HW211277   3.361   1.985   0.430
 3571SOL     OW11278   2.111   3.647   1.241
 3571SOL    HW111279   2.168   3.582   1.291
 3571SOL    HW211280   2.095   3.614   1.148
 3572SOL     OW11281   2.802   3.560   0.904
 3572SOL    HW111282   2.882   3.503   0.925
 3572SOL    HW211283   2.753   3.520   0.827
 3573SOL     OW11284   2.244   2.562   0.480
 3573SOL    HW111285   2.289   2.472   0.477
 3573SOL    HW211286   2.150   2.551   0.513
 3574SOL     OW11287   3.409   2.084   1.729
 3574SOL    HW111288   3.404   2.121   1.821
 3574SOL    HW211289   3.337   2.015   1.717
 3575SOL     OW11290   2.476   1.984   0.117
 3575SOL    HW111291   2.574   1.962   0.124
 3575SOL    HW211292   2.445   1.967   0.024
 3576SOL     OW11293   2.643   2.126   1.749
 3576SOL    HW111294   2.710   2.065   1.792
 3576SOL    HW211295   2.570   2.145   1.814
 3577SOL     OW11296   2.750   3.376   1.195
 3577SOL    HW111297   2.727   3.351   1.101
 3577SOL    HW211298   2.811   3.307   1.234
 3578SOL     OW11299   3.213   2.452   1.433
 3578SOL    HW111300   3.241   2.409   1.518
 3578SOL    HW211301   3.238   2.548   1.434
 3579SOL     OW11302   2.665   3.264   0.924
 3579SOL    HW111303   2.755   3.278   0.882
 3579SOL    HW211304   2.594   3.266   0.853
 3580SOL     OW11305   2.784   2.365   0.899
 3580SOL    HW111306   2.759   2.356   0.803
 3580SOL    HW211307   2.832   2.283   0.930
 3581SOL     OW11308   2.401   1.926   0.512
 3581SOL    HW111309   2.320   1.927   0.570
 3581SOL    HW211310   2.404   2.009   0.457
 3582SOL     OW11311   3.296   3.050   0.041
 3582SOL    HW111312   3.328   2.974   0.098
 3582SOL    HW211313   3.204   3.077   0.071
 3583SOL     OW11314   2.159   1.897   0.171
 3583SOL    HW111315   2.208   1.981   0.150
 3583SOL    HW211316   2.221   1.832   0.216
 3584SOL     OW11317   2.797   2.098   0.480
 3584SOL    HW111318   2.749   2.139   0.402
 3584SOL    HW211319   2.896   2.096   0.461
 3585SOL     OW11320   2.938   2.545   1.464
 3585SOL    HW111321   2.858   2.484   1.467
 3585SOL    HW211322   3.019   2.492   1.440
 3586SOL     OW11323   3.089   3.432   0.793
 3586SOL    HW111324   3.110   3.506   0.728
 3586SOL    HW211325   3.157   3.432   0.866
 3587SOL     OW11326   2.321   3.014   0.741
 3587SOL    HW111327   2.250   2.987   0.806
 3587SOL    HW211328   2.295   2.986   0.648
 3588SOL     OW11329   3.133   3.659   0.591
 3588SOL    HW111330   3.177   3.723   0.527
 3588SOL    HW211331   3.083   3.711   0.661
 3589SOL     OW11332   2.894   2.411   0.016
 3589SOL    HW111333   2.853   2.493  -0.023
 3589SOL    HW211334   2.958   2.437   0.089
 3590SOL     OW11335   1.940   2.418   1.386
 3590SOL    HW111336   2.032   2.417   1.345
 3590SOL    HW211337   1.934   2.492   1.453
 3591SOL     OW11338   2.423   2.084   1.147
 3591SOL    HW111339   2.461   2.000   1.184
 3591SOL    HW211340   2.335   2.103   1.191
 3592SOL     OW11341   2.728   2.316   0.642
 3592SOL    HW111342   2.696   2.388   0.580
 3592SOL    HW211343   2.752   2.235   0.589
 3593SOL     OW11344   2.879   1.901   0.753
 3593SOL    HW111345   2.807   1.906   0.684
 3593SOL    HW211346   2.855   1.832   0.822
 3594SOL     OW11347   3.291   3.035   0.867
 3594SOL    HW111348   3.236   2.951   0.860
 3594SOL    HW211349   3.317   3.064   0.775
 3595SOL     OW11350   3.328   2.452   0.992
 3595SOL    HW111351   3.298   2.357   0.999
 3595SOL    HW211352   3.401   2.468   1.058
 3596SOL     OW11353   3.719   2.695   0.377
 3596SOL    HW111354   3.761   2.631   0.441
 3596SOL    HW211355   3.681   2.644   0.299
 3597SOL     OW11356   2.350   3.247   0.174
 3597SOL    HW111357   2.263   3.232   0.221
 3597SOL    HW211358   2.333   3.273   0.079
 3598SOL     OW11359   3.526   3.142   0.657
 3598SOL    HW111360   3.625   3.150   0.671
 3598SOL    HW211361   3.481   3.226   0.688
 3599SOL     OW11362   3.252   2.437   0.078
 3599SOL    HW111363   3.198   2.416   0.159
 3599SOL    HW211364   3.343   2.396   0.087
 3600SOL     OW11365   2.389   2.118   0.328
 3600SOL    HW111366   2.416   2.059   0.253
 3600SOL    HW211367   2.389   2.213   0.297
 3601SOL     OW11368   3.616   3.085   1.588
 3601SOL    HW111369   3.707   3.046   1.575
 3601SOL    HW211370   3.624   3.181   1.612
 3602SOL     OW11371   2.926   3.209   1.340
 3602SOL    HW111372   2.846   3.186   1.395
 3602SOL    HW211373   3.009   3.183   1.389
 3603SOL     OW11374   3.454   3.491   1.625
 3603SOL    HW111375   3.481   3.525   1.535
 3603SOL    HW211376   3.533   3.453   1.671
 3604SOL     OW11377   2.973   3.057   1.100
 3604SOL    HW111378   2.933   3.101   1.181
 3604SOL    HW211379   2.932   3.094   1.017
 3605SOL     OW11380   3.500   2.961   1.079
 3605SOL    HW111381   3.505   3.042   1.138
 3605SOL    HW211382   3.414   2.963   1.028
 3606SOL     OW11383   2.777   1.951   1.402
 3606SOL    HW111384   2.802   1.931   1.307
 3606SOL    HW211385   2.849   2.007   1.444
 3607SOL     OW11386   2.842   2.978   1.719
 3607SOL    HW111387   2.743   2.984   1.729
 3607SOL    HW211388   2.865   2.898   1.663
 3608SOL     OW11389   2.567   2.912   0.368
 3608SOL    HW111390   2.553   2.919   0.467
 3608SOL    HW211391   2.651   2.861   0.350
 3609SOL     OW11392   2.272   2.675   1.251
 3609SOL    HW111393   2.358   2.687   1.301
 3609SOL    HW211394   2.230   2.588   1.278
 3610SOL     OW11395   3.136   2.248   1.262
 3610SOL    HW111396   3.157   2.322   1.326
 3610SOL    HW211397   3.047   2.265   1.219
 3611SOL     OW11398   1.926   3.426   1.331
 3611SOL    HW111399   1.880   3.508   1.297
 3611SOL    HW211400   2.024   3.445   1.340
 3612SOL     OW11401   2.229   2.962   0.501
 3612SOL    HW111402   2.222   3.045   0.445
 3612SOL    HW211403   2.233   2.882   0.441
 3613SOL     OW11404   2.428   2.399   0.865
 3613SOL    HW111405   2.440   2.465   0.791
 3613SOL    HW211406   2.474   2.433   0.948
 3614SOL     OW11407   3.114   3.210   0.388
 3614SOL    HW111408   3.164   3.287   0.428
 3614SOL    HW211409   3.019   3.212   0.420
 3615SOL     OW11410   3.134   3.307   1.142
 3615SOL    HW111411   3.181   3.320   1.229
 3615SOL    HW211412   3.068   3.233   1.151
 3616SOL     OW11413   3.444   2.501   0.472
 3616SOL    HW111414   3.413   2.562   0.545
 3616SOL    HW211415   3.494   2.553   0.403
 3617SOL     OW11416   2.216   3.372   1.329
 3617SOL    HW111417   2.195   3.328   1.242
 3617SOL    HW211418   2.313   3.398   1.332
 3618SOL     OW11419   2.264   2.613   1.598
 3618SOL    HW111420   2.332   2.668   1.551
 3618SOL    HW211421   2.304   2.525   1.625
 3619SOL     OW11422   3.449   2.641   1.670
 3619SOL    HW111423   3.357   2.679   1.665
 3619SOL    HW211424   3.509   2.688   1.605
 3620SOL     OW11425   2.875   1.967   1.770
 3620SOL    HW111426   2.881   2.052   1.718
 3620SOL    HW211427   2.907   1.891   1.713
 3621SOL     OW11428   2.366   1.912   1.740
 3621SOL    HW111429   2.324   1.855   1.670
 3621SOL    HW211430   2.300   1.981   1.772
 3622SOL     OW11431   3.222   2.724   1.045
 3622SOL    HW111432   3.147   2.724   0.979
 3622SOL    HW211433   3.259   2.632   1.054
 3623SOL     OW11434   3.071   2.387   0.275
 3623SOL    HW111435   3.084   2.303   0.329
 3623SOL    HW211436   3.042   2.461   0.335
 3624SOL     OW11437   2.169   2.075   1.231
 3624SOL    HW111438   2.146   2.112   1.321
 3624SOL    HW211439   2.139   1.980   1.225
 3625SOL     OW11440   1.899   3.172   1.282
 3625SOL    HW111441   1.952   3.123   1.350
 3625SOL    HW211442   1.921   3.270   1.287
 3626SOL     OW11443   3.590   2.797   1.854
 3626SOL    HW111444   3.544   2.790   1.765
 3626SOL    HW211445   3.528   2.841   1.920
 3627SOL     OW11446   2.169   1.925   0.618
 3627SOL    HW111447   2.158   2.019   0.651
 3627SOL    HW211448   2.164   1.862   0.695
 3628SOL     OW11449   3.484   2.229   0.374
 3628SOL    HW111450   3.486   2.153   0.438
 3628SOL    HW211451   3.436   2.306   0.414
 3629SOL     OW11452   2.842   3.435   1.700
 3629SOL    HW111453   2.822   3.479   1.612
 3629SOL    HW211454   2.881   3.344   1.684
 3630SOL     OW11455   3.721   3.380   1.605
 3630SOL    HW111456   3.735   3.407   1.510
 3630SOL    HW211457   3.804   3.402   1.658
 3631SOL     OW11458   2.212   2.760   1.804
 3631SOL    HW111459   2.288   2.804   1.852
 3631SOL    HW211460   2.247   2.713   1.722
 3632SOL     OW11461   3.402   2.136   0.125
 3632SOL    HW111462   3.341   2.061   0.148
 3632SOL    HW211463   3.424   2.188   0.208
 3633SOL     OW11464   3.165   2.700   0.042
 3633SOL    HW111465   3.199   2.607   0.057
 3633SOL    HW211466   3.183   2.727  -0.053
 3634SOL     OW11467   2.930   3.195   0.849
 3634SOL    HW111468   2.937   3.111   0.794
 3634SOL    HW211469   2.992   3.264   0.813
 3635SOL     OW11470   2.181   2.672   0.949
 3635SOL    HW111471   2.274   2.708   0.954
 3635SOL    HW211472   2.175   2.587   1.001
 3636SOL     OW11473   2.201   2.371   1.006
 3636SOL    HW111474   2.149   2.288   0.989
 3636SOL    HW211475   2.278   2.376   0.942
 3637SOL     OW11476   3.000   2.242   1.678
 3637SOL    HW111477   2.955   2.305   1.742
 3637SOL    HW211478   3.093   2.273   1.661
 3638SOL     OW11479   3.022   2.069   1.477
 3638SOL    HW111480   3.022   2.133   1.554
 3638SOL    HW211481   3.050   2.117   1.394
 3639SOL     OW11482   1.870   3.188   0.200
 3639SOL    HW111483   1.777   3.209   0.169
 3639SOL    HW211484   1.880   3.089   0.213
 3640SOL     OW11485   1.950   3.663   0.927
 3640SOL    HW111486   1.908   3.577   0.900
 3640SOL    HW211487   2.044   3.666   0.893
 3641SOL     OW11488   2.366   3.430   0.910
 3641SOL    HW111489   2.432   3.504   0.919
 3641SOL    HW211490   2.410   3.351   0.868
 3642SOL     OW11491   1.902   2.406   1.114
 3642SOL    HW111492   1.987   2.373   1.073
 3642SOL    HW211493   1.915   2.421   1.212
 3643SOL     OW11494   2.051   2.382   1.722
 3643SOL    HW111495   2.110   2.342   1.652
 3643SOL    HW211496   1.993   2.453   1.681
 3644SOL     OW11497   3.231   2.812   1.660
 3644SOL    HW111498   3.270   2.901   1.680
 3644SOL    HW211499   3.241   2.792   1.563
 3645SOL     OW11500   3.519   2.466   1.206
 3645SOL    HW111501   3.481   2.397   1.268
 3645SOL    HW211502   3.601   2.430   1.162
 3646SOL     OW11503   2.114   3.426   1.744
 3646SOL    HW111504   2.084   3.483   1.820
 3646SOL    HW211505   2.107   3.329   1.770
 3647SOL     OW11506   2.533   2.326   1.269
 3647SOL    HW111507   2.499   2.237   1.239
 3647SOL    HW211508   2.559   2.380   1.189
 3648SOL     OW11509   2.792   3.540   1.465
 3648SOL    HW111510   2.768   3.522   1.370
 3648SOL    HW211511   2.822   3.634   1.475
 3649SOL     OW11512   2.335   2.362   0.191
 3649SOL    HW111513   2.396   2.442   0.195
 3649SOL    HW211514   2.240   2.393   0.198
 3650SOL     OW11515   2.021   2.999   1.466
 3650SOL    HW111516   2.043   2.938   1.542
 3650SOL    HW211517   2.031   2.950   1.380
 3651SOL     OW11518   3.209   2.921   1.234
 3651SOL    HW111519   3.233   2.858   1.160
 3651SOL    HW211520   3.119   2.961   1.216
 3652SOL     OW11521   3.164   2.717   0.309
 3652SOL    HW111522   3.078   2.686   0.351
 3652SOL    HW211523   3.160   2.703   0.210
 3653SOL     OW11524   3.621   3.609   1.154
 3653SOL    HW111525   3.682   3.639   1.081
 3653SOL    HW211526   3.583   3.520   1.132
 3654SOL     OW11527   3.114   3.593   1.128
 3654SOL    HW111528   3.198   3.598   1.074
 3654SOL    HW211529   3.091   3.497   1.146
 3655SOL     OW11530   1.945   3.120   1.022
 3655SOL    HW111531   1.940   3.119   1.122
 3655SOL    HW211532   1.862   3.079   0.984
 3656SOL     OW11533   2.550   3.524   1.716
 3656SOL    HW111534   2.494   3.605   1.725
 3656SOL    HW211535   2.602   3.528   1.630
 3657SOL     OW11536   2.765   1.948   0.133
 3657SOL    HW111537   2.816   1.949   0.047
 3657SOL    HW211538   2.821   1.906   0.204
 3658SOL     OW11539   3.588   1.997   0.523
 3658SOL    HW111540   3.661   1.980   0.456
 3658SOL    HW211541   3.557   1.910   0.561
 3659SOL     OW11542   3.250   3.435   0.477
 3659SOL    HW111543   3.317   3.447   0.403
 3659SOL    HW211544   3.210   3.524   0.500
 3660SOL     OW11545   1.992   3.656   1.851
 3660SOL    HW111546   1.951   3.582   1.904
 3660SOL    HW211547   2.056   3.707   1.909
 3661SOL     OW11548   3.142   2.789   0.672
 3661SOL    HW111549   3.202   2.708   0.674
 3661SOL    HW211550   3.182   2.858   0.612
 3662SOL     OW11551   2.692   3.135   1.422
 3662SOL    HW111552   2.687   3.168   1.517
 3662SOL    HW211553   2.606   3.154   1.376
 3663SOL     OW11554   2.534   3.478   0.154
 3663SOL    HW111555   2.543   3.488   0.055
 3663SOL    HW211556   2.494   3.389   0.175
 3664SOL     OW11557   3.512   3.582   1.394
 3664SOL    HW111558   3.565   3.592   1.310
 3664SOL    HW211559   3.485   3.672   1.428
 3665SOL     OW11560   3.703   2.037   0.963
 3665SOL    HW111561   3.742   1.952   0.927
 3665SOL    HW211562   3.605   2.039   0.944
 3666SOL     OW11563   2.125   2.188   0.720
 3666SOL    HW111564   2.046   2.239   0.686
 3666SOL    HW211565   2.116   2.173   0.818
 3667SOL     OW11566   3.056   3.474   0.031
 3667SOL    HW111567   3.062   3.381   0.068
 3667SOL    HW211568   2.997   3.474  -0.049
 3668SOL     OW11569   3.366   3.469   0.044
 3668SOL    HW111570   3.274   3.506   0.051
 3668SOL    HW211571   3.404   3.489  -0.046
 3669SOL     OW11572   2.234   3.150   1.490
 3669SOL    HW111573   2.221   3.243   1.456
 3669SOL    HW211574   2.150   3.098   1.477
 3670SOL     OW11575   3.476   3.154   1.289
 3670SOL    HW111576   3.536   3.157   1.369
 3670SOL    HW211577   3.401   3.218   1.302
 3671SOL     OW11578   2.901   2.960   0.696
 3671SOL    HW111579   2.831   2.913   0.750
 3671SOL    HW211580   2.960   2.892   0.653
 3672SOL     OW11581   2.876   2.098   0.971
 3672SOL    HW111582   2.868   2.062   0.878
 3672SOL    HW211583   2.874   2.022   1.036
 3673SOL     OW11584   2.452   3.349   0.491
 3673SOL    HW111585   2.494   3.291   0.421
 3673SOL    HW211586   2.408   3.428   0.447
 3674SOL     OW11587   3.571   2.247   1.381
 3674SOL    HW111588   3.644   2.316   1.385
 3674SOL    HW211589   3.599   2.172   1.322
 3675SOL     OW11590   2.117   3.210   0.290
 3675SOL    HW111591   2.021   3.211   0.263
 3675SOL    HW211592   2.129   3.263   0.374
 3676SOL     OW11593   1.967   2.875   1.726
 3676SOL    HW111594   1.890   2.842   1.780
 3676SOL    HW211595   2.052   2.845   1.768
 3677SOL     OW11596   2.534   2.065   1.489
 3677SOL    HW111597   2.624   2.049   1.449
 3677SOL    HW211598   2.542   2.070   1.588
 3678SOL     OW11599   1.937   2.207   0.033
 3678SOL    HW111600   1.845   2.179   0.004
 3678SOL    HW211601   1.968   2.284  -0.023
 3679SOL     OW11602   3.302   2.718   1.398
 3679SOL    HW111603   3.245   2.770   1.335
 3679SOL    HW211604   3.398   2.730   1.374
 3680SOL     OW11605   1.934   2.028   0.318
 3680SOL    HW111606   1.917   2.111   0.264
 3680SOL    HW211607   2.024   1.991   0.296
 3681SOL     OW11608   3.045   3.197   0.119
 3681SOL    HW111609   2.946   3.186   0.121
 3681SOL    HW211610   3.079   3.212   0.212
 3682SOL     OW11611   3.355   3.629   0.959
 3682SOL    HW111612   3.388   3.693   0.890
 3682SOL    HW211613   3.421   3.623   1.034
 3683SOL     OW11614   3.312   3.082   1.633
 3683SOL    HW111615   3.303   3.072   1.732
 3683SOL    HW211616   3.408   3.075   1.607
 3684SOL     OW11617   2.252   3.603   1.560
 3684SOL    HW111618   2.161   3.644   1.558
 3684SOL    HW211619   2.245   3.509   1.592
 3685SOL     OW11620   3.536   2.745   1.254
 3685SOL    HW111621   3.509   2.656   1.217
 3685SOL    HW211622   3.537   2.813   1.181
 3686SOL     OW11623   3.087   2.187   0.449
 3686SOL    HW111624   3.152   2.113   0.438
 3686SOL    HW211625   3.107   2.237   0.533
 3687SOL     OW11626   3.639   2.204   1.642
 3687SOL    HW111627   3.622   2.235   1.548
 3687SOL    HW211628   3.555   2.167   1.680
 3688SOL     OW11629   3.592   2.796   1.517
 3688SOL    HW111630   3.630   2.887   1.532
 3688SOL    HW211631   3.584   2.779   1.418
 3689SOL     OW11632   2.721   3.236   0.016
 3689SOL    HW111633   2.675   3.251   0.104
 3689SOL    HW211634   2.765   3.321  -0.014
 3690SOL     OW11635   2.523   3.652   0.953
 3690SOL    HW111636   2.477   3.740   0.940
 3690SOL    HW211637   2.622   3.664   0.946
 3691SOL     OW11638   2.945   2.846   0.087
 3691SOL    HW111639   2.922   2.899   0.005
 3691SOL    HW211640   3.026   2.790   0.068
 3692SOL     OW11641   3.723   3.431   0.851
 3692SOL    HW111642   3.652   3.419   0.781
 3692SOL    HW211643   3.724   3.352   0.911
 3693SOL     OW11644   2.083   3.176   1.844
 3693SOL    HW111645   2.018   3.103   1.823
 3693SOL    HW211646   2.087   3.190   1.942
 3694SOL     OW11647   1.941   3.102   0.653
 3694SOL    HW111648   1.940   3.055   0.741
 3694SOL    HW211649   2.023   3.074   0.602
 3695SOL     OW11650   2.534   3.253   1.624
 3695SOL    HW111651   2.456   3.203   1.662
 3695SOL    HW211652   2.531   3.348   1.655
 3696SOL     OW11653   3.686   2.054   1.227
 3696SOL    HW111654   3.682   1.964   1.271
 3696SOL    HW211655   3.689   2.043   1.128
 3697SOL     OW11656   2.290   2.286   0.520
 3697SOL    HW111657   2.320   2.214   0.458
 3697SOL    HW211658   2.251   2.246   0.603
 3698SOL     OW11659   3.567   3.349   1.104
 3698SOL    HW111660   3.474   3.324   1.077
 3698SOL    HW211661   3.593   3.299   1.186
 3699SOL     OW11662   2.179   2.409   1.280
 3699SOL    HW111663   2.217   2.350   1.352
 3699SOL    HW211664   2.219   2.383   1.192
 3700SOL     OW11665   2.674   3.448   0.687
 3700SOL    HW111666   2.706   3.458   0.593
 3700SOL    HW211667   2.595   3.386   0.689
 3701SOL     OW11668   3.286   2.076   1.112
 3701SOL    HW111669   3.338   2.011   1.167
 3701SOL    HW211670   3.237   2.139   1.173
 3702SOL     OW11671   2.863   1.896   1.154
 3702SOL    HW111672   2.800   1.824   1.123
 3702SOL    HW211673   2.956   1.860   1.154
 3703SOL     OW11674   2.632   3.192   0.301
 3703SOL    HW111675   2.586   3.105   0.318
 3703SOL    HW211676   2.723   3.189   0.342
 3704SOL     OW11677   2.480   3.429   1.284
 3704SOL    HW111678   2.475   3.511   1.341
 3704SOL    HW211679   2.569   3.426   1.239
 3705SOL     OW11680   3.214   1.914   0.168
 3705SOL    HW111681   3.249   1.873   0.084
 3705SOL    HW211682   3.124   1.876   0.188
 3706SOL     OW11683   3.162   2.315   0.691
 3706SOL    HW111684   3.103   2.395   0.695
 3706SOL    HW211685   3.177   2.280   0.784
 3707SOL     OW11686   3.455   2.083   0.882
 3707SOL    HW111687   3.371   2.082   0.936
 3707SOL    HW211688   3.457   2.166   0.826
 3708SOL     OW11689   1.901   2.939   0.300
 3708SOL    HW111690   2.000   2.928   0.291
 3708SOL    HW211691   1.861   2.853   0.332
 3709SOL     OW11692   2.737   3.508   0.337
 3709SOL    HW111693   2.660   3.473   0.283
 3709SOL    HW211694   2.705   3.579   0.399
 3710SOL     OW11695   2.092   2.490   1.975
 3710SOL    HW111696   1.999   2.488   2.012
 3710SOL    HW211697   2.093   2.451   1.883
 3711SOL     OW11698   2.087   2.137   2.858
 3711SOL    HW111699   2.122   2.120   2.950
 3711SOL    HW211700   1.999   2.092   2.846
 3712SOL     OW11701   1.881   2.230   2.509
 3712SOL    HW111702   1.799   2.273   2.548
 3712SOL    HW211703   1.853   2.157   2.446
 3713SOL     OW11704   2.431   3.137   3.027
 3713SOL    HW111705   2.338   3.130   2.990
 3713SOL    HW211706   2.442   3.226   3.071
 3714SOL     OW11707   3.417   3.373   2.565
 3714SOL    HW111708   3.360   3.357   2.646
 3714SOL    HW211709   3.358   3.383   2.485
 3715SOL     OW11710   2.997   2.565   2.579
 3715SOL    HW111711   3.054   2.643   2.554
 3715SOL    HW211712   2.937   2.591   2.655
 3716SOL     OW11713   3.617   2.469   2.093
 3716SOL    HW111714   3.605   2.456   1.994
 3716SOL    HW211715   3.587   2.388   2.142
 3717SOL     OW11716   2.630   3.006   2.885
 3717SOL    HW111717   2.552   3.023   2.945
 3717SOL    HW211718   2.664   3.093   2.849
 3718SOL     OW11719   2.197   3.297   2.923
 3718SOL    HW111720   2.119   3.266   2.870
 3718SOL    HW211721   2.255   3.355   2.866
 3719SOL     OW11722   3.322   3.367   3.201
 3719SOL    HW111723   3.346   3.461   3.227
 3719SOL    HW211724   3.306   3.313   3.283
 3720SOL     OW11725   3.465   2.309   2.599
 3720SOL    HW111726   3.391   2.355   2.549
 3720SOL    HW211727   3.516   2.377   2.652
 3721SOL     OW11728   2.093   3.575   2.345
 3721SOL    HW111729   2.127   3.652   2.399
 3721SOL    HW211730   2.137   3.575   2.255
 3722SOL     OW11731   2.092   3.296   2.400
 3722SOL    HW111732   2.066   3.392   2.400
 3722SOL    HW211733   2.021   3.242   2.445
 3723SOL     OW11734   2.102   2.953   2.748
 3723SOL    HW111735   2.116   2.869   2.800
 3723SOL    HW211736   2.047   3.017   2.803
 3724SOL     OW11737   2.482   3.648   3.301
 3724SOL    HW111738   2.390   3.631   3.336
 3724SOL    HW211739   2.510   3.740   3.327
 3725SOL     OW11740   2.468   2.826   1.985
 3725SOL    HW111741   2.475   2.910   1.931
 3725SOL    HW211742   2.514   2.839   2.073
 3726SOL     OW11743   3.456   1.976   3.342
 3726SOL    HW111744   3.438   2.043   3.270
 3726SOL    HW211745   3.453   2.022   3.431
 3727SOL     OW11746   1.984   2.505   2.425
 3727SOL    HW111747   1.939   2.417   2.442
 3727SOL    HW211748   1.983   2.559   2.509
 3728SOL     OW11749   3.704   3.629   2.221
 3728SOL    HW111750   3.758   3.600   2.301
 3728SOL    HW211751   3.734   3.719   2.192
 3729SOL     OW11752   1.889   3.458   1.979
 3729SOL    HW111753   1.870   3.362   2.000
 3729SOL    HW211754   1.856   3.516   2.054
 3730SOL     OW11755   3.551   2.784   2.474
 3730SOL    HW111756   3.646   2.755   2.482
 3730SOL    HW211757   3.543   2.849   2.399
 3731SOL     OW11758   3.503   2.970   2.294
 3731SOL    HW111759   3.589   2.972   2.242
 3731SOL    HW211760   3.517   3.017   2.382
 3732SOL     OW11761   2.475   3.227   2.588
 3732SOL    HW111762   2.426   3.140   2.597
 3732SOL    HW211763   2.452   3.270   2.501
 3733SOL     OW11764   2.671   1.866   2.364
 3733SOL    HW111765   2.711   1.957   2.355
 3733SOL    HW211766   2.571   1.874   2.370
 3734SOL     OW11767   3.387   2.861   2.052
 3734SOL    HW111768   3.324   2.785   2.065
 3734SOL    HW211769   3.435   2.879   2.138
 3735SOL     OW11770   3.049   3.654   3.478
 3735SOL    HW111771   3.073   3.714   3.402
 3735SOL    HW211772   3.056   3.559   3.448
 3736SOL     OW11773   3.328   3.279   2.815
 3736SOL    HW111774   3.269   3.285   2.895
 3736SOL    HW211775   3.313   3.191   2.769
 3737SOL     OW11776   3.529   3.576   2.434
 3737SOL    HW111777   3.488   3.553   2.346
 3737SOL    HW211778   3.511   3.502   2.499
 3738SOL     OW11779   3.143   2.207   2.806
 3738SOL    HW111780   3.057   2.157   2.793
 3738SOL    HW211781   3.205   2.153   2.862
 3739SOL     OW11782   3.438   3.524   2.169
 3739SOL    HW111783   3.527   3.570   2.172
 3739SOL    HW211784   3.417   3.500   2.074
 3740SOL     OW11785   1.938   2.673   2.651
 3740SOL    HW111786   2.037   2.661   2.660
 3740SOL    HW211787   1.914   2.768   2.672
 3741SOL     OW11788   1.992   3.683   3.433
 3741SOL    HW111789   1.982   3.668   3.532
 3741SOL    HW211790   1.906   3.719   3.397
 3742SOL     OW11791   2.727   2.210   2.057
 3742SOL    HW111792   2.786   2.273   2.008
 3742SOL    HW211793   2.746   2.116   2.028
 3743SOL     OW11794   3.581   2.447   3.693
 3743SOL    HW111795   3.555   2.536   3.657
 3743SOL    HW211796   3.579   2.379   3.620
 3744SOL     OW11797   3.224   3.006   2.407
 3744SOL    HW111798   3.307   2.977   2.359
 3744SOL    HW211799   3.175   3.073   2.351
 3745SOL     OW11800   2.412   2.058   2.747
 3745SOL    HW111801   2.407   2.053   2.847
 3745SOL    HW211802   2.414   2.154   2.718
 3746SOL     OW11803   2.870   3.318   2.339
 3746SOL    HW111804   2.824   3.390   2.287
 3746SOL    HW211805   2.866   3.338   2.437
 3747SOL     OW11806   2.213   3.663   2.715
 3747SOL    HW111807   2.263   3.577   2.721
 3747SOL    HW211808   2.278   3.740   2.712
 3748SOL     OW11809   3.657   2.928   2.735
 3748SOL    HW111810   3.595   2.913   2.659
 3748SOL    HW211811   3.605   2.939   2.820
 3749SOL     OW11812   2.183   2.805   2.104
 3749SOL    HW111813   2.265   2.844   2.062
 3749SOL    HW211814   2.156   2.723   2.055
 3750SOL     OW11815   3.320   2.597   2.590
 3750SOL    HW111816   3.315   2.532   2.665
 3750SOL    HW211817   3.400   2.656   2.603
 3751SOL     OW11818   2.973   3.638   2.099
 3751SOL    HW111819   2.913   3.576   2.149
 3751SOL    HW211820   3.004   3.594   2.014
 3752SOL     OW11821   3.494   3.239   1.943
 3752SOL    HW111822   3.462   3.333   1.933
 3752SOL    HW211823   3.418   3.176   1.931
 3753SOL     OW11824   2.326   3.605   2.185
 3753SOL    HW111825   2.359   3.644   2.271
 3753SOL    HW211826   2.402   3.598   2.120
 3754SOL     OW11827   3.262   1.969   2.288
 3754SOL    HW111828   3.238   1.932   2.198
 3754SOL    HW211829   3.361   1.985   2.292
 3755SOL     OW11830   2.111   3.647   3.103
 3755SOL    HW111831   2.168   3.582   3.153
 3755SOL    HW211832   2.095   3.614   3.010
 3756SOL     OW11833   2.802   3.560   2.766
 3756SOL    HW111834   2.882   3.503   2.787
 3756SOL    HW211835   2.753   3.520   2.689
 3757SOL     OW11836   2.244   2.562   2.342
 3757SOL    HW111837   2.289   2.472   2.339
 3757SOL    HW211838   2.150   2.551   2.375
 3758SOL     OW11839   3.409   2.084   3.591
 3758SOL    HW111840   3.404   2.121   3.683
 3758SOL    HW211841   3.337   2.015   3.579
 3759SOL     OW11842   2.476   1.984   1.979
 3759SOL    HW111843   2.574   1.962   1.986
 3759SOL    HW211844   2.445   1.967   1.886
 3760SOL     OW11845   2.665   3.264   2.786
 3760SOL    HW111846   2.755   3.278   2.744
 3760SOL    HW211847   2.594   3.266   2.715
 3761SOL     OW11848   2.784   2.365   2.761
 3761SOL    HW111849   2.759   2.356   2.665
 3761SOL    HW211850   2.832   2.283   2.792
 3762SOL     OW11851   2.401   1.926   2.374
 3762SOL    HW111852   2.320   1.927   2.432
 3762SOL    HW211853   2.404   2.009   2.319
 3763SOL     OW11854   3.296   3.050   1.903
 3763SOL    HW111855   3.328   2.974   1.960
 3763SOL    HW211856   3.204   3.077   1.933
 3764SOL     OW11857   2.159   1.897   2.033
 3764SOL    HW111858   2.208   1.981   2.012
 3764SOL    HW211859   2.221   1.832   2.078
 3765SOL     OW11860   2.797   2.098   2.342
 3765SOL    HW111861   2.749   2.139   2.264
 3765SOL    HW211862   2.896   2.096   2.323
 3766SOL     OW11863   3.089   3.432   2.655
 3766SOL    HW111864   3.110   3.506   2.590
 3766SOL    HW211865   3.157   3.432   2.728
 3767SOL     OW11866   2.321   3.014   2.603
 3767SOL    HW111867   2.250   2.987   2.668
 3767SOL    HW211868   2.295   2.986   2.510
 3768SOL     OW11869   3.133   3.659   2.453
 3768SOL    HW111870   3.177   3.723   2.389
 3768SOL    HW211871   3.083   3.711   2.523
 3769SOL     OW11872   2.894   2.411   1.878
 3769SOL    HW111873   2.853   2.493   1.839
 3769SOL    HW211874   2.958   2.437   1.951
 3770SOL     OW11875   2.728   2.316   2.504
 3770SOL    HW111876   2.696   2.388   2.442
 3770SOL    HW211877   2.752   2.235   2.451
 3771SOL     OW11878   2.879   1.901   2.615
 3771SOL    HW111879   2.807   1.906   2.546
 3771SOL    HW211880   2.855   1.832   2.684
 3772SOL     OW11881   3.291   3.035   2.729
 3772SOL    HW111882   3.236   2.951   2.722
 3772SOL    HW211883   3.317   3.064   2.637
 3773SOL     OW11884   3.328   2.452   2.854
 3773SOL    HW111885   3.298   2.357   2.861
 3773SOL    HW211886   3.401   2.468   2.920
 3774SOL     OW11887   3.719   2.695   2.239
 3774SOL    HW111888   3.761   2.631   2.303
 3774SOL    HW211889   3.681   2.644   2.161
 3775SOL     OW11890   2.350   3.247   2.036
 3775SOL    HW111891   2.263   3.232   2.083
 3775SOL    HW211892   2.333   3.273   1.941
 3776SOL     OW11893   3.526   3.142   2.519
 3776SOL    HW111894   3.625   3.150   2.533
 3776SOL    HW211895   3.481   3.226   2.550
 3777SOL     OW11896   3.252   2.437   1.940
 3777SOL    HW111897   3.198   2.416   2.021
 3777SOL    HW211898   3.343   2.396   1.949
 3778SOL     OW11899   2.389   2.118   2.190
 3778SOL    HW111900   2.416   2.059   2.115
 3778SOL    HW211901   2.389   2.213   2.159
 3779SOL     OW11902   3.616   3.085   3.450
 3779SOL    HW111903   3.707   3.046   3.437
 3779SOL    HW211904   3.624   3.181   3.474
 3780SOL     OW11905   3.454   3.491   3.487
 3780SOL    HW111906   3.481   3.525   3.397
 3780SOL    HW211907   3.533   3.453   3.533
 3781SOL     OW11908   2.973   3.057   2.962
 3781SOL    HW111909   2.933   3.101   3.043
 3781SOL    HW211910   2.932   3.094   2.879
 3782SOL     OW11911   3.500   2.961   2.941
 3782SOL    HW111912   3.505   3.042   3.000
 3782SOL    HW211913   3.414   2.963   2.890
 3783SOL     OW11914   1.926   3.426   3.193
 3783SOL    HW111915   1.880   3.508   3.159
 3783SOL    HW211916   2.024   3.445   3.202
 3784SOL     OW11917   2.229   2.962   2.363
 3784SOL    HW111918   2.222   3.045   2.307
 3784SOL    HW211919   2.233   2.882   2.303
 3785SOL     OW11920   2.428   2.399   2.727
 3785SOL    HW111921   2.440   2.465   2.653
 3785SOL    HW211922   2.474   2.433   2.810
 3786SOL     OW11923   3.114   3.210   2.250
 3786SOL    HW111924   3.164   3.287   2.290
 3786SOL    HW211925   3.019   3.212   2.282
 3787SOL     OW11926   3.134   3.307   3.004
 3787SOL    HW111927   3.181   3.320   3.091
 3787SOL    HW211928   3.068   3.233   3.013
 3788SOL     OW11929   3.444   2.501   2.334
 3788SOL    HW111930   3.413   2.562   2.407
 3788SOL    HW211931   3.494   2.553   2.265
 3789SOL     OW11932   2.366   1.912   3.602
 3789SOL    HW111933   2.324   1.855   3.532
 3789SOL    HW211934   2.300   1.981   3.634
 3790SOL     OW11935   3.222   2.724   2.907
 3790SOL    HW111936   3.147   2.724   2.841
 3790SOL    HW211937   3.259   2.632   2.916
 3791SOL     OW11938   3.071   2.387   2.137
 3791SOL    HW111939   3.084   2.303   2.191
 3791SOL    HW211940   3.042   2.461   2.197
 3792SOL     OW11941   1.899   3.172   3.144
 3792SOL    HW111942   1.952   3.123   3.212
 3792SOL    HW211943   1.921   3.270   3.149
 3793SOL     OW11944   3.590   2.797   3.716
 3793SOL    HW111945   3.544   2.790   3.627
 3793SOL    HW211946   3.528   2.841   3.782
 3794SOL     OW11947   2.169   1.925   2.480
 3794SOL    HW111948   2.158   2.019   2.513
 3794SOL    HW211949   2.164   1.862   2.557
 3795SOL     OW11950   3.484   2.229   2.236
 3795SOL    HW111951   3.486   2.153   2.300
 3795SOL    HW211952   3.436   2.306   2.276
 3796SOL     OW11953   2.842   3.435   3.562
 3796SOL    HW111954   2.822   3.479   3.474
 3796SOL    HW211955   2.881   3.344   3.546
 3797SOL     OW11956   3.721   3.380   3.467
 3797SOL    HW111957   3.735   3.407   3.372
 3797SOL    HW211958   3.804   3.402   3.520
 3798SOL     OW11959   3.402   2.136   1.987
 3798SOL    HW111960   3.341   2.061   2.010
 3798SOL    HW211961   3.424   2.188   2.070
 3799SOL     OW11962   3.165   2.700   1.904
 3799SOL    HW111963   3.199   2.607   1.919
 3799SOL    HW211964   3.183   2.727   1.809
 3800SOL     OW11965   2.930   3.195   2.711
 3800SOL    HW111966   2.937   3.111   2.656
 3800SOL    HW211967   2.992   3.264   2.675
 3801SOL     OW11968   2.181   2.672   2.811
 3801SOL    HW111969   2.274   2.708   2.816
 3801SOL    HW211970   2.175   2.587   2.863
 3802SOL     OW11971   2.201   2.371   2.868
 3802SOL    HW111972   2.149   2.288   2.851
 3802SOL    HW211973   2.278   2.376   2.804
 3803SOL     OW11974   1.870   3.188   2.062
 3803SOL    HW111975   1.777   3.209   2.031
 3803SOL    HW211976   1.880   3.089   2.075
 3804SOL     OW11977   1.950   3.663   2.789
 3804SOL    HW111978   1.908   3.577   2.762
 3804SOL    HW211979   2.044   3.666   2.755
 3805SOL     OW11980   2.366   3.430   2.772
 3805SOL    HW111981   2.432   3.504   2.781
 3805SOL    HW211982   2.410   3.351   2.730
 3806SOL     OW11983   1.902   2.406   2.976
 3806SOL    HW111984   1.987   2.373   2.935
 3806SOL    HW211985   1.915   2.421   3.074
 3807SOL     OW11986   2.677   2.434   2.187
 3807SOL    HW111987   2.684   2.345   2.141
 3807SOL    HW211988   2.583   2.468   2.179
 3808SOL     OW11989   3.519   2.466   3.068
 3808SOL    HW111990   3.481   2.397   3.130
 3808SOL    HW211991   3.601   2.430   3.024
 3809SOL     OW11992   2.114   3.426   3.606
 3809SOL    HW111993   2.084   3.483   3.682
 3809SOL    HW211994   2.107   3.329   3.632
 3810SOL     OW11995   2.792   3.540   3.327
 3810SOL    HW111996   2.768   3.522   3.232
 3810SOL    HW211997   2.822   3.634   3.337
 3811SOL     OW11998   2.335   2.362   2.053
 3811SOL    HW111999   2.396   2.442   2.057
 3811SOL    HW212000   2.240   2.393   2.060
 3812SOL     OW12001   3.164   2.717   2.171
 3812SOL    HW112002   3.078   2.686   2.213
 3812SOL    HW212003   3.160   2.703   2.072
 3813SOL     OW12004   3.621   3.609   3.016
 3813SOL    HW112005   3.682   3.639   2.943
 3813SOL    HW212006   3.583   3.520   2.994
 3814SOL     OW12007   3.114   3.593   2.990
 3814SOL    HW112008   3.198   3.598   2.936
 3814SOL    HW212009   3.091   3.497   3.008
 3815SOL     OW12010   1.945   3.120   2.884
 3815SOL    HW112011   1.940   3.119   2.984
 3815SOL    HW212012   1.862   3.079   2.846
 3816SOL     OW12013   2.550   3.524   3.578
 3816SOL    HW112014   2.494   3.605   3.587
 3816SOL    HW212015   2.602   3.528   3.492
 3817SOL     OW12016   3.588   1.997   2.385
 3817SOL    HW112017   3.661   1.980   2.318
 3817SOL    HW212018   3.557   1.910   2.423
 3818SOL     OW12019   3.250   3.435   2.339
 3818SOL    HW112020   3.317   3.447   2.265
 3818SOL    HW212021   3.210   3.524   2.362
 3819SOL     OW12022   1.992   3.656   3.713
 3819SOL    HW112023   1.951   3.582   3.766
 3819SOL    HW212024   2.056   3.707   3.771
 3820SOL     OW12025   3.142   2.789   2.534
 3820SOL    HW112026   3.202   2.708   2.536
 3820SOL    HW212027   3.182   2.858   2.474
 3821SOL     OW12028   2.534   3.478   2.016
 3821SOL    HW112029   2.543   3.488   1.917
 3821SOL    HW212030   2.494   3.389   2.037
 3822SOL     OW12031   3.512   3.582   3.256
 3822SOL    HW112032   3.565   3.592   3.172
 3822SOL    HW212033   3.485   3.672   3.290
 3823SOL     OW12034   3.703   2.037   2.825
 3823SOL    HW112035   3.742   1.952   2.789
 3823SOL    HW212036   3.605   2.039   2.806
 3824SOL     OW12037   2.125   2.188   2.582
 3824SOL    HW112038   2.046   2.239   2.548
 3824SOL    HW212039   2.116   2.173   2.680
 3825SOL     OW12040   3.056   3.474   1.893
 3825SOL    HW112041   3.062   3.381   1.930
 3825SOL    HW212042   2.997   3.474   1.813
 3826SOL     OW12043   3.366   3.469   1.906
 3826SOL    HW112044   3.274   3.506   1.913
 3826SOL    HW212045   3.404   3.489   1.816
 3827SOL     OW12046   3.476   3.154   3.151
 3827SOL    HW112047   3.536   3.157   3.231
 3827SOL    HW212048   3.401   3.218   3.164
 3828SOL     OW12049   2.901   2.960   2.558
 3828SOL    HW112050   2.831   2.913   2.612
 3828SOL    HW212051   2.960   2.892   2.515
 3829SOL     OW12052   2.876   2.098   2.833
 3829SOL    HW112053   2.868   2.062   2.740
 3829SOL    HW212054   2.874   2.022   2.898
 3830SOL     OW12055   2.452   3.349   2.353
 3830SOL    HW112056   2.494   3.291   2.283
 3830SOL    HW212057   2.408   3.428   2.309
 3831SOL     OW12058   3.571   2.247   3.243
 3831SOL    HW112059   3.644   2.316   3.247
 3831SOL    HW212060   3.599   2.172   3.184
 3832SOL     OW12061   2.117   3.210   2.152
 3832SOL    HW112062   2.021   3.211   2.125
 3832SOL    HW212063   2.129   3.263   2.236
 3833SOL     OW12064   1.937   2.207   1.895
 3833SOL    HW112065   1.845   2.179   1.866
 3833SOL    HW212066   1.968   2.284   1.839
 3834SOL     OW12067   1.934   2.028   2.180
 3834SOL    HW112068   1.917   2.111   2.126
 3834SOL    HW212069   2.024   1.991   2.158
 3835SOL     OW12070   3.045   3.197   1.981
 3835SOL    HW112071   2.946   3.186   1.983
 3835SOL    HW212072   3.079   3.212   2.074
 3836SOL     OW12073   3.355   3.629   2.821
 3836SOL    HW112074   3.388   3.693   2.752
 3836SOL    HW212075   3.421   3.623   2.896
 3837SOL     OW12076   2.252   3.603   3.422
 3837SOL    HW112077   2.161   3.644   3.420
 3837SOL    HW212078   2.245   3.509   3.454
 3838SOL     OW12079   3.536   2.745   3.116
 3838SOL    HW112080   3.509   2.656   3.079
 3838SOL    HW212081   3.537   2.813   3.043
 3839SOL     OW12082   3.087   2.187   2.311
 3839SOL    HW112083   3.152   2.113   2.300
 3839SOL    HW212084   3.107   2.237   2.395
 3840SOL     OW12085   3.639   2.204   3.504
 3840SOL    HW112086   3.622   2.235   3.410
 3840SOL    HW212087   3.555   2.167   3.542
 3841SOL     OW12088   3.592   2.796   3.379
 3841SOL    HW112089   3.630   2.887   3.394
 3841SOL    HW212090   3.584   2.779   3.280
 3842SOL     OW12091   2.721   3.236   1.878
 3842SOL    HW112092   2.675   3.251   1.966
 3842SOL    HW212093   2.765   3.321   1.848
 3843SOL     OW12094   2.523   3.652   2.815
 3843SOL    HW112095   2.477   3.740   2.802
 3843SOL    HW212096   2.622   3.664   2.808
 3844SOL     OW12097   2.945   2.846   1.949
 3844SOL    HW112098   2.922   2.899   1.867
 3844SOL    HW212099   3.026   2.790   1.930
 3845SOL     OW12100   3.723   3.431   2.713
 3845SOL    HW112101   3.652   3.419   2.643
 3845SOL    HW212102   3.724   3.352   2.773
 3846SOL     OW12103   2.083   3.176   3.706
 3846SOL    HW112104   2.018   3.103   3.685
 3846SOL    HW212105   2.087   3.190   3.804
 3847SOL     OW12106   1.941   3.102   2.515
 3847SOL    HW112107   1.940   3.055   2.603
 3847SOL    HW212108   2.023   3.074   2.464
 3848SOL     OW12109   3.686   2.054   3.089
 3848SOL    HW112110   3.682   1.964   3.133
 3848SOL    HW212111   3.689   2.043   2.990
 3849SOL     OW12112   2.290   2.286   2.382
 3849SOL    HW112113   2.320   2.214   2.320
 3849SOL    HW212114   2.251   2.246   2.465
 3850SOL     OW12115   3.567   3.349   2.966
 3850SOL    HW112116   3.474   3.324   2.939
 3850SOL    HW212117   3.593   3.299   3.048
 3851SOL     OW12118   2.674   3.448   2.549
 3851SOL    HW112119   2.706   3.458   2.455
 3851SOL    HW212120   2.595   3.386   2.551
 3852SOL     OW12121   3.286   2.076   2.974
 3852SOL    HW112122   3.338   2.011   3.029
 3852SOL    HW212123   3.237   2.139   3.035
 3853SOL     OW12124   2.863   1.896   3.016
 3853SOL    HW112125   2.800   1.824   2.985
 3853SOL    HW212126   2.956   1.860   3.016
 3854SOL     OW12127   2.632   3.192   2.163
 3854SOL    HW112128   2.586   3.105   2.180
 3854SOL    HW212129   2.723   3.189   2.204
 3855SOL     OW12130   2.480   3.429   3.146
 3855SOL    HW112131   2.475   3.511   3.203
 3855SOL    HW212132   2.569   3.426   3.101
 3856SOL     OW12133   3.214   1.914   2.030
 3856SOL    HW112134   3.249   1.873   1.946
 3856SOL    HW212135   3.124   1.876   2.050
 3857SOL     OW12136   3.162   2.315   2.553
 3857SOL    HW112137   3.103   2.395   2.557
 3857SOL    HW212138   3.177   2.280   2.646
 3858SOL     OW12139   3.455   2.083   2.744
 3858SOL    HW112140   3.371   2.082   2.798
 3858SOL    HW212141   3.457   2.166   2.688
 3859SOL     OW12142   1.901   2.939   2.162
 3859SOL    HW112143   2.000   2.928   2.153
 3859SOL    HW212144   1.861   2.853   2.194
 3860SOL     OW12145   2.737   3.508   2.199
 3860SOL    HW112146   2.660   3.473   2.145
 3860SOL    HW212147   2.705   3.579   2.261
 3861SOL     OW12148   2.087   2.137   4.720
 3861SOL    HW112149   2.122   2.120   4.812
 3861SOL    HW212150   1.999   2.092   4.708
 3862SOL     OW12151   1.881   2.230   4.371
 3862SOL    HW112152   1.799   2.273   4.410
 3862SOL    HW212153   1.853   2.157   4.308
 3863SOL     OW12154   3.417   3.373   4.427
 3863SOL    HW112155   3.360   3.357   4.508
 3863SOL    HW212156   3.358   3.383   4.347
 3864SOL     OW12157   3.617   2.469   3.955
 3864SOL    HW112158   3.605   2.456   3.856
 3864SOL    HW212159   3.587   2.388   4.004
 3865SOL     OW12160   2.548   3.023   5.527
 3865SOL    HW112161   2.608   3.102   5.541
 3865SOL    HW212162   2.462   3.054   5.486
 3866SOL     OW12163   3.322   3.367   5.063
 3866SOL    HW112164   3.346   3.461   5.089
 3866SOL    HW212165   3.306   3.313   5.145
 3867SOL     OW12166   2.300   2.254   5.223
 3867SOL    HW112167   2.382   2.198   5.232
 3867SOL    HW212168   2.219   2.196   5.227
 3868SOL     OW12169   3.465   2.309   4.461
 3868SOL    HW112170   3.391   2.355   4.411
 3868SOL    HW212171   3.516   2.377   4.514
 3869SOL     OW12172   2.093   3.575   4.207
 3869SOL    HW112173   2.127   3.652   4.261
 3869SOL    HW212174   2.137   3.575   4.117
 3870SOL     OW12175   2.989   3.203   5.414
 3870SOL    HW112176   3.036   3.203   5.502
 3870SOL    HW212177   2.941   3.116   5.403
 3871SOL     OW12178   2.092   3.296   4.262
 3871SOL    HW112179   2.066   3.392   4.262
 3871SOL    HW212180   2.021   3.242   4.307
 3872SOL     OW12181   2.482   3.648   5.163
 3872SOL    HW112182   2.390   3.631   5.198
 3872SOL    HW212183   2.510   3.740   5.189
 3873SOL     OW12184   3.456   1.976   5.204
 3873SOL    HW112185   3.438   2.043   5.132
 3873SOL    HW212186   3.453   2.022   5.293
 3874SOL     OW12187   1.984   2.505   4.287
 3874SOL    HW112188   1.939   2.417   4.304
 3874SOL    HW212189   1.983   2.559   4.371
 3875SOL     OW12190   3.704   3.629   4.083
 3875SOL    HW112191   3.758   3.600   4.163
 3875SOL    HW212192   3.734   3.719   4.054
 3876SOL     OW12193   1.889   3.458   3.841
 3876SOL    HW112194   1.870   3.362   3.862
 3876SOL    HW212195   1.856   3.516   3.916
 3877SOL     OW12196   3.551   2.784   4.336
 3877SOL    HW112197   3.646   2.755   4.344
 3877SOL    HW212198   3.543   2.849   4.261
 3878SOL     OW12199   3.503   2.970   4.156
 3878SOL    HW112200   3.589   2.972   4.104
 3878SOL    HW212201   3.517   3.017   4.244
 3879SOL     OW12202   1.975   2.599   5.321
 3879SOL    HW112203   2.063   2.586   5.366
 3879SOL    HW212204   1.962   2.696   5.299
 3880SOL     OW12205   3.155   3.090   5.147
 3880SOL    HW112206   3.192   3.017   5.089
 3880SOL    HW212207   3.207   3.095   5.232
 3881SOL     OW12208   2.671   1.866   4.226
 3881SOL    HW112209   2.711   1.957   4.217
 3881SOL    HW212210   2.571   1.874   4.232
 3882SOL     OW12211   3.049   3.654   5.340
 3882SOL    HW112212   3.073   3.714   5.264
 3882SOL    HW212213   3.056   3.559   5.310
 3883SOL     OW12214   2.179   2.113   5.525
 3883SOL    HW112215   2.250   2.184   5.531
 3883SOL    HW212216   2.091   2.152   5.553
 3884SOL     OW12217   3.328   3.279   4.677
 3884SOL    HW112218   3.269   3.285   4.757
 3884SOL    HW212219   3.313   3.191   4.631
 3885SOL     OW12220   3.529   3.576   4.296
 3885SOL    HW112221   3.488   3.553   4.208
 3885SOL    HW212222   3.511   3.502   4.361
 3886SOL     OW12223   3.438   3.524   4.031
 3886SOL    HW112224   3.527   3.570   4.034
 3886SOL    HW212225   3.417   3.500   3.936
 3887SOL     OW12226   3.256   2.331   5.398
 3887SOL    HW112227   3.236   2.374   5.486
 3887SOL    HW212228   3.334   2.269   5.407
 3888SOL     OW12229   1.992   3.683   5.295
 3888SOL    HW112230   1.982   3.668   5.394
 3888SOL    HW212231   1.906   3.719   5.259
 3889SOL     OW12232   3.581   2.447   5.555
 3889SOL    HW112233   3.555   2.536   5.519
 3889SOL    HW212234   3.579   2.379   5.482
 3890SOL     OW12235   2.870   3.318   4.201
 3890SOL    HW112236   2.824   3.390   4.149
 3890SOL    HW212237   2.866   3.338   4.299
 3891SOL     OW12238   2.213   3.663   4.577
 3891SOL    HW112239   2.263   3.577   4.583
 3891SOL    HW212240   2.278   3.740   4.574
 3892SOL     OW12241   3.657   2.928   4.597
 3892SOL    HW112242   3.595   2.913   4.521
 3892SOL    HW212243   3.605   2.939   4.682
 3893SOL     OW12244   3.089   3.412   5.230
 3893SOL    HW112245   3.095   3.335   5.294
 3893SOL    HW212246   3.037   3.386   5.150
 3894SOL     OW12247   2.323   3.128   5.451
 3894SOL    HW112248   2.273   3.129   5.365
 3894SOL    HW212249   2.260   3.110   5.527
 3895SOL     OW12250   2.973   3.638   3.961
 3895SOL    HW112251   2.913   3.576   4.011
 3895SOL    HW212252   3.004   3.594   3.876
 3896SOL     OW12253   2.064   2.147   5.222
 3896SOL    HW112254   1.984   2.207   5.209
 3896SOL    HW212255   2.054   2.098   5.308
 3897SOL     OW12256   3.494   3.239   3.805
 3897SOL    HW112257   3.462   3.333   3.795
 3897SOL    HW212258   3.418   3.176   3.793
 3898SOL     OW12259   2.326   3.605   4.047
 3898SOL    HW112260   2.359   3.644   4.133
 3898SOL    HW212261   2.402   3.598   3.982
 3899SOL     OW12262   3.262   1.969   4.150
 3899SOL    HW112263   3.238   1.932   4.060
 3899SOL    HW212264   3.361   1.985   4.154
 3900SOL     OW12265   2.111   3.647   4.965
 3900SOL    HW112266   2.168   3.582   5.015
 3900SOL    HW212267   2.095   3.614   4.872
 3901SOL     OW12268   3.409   2.084   5.453
 3901SOL    HW112269   3.404   2.121   5.545
 3901SOL    HW212270   3.337   2.015   5.441
 3902SOL     OW12271   2.476   1.984   3.841
 3902SOL    HW112272   2.574   1.962   3.848
 3902SOL    HW212273   2.445   1.967   3.748
 3903SOL     OW12274   2.643   2.126   5.473
 3903SOL    HW112275   2.710   2.065   5.516
 3903SOL    HW212276   2.570   2.145   5.538
 3904SOL     OW12277   2.750   3.376   4.919
 3904SOL    HW112278   2.727   3.351   4.825
 3904SOL    HW212279   2.811   3.307   4.958
 3905SOL     OW12280   3.213   2.452   5.157
 3905SOL    HW112281   3.241   2.409   5.242
 3905SOL    HW212282   3.238   2.548   5.158
 3906SOL     OW12283   2.401   1.926   4.236
 3906SOL    HW112284   2.320   1.927   4.294
 3906SOL    HW212285   2.404   2.009   4.181
 3907SOL     OW12286   3.296   3.050   3.765
 3907SOL    HW112287   3.328   2.974   3.822
 3907SOL    HW212288   3.204   3.077   3.795
 3908SOL     OW12289   2.159   1.897   3.895
 3908SOL    HW112290   2.208   1.981   3.874
 3908SOL    HW212291   2.221   1.832   3.940
 3909SOL     OW12292   2.938   2.545   5.188
 3909SOL    HW112293   2.858   2.484   5.191
 3909SOL    HW212294   3.019   2.492   5.164
 3910SOL     OW12295   3.089   3.432   4.517
 3910SOL    HW112296   3.110   3.506   4.452
 3910SOL    HW212297   3.157   3.432   4.590
 3911SOL     OW12298   3.133   3.659   4.315
 3911SOL    HW112299   3.177   3.723   4.251
 3911SOL    HW212300   3.083   3.711   4.385
 3912SOL     OW12301   1.940   2.418   5.110
 3912SOL    HW112302   2.032   2.417   5.069
 3912SOL    HW212303   1.934   2.492   5.177
 3913SOL     OW12304   2.879   1.901   4.477
 3913SOL    HW112305   2.807   1.906   4.408
 3913SOL    HW212306   2.855   1.832   4.546
 3914SOL     OW12307   3.719   2.695   4.101
 3914SOL    HW112308   3.761   2.631   4.165
 3914SOL    HW212309   3.681   2.644   4.023
 3915SOL     OW12310   2.350   3.247   3.898
 3915SOL    HW112311   2.263   3.232   3.945
 3915SOL    HW212312   2.333   3.273   3.803
 3916SOL     OW12313   3.526   3.142   4.381
 3916SOL    HW112314   3.625   3.150   4.395
 3916SOL    HW212315   3.481   3.226   4.412
 3917SOL     OW12316   3.252   2.437   3.802
 3917SOL    HW112317   3.198   2.416   3.883
 3917SOL    HW212318   3.343   2.396   3.811
 3918SOL     OW12319   3.616   3.085   5.312
 3918SOL    HW112320   3.707   3.046   5.299
 3918SOL    HW212321   3.624   3.181   5.336
 3919SOL     OW12322   2.926   3.209   5.064
 3919SOL    HW112323   2.846   3.186   5.119
 3919SOL    HW212324   3.009   3.183   5.113
 3920SOL     OW12325   3.454   3.491   5.349
 3920SOL    HW112326   3.481   3.525   5.259
 3920SOL    HW212327   3.533   3.453   5.395
 3921SOL     OW12328   3.500   2.961   4.803
 3921SOL    HW112329   3.505   3.042   4.862
 3921SOL    HW212330   3.414   2.963   4.752
 3922SOL     OW12331   2.777   1.951   5.126
 3922SOL    HW112332   2.802   1.931   5.031
 3922SOL    HW212333   2.849   2.007   5.168
 3923SOL     OW12334   2.842   2.978   5.443
 3923SOL    HW112335   2.743   2.984   5.453
 3923SOL    HW212336   2.865   2.898   5.387
 3924SOL     OW12337   3.136   2.248   4.986
 3924SOL    HW112338   3.157   2.322   5.050
 3924SOL    HW212339   3.047   2.265   4.943
 3925SOL     OW12340   1.926   3.426   5.055
 3925SOL    HW112341   1.880   3.508   5.021
 3925SOL    HW212342   2.024   3.445   5.064
 3926SOL     OW12343   3.114   3.210   4.112
 3926SOL    HW112344   3.164   3.287   4.152
 3926SOL    HW212345   3.019   3.212   4.144
 3927SOL     OW12346   3.444   2.501   4.196
 3927SOL    HW112347   3.413   2.562   4.269
 3927SOL    HW212348   3.494   2.553   4.127
 3928SOL     OW12349   2.264   2.613   5.322
 3928SOL    HW112350   2.332   2.668   5.275
 3928SOL    HW212351   2.304   2.525   5.349
 3929SOL     OW12352   3.449   2.641   5.394
 3929SOL    HW112353   3.357   2.679   5.389
 3929SOL    HW212354   3.509   2.688   5.329
 3930SOL     OW12355   2.875   1.967   5.494
 3930SOL    HW112356   2.881   2.052   5.442
 3930SOL    HW212357   2.907   1.891   5.437
 3931SOL     OW12358   2.366   1.912   5.464
 3931SOL    HW112359   2.324   1.855   5.394
 3931SOL    HW212360   2.300   1.981   5.496
 3932SOL     OW12361   1.899   3.172   5.006
 3932SOL    HW112362   1.952   3.123   5.074
 3932SOL    HW212363   1.921   3.270   5.011
 3933SOL     OW12364   3.590   2.797   5.578
 3933SOL    HW112365   3.544   2.790   5.489
 3933SOL    HW212366   3.528   2.841   5.644
 3934SOL     OW12367   2.169   1.925   4.342
 3934SOL    HW112368   2.158   2.019   4.375
 3934SOL    HW212369   2.164   1.862   4.419
 3935SOL     OW12370   3.484   2.229   4.098
 3935SOL    HW112371   3.486   2.153   4.162
 3935SOL    HW212372   3.436   2.306   4.138
 3936SOL     OW12373   2.842   3.435   5.424
 3936SOL    HW112374   2.822   3.479   5.336
 3936SOL    HW212375   2.881   3.344   5.408
 3937SOL     OW12376   3.721   3.380   5.329
 3937SOL    HW112377   3.735   3.407   5.234
 3937SOL    HW212378   3.804   3.402   5.382
 3938SOL     OW12379   2.212   2.760   5.528
 3938SOL    HW112380   2.288   2.804   5.576
 3938SOL    HW212381   2.247   2.713   5.446
 3939SOL     OW12382   3.402   2.136   3.849
 3939SOL    HW112383   3.341   2.061   3.872
 3939SOL    HW212384   3.424   2.188   3.932
 3940SOL     OW12385   3.000   2.242   5.402
 3940SOL    HW112386   2.955   2.305   5.466
 3940SOL    HW212387   3.093   2.273   5.385
 3941SOL     OW12388   3.022   2.069   5.201
 3941SOL    HW112389   3.022   2.133   5.278
 3941SOL    HW212390   3.050   2.117   5.118
 3942SOL     OW12391   1.870   3.188   3.924
 3942SOL    HW112392   1.777   3.209   3.893
 3942SOL    HW212393   1.880   3.089   3.937
 3943SOL     OW12394   1.950   3.663   4.651
 3943SOL    HW112395   1.908   3.577   4.624
 3943SOL    HW212396   2.044   3.666   4.617
 3944SOL     OW12397   2.366   3.430   4.634
 3944SOL    HW112398   2.432   3.504   4.643
 3944SOL    HW212399   2.410   3.351   4.592
 3945SOL     OW12400   2.051   2.382   5.446
 3945SOL    HW112401   2.110   2.342   5.376
 3945SOL    HW212402   1.993   2.453   5.405
 3946SOL     OW12403   3.231   2.812   5.384
 3946SOL    HW112404   3.270   2.901   5.404
 3946SOL    HW212405   3.241   2.792   5.287
 3947SOL     OW12406   3.519   2.466   4.930
 3947SOL    HW112407   3.481   2.397   4.992
 3947SOL    HW212408   3.601   2.430   4.886
 3948SOL     OW12409   2.114   3.426   5.468
 3948SOL    HW112410   2.084   3.483   5.544
 3948SOL    HW212411   2.107   3.329   5.494
 3949SOL     OW12412   2.533   2.326   4.993
 3949SOL    HW112413   2.499   2.237   4.963
 3949SOL    HW212414   2.559   2.380   4.913
 3950SOL     OW12415   2.792   3.540   5.189
 3950SOL    HW112416   2.768   3.522   5.094
 3950SOL    HW212417   2.822   3.634   5.199
 3951SOL     OW12418   2.021   2.999   5.190
 3951SOL    HW112419   2.043   2.938   5.266
 3951SOL    HW212420   2.031   2.950   5.104
 3952SOL     OW12421   3.621   3.609   4.878
 3952SOL    HW112422   3.682   3.639   4.805
 3952SOL    HW212423   3.583   3.520   4.856
 3953SOL     OW12424   3.114   3.593   4.852
 3953SOL    HW112425   3.198   3.598   4.798
 3953SOL    HW212426   3.091   3.497   4.870
 3954SOL     OW12427   1.945   3.120   4.746
 3954SOL    HW112428   1.940   3.119   4.846
 3954SOL    HW212429   1.862   3.079   4.708
 3955SOL     OW12430   2.550   3.524   5.440
 3955SOL    HW112431   2.494   3.605   5.449
 3955SOL    HW212432   2.602   3.528   5.354
 3956SOL     OW12433   3.588   1.997   4.247
 3956SOL    HW112434   3.661   1.980   4.180
 3956SOL    HW212435   3.557   1.910   4.285
 3957SOL     OW12436   3.250   3.435   4.201
 3957SOL    HW112437   3.317   3.447   4.127
 3957SOL    HW212438   3.210   3.524   4.224
 3958SOL     OW12439   1.992   3.656   5.575
 3958SOL    HW112440   1.951   3.582   5.628
 3958SOL    HW212441   2.056   3.707   5.633
 3959SOL     OW12442   2.692   3.135   5.146
 3959SOL    HW112443   2.687   3.168   5.241
 3959SOL    HW212444   2.606   3.154   5.100
 3960SOL     OW12445   2.534   3.478   3.878
 3960SOL    HW112446   2.543   3.488   3.779
 3960SOL    HW212447   2.494   3.389   3.899
 3961SOL     OW12448   3.512   3.582   5.118
 3961SOL    HW112449   3.565   3.592   5.034
 3961SOL    HW212450   3.485   3.672   5.152
 3962SOL     OW12451   3.703   2.037   4.687
 3962SOL    HW112452   3.742   1.952   4.651
 3962SOL    HW212453   3.605   2.039   4.668
 3963SOL     OW12454   3.056   3.474   3.755
 3963SOL    HW112455   3.062   3.381   3.792
 3963SOL    HW212456   2.997   3.474   3.675
 3964SOL     OW12457   3.366   3.469   3.768
 3964SOL    HW112458   3.274   3.506   3.775
 3964SOL    HW212459   3.404   3.489   3.678
 3965SOL     OW12460   2.234   3.150   5.214
 3965SOL    HW112461   2.221   3.243   5.180
 3965SOL    HW212462   2.150   3.098   5.201
 3966SOL     OW12463   3.476   3.154   5.013
 3966SOL    HW112464   3.536   3.157   5.093
 3966SOL    HW212465   3.401   3.218   5.026
 3967SOL     OW12466   2.452   3.349   4.215
 3967SOL    HW112467   2.494   3.291   4.145
 3967SOL    HW212468   2.408   3.428   4.171
 3968SOL     OW12469   3.571   2.247   5.105
 3968SOL    HW112470   3.644   2.316   5.109
 3968SOL    HW212471   3.599   2.172   5.046
 3969SOL     OW12472   2.117   3.210   4.014
 3969SOL    HW112473   2.021   3.211   3.987
 3969SOL    HW212474   2.129   3.263   4.098
 3970SOL     OW12475   1.967   2.875   5.450
 3970SOL    HW112476   1.890   2.842   5.504
 3970SOL    HW212477   2.052   2.845   5.492
 3971SOL     OW12478   2.534   2.065   5.213
 3971SOL    HW112479   2.624   2.049   5.173
 3971SOL    HW212480   2.542   2.070   5.312
 3972SOL     OW12481   1.937   2.207   3.757
 3972SOL    HW112482   1.845   2.179   3.728
 3972SOL    HW212483   1.968   2.284   3.701
 3973SOL     OW12484   3.302   2.718   5.122
 3973SOL    HW112485   3.245   2.770   5.059
 3973SOL    HW212486   3.398   2.730   5.098
 3974SOL     OW12487   1.934   2.028   4.042
 3974SOL    HW112488   1.917   2.111   3.988
 3974SOL    HW212489   2.024   1.991   4.020
 3975SOL     OW12490   3.045   3.197   3.843
 3975SOL    HW112491   2.946   3.186   3.845
 3975SOL    HW212492   3.079   3.212   3.936
 3976SOL     OW12493   3.355   3.629   4.683
 3976SOL    HW112494   3.388   3.693   4.614
 3976SOL    HW212495   3.421   3.623   4.758
 3977SOL     OW12496   3.312   3.082   5.357
 3977SOL    HW112497   3.303   3.072   5.456
 3977SOL    HW212498   3.408   3.075   5.331
 3978SOL     OW12499   2.252   3.603   5.284
 3978SOL    HW112500   2.161   3.644   5.282
 3978SOL    HW212501   2.245   3.509   5.316
 3979SOL     OW12502   3.536   2.745   4.978
 3979SOL    HW112503   3.509   2.656   4.941
 3979SOL    HW212504   3.537   2.813   4.905
 3980SOL     OW12505   3.087   2.187   4.173
 3980SOL    HW112506   3.152   2.113   4.162
 3980SOL    HW212507   3.107   2.237   4.257
 3981SOL     OW12508   3.639   2.204   5.366
 3981SOL    HW112509   3.622   2.235   5.272
 3981SOL    HW212510   3.555   2.167   5.404
 3982SOL     OW12511   3.592   2.796   5.241
 3982SOL    HW112512   3.630   2.887   5.256
 3982SOL    HW212513   3.584   2.779   5.142
 3983SOL     OW12514   2.523   3.652   4.677
 3983SOL    HW112515   2.477   3.740   4.664
 3983SOL    HW212516   2.622   3.664   4.670
 3984SOL     OW12517   3.723   3.431   4.575
 3984SOL    HW112518   3.652   3.419   4.505
 3984SOL    HW212519   3.724   3.352   4.635
 3985SOL     OW12520   2.083   3.176   5.568
 3985SOL    HW112521   2.018   3.103   5.547
 3985SOL    HW212522   2.087   3.190   5.666
 3986SOL     OW12523   1.941   3.102   4.377
 3986SOL    HW112524   1.940   3.055   4.465
 3986SOL    HW212525   2.023   3.074   4.326
 3987SOL     OW12526   2.534   3.253   5.348
 3987SOL    HW112527   2.456   3.203   5.386
 3987SOL    HW212528   2.531   3.348   5.379
 3988SOL     OW12529   3.686   2.054   4.951
 3988SOL    HW112530   3.682   1.964   4.995
 3988SOL    HW212531   3.689   2.043   4.852
 3989SOL     OW12532   3.567   3.349   4.828
 3989SOL    HW112533   3.474   3.324   4.801
 3989SOL    HW212534   3.593   3.299   4.910
 3990SOL     OW12535   2.674   3.448   4.411
 3990SOL    HW112536   2.706   3.458   4.317
 3990SOL    HW212537   2.595   3.386   4.413
 3991SOL     OW12538   2.863   1.896   4.878
 3991SOL    HW112539   2.800   1.824   4.847
 3991SOL    HW212540   2.956   1.860   4.878
 3992SOL     OW12541   2.480   3.429   5.008
 3992SOL    HW112542   2.475   3.511   5.065
 3992SOL    HW212543   2.569   3.426   4.963
 3993SOL     OW12544   3.214   1.914   3.892
 3993SOL    HW112545   3.249   1.873   3.808
 3993SOL    HW212546   3.124   1.876   3.912
 3994SOL     OW12547   3.455   2.083   4.606
 3994SOL    HW112548   3.371   2.082   4.660
 3994SOL    HW212549   3.457   2.166   4.550
 3995SOL     OW12550   1.901   2.939   4.024
 3995SOL    HW112551   2.000   2.928   4.015
 3995SOL    HW212552   1.861   2.853   4.056
 3996SOL     OW12553   2.737   3.508   4.061
 3996SOL    HW112554   2.660   3.473   4.007
 3996SOL    HW212555   2.705   3.579   4.123
 3997SOL     OW12556   2.092   2.490   5.699
 3997SOL    HW112557   1.999   2.488   5.736
 3997SOL    HW212558   2.093   2.451   5.607
 3998SOL     OW12559   2.087   2.137   6.582
 3998SOL    HW112560   2.122   2.120   6.674
 3998SOL    HW212561   1.999   2.092   6.570
 3999SOL     OW12562   1.881   2.230   6.233
 3999SOL    HW112563   1.799   2.273   6.272
 3999SOL    HW212564   1.853   2.157   6.170
 4000SOL     OW12565   2.431   3.137   6.751
 4000SOL    HW112566   2.338   3.130   6.714
 4000SOL    HW212567   2.442   3.226   6.795
 4001SOL     OW12568   3.417   3.373   6.289
 4001SOL    HW112569   3.360   3.357   6.370
 4001SOL    HW212570   3.358   3.383   6.209
 4002SOL     OW12571   2.997   2.565   6.303
 4002SOL    HW112572   3.054   2.643   6.278
 4002SOL    HW212573   2.937   2.591   6.379
 4003SOL     OW12574   3.617   2.469   5.817
 4003SOL    HW112575   3.605   2.456   5.718
 4003SOL    HW212576   3.587   2.388   5.866
 4004SOL     OW12577   2.630   3.006   6.609
 4004SOL    HW112578   2.552   3.023   6.669
 4004SOL    HW212579   2.664   3.093   6.573
 4005SOL     OW12580   2.548   3.023   7.389
 4005SOL    HW112581   2.608   3.102   7.403
 4005SOL    HW212582   2.462   3.054   7.348
 4006SOL     OW12583   2.197   3.297   6.647
 4006SOL    HW112584   2.119   3.266   6.594
 4006SOL    HW212585   2.255   3.355   6.590
 4007SOL     OW12586   3.322   3.367   6.925
 4007SOL    HW112587   3.346   3.461   6.951
 4007SOL    HW212588   3.306   3.313   7.007
 4008SOL     OW12589   2.300   2.254   7.085
 4008SOL    HW112590   2.382   2.198   7.094
 4008SOL    HW212591   2.219   2.196   7.089
 4009SOL     OW12592   3.465   2.309   6.323
 4009SOL    HW112593   3.391   2.355   6.273
 4009SOL    HW212594   3.516   2.377   6.376
 4010SOL     OW12595   2.093   3.575   6.069
 4010SOL    HW112596   2.127   3.652   6.123
 4010SOL    HW212597   2.137   3.575   5.979
 4011SOL     OW12598   2.989   3.203   7.276
 4011SOL    HW112599   3.036   3.203   7.364
 4011SOL    HW212600   2.941   3.116   7.265
 4012SOL     OW12601   2.092   3.296   6.124
 4012SOL    HW112602   2.066   3.392   6.124
 4012SOL    HW212603   2.021   3.242   6.169
 4013SOL     OW12604   2.102   2.953   6.472
 4013SOL    HW112605   2.116   2.869   6.524
 4013SOL    HW212606   2.047   3.017   6.527
 4014SOL     OW12607   2.482   3.648   7.025
 4014SOL    HW112608   2.390   3.631   7.060
 4014SOL    HW212609   2.510   3.740   7.051
 4015SOL     OW12610   2.468   2.826   5.709
 4015SOL    HW112611   2.475   2.910   5.655
 4015SOL    HW212612   2.514   2.839   5.797
 4016SOL     OW12613   3.456   1.976   7.066
 4016SOL    HW112614   3.438   2.043   6.994
 4016SOL    HW212615   3.453   2.022   7.155
 4017SOL     OW12616   1.984   2.505   6.149
 4017SOL    HW112617   1.939   2.417   6.166
 4017SOL    HW212618   1.983   2.559   6.233
 4018SOL     OW12619   3.704   3.629   5.945
 4018SOL    HW112620   3.758   3.600   6.025
 4018SOL    HW212621   3.734   3.719   5.916
 4019SOL     OW12622   1.889   3.458   5.703
 4019SOL    HW112623   1.870   3.362   5.724
 4019SOL    HW212624   1.856   3.516   5.778
 4020SOL     OW12625   3.551   2.784   6.198
 4020SOL    HW112626   3.646   2.755   6.206
 4020SOL    HW212627   3.543   2.849   6.123
 4021SOL     OW12628   3.503   2.970   6.018
 4021SOL    HW112629   3.589   2.972   5.966
 4021SOL    HW212630   3.517   3.017   6.106
 4022SOL     OW12631   1.975   2.599   7.183
 4022SOL    HW112632   2.063   2.586   7.228
 4022SOL    HW212633   1.962   2.696   7.161
 4023SOL     OW12634   2.475   3.227   6.312
 4023SOL    HW112635   2.426   3.140   6.321
 4023SOL    HW212636   2.452   3.270   6.225
 4024SOL     OW12637   3.155   3.090   7.009
 4024SOL    HW112638   3.192   3.017   6.951
 4024SOL    HW212639   3.207   3.095   7.094
 4025SOL     OW12640   2.671   1.866   6.088
 4025SOL    HW112641   2.711   1.957   6.079
 4025SOL    HW212642   2.571   1.874   6.094
 4026SOL     OW12643   2.059   2.838   6.850
 4026SOL    HW112644   2.148   2.793   6.836
 4026SOL    HW212645   1.986   2.773   6.831
 4027SOL     OW12646   3.387   2.861   5.776
 4027SOL    HW112647   3.324   2.785   5.789
 4027SOL    HW212648   3.435   2.879   5.862
 4028SOL     OW12649   3.049   3.654   7.202
 4028SOL    HW112650   3.073   3.714   7.126
 4028SOL    HW212651   3.056   3.559   7.172
 4029SOL     OW12652   2.179   2.113   7.387
 4029SOL    HW112653   2.250   2.184   7.393
 4029SOL    HW212654   2.091   2.152   7.415
 4030SOL     OW12655   3.328   3.279   6.539
 4030SOL    HW112656   3.269   3.285   6.619
 4030SOL    HW212657   3.313   3.191   6.493
 4031SOL     OW12658   3.529   3.576   6.158
 4031SOL    HW112659   3.488   3.553   6.070
 4031SOL    HW212660   3.511   3.502   6.223
 4032SOL     OW12661   3.143   2.207   6.530
 4032SOL    HW112662   3.057   2.157   6.517
 4032SOL    HW212663   3.205   2.153   6.586
 4033SOL     OW12664   3.438   3.524   5.893
 4033SOL    HW112665   3.527   3.570   5.896
 4033SOL    HW212666   3.417   3.500   5.798
 4034SOL     OW12667   3.256   2.331   7.260
 4034SOL    HW112668   3.236   2.374   7.348
 4034SOL    HW212669   3.334   2.269   7.269
 4035SOL     OW12670   2.853   2.272   6.828
 4035SOL    HW112671   2.776   2.306   6.882
 4035SOL    HW212672   2.819   2.221   6.749
 4036SOL     OW12673   1.938   2.673   6.375
 4036SOL    HW112674   2.037   2.661   6.384
 4036SOL    HW212675   1.914   2.768   6.396
 4037SOL     OW12676   1.992   3.683   7.157
 4037SOL    HW112677   1.982   3.668   7.256
 4037SOL    HW212678   1.906   3.719   7.121
 4038SOL     OW12679   2.727   2.210   5.781
 4038SOL    HW112680   2.786   2.273   5.732
 4038SOL    HW212681   2.746   2.116   5.752
 4039SOL     OW12682   3.581   2.447   7.417
 4039SOL    HW112683   3.555   2.536   7.381
 4039SOL    HW212684   3.579   2.379   7.344
 4040SOL     OW12685   3.224   3.006   6.131
 4040SOL    HW112686   3.307   2.977   6.083
 4040SOL    HW212687   3.175   3.073   6.075
 4041SOL     OW12688   2.412   2.058   6.471
 4041SOL    HW112689   2.407   2.053   6.571
 4041SOL    HW212690   2.414   2.154   6.442
 4042SOL     OW12691   2.870   3.318   6.063
 4042SOL    HW112692   2.824   3.390   6.011
 4042SOL    HW212693   2.866   3.338   6.161
 4043SOL     OW12694   2.213   3.663   6.439
 4043SOL    HW112695   2.263   3.577   6.445
 4043SOL    HW212696   2.278   3.740   6.436
 4044SOL     OW12697   3.657   2.928   6.459
 4044SOL    HW112698   3.595   2.913   6.383
 4044SOL    HW212699   3.605   2.939   6.544
 4045SOL     OW12700   3.089   3.412   7.092
 4045SOL    HW112701   3.095   3.335   7.156
 4045SOL    HW212702   3.037   3.386   7.012
 4046SOL     OW12703   2.183   2.805   5.828
 4046SOL    HW112704   2.265   2.844   5.786
 4046SOL    HW212705   2.156   2.723   5.779
 4047SOL     OW12706   3.320   2.597   6.314
 4047SOL    HW112707   3.315   2.532   6.389
 4047SOL    HW212708   3.400   2.656   6.327
 4048SOL     OW12709   2.323   3.128   7.313
 4048SOL    HW112710   2.273   3.129   7.227
 4048SOL    HW212711   2.260   3.110   7.389
 4049SOL     OW12712   2.973   3.638   5.823
 4049SOL    HW112713   2.913   3.576   5.873
 4049SOL    HW212714   3.004   3.594   5.738
 4050SOL     OW12715   2.064   2.147   7.084
 4050SOL    HW112716   1.984   2.207   7.071
 4050SOL    HW212717   2.054   2.098   7.170
 4051SOL     OW12718   3.494   3.239   5.667
 4051SOL    HW112719   3.462   3.333   5.657
 4051SOL    HW212720   3.418   3.176   5.655
 4052SOL     OW12721   2.326   3.605   5.909
 4052SOL    HW112722   2.359   3.644   5.995
 4052SOL    HW212723   2.402   3.598   5.844
 4053SOL     OW12724   3.262   1.969   6.012
 4053SOL    HW112725   3.238   1.932   5.922
 4053SOL    HW212726   3.361   1.985   6.016
 4054SOL     OW12727   2.111   3.647   6.827
 4054SOL    HW112728   2.168   3.582   6.877
 4054SOL    HW212729   2.095   3.614   6.734
 4055SOL     OW12730   2.802   3.560   6.490
 4055SOL    HW112731   2.882   3.503   6.511
 4055SOL    HW212732   2.753   3.520   6.413
 4056SOL     OW12733   2.244   2.562   6.066
 4056SOL    HW112734   2.289   2.472   6.063
 4056SOL    HW212735   2.150   2.551   6.099
 4057SOL     OW12736   3.409   2.084   7.315
 4057SOL    HW112737   3.404   2.121   7.407
 4057SOL    HW212738   3.337   2.015   7.303
 4058SOL     OW12739   2.476   1.984   5.703
 4058SOL    HW112740   2.574   1.962   5.710
 4058SOL    HW212741   2.445   1.967   5.610
 4059SOL     OW12742   2.643   2.126   7.335
 4059SOL    HW112743   2.710   2.065   7.378
 4059SOL    HW212744   2.570   2.145   7.400
 4060SOL     OW12745   2.750   3.376   6.781
 4060SOL    HW112746   2.727   3.351   6.687
 4060SOL    HW212747   2.811   3.307   6.820
 4061SOL     OW12748   3.213   2.452   7.019
 4061SOL    HW112749   3.241   2.409   7.104
 4061SOL    HW212750   3.238   2.548   7.020
 4062SOL     OW12751   2.665   3.264   6.510
 4062SOL    HW112752   2.755   3.278   6.468
 4062SOL    HW212753   2.594   3.266   6.439
 4063SOL     OW12754   2.784   2.365   6.485
 4063SOL    HW112755   2.759   2.356   6.389
 4063SOL    HW212756   2.832   2.283   6.516
 4064SOL     OW12757   2.401   1.926   6.098
 4064SOL    HW112758   2.320   1.927   6.156
 4064SOL    HW212759   2.404   2.009   6.043
 4065SOL     OW12760   3.296   3.050   5.627
 4065SOL    HW112761   3.328   2.974   5.684
 4065SOL    HW212762   3.204   3.077   5.657
 4066SOL     OW12763   2.159   1.897   5.757
 4066SOL    HW112764   2.208   1.981   5.736
 4066SOL    HW212765   2.221   1.832   5.802
 4067SOL     OW12766   2.797   2.098   6.066
 4067SOL    HW112767   2.749   2.139   5.988
 4067SOL    HW212768   2.896   2.096   6.047
 4068SOL     OW12769   2.938   2.545   7.050
 4068SOL    HW112770   2.858   2.484   7.053
 4068SOL    HW212771   3.019   2.492   7.026
 4069SOL     OW12772   3.089   3.432   6.379
 4069SOL    HW112773   3.110   3.506   6.314
 4069SOL    HW212774   3.157   3.432   6.452
 4070SOL     OW12775   2.321   3.014   6.327
 4070SOL    HW112776   2.250   2.987   6.392
 4070SOL    HW212777   2.295   2.986   6.234
 4071SOL     OW12778   3.133   3.659   6.177
 4071SOL    HW112779   3.177   3.723   6.113
 4071SOL    HW212780   3.083   3.711   6.247
 4072SOL     OW12781   2.894   2.411   5.602
 4072SOL    HW112782   2.853   2.493   5.563
 4072SOL    HW212783   2.958   2.437   5.675
 4073SOL     OW12784   1.940   2.418   6.972
 4073SOL    HW112785   2.032   2.417   6.931
 4073SOL    HW212786   1.934   2.492   7.039
 4074SOL     OW12787   2.423   2.084   6.733
 4074SOL    HW112788   2.461   2.000   6.770
 4074SOL    HW212789   2.335   2.103   6.777
 4075SOL     OW12790   2.728   2.316   6.228
 4075SOL    HW112791   2.696   2.388   6.166
 4075SOL    HW212792   2.752   2.235   6.175
 4076SOL     OW12793   2.879   1.901   6.339
 4076SOL    HW112794   2.807   1.906   6.270
 4076SOL    HW212795   2.855   1.832   6.408
 4077SOL     OW12796   3.291   3.035   6.453
 4077SOL    HW112797   3.236   2.951   6.446
 4077SOL    HW212798   3.317   3.064   6.361
 4078SOL     OW12799   3.328   2.452   6.578
 4078SOL    HW112800   3.298   2.357   6.585
 4078SOL    HW212801   3.401   2.468   6.644
 4079SOL     OW12802   3.719   2.695   5.963
 4079SOL    HW112803   3.761   2.631   6.027
 4079SOL    HW212804   3.681   2.644   5.885
 4080SOL     OW12805   2.350   3.247   5.760
 4080SOL    HW112806   2.263   3.232   5.807
 4080SOL    HW212807   2.333   3.273   5.665
 4081SOL     OW12808   3.526   3.142   6.243
 4081SOL    HW112809   3.625   3.150   6.257
 4081SOL    HW212810   3.481   3.226   6.274
 4082SOL     OW12811   3.252   2.437   5.664
 4082SOL    HW112812   3.198   2.416   5.745
 4082SOL    HW212813   3.343   2.396   5.673
 4083SOL     OW12814   2.389   2.118   5.914
 4083SOL    HW112815   2.416   2.059   5.839
 4083SOL    HW212816   2.389   2.213   5.883
 4084SOL     OW12817   3.616   3.085   7.174
 4084SOL    HW112818   3.707   3.046   7.161
 4084SOL    HW212819   3.624   3.181   7.198
 4085SOL     OW12820   2.926   3.209   6.926
 4085SOL    HW112821   2.846   3.186   6.981
 4085SOL    HW212822   3.009   3.183   6.975
 4086SOL     OW12823   3.454   3.491   7.211
 4086SOL    HW112824   3.481   3.525   7.121
 4086SOL    HW212825   3.533   3.453   7.257
 4087SOL     OW12826   2.973   3.057   6.686
 4087SOL    HW112827   2.933   3.101   6.767
 4087SOL    HW212828   2.932   3.094   6.603
 4088SOL     OW12829   3.500   2.961   6.665
 4088SOL    HW112830   3.505   3.042   6.724
 4088SOL    HW212831   3.414   2.963   6.614
 4089SOL     OW12832   2.777   1.951   6.988
 4089SOL    HW112833   2.802   1.931   6.893
 4089SOL    HW212834   2.849   2.007   7.030
 4090SOL     OW12835   2.842   2.978   7.305
 4090SOL    HW112836   2.743   2.984   7.315
 4090SOL    HW212837   2.865   2.898   7.249
 4091SOL     OW12838   2.272   2.675   6.837
 4091SOL    HW112839   2.358   2.687   6.887
 4091SOL    HW212840   2.230   2.588   6.864
 4092SOL     OW12841   3.136   2.248   6.848
 4092SOL    HW112842   3.157   2.322   6.912
 4092SOL    HW212843   3.047   2.265   6.805
 4093SOL     OW12844   1.926   3.426   6.917
 4093SOL    HW112845   1.880   3.508   6.883
 4093SOL    HW212846   2.024   3.445   6.926
 4094SOL     OW12847   2.229   2.962   6.087
 4094SOL    HW112848   2.222   3.045   6.031
 4094SOL    HW212849   2.233   2.882   6.027
 4095SOL     OW12850   2.428   2.399   6.451
 4095SOL    HW112851   2.440   2.465   6.377
 4095SOL    HW212852   2.474   2.433   6.534
 4096SOL     OW12853   3.114   3.210   5.974
 4096SOL    HW112854   3.164   3.287   6.014
 4096SOL    HW212855   3.019   3.212   6.006
 4097SOL     OW12856   3.134   3.307   6.728
 4097SOL    HW112857   3.181   3.320   6.815
 4097SOL    HW212858   3.068   3.233   6.737
 4098SOL     OW12859   3.444   2.501   6.058
 4098SOL    HW112860   3.413   2.562   6.131
 4098SOL    HW212861   3.494   2.553   5.989
 4099SOL     OW12862   2.216   3.372   6.915
 4099SOL    HW112863   2.195   3.328   6.828
 4099SOL    HW212864   2.313   3.398   6.918
 4100SOL     OW12865   2.264   2.613   7.184
 4100SOL    HW112866   2.332   2.668   7.137
 4100SOL    HW212867   2.304   2.525   7.211
 4101SOL     OW12868   3.449   2.641   7.256
 4101SOL    HW112869   3.357   2.679   7.251
 4101SOL    HW212870   3.509   2.688   7.191
 4102SOL     OW12871   2.875   1.967   7.356
 4102SOL    HW112872   2.881   2.052   7.304
 4102SOL    HW212873   2.907   1.891   7.299
 4103SOL     OW12874   2.366   1.912   7.326
 4103SOL    HW112875   2.324   1.855   7.256
 4103SOL    HW212876   2.300   1.981   7.358
 4104SOL     OW12877   3.222   2.724   6.631
 4104SOL    HW112878   3.147   2.724   6.565
 4104SOL    HW212879   3.259   2.632   6.640
 4105SOL     OW12880   3.071   2.387   5.861
 4105SOL    HW112881   3.084   2.303   5.915
 4105SOL    HW212882   3.042   2.461   5.921
 4106SOL     OW12883   2.169   2.075   6.817
 4106SOL    HW112884   2.146   2.112   6.907
 4106SOL    HW212885   2.139   1.980   6.811
 4107SOL     OW12886   1.899   3.172   6.868
 4107SOL    HW112887   1.952   3.123   6.936
 4107SOL    HW212888   1.921   3.270   6.873
 4108SOL     OW12889   3.590   2.797   7.440
 4108SOL    HW112890   3.544   2.790   7.351
 4108SOL    HW212891   3.528   2.841   7.506
 4109SOL     OW12892   2.169   1.925   6.204
 4109SOL    HW112893   2.158   2.019   6.237
 4109SOL    HW212894   2.164   1.862   6.281
 4110SOL     OW12895   3.484   2.229   5.960
 4110SOL    HW112896   3.486   2.153   6.024
 4110SOL    HW212897   3.436   2.306   6.000
 4111SOL     OW12898   2.842   3.435   7.286
 4111SOL    HW112899   2.822   3.479   7.198
 4111SOL    HW212900   2.881   3.344   7.270
 4112SOL     OW12901   3.721   3.380   7.191
 4112SOL    HW112902   3.735   3.407   7.096
 4112SOL    HW212903   3.804   3.402   7.244
 4113SOL     OW12904   2.212   2.760   7.390
 4113SOL    HW112905   2.288   2.804   7.438
 4113SOL    HW212906   2.247   2.713   7.308
 4114SOL     OW12907   3.402   2.136   5.711
 4114SOL    HW112908   3.341   2.061   5.734
 4114SOL    HW212909   3.424   2.188   5.794
 4115SOL     OW12910   3.165   2.700   5.628
 4115SOL    HW112911   3.199   2.607   5.643
 4115SOL    HW212912   3.183   2.727   5.533
 4116SOL     OW12913   2.930   3.195   6.435
 4116SOL    HW112914   2.937   3.111   6.380
 4116SOL    HW212915   2.992   3.264   6.399
 4117SOL     OW12916   2.181   2.672   6.535
 4117SOL    HW112917   2.274   2.708   6.540
 4117SOL    HW212918   2.175   2.587   6.587
 4118SOL     OW12919   2.201   2.371   6.592
 4118SOL    HW112920   2.149   2.288   6.575
 4118SOL    HW212921   2.278   2.376   6.528
 4119SOL     OW12922   3.000   2.242   7.264
 4119SOL    HW112923   2.955   2.305   7.328
 4119SOL    HW212924   3.093   2.273   7.247
 4120SOL     OW12925   3.022   2.069   7.063
 4120SOL    HW112926   3.022   2.133   7.140
 4120SOL    HW212927   3.050   2.117   6.980
 4121SOL     OW12928   1.870   3.188   5.786
 4121SOL    HW112929   1.777   3.209   5.755
 4121SOL    HW212930   1.880   3.089   5.799
 4122SOL     OW12931   1.950   3.663   6.513
 4122SOL    HW112932   1.908   3.577   6.486
 4122SOL    HW212933   2.044   3.666   6.479
 4123SOL     OW12934   2.366   3.430   6.496
 4123SOL    HW112935   2.432   3.504   6.505
 4123SOL    HW212936   2.410   3.351   6.454
 4124SOL     OW12937   1.902   2.406   6.700
 4124SOL    HW112938   1.987   2.373   6.659
 4124SOL    HW212939   1.915   2.421   6.798
 4125SOL     OW12940   2.051   2.382   7.308
 4125SOL    HW112941   2.110   2.342   7.238
 4125SOL    HW212942   1.993   2.453   7.267
 4126SOL     OW12943   3.231   2.812   7.246
 4126SOL    HW112944   3.270   2.901   7.266
 4126SOL    HW212945   3.241   2.792   7.149
 4127SOL     OW12946   2.677   2.434   5.911
 4127SOL    HW112947   2.684   2.345   5.865
 4127SOL    HW212948   2.583   2.468   5.903
 4128SOL     OW12949   3.519   2.466   6.792
 4128SOL    HW112950   3.481   2.397   6.854
 4128SOL    HW212951   3.601   2.430   6.748
 4129SOL     OW12952   2.114   3.426   7.330
 4129SOL    HW112953   2.084   3.483   7.406
 4129SOL    HW212954   2.107   3.329   7.356
 4130SOL     OW12955   2.533   2.326   6.855
 4130SOL    HW112956   2.499   2.237   6.825
 4130SOL    HW212957   2.559   2.380   6.775
 4131SOL     OW12958   2.792   3.540   7.051
 4131SOL    HW112959   2.768   3.522   6.956
 4131SOL    HW212960   2.822   3.634   7.061
 4132SOL     OW12961   2.335   2.362   5.777
 4132SOL    HW112962   2.396   2.442   5.781
 4132SOL    HW212963   2.240   2.393   5.784
 4133SOL     OW12964   2.021   2.999   7.052
 4133SOL    HW112965   2.043   2.938   7.128
 4133SOL    HW212966   2.031   2.950   6.966
 4134SOL     OW12967   3.209   2.921   6.820
 4134SOL    HW112968   3.233   2.858   6.746
 4134SOL    HW212969   3.119   2.961   6.802
 4135SOL     OW12970   3.164   2.717   5.895
 4135SOL    HW112971   3.078   2.686   5.937
 4135SOL    HW212972   3.160   2.703   5.796
 4136SOL     OW12973   3.621   3.609   6.740
 4136SOL    HW112974   3.682   3.639   6.667
 4136SOL    HW212975   3.583   3.520   6.718
 4137SOL     OW12976   3.114   3.593   6.714
 4137SOL    HW112977   3.198   3.598   6.660
 4137SOL    HW212978   3.091   3.497   6.732
 4138SOL     OW12979   1.945   3.120   6.608
 4138SOL    HW112980   1.940   3.119   6.708
 4138SOL    HW212981   1.862   3.079   6.570
 4139SOL     OW12982   2.550   3.524   7.302
 4139SOL    HW112983   2.494   3.605   7.311
 4139SOL    HW212984   2.602   3.528   7.216
 4140SOL     OW12985   3.588   1.997   6.109
 4140SOL    HW112986   3.661   1.980   6.042
 4140SOL    HW212987   3.557   1.910   6.147
 4141SOL     OW12988   3.250   3.435   6.063
 4141SOL    HW112989   3.317   3.447   5.989
 4141SOL    HW212990   3.210   3.524   6.086
 4142SOL     OW12991   1.992   3.656   7.437
 4142SOL    HW112992   1.951   3.582   7.490
 4142SOL    HW212993   2.056   3.707   7.495
 4143SOL     OW12994   3.142   2.789   6.258
 4143SOL    HW112995   3.202   2.708   6.260
 4143SOL    HW212996   3.182   2.858   6.198
 4144SOL     OW12997   2.692   3.135   7.008
 4144SOL    HW112998   2.687   3.168   7.103
 4144SOL    HW212999   2.606   3.154   6.962
 4145SOL     OW13000   2.534   3.478   5.740
 4145SOL    HW113001   2.543   3.488   5.641
 4145SOL    HW213002   2.494   3.389   5.761
 4146SOL     OW13003   3.512   3.582   6.980
 4146SOL    HW113004   3.565   3.592   6.896
 4146SOL    HW213005   3.485   3.672   7.014
 4147SOL     OW13006   3.703   2.037   6.549
 4147SOL    HW113007   3.742   1.952   6.513
 4147SOL    HW213008   3.605   2.039   6.530
 4148SOL     OW13009   2.125   2.188   6.306
 4148SOL    HW113010   2.046   2.239   6.272
 4148SOL    HW213011   2.116   2.173   6.404
 4149SOL     OW13012   3.056   3.474   5.617
 4149SOL    HW113013   3.062   3.381   5.654
 4149SOL    HW213014   2.997   3.474   5.537
 4150SOL     OW13015   3.366   3.469   5.630
 4150SOL    HW113016   3.274   3.506   5.637
 4150SOL    HW213017   3.404   3.489   5.540
 4151SOL     OW13018   2.234   3.150   7.076
 4151SOL    HW113019   2.221   3.243   7.042
 4151SOL    HW213020   2.150   3.098   7.063
 4152SOL     OW13021   3.476   3.154   6.875
 4152SOL    HW113022   3.536   3.157   6.955
 4152SOL    HW213023   3.401   3.218   6.888
 4153SOL     OW13024   2.901   2.960   6.282
 4153SOL    HW113025   2.831   2.913   6.336
 4153SOL    HW213026   2.960   2.892   6.239
 4154SOL     OW13027   2.876   2.098   6.557
 4154SOL    HW113028   2.868   2.062   6.464
 4154SOL    HW213029   2.874   2.022   6.622
 4155SOL     OW13030   2.452   3.349   6.077
 4155SOL    HW113031   2.494   3.291   6.007
 4155SOL    HW213032   2.408   3.428   6.033
 4156SOL     OW13033   3.571   2.247   6.967
 4156SOL    HW113034   3.644   2.316   6.971
 4156SOL    HW213035   3.599   2.172   6.908
 4157SOL     OW13036   2.117   3.210   5.876
 4157SOL    HW113037   2.021   3.211   5.849
 4157SOL    HW213038   2.129   3.263   5.960
 4158SOL     OW13039   1.967   2.875   7.312
 4158SOL    HW113040   1.890   2.842   7.366
 4158SOL    HW213041   2.052   2.845   7.354
 4159SOL     OW13042   2.534   2.065   7.075
 4159SOL    HW113043   2.624   2.049   7.035
 4159SOL    HW213044   2.542   2.070   7.174
 4160SOL     OW13045   1.937   2.207   5.619
 4160SOL    HW113046   1.845   2.179   5.590
 4160SOL    HW213047   1.968   2.284   5.563
 4161SOL     OW13048   3.302   2.718   6.984
 4161SOL    HW113049   3.245   2.770   6.921
 4161SOL    HW213050   3.398   2.730   6.960
 4162SOL     OW13051   1.934   2.028   5.904
 4162SOL    HW113052   1.917   2.111   5.850
 4162SOL    HW213053   2.024   1.991   5.882
 4163SOL     OW13054   3.045   3.197   5.705
 4163SOL    HW113055   2.946   3.186   5.707
 4163SOL    HW213056   3.079   3.212   5.798
 4164SOL     OW13057   3.355   3.629   6.545
 4164SOL    HW113058   3.388   3.693   6.476
 4164SOL    HW213059   3.421   3.623   6.620
 4165SOL     OW13060   3.312   3.082   7.219
 4165SOL    HW113061   3.303   3.072   7.318
 4165SOL    HW213062   3.408   3.075   7.193
 4166SOL     OW13063   2.252   3.603   7.146
 4166SOL    HW113064   2.161   3.644   7.144
 4166SOL    HW213065   2.245   3.509   7.178
 4167SOL     OW13066   3.536   2.745   6.840
 4167SOL    HW113067   3.509   2.656   6.803
 4167SOL    HW213068   3.537   2.813   6.767
 4168SOL     OW13069   3.087   2.187   6.035
 4168SOL    HW113070   3.152   2.113   6.024
 4168SOL    HW213071   3.107   2.237   6.119
 4169SOL     OW13072   3.639   2.204   7.228
 4169SOL    HW113073   3.622   2.235   7.134
 4169SOL    HW213074   3.555   2.167   7.266
 4170SOL     OW13075   3.592   2.796   7.103
 4170SOL    HW113076   3.630   2.887   7.118
 4170SOL    HW213077   3.584   2.779   7.004
 4171SOL     OW13078   2.721   3.236   5.602
 4171SOL    HW113079   2.675   3.251   5.690
 4171SOL    HW213080   2.765   3.321   5.572
 4172SOL     OW13081   2.523   3.652   6.539
 4172SOL    HW113082   2.477   3.740   6.526
 4172SOL    HW213083   2.622   3.664   6.532
 4173SOL     OW13084   2.945   2.846   5.673
 4173SOL    HW113085   2.922   2.899   5.591
 4173SOL    HW213086   3.026   2.790   5.654
 4174SOL     OW13087   3.723   3.431   6.437
 4174SOL    HW113088   3.652   3.419   6.367
 4174SOL    HW213089   3.724   3.352   6.497
 4175SOL     OW13090   2.083   3.176   7.430
 4175SOL    HW113091   2.018   3.103   7.409
 4175SOL    HW213092   2.087   3.190   7.528
 4176SOL     OW13093   1.941   3.102   6.239
 4176SOL    HW113094   1.940   3.055   6.327
 4176SOL    HW213095   2.023   3.074   6.188
 4177SOL     OW13096   2.534   3.253   7.210
 4177SOL    HW113097   2.456   3.203   7.248
 4177SOL    HW213098   2.531   3.348   7.241
 4178SOL     OW13099   3.686   2.054   6.813
 4178SOL    HW113100   3.682   1.964   6.857
 4178SOL    HW213101   3.689   2.043   6.714
 4179SOL     OW13102   2.290   2.286   6.106
 4179SOL    HW113103   2.320   2.214   6.044
 4179SOL    HW213104   2.251   2.246   6.189
 4180SOL     OW13105   3.567   3.349   6.690
 4180SOL    HW113106   3.474   3.324   6.663
 4180SOL    HW213107   3.593   3.299   6.772
 4181SOL     OW13108   2.179   2.409   6.866
 4181SOL    HW113109   2.217   2.350   6.938
 4181SOL    HW213110   2.219   2.383   6.778
 4182SOL     OW13111   2.674   3.448   6.273
 4182SOL    HW113112   2.706   3.458   6.179
 4182SOL    HW213113   2.595   3.386   6.275
 4183SOL     OW13114   3.286   2.076   6.698
 4183SOL    HW113115   3.338   2.011   6.753
 4183SOL    HW213116   3.237   2.139   6.759
 4184SOL     OW13117   2.863   1.896   6.740
 4184SOL    HW113118   2.800   1.824   6.709
 4184SOL    HW213119   2.956   1.860   6.740
 4185SOL     OW13120   2.632   3.192   5.887
 4185SOL    HW113121   2.586   3.105   5.904
 4185SOL    HW213122   2.723   3.189   5.928
 4186SOL     OW13123   2.480   3.429   6.870
 4186SOL    HW113124   2.475   3.511   6.927
 4186SOL    HW213125   2.569   3.426   6.825
 4187SOL     OW13126   3.214   1.914   5.754
 4187SOL    HW113127   3.249   1.873   5.670
 4187SOL    HW213128   3.124   1.876   5.774
 4188SOL     OW13129   3.162   2.315   6.277
 4188SOL    HW113130   3.103   2.395   6.281
 4188SOL    HW213131   3.177   2.280   6.370
 4189SOL     OW13132   3.455   2.083   6.468
 4189SOL    HW113133   3.371   2.082   6.522
 4189SOL    HW213134   3.457   2.166   6.412
 4190SOL     OW13135   1.901   2.939   5.886
 4190SOL    HW113136   2.000   2.928   5.877
 4190SOL    HW213137   1.861   2.853   5.918
 4191SOL     OW13138   2.737   3.508   5.923
 4191SOL    HW113139   2.660   3.473   5.869
 4191SOL    HW213140   2.705   3.579   5.985
 4192SOL     OW13141   2.092   2.490   7.561
 4192SOL    HW113142   1.999   2.488   7.598
 4192SOL    HW213143   2.093   2.451   7.469
 4193SOL     OW13144   3.617   2.469   7.679
 4193SOL    HW113145   3.605   2.456   7.580
 4193SOL    HW213146   3.587   2.388   7.728
 4194SOL     OW13147   2.093   3.575   7.931
 4194SOL    HW113148   2.127   3.652   7.985
 4194SOL    HW213149   2.137   3.575   7.841
 4195SOL     OW13150   2.092   3.296   7.986
 4195SOL    HW113151   2.066   3.392   7.986
 4195SOL    HW213152   2.021   3.242   8.031
 4196SOL     OW13153   2.468   2.826   7.571
 4196SOL    HW113154   2.475   2.910   7.517
 4196SOL    HW213155   2.514   2.839   7.659
 4197SOL     OW13156   3.704   3.629   7.807
 4197SOL    HW113157   3.758   3.600   7.887
 4197SOL    HW213158   3.734   3.719   7.778
 4198SOL     OW13159   1.889   3.458   7.565
 4198SOL    HW113160   1.870   3.362   7.586
 4198SOL    HW213161   1.856   3.516   7.640
 4199SOL     OW13162   3.551   2.784   8.060
 4199SOL    HW113163   3.646   2.755   8.068
 4199SOL    HW213164   3.543   2.849   7.985
 4200SOL     OW13165   3.503   2.970   7.880
 4200SOL    HW113166   3.589   2.972   7.828
 4200SOL    HW213167   3.517   3.017   7.968
 4201SOL     OW13168   2.671   1.866   7.950
 4201SOL    HW113169   2.711   1.957   7.941
 4201SOL    HW213170   2.571   1.874   7.956
 4202SOL     OW13171   3.387   2.861   7.638
 4202SOL    HW113172   3.324   2.785   7.651
 4202SOL    HW213173   3.435   2.879   7.724
 4203SOL     OW13174   3.438   3.524   7.755
 4203SOL    HW113175   3.527   3.570   7.758
 4203SOL    HW213176   3.417   3.500   7.660
 4204SOL     OW13177   1.938   2.673   8.237
 4204SOL    HW113178   2.037   2.661   8.246
 4204SOL    HW213179   1.914   2.768   8.258
 4205SOL     OW13180   2.727   2.210   7.643
 4205SOL    HW113181   2.786   2.273   7.594
 4205SOL    HW213182   2.746   2.116   7.614
 4206SOL     OW13183   2.183   2.805   7.690
 4206SOL    HW113184   2.265   2.844   7.648
 4206SOL    HW213185   2.156   2.723   7.641
 4207SOL     OW13186   2.973   3.638   7.685
 4207SOL    HW113187   2.913   3.576   7.735
 4207SOL    HW213188   3.004   3.594   7.600
 4208SOL     OW13189   3.494   3.239   7.529
 4208SOL    HW113190   3.462   3.333   7.519
 4208SOL    HW213191   3.418   3.176   7.517
 4209SOL     OW13192   2.326   3.605   7.771
 4209SOL    HW113193   2.359   3.644   7.857
 4209SOL    HW213194   2.402   3.598   7.706
 4210SOL     OW13195   3.262   1.969   7.874
 4210SOL    HW113196   3.238   1.932   7.784
 4210SOL    HW213197   3.361   1.985   7.878
 4211SOL     OW13198   2.244   2.562   7.928
 4211SOL    HW113199   2.289   2.472   7.925
 4211SOL    HW213200   2.150   2.551   7.961
 4212SOL     OW13201   2.476   1.984   7.565
 4212SOL    HW113202   2.574   1.962   7.572
 4212SOL    HW213203   2.445   1.967   7.472
 4213SOL     OW13204   2.401   1.926   7.960
 4213SOL    HW113205   2.320   1.927   8.018
 4213SOL    HW213206   2.404   2.009   7.905
 4214SOL     OW13207   3.296   3.050   7.489
 4214SOL    HW113208   3.328   2.974   7.546
 4214SOL    HW213209   3.204   3.077   7.519
 4215SOL     OW13210   2.159   1.897   7.619
 4215SOL    HW113211   2.208   1.981   7.598
 4215SOL    HW213212   2.221   1.832   7.664
 4216SOL     OW13213   2.797   2.098   7.928
 4216SOL    HW113214   2.749   2.139   7.850
 4216SOL    HW213215   2.896   2.096   7.909
 4217SOL     OW13216   2.321   3.014   8.189
 4217SOL    HW113217   2.250   2.987   8.254
 4217SOL    HW213218   2.295   2.986   8.096
 4218SOL     OW13219   3.133   3.659   8.039
 4218SOL    HW113220   3.177   3.723   7.975
 4218SOL    HW213221   3.083   3.711   8.109
 4219SOL     OW13222   2.894   2.411   7.464
 4219SOL    HW113223   2.853   2.493   7.425
 4219SOL    HW213224   2.958   2.437   7.537
 4220SOL     OW13225   3.719   2.695   7.825
 4220SOL    HW113226   3.761   2.631   7.889
 4220SOL    HW213227   3.681   2.644   7.747
 4221SOL     OW13228   2.350   3.247   7.622
 4221SOL    HW113229   2.263   3.232   7.669
 4221SOL    HW213230   2.333   3.273   7.527
 4222SOL     OW13231   3.252   2.437   7.526
 4222SOL    HW113232   3.198   2.416   7.607
 4222SOL    HW213233   3.343   2.396   7.535
 4223SOL     OW13234   2.389   2.118   7.776
 4223SOL    HW113235   2.416   2.059   7.701
 4223SOL    HW213236   2.389   2.213   7.745
 4224SOL     OW13237   2.567   2.912   7.816
 4224SOL    HW113238   2.553   2.919   7.915
 4224SOL    HW213239   2.651   2.861   7.798
 4225SOL     OW13240   2.229   2.962   7.949
 4225SOL    HW113241   2.222   3.045   7.893
 4225SOL    HW213242   2.233   2.882   7.889
 4226SOL     OW13243   3.114   3.210   7.836
 4226SOL    HW113244   3.164   3.287   7.876
 4226SOL    HW213245   3.019   3.212   7.868
 4227SOL     OW13246   3.444   2.501   7.920
 4227SOL    HW113247   3.413   2.562   7.993
 4227SOL    HW213248   3.494   2.553   7.851
 4228SOL     OW13249   3.071   2.387   7.723
 4228SOL    HW113250   3.084   2.303   7.777
 4228SOL    HW213251   3.042   2.461   7.783
 4229SOL     OW13252   3.484   2.229   7.822
 4229SOL    HW113253   3.486   2.153   7.886
 4229SOL    HW213254   3.436   2.306   7.862
 4230SOL     OW13255   3.402   2.136   7.573
 4230SOL    HW113256   3.341   2.061   7.596
 4230SOL    HW213257   3.424   2.188   7.656
 4231SOL     OW13258   3.165   2.700   7.490
 4231SOL    HW113259   3.199   2.607   7.505
 4231SOL    HW213260   3.183   2.727   7.395
 4232SOL     OW13261   1.870   3.188   7.648
 4232SOL    HW113262   1.777   3.209   7.617
 4232SOL    HW213263   1.880   3.089   7.661
 4233SOL     OW13264   2.335   2.362   7.639
 4233SOL    HW113265   2.396   2.442   7.643
 4233SOL    HW213266   2.240   2.393   7.646
 4234SOL     OW13267   3.164   2.717   7.757
 4234SOL    HW113268   3.078   2.686   7.799
 4234SOL    HW213269   3.160   2.703   7.658
 4235SOL     OW13270   3.588   1.997   7.971
 4235SOL    HW113271   3.661   1.980   7.904
 4235SOL    HW213272   3.557   1.910   8.009
 4236SOL     OW13273   3.250   3.435   7.925
 4236SOL    HW113274   3.317   3.447   7.851
 4236SOL    HW213275   3.210   3.524   7.948
 4237SOL     OW13276   2.534   3.478   7.602
 4237SOL    HW113277   2.543   3.488   7.503
 4237SOL    HW213278   2.494   3.389   7.623
 4238SOL     OW13279   3.056   3.474   7.479
 4238SOL    HW113280   3.062   3.381   7.516
 4238SOL    HW213281   2.997   3.474   7.399
 4239SOL     OW13282   3.366   3.469   7.492
 4239SOL    HW113283   3.274   3.506   7.499
 4239SOL    HW213284   3.404   3.489   7.402
 4240SOL     OW13285   2.452   3.349   7.939
 4240SOL    HW113286   2.494   3.291   7.869
 4240SOL    HW213287   2.408   3.428   7.895
 4241SOL     OW13288   2.117   3.210   7.738
 4241SOL    HW113289   2.021   3.211   7.711
 4241SOL    HW213290   2.129   3.263   7.822
 4242SOL     OW13291   1.937   2.207   7.481
 4242SOL    HW113292   1.845   2.179   7.452
 4242SOL    HW213293   1.968   2.284   7.425
 4243SOL     OW13294   1.934   2.028   7.766
 4243SOL    HW113295   1.917   2.111   7.712
 4243SOL    HW213296   2.024   1.991   7.744
 4244SOL     OW13297   3.045   3.197   7.567
 4244SOL    HW113298   2.946   3.186   7.569
 4244SOL    HW213299   3.079   3.212   7.660
 4245SOL     OW13300   3.087   2.187   7.897
 4245SOL    HW113301   3.152   2.113   7.886
 4245SOL    HW213302   3.107   2.237   7.981
 4246SOL     OW13303   2.721   3.236   7.464
 4246SOL    HW113304   2.675   3.251   7.552
 4246SOL    HW213305   2.765   3.321   7.434
 4247SOL     OW13306   2.945   2.846   7.535
 4247SOL    HW113307   2.922   2.899   7.453
 4247SOL    HW213308   3.026   2.790   7.516
 4248SOL     OW13309   2.290   2.286   7.968
 4248SOL    HW113310   2.320   2.214   7.906
 4248SOL    HW213311   2.251   2.246   8.051
 4249SOL     OW13312   2.632   3.192   7.749
 4249SOL    HW113313   2.586   3.105   7.766
 4249SOL    HW213314   2.723   3.189   7.790
 4250SOL     OW13315   3.214   1.914   7.616
 4250SOL    HW113316   3.249   1.873   7.532
 4250SOL    HW213317   3.124   1.876   7.636
 4251SOL     OW13318   1.901   2.939   7.748
 4251SOL    HW113319   2.000   2.928   7.739
 4251SOL    HW213320   1.861   2.853   7.780
 4252SOL     OW13321   2.737   3.508   7.785
 4252SOL    HW113322   2.660   3.473   7.731
 4252SOL    HW213323   2.705   3.579   7.847
 4253SOL     OW13324   2.092   4.352   0.113
 4253SOL    HW113325   1.999   4.350   0.150
 4253SOL    HW213326   2.093   4.313   0.021
 4254SOL     OW13327   2.087   3.999   0.996
 4254SOL    HW113328   2.122   3.982   1.088
 4254SOL    HW213329   1.999   3.954   0.984
 4255SOL     OW13330   1.881   4.092   0.647
 4255SOL    HW113331   1.799   4.135   0.686
 4255SOL    HW213332   1.853   4.019   0.584
 4256SOL     OW13333   2.431   4.999   1.165
 4256SOL    HW113334   2.338   4.992   1.128
 4256SOL    HW213335   2.442   5.088   1.209
 4257SOL     OW13336   3.417   5.235   0.703
 4257SOL    HW113337   3.360   5.219   0.784
 4257SOL    HW213338   3.358   5.245   0.623
 4258SOL     OW13339   2.997   4.427   0.717
 4258SOL    HW113340   3.054   4.505   0.692
 4258SOL    HW213341   2.937   4.453   0.793
 4259SOL     OW13342   3.617   4.331   0.231
 4259SOL    HW113343   3.605   4.318   0.132
 4259SOL    HW213344   3.587   4.250   0.280
 4260SOL     OW13345   2.630   4.868   1.023
 4260SOL    HW113346   2.552   4.885   1.083
 4260SOL    HW213347   2.664   4.955   0.987
 4261SOL     OW13348   2.712   4.522   1.823
 4261SOL    HW113349   2.708   4.598   1.888
 4261SOL    HW213350   2.734   4.558   1.732
 4262SOL     OW13351   2.547   4.736   0.665
 4262SOL    HW113352   2.616   4.720   0.735
 4262SOL    HW213353   2.474   4.793   0.703
 4263SOL     OW13354   2.548   4.885   1.803
 4263SOL    HW113355   2.608   4.964   1.817
 4263SOL    HW213356   2.462   4.916   1.762
 4264SOL     OW13357   2.197   5.159   1.061
 4264SOL    HW113358   2.119   5.128   1.008
 4264SOL    HW213359   2.255   5.217   1.004
 4265SOL     OW13360   3.322   5.229   1.339
 4265SOL    HW113361   3.346   5.323   1.365
 4265SOL    HW213362   3.306   5.175   1.421
 4266SOL     OW13363   2.300   4.116   1.499
 4266SOL    HW113364   2.382   4.060   1.508
 4266SOL    HW213365   2.219   4.058   1.503
 4267SOL     OW13366   3.465   4.171   0.737
 4267SOL    HW113367   3.391   4.217   0.687
 4267SOL    HW213368   3.516   4.239   0.790
 4268SOL     OW13369   2.989   5.065   1.690
 4268SOL    HW113370   3.036   5.065   1.778
 4268SOL    HW213371   2.941   4.978   1.679
 4269SOL     OW13372   2.092   5.158   0.538
 4269SOL    HW113373   2.066   5.254   0.538
 4269SOL    HW213374   2.021   5.104   0.583
 4270SOL     OW13375   2.102   4.815   0.886
 4270SOL    HW113376   2.116   4.731   0.938
 4270SOL    HW213377   2.047   4.879   0.941
 4271SOL     OW13378   2.468   4.688   0.123
 4271SOL    HW113379   2.475   4.772   0.069
 4271SOL    HW213380   2.514   4.701   0.211
 4272SOL     OW13381   3.456   3.838   1.480
 4272SOL    HW113382   3.438   3.905   1.408
 4272SOL    HW213383   3.453   3.884   1.569
 4273SOL     OW13384   1.984   4.367   0.563
 4273SOL    HW113385   1.939   4.279   0.580
 4273SOL    HW213386   1.983   4.421   0.647
 4274SOL     OW13387   1.889   5.320   0.117
 4274SOL    HW113388   1.870   5.224   0.138
 4274SOL    HW213389   1.856   5.378   0.192
 4275SOL     OW13390   3.551   4.646   0.612
 4275SOL    HW113391   3.646   4.617   0.620
 4275SOL    HW213392   3.543   4.711   0.537
 4276SOL     OW13393   3.503   4.832   0.432
 4276SOL    HW113394   3.589   4.834   0.380
 4276SOL    HW213395   3.517   4.879   0.520
 4277SOL     OW13396   1.975   4.461   1.597
 4277SOL    HW113397   2.063   4.448   1.642
 4277SOL    HW213398   1.962   4.558   1.575
 4278SOL     OW13399   2.475   5.089   0.726
 4278SOL    HW113400   2.426   5.002   0.735
 4278SOL    HW213401   2.452   5.132   0.639
 4279SOL     OW13402   3.155   4.952   1.423
 4279SOL    HW113403   3.192   4.879   1.365
 4279SOL    HW213404   3.207   4.957   1.508
 4280SOL     OW13405   2.671   3.728   0.502
 4280SOL    HW113406   2.711   3.819   0.493
 4280SOL    HW213407   2.571   3.736   0.508
 4281SOL     OW13408   2.059   4.700   1.264
 4281SOL    HW113409   2.148   4.655   1.250
 4281SOL    HW213410   1.986   4.635   1.245
 4282SOL     OW13411   3.387   4.723   0.190
 4282SOL    HW113412   3.324   4.647   0.203
 4282SOL    HW213413   3.435   4.741   0.276
 4283SOL     OW13414   2.179   3.975   1.801
 4283SOL    HW113415   2.250   4.046   1.807
 4283SOL    HW213416   2.091   4.014   1.829
 4284SOL     OW13417   3.328   5.141   0.953
 4284SOL    HW113418   3.269   5.147   1.033
 4284SOL    HW213419   3.313   5.053   0.907
 4285SOL     OW13420   2.460   4.453   0.270
 4285SOL    HW113421   2.484   4.522   0.202
 4285SOL    HW213422   2.382   4.486   0.324
 4286SOL     OW13423   3.143   4.069   0.944
 4286SOL    HW113424   3.057   4.019   0.931
 4286SOL    HW213425   3.205   4.015   1.000
 4287SOL     OW13426   2.669   4.329   1.465
 4287SOL    HW113427   2.622   4.326   1.554
 4287SOL    HW213428   2.618   4.274   1.399
 4288SOL     OW13429   3.256   4.193   1.674
 4288SOL    HW113430   3.236   4.236   1.762
 4288SOL    HW213431   3.334   4.131   1.683
 4289SOL     OW13432   2.835   4.614   1.572
 4289SOL    HW113433   2.881   4.530   1.543
 4289SOL    HW213434   2.779   4.648   1.497
 4290SOL     OW13435   2.853   4.134   1.242
 4290SOL    HW113436   2.776   4.168   1.296
 4290SOL    HW213437   2.819   4.083   1.163
 4291SOL     OW13438   2.903   4.425   0.429
 4291SOL    HW113439   2.929   4.421   0.525
 4291SOL    HW213440   2.818   4.374   0.415
 4292SOL     OW13441   1.938   4.535   0.789
 4292SOL    HW113442   2.037   4.523   0.798
 4292SOL    HW213443   1.914   4.630   0.810
 4293SOL     OW13444   2.727   4.072   0.195
 4293SOL    HW113445   2.786   4.135   0.146
 4293SOL    HW213446   2.746   3.978   0.166
 4294SOL     OW13447   3.581   4.309   1.831
 4294SOL    HW113448   3.555   4.398   1.795
 4294SOL    HW213449   3.579   4.241   1.758
 4295SOL     OW13450   3.224   4.868   0.545
 4295SOL    HW113451   3.307   4.839   0.497
 4295SOL    HW213452   3.175   4.935   0.489
 4296SOL     OW13453   2.412   3.920   0.885
 4296SOL    HW113454   2.407   3.915   0.985
 4296SOL    HW213455   2.414   4.016   0.856
 4297SOL     OW13456   2.870   5.180   0.477
 4297SOL    HW113457   2.824   5.252   0.425
 4297SOL    HW213458   2.866   5.200   0.575
 4298SOL     OW13459   3.657   4.790   0.873
 4298SOL    HW113460   3.595   4.775   0.797
 4298SOL    HW213461   3.605   4.801   0.958
 4299SOL     OW13462   3.089   5.274   1.506
 4299SOL    HW113463   3.095   5.197   1.570
 4299SOL    HW213464   3.037   5.248   1.426
 4300SOL     OW13465   2.183   4.667   0.242
 4300SOL    HW113466   2.265   4.706   0.200
 4300SOL    HW213467   2.156   4.585   0.193
 4301SOL     OW13468   3.320   4.459   0.728
 4301SOL    HW113469   3.315   4.394   0.803
 4301SOL    HW213470   3.400   4.518   0.741
 4302SOL     OW13471   2.323   4.990   1.727
 4302SOL    HW113472   2.273   4.991   1.641
 4302SOL    HW213473   2.260   4.972   1.803
 4303SOL     OW13474   2.973   5.500   0.237
 4303SOL    HW113475   2.913   5.438   0.287
 4303SOL    HW213476   3.004   5.456   0.152
 4304SOL     OW13477   2.064   4.009   1.498
 4304SOL    HW113478   1.984   4.069   1.485
 4304SOL    HW213479   2.054   3.960   1.584
 4305SOL     OW13480   3.494   5.101   0.081
 4305SOL    HW113481   3.462   5.195   0.071
 4305SOL    HW213482   3.418   5.038   0.069
 4306SOL     OW13483   3.262   3.831   0.426
 4306SOL    HW113484   3.238   3.794   0.336
 4306SOL    HW213485   3.361   3.847   0.430
 4307SOL     OW13486   2.244   4.424   0.480
 4307SOL    HW113487   2.289   4.334   0.477
 4307SOL    HW213488   2.150   4.413   0.513
 4308SOL     OW13489   3.409   3.946   1.729
 4308SOL    HW113490   3.404   3.983   1.821
 4308SOL    HW213491   3.337   3.877   1.717
 4309SOL     OW13492   2.476   3.846   0.117
 4309SOL    HW113493   2.574   3.824   0.124
 4309SOL    HW213494   2.445   3.829   0.024
 4310SOL     OW13495   2.643   3.988   1.749
 4310SOL    HW113496   2.710   3.927   1.792
 4310SOL    HW213497   2.570   4.007   1.814
 4311SOL     OW13498   3.213   4.314   1.433
 4311SOL    HW113499   3.241   4.271   1.518
 4311SOL    HW213500   3.238   4.410   1.434
 4312SOL     OW13501   2.665   5.126   0.924
 4312SOL    HW113502   2.755   5.140   0.882
 4312SOL    HW213503   2.594   5.128   0.853
 4313SOL     OW13504   2.784   4.227   0.899
 4313SOL    HW113505   2.759   4.218   0.803
 4313SOL    HW213506   2.832   4.145   0.930
 4314SOL     OW13507   2.401   3.788   0.512
 4314SOL    HW113508   2.320   3.789   0.570
 4314SOL    HW213509   2.404   3.871   0.457
 4315SOL     OW13510   3.296   4.912   0.041
 4315SOL    HW113511   3.328   4.836   0.098
 4315SOL    HW213512   3.204   4.939   0.071
 4316SOL     OW13513   2.159   3.759   0.171
 4316SOL    HW113514   2.208   3.843   0.150
 4316SOL    HW213515   2.221   3.694   0.216
 4317SOL     OW13516   2.797   3.960   0.480
 4317SOL    HW113517   2.749   4.001   0.402
 4317SOL    HW213518   2.896   3.958   0.461
 4318SOL     OW13519   2.938   4.407   1.464
 4318SOL    HW113520   2.858   4.346   1.467
 4318SOL    HW213521   3.019   4.354   1.440
 4319SOL     OW13522   3.089   5.294   0.793
 4319SOL    HW113523   3.110   5.368   0.728
 4319SOL    HW213524   3.157   5.294   0.866
 4320SOL     OW13525   2.321   4.876   0.741
 4320SOL    HW113526   2.250   4.849   0.806
 4320SOL    HW213527   2.295   4.848   0.648
 4321SOL     OW13528   2.894   4.273   0.016
 4321SOL    HW113529   2.853   4.355  -0.023
 4321SOL    HW213530   2.958   4.299   0.089
 4322SOL     OW13531   1.940   4.280   1.386
 4322SOL    HW113532   2.032   4.279   1.345
 4322SOL    HW213533   1.934   4.354   1.453
 4323SOL     OW13534   2.423   3.946   1.147
 4323SOL    HW113535   2.461   3.862   1.184
 4323SOL    HW213536   2.335   3.965   1.191
 4324SOL     OW13537   2.728   4.178   0.642
 4324SOL    HW113538   2.696   4.250   0.580
 4324SOL    HW213539   2.752   4.097   0.589
 4325SOL     OW13540   2.879   3.763   0.753
 4325SOL    HW113541   2.807   3.768   0.684
 4325SOL    HW213542   2.855   3.694   0.822
 4326SOL     OW13543   3.291   4.897   0.867
 4326SOL    HW113544   3.236   4.813   0.860
 4326SOL    HW213545   3.317   4.926   0.775
 4327SOL     OW13546   3.328   4.314   0.992
 4327SOL    HW113547   3.298   4.219   0.999
 4327SOL    HW213548   3.401   4.330   1.058
 4328SOL     OW13549   3.719   4.557   0.377
 4328SOL    HW113550   3.761   4.493   0.441
 4328SOL    HW213551   3.681   4.506   0.299
 4329SOL     OW13552   2.350   5.109   0.174
 4329SOL    HW113553   2.263   5.094   0.221
 4329SOL    HW213554   2.333   5.135   0.079
 4330SOL     OW13555   3.526   5.004   0.657
 4330SOL    HW113556   3.625   5.012   0.671
 4330SOL    HW213557   3.481   5.088   0.688
 4331SOL     OW13558   3.252   4.299   0.078
 4331SOL    HW113559   3.198   4.278   0.159
 4331SOL    HW213560   3.343   4.258   0.087
 4332SOL     OW13561   2.389   3.980   0.328
 4332SOL    HW113562   2.416   3.921   0.253
 4332SOL    HW213563   2.389   4.075   0.297
 4333SOL     OW13564   3.616   4.947   1.588
 4333SOL    HW113565   3.707   4.908   1.575
 4333SOL    HW213566   3.624   5.043   1.612
 4334SOL     OW13567   2.926   5.071   1.340
 4334SOL    HW113568   2.846   5.048   1.395
 4334SOL    HW213569   3.009   5.045   1.389
 4335SOL     OW13570   2.973   4.919   1.100
 4335SOL    HW113571   2.933   4.963   1.181
 4335SOL    HW213572   2.932   4.956   1.017
 4336SOL     OW13573   3.500   4.823   1.079
 4336SOL    HW113574   3.505   4.904   1.138
 4336SOL    HW213575   3.414   4.825   1.028
 4337SOL     OW13576   2.777   3.813   1.402
 4337SOL    HW113577   2.802   3.793   1.307
 4337SOL    HW213578   2.849   3.869   1.444
 4338SOL     OW13579   2.842   4.840   1.719
 4338SOL    HW113580   2.743   4.846   1.729
 4338SOL    HW213581   2.865   4.760   1.663
 4339SOL     OW13582   2.567   4.774   0.368
 4339SOL    HW113583   2.553   4.781   0.467
 4339SOL    HW213584   2.651   4.723   0.350
 4340SOL     OW13585   2.272   4.537   1.251
 4340SOL    HW113586   2.358   4.549   1.301
 4340SOL    HW213587   2.230   4.450   1.278
 4341SOL     OW13588   3.136   4.110   1.262
 4341SOL    HW113589   3.157   4.184   1.326
 4341SOL    HW213590   3.047   4.127   1.219
 4342SOL     OW13591   2.229   4.824   0.501
 4342SOL    HW113592   2.222   4.907   0.445
 4342SOL    HW213593   2.233   4.744   0.441
 4343SOL     OW13594   2.428   4.261   0.865
 4343SOL    HW113595   2.440   4.327   0.791
 4343SOL    HW213596   2.474   4.295   0.948
 4344SOL     OW13597   3.114   5.072   0.388
 4344SOL    HW113598   3.164   5.149   0.428
 4344SOL    HW213599   3.019   5.074   0.420
 4345SOL     OW13600   3.134   5.169   1.142
 4345SOL    HW113601   3.181   5.182   1.229
 4345SOL    HW213602   3.068   5.095   1.151
 4346SOL     OW13603   3.444   4.363   0.472
 4346SOL    HW113604   3.413   4.424   0.545
 4346SOL    HW213605   3.494   4.415   0.403
 4347SOL     OW13606   2.216   5.234   1.329
 4347SOL    HW113607   2.195   5.190   1.242
 4347SOL    HW213608   2.313   5.260   1.332
 4348SOL     OW13609   2.264   4.475   1.598
 4348SOL    HW113610   2.332   4.530   1.551
 4348SOL    HW213611   2.304   4.387   1.625
 4349SOL     OW13612   3.449   4.503   1.670
 4349SOL    HW113613   3.357   4.541   1.665
 4349SOL    HW213614   3.509   4.550   1.605
 4350SOL     OW13615   2.875   3.829   1.770
 4350SOL    HW113616   2.881   3.914   1.718
 4350SOL    HW213617   2.907   3.753   1.713
 4351SOL     OW13618   2.366   3.774   1.740
 4351SOL    HW113619   2.324   3.717   1.670
 4351SOL    HW213620   2.300   3.843   1.772
 4352SOL     OW13621   2.435   4.594   1.029
 4352SOL    HW113622   2.479   4.683   1.020
 4352SOL    HW213623   2.372   4.594   1.106
 4353SOL     OW13624   3.222   4.586   1.045
 4353SOL    HW113625   3.147   4.586   0.979
 4353SOL    HW213626   3.259   4.494   1.054
 4354SOL     OW13627   3.071   4.249   0.275
 4354SOL    HW113628   3.084   4.165   0.329
 4354SOL    HW213629   3.042   4.323   0.335
 4355SOL     OW13630   2.169   3.937   1.231
 4355SOL    HW113631   2.146   3.974   1.321
 4355SOL    HW213632   2.139   3.842   1.225
 4356SOL     OW13633   1.899   5.034   1.282
 4356SOL    HW113634   1.952   4.985   1.350
 4356SOL    HW213635   1.921   5.132   1.287
 4357SOL     OW13636   2.594   4.358   1.064
 4357SOL    HW113637   2.653   4.332   0.988
 4357SOL    HW213638   2.566   4.454   1.053
 4358SOL     OW13639   3.590   4.659   1.854
 4358SOL    HW113640   3.544   4.652   1.765
 4358SOL    HW213641   3.528   4.703   1.920
 4359SOL     OW13642   2.169   3.787   0.618
 4359SOL    HW113643   2.158   3.881   0.651
 4359SOL    HW213644   2.164   3.724   0.695
 4360SOL     OW13645   3.484   4.091   0.374
 4360SOL    HW113646   3.486   4.015   0.438
 4360SOL    HW213647   3.436   4.168   0.414
 4361SOL     OW13648   2.885   4.490   0.966
 4361SOL    HW113649   2.900   4.511   1.062
 4361SOL    HW213650   2.855   4.395   0.957
 4362SOL     OW13651   3.721   5.242   1.605
 4362SOL    HW113652   3.735   5.269   1.510
 4362SOL    HW213653   3.804   5.264   1.658
 4363SOL     OW13654   2.212   4.622   1.804
 4363SOL    HW113655   2.288   4.666   1.852
 4363SOL    HW213656   2.247   4.575   1.722
 4364SOL     OW13657   3.402   3.998   0.125
 4364SOL    HW113658   3.341   3.923   0.148
 4364SOL    HW213659   3.424   4.050   0.208
 4365SOL     OW13660   3.165   4.562   0.042
 4365SOL    HW113661   3.199   4.469   0.057
 4365SOL    HW213662   3.183   4.589  -0.053
 4366SOL     OW13663   2.930   5.057   0.849
 4366SOL    HW113664   2.937   4.973   0.794
 4366SOL    HW213665   2.992   5.126   0.813
 4367SOL     OW13666   2.181   4.534   0.949
 4367SOL    HW113667   2.274   4.570   0.954
 4367SOL    HW213668   2.175   4.449   1.001
 4368SOL     OW13669   2.201   4.233   1.006
 4368SOL    HW113670   2.149   4.150   0.989
 4368SOL    HW213671   2.278   4.238   0.942
 4369SOL     OW13672   3.000   4.104   1.678
 4369SOL    HW113673   2.955   4.167   1.742
 4369SOL    HW213674   3.093   4.135   1.661
 4370SOL     OW13675   3.022   3.931   1.477
 4370SOL    HW113676   3.022   3.995   1.554
 4370SOL    HW213677   3.050   3.979   1.394
 4371SOL     OW13678   1.870   5.050   0.200
 4371SOL    HW113679   1.777   5.071   0.169
 4371SOL    HW213680   1.880   4.951   0.213
 4372SOL     OW13681   2.864   4.520   1.238
 4372SOL    HW113682   2.905   4.488   1.324
 4372SOL    HW213683   2.768   4.493   1.235
 4373SOL     OW13684   1.902   4.268   1.114
 4373SOL    HW113685   1.987   4.235   1.073
 4373SOL    HW213686   1.915   4.283   1.212
 4374SOL     OW13687   2.051   4.244   1.722
 4374SOL    HW113688   2.110   4.204   1.652
 4374SOL    HW213689   1.993   4.315   1.681
 4375SOL     OW13690   3.231   4.674   1.660
 4375SOL    HW113691   3.270   4.763   1.680
 4375SOL    HW213692   3.241   4.654   1.563
 4376SOL     OW13693   2.677   4.296   0.325
 4376SOL    HW113694   2.684   4.207   0.279
 4376SOL    HW213695   2.583   4.330   0.317
 4377SOL     OW13696   3.519   4.328   1.206
 4377SOL    HW113697   3.481   4.259   1.268
 4377SOL    HW213698   3.601   4.292   1.162
 4378SOL     OW13699   2.114   5.288   1.744
 4378SOL    HW113700   2.084   5.345   1.820
 4378SOL    HW213701   2.107   5.191   1.770
 4379SOL     OW13702   2.533   4.188   1.269
 4379SOL    HW113703   2.499   4.099   1.239
 4379SOL    HW213704   2.559   4.242   1.189
 4380SOL     OW13705   2.335   4.224   0.191
 4380SOL    HW113706   2.396   4.304   0.195
 4380SOL    HW213707   2.240   4.255   0.198
 4381SOL     OW13708   2.021   4.861   1.466
 4381SOL    HW113709   2.043   4.800   1.542
 4381SOL    HW213710   2.031   4.812   1.380
 4382SOL     OW13711   3.209   4.783   1.234
 4382SOL    HW113712   3.233   4.720   1.160
 4382SOL    HW213713   3.119   4.823   1.216
 4383SOL     OW13714   3.164   4.579   0.309
 4383SOL    HW113715   3.078   4.548   0.351
 4383SOL    HW213716   3.160   4.565   0.210
 4384SOL     OW13717   1.945   4.982   1.022
 4384SOL    HW113718   1.940   4.981   1.122
 4384SOL    HW213719   1.862   4.941   0.984
 4385SOL     OW13720   2.550   5.386   1.716
 4385SOL    HW113721   2.494   5.467   1.725
 4385SOL    HW213722   2.602   5.390   1.630
 4386SOL     OW13723   2.765   3.810   0.133
 4386SOL    HW113724   2.816   3.811   0.047
 4386SOL    HW213725   2.821   3.768   0.204
 4387SOL     OW13726   3.588   3.859   0.523
 4387SOL    HW113727   3.661   3.842   0.456
 4387SOL    HW213728   3.557   3.772   0.561
 4388SOL     OW13729   3.142   4.651   0.672
 4388SOL    HW113730   3.202   4.570   0.674
 4388SOL    HW213731   3.182   4.720   0.612
 4389SOL     OW13732   2.692   4.997   1.422
 4389SOL    HW113733   2.687   5.030   1.517
 4389SOL    HW213734   2.606   5.016   1.376
 4390SOL     OW13735   3.703   3.899   0.963
 4390SOL    HW113736   3.742   3.814   0.927
 4390SOL    HW213737   3.605   3.901   0.944
 4391SOL     OW13738   2.125   4.050   0.720
 4391SOL    HW113739   2.046   4.101   0.686
 4391SOL    HW213740   2.116   4.035   0.818
 4392SOL     OW13741   3.056   5.336   0.031
 4392SOL    HW113742   3.062   5.243   0.068
 4392SOL    HW213743   2.997   5.336  -0.049
 4393SOL     OW13744   2.684   4.726   1.372
 4393SOL    HW113745   2.724   4.725   1.280
 4393SOL    HW213746   2.694   4.818   1.412
 4394SOL     OW13747   2.778   4.634   0.291
 4394SOL    HW113748   2.841   4.672   0.223
 4394SOL    HW213749   2.818   4.551   0.330
 4395SOL     OW13750   2.234   5.012   1.490
 4395SOL    HW113751   2.221   5.105   1.456
 4395SOL    HW213752   2.150   4.960   1.477
 4396SOL     OW13753   3.476   5.016   1.289
 4396SOL    HW113754   3.536   5.019   1.369
 4396SOL    HW213755   3.401   5.080   1.302
 4397SOL     OW13756   2.901   4.822   0.696
 4397SOL    HW113757   2.831   4.775   0.750
 4397SOL    HW213758   2.960   4.754   0.653
 4398SOL     OW13759   2.876   3.960   0.971
 4398SOL    HW113760   2.868   3.924   0.878
 4398SOL    HW213761   2.874   3.884   1.036
 4399SOL     OW13762   3.571   4.109   1.381
 4399SOL    HW113763   3.644   4.178   1.385
 4399SOL    HW213764   3.599   4.034   1.322
 4400SOL     OW13765   2.117   5.072   0.290
 4400SOL    HW113766   2.021   5.073   0.263
 4400SOL    HW213767   2.129   5.125   0.374
 4401SOL     OW13768   1.967   4.737   1.726
 4401SOL    HW113769   1.890   4.704   1.780
 4401SOL    HW213770   2.052   4.707   1.768
 4402SOL     OW13771   2.534   3.927   1.489
 4402SOL    HW113772   2.624   3.911   1.449
 4402SOL    HW213773   2.542   3.932   1.588
 4403SOL     OW13774   1.937   4.069   0.033
 4403SOL    HW113775   1.845   4.041   0.004
 4403SOL    HW213776   1.968   4.146  -0.023
 4404SOL     OW13777   3.302   4.580   1.398
 4404SOL    HW113778   3.245   4.632   1.335
 4404SOL    HW213779   3.398   4.592   1.374
 4405SOL     OW13780   1.934   3.890   0.318
 4405SOL    HW113781   1.917   3.973   0.264
 4405SOL    HW213782   2.024   3.853   0.296
 4406SOL     OW13783   3.045   5.059   0.119
 4406SOL    HW113784   2.946   5.048   0.121
 4406SOL    HW213785   3.079   5.074   0.212
 4407SOL     OW13786   2.475   4.566   1.431
 4407SOL    HW113787   2.531   4.647   1.414
 4407SOL    HW213788   2.534   4.486   1.434
 4408SOL     OW13789   2.578   4.289   1.708
 4408SOL    HW113790   2.597   4.354   1.782
 4408SOL    HW213791   2.638   4.209   1.717
 4409SOL     OW13792   3.312   4.944   1.633
 4409SOL    HW113793   3.303   4.934   1.732
 4409SOL    HW213794   3.408   4.937   1.607
 4410SOL     OW13795   3.536   4.607   1.254
 4410SOL    HW113796   3.509   4.518   1.217
 4410SOL    HW213797   3.537   4.675   1.181
 4411SOL     OW13798   3.087   4.049   0.449
 4411SOL    HW113799   3.152   3.975   0.438
 4411SOL    HW213800   3.107   4.099   0.533
 4412SOL     OW13801   2.456   4.469   0.652
 4412SOL    HW113802   2.506   4.554   0.633
 4412SOL    HW213803   2.368   4.471   0.604
 4413SOL     OW13804   3.639   4.066   1.642
 4413SOL    HW113805   3.622   4.097   1.548
 4413SOL    HW213806   3.555   4.029   1.680
 4414SOL     OW13807   3.592   4.658   1.517
 4414SOL    HW113808   3.630   4.749   1.532
 4414SOL    HW213809   3.584   4.641   1.418
 4415SOL     OW13810   2.721   5.098   0.016
 4415SOL    HW113811   2.675   5.113   0.104
 4415SOL    HW213812   2.765   5.183  -0.014
 4416SOL     OW13813   2.721   4.680   0.861
 4416SOL    HW113814   2.775   4.611   0.909
 4416SOL    HW213815   2.689   4.749   0.927
 4417SOL     OW13816   2.945   4.708   0.087
 4417SOL    HW113817   2.922   4.761   0.005
 4417SOL    HW213818   3.026   4.652   0.068
 4418SOL     OW13819   2.083   5.038   1.844
 4418SOL    HW113820   2.018   4.965   1.823
 4418SOL    HW213821   2.087   5.052   1.942
 4419SOL     OW13822   1.941   4.964   0.653
 4419SOL    HW113823   1.940   4.917   0.741
 4419SOL    HW213824   2.023   4.936   0.602
 4420SOL     OW13825   2.534   5.115   1.624
 4420SOL    HW113826   2.456   5.065   1.662
 4420SOL    HW213827   2.531   5.210   1.655
 4421SOL     OW13828   3.686   3.916   1.227
 4421SOL    HW113829   3.682   3.826   1.271
 4421SOL    HW213830   3.689   3.905   1.128
 4422SOL     OW13831   2.290   4.148   0.520
 4422SOL    HW113832   2.320   4.076   0.458
 4422SOL    HW213833   2.251   4.108   0.603
 4423SOL     OW13834   3.567   5.211   1.104
 4423SOL    HW113835   3.474   5.186   1.077
 4423SOL    HW213836   3.593   5.161   1.186
 4424SOL     OW13837   2.179   4.271   1.280
 4424SOL    HW113838   2.217   4.212   1.352
 4424SOL    HW213839   2.219   4.245   1.192
 4425SOL     OW13840   3.286   3.938   1.112
 4425SOL    HW113841   3.338   3.873   1.167
 4425SOL    HW213842   3.237   4.001   1.173
 4426SOL     OW13843   2.863   3.758   1.154
 4426SOL    HW113844   2.800   3.686   1.123
 4426SOL    HW213845   2.956   3.722   1.154
 4427SOL     OW13846   2.632   5.054   0.301
 4427SOL    HW113847   2.586   4.967   0.318
 4427SOL    HW213848   2.723   5.051   0.342
 4428SOL     OW13849   2.480   5.291   1.284
 4428SOL    HW113850   2.475   5.373   1.341
 4428SOL    HW213851   2.569   5.288   1.239
 4429SOL     OW13852   3.214   3.776   0.168
 4429SOL    HW113853   3.249   3.735   0.084
 4429SOL    HW213854   3.124   3.738   0.188
 4430SOL     OW13855   3.162   4.177   0.691
 4430SOL    HW113856   3.103   4.257   0.695
 4430SOL    HW213857   3.177   4.142   0.784
 4431SOL     OW13858   3.455   3.945   0.882
 4431SOL    HW113859   3.371   3.944   0.936
 4431SOL    HW213860   3.457   4.028   0.826
 4432SOL     OW13861   1.901   4.801   0.300
 4432SOL    HW113862   2.000   4.790   0.291
 4432SOL    HW213863   1.861   4.715   0.332
 4433SOL     OW13864   2.092   4.352   1.975
 4433SOL    HW113865   1.999   4.350   2.012
 4433SOL    HW213866   2.093   4.313   1.883
 4434SOL     OW13867   2.087   3.999   2.858
 4434SOL    HW113868   2.122   3.982   2.950
 4434SOL    HW213869   1.999   3.954   2.846
 4435SOL     OW13870   1.881   4.092   2.509
 4435SOL    HW113871   1.799   4.135   2.548
 4435SOL    HW213872   1.853   4.019   2.446
 4436SOL     OW13873   2.431   4.999   3.027
 4436SOL    HW113874   2.338   4.992   2.990
 4436SOL    HW213875   2.442   5.088   3.071
 4437SOL     OW13876   3.417   5.235   2.565
 4437SOL    HW113877   3.360   5.219   2.646
 4437SOL    HW213878   3.358   5.245   2.485
 4438SOL     OW13879   2.997   4.427   2.579
 4438SOL    HW113880   3.054   4.505   2.554
 4438SOL    HW213881   2.937   4.453   2.655
 4439SOL     OW13882   3.617   4.331   2.093
 4439SOL    HW113883   3.605   4.318   1.994
 4439SOL    HW213884   3.587   4.250   2.142
 4440SOL     OW13885   2.630   4.868   2.885
 4440SOL    HW113886   2.552   4.885   2.945
 4440SOL    HW213887   2.664   4.955   2.849
 4441SOL     OW13888   2.712   4.522   3.685
 4441SOL    HW113889   2.708   4.598   3.750
 4441SOL    HW213890   2.734   4.558   3.594
 4442SOL     OW13891   2.547   4.736   2.527
 4442SOL    HW113892   2.616   4.720   2.597
 4442SOL    HW213893   2.474   4.793   2.565
 4443SOL     OW13894   2.548   4.885   3.665
 4443SOL    HW113895   2.608   4.964   3.679
 4443SOL    HW213896   2.462   4.916   3.624
 4444SOL     OW13897   2.197   5.159   2.923
 4444SOL    HW113898   2.119   5.128   2.870
 4444SOL    HW213899   2.255   5.217   2.866
 4445SOL     OW13900   3.322   5.229   3.201
 4445SOL    HW113901   3.346   5.323   3.227
 4445SOL    HW213902   3.306   5.175   3.283
 4446SOL     OW13903   2.300   4.116   3.361
 4446SOL    HW113904   2.382   4.060   3.370
 4446SOL    HW213905   2.219   4.058   3.365
 4447SOL     OW13906   3.465   4.171   2.599
 4447SOL    HW113907   3.391   4.217   2.549
 4447SOL    HW213908   3.516   4.239   2.652
 4448SOL     OW13909   2.989   5.065   3.552
 4448SOL    HW113910   3.036   5.065   3.640
 4448SOL    HW213911   2.941   4.978   3.541
 4449SOL     OW13912   2.092   5.158   2.400
 4449SOL    HW113913   2.066   5.254   2.400
 4449SOL    HW213914   2.021   5.104   2.445
 4450SOL     OW13915   2.102   4.815   2.748
 4450SOL    HW113916   2.116   4.731   2.800
 4450SOL    HW213917   2.047   4.879   2.803
 4451SOL     OW13918   2.468   4.688   1.985
 4451SOL    HW113919   2.475   4.772   1.931
 4451SOL    HW213920   2.514   4.701   2.073
 4452SOL     OW13921   3.456   3.838   3.342
 4452SOL    HW113922   3.438   3.905   3.270
 4452SOL    HW213923   3.453   3.884   3.431
 4453SOL     OW13924   1.984   4.367   2.425
 4453SOL    HW113925   1.939   4.279   2.442
 4453SOL    HW213926   1.983   4.421   2.509
 4454SOL     OW13927   1.889   5.320   1.979
 4454SOL    HW113928   1.870   5.224   2.000
 4454SOL    HW213929   1.856   5.378   2.054
 4455SOL     OW13930   3.551   4.646   2.474
 4455SOL    HW113931   3.646   4.617   2.482
 4455SOL    HW213932   3.543   4.711   2.399
 4456SOL     OW13933   3.503   4.832   2.294
 4456SOL    HW113934   3.589   4.834   2.242
 4456SOL    HW213935   3.517   4.879   2.382
 4457SOL     OW13936   1.975   4.461   3.459
 4457SOL    HW113937   2.063   4.448   3.504
 4457SOL    HW213938   1.962   4.558   3.437
 4458SOL     OW13939   2.475   5.089   2.588
 4458SOL    HW113940   2.426   5.002   2.597
 4458SOL    HW213941   2.452   5.132   2.501
 4459SOL     OW13942   3.155   4.952   3.285
 4459SOL    HW113943   3.192   4.879   3.227
 4459SOL    HW213944   3.207   4.957   3.370
 4460SOL     OW13945   2.671   3.728   2.364
 4460SOL    HW113946   2.711   3.819   2.355
 4460SOL    HW213947   2.571   3.736   2.370
 4461SOL     OW13948   2.059   4.700   3.126
 4461SOL    HW113949   2.148   4.655   3.112
 4461SOL    HW213950   1.986   4.635   3.107
 4462SOL     OW13951   3.387   4.723   2.052
 4462SOL    HW113952   3.324   4.647   2.065
 4462SOL    HW213953   3.435   4.741   2.138
 4463SOL     OW13954   2.179   3.975   3.663
 4463SOL    HW113955   2.250   4.046   3.669
 4463SOL    HW213956   2.091   4.014   3.691
 4464SOL     OW13957   3.328   5.141   2.815
 4464SOL    HW113958   3.269   5.147   2.895
 4464SOL    HW213959   3.313   5.053   2.769
 4465SOL     OW13960   2.460   4.453   2.132
 4465SOL    HW113961   2.484   4.522   2.064
 4465SOL    HW213962   2.382   4.486   2.186
 4466SOL     OW13963   3.143   4.069   2.806
 4466SOL    HW113964   3.057   4.019   2.793
 4466SOL    HW213965   3.205   4.015   2.862
 4467SOL     OW13966   2.669   4.329   3.327
 4467SOL    HW113967   2.622   4.326   3.416
 4467SOL    HW213968   2.618   4.274   3.261
 4468SOL     OW13969   3.256   4.193   3.536
 4468SOL    HW113970   3.236   4.236   3.624
 4468SOL    HW213971   3.334   4.131   3.545
 4469SOL     OW13972   2.835   4.614   3.434
 4469SOL    HW113973   2.881   4.530   3.405
 4469SOL    HW213974   2.779   4.648   3.359
 4470SOL     OW13975   2.853   4.134   3.104
 4470SOL    HW113976   2.776   4.168   3.158
 4470SOL    HW213977   2.819   4.083   3.025
 4471SOL     OW13978   2.903   4.425   2.291
 4471SOL    HW113979   2.929   4.421   2.387
 4471SOL    HW213980   2.818   4.374   2.277
 4472SOL     OW13981   1.938   4.535   2.651
 4472SOL    HW113982   2.037   4.523   2.660
 4472SOL    HW213983   1.914   4.630   2.672
 4473SOL     OW13984   2.727   4.072   2.057
 4473SOL    HW113985   2.786   4.135   2.008
 4473SOL    HW213986   2.746   3.978   2.028
 4474SOL     OW13987   3.581   4.309   3.693
 4474SOL    HW113988   3.555   4.398   3.657
 4474SOL    HW213989   3.579   4.241   3.620
 4475SOL     OW13990   3.224   4.868   2.407
 4475SOL    HW113991   3.307   4.839   2.359
 4475SOL    HW213992   3.175   4.935   2.351
 4476SOL     OW13993   2.412   3.920   2.747
 4476SOL    HW113994   2.407   3.915   2.847
 4476SOL    HW213995   2.414   4.016   2.718
 4477SOL     OW13996   2.870   5.180   2.339
 4477SOL    HW113997   2.824   5.252   2.287
 4477SOL    HW213998   2.866   5.200   2.437
 4478SOL     OW13999   3.657   4.790   2.735
 4478SOL    HW114000   3.595   4.775   2.659
 4478SOL    HW214001   3.605   4.801   2.820
 4479SOL     OW14002   3.089   5.274   3.368
 4479SOL    HW114003   3.095   5.197   3.432
 4479SOL    HW214004   3.037   5.248   3.288
 4480SOL     OW14005   2.183   4.667   2.104
 4480SOL    HW114006   2.265   4.706   2.062
 4480SOL    HW214007   2.156   4.585   2.055
 4481SOL     OW14008   3.320   4.459   2.590
 4481SOL    HW114009   3.315   4.394   2.665
 4481SOL    HW214010   3.400   4.518   2.603
 4482SOL     OW14011   2.323   4.990   3.589
 4482SOL    HW114012   2.273   4.991   3.503
 4482SOL    HW214013   2.260   4.972   3.665
 4483SOL     OW14014   2.973   5.500   2.099
 4483SOL    HW114015   2.913   5.438   2.149
 4483SOL    HW214016   3.004   5.456   2.014
 4484SOL     OW14017   2.064   4.009   3.360
 4484SOL    HW114018   1.984   4.069   3.347
 4484SOL    HW214019   2.054   3.960   3.446
 4485SOL     OW14020   3.494   5.101   1.943
 4485SOL    HW114021   3.462   5.195   1.933
 4485SOL    HW214022   3.418   5.038   1.931
 4486SOL     OW14023   3.262   3.831   2.288
 4486SOL    HW114024   3.238   3.794   2.198
 4486SOL    HW214025   3.361   3.847   2.292
 4487SOL     OW14026   2.244   4.424   2.342
 4487SOL    HW114027   2.289   4.334   2.339
 4487SOL    HW214028   2.150   4.413   2.375
 4488SOL     OW14029   3.409   3.946   3.591
 4488SOL    HW114030   3.404   3.983   3.683
 4488SOL    HW214031   3.337   3.877   3.579
 4489SOL     OW14032   2.476   3.846   1.979
 4489SOL    HW114033   2.574   3.824   1.986
 4489SOL    HW214034   2.445   3.829   1.886
 4490SOL     OW14035   2.643   3.988   3.611
 4490SOL    HW114036   2.710   3.927   3.654
 4490SOL    HW214037   2.570   4.007   3.676
 4491SOL     OW14038   3.213   4.314   3.295
 4491SOL    HW114039   3.241   4.271   3.380
 4491SOL    HW214040   3.238   4.410   3.296
 4492SOL     OW14041   2.665   5.126   2.786
 4492SOL    HW114042   2.755   5.140   2.744
 4492SOL    HW214043   2.594   5.128   2.715
 4493SOL     OW14044   2.784   4.227   2.761
 4493SOL    HW114045   2.759   4.218   2.665
 4493SOL    HW214046   2.832   4.145   2.792
 4494SOL     OW14047   2.401   3.788   2.374
 4494SOL    HW114048   2.320   3.789   2.432
 4494SOL    HW214049   2.404   3.871   2.319
 4495SOL     OW14050   3.296   4.912   1.903
 4495SOL    HW114051   3.328   4.836   1.960
 4495SOL    HW214052   3.204   4.939   1.933
 4496SOL     OW14053   2.159   3.759   2.033
 4496SOL    HW114054   2.208   3.843   2.012
 4496SOL    HW214055   2.221   3.694   2.078
 4497SOL     OW14056   2.797   3.960   2.342
 4497SOL    HW114057   2.749   4.001   2.264
 4497SOL    HW214058   2.896   3.958   2.323
 4498SOL     OW14059   2.938   4.407   3.326
 4498SOL    HW114060   2.858   4.346   3.329
 4498SOL    HW214061   3.019   4.354   3.302
 4499SOL     OW14062   3.089   5.294   2.655
 4499SOL    HW114063   3.110   5.368   2.590
 4499SOL    HW214064   3.157   5.294   2.728
 4500SOL     OW14065   2.321   4.876   2.603
 4500SOL    HW114066   2.250   4.849   2.668
 4500SOL    HW214067   2.295   4.848   2.510
 4501SOL     OW14068   2.894   4.273   1.878
 4501SOL    HW114069   2.853   4.355   1.839
 4501SOL    HW214070   2.958   4.299   1.951
 4502SOL     OW14071   1.940   4.280   3.248
 4502SOL    HW114072   2.032   4.279   3.207
 4502SOL    HW214073   1.934   4.354   3.315
 4503SOL     OW14074   2.423   3.946   3.009
 4503SOL    HW114075   2.461   3.862   3.046
 4503SOL    HW214076   2.335   3.965   3.053
 4504SOL     OW14077   2.728   4.178   2.504
 4504SOL    HW114078   2.696   4.250   2.442
 4504SOL    HW214079   2.752   4.097   2.451
 4505SOL     OW14080   2.879   3.763   2.615
 4505SOL    HW114081   2.807   3.768   2.546
 4505SOL    HW214082   2.855   3.694   2.684
 4506SOL     OW14083   3.291   4.897   2.729
 4506SOL    HW114084   3.236   4.813   2.722
 4506SOL    HW214085   3.317   4.926   2.637
 4507SOL     OW14086   3.328   4.314   2.854
 4507SOL    HW114087   3.298   4.219   2.861
 4507SOL    HW214088   3.401   4.330   2.920
 4508SOL     OW14089   3.719   4.557   2.239
 4508SOL    HW114090   3.761   4.493   2.303
 4508SOL    HW214091   3.681   4.506   2.161
 4509SOL     OW14092   2.350   5.109   2.036
 4509SOL    HW114093   2.263   5.094   2.083
 4509SOL    HW214094   2.333   5.135   1.941
 4510SOL     OW14095   3.526   5.004   2.519
 4510SOL    HW114096   3.625   5.012   2.533
 4510SOL    HW214097   3.481   5.088   2.550
 4511SOL     OW14098   3.252   4.299   1.940
 4511SOL    HW114099   3.198   4.278   2.021
 4511SOL    HW214100   3.343   4.258   1.949
 4512SOL     OW14101   2.389   3.980   2.190
 4512SOL    HW114102   2.416   3.921   2.115
 4512SOL    HW214103   2.389   4.075   2.159
 4513SOL     OW14104   3.616   4.947   3.450
 4513SOL    HW114105   3.707   4.908   3.437
 4513SOL    HW214106   3.624   5.043   3.474
 4514SOL     OW14107   2.926   5.071   3.202
 4514SOL    HW114108   2.846   5.048   3.257
 4514SOL    HW214109   3.009   5.045   3.251
 4515SOL     OW14110   2.973   4.919   2.962
 4515SOL    HW114111   2.933   4.963   3.043
 4515SOL    HW214112   2.932   4.956   2.879
 4516SOL     OW14113   3.500   4.823   2.941
 4516SOL    HW114114   3.505   4.904   3.000
 4516SOL    HW214115   3.414   4.825   2.890
 4517SOL     OW14116   2.777   3.813   3.264
 4517SOL    HW114117   2.802   3.793   3.169
 4517SOL    HW214118   2.849   3.869   3.306
 4518SOL     OW14119   2.842   4.840   3.581
 4518SOL    HW114120   2.743   4.846   3.591
 4518SOL    HW214121   2.865   4.760   3.525
 4519SOL     OW14122   2.567   4.774   2.230
 4519SOL    HW114123   2.553   4.781   2.329
 4519SOL    HW214124   2.651   4.723   2.212
 4520SOL     OW14125   2.272   4.537   3.113
 4520SOL    HW114126   2.358   4.549   3.163
 4520SOL    HW214127   2.230   4.450   3.140
 4521SOL     OW14128   3.136   4.110   3.124
 4521SOL    HW114129   3.157   4.184   3.188
 4521SOL    HW214130   3.047   4.127   3.081
 4522SOL     OW14131   2.229   4.824   2.363
 4522SOL    HW114132   2.222   4.907   2.307
 4522SOL    HW214133   2.233   4.744   2.303
 4523SOL     OW14134   2.428   4.261   2.727
 4523SOL    HW114135   2.440   4.327   2.653
 4523SOL    HW214136   2.474   4.295   2.810
 4524SOL     OW14137   3.114   5.072   2.250
 4524SOL    HW114138   3.164   5.149   2.290
 4524SOL    HW214139   3.019   5.074   2.282
 4525SOL     OW14140   3.134   5.169   3.004
 4525SOL    HW114141   3.181   5.182   3.091
 4525SOL    HW214142   3.068   5.095   3.013
 4526SOL     OW14143   3.444   4.363   2.334
 4526SOL    HW114144   3.413   4.424   2.407
 4526SOL    HW214145   3.494   4.415   2.265
 4527SOL     OW14146   2.216   5.234   3.191
 4527SOL    HW114147   2.195   5.190   3.104
 4527SOL    HW214148   2.313   5.260   3.194
 4528SOL     OW14149   2.264   4.475   3.460
 4528SOL    HW114150   2.332   4.530   3.413
 4528SOL    HW214151   2.304   4.387   3.487
 4529SOL     OW14152   3.449   4.503   3.532
 4529SOL    HW114153   3.357   4.541   3.527
 4529SOL    HW214154   3.509   4.550   3.467
 4530SOL     OW14155   2.875   3.829   3.632
 4530SOL    HW114156   2.881   3.914   3.580
 4530SOL    HW214157   2.907   3.753   3.575
 4531SOL     OW14158   2.366   3.774   3.602
 4531SOL    HW114159   2.324   3.717   3.532
 4531SOL    HW214160   2.300   3.843   3.634
 4532SOL     OW14161   2.435   4.594   2.891
 4532SOL    HW114162   2.479   4.683   2.882
 4532SOL    HW214163   2.372   4.594   2.968
 4533SOL     OW14164   3.222   4.586   2.907
 4533SOL    HW114165   3.147   4.586   2.841
 4533SOL    HW214166   3.259   4.494   2.916
 4534SOL     OW14167   3.071   4.249   2.137
 4534SOL    HW114168   3.084   4.165   2.191
 4534SOL    HW214169   3.042   4.323   2.197
 4535SOL     OW14170   2.169   3.937   3.093
 4535SOL    HW114171   2.146   3.974   3.183
 4535SOL    HW214172   2.139   3.842   3.087
 4536SOL     OW14173   1.899   5.034   3.144
 4536SOL    HW114174   1.952   4.985   3.212
 4536SOL    HW214175   1.921   5.132   3.149
 4537SOL     OW14176   2.594   4.358   2.926
 4537SOL    HW114177   2.653   4.332   2.850
 4537SOL    HW214178   2.566   4.454   2.915
 4538SOL     OW14179   3.590   4.659   3.716
 4538SOL    HW114180   3.544   4.652   3.627
 4538SOL    HW214181   3.528   4.703   3.782
 4539SOL     OW14182   2.169   3.787   2.480
 4539SOL    HW114183   2.158   3.881   2.513
 4539SOL    HW214184   2.164   3.724   2.557
 4540SOL     OW14185   3.484   4.091   2.236
 4540SOL    HW114186   3.486   4.015   2.300
 4540SOL    HW214187   3.436   4.168   2.276
 4541SOL     OW14188   2.885   4.490   2.828
 4541SOL    HW114189   2.900   4.511   2.924
 4541SOL    HW214190   2.855   4.395   2.819
 4542SOL     OW14191   3.721   5.242   3.467
 4542SOL    HW114192   3.735   5.269   3.372
 4542SOL    HW214193   3.804   5.264   3.520
 4543SOL     OW14194   2.212   4.622   3.666
 4543SOL    HW114195   2.288   4.666   3.714
 4543SOL    HW214196   2.247   4.575   3.584
 4544SOL     OW14197   3.402   3.998   1.987
 4544SOL    HW114198   3.341   3.923   2.010
 4544SOL    HW214199   3.424   4.050   2.070
 4545SOL     OW14200   3.165   4.562   1.904
 4545SOL    HW114201   3.199   4.469   1.919
 4545SOL    HW214202   3.183   4.589   1.809
 4546SOL     OW14203   2.930   5.057   2.711
 4546SOL    HW114204   2.937   4.973   2.656
 4546SOL    HW214205   2.992   5.126   2.675
 4547SOL     OW14206   2.181   4.534   2.811
 4547SOL    HW114207   2.274   4.570   2.816
 4547SOL    HW214208   2.175   4.449   2.863
 4548SOL     OW14209   2.201   4.233   2.868
 4548SOL    HW114210   2.149   4.150   2.851
 4548SOL    HW214211   2.278   4.238   2.804
 4549SOL     OW14212   3.000   4.104   3.540
 4549SOL    HW114213   2.955   4.167   3.604
 4549SOL    HW214214   3.093   4.135   3.523
 4550SOL     OW14215   3.022   3.931   3.339
 4550SOL    HW114216   3.022   3.995   3.416
 4550SOL    HW214217   3.050   3.979   3.256
 4551SOL     OW14218   1.870   5.050   2.062
 4551SOL    HW114219   1.777   5.071   2.031
 4551SOL    HW214220   1.880   4.951   2.075
 4552SOL     OW14221   2.864   4.520   3.100
 4552SOL    HW114222   2.905   4.488   3.186
 4552SOL    HW214223   2.768   4.493   3.097
 4553SOL     OW14224   1.902   4.268   2.976
 4553SOL    HW114225   1.987   4.235   2.935
 4553SOL    HW214226   1.915   4.283   3.074
 4554SOL     OW14227   2.051   4.244   3.584
 4554SOL    HW114228   2.110   4.204   3.514
 4554SOL    HW214229   1.993   4.315   3.543
 4555SOL     OW14230   3.231   4.674   3.522
 4555SOL    HW114231   3.270   4.763   3.542
 4555SOL    HW214232   3.241   4.654   3.425
 4556SOL     OW14233   2.677   4.296   2.187
 4556SOL    HW114234   2.684   4.207   2.141
 4556SOL    HW214235   2.583   4.330   2.179
 4557SOL     OW14236   3.519   4.328   3.068
 4557SOL    HW114237   3.481   4.259   3.130
 4557SOL    HW214238   3.601   4.292   3.024
 4558SOL     OW14239   2.114   5.288   3.606
 4558SOL    HW114240   2.084   5.345   3.682
 4558SOL    HW214241   2.107   5.191   3.632
 4559SOL     OW14242   2.533   4.188   3.131
 4559SOL    HW114243   2.499   4.099   3.101
 4559SOL    HW214244   2.559   4.242   3.051
 4560SOL     OW14245   2.335   4.224   2.053
 4560SOL    HW114246   2.396   4.304   2.057
 4560SOL    HW214247   2.240   4.255   2.060
 4561SOL     OW14248   2.021   4.861   3.328
 4561SOL    HW114249   2.043   4.800   3.404
 4561SOL    HW214250   2.031   4.812   3.242
 4562SOL     OW14251   3.209   4.783   3.096
 4562SOL    HW114252   3.233   4.720   3.022
 4562SOL    HW214253   3.119   4.823   3.078
 4563SOL     OW14254   3.164   4.579   2.171
 4563SOL    HW114255   3.078   4.548   2.213
 4563SOL    HW214256   3.160   4.565   2.072
 4564SOL     OW14257   1.945   4.982   2.884
 4564SOL    HW114258   1.940   4.981   2.984
 4564SOL    HW214259   1.862   4.941   2.846
 4565SOL     OW14260   2.550   5.386   3.578
 4565SOL    HW114261   2.494   5.467   3.587
 4565SOL    HW214262   2.602   5.390   3.492
 4566SOL     OW14263   3.588   3.859   2.385
 4566SOL    HW114264   3.661   3.842   2.318
 4566SOL    HW214265   3.557   3.772   2.423
 4567SOL     OW14266   3.142   4.651   2.534
 4567SOL    HW114267   3.202   4.570   2.536
 4567SOL    HW214268   3.182   4.720   2.474
 4568SOL     OW14269   2.692   4.997   3.284
 4568SOL    HW114270   2.687   5.030   3.379
 4568SOL    HW214271   2.606   5.016   3.238
 4569SOL     OW14272   3.703   3.899   2.825
 4569SOL    HW114273   3.742   3.814   2.789
 4569SOL    HW214274   3.605   3.901   2.806
 4570SOL     OW14275   2.125   4.050   2.582
 4570SOL    HW114276   2.046   4.101   2.548
 4570SOL    HW214277   2.116   4.035   2.680
 4571SOL     OW14278   2.684   4.726   3.234
 4571SOL    HW114279   2.724   4.725   3.142
 4571SOL    HW214280   2.694   4.818   3.274
 4572SOL     OW14281   2.778   4.634   2.153
 4572SOL    HW114282   2.841   4.672   2.085
 4572SOL    HW214283   2.818   4.551   2.192
 4573SOL     OW14284   2.234   5.012   3.352
 4573SOL    HW114285   2.221   5.105   3.318
 4573SOL    HW214286   2.150   4.960   3.339
 4574SOL     OW14287   3.476   5.016   3.151
 4574SOL    HW114288   3.536   5.019   3.231
 4574SOL    HW214289   3.401   5.080   3.164
 4575SOL     OW14290   2.901   4.822   2.558
 4575SOL    HW114291   2.831   4.775   2.612
 4575SOL    HW214292   2.960   4.754   2.515
 4576SOL     OW14293   2.876   3.960   2.833
 4576SOL    HW114294   2.868   3.924   2.740
 4576SOL    HW214295   2.874   3.884   2.898
 4577SOL     OW14296   3.571   4.109   3.243
 4577SOL    HW114297   3.644   4.178   3.247
 4577SOL    HW214298   3.599   4.034   3.184
 4578SOL     OW14299   2.117   5.072   2.152
 4578SOL    HW114300   2.021   5.073   2.125
 4578SOL    HW214301   2.129   5.125   2.236
 4579SOL     OW14302   1.967   4.737   3.588
 4579SOL    HW114303   1.890   4.704   3.642
 4579SOL    HW214304   2.052   4.707   3.630
 4580SOL     OW14305   2.534   3.927   3.351
 4580SOL    HW114306   2.624   3.911   3.311
 4580SOL    HW214307   2.542   3.932   3.450
 4581SOL     OW14308   1.937   4.069   1.895
 4581SOL    HW114309   1.845   4.041   1.866
 4581SOL    HW214310   1.968   4.146   1.839
 4582SOL     OW14311   3.302   4.580   3.260
 4582SOL    HW114312   3.245   4.632   3.197
 4582SOL    HW214313   3.398   4.592   3.236
 4583SOL     OW14314   1.934   3.890   2.180
 4583SOL    HW114315   1.917   3.973   2.126
 4583SOL    HW214316   2.024   3.853   2.158
 4584SOL     OW14317   3.045   5.059   1.981
 4584SOL    HW114318   2.946   5.048   1.983
 4584SOL    HW214319   3.079   5.074   2.074
 4585SOL     OW14320   2.475   4.566   3.293
 4585SOL    HW114321   2.531   4.647   3.276
 4585SOL    HW214322   2.534   4.486   3.296
 4586SOL     OW14323   2.578   4.289   3.570
 4586SOL    HW114324   2.597   4.354   3.644
 4586SOL    HW214325   2.638   4.209   3.579
 4587SOL     OW14326   3.312   4.944   3.495
 4587SOL    HW114327   3.303   4.934   3.594
 4587SOL    HW214328   3.408   4.937   3.469
 4588SOL     OW14329   3.536   4.607   3.116
 4588SOL    HW114330   3.509   4.518   3.079
 4588SOL    HW214331   3.537   4.675   3.043
 4589SOL     OW14332   3.087   4.049   2.311
 4589SOL    HW114333   3.152   3.975   2.300
 4589SOL    HW214334   3.107   4.099   2.395
 4590SOL     OW14335   2.456   4.469   2.514
 4590SOL    HW114336   2.506   4.554   2.495
 4590SOL    HW214337   2.368   4.471   2.466
 4591SOL     OW14338   3.639   4.066   3.504
 4591SOL    HW114339   3.622   4.097   3.410
 4591SOL    HW214340   3.555   4.029   3.542
 4592SOL     OW14341   3.592   4.658   3.379
 4592SOL    HW114342   3.630   4.749   3.394
 4592SOL    HW214343   3.584   4.641   3.280
 4593SOL     OW14344   2.721   5.098   1.878
 4593SOL    HW114345   2.675   5.113   1.966
 4593SOL    HW214346   2.765   5.183   1.848
 4594SOL     OW14347   2.721   4.680   2.723
 4594SOL    HW114348   2.775   4.611   2.771
 4594SOL    HW214349   2.689   4.749   2.789
 4595SOL     OW14350   2.945   4.708   1.949
 4595SOL    HW114351   2.922   4.761   1.867
 4595SOL    HW214352   3.026   4.652   1.930
 4596SOL     OW14353   2.083   5.038   3.706
 4596SOL    HW114354   2.018   4.965   3.685
 4596SOL    HW214355   2.087   5.052   3.804
 4597SOL     OW14356   1.941   4.964   2.515
 4597SOL    HW114357   1.940   4.917   2.603
 4597SOL    HW214358   2.023   4.936   2.464
 4598SOL     OW14359   2.534   5.115   3.486
 4598SOL    HW114360   2.456   5.065   3.524
 4598SOL    HW214361   2.531   5.210   3.517
 4599SOL     OW14362   3.686   3.916   3.089
 4599SOL    HW114363   3.682   3.826   3.133
 4599SOL    HW214364   3.689   3.905   2.990
 4600SOL     OW14365   2.290   4.148   2.382
 4600SOL    HW114366   2.320   4.076   2.320
 4600SOL    HW214367   2.251   4.108   2.465
 4601SOL     OW14368   3.567   5.211   2.966
 4601SOL    HW114369   3.474   5.186   2.939
 4601SOL    HW214370   3.593   5.161   3.048
 4602SOL     OW14371   2.179   4.271   3.142
 4602SOL    HW114372   2.217   4.212   3.214
 4602SOL    HW214373   2.219   4.245   3.054
 4603SOL     OW14374   3.286   3.938   2.974
 4603SOL    HW114375   3.338   3.873   3.029
 4603SOL    HW214376   3.237   4.001   3.035
 4604SOL     OW14377   2.863   3.758   3.016
 4604SOL    HW114378   2.800   3.686   2.985
 4604SOL    HW214379   2.956   3.722   3.016
 4605SOL     OW14380   2.632   5.054   2.163
 4605SOL    HW114381   2.586   4.967   2.180
 4605SOL    HW214382   2.723   5.051   2.204
 4606SOL     OW14383   2.480   5.291   3.146
 4606SOL    HW114384   2.475   5.373   3.203
 4606SOL    HW214385   2.569   5.288   3.101
 4607SOL     OW14386   3.214   3.776   2.030
 4607SOL    HW114387   3.249   3.735   1.946
 4607SOL    HW214388   3.124   3.738   2.050
 4608SOL     OW14389   3.162   4.177   2.553
 4608SOL    HW114390   3.103   4.257   2.557
 4608SOL    HW214391   3.177   4.142   2.646
 4609SOL     OW14392   3.455   3.945   2.744
 4609SOL    HW114393   3.371   3.944   2.798
 4609SOL    HW214394   3.457   4.028   2.688
 4610SOL     OW14395   1.901   4.801   2.162
 4610SOL    HW114396   2.000   4.790   2.153
 4610SOL    HW214397   1.861   4.715   2.194
 4611SOL     OW14398   2.092   4.352   3.837
 4611SOL    HW114399   1.999   4.350   3.874
 4611SOL    HW214400   2.093   4.313   3.745
 4612SOL     OW14401   2.087   3.999   4.720
 4612SOL    HW114402   2.122   3.982   4.812
 4612SOL    HW214403   1.999   3.954   4.708
 4613SOL     OW14404   1.881   4.092   4.371
 4613SOL    HW114405   1.799   4.135   4.410
 4613SOL    HW214406   1.853   4.019   4.308
 4614SOL     OW14407   2.431   4.999   4.889
 4614SOL    HW114408   2.338   4.992   4.852
 4614SOL    HW214409   2.442   5.088   4.933
 4615SOL     OW14410   3.417   5.235   4.427
 4615SOL    HW114411   3.360   5.219   4.508
 4615SOL    HW214412   3.358   5.245   4.347
 4616SOL     OW14413   2.997   4.427   4.441
 4616SOL    HW114414   3.054   4.505   4.416
 4616SOL    HW214415   2.937   4.453   4.517
 4617SOL     OW14416   3.617   4.331   3.955
 4617SOL    HW114417   3.605   4.318   3.856
 4617SOL    HW214418   3.587   4.250   4.004
 4618SOL     OW14419   2.630   4.868   4.747
 4618SOL    HW114420   2.552   4.885   4.807
 4618SOL    HW214421   2.664   4.955   4.711
 4619SOL     OW14422   2.712   4.522   5.547
 4619SOL    HW114423   2.708   4.598   5.612
 4619SOL    HW214424   2.734   4.558   5.456
 4620SOL     OW14425   2.547   4.736   4.389
 4620SOL    HW114426   2.616   4.720   4.459
 4620SOL    HW214427   2.474   4.793   4.427
 4621SOL     OW14428   2.548   4.885   5.527
 4621SOL    HW114429   2.608   4.964   5.541
 4621SOL    HW214430   2.462   4.916   5.486
 4622SOL     OW14431   2.197   5.159   4.785
 4622SOL    HW114432   2.119   5.128   4.732
 4622SOL    HW214433   2.255   5.217   4.728
 4623SOL     OW14434   3.322   5.229   5.063
 4623SOL    HW114435   3.346   5.323   5.089
 4623SOL    HW214436   3.306   5.175   5.145
 4624SOL     OW14437   2.300   4.116   5.223
 4624SOL    HW114438   2.382   4.060   5.232
 4624SOL    HW214439   2.219   4.058   5.227
 4625SOL     OW14440   3.465   4.171   4.461
 4625SOL    HW114441   3.391   4.217   4.411
 4625SOL    HW214442   3.516   4.239   4.514
 4626SOL     OW14443   2.989   5.065   5.414
 4626SOL    HW114444   3.036   5.065   5.502
 4626SOL    HW214445   2.941   4.978   5.403
 4627SOL     OW14446   2.092   5.158   4.262
 4627SOL    HW114447   2.066   5.254   4.262
 4627SOL    HW214448   2.021   5.104   4.307
 4628SOL     OW14449   2.102   4.815   4.610
 4628SOL    HW114450   2.116   4.731   4.662
 4628SOL    HW214451   2.047   4.879   4.665
 4629SOL     OW14452   2.468   4.688   3.847
 4629SOL    HW114453   2.475   4.772   3.793
 4629SOL    HW214454   2.514   4.701   3.935
 4630SOL     OW14455   3.456   3.838   5.204
 4630SOL    HW114456   3.438   3.905   5.132
 4630SOL    HW214457   3.453   3.884   5.293
 4631SOL     OW14458   1.984   4.367   4.287
 4631SOL    HW114459   1.939   4.279   4.304
 4631SOL    HW214460   1.983   4.421   4.371
 4632SOL     OW14461   1.889   5.320   3.841
 4632SOL    HW114462   1.870   5.224   3.862
 4632SOL    HW214463   1.856   5.378   3.916
 4633SOL     OW14464   3.551   4.646   4.336
 4633SOL    HW114465   3.646   4.617   4.344
 4633SOL    HW214466   3.543   4.711   4.261
 4634SOL     OW14467   3.503   4.832   4.156
 4634SOL    HW114468   3.589   4.834   4.104
 4634SOL    HW214469   3.517   4.879   4.244
 4635SOL     OW14470   1.975   4.461   5.321
 4635SOL    HW114471   2.063   4.448   5.366
 4635SOL    HW214472   1.962   4.558   5.299
 4636SOL     OW14473   2.475   5.089   4.450
 4636SOL    HW114474   2.426   5.002   4.459
 4636SOL    HW214475   2.452   5.132   4.363
 4637SOL     OW14476   3.155   4.952   5.147
 4637SOL    HW114477   3.192   4.879   5.089
 4637SOL    HW214478   3.207   4.957   5.232
 4638SOL     OW14479   2.671   3.728   4.226
 4638SOL    HW114480   2.711   3.819   4.217
 4638SOL    HW214481   2.571   3.736   4.232
 4639SOL     OW14482   2.059   4.700   4.988
 4639SOL    HW114483   2.148   4.655   4.974
 4639SOL    HW214484   1.986   4.635   4.969
 4640SOL     OW14485   3.387   4.723   3.914
 4640SOL    HW114486   3.324   4.647   3.927
 4640SOL    HW214487   3.435   4.741   4.000
 4641SOL     OW14488   2.179   3.975   5.525
 4641SOL    HW114489   2.250   4.046   5.531
 4641SOL    HW214490   2.091   4.014   5.553
 4642SOL     OW14491   3.328   5.141   4.677
 4642SOL    HW114492   3.269   5.147   4.757
 4642SOL    HW214493   3.313   5.053   4.631
 4643SOL     OW14494   2.460   4.453   3.994
 4643SOL    HW114495   2.484   4.522   3.926
 4643SOL    HW214496   2.382   4.486   4.048
 4644SOL     OW14497   3.143   4.069   4.668
 4644SOL    HW114498   3.057   4.019   4.655
 4644SOL    HW214499   3.205   4.015   4.724
 4645SOL     OW14500   2.669   4.329   5.189
 4645SOL    HW114501   2.622   4.326   5.278
 4645SOL    HW214502   2.618   4.274   5.123
 4646SOL     OW14503   3.256   4.193   5.398
 4646SOL    HW114504   3.236   4.236   5.486
 4646SOL    HW214505   3.334   4.131   5.407
 4647SOL     OW14506   2.835   4.614   5.296
 4647SOL    HW114507   2.881   4.530   5.267
 4647SOL    HW214508   2.779   4.648   5.221
 4648SOL     OW14509   2.853   4.134   4.966
 4648SOL    HW114510   2.776   4.168   5.020
 4648SOL    HW214511   2.819   4.083   4.887
 4649SOL     OW14512   2.903   4.425   4.153
 4649SOL    HW114513   2.929   4.421   4.249
 4649SOL    HW214514   2.818   4.374   4.139
 4650SOL     OW14515   1.938   4.535   4.513
 4650SOL    HW114516   2.037   4.523   4.522
 4650SOL    HW214517   1.914   4.630   4.534
 4651SOL     OW14518   2.727   4.072   3.919
 4651SOL    HW114519   2.786   4.135   3.870
 4651SOL    HW214520   2.746   3.978   3.890
 4652SOL     OW14521   3.581   4.309   5.555
 4652SOL    HW114522   3.555   4.398   5.519
 4652SOL    HW214523   3.579   4.241   5.482
 4653SOL     OW14524   3.224   4.868   4.269
 4653SOL    HW114525   3.307   4.839   4.221
 4653SOL    HW214526   3.175   4.935   4.213
 4654SOL     OW14527   2.412   3.920   4.609
 4654SOL    HW114528   2.407   3.915   4.709
 4654SOL    HW214529   2.414   4.016   4.580
 4655SOL     OW14530   2.870   5.180   4.201
 4655SOL    HW114531   2.824   5.252   4.149
 4655SOL    HW214532   2.866   5.200   4.299
 4656SOL     OW14533   3.657   4.790   4.597
 4656SOL    HW114534   3.595   4.775   4.521
 4656SOL    HW214535   3.605   4.801   4.682
 4657SOL     OW14536   3.089   5.274   5.230
 4657SOL    HW114537   3.095   5.197   5.294
 4657SOL    HW214538   3.037   5.248   5.150
 4658SOL     OW14539   2.183   4.667   3.966
 4658SOL    HW114540   2.265   4.706   3.924
 4658SOL    HW214541   2.156   4.585   3.917
 4659SOL     OW14542   3.320   4.459   4.452
 4659SOL    HW114543   3.315   4.394   4.527
 4659SOL    HW214544   3.400   4.518   4.465
 4660SOL     OW14545   2.323   4.990   5.451
 4660SOL    HW114546   2.273   4.991   5.365
 4660SOL    HW214547   2.260   4.972   5.527
 4661SOL     OW14548   2.973   5.500   3.961
 4661SOL    HW114549   2.913   5.438   4.011
 4661SOL    HW214550   3.004   5.456   3.876
 4662SOL     OW14551   2.064   4.009   5.222
 4662SOL    HW114552   1.984   4.069   5.209
 4662SOL    HW214553   2.054   3.960   5.308
 4663SOL     OW14554   3.494   5.101   3.805
 4663SOL    HW114555   3.462   5.195   3.795
 4663SOL    HW214556   3.418   5.038   3.793
 4664SOL     OW14557   3.262   3.831   4.150
 4664SOL    HW114558   3.238   3.794   4.060
 4664SOL    HW214559   3.361   3.847   4.154
 4665SOL     OW14560   2.244   4.424   4.204
 4665SOL    HW114561   2.289   4.334   4.201
 4665SOL    HW214562   2.150   4.413   4.237
 4666SOL     OW14563   3.409   3.946   5.453
 4666SOL    HW114564   3.404   3.983   5.545
 4666SOL    HW214565   3.337   3.877   5.441
 4667SOL     OW14566   2.476   3.846   3.841
 4667SOL    HW114567   2.574   3.824   3.848
 4667SOL    HW214568   2.445   3.829   3.748
 4668SOL     OW14569   2.643   3.988   5.473
 4668SOL    HW114570   2.710   3.927   5.516
 4668SOL    HW214571   2.570   4.007   5.538
 4669SOL     OW14572   3.213   4.314   5.157
 4669SOL    HW114573   3.241   4.271   5.242
 4669SOL    HW214574   3.238   4.410   5.158
 4670SOL     OW14575   2.665   5.126   4.648
 4670SOL    HW114576   2.755   5.140   4.606
 4670SOL    HW214577   2.594   5.128   4.577
 4671SOL     OW14578   2.784   4.227   4.623
 4671SOL    HW114579   2.759   4.218   4.527
 4671SOL    HW214580   2.832   4.145   4.654
 4672SOL     OW14581   2.401   3.788   4.236
 4672SOL    HW114582   2.320   3.789   4.294
 4672SOL    HW214583   2.404   3.871   4.181
 4673SOL     OW14584   3.296   4.912   3.765
 4673SOL    HW114585   3.328   4.836   3.822
 4673SOL    HW214586   3.204   4.939   3.795
 4674SOL     OW14587   2.159   3.759   3.895
 4674SOL    HW114588   2.208   3.843   3.874
 4674SOL    HW214589   2.221   3.694   3.940
 4675SOL     OW14590   2.797   3.960   4.204
 4675SOL    HW114591   2.749   4.001   4.126
 4675SOL    HW214592   2.896   3.958   4.185
 4676SOL     OW14593   2.938   4.407   5.188
 4676SOL    HW114594   2.858   4.346   5.191
 4676SOL    HW214595   3.019   4.354   5.164
 4677SOL     OW14596   3.089   5.294   4.517
 4677SOL    HW114597   3.110   5.368   4.452
 4677SOL    HW214598   3.157   5.294   4.590
 4678SOL     OW14599   2.321   4.876   4.465
 4678SOL    HW114600   2.250   4.849   4.530
 4678SOL    HW214601   2.295   4.848   4.372
 4679SOL     OW14602   2.894   4.273   3.740
 4679SOL    HW114603   2.853   4.355   3.701
 4679SOL    HW214604   2.958   4.299   3.813
 4680SOL     OW14605   1.940   4.280   5.110
 4680SOL    HW114606   2.032   4.279   5.069
 4680SOL    HW214607   1.934   4.354   5.177
 4681SOL     OW14608   2.423   3.946   4.871
 4681SOL    HW114609   2.461   3.862   4.908
 4681SOL    HW214610   2.335   3.965   4.915
 4682SOL     OW14611   2.728   4.178   4.366
 4682SOL    HW114612   2.696   4.250   4.304
 4682SOL    HW214613   2.752   4.097   4.313
 4683SOL     OW14614   2.879   3.763   4.477
 4683SOL    HW114615   2.807   3.768   4.408
 4683SOL    HW214616   2.855   3.694   4.546
 4684SOL     OW14617   3.291   4.897   4.591
 4684SOL    HW114618   3.236   4.813   4.584
 4684SOL    HW214619   3.317   4.926   4.499
 4685SOL     OW14620   3.328   4.314   4.716
 4685SOL    HW114621   3.298   4.219   4.723
 4685SOL    HW214622   3.401   4.330   4.782
 4686SOL     OW14623   3.719   4.557   4.101
 4686SOL    HW114624   3.761   4.493   4.165
 4686SOL    HW214625   3.681   4.506   4.023
 4687SOL     OW14626   2.350   5.109   3.898
 4687SOL    HW114627   2.263   5.094   3.945
 4687SOL    HW214628   2.333   5.135   3.803
 4688SOL     OW14629   3.526   5.004   4.381
 4688SOL    HW114630   3.625   5.012   4.395
 4688SOL    HW214631   3.481   5.088   4.412
 4689SOL     OW14632   3.252   4.299   3.802
 4689SOL    HW114633   3.198   4.278   3.883
 4689SOL    HW214634   3.343   4.258   3.811
 4690SOL     OW14635   2.389   3.980   4.052
 4690SOL    HW114636   2.416   3.921   3.977
 4690SOL    HW214637   2.389   4.075   4.021
 4691SOL     OW14638   3.616   4.947   5.312
 4691SOL    HW114639   3.707   4.908   5.299
 4691SOL    HW214640   3.624   5.043   5.336
 4692SOL     OW14641   2.926   5.071   5.064
 4692SOL    HW114642   2.846   5.048   5.119
 4692SOL    HW214643   3.009   5.045   5.113
 4693SOL     OW14644   2.973   4.919   4.824
 4693SOL    HW114645   2.933   4.963   4.905
 4693SOL    HW214646   2.932   4.956   4.741
 4694SOL     OW14647   3.500   4.823   4.803
 4694SOL    HW114648   3.505   4.904   4.862
 4694SOL    HW214649   3.414   4.825   4.752
 4695SOL     OW14650   2.777   3.813   5.126
 4695SOL    HW114651   2.802   3.793   5.031
 4695SOL    HW214652   2.849   3.869   5.168
 4696SOL     OW14653   2.842   4.840   5.443
 4696SOL    HW114654   2.743   4.846   5.453
 4696SOL    HW214655   2.865   4.760   5.387
 4697SOL     OW14656   2.567   4.774   4.092
 4697SOL    HW114657   2.553   4.781   4.191
 4697SOL    HW214658   2.651   4.723   4.074
 4698SOL     OW14659   2.272   4.537   4.975
 4698SOL    HW114660   2.358   4.549   5.025
 4698SOL    HW214661   2.230   4.450   5.002
 4699SOL     OW14662   3.136   4.110   4.986
 4699SOL    HW114663   3.157   4.184   5.050
 4699SOL    HW214664   3.047   4.127   4.943
 4700SOL     OW14665   2.229   4.824   4.225
 4700SOL    HW114666   2.222   4.907   4.169
 4700SOL    HW214667   2.233   4.744   4.165
 4701SOL     OW14668   2.428   4.261   4.589
 4701SOL    HW114669   2.440   4.327   4.515
 4701SOL    HW214670   2.474   4.295   4.672
 4702SOL     OW14671   3.114   5.072   4.112
 4702SOL    HW114672   3.164   5.149   4.152
 4702SOL    HW214673   3.019   5.074   4.144
 4703SOL     OW14674   3.134   5.169   4.866
 4703SOL    HW114675   3.181   5.182   4.953
 4703SOL    HW214676   3.068   5.095   4.875
 4704SOL     OW14677   3.444   4.363   4.196
 4704SOL    HW114678   3.413   4.424   4.269
 4704SOL    HW214679   3.494   4.415   4.127
 4705SOL     OW14680   2.216   5.234   5.053
 4705SOL    HW114681   2.195   5.190   4.966
 4705SOL    HW214682   2.313   5.260   5.056
 4706SOL     OW14683   2.264   4.475   5.322
 4706SOL    HW114684   2.332   4.530   5.275
 4706SOL    HW214685   2.304   4.387   5.349
 4707SOL     OW14686   3.449   4.503   5.394
 4707SOL    HW114687   3.357   4.541   5.389
 4707SOL    HW214688   3.509   4.550   5.329
 4708SOL     OW14689   2.875   3.829   5.494
 4708SOL    HW114690   2.881   3.914   5.442
 4708SOL    HW214691   2.907   3.753   5.437
 4709SOL     OW14692   2.366   3.774   5.464
 4709SOL    HW114693   2.324   3.717   5.394
 4709SOL    HW214694   2.300   3.843   5.496
 4710SOL     OW14695   2.435   4.594   4.753
 4710SOL    HW114696   2.479   4.683   4.744
 4710SOL    HW214697   2.372   4.594   4.830
 4711SOL     OW14698   3.222   4.586   4.769
 4711SOL    HW114699   3.147   4.586   4.703
 4711SOL    HW214700   3.259   4.494   4.778
 4712SOL     OW14701   3.071   4.249   3.999
 4712SOL    HW114702   3.084   4.165   4.053
 4712SOL    HW214703   3.042   4.323   4.059
 4713SOL     OW14704   2.169   3.937   4.955
 4713SOL    HW114705   2.146   3.974   5.045
 4713SOL    HW214706   2.139   3.842   4.949
 4714SOL     OW14707   1.899   5.034   5.006
 4714SOL    HW114708   1.952   4.985   5.074
 4714SOL    HW214709   1.921   5.132   5.011
 4715SOL     OW14710   2.594   4.358   4.788
 4715SOL    HW114711   2.653   4.332   4.712
 4715SOL    HW214712   2.566   4.454   4.777
 4716SOL     OW14713   3.590   4.659   5.578
 4716SOL    HW114714   3.544   4.652   5.489
 4716SOL    HW214715   3.528   4.703   5.644
 4717SOL     OW14716   2.169   3.787   4.342
 4717SOL    HW114717   2.158   3.881   4.375
 4717SOL    HW214718   2.164   3.724   4.419
 4718SOL     OW14719   3.484   4.091   4.098
 4718SOL    HW114720   3.486   4.015   4.162
 4718SOL    HW214721   3.436   4.168   4.138
 4719SOL     OW14722   2.885   4.490   4.690
 4719SOL    HW114723   2.900   4.511   4.786
 4719SOL    HW214724   2.855   4.395   4.681
 4720SOL     OW14725   3.721   5.242   5.329
 4720SOL    HW114726   3.735   5.269   5.234
 4720SOL    HW214727   3.804   5.264   5.382
 4721SOL     OW14728   2.212   4.622   5.528
 4721SOL    HW114729   2.288   4.666   5.576
 4721SOL    HW214730   2.247   4.575   5.446
 4722SOL     OW14731   3.402   3.998   3.849
 4722SOL    HW114732   3.341   3.923   3.872
 4722SOL    HW214733   3.424   4.050   3.932
 4723SOL     OW14734   3.165   4.562   3.766
 4723SOL    HW114735   3.199   4.469   3.781
 4723SOL    HW214736   3.183   4.589   3.671
 4724SOL     OW14737   2.930   5.057   4.573
 4724SOL    HW114738   2.937   4.973   4.518
 4724SOL    HW214739   2.992   5.126   4.537
 4725SOL     OW14740   2.181   4.534   4.673
 4725SOL    HW114741   2.274   4.570   4.678
 4725SOL    HW214742   2.175   4.449   4.725
 4726SOL     OW14743   2.201   4.233   4.730
 4726SOL    HW114744   2.149   4.150   4.713
 4726SOL    HW214745   2.278   4.238   4.666
 4727SOL     OW14746   3.000   4.104   5.402
 4727SOL    HW114747   2.955   4.167   5.466
 4727SOL    HW214748   3.093   4.135   5.385
 4728SOL     OW14749   3.022   3.931   5.201
 4728SOL    HW114750   3.022   3.995   5.278
 4728SOL    HW214751   3.050   3.979   5.118
 4729SOL     OW14752   1.870   5.050   3.924
 4729SOL    HW114753   1.777   5.071   3.893
 4729SOL    HW214754   1.880   4.951   3.937
 4730SOL     OW14755   2.864   4.520   4.962
 4730SOL    HW114756   2.905   4.488   5.048
 4730SOL    HW214757   2.768   4.493   4.959
 4731SOL     OW14758   1.902   4.268   4.838
 4731SOL    HW114759   1.987   4.235   4.797
 4731SOL    HW214760   1.915   4.283   4.936
 4732SOL     OW14761   2.051   4.244   5.446
 4732SOL    HW114762   2.110   4.204   5.376
 4732SOL    HW214763   1.993   4.315   5.405
 4733SOL     OW14764   3.231   4.674   5.384
 4733SOL    HW114765   3.270   4.763   5.404
 4733SOL    HW214766   3.241   4.654   5.287
 4734SOL     OW14767   2.677   4.296   4.049
 4734SOL    HW114768   2.684   4.207   4.003
 4734SOL    HW214769   2.583   4.330   4.041
 4735SOL     OW14770   3.519   4.328   4.930
 4735SOL    HW114771   3.481   4.259   4.992
 4735SOL    HW214772   3.601   4.292   4.886
 4736SOL     OW14773   2.114   5.288   5.468
 4736SOL    HW114774   2.084   5.345   5.544
 4736SOL    HW214775   2.107   5.191   5.494
 4737SOL     OW14776   2.533   4.188   4.993
 4737SOL    HW114777   2.499   4.099   4.963
 4737SOL    HW214778   2.559   4.242   4.913
 4738SOL     OW14779   2.335   4.224   3.915
 4738SOL    HW114780   2.396   4.304   3.919
 4738SOL    HW214781   2.240   4.255   3.922
 4739SOL     OW14782   2.021   4.861   5.190
 4739SOL    HW114783   2.043   4.800   5.266
 4739SOL    HW214784   2.031   4.812   5.104
 4740SOL     OW14785   3.209   4.783   4.958
 4740SOL    HW114786   3.233   4.720   4.884
 4740SOL    HW214787   3.119   4.823   4.940
 4741SOL     OW14788   3.164   4.579   4.033
 4741SOL    HW114789   3.078   4.548   4.075
 4741SOL    HW214790   3.160   4.565   3.934
 4742SOL     OW14791   1.945   4.982   4.746
 4742SOL    HW114792   1.940   4.981   4.846
 4742SOL    HW214793   1.862   4.941   4.708
 4743SOL     OW14794   2.550   5.386   5.440
 4743SOL    HW114795   2.494   5.467   5.449
 4743SOL    HW214796   2.602   5.390   5.354
 4744SOL     OW14797   3.588   3.859   4.247
 4744SOL    HW114798   3.661   3.842   4.180
 4744SOL    HW214799   3.557   3.772   4.285
 4745SOL     OW14800   3.142   4.651   4.396
 4745SOL    HW114801   3.202   4.570   4.398
 4745SOL    HW214802   3.182   4.720   4.336
 4746SOL     OW14803   2.692   4.997   5.146
 4746SOL    HW114804   2.687   5.030   5.241
 4746SOL    HW214805   2.606   5.016   5.100
 4747SOL     OW14806   3.703   3.899   4.687
 4747SOL    HW114807   3.742   3.814   4.651
 4747SOL    HW214808   3.605   3.901   4.668
 4748SOL     OW14809   2.125   4.050   4.444
 4748SOL    HW114810   2.046   4.101   4.410
 4748SOL    HW214811   2.116   4.035   4.542
 4749SOL     OW14812   2.684   4.726   5.096
 4749SOL    HW114813   2.724   4.725   5.004
 4749SOL    HW214814   2.694   4.818   5.136
 4750SOL     OW14815   2.778   4.634   4.015
 4750SOL    HW114816   2.841   4.672   3.947
 4750SOL    HW214817   2.818   4.551   4.054
 4751SOL     OW14818   2.234   5.012   5.214
 4751SOL    HW114819   2.221   5.105   5.180
 4751SOL    HW214820   2.150   4.960   5.201
 4752SOL     OW14821   3.476   5.016   5.013
 4752SOL    HW114822   3.536   5.019   5.093
 4752SOL    HW214823   3.401   5.080   5.026
 4753SOL     OW14824   2.901   4.822   4.420
 4753SOL    HW114825   2.831   4.775   4.474
 4753SOL    HW214826   2.960   4.754   4.377
 4754SOL     OW14827   2.876   3.960   4.695
 4754SOL    HW114828   2.868   3.924   4.602
 4754SOL    HW214829   2.874   3.884   4.760
 4755SOL     OW14830   3.571   4.109   5.105
 4755SOL    HW114831   3.644   4.178   5.109
 4755SOL    HW214832   3.599   4.034   5.046
 4756SOL     OW14833   2.117   5.072   4.014
 4756SOL    HW114834   2.021   5.073   3.987
 4756SOL    HW214835   2.129   5.125   4.098
 4757SOL     OW14836   1.967   4.737   5.450
 4757SOL    HW114837   1.890   4.704   5.504
 4757SOL    HW214838   2.052   4.707   5.492
 4758SOL     OW14839   2.534   3.927   5.213
 4758SOL    HW114840   2.624   3.911   5.173
 4758SOL    HW214841   2.542   3.932   5.312
 4759SOL     OW14842   1.937   4.069   3.757
 4759SOL    HW114843   1.845   4.041   3.728
 4759SOL    HW214844   1.968   4.146   3.701
 4760SOL     OW14845   3.302   4.580   5.122
 4760SOL    HW114846   3.245   4.632   5.059
 4760SOL    HW214847   3.398   4.592   5.098
 4761SOL     OW14848   1.934   3.890   4.042
 4761SOL    HW114849   1.917   3.973   3.988
 4761SOL    HW214850   2.024   3.853   4.020
 4762SOL     OW14851   3.045   5.059   3.843
 4762SOL    HW114852   2.946   5.048   3.845
 4762SOL    HW214853   3.079   5.074   3.936
 4763SOL     OW14854   2.475   4.566   5.155
 4763SOL    HW114855   2.531   4.647   5.138
 4763SOL    HW214856   2.534   4.486   5.158
 4764SOL     OW14857   2.578   4.289   5.432
 4764SOL    HW114858   2.597   4.354   5.506
 4764SOL    HW214859   2.638   4.209   5.441
 4765SOL     OW14860   3.312   4.944   5.357
 4765SOL    HW114861   3.303   4.934   5.456
 4765SOL    HW214862   3.408   4.937   5.331
 4766SOL     OW14863   3.536   4.607   4.978
 4766SOL    HW114864   3.509   4.518   4.941
 4766SOL    HW214865   3.537   4.675   4.905
 4767SOL     OW14866   3.087   4.049   4.173
 4767SOL    HW114867   3.152   3.975   4.162
 4767SOL    HW214868   3.107   4.099   4.257
 4768SOL     OW14869   2.456   4.469   4.376
 4768SOL    HW114870   2.506   4.554   4.357
 4768SOL    HW214871   2.368   4.471   4.328
 4769SOL     OW14872   3.639   4.066   5.366
 4769SOL    HW114873   3.622   4.097   5.272
 4769SOL    HW214874   3.555   4.029   5.404
 4770SOL     OW14875   3.592   4.658   5.241
 4770SOL    HW114876   3.630   4.749   5.256
 4770SOL    HW214877   3.584   4.641   5.142
 4771SOL     OW14878   2.721   5.098   3.740
 4771SOL    HW114879   2.675   5.113   3.828
 4771SOL    HW214880   2.765   5.183   3.710
 4772SOL     OW14881   2.721   4.680   4.585
 4772SOL    HW114882   2.775   4.611   4.633
 4772SOL    HW214883   2.689   4.749   4.651
 4773SOL     OW14884   2.945   4.708   3.811
 4773SOL    HW114885   2.922   4.761   3.729
 4773SOL    HW214886   3.026   4.652   3.792
 4774SOL     OW14887   2.083   5.038   5.568
 4774SOL    HW114888   2.018   4.965   5.547
 4774SOL    HW214889   2.087   5.052   5.666
 4775SOL     OW14890   1.941   4.964   4.377
 4775SOL    HW114891   1.940   4.917   4.465
 4775SOL    HW214892   2.023   4.936   4.326
 4776SOL     OW14893   2.534   5.115   5.348
 4776SOL    HW114894   2.456   5.065   5.386
 4776SOL    HW214895   2.531   5.210   5.379
 4777SOL     OW14896   3.686   3.916   4.951
 4777SOL    HW114897   3.682   3.826   4.995
 4777SOL    HW214898   3.689   3.905   4.852
 4778SOL     OW14899   2.290   4.148   4.244
 4778SOL    HW114900   2.320   4.076   4.182
 4778SOL    HW214901   2.251   4.108   4.327
 4779SOL     OW14902   3.567   5.211   4.828
 4779SOL    HW114903   3.474   5.186   4.801
 4779SOL    HW214904   3.593   5.161   4.910
 4780SOL     OW14905   2.179   4.271   5.004
 4780SOL    HW114906   2.217   4.212   5.076
 4780SOL    HW214907   2.219   4.245   4.916
 4781SOL     OW14908   3.286   3.938   4.836
 4781SOL    HW114909   3.338   3.873   4.891
 4781SOL    HW214910   3.237   4.001   4.897
 4782SOL     OW14911   2.863   3.758   4.878
 4782SOL    HW114912   2.800   3.686   4.847
 4782SOL    HW214913   2.956   3.722   4.878
 4783SOL     OW14914   2.632   5.054   4.025
 4783SOL    HW114915   2.586   4.967   4.042
 4783SOL    HW214916   2.723   5.051   4.066
 4784SOL     OW14917   2.480   5.291   5.008
 4784SOL    HW114918   2.475   5.373   5.065
 4784SOL    HW214919   2.569   5.288   4.963
 4785SOL     OW14920   3.214   3.776   3.892
 4785SOL    HW114921   3.249   3.735   3.808
 4785SOL    HW214922   3.124   3.738   3.912
 4786SOL     OW14923   3.162   4.177   4.415
 4786SOL    HW114924   3.103   4.257   4.419
 4786SOL    HW214925   3.177   4.142   4.508
 4787SOL     OW14926   3.455   3.945   4.606
 4787SOL    HW114927   3.371   3.944   4.660
 4787SOL    HW214928   3.457   4.028   4.550
 4788SOL     OW14929   1.901   4.801   4.024
 4788SOL    HW114930   2.000   4.790   4.015
 4788SOL    HW214931   1.861   4.715   4.056
 4789SOL     OW14932   2.092   4.352   5.699
 4789SOL    HW114933   1.999   4.350   5.736
 4789SOL    HW214934   2.093   4.313   5.607
 4790SOL     OW14935   2.087   3.999   6.582
 4790SOL    HW114936   2.122   3.982   6.674
 4790SOL    HW214937   1.999   3.954   6.570
 4791SOL     OW14938   1.881   4.092   6.233
 4791SOL    HW114939   1.799   4.135   6.272
 4791SOL    HW214940   1.853   4.019   6.170
 4792SOL     OW14941   2.431   4.999   6.751
 4792SOL    HW114942   2.338   4.992   6.714
 4792SOL    HW214943   2.442   5.088   6.795
 4793SOL     OW14944   3.417   5.235   6.289
 4793SOL    HW114945   3.360   5.219   6.370
 4793SOL    HW214946   3.358   5.245   6.209
 4794SOL     OW14947   2.997   4.427   6.303
 4794SOL    HW114948   3.054   4.505   6.278
 4794SOL    HW214949   2.937   4.453   6.379
 4795SOL     OW14950   3.617   4.331   5.817
 4795SOL    HW114951   3.605   4.318   5.718
 4795SOL    HW214952   3.587   4.250   5.866
 4796SOL     OW14953   2.630   4.868   6.609
 4796SOL    HW114954   2.552   4.885   6.669
 4796SOL    HW214955   2.664   4.955   6.573
 4797SOL     OW14956   2.712   4.522   7.409
 4797SOL    HW114957   2.708   4.598   7.474
 4797SOL    HW214958   2.734   4.558   7.318
 4798SOL     OW14959   2.547   4.736   6.251
 4798SOL    HW114960   2.616   4.720   6.321
 4798SOL    HW214961   2.474   4.793   6.289
 4799SOL     OW14962   2.548   4.885   7.389
 4799SOL    HW114963   2.608   4.964   7.403
 4799SOL    HW214964   2.462   4.916   7.348
 4800SOL     OW14965   2.197   5.159   6.647
 4800SOL    HW114966   2.119   5.128   6.594
 4800SOL    HW214967   2.255   5.217   6.590
 4801SOL     OW14968   3.322   5.229   6.925
 4801SOL    HW114969   3.346   5.323   6.951
 4801SOL    HW214970   3.306   5.175   7.007
 4802SOL     OW14971   2.300   4.116   7.085
 4802SOL    HW114972   2.382   4.060   7.094
 4802SOL    HW214973   2.219   4.058   7.089
 4803SOL     OW14974   3.465   4.171   6.323
 4803SOL    HW114975   3.391   4.217   6.273
 4803SOL    HW214976   3.516   4.239   6.376
 4804SOL     OW14977   2.989   5.065   7.276
 4804SOL    HW114978   3.036   5.065   7.364
 4804SOL    HW214979   2.941   4.978   7.265
 4805SOL     OW14980   2.092   5.158   6.124
 4805SOL    HW114981   2.066   5.254   6.124
 4805SOL    HW214982   2.021   5.104   6.169
 4806SOL     OW14983   2.102   4.815   6.472
 4806SOL    HW114984   2.116   4.731   6.524
 4806SOL    HW214985   2.047   4.879   6.527
 4807SOL     OW14986   2.468   4.688   5.709
 4807SOL    HW114987   2.475   4.772   5.655
 4807SOL    HW214988   2.514   4.701   5.797
 4808SOL     OW14989   3.456   3.838   7.066
 4808SOL    HW114990   3.438   3.905   6.994
 4808SOL    HW214991   3.453   3.884   7.155
 4809SOL     OW14992   1.984   4.367   6.149
 4809SOL    HW114993   1.939   4.279   6.166
 4809SOL    HW214994   1.983   4.421   6.233
 4810SOL     OW14995   1.889   5.320   5.703
 4810SOL    HW114996   1.870   5.224   5.724
 4810SOL    HW214997   1.856   5.378   5.778
 4811SOL     OW14998   3.551   4.646   6.198
 4811SOL    HW114999   3.646   4.617   6.206
 4811SOL    HW215000   3.543   4.711   6.123
 4812SOL     OW15001   3.503   4.832   6.018
 4812SOL    HW115002   3.589   4.834   5.966
 4812SOL    HW215003   3.517   4.879   6.106
 4813SOL     OW15004   1.975   4.461   7.183
 4813SOL    HW115005   2.063   4.448   7.228
 4813SOL    HW215006   1.962   4.558   7.161
 4814SOL     OW15007   2.475   5.089   6.312
 4814SOL    HW115008   2.426   5.002   6.321
 4814SOL    HW215009   2.452   5.132   6.225
 4815SOL     OW15010   3.155   4.952   7.009
 4815SOL    HW115011   3.192   4.879   6.951
 4815SOL    HW215012   3.207   4.957   7.094
 4816SOL     OW15013   2.671   3.728   6.088
 4816SOL    HW115014   2.711   3.819   6.079
 4816SOL    HW215015   2.571   3.736   6.094
 4817SOL     OW15016   2.059   4.700   6.850
 4817SOL    HW115017   2.148   4.655   6.836
 4817SOL    HW215018   1.986   4.635   6.831
 4818SOL     OW15019   3.387   4.723   5.776
 4818SOL    HW115020   3.324   4.647   5.789
 4818SOL    HW215021   3.435   4.741   5.862
 4819SOL     OW15022   2.179   3.975   7.387
 4819SOL    HW115023   2.250   4.046   7.393
 4819SOL    HW215024   2.091   4.014   7.415
 4820SOL     OW15025   3.328   5.141   6.539
 4820SOL    HW115026   3.269   5.147   6.619
 4820SOL    HW215027   3.313   5.053   6.493
 4821SOL     OW15028   2.460   4.453   5.856
 4821SOL    HW115029   2.484   4.522   5.788
 4821SOL    HW215030   2.382   4.486   5.910
 4822SOL     OW15031   3.143   4.069   6.530
 4822SOL    HW115032   3.057   4.019   6.517
 4822SOL    HW215033   3.205   4.015   6.586
 4823SOL     OW15034   2.669   4.329   7.051
 4823SOL    HW115035   2.622   4.326   7.140
 4823SOL    HW215036   2.618   4.274   6.985
 4824SOL     OW15037   3.256   4.193   7.260
 4824SOL    HW115038   3.236   4.236   7.348
 4824SOL    HW215039   3.334   4.131   7.269
 4825SOL     OW15040   2.835   4.614   7.158
 4825SOL    HW115041   2.881   4.530   7.129
 4825SOL    HW215042   2.779   4.648   7.083
 4826SOL     OW15043   2.853   4.134   6.828
 4826SOL    HW115044   2.776   4.168   6.882
 4826SOL    HW215045   2.819   4.083   6.749
 4827SOL     OW15046   2.903   4.425   6.015
 4827SOL    HW115047   2.929   4.421   6.111
 4827SOL    HW215048   2.818   4.374   6.001
 4828SOL     OW15049   1.938   4.535   6.375
 4828SOL    HW115050   2.037   4.523   6.384
 4828SOL    HW215051   1.914   4.630   6.396
 4829SOL     OW15052   2.727   4.072   5.781
 4829SOL    HW115053   2.786   4.135   5.732
 4829SOL    HW215054   2.746   3.978   5.752
 4830SOL     OW15055   3.581   4.309   7.417
 4830SOL    HW115056   3.555   4.398   7.381
 4830SOL    HW215057   3.579   4.241   7.344
 4831SOL     OW15058   3.224   4.868   6.131
 4831SOL    HW115059   3.307   4.839   6.083
 4831SOL    HW215060   3.175   4.935   6.075
 4832SOL     OW15061   2.412   3.920   6.471
 4832SOL    HW115062   2.407   3.915   6.571
 4832SOL    HW215063   2.414   4.016   6.442
 4833SOL     OW15064   2.870   5.180   6.063
 4833SOL    HW115065   2.824   5.252   6.011
 4833SOL    HW215066   2.866   5.200   6.161
 4834SOL     OW15067   3.657   4.790   6.459
 4834SOL    HW115068   3.595   4.775   6.383
 4834SOL    HW215069   3.605   4.801   6.544
 4835SOL     OW15070   3.089   5.274   7.092
 4835SOL    HW115071   3.095   5.197   7.156
 4835SOL    HW215072   3.037   5.248   7.012
 4836SOL     OW15073   2.183   4.667   5.828
 4836SOL    HW115074   2.265   4.706   5.786
 4836SOL    HW215075   2.156   4.585   5.779
 4837SOL     OW15076   3.320   4.459   6.314
 4837SOL    HW115077   3.315   4.394   6.389
 4837SOL    HW215078   3.400   4.518   6.327
 4838SOL     OW15079   2.323   4.990   7.313
 4838SOL    HW115080   2.273   4.991   7.227
 4838SOL    HW215081   2.260   4.972   7.389
 4839SOL     OW15082   2.973   5.500   5.823
 4839SOL    HW115083   2.913   5.438   5.873
 4839SOL    HW215084   3.004   5.456   5.738
 4840SOL     OW15085   2.064   4.009   7.084
 4840SOL    HW115086   1.984   4.069   7.071
 4840SOL    HW215087   2.054   3.960   7.170
 4841SOL     OW15088   3.494   5.101   5.667
 4841SOL    HW115089   3.462   5.195   5.657
 4841SOL    HW215090   3.418   5.038   5.655
 4842SOL     OW15091   3.262   3.831   6.012
 4842SOL    HW115092   3.238   3.794   5.922
 4842SOL    HW215093   3.361   3.847   6.016
 4843SOL     OW15094   2.244   4.424   6.066
 4843SOL    HW115095   2.289   4.334   6.063
 4843SOL    HW215096   2.150   4.413   6.099
 4844SOL     OW15097   3.409   3.946   7.315
 4844SOL    HW115098   3.404   3.983   7.407
 4844SOL    HW215099   3.337   3.877   7.303
 4845SOL     OW15100   2.476   3.846   5.703
 4845SOL    HW115101   2.574   3.824   5.710
 4845SOL    HW215102   2.445   3.829   5.610
 4846SOL     OW15103   2.643   3.988   7.335
 4846SOL    HW115104   2.710   3.927   7.378
 4846SOL    HW215105   2.570   4.007   7.400
 4847SOL     OW15106   3.213   4.314   7.019
 4847SOL    HW115107   3.241   4.271   7.104
 4847SOL    HW215108   3.238   4.410   7.020
 4848SOL     OW15109   2.665   5.126   6.510
 4848SOL    HW115110   2.755   5.140   6.468
 4848SOL    HW215111   2.594   5.128   6.439
 4849SOL     OW15112   2.784   4.227   6.485
 4849SOL    HW115113   2.759   4.218   6.389
 4849SOL    HW215114   2.832   4.145   6.516
 4850SOL     OW15115   2.401   3.788   6.098
 4850SOL    HW115116   2.320   3.789   6.156
 4850SOL    HW215117   2.404   3.871   6.043
 4851SOL     OW15118   3.296   4.912   5.627
 4851SOL    HW115119   3.328   4.836   5.684
 4851SOL    HW215120   3.204   4.939   5.657
 4852SOL     OW15121   2.159   3.759   5.757
 4852SOL    HW115122   2.208   3.843   5.736
 4852SOL    HW215123   2.221   3.694   5.802
 4853SOL     OW15124   2.797   3.960   6.066
 4853SOL    HW115125   2.749   4.001   5.988
 4853SOL    HW215126   2.896   3.958   6.047
 4854SOL     OW15127   2.938   4.407   7.050
 4854SOL    HW115128   2.858   4.346   7.053
 4854SOL    HW215129   3.019   4.354   7.026
 4855SOL     OW15130   3.089   5.294   6.379
 4855SOL    HW115131   3.110   5.368   6.314
 4855SOL    HW215132   3.157   5.294   6.452
 4856SOL     OW15133   2.321   4.876   6.327
 4856SOL    HW115134   2.250   4.849   6.392
 4856SOL    HW215135   2.295   4.848   6.234
 4857SOL     OW15136   2.894   4.273   5.602
 4857SOL    HW115137   2.853   4.355   5.563
 4857SOL    HW215138   2.958   4.299   5.675
 4858SOL     OW15139   1.940   4.280   6.972
 4858SOL    HW115140   2.032   4.279   6.931
 4858SOL    HW215141   1.934   4.354   7.039
 4859SOL     OW15142   2.423   3.946   6.733
 4859SOL    HW115143   2.461   3.862   6.770
 4859SOL    HW215144   2.335   3.965   6.777
 4860SOL     OW15145   2.728   4.178   6.228
 4860SOL    HW115146   2.696   4.250   6.166
 4860SOL    HW215147   2.752   4.097   6.175
 4861SOL     OW15148   2.879   3.763   6.339
 4861SOL    HW115149   2.807   3.768   6.270
 4861SOL    HW215150   2.855   3.694   6.408
 4862SOL     OW15151   3.291   4.897   6.453
 4862SOL    HW115152   3.236   4.813   6.446
 4862SOL    HW215153   3.317   4.926   6.361
 4863SOL     OW15154   3.328   4.314   6.578
 4863SOL    HW115155   3.298   4.219   6.585
 4863SOL    HW215156   3.401   4.330   6.644
 4864SOL     OW15157   3.719   4.557   5.963
 4864SOL    HW115158   3.761   4.493   6.027
 4864SOL    HW215159   3.681   4.506   5.885
 4865SOL     OW15160   2.350   5.109   5.760
 4865SOL    HW115161   2.263   5.094   5.807
 4865SOL    HW215162   2.333   5.135   5.665
 4866SOL     OW15163   3.526   5.004   6.243
 4866SOL    HW115164   3.625   5.012   6.257
 4866SOL    HW215165   3.481   5.088   6.274
 4867SOL     OW15166   3.252   4.299   5.664
 4867SOL    HW115167   3.198   4.278   5.745
 4867SOL    HW215168   3.343   4.258   5.673
 4868SOL     OW15169   2.389   3.980   5.914
 4868SOL    HW115170   2.416   3.921   5.839
 4868SOL    HW215171   2.389   4.075   5.883
 4869SOL     OW15172   3.616   4.947   7.174
 4869SOL    HW115173   3.707   4.908   7.161
 4869SOL    HW215174   3.624   5.043   7.198
 4870SOL     OW15175   2.926   5.071   6.926
 4870SOL    HW115176   2.846   5.048   6.981
 4870SOL    HW215177   3.009   5.045   6.975
 4871SOL     OW15178   2.973   4.919   6.686
 4871SOL    HW115179   2.933   4.963   6.767
 4871SOL    HW215180   2.932   4.956   6.603
 4872SOL     OW15181   3.500   4.823   6.665
 4872SOL    HW115182   3.505   4.904   6.724
 4872SOL    HW215183   3.414   4.825   6.614
 4873SOL     OW15184   2.777   3.813   6.988
 4873SOL    HW115185   2.802   3.793   6.893
 4873SOL    HW215186   2.849   3.869   7.030
 4874SOL     OW15187   2.842   4.840   7.305
 4874SOL    HW115188   2.743   4.846   7.315
 4874SOL    HW215189   2.865   4.760   7.249
 4875SOL     OW15190   2.567   4.774   5.954
 4875SOL    HW115191   2.553   4.781   6.053
 4875SOL    HW215192   2.651   4.723   5.936
 4876SOL     OW15193   2.272   4.537   6.837
 4876SOL    HW115194   2.358   4.549   6.887
 4876SOL    HW215195   2.230   4.450   6.864
 4877SOL     OW15196   3.136   4.110   6.848
 4877SOL    HW115197   3.157   4.184   6.912
 4877SOL    HW215198   3.047   4.127   6.805
 4878SOL     OW15199   2.229   4.824   6.087
 4878SOL    HW115200   2.222   4.907   6.031
 4878SOL    HW215201   2.233   4.744   6.027
 4879SOL     OW15202   2.428   4.261   6.451
 4879SOL    HW115203   2.440   4.327   6.377
 4879SOL    HW215204   2.474   4.295   6.534
 4880SOL     OW15205   3.114   5.072   5.974
 4880SOL    HW115206   3.164   5.149   6.014
 4880SOL    HW215207   3.019   5.074   6.006
 4881SOL     OW15208   3.134   5.169   6.728
 4881SOL    HW115209   3.181   5.182   6.815
 4881SOL    HW215210   3.068   5.095   6.737
 4882SOL     OW15211   3.444   4.363   6.058
 4882SOL    HW115212   3.413   4.424   6.131
 4882SOL    HW215213   3.494   4.415   5.989
 4883SOL     OW15214   2.216   5.234   6.915
 4883SOL    HW115215   2.195   5.190   6.828
 4883SOL    HW215216   2.313   5.260   6.918
 4884SOL     OW15217   2.264   4.475   7.184
 4884SOL    HW115218   2.332   4.530   7.137
 4884SOL    HW215219   2.304   4.387   7.211
 4885SOL     OW15220   3.449   4.503   7.256
 4885SOL    HW115221   3.357   4.541   7.251
 4885SOL    HW215222   3.509   4.550   7.191
 4886SOL     OW15223   2.875   3.829   7.356
 4886SOL    HW115224   2.881   3.914   7.304
 4886SOL    HW215225   2.907   3.753   7.299
 4887SOL     OW15226   2.366   3.774   7.326
 4887SOL    HW115227   2.324   3.717   7.256
 4887SOL    HW215228   2.300   3.843   7.358
 4888SOL     OW15229   2.435   4.594   6.615
 4888SOL    HW115230   2.479   4.683   6.606
 4888SOL    HW215231   2.372   4.594   6.692
 4889SOL     OW15232   3.222   4.586   6.631
 4889SOL    HW115233   3.147   4.586   6.565
 4889SOL    HW215234   3.259   4.494   6.640
 4890SOL     OW15235   3.071   4.249   5.861
 4890SOL    HW115236   3.084   4.165   5.915
 4890SOL    HW215237   3.042   4.323   5.921
 4891SOL     OW15238   2.169   3.937   6.817
 4891SOL    HW115239   2.146   3.974   6.907
 4891SOL    HW215240   2.139   3.842   6.811
 4892SOL     OW15241   1.899   5.034   6.868
 4892SOL    HW115242   1.952   4.985   6.936
 4892SOL    HW215243   1.921   5.132   6.873
 4893SOL     OW15244   2.594   4.358   6.650
 4893SOL    HW115245   2.653   4.332   6.574
 4893SOL    HW215246   2.566   4.454   6.639
 4894SOL     OW15247   3.590   4.659   7.440
 4894SOL    HW115248   3.544   4.652   7.351
 4894SOL    HW215249   3.528   4.703   7.506
 4895SOL     OW15250   2.169   3.787   6.204
 4895SOL    HW115251   2.158   3.881   6.237
 4895SOL    HW215252   2.164   3.724   6.281
 4896SOL     OW15253   3.484   4.091   5.960
 4896SOL    HW115254   3.486   4.015   6.024
 4896SOL    HW215255   3.436   4.168   6.000
 4897SOL     OW15256   2.885   4.490   6.552
 4897SOL    HW115257   2.900   4.511   6.648
 4897SOL    HW215258   2.855   4.395   6.543
 4898SOL     OW15259   3.721   5.242   7.191
 4898SOL    HW115260   3.735   5.269   7.096
 4898SOL    HW215261   3.804   5.264   7.244
 4899SOL     OW15262   2.212   4.622   7.390
 4899SOL    HW115263   2.288   4.666   7.438
 4899SOL    HW215264   2.247   4.575   7.308
 4900SOL     OW15265   3.402   3.998   5.711
 4900SOL    HW115266   3.341   3.923   5.734
 4900SOL    HW215267   3.424   4.050   5.794
 4901SOL     OW15268   3.165   4.562   5.628
 4901SOL    HW115269   3.199   4.469   5.643
 4901SOL    HW215270   3.183   4.589   5.533
 4902SOL     OW15271   2.930   5.057   6.435
 4902SOL    HW115272   2.937   4.973   6.380
 4902SOL    HW215273   2.992   5.126   6.399
 4903SOL     OW15274   2.181   4.534   6.535
 4903SOL    HW115275   2.274   4.570   6.540
 4903SOL    HW215276   2.175   4.449   6.587
 4904SOL     OW15277   2.201   4.233   6.592
 4904SOL    HW115278   2.149   4.150   6.575
 4904SOL    HW215279   2.278   4.238   6.528
 4905SOL     OW15280   3.000   4.104   7.264
 4905SOL    HW115281   2.955   4.167   7.328
 4905SOL    HW215282   3.093   4.135   7.247
 4906SOL     OW15283   3.022   3.931   7.063
 4906SOL    HW115284   3.022   3.995   7.140
 4906SOL    HW215285   3.050   3.979   6.980
 4907SOL     OW15286   1.870   5.050   5.786
 4907SOL    HW115287   1.777   5.071   5.755
 4907SOL    HW215288   1.880   4.951   5.799
 4908SOL     OW15289   2.864   4.520   6.824
 4908SOL    HW115290   2.905   4.488   6.910
 4908SOL    HW215291   2.768   4.493   6.821
 4909SOL     OW15292   1.902   4.268   6.700
 4909SOL    HW115293   1.987   4.235   6.659
 4909SOL    HW215294   1.915   4.283   6.798
 4910SOL     OW15295   2.051   4.244   7.308
 4910SOL    HW115296   2.110   4.204   7.238
 4910SOL    HW215297   1.993   4.315   7.267
 4911SOL     OW15298   3.231   4.674   7.246
 4911SOL    HW115299   3.270   4.763   7.266
 4911SOL    HW215300   3.241   4.654   7.149
 4912SOL     OW15301   2.677   4.296   5.911
 4912SOL    HW115302   2.684   4.207   5.865
 4912SOL    HW215303   2.583   4.330   5.903
 4913SOL     OW15304   3.519   4.328   6.792
 4913SOL    HW115305   3.481   4.259   6.854
 4913SOL    HW215306   3.601   4.292   6.748
 4914SOL     OW15307   2.114   5.288   7.330
 4914SOL    HW115308   2.084   5.345   7.406
 4914SOL    HW215309   2.107   5.191   7.356
 4915SOL     OW15310   2.533   4.188   6.855
 4915SOL    HW115311   2.499   4.099   6.825
 4915SOL    HW215312   2.559   4.242   6.775
 4916SOL     OW15313   2.335   4.224   5.777
 4916SOL    HW115314   2.396   4.304   5.781
 4916SOL    HW215315   2.240   4.255   5.784
 4917SOL     OW15316   2.021   4.861   7.052
 4917SOL    HW115317   2.043   4.800   7.128
 4917SOL    HW215318   2.031   4.812   6.966
 4918SOL     OW15319   3.209   4.783   6.820
 4918SOL    HW115320   3.233   4.720   6.746
 4918SOL    HW215321   3.119   4.823   6.802
 4919SOL     OW15322   3.164   4.579   5.895
 4919SOL    HW115323   3.078   4.548   5.937
 4919SOL    HW215324   3.160   4.565   5.796
 4920SOL     OW15325   1.945   4.982   6.608
 4920SOL    HW115326   1.940   4.981   6.708
 4920SOL    HW215327   1.862   4.941   6.570
 4921SOL     OW15328   2.550   5.386   7.302
 4921SOL    HW115329   2.494   5.467   7.311
 4921SOL    HW215330   2.602   5.390   7.216
 4922SOL     OW15331   3.588   3.859   6.109
 4922SOL    HW115332   3.661   3.842   6.042
 4922SOL    HW215333   3.557   3.772   6.147
 4923SOL     OW15334   3.142   4.651   6.258
 4923SOL    HW115335   3.202   4.570   6.260
 4923SOL    HW215336   3.182   4.720   6.198
 4924SOL     OW15337   2.692   4.997   7.008
 4924SOL    HW115338   2.687   5.030   7.103
 4924SOL    HW215339   2.606   5.016   6.962
 4925SOL     OW15340   3.703   3.899   6.549
 4925SOL    HW115341   3.742   3.814   6.513
 4925SOL    HW215342   3.605   3.901   6.530
 4926SOL     OW15343   2.125   4.050   6.306
 4926SOL    HW115344   2.046   4.101   6.272
 4926SOL    HW215345   2.116   4.035   6.404
 4927SOL     OW15346   2.684   4.726   6.958
 4927SOL    HW115347   2.724   4.725   6.866
 4927SOL    HW215348   2.694   4.818   6.998
 4928SOL     OW15349   2.778   4.634   5.877
 4928SOL    HW115350   2.841   4.672   5.809
 4928SOL    HW215351   2.818   4.551   5.916
 4929SOL     OW15352   2.234   5.012   7.076
 4929SOL    HW115353   2.221   5.105   7.042
 4929SOL    HW215354   2.150   4.960   7.063
 4930SOL     OW15355   3.476   5.016   6.875
 4930SOL    HW115356   3.536   5.019   6.955
 4930SOL    HW215357   3.401   5.080   6.888
 4931SOL     OW15358   2.901   4.822   6.282
 4931SOL    HW115359   2.831   4.775   6.336
 4931SOL    HW215360   2.960   4.754   6.239
 4932SOL     OW15361   2.876   3.960   6.557
 4932SOL    HW115362   2.868   3.924   6.464
 4932SOL    HW215363   2.874   3.884   6.622
 4933SOL     OW15364   3.571   4.109   6.967
 4933SOL    HW115365   3.644   4.178   6.971
 4933SOL    HW215366   3.599   4.034   6.908
 4934SOL     OW15367   2.117   5.072   5.876
 4934SOL    HW115368   2.021   5.073   5.849
 4934SOL    HW215369   2.129   5.125   5.960
 4935SOL     OW15370   1.967   4.737   7.312
 4935SOL    HW115371   1.890   4.704   7.366
 4935SOL    HW215372   2.052   4.707   7.354
 4936SOL     OW15373   2.534   3.927   7.075
 4936SOL    HW115374   2.624   3.911   7.035
 4936SOL    HW215375   2.542   3.932   7.174
 4937SOL     OW15376   1.937   4.069   5.619
 4937SOL    HW115377   1.845   4.041   5.590
 4937SOL    HW215378   1.968   4.146   5.563
 4938SOL     OW15379   3.302   4.580   6.984
 4938SOL    HW115380   3.245   4.632   6.921
 4938SOL    HW215381   3.398   4.592   6.960
 4939SOL     OW15382   1.934   3.890   5.904
 4939SOL    HW115383   1.917   3.973   5.850
 4939SOL    HW215384   2.024   3.853   5.882
 4940SOL     OW15385   3.045   5.059   5.705
 4940SOL    HW115386   2.946   5.048   5.707
 4940SOL    HW215387   3.079   5.074   5.798
 4941SOL     OW15388   2.475   4.566   7.017
 4941SOL    HW115389   2.531   4.647   7.000
 4941SOL    HW215390   2.534   4.486   7.020
 4942SOL     OW15391   2.578   4.289   7.294
 4942SOL    HW115392   2.597   4.354   7.368
 4942SOL    HW215393   2.638   4.209   7.303
 4943SOL     OW15394   3.312   4.944   7.219
 4943SOL    HW115395   3.303   4.934   7.318
 4943SOL    HW215396   3.408   4.937   7.193
 4944SOL     OW15397   3.536   4.607   6.840
 4944SOL    HW115398   3.509   4.518   6.803
 4944SOL    HW215399   3.537   4.675   6.767
 4945SOL     OW15400   3.087   4.049   6.035
 4945SOL    HW115401   3.152   3.975   6.024
 4945SOL    HW215402   3.107   4.099   6.119
 4946SOL     OW15403   2.456   4.469   6.238
 4946SOL    HW115404   2.506   4.554   6.219
 4946SOL    HW215405   2.368   4.471   6.190
 4947SOL     OW15406   3.639   4.066   7.228
 4947SOL    HW115407   3.622   4.097   7.134
 4947SOL    HW215408   3.555   4.029   7.266
 4948SOL     OW15409   3.592   4.658   7.103
 4948SOL    HW115410   3.630   4.749   7.118
 4948SOL    HW215411   3.584   4.641   7.004
 4949SOL     OW15412   2.721   5.098   5.602
 4949SOL    HW115413   2.675   5.113   5.690
 4949SOL    HW215414   2.765   5.183   5.572
 4950SOL     OW15415   2.721   4.680   6.447
 4950SOL    HW115416   2.775   4.611   6.495
 4950SOL    HW215417   2.689   4.749   6.513
 4951SOL     OW15418   2.945   4.708   5.673
 4951SOL    HW115419   2.922   4.761   5.591
 4951SOL    HW215420   3.026   4.652   5.654
 4952SOL     OW15421   2.083   5.038   7.430
 4952SOL    HW115422   2.018   4.965   7.409
 4952SOL    HW215423   2.087   5.052   7.528
 4953SOL     OW15424   1.941   4.964   6.239
 4953SOL    HW115425   1.940   4.917   6.327
 4953SOL    HW215426   2.023   4.936   6.188
 4954SOL     OW15427   2.534   5.115   7.210
 4954SOL    HW115428   2.456   5.065   7.248
 4954SOL    HW215429   2.531   5.210   7.241
 4955SOL     OW15430   3.686   3.916   6.813
 4955SOL    HW115431   3.682   3.826   6.857
 4955SOL    HW215432   3.689   3.905   6.714
 4956SOL     OW15433   2.290   4.148   6.106
 4956SOL    HW115434   2.320   4.076   6.044
 4956SOL    HW215435   2.251   4.108   6.189
 4957SOL     OW15436   3.567   5.211   6.690
 4957SOL    HW115437   3.474   5.186   6.663
 4957SOL    HW215438   3.593   5.161   6.772
 4958SOL     OW15439   2.179   4.271   6.866
 4958SOL    HW115440   2.217   4.212   6.938
 4958SOL    HW215441   2.219   4.245   6.778
 4959SOL     OW15442   3.286   3.938   6.698
 4959SOL    HW115443   3.338   3.873   6.753
 4959SOL    HW215444   3.237   4.001   6.759
 4960SOL     OW15445   2.863   3.758   6.740
 4960SOL    HW115446   2.800   3.686   6.709
 4960SOL    HW215447   2.956   3.722   6.740
 4961SOL     OW15448   2.632   5.054   5.887
 4961SOL    HW115449   2.586   4.967   5.904
 4961SOL    HW215450   2.723   5.051   5.928
 4962SOL     OW15451   2.480   5.291   6.870
 4962SOL    HW115452   2.475   5.373   6.927
 4962SOL    HW215453   2.569   5.288   6.825
 4963SOL     OW15454   3.214   3.776   5.754
 4963SOL    HW115455   3.249   3.735   5.670
 4963SOL    HW215456   3.124   3.738   5.774
 4964SOL     OW15457   3.162   4.177   6.277
 4964SOL    HW115458   3.103   4.257   6.281
 4964SOL    HW215459   3.177   4.142   6.370
 4965SOL     OW15460   3.455   3.945   6.468
 4965SOL    HW115461   3.371   3.944   6.522
 4965SOL    HW215462   3.457   4.028   6.412
 4966SOL     OW15463   1.901   4.801   5.886
 4966SOL    HW115464   2.000   4.790   5.877
 4966SOL    HW215465   1.861   4.715   5.918
 4967SOL     OW15466   2.092   4.352   7.561
 4967SOL    HW115467   1.999   4.350   7.598
 4967SOL    HW215468   2.093   4.313   7.469
 4968SOL     OW15469   3.617   4.331   7.679
 4968SOL    HW115470   3.605   4.318   7.580
 4968SOL    HW215471   3.587   4.250   7.728
 4969SOL     OW15472   2.093   5.437   7.931
 4969SOL    HW115473   2.127   5.514   7.985
 4969SOL    HW215474   2.137   5.437   7.841
 4970SOL     OW15475   2.092   5.158   7.986
 4970SOL    HW115476   2.066   5.254   7.986
 4970SOL    HW215477   2.021   5.104   8.031
 4971SOL     OW15478   2.468   4.688   7.571
 4971SOL    HW115479   2.475   4.772   7.517
 4971SOL    HW215480   2.514   4.701   7.659
 4972SOL     OW15481   1.889   5.320   7.565
 4972SOL    HW115482   1.870   5.224   7.586
 4972SOL    HW215483   1.856   5.378   7.640
 4973SOL     OW15484   3.551   4.646   8.060
 4973SOL    HW115485   3.646   4.617   8.068
 4973SOL    HW215486   3.543   4.711   7.985
 4974SOL     OW15487   3.503   4.832   7.880
 4974SOL    HW115488   3.589   4.834   7.828
 4974SOL    HW215489   3.517   4.879   7.968
 4975SOL     OW15490   2.671   3.728   7.950
 4975SOL    HW115491   2.711   3.819   7.941
 4975SOL    HW215492   2.571   3.736   7.956
 4976SOL     OW15493   3.387   4.723   7.638
 4976SOL    HW115494   3.324   4.647   7.651
 4976SOL    HW215495   3.435   4.741   7.724
 4977SOL     OW15496   2.460   4.453   7.718
 4977SOL    HW115497   2.484   4.522   7.650
 4977SOL    HW215498   2.382   4.486   7.772
 4978SOL     OW15499   1.938   4.535   8.237
 4978SOL    HW115500   2.037   4.523   8.246
 4978SOL    HW215501   1.914   4.630   8.258
 4979SOL     OW15502   2.727   4.072   7.643
 4979SOL    HW115503   2.786   4.135   7.594
 4979SOL    HW215504   2.746   3.978   7.614
 4980SOL     OW15505   2.183   4.667   7.690
 4980SOL    HW115506   2.265   4.706   7.648
 4980SOL    HW215507   2.156   4.585   7.641
 4981SOL     OW15508   2.973   5.500   7.685
 4981SOL    HW115509   2.913   5.438   7.735
 4981SOL    HW215510   3.004   5.456   7.600
 4982SOL     OW15511   3.494   5.101   7.529
 4982SOL    HW115512   3.462   5.195   7.519
 4982SOL    HW215513   3.418   5.038   7.517
 4983SOL     OW15514   3.262   3.831   7.874
 4983SOL    HW115515   3.238   3.794   7.784
 4983SOL    HW215516   3.361   3.847   7.878
 4984SOL     OW15517   2.244   4.424   7.928
 4984SOL    HW115518   2.289   4.334   7.925
 4984SOL    HW215519   2.150   4.413   7.961
 4985SOL     OW15520   2.476   3.846   7.565
 4985SOL    HW115521   2.574   3.824   7.572
 4985SOL    HW215522   2.445   3.829   7.472
 4986SOL     OW15523   2.401   3.788   7.960
 4986SOL    HW115524   2.320   3.789   8.018
 4986SOL    HW215525   2.404   3.871   7.905
 4987SOL     OW15526   3.296   4.912   7.489
 4987SOL    HW115527   3.328   4.836   7.546
 4987SOL    HW215528   3.204   4.939   7.519
 4988SOL     OW15529   2.159   3.759   7.619
 4988SOL    HW115530   2.208   3.843   7.598
 4988SOL    HW215531   2.221   3.694   7.664
 4989SOL     OW15532   2.797   3.960   7.928
 4989SOL    HW115533   2.749   4.001   7.850
 4989SOL    HW215534   2.896   3.958   7.909
 4990SOL     OW15535   2.321   4.876   8.189
 4990SOL    HW115536   2.250   4.849   8.254
 4990SOL    HW215537   2.295   4.848   8.096
 4991SOL     OW15538   2.894   4.273   7.464
 4991SOL    HW115539   2.853   4.355   7.425
 4991SOL    HW215540   2.958   4.299   7.537
 4992SOL     OW15541   3.719   4.557   7.825
 4992SOL    HW115542   3.761   4.493   7.889
 4992SOL    HW215543   3.681   4.506   7.747
 4993SOL     OW15544   2.350   5.109   7.622
 4993SOL    HW115545   2.263   5.094   7.669
 4993SOL    HW215546   2.333   5.135   7.527
 4994SOL     OW15547   3.252   4.299   7.526
 4994SOL    HW115548   3.198   4.278   7.607
 4994SOL    HW215549   3.343   4.258   7.535
 4995SOL     OW15550   2.389   3.980   7.776
 4995SOL    HW115551   2.416   3.921   7.701
 4995SOL    HW215552   2.389   4.075   7.745
 4996SOL     OW15553   2.567   4.774   7.816
 4996SOL    HW115554   2.553   4.781   7.915
 4996SOL    HW215555   2.651   4.723   7.798
 4997SOL     OW15556   2.229   4.824   7.949
 4997SOL    HW115557   2.222   4.907   7.893
 4997SOL    HW215558   2.233   4.744   7.889
 4998SOL     OW15559   3.114   5.072   7.836
 4998SOL    HW115560   3.164   5.149   7.876
 4998SOL    HW215561   3.019   5.074   7.868
 4999SOL     OW15562   3.444   4.363   7.920
 4999SOL    HW115563   3.413   4.424   7.993
 4999SOL    HW215564   3.494   4.415   7.851
 5000SOL     OW15565   3.071   4.249   7.723
 5000SOL    HW115566   3.084   4.165   7.777
 5000SOL    HW215567   3.042   4.323   7.783
 5001SOL     OW15568   3.484   4.091   7.822
 5001SOL    HW115569   3.486   4.015   7.886
 5001SOL    HW215570   3.436   4.168   7.862
 5002SOL     OW15571   3.402   3.998   7.573
 5002SOL    HW115572   3.341   3.923   7.596
 5002SOL    HW215573   3.424   4.050   7.656
 5003SOL     OW15574   3.165   4.562   7.490
 5003SOL    HW115575   3.199   4.469   7.505
 5003SOL    HW215576   3.183   4.589   7.395
 5004SOL     OW15577   1.870   5.050   7.648
 5004SOL    HW115578   1.777   5.071   7.617
 5004SOL    HW215579   1.880   4.951   7.661
 5005SOL     OW15580   2.677   4.296   7.773
 5005SOL    HW115581   2.684   4.207   7.727
 5005SOL    HW215582   2.583   4.330   7.765
 5006SOL     OW15583   2.335   4.224   7.639
 5006SOL    HW115584   2.396   4.304   7.643
 5006SOL    HW215585   2.240   4.255   7.646
 5007SOL     OW15586   3.164   4.579   7.757
 5007SOL    HW115587   3.078   4.548   7.799
 5007SOL    HW215588   3.160   4.565   7.658
 5008SOL     OW15589   3.588   3.859   7.971
 5008SOL    HW115590   3.661   3.842   7.904
 5008SOL    HW215591   3.557   3.772   8.009
 5009SOL     OW15592   2.778   4.634   7.739
 5009SOL    HW115593   2.841   4.672   7.671
 5009SOL    HW215594   2.818   4.551   7.778
 5010SOL     OW15595   2.117   5.072   7.738
 5010SOL    HW115596   2.021   5.073   7.711
 5010SOL    HW215597   2.129   5.125   7.822
 5011SOL     OW15598   1.937   4.069   7.481
 5011SOL    HW115599   1.845   4.041   7.452
 5011SOL    HW215600   1.968   4.146   7.425
 5012SOL     OW15601   1.934   3.890   7.766
 5012SOL    HW115602   1.917   3.973   7.712
 5012SOL    HW215603   2.024   3.853   7.744
 5013SOL     OW15604   3.045   5.059   7.567
 5013SOL    HW115605   2.946   5.048   7.569
 5013SOL    HW215606   3.079   5.074   7.660
 5014SOL     OW15607   3.087   4.049   7.897
 5014SOL    HW115608   3.152   3.975   7.886
 5014SOL    HW215609   3.107   4.099   7.981
 5015SOL     OW15610   2.456   4.469   8.100
 5015SOL    HW115611   2.506   4.554   8.081
 5015SOL    HW215612   2.368   4.471   8.052
 5016SOL     OW15613   2.721   5.098   7.464
 5016SOL    HW115614   2.675   5.113   7.552
 5016SOL    HW215615   2.765   5.183   7.434
 5017SOL     OW15616   2.945   4.708   7.535
 5017SOL    HW115617   2.922   4.761   7.453
 5017SOL    HW215618   3.026   4.652   7.516
 5018SOL     OW15619   2.290   4.148   7.968
 5018SOL    HW115620   2.320   4.076   7.906
 5018SOL    HW215621   2.251   4.108   8.051
 5019SOL     OW15622   2.632   5.054   7.749
 5019SOL    HW115623   2.586   4.967   7.766
 5019SOL    HW215624   2.723   5.051   7.790
 5020SOL     OW15625   3.214   3.776   7.616
 5020SOL    HW115626   3.249   3.735   7.532
 5020SOL    HW215627   3.124   3.738   7.636
 5021SOL     OW15628   1.901   4.801   7.748
 5021SOL    HW115629   2.000   4.790   7.739
 5021SOL    HW215630   1.861   4.715   7.780
 5022SOL     OW15631   3.954   0.628   0.113
 5022SOL    HW115632   3.861   0.626   0.150
 5022SOL    HW215633   3.955   0.589   0.021
 5023SOL     OW15634   3.949   0.275   0.996
 5023SOL    HW115635   3.984   0.258   1.088
 5023SOL    HW215636   3.861   0.230   0.984
 5024SOL     OW15637   3.743   0.368   0.647
 5024SOL    HW115638   3.661   0.411   0.686
 5024SOL    HW215639   3.715   0.295   0.584
 5025SOL     OW15640   4.293   1.275   1.165
 5025SOL    HW115641   4.200   1.268   1.128
 5025SOL    HW215642   4.304   1.364   1.209
 5026SOL     OW15643   5.279   1.511   0.703
 5026SOL    HW115644   5.222   1.495   0.784
 5026SOL    HW215645   5.220   1.521   0.623
 5027SOL     OW15646   4.859   0.703   0.717
 5027SOL    HW115647   4.916   0.781   0.692
 5027SOL    HW215648   4.799   0.729   0.793
 5028SOL     OW15649   4.492   1.144   1.023
 5028SOL    HW115650   4.414   1.161   1.083
 5028SOL    HW215651   4.526   1.231   0.987
 5029SOL     OW15652   4.574   0.798   1.823
 5029SOL    HW115653   4.570   0.874   1.888
 5029SOL    HW215654   4.596   0.834   1.732
 5030SOL     OW15655   4.409   1.012   0.665
 5030SOL    HW115656   4.478   0.996   0.735
 5030SOL    HW215657   4.336   1.069   0.703
 5031SOL     OW15658   4.410   1.161   1.803
 5031SOL    HW115659   4.470   1.240   1.817
 5031SOL    HW215660   4.324   1.192   1.762
 5032SOL     OW15661   4.059   1.435   1.061
 5032SOL    HW115662   3.981   1.404   1.008
 5032SOL    HW215663   4.117   1.493   1.004
 5033SOL     OW15664   5.184   1.505   1.339
 5033SOL    HW115665   5.208   1.599   1.365
 5033SOL    HW215666   5.168   1.451   1.421
 5034SOL     OW15667   4.162   0.392   1.499
 5034SOL    HW115668   4.244   0.336   1.508
 5034SOL    HW215669   4.081   0.334   1.503
 5035SOL     OW15670   3.955   1.713   0.483
 5035SOL    HW115671   3.989   1.790   0.537
 5035SOL    HW215672   3.999   1.713   0.393
 5036SOL     OW15673   4.851   1.341   1.690
 5036SOL    HW115674   4.898   1.341   1.778
 5036SOL    HW215675   4.803   1.254   1.679
 5037SOL     OW15676   3.954   1.434   0.538
 5037SOL    HW115677   3.928   1.530   0.538
 5037SOL    HW215678   3.883   1.380   0.583
 5038SOL     OW15679   3.964   1.091   0.886
 5038SOL    HW115680   3.978   1.007   0.938
 5038SOL    HW215681   3.909   1.155   0.941
 5039SOL     OW15682   4.344   1.786   1.439
 5039SOL    HW115683   4.252   1.769   1.474
 5039SOL    HW215684   4.372   1.878   1.465
 5040SOL     OW15685   4.330   0.964   0.123
 5040SOL    HW115686   4.337   1.048   0.069
 5040SOL    HW215687   4.376   0.977   0.211
 5041SOL     OW15688   5.318   0.114   1.480
 5041SOL    HW115689   5.300   0.181   1.408
 5041SOL    HW215690   5.315   0.160   1.569
 5042SOL     OW15691   3.846   0.643   0.563
 5042SOL    HW115692   3.801   0.555   0.580
 5042SOL    HW215693   3.845   0.697   0.647
 5043SOL     OW15694   3.751   1.596   0.117
 5043SOL    HW115695   3.732   1.500   0.138
 5043SOL    HW215696   3.718   1.654   0.192
 5044SOL     OW15697   5.413   0.922   0.612
 5044SOL    HW115698   5.508   0.893   0.620
 5044SOL    HW215699   5.405   0.987   0.537
 5045SOL     OW15700   3.837   0.737   1.597
 5045SOL    HW115701   3.925   0.724   1.642
 5045SOL    HW215702   3.824   0.834   1.575
 5046SOL     OW15703   4.337   1.365   0.726
 5046SOL    HW115704   4.288   1.278   0.735
 5046SOL    HW215705   4.314   1.408   0.639
 5047SOL     OW15706   5.017   1.228   1.423
 5047SOL    HW115707   5.054   1.155   1.365
 5047SOL    HW215708   5.069   1.233   1.508
 5048SOL     OW15709   4.533   0.004   0.502
 5048SOL    HW115710   4.573   0.095   0.493
 5048SOL    HW215711   4.433   0.012   0.508
 5049SOL     OW15712   3.921   0.976   1.264
 5049SOL    HW115713   4.010   0.931   1.250
 5049SOL    HW215714   3.848   0.911   1.245
 5050SOL     OW15715   4.911   1.792   1.616
 5050SOL    HW115716   4.935   1.852   1.540
 5050SOL    HW215717   4.918   1.697   1.586
 5051SOL     OW15718   4.041   0.251   1.801
 5051SOL    HW115719   4.112   0.322   1.807
 5051SOL    HW215720   3.953   0.290   1.829
 5052SOL     OW15721   5.190   1.417   0.953
 5052SOL    HW115722   5.131   1.423   1.033
 5052SOL    HW215723   5.175   1.329   0.907
 5053SOL     OW15724   4.322   0.729   0.270
 5053SOL    HW115725   4.346   0.798   0.202
 5053SOL    HW215726   4.244   0.762   0.324
 5054SOL     OW15727   5.005   0.345   0.944
 5054SOL    HW115728   4.919   0.295   0.931
 5054SOL    HW215729   5.067   0.291   1.000
 5055SOL     OW15730   4.531   0.605   1.465
 5055SOL    HW115731   4.484   0.602   1.554
 5055SOL    HW215732   4.480   0.550   1.399
 5056SOL     OW15733   5.118   0.469   1.674
 5056SOL    HW115734   5.098   0.512   1.762
 5056SOL    HW215735   5.196   0.407   1.683
 5057SOL     OW15736   4.697   0.890   1.572
 5057SOL    HW115737   4.743   0.806   1.543
 5057SOL    HW215738   4.641   0.924   1.497
 5058SOL     OW15739   4.715   0.410   1.242
 5058SOL    HW115740   4.638   0.444   1.296
 5058SOL    HW215741   4.681   0.359   1.163
 5059SOL     OW15742   4.765   0.701   0.429
 5059SOL    HW115743   4.791   0.697   0.525
 5059SOL    HW215744   4.680   0.650   0.415
 5060SOL     OW15745   3.800   0.811   0.789
 5060SOL    HW115746   3.899   0.799   0.798
 5060SOL    HW215747   3.776   0.906   0.810
 5061SOL     OW15748   3.854   1.821   1.571
 5061SOL    HW115749   3.844   1.806   1.670
 5061SOL    HW215750   3.768   1.857   1.535
 5062SOL     OW15751   4.589   0.348   0.195
 5062SOL    HW115752   4.648   0.411   0.146
 5062SOL    HW215753   4.608   0.254   0.166
 5063SOL     OW15754   5.086   1.144   0.545
 5063SOL    HW115755   5.169   1.115   0.497
 5063SOL    HW215756   5.037   1.211   0.489
 5064SOL     OW15757   4.274   0.196   0.885
 5064SOL    HW115758   4.269   0.191   0.985
 5064SOL    HW215759   4.276   0.292   0.856
 5065SOL     OW15760   4.732   1.456   0.477
 5065SOL    HW115761   4.686   1.528   0.425
 5065SOL    HW215762   4.728   1.476   0.575
 5066SOL     OW15763   4.075   1.801   0.853
 5066SOL    HW115764   4.125   1.715   0.859
 5066SOL    HW215765   4.140   1.878   0.850
 5067SOL     OW15766   4.951   1.550   1.506
 5067SOL    HW115767   4.957   1.473   1.570
 5067SOL    HW215768   4.899   1.524   1.426
 5068SOL     OW15769   4.045   0.943   0.242
 5068SOL    HW115770   4.127   0.982   0.200
 5068SOL    HW215771   4.018   0.861   0.193
 5069SOL     OW15772   4.185   1.266   1.727
 5069SOL    HW115773   4.135   1.267   1.641
 5069SOL    HW215774   4.122   1.248   1.803
 5070SOL     OW15775   4.835   1.776   0.237
 5070SOL    HW115776   4.775   1.714   0.287
 5070SOL    HW215777   4.866   1.732   0.152
 5071SOL     OW15778   3.926   0.285   1.498
 5071SOL    HW115779   3.846   0.345   1.485
 5071SOL    HW215780   3.916   0.236   1.584
 5072SOL     OW15781   4.188   1.743   0.323
 5072SOL    HW115782   4.221   1.782   0.409
 5072SOL    HW215783   4.264   1.736   0.258
 5073SOL     OW15784   5.124   0.107   0.426
 5073SOL    HW115785   5.100   0.070   0.336
 5073SOL    HW215786   5.223   0.123   0.430
 5074SOL     OW15787   3.973   1.785   1.241
 5074SOL    HW115788   4.030   1.720   1.291
 5074SOL    HW215789   3.957   1.752   1.148
 5075SOL     OW15790   4.664   1.698   0.904
 5075SOL    HW115791   4.744   1.641   0.925
 5075SOL    HW215792   4.615   1.658   0.827
 5076SOL     OW15793   4.106   0.700   0.480
 5076SOL    HW115794   4.151   0.610   0.477
 5076SOL    HW215795   4.012   0.689   0.513
 5077SOL     OW15796   4.338   0.122   0.117
 5077SOL    HW115797   4.436   0.100   0.124
 5077SOL    HW215798   4.307   0.105   0.024
 5078SOL     OW15799   4.505   0.264   1.749
 5078SOL    HW115800   4.572   0.203   1.792
 5078SOL    HW215801   4.432   0.283   1.814
 5079SOL     OW15802   4.612   1.514   1.195
 5079SOL    HW115803   4.589   1.489   1.101
 5079SOL    HW215804   4.673   1.445   1.234
 5080SOL     OW15805   5.075   0.590   1.433
 5080SOL    HW115806   5.103   0.547   1.518
 5080SOL    HW215807   5.100   0.686   1.434
 5081SOL     OW15808   4.527   1.402   0.924
 5081SOL    HW115809   4.617   1.416   0.882
 5081SOL    HW215810   4.456   1.404   0.853
 5082SOL     OW15811   4.646   0.503   0.899
 5082SOL    HW115812   4.621   0.494   0.803
 5082SOL    HW215813   4.694   0.421   0.930
 5083SOL     OW15814   4.263   0.064   0.512
 5083SOL    HW115815   4.182   0.065   0.570
 5083SOL    HW215816   4.266   0.147   0.457
 5084SOL     OW15817   5.158   1.188   0.041
 5084SOL    HW115818   5.190   1.112   0.098
 5084SOL    HW215819   5.066   1.215   0.071
 5085SOL     OW15820   4.021   0.035   0.171
 5085SOL    HW115821   4.070   0.119   0.150
 5085SOL    HW215822   4.083  -0.030   0.216
 5086SOL     OW15823   4.659   0.236   0.480
 5086SOL    HW115824   4.611   0.277   0.402
 5086SOL    HW215825   4.758   0.234   0.461
 5087SOL     OW15826   4.800   0.683   1.464
 5087SOL    HW115827   4.720   0.622   1.467
 5087SOL    HW215828   4.881   0.630   1.440
 5088SOL     OW15829   4.951   1.570   0.793
 5088SOL    HW115830   4.972   1.644   0.728
 5088SOL    HW215831   5.019   1.570   0.866
 5089SOL     OW15832   4.183   1.152   0.741
 5089SOL    HW115833   4.112   1.125   0.806
 5089SOL    HW215834   4.157   1.124   0.648
 5090SOL     OW15835   4.995   1.797   0.591
 5090SOL    HW115836   5.039   1.861   0.527
 5090SOL    HW215837   4.945   1.849   0.661
 5091SOL     OW15838   4.756   0.549   0.016
 5091SOL    HW115839   4.715   0.631  -0.023
 5091SOL    HW215840   4.820   0.575   0.089
 5092SOL     OW15841   3.802   0.556   1.386
 5092SOL    HW115842   3.894   0.555   1.345
 5092SOL    HW215843   3.796   0.630   1.453
 5093SOL     OW15844   4.285   0.222   1.147
 5093SOL    HW115845   4.323   0.138   1.184
 5093SOL    HW215846   4.197   0.241   1.191
 5094SOL     OW15847   4.590   0.454   0.642
 5094SOL    HW115848   4.558   0.526   0.580
 5094SOL    HW215849   4.614   0.373   0.589
 5095SOL     OW15850   4.741   0.039   0.753
 5095SOL    HW115851   4.669   0.044   0.684
 5095SOL    HW215852   4.717  -0.030   0.822
 5096SOL     OW15853   5.153   1.173   0.867
 5096SOL    HW115854   5.098   1.089   0.860
 5096SOL    HW215855   5.179   1.202   0.775
 5097SOL     OW15856   4.212   1.385   0.174
 5097SOL    HW115857   4.125   1.370   0.221
 5097SOL    HW215858   4.195   1.411   0.079
 5098SOL     OW15859   5.114   0.575   0.078
 5098SOL    HW115860   5.060   0.554   0.159
 5098SOL    HW215861   5.205   0.534   0.087
 5099SOL     OW15862   4.251   0.256   0.328
 5099SOL    HW115863   4.278   0.197   0.253
 5099SOL    HW215864   4.251   0.351   0.297
 5100SOL     OW15865   4.788   1.347   1.340
 5100SOL    HW115866   4.708   1.324   1.395
 5100SOL    HW215867   4.871   1.321   1.389
 5101SOL     OW15868   5.316   1.629   1.625
 5101SOL    HW115869   5.343   1.663   1.535
 5101SOL    HW215870   5.395   1.591   1.671
 5102SOL     OW15871   4.835   1.195   1.100
 5102SOL    HW115872   4.795   1.239   1.181
 5102SOL    HW215873   4.794   1.232   1.017
 5103SOL     OW15874   4.639   0.089   1.402
 5103SOL    HW115875   4.664   0.069   1.307
 5103SOL    HW215876   4.711   0.145   1.444
 5104SOL     OW15877   4.704   1.116   1.719
 5104SOL    HW115878   4.605   1.122   1.729
 5104SOL    HW215879   4.727   1.036   1.663
 5105SOL     OW15880   4.429   1.050   0.368
 5105SOL    HW115881   4.415   1.057   0.467
 5105SOL    HW215882   4.513   0.999   0.350
 5106SOL     OW15883   4.134   0.813   1.251
 5106SOL    HW115884   4.220   0.825   1.301
 5106SOL    HW215885   4.092   0.726   1.278
 5107SOL     OW15886   4.998   0.386   1.262
 5107SOL    HW115887   5.019   0.460   1.326
 5107SOL    HW215888   4.909   0.403   1.219
 5108SOL     OW15889   3.788   1.564   1.331
 5108SOL    HW115890   3.742   1.646   1.297
 5108SOL    HW215891   3.886   1.583   1.340
 5109SOL     OW15892   4.091   1.100   0.501
 5109SOL    HW115893   4.084   1.183   0.445
 5109SOL    HW215894   4.095   1.020   0.441
 5110SOL     OW15895   4.290   0.537   0.865
 5110SOL    HW115896   4.302   0.603   0.791
 5110SOL    HW215897   4.336   0.571   0.948
 5111SOL     OW15898   4.976   1.348   0.388
 5111SOL    HW115899   5.026   1.425   0.428
 5111SOL    HW215900   4.881   1.350   0.420
 5112SOL     OW15901   4.996   1.445   1.142
 5112SOL    HW115902   5.043   1.458   1.229
 5112SOL    HW215903   4.930   1.371   1.151
 5113SOL     OW15904   4.078   1.510   1.329
 5113SOL    HW115905   4.057   1.466   1.242
 5113SOL    HW215906   4.175   1.536   1.332
 5114SOL     OW15907   4.126   0.751   1.598
 5114SOL    HW115908   4.194   0.806   1.551
 5114SOL    HW215909   4.166   0.663   1.625
 5115SOL     OW15910   4.737   0.105   1.770
 5115SOL    HW115911   4.743   0.190   1.718
 5115SOL    HW215912   4.769   0.029   1.713
 5116SOL     OW15913   4.228   0.050   1.740
 5116SOL    HW115914   4.186  -0.007   1.670
 5116SOL    HW215915   4.162   0.119   1.772
 5117SOL     OW15916   4.297   0.870   1.029
 5117SOL    HW115917   4.341   0.959   1.020
 5117SOL    HW215918   4.234   0.870   1.106
 5118SOL     OW15919   5.084   0.862   1.045
 5118SOL    HW115920   5.009   0.862   0.979
 5118SOL    HW215921   5.121   0.770   1.054
 5119SOL     OW15922   4.933   0.525   0.275
 5119SOL    HW115923   4.946   0.441   0.329
 5119SOL    HW215924   4.904   0.599   0.335
 5120SOL     OW15925   4.031   0.213   1.231
 5120SOL    HW115926   4.008   0.250   1.321
 5120SOL    HW215927   4.001   0.118   1.225
 5121SOL     OW15928   3.761   1.310   1.282
 5121SOL    HW115929   3.814   1.261   1.350
 5121SOL    HW215930   3.783   1.408   1.287
 5122SOL     OW15931   4.456   0.634   1.064
 5122SOL    HW115932   4.515   0.608   0.988
 5122SOL    HW215933   4.428   0.730   1.053
 5123SOL     OW15934   4.031   0.063   0.618
 5123SOL    HW115935   4.020   0.157   0.651
 5123SOL    HW215936   4.026   0.000   0.695
 5124SOL     OW15937   5.346   0.367   0.374
 5124SOL    HW115938   5.348   0.291   0.438
 5124SOL    HW215939   5.298   0.444   0.414
 5125SOL     OW15940   4.747   0.766   0.966
 5125SOL    HW115941   4.762   0.787   1.062
 5125SOL    HW215942   4.717   0.671   0.957
 5126SOL     OW15943   4.704   1.573   1.700
 5126SOL    HW115944   4.684   1.617   1.612
 5126SOL    HW215945   4.743   1.482   1.684
 5127SOL     OW15946   4.074   0.898   1.804
 5127SOL    HW115947   4.150   0.942   1.852
 5127SOL    HW215948   4.109   0.851   1.722
 5128SOL     OW15949   5.027   0.838   0.042
 5128SOL    HW115950   5.061   0.745   0.057
 5128SOL    HW215951   5.045   0.865  -0.053
 5129SOL     OW15952   4.792   1.333   0.849
 5129SOL    HW115953   4.799   1.249   0.794
 5129SOL    HW215954   4.854   1.402   0.813
 5130SOL     OW15955   4.043   0.810   0.949
 5130SOL    HW115956   4.136   0.846   0.954
 5130SOL    HW215957   4.037   0.725   1.001
 5131SOL     OW15958   4.063   0.509   1.006
 5131SOL    HW115959   4.011   0.426   0.989
 5131SOL    HW215960   4.140   0.514   0.942
 5132SOL     OW15961   4.862   0.380   1.678
 5132SOL    HW115962   4.817   0.443   1.742
 5132SOL    HW215963   4.955   0.411   1.661
 5133SOL     OW15964   4.884   0.207   1.477
 5133SOL    HW115965   4.884   0.271   1.554
 5133SOL    HW215966   4.912   0.255   1.394
 5134SOL     OW15967   3.732   1.326   0.200
 5134SOL    HW115968   3.639   1.347   0.169
 5134SOL    HW215969   3.742   1.227   0.213
 5135SOL     OW15970   3.812   1.801   0.927
 5135SOL    HW115971   3.770   1.715   0.900
 5135SOL    HW215972   3.906   1.804   0.893
 5136SOL     OW15973   4.228   1.568   0.910
 5136SOL    HW115974   4.294   1.642   0.919
 5136SOL    HW215975   4.272   1.489   0.868
 5137SOL     OW15976   4.726   0.796   1.238
 5137SOL    HW115977   4.767   0.764   1.324
 5137SOL    HW215978   4.630   0.769   1.235
 5138SOL     OW15979   3.764   0.544   1.114
 5138SOL    HW115980   3.849   0.511   1.073
 5138SOL    HW215981   3.777   0.559   1.212
 5139SOL     OW15982   3.913   0.520   1.722
 5139SOL    HW115983   3.972   0.480   1.652
 5139SOL    HW215984   3.855   0.591   1.681
 5140SOL     OW15985   5.093   0.950   1.660
 5140SOL    HW115986   5.132   1.039   1.680
 5140SOL    HW215987   5.103   0.930   1.563
 5141SOL     OW15988   4.539   0.572   0.325
 5141SOL    HW115989   4.546   0.483   0.279
 5141SOL    HW215990   4.445   0.606   0.317
 5142SOL     OW15991   3.976   1.564   1.744
 5142SOL    HW115992   3.946   1.621   1.820
 5142SOL    HW215993   3.969   1.467   1.770
 5143SOL     OW15994   4.395   0.464   1.269
 5143SOL    HW115995   4.361   0.375   1.239
 5143SOL    HW215996   4.421   0.518   1.189
 5144SOL     OW15997   4.654   1.678   1.465
 5144SOL    HW115998   4.630   1.660   1.370
 5144SOL    HW215999   4.684   1.772   1.475
 5145SOL     OW16000   4.197   0.500   0.191
 5145SOL    HW116001   4.258   0.580   0.195
 5145SOL    HW216002   4.102   0.531   0.198
 5146SOL     OW16003   3.883   1.137   1.466
 5146SOL    HW116004   3.905   1.076   1.542
 5146SOL    HW216005   3.893   1.088   1.380
 5147SOL     OW16006   5.071   1.059   1.234
 5147SOL    HW116007   5.095   0.996   1.160
 5147SOL    HW216008   4.981   1.099   1.216
 5148SOL     OW16009   5.026   0.855   0.309
 5148SOL    HW116010   4.940   0.824   0.351
 5148SOL    HW216011   5.022   0.841   0.210
 5149SOL     OW16012   4.976   1.731   1.128
 5149SOL    HW116013   5.060   1.736   1.074
 5149SOL    HW216014   4.953   1.635   1.146
 5150SOL     OW16015   3.807   1.258   1.022
 5150SOL    HW116016   3.802   1.257   1.122
 5150SOL    HW216017   3.724   1.217   0.984
 5151SOL     OW16018   4.412   1.662   1.716
 5151SOL    HW116019   4.356   1.743   1.725
 5151SOL    HW216020   4.464   1.666   1.630
 5152SOL     OW16021   4.627   0.086   0.133
 5152SOL    HW116022   4.678   0.087   0.047
 5152SOL    HW216023   4.683   0.044   0.204
 5153SOL     OW16024   5.112   1.573   0.477
 5153SOL    HW116025   5.179   1.585   0.403
 5153SOL    HW216026   5.072   1.662   0.500
 5154SOL     OW16027   3.854   1.794   1.851
 5154SOL    HW116028   3.813   1.720   1.904
 5154SOL    HW216029   3.918   1.845   1.909
 5155SOL     OW16030   5.004   0.927   0.672
 5155SOL    HW116031   5.064   0.846   0.674
 5155SOL    HW216032   5.044   0.996   0.612
 5156SOL     OW16033   4.554   1.273   1.422
 5156SOL    HW116034   4.549   1.306   1.517
 5156SOL    HW216035   4.468   1.292   1.376
 5157SOL     OW16036   4.396   1.616   0.154
 5157SOL    HW116037   4.405   1.626   0.055
 5157SOL    HW216038   4.356   1.527   0.175
 5158SOL     OW16039   3.987   0.326   0.720
 5158SOL    HW116040   3.908   0.377   0.686
 5158SOL    HW216041   3.978   0.311   0.818
 5159SOL     OW16042   4.918   1.612   0.031
 5159SOL    HW116043   4.924   1.519   0.068
 5159SOL    HW216044   4.859   1.612  -0.049
 5160SOL     OW16045   4.546   1.002   1.372
 5160SOL    HW116046   4.586   1.001   1.280
 5160SOL    HW216047   4.556   1.094   1.412
 5161SOL     OW16048   4.640   0.910   0.291
 5161SOL    HW116049   4.703   0.948   0.223
 5161SOL    HW216050   4.680   0.827   0.330
 5162SOL     OW16051   4.096   1.288   1.490
 5162SOL    HW116052   4.083   1.381   1.456
 5162SOL    HW216053   4.012   1.236   1.477
 5163SOL     OW16054   4.763   1.098   0.696
 5163SOL    HW116055   4.693   1.051   0.750
 5163SOL    HW216056   4.822   1.030   0.653
 5164SOL     OW16057   4.738   0.236   0.971
 5164SOL    HW116058   4.730   0.200   0.878
 5164SOL    HW216059   4.736   0.160   1.036
 5165SOL     OW16060   4.314   1.487   0.491
 5165SOL    HW116061   4.356   1.429   0.421
 5165SOL    HW216062   4.270   1.566   0.447
 5166SOL     OW16063   3.979   1.348   0.290
 5166SOL    HW116064   3.883   1.349   0.263
 5166SOL    HW216065   3.991   1.401   0.374
 5167SOL     OW16066   3.829   1.013   1.726
 5167SOL    HW116067   3.752   0.980   1.780
 5167SOL    HW216068   3.914   0.983   1.768
 5168SOL     OW16069   4.396   0.203   1.489
 5168SOL    HW116070   4.486   0.187   1.449
 5168SOL    HW216071   4.404   0.208   1.588
 5169SOL     OW16072   3.799   0.345   0.033
 5169SOL    HW116073   3.707   0.317   0.004
 5169SOL    HW216074   3.830   0.422  -0.023
 5170SOL     OW16075   5.164   0.856   1.398
 5170SOL    HW116076   5.107   0.908   1.335
 5170SOL    HW216077   5.260   0.868   1.374
 5171SOL     OW16078   3.796   0.166   0.318
 5171SOL    HW116079   3.779   0.249   0.264
 5171SOL    HW216080   3.886   0.129   0.296
 5172SOL     OW16081   4.907   1.335   0.119
 5172SOL    HW116082   4.808   1.324   0.121
 5172SOL    HW216083   4.941   1.350   0.212
 5173SOL     OW16084   4.337   0.842   1.431
 5173SOL    HW116085   4.393   0.923   1.414
 5173SOL    HW216086   4.396   0.762   1.434
 5174SOL     OW16087   4.440   0.565   1.708
 5174SOL    HW116088   4.459   0.630   1.782
 5174SOL    HW216089   4.500   0.485   1.717
 5175SOL     OW16090   5.174   1.220   1.633
 5175SOL    HW116091   5.165   1.210   1.732
 5175SOL    HW216092   5.270   1.213   1.607
 5176SOL     OW16093   4.114   1.741   1.560
 5176SOL    HW116094   4.023   1.782   1.558
 5176SOL    HW216095   4.107   1.647   1.592
 5177SOL     OW16096   4.949   0.325   0.449
 5177SOL    HW116097   5.014   0.251   0.438
 5177SOL    HW216098   4.969   0.375   0.533
 5178SOL     OW16099   4.318   0.745   0.652
 5178SOL    HW116100   4.368   0.830   0.633
 5178SOL    HW216101   4.230   0.747   0.604
 5179SOL     OW16102   4.583   1.374   0.016
 5179SOL    HW116103   4.537   1.389   0.104
 5179SOL    HW216104   4.627   1.459  -0.014
 5180SOL     OW16105   4.385   1.790   0.953
 5180SOL    HW116106   4.339   1.878   0.940
 5180SOL    HW216107   4.484   1.802   0.946
 5181SOL     OW16108   4.583   0.956   0.861
 5181SOL    HW116109   4.637   0.887   0.909
 5181SOL    HW216110   4.551   1.025   0.927
 5182SOL     OW16111   4.807   0.984   0.087
 5182SOL    HW116112   4.784   1.037   0.005
 5182SOL    HW216113   4.888   0.928   0.068
 5183SOL     OW16114   3.945   1.314   1.844
 5183SOL    HW116115   3.880   1.241   1.823
 5183SOL    HW216116   3.949   1.328   1.942
 5184SOL     OW16117   3.803   1.240   0.653
 5184SOL    HW116118   3.802   1.193   0.741
 5184SOL    HW216119   3.885   1.212   0.602
 5185SOL     OW16120   4.396   1.391   1.624
 5185SOL    HW116121   4.318   1.341   1.662
 5185SOL    HW216122   4.393   1.486   1.655
 5186SOL     OW16123   4.152   0.424   0.520
 5186SOL    HW116124   4.182   0.352   0.458
 5186SOL    HW216125   4.113   0.384   0.603
 5187SOL     OW16126   5.429   1.487   1.104
 5187SOL    HW116127   5.336   1.462   1.077
 5187SOL    HW216128   5.455   1.437   1.186
 5188SOL     OW16129   4.041   0.547   1.280
 5188SOL    HW116130   4.079   0.488   1.352
 5188SOL    HW216131   4.081   0.521   1.192
 5189SOL     OW16132   4.536   1.586   0.687
 5189SOL    HW116133   4.568   1.596   0.593
 5189SOL    HW216134   4.457   1.524   0.689
 5190SOL     OW16135   5.148   0.214   1.112
 5190SOL    HW116136   5.200   0.149   1.167
 5190SOL    HW216137   5.099   0.277   1.173
 5191SOL     OW16138   4.725   0.034   1.154
 5191SOL    HW116139   4.662  -0.038   1.123
 5191SOL    HW216140   4.818  -0.002   1.154
 5192SOL     OW16141   4.494   1.330   0.301
 5192SOL    HW116142   4.448   1.243   0.318
 5192SOL    HW216143   4.585   1.327   0.342
 5193SOL     OW16144   4.342   1.567   1.284
 5193SOL    HW116145   4.337   1.649   1.341
 5193SOL    HW216146   4.431   1.564   1.239
 5194SOL     OW16147   5.076   0.052   0.168
 5194SOL    HW116148   5.111   0.011   0.084
 5194SOL    HW216149   4.986   0.014   0.188
 5195SOL     OW16150   5.024   0.453   0.691
 5195SOL    HW116151   4.965   0.533   0.695
 5195SOL    HW216152   5.039   0.418   0.784
 5196SOL     OW16153   5.317   0.221   0.882
 5196SOL    HW116154   5.233   0.220   0.936
 5196SOL    HW216155   5.319   0.304   0.826
 5197SOL     OW16156   3.763   1.077   0.300
 5197SOL    HW116157   3.862   1.066   0.291
 5197SOL    HW216158   3.723   0.991   0.332
 5198SOL     OW16159   4.599   1.646   0.337
 5198SOL    HW116160   4.522   1.611   0.283
 5198SOL    HW216161   4.567   1.717   0.399
 5199SOL     OW16162   3.954   0.628   1.975
 5199SOL    HW116163   3.861   0.626   2.012
 5199SOL    HW216164   3.955   0.589   1.883
 5200SOL     OW16165   3.949   0.275   2.858
 5200SOL    HW116166   3.984   0.258   2.950
 5200SOL    HW216167   3.861   0.230   2.846
 5201SOL     OW16168   3.743   0.368   2.509
 5201SOL    HW116169   3.661   0.411   2.548
 5201SOL    HW216170   3.715   0.295   2.446
 5202SOL     OW16171   4.293   1.275   3.027
 5202SOL    HW116172   4.200   1.268   2.990
 5202SOL    HW216173   4.304   1.364   3.071
 5203SOL     OW16174   5.279   1.511   2.565
 5203SOL    HW116175   5.222   1.495   2.646
 5203SOL    HW216176   5.220   1.521   2.485
 5204SOL     OW16177   4.859   0.703   2.579
 5204SOL    HW116178   4.916   0.781   2.554
 5204SOL    HW216179   4.799   0.729   2.655
 5205SOL     OW16180   4.492   1.144   2.885
 5205SOL    HW116181   4.414   1.161   2.945
 5205SOL    HW216182   4.526   1.231   2.849
 5206SOL     OW16183   4.574   0.798   3.685
 5206SOL    HW116184   4.570   0.874   3.750
 5206SOL    HW216185   4.596   0.834   3.594
 5207SOL     OW16186   4.409   1.012   2.527
 5207SOL    HW116187   4.478   0.996   2.597
 5207SOL    HW216188   4.336   1.069   2.565
 5208SOL     OW16189   4.410   1.161   3.665
 5208SOL    HW116190   4.470   1.240   3.679
 5208SOL    HW216191   4.324   1.192   3.624
 5209SOL     OW16192   4.059   1.435   2.923
 5209SOL    HW116193   3.981   1.404   2.870
 5209SOL    HW216194   4.117   1.493   2.866
 5210SOL     OW16195   5.184   1.505   3.201
 5210SOL    HW116196   5.208   1.599   3.227
 5210SOL    HW216197   5.168   1.451   3.283
 5211SOL     OW16198   4.162   0.392   3.361
 5211SOL    HW116199   4.244   0.336   3.370
 5211SOL    HW216200   4.081   0.334   3.365
 5212SOL     OW16201   3.955   1.713   2.345
 5212SOL    HW116202   3.989   1.790   2.399
 5212SOL    HW216203   3.999   1.713   2.255
 5213SOL     OW16204   4.851   1.341   3.552
 5213SOL    HW116205   4.898   1.341   3.640
 5213SOL    HW216206   4.803   1.254   3.541
 5214SOL     OW16207   3.954   1.434   2.400
 5214SOL    HW116208   3.928   1.530   2.400
 5214SOL    HW216209   3.883   1.380   2.445
 5215SOL     OW16210   3.964   1.091   2.748
 5215SOL    HW116211   3.978   1.007   2.800
 5215SOL    HW216212   3.909   1.155   2.803
 5216SOL     OW16213   4.344   1.786   3.301
 5216SOL    HW116214   4.252   1.769   3.336
 5216SOL    HW216215   4.372   1.878   3.327
 5217SOL     OW16216   4.330   0.964   1.985
 5217SOL    HW116217   4.337   1.048   1.931
 5217SOL    HW216218   4.376   0.977   2.073
 5218SOL     OW16219   5.318   0.114   3.342
 5218SOL    HW116220   5.300   0.181   3.270
 5218SOL    HW216221   5.315   0.160   3.431
 5219SOL     OW16222   3.846   0.643   2.425
 5219SOL    HW116223   3.801   0.555   2.442
 5219SOL    HW216224   3.845   0.697   2.509
 5220SOL     OW16225   3.751   1.596   1.979
 5220SOL    HW116226   3.732   1.500   2.000
 5220SOL    HW216227   3.718   1.654   2.054
 5221SOL     OW16228   5.413   0.922   2.474
 5221SOL    HW116229   5.508   0.893   2.482
 5221SOL    HW216230   5.405   0.987   2.399
 5222SOL     OW16231   3.837   0.737   3.459
 5222SOL    HW116232   3.925   0.724   3.504
 5222SOL    HW216233   3.824   0.834   3.437
 5223SOL     OW16234   4.337   1.365   2.588
 5223SOL    HW116235   4.288   1.278   2.597
 5223SOL    HW216236   4.314   1.408   2.501
 5224SOL     OW16237   5.017   1.228   3.285
 5224SOL    HW116238   5.054   1.155   3.227
 5224SOL    HW216239   5.069   1.233   3.370
 5225SOL     OW16240   4.533   0.004   2.364
 5225SOL    HW116241   4.573   0.095   2.355
 5225SOL    HW216242   4.433   0.012   2.370
 5226SOL     OW16243   3.921   0.976   3.126
 5226SOL    HW116244   4.010   0.931   3.112
 5226SOL    HW216245   3.848   0.911   3.107
 5227SOL     OW16246   4.911   1.792   3.478
 5227SOL    HW116247   4.935   1.852   3.402
 5227SOL    HW216248   4.918   1.697   3.448
 5228SOL     OW16249   4.041   0.251   3.663
 5228SOL    HW116250   4.112   0.322   3.669
 5228SOL    HW216251   3.953   0.290   3.691
 5229SOL     OW16252   5.190   1.417   2.815
 5229SOL    HW116253   5.131   1.423   2.895
 5229SOL    HW216254   5.175   1.329   2.769
 5230SOL     OW16255   4.322   0.729   2.132
 5230SOL    HW116256   4.346   0.798   2.064
 5230SOL    HW216257   4.244   0.762   2.186
 5231SOL     OW16258   5.005   0.345   2.806
 5231SOL    HW116259   4.919   0.295   2.793
 5231SOL    HW216260   5.067   0.291   2.862
 5232SOL     OW16261   4.531   0.605   3.327
 5232SOL    HW116262   4.484   0.602   3.416
 5232SOL    HW216263   4.480   0.550   3.261
 5233SOL     OW16264   5.118   0.469   3.536
 5233SOL    HW116265   5.098   0.512   3.624
 5233SOL    HW216266   5.196   0.407   3.545
 5234SOL     OW16267   4.697   0.890   3.434
 5234SOL    HW116268   4.743   0.806   3.405
 5234SOL    HW216269   4.641   0.924   3.359
 5235SOL     OW16270   4.715   0.410   3.104
 5235SOL    HW116271   4.638   0.444   3.158
 5235SOL    HW216272   4.681   0.359   3.025
 5236SOL     OW16273   4.765   0.701   2.291
 5236SOL    HW116274   4.791   0.697   2.387
 5236SOL    HW216275   4.680   0.650   2.277
 5237SOL     OW16276   3.800   0.811   2.651
 5237SOL    HW116277   3.899   0.799   2.660
 5237SOL    HW216278   3.776   0.906   2.672
 5238SOL     OW16279   3.854   1.821   3.433
 5238SOL    HW116280   3.844   1.806   3.532
 5238SOL    HW216281   3.768   1.857   3.397
 5239SOL     OW16282   4.589   0.348   2.057
 5239SOL    HW116283   4.648   0.411   2.008
 5239SOL    HW216284   4.608   0.254   2.028
 5240SOL     OW16285   5.086   1.144   2.407
 5240SOL    HW116286   5.169   1.115   2.359
 5240SOL    HW216287   5.037   1.211   2.351
 5241SOL     OW16288   4.274   0.196   2.747
 5241SOL    HW116289   4.269   0.191   2.847
 5241SOL    HW216290   4.276   0.292   2.718
 5242SOL     OW16291   4.732   1.456   2.339
 5242SOL    HW116292   4.686   1.528   2.287
 5242SOL    HW216293   4.728   1.476   2.437
 5243SOL     OW16294   4.075   1.801   2.715
 5243SOL    HW116295   4.125   1.715   2.721
 5243SOL    HW216296   4.140   1.878   2.712
 5244SOL     OW16297   4.951   1.550   3.368
 5244SOL    HW116298   4.957   1.473   3.432
 5244SOL    HW216299   4.899   1.524   3.288
 5245SOL     OW16300   4.045   0.943   2.104
 5245SOL    HW116301   4.127   0.982   2.062
 5245SOL    HW216302   4.018   0.861   2.055
 5246SOL     OW16303   4.185   1.266   3.589
 5246SOL    HW116304   4.135   1.267   3.503
 5246SOL    HW216305   4.122   1.248   3.665
 5247SOL     OW16306   4.835   1.776   2.099
 5247SOL    HW116307   4.775   1.714   2.149
 5247SOL    HW216308   4.866   1.732   2.014
 5248SOL     OW16309   3.926   0.285   3.360
 5248SOL    HW116310   3.846   0.345   3.347
 5248SOL    HW216311   3.916   0.236   3.446
 5249SOL     OW16312   4.188   1.743   2.185
 5249SOL    HW116313   4.221   1.782   2.271
 5249SOL    HW216314   4.264   1.736   2.120
 5250SOL     OW16315   5.124   0.107   2.288
 5250SOL    HW116316   5.100   0.070   2.198
 5250SOL    HW216317   5.223   0.123   2.292
 5251SOL     OW16318   3.973   1.785   3.103
 5251SOL    HW116319   4.030   1.720   3.153
 5251SOL    HW216320   3.957   1.752   3.010
 5252SOL     OW16321   4.664   1.698   2.766
 5252SOL    HW116322   4.744   1.641   2.787
 5252SOL    HW216323   4.615   1.658   2.689
 5253SOL     OW16324   4.106   0.700   2.342
 5253SOL    HW116325   4.151   0.610   2.339
 5253SOL    HW216326   4.012   0.689   2.375
 5254SOL     OW16327   4.338   0.122   1.979
 5254SOL    HW116328   4.436   0.100   1.986
 5254SOL    HW216329   4.307   0.105   1.886
 5255SOL     OW16330   4.505   0.264   3.611
 5255SOL    HW116331   4.572   0.203   3.654
 5255SOL    HW216332   4.432   0.283   3.676
 5256SOL     OW16333   4.612   1.514   3.057
 5256SOL    HW116334   4.589   1.489   2.963
 5256SOL    HW216335   4.673   1.445   3.096
 5257SOL     OW16336   5.075   0.590   3.295
 5257SOL    HW116337   5.103   0.547   3.380
 5257SOL    HW216338   5.100   0.686   3.296
 5258SOL     OW16339   4.527   1.402   2.786
 5258SOL    HW116340   4.617   1.416   2.744
 5258SOL    HW216341   4.456   1.404   2.715
 5259SOL     OW16342   4.646   0.503   2.761
 5259SOL    HW116343   4.621   0.494   2.665
 5259SOL    HW216344   4.694   0.421   2.792
 5260SOL     OW16345   4.263   0.064   2.374
 5260SOL    HW116346   4.182   0.065   2.432
 5260SOL    HW216347   4.266   0.147   2.319
 5261SOL     OW16348   5.158   1.188   1.903
 5261SOL    HW116349   5.190   1.112   1.960
 5261SOL    HW216350   5.066   1.215   1.933
 5262SOL     OW16351   4.021   0.035   2.033
 5262SOL    HW116352   4.070   0.119   2.012
 5262SOL    HW216353   4.083  -0.030   2.078
 5263SOL     OW16354   4.659   0.236   2.342
 5263SOL    HW116355   4.611   0.277   2.264
 5263SOL    HW216356   4.758   0.234   2.323
 5264SOL     OW16357   4.800   0.683   3.326
 5264SOL    HW116358   4.720   0.622   3.329
 5264SOL    HW216359   4.881   0.630   3.302
 5265SOL     OW16360   4.951   1.570   2.655
 5265SOL    HW116361   4.972   1.644   2.590
 5265SOL    HW216362   5.019   1.570   2.728
 5266SOL     OW16363   4.183   1.152   2.603
 5266SOL    HW116364   4.112   1.125   2.668
 5266SOL    HW216365   4.157   1.124   2.510
 5267SOL     OW16366   4.995   1.797   2.453
 5267SOL    HW116367   5.039   1.861   2.389
 5267SOL    HW216368   4.945   1.849   2.523
 5268SOL     OW16369   4.756   0.549   1.878
 5268SOL    HW116370   4.715   0.631   1.839
 5268SOL    HW216371   4.820   0.575   1.951
 5269SOL     OW16372   3.802   0.556   3.248
 5269SOL    HW116373   3.894   0.555   3.207
 5269SOL    HW216374   3.796   0.630   3.315
 5270SOL     OW16375   4.285   0.222   3.009
 5270SOL    HW116376   4.323   0.138   3.046
 5270SOL    HW216377   4.197   0.241   3.053
 5271SOL     OW16378   4.590   0.454   2.504
 5271SOL    HW116379   4.558   0.526   2.442
 5271SOL    HW216380   4.614   0.373   2.451
 5272SOL     OW16381   4.741   0.039   2.615
 5272SOL    HW116382   4.669   0.044   2.546
 5272SOL    HW216383   4.717  -0.030   2.684
 5273SOL     OW16384   5.153   1.173   2.729
 5273SOL    HW116385   5.098   1.089   2.722
 5273SOL    HW216386   5.179   1.202   2.637
 5274SOL     OW16387   4.212   1.385   2.036
 5274SOL    HW116388   4.125   1.370   2.083
 5274SOL    HW216389   4.195   1.411   1.941
 5275SOL     OW16390   5.114   0.575   1.940
 5275SOL    HW116391   5.060   0.554   2.021
 5275SOL    HW216392   5.205   0.534   1.949
 5276SOL     OW16393   4.251   0.256   2.190
 5276SOL    HW116394   4.278   0.197   2.115
 5276SOL    HW216395   4.251   0.351   2.159
 5277SOL     OW16396   4.788   1.347   3.202
 5277SOL    HW116397   4.708   1.324   3.257
 5277SOL    HW216398   4.871   1.321   3.251
 5278SOL     OW16399   5.316   1.629   3.487
 5278SOL    HW116400   5.343   1.663   3.397
 5278SOL    HW216401   5.395   1.591   3.533
 5279SOL     OW16402   4.835   1.195   2.962
 5279SOL    HW116403   4.795   1.239   3.043
 5279SOL    HW216404   4.794   1.232   2.879
 5280SOL     OW16405   4.639   0.089   3.264
 5280SOL    HW116406   4.664   0.069   3.169
 5280SOL    HW216407   4.711   0.145   3.306
 5281SOL     OW16408   4.704   1.116   3.581
 5281SOL    HW116409   4.605   1.122   3.591
 5281SOL    HW216410   4.727   1.036   3.525
 5282SOL     OW16411   4.429   1.050   2.230
 5282SOL    HW116412   4.415   1.057   2.329
 5282SOL    HW216413   4.513   0.999   2.212
 5283SOL     OW16414   4.134   0.813   3.113
 5283SOL    HW116415   4.220   0.825   3.163
 5283SOL    HW216416   4.092   0.726   3.140
 5284SOL     OW16417   4.998   0.386   3.124
 5284SOL    HW116418   5.019   0.460   3.188
 5284SOL    HW216419   4.909   0.403   3.081
 5285SOL     OW16420   3.788   1.564   3.193
 5285SOL    HW116421   3.742   1.646   3.159
 5285SOL    HW216422   3.886   1.583   3.202
 5286SOL     OW16423   4.091   1.100   2.363
 5286SOL    HW116424   4.084   1.183   2.307
 5286SOL    HW216425   4.095   1.020   2.303
 5287SOL     OW16426   4.290   0.537   2.727
 5287SOL    HW116427   4.302   0.603   2.653
 5287SOL    HW216428   4.336   0.571   2.810
 5288SOL     OW16429   4.976   1.348   2.250
 5288SOL    HW116430   5.026   1.425   2.290
 5288SOL    HW216431   4.881   1.350   2.282
 5289SOL     OW16432   4.996   1.445   3.004
 5289SOL    HW116433   5.043   1.458   3.091
 5289SOL    HW216434   4.930   1.371   3.013
 5290SOL     OW16435   4.078   1.510   3.191
 5290SOL    HW116436   4.057   1.466   3.104
 5290SOL    HW216437   4.175   1.536   3.194
 5291SOL     OW16438   4.126   0.751   3.460
 5291SOL    HW116439   4.194   0.806   3.413
 5291SOL    HW216440   4.166   0.663   3.487
 5292SOL     OW16441   4.737   0.105   3.632
 5292SOL    HW116442   4.743   0.190   3.580
 5292SOL    HW216443   4.769   0.029   3.575
 5293SOL     OW16444   4.228   0.050   3.602
 5293SOL    HW116445   4.186  -0.007   3.532
 5293SOL    HW216446   4.162   0.119   3.634
 5294SOL     OW16447   4.297   0.870   2.891
 5294SOL    HW116448   4.341   0.959   2.882
 5294SOL    HW216449   4.234   0.870   2.968
 5295SOL     OW16450   5.084   0.862   2.907
 5295SOL    HW116451   5.009   0.862   2.841
 5295SOL    HW216452   5.121   0.770   2.916
 5296SOL     OW16453   4.933   0.525   2.137
 5296SOL    HW116454   4.946   0.441   2.191
 5296SOL    HW216455   4.904   0.599   2.197
 5297SOL     OW16456   4.031   0.213   3.093
 5297SOL    HW116457   4.008   0.250   3.183
 5297SOL    HW216458   4.001   0.118   3.087
 5298SOL     OW16459   3.761   1.310   3.144
 5298SOL    HW116460   3.814   1.261   3.212
 5298SOL    HW216461   3.783   1.408   3.149
 5299SOL     OW16462   4.456   0.634   2.926
 5299SOL    HW116463   4.515   0.608   2.850
 5299SOL    HW216464   4.428   0.730   2.915
 5300SOL     OW16465   4.031   0.063   2.480
 5300SOL    HW116466   4.020   0.157   2.513
 5300SOL    HW216467   4.026   0.000   2.557
 5301SOL     OW16468   5.346   0.367   2.236
 5301SOL    HW116469   5.348   0.291   2.300
 5301SOL    HW216470   5.298   0.444   2.276
 5302SOL     OW16471   4.747   0.766   2.828
 5302SOL    HW116472   4.762   0.787   2.924
 5302SOL    HW216473   4.717   0.671   2.819
 5303SOL     OW16474   4.704   1.573   3.562
 5303SOL    HW116475   4.684   1.617   3.474
 5303SOL    HW216476   4.743   1.482   3.546
 5304SOL     OW16477   4.074   0.898   3.666
 5304SOL    HW116478   4.150   0.942   3.714
 5304SOL    HW216479   4.109   0.851   3.584
 5305SOL     OW16480   5.027   0.838   1.904
 5305SOL    HW116481   5.061   0.745   1.919
 5305SOL    HW216482   5.045   0.865   1.809
 5306SOL     OW16483   4.792   1.333   2.711
 5306SOL    HW116484   4.799   1.249   2.656
 5306SOL    HW216485   4.854   1.402   2.675
 5307SOL     OW16486   4.043   0.810   2.811
 5307SOL    HW116487   4.136   0.846   2.816
 5307SOL    HW216488   4.037   0.725   2.863
 5308SOL     OW16489   4.063   0.509   2.868
 5308SOL    HW116490   4.011   0.426   2.851
 5308SOL    HW216491   4.140   0.514   2.804
 5309SOL     OW16492   4.862   0.380   3.540
 5309SOL    HW116493   4.817   0.443   3.604
 5309SOL    HW216494   4.955   0.411   3.523
 5310SOL     OW16495   4.884   0.207   3.339
 5310SOL    HW116496   4.884   0.271   3.416
 5310SOL    HW216497   4.912   0.255   3.256
 5311SOL     OW16498   3.732   1.326   2.062
 5311SOL    HW116499   3.639   1.347   2.031
 5311SOL    HW216500   3.742   1.227   2.075
 5312SOL     OW16501   3.812   1.801   2.789
 5312SOL    HW116502   3.770   1.715   2.762
 5312SOL    HW216503   3.906   1.804   2.755
 5313SOL     OW16504   4.228   1.568   2.772
 5313SOL    HW116505   4.294   1.642   2.781
 5313SOL    HW216506   4.272   1.489   2.730
 5314SOL     OW16507   4.726   0.796   3.100
 5314SOL    HW116508   4.767   0.764   3.186
 5314SOL    HW216509   4.630   0.769   3.097
 5315SOL     OW16510   3.764   0.544   2.976
 5315SOL    HW116511   3.849   0.511   2.935
 5315SOL    HW216512   3.777   0.559   3.074
 5316SOL     OW16513   3.913   0.520   3.584
 5316SOL    HW116514   3.972   0.480   3.514
 5316SOL    HW216515   3.855   0.591   3.543
 5317SOL     OW16516   5.093   0.950   3.522
 5317SOL    HW116517   5.132   1.039   3.542
 5317SOL    HW216518   5.103   0.930   3.425
 5318SOL     OW16519   4.539   0.572   2.187
 5318SOL    HW116520   4.546   0.483   2.141
 5318SOL    HW216521   4.445   0.606   2.179
 5319SOL     OW16522   3.976   1.564   3.606
 5319SOL    HW116523   3.946   1.621   3.682
 5319SOL    HW216524   3.969   1.467   3.632
 5320SOL     OW16525   4.395   0.464   3.131
 5320SOL    HW116526   4.361   0.375   3.101
 5320SOL    HW216527   4.421   0.518   3.051
 5321SOL     OW16528   4.654   1.678   3.327
 5321SOL    HW116529   4.630   1.660   3.232
 5321SOL    HW216530   4.684   1.772   3.337
 5322SOL     OW16531   4.197   0.500   2.053
 5322SOL    HW116532   4.258   0.580   2.057
 5322SOL    HW216533   4.102   0.531   2.060
 5323SOL     OW16534   3.883   1.137   3.328
 5323SOL    HW116535   3.905   1.076   3.404
 5323SOL    HW216536   3.893   1.088   3.242
 5324SOL     OW16537   5.071   1.059   3.096
 5324SOL    HW116538   5.095   0.996   3.022
 5324SOL    HW216539   4.981   1.099   3.078
 5325SOL     OW16540   5.026   0.855   2.171
 5325SOL    HW116541   4.940   0.824   2.213
 5325SOL    HW216542   5.022   0.841   2.072
 5326SOL     OW16543   4.976   1.731   2.990
 5326SOL    HW116544   5.060   1.736   2.936
 5326SOL    HW216545   4.953   1.635   3.008
 5327SOL     OW16546   3.807   1.258   2.884
 5327SOL    HW116547   3.802   1.257   2.984
 5327SOL    HW216548   3.724   1.217   2.846
 5328SOL     OW16549   4.412   1.662   3.578
 5328SOL    HW116550   4.356   1.743   3.587
 5328SOL    HW216551   4.464   1.666   3.492
 5329SOL     OW16552   5.112   1.573   2.339
 5329SOL    HW116553   5.179   1.585   2.265
 5329SOL    HW216554   5.072   1.662   2.362
 5330SOL     OW16555   3.854   1.794   3.713
 5330SOL    HW116556   3.813   1.720   3.766
 5330SOL    HW216557   3.918   1.845   3.771
 5331SOL     OW16558   5.004   0.927   2.534
 5331SOL    HW116559   5.064   0.846   2.536
 5331SOL    HW216560   5.044   0.996   2.474
 5332SOL     OW16561   4.554   1.273   3.284
 5332SOL    HW116562   4.549   1.306   3.379
 5332SOL    HW216563   4.468   1.292   3.238
 5333SOL     OW16564   4.396   1.616   2.016
 5333SOL    HW116565   4.405   1.626   1.917
 5333SOL    HW216566   4.356   1.527   2.037
 5334SOL     OW16567   3.987   0.326   2.582
 5334SOL    HW116568   3.908   0.377   2.548
 5334SOL    HW216569   3.978   0.311   2.680
 5335SOL     OW16570   4.918   1.612   1.893
 5335SOL    HW116571   4.924   1.519   1.930
 5335SOL    HW216572   4.859   1.612   1.813
 5336SOL     OW16573   4.546   1.002   3.234
 5336SOL    HW116574   4.586   1.001   3.142
 5336SOL    HW216575   4.556   1.094   3.274
 5337SOL     OW16576   4.640   0.910   2.153
 5337SOL    HW116577   4.703   0.948   2.085
 5337SOL    HW216578   4.680   0.827   2.192
 5338SOL     OW16579   4.096   1.288   3.352
 5338SOL    HW116580   4.083   1.381   3.318
 5338SOL    HW216581   4.012   1.236   3.339
 5339SOL     OW16582   4.763   1.098   2.558
 5339SOL    HW116583   4.693   1.051   2.612
 5339SOL    HW216584   4.822   1.030   2.515
 5340SOL     OW16585   4.738   0.236   2.833
 5340SOL    HW116586   4.730   0.200   2.740
 5340SOL    HW216587   4.736   0.160   2.898
 5341SOL     OW16588   4.314   1.487   2.353
 5341SOL    HW116589   4.356   1.429   2.283
 5341SOL    HW216590   4.270   1.566   2.309
 5342SOL     OW16591   3.979   1.348   2.152
 5342SOL    HW116592   3.883   1.349   2.125
 5342SOL    HW216593   3.991   1.401   2.236
 5343SOL     OW16594   3.829   1.013   3.588
 5343SOL    HW116595   3.752   0.980   3.642
 5343SOL    HW216596   3.914   0.983   3.630
 5344SOL     OW16597   4.396   0.203   3.351
 5344SOL    HW116598   4.486   0.187   3.311
 5344SOL    HW216599   4.404   0.208   3.450
 5345SOL     OW16600   3.799   0.345   1.895
 5345SOL    HW116601   3.707   0.317   1.866
 5345SOL    HW216602   3.830   0.422   1.839
 5346SOL     OW16603   5.164   0.856   3.260
 5346SOL    HW116604   5.107   0.908   3.197
 5346SOL    HW216605   5.260   0.868   3.236
 5347SOL     OW16606   3.796   0.166   2.180
 5347SOL    HW116607   3.779   0.249   2.126
 5347SOL    HW216608   3.886   0.129   2.158
 5348SOL     OW16609   4.907   1.335   1.981
 5348SOL    HW116610   4.808   1.324   1.983
 5348SOL    HW216611   4.941   1.350   2.074
 5349SOL     OW16612   4.337   0.842   3.293
 5349SOL    HW116613   4.393   0.923   3.276
 5349SOL    HW216614   4.396   0.762   3.296
 5350SOL     OW16615   4.440   0.565   3.570
 5350SOL    HW116616   4.459   0.630   3.644
 5350SOL    HW216617   4.500   0.485   3.579
 5351SOL     OW16618   5.174   1.220   3.495
 5351SOL    HW116619   5.165   1.210   3.594
 5351SOL    HW216620   5.270   1.213   3.469
 5352SOL     OW16621   4.114   1.741   3.422
 5352SOL    HW116622   4.023   1.782   3.420
 5352SOL    HW216623   4.107   1.647   3.454
 5353SOL     OW16624   4.949   0.325   2.311
 5353SOL    HW116625   5.014   0.251   2.300
 5353SOL    HW216626   4.969   0.375   2.395
 5354SOL     OW16627   4.318   0.745   2.514
 5354SOL    HW116628   4.368   0.830   2.495
 5354SOL    HW216629   4.230   0.747   2.466
 5355SOL     OW16630   4.583   1.374   1.878
 5355SOL    HW116631   4.537   1.389   1.966
 5355SOL    HW216632   4.627   1.459   1.848
 5356SOL     OW16633   4.385   1.790   2.815
 5356SOL    HW116634   4.339   1.878   2.802
 5356SOL    HW216635   4.484   1.802   2.808
 5357SOL     OW16636   4.583   0.956   2.723
 5357SOL    HW116637   4.637   0.887   2.771
 5357SOL    HW216638   4.551   1.025   2.789
 5358SOL     OW16639   4.807   0.984   1.949
 5358SOL    HW116640   4.784   1.037   1.867
 5358SOL    HW216641   4.888   0.928   1.930
 5359SOL     OW16642   3.945   1.314   3.706
 5359SOL    HW116643   3.880   1.241   3.685
 5359SOL    HW216644   3.949   1.328   3.804
 5360SOL     OW16645   3.803   1.240   2.515
 5360SOL    HW116646   3.802   1.193   2.603
 5360SOL    HW216647   3.885   1.212   2.464
 5361SOL     OW16648   4.396   1.391   3.486
 5361SOL    HW116649   4.318   1.341   3.524
 5361SOL    HW216650   4.393   1.486   3.517
 5362SOL     OW16651   4.152   0.424   2.382
 5362SOL    HW116652   4.182   0.352   2.320
 5362SOL    HW216653   4.113   0.384   2.465
 5363SOL     OW16654   5.429   1.487   2.966
 5363SOL    HW116655   5.336   1.462   2.939
 5363SOL    HW216656   5.455   1.437   3.048
 5364SOL     OW16657   4.041   0.547   3.142
 5364SOL    HW116658   4.079   0.488   3.214
 5364SOL    HW216659   4.081   0.521   3.054
 5365SOL     OW16660   4.536   1.586   2.549
 5365SOL    HW116661   4.568   1.596   2.455
 5365SOL    HW216662   4.457   1.524   2.551
 5366SOL     OW16663   5.148   0.214   2.974
 5366SOL    HW116664   5.200   0.149   3.029
 5366SOL    HW216665   5.099   0.277   3.035
 5367SOL     OW16666   4.725   0.034   3.016
 5367SOL    HW116667   4.662  -0.038   2.985
 5367SOL    HW216668   4.818  -0.002   3.016
 5368SOL     OW16669   4.494   1.330   2.163
 5368SOL    HW116670   4.448   1.243   2.180
 5368SOL    HW216671   4.585   1.327   2.204
 5369SOL     OW16672   4.342   1.567   3.146
 5369SOL    HW116673   4.337   1.649   3.203
 5369SOL    HW216674   4.431   1.564   3.101
 5370SOL     OW16675   5.076   0.052   2.030
 5370SOL    HW116676   5.111   0.011   1.946
 5370SOL    HW216677   4.986   0.014   2.050
 5371SOL     OW16678   5.024   0.453   2.553
 5371SOL    HW116679   4.965   0.533   2.557
 5371SOL    HW216680   5.039   0.418   2.646
 5372SOL     OW16681   5.317   0.221   2.744
 5372SOL    HW116682   5.233   0.220   2.798
 5372SOL    HW216683   5.319   0.304   2.688
 5373SOL     OW16684   3.763   1.077   2.162
 5373SOL    HW116685   3.862   1.066   2.153
 5373SOL    HW216686   3.723   0.991   2.194
 5374SOL     OW16687   4.599   1.646   2.199
 5374SOL    HW116688   4.522   1.611   2.145
 5374SOL    HW216689   4.567   1.717   2.261
 5375SOL     OW16690   3.954   0.628   3.837
 5375SOL    HW116691   3.861   0.626   3.874
 5375SOL    HW216692   3.955   0.589   3.745
 5376SOL     OW16693   3.949   0.275   4.720
 5376SOL    HW116694   3.984   0.258   4.812
 5376SOL    HW216695   3.861   0.230   4.708
 5377SOL     OW16696   3.743   0.368   4.371
 5377SOL    HW116697   3.661   0.411   4.410
 5377SOL    HW216698   3.715   0.295   4.308
 5378SOL     OW16699   4.293   1.275   4.889
 5378SOL    HW116700   4.200   1.268   4.852
 5378SOL    HW216701   4.304   1.364   4.933
 5379SOL     OW16702   5.279   1.511   4.427
 5379SOL    HW116703   5.222   1.495   4.508
 5379SOL    HW216704   5.220   1.521   4.347
 5380SOL     OW16705   4.859   0.703   4.441
 5380SOL    HW116706   4.916   0.781   4.416
 5380SOL    HW216707   4.799   0.729   4.517
 5381SOL     OW16708   4.492   1.144   4.747
 5381SOL    HW116709   4.414   1.161   4.807
 5381SOL    HW216710   4.526   1.231   4.711
 5382SOL     OW16711   4.574   0.798   5.547
 5382SOL    HW116712   4.570   0.874   5.612
 5382SOL    HW216713   4.596   0.834   5.456
 5383SOL     OW16714   4.409   1.012   4.389
 5383SOL    HW116715   4.478   0.996   4.459
 5383SOL    HW216716   4.336   1.069   4.427
 5384SOL     OW16717   4.410   1.161   5.527
 5384SOL    HW116718   4.470   1.240   5.541
 5384SOL    HW216719   4.324   1.192   5.486
 5385SOL     OW16720   4.059   1.435   4.785
 5385SOL    HW116721   3.981   1.404   4.732
 5385SOL    HW216722   4.117   1.493   4.728
 5386SOL     OW16723   5.184   1.505   5.063
 5386SOL    HW116724   5.208   1.599   5.089
 5386SOL    HW216725   5.168   1.451   5.145
 5387SOL     OW16726   4.162   0.392   5.223
 5387SOL    HW116727   4.244   0.336   5.232
 5387SOL    HW216728   4.081   0.334   5.227
 5388SOL     OW16729   3.955   1.713   4.207
 5388SOL    HW116730   3.989   1.790   4.261
 5388SOL    HW216731   3.999   1.713   4.117
 5389SOL     OW16732   4.851   1.341   5.414
 5389SOL    HW116733   4.898   1.341   5.502
 5389SOL    HW216734   4.803   1.254   5.403
 5390SOL     OW16735   3.954   1.434   4.262
 5390SOL    HW116736   3.928   1.530   4.262
 5390SOL    HW216737   3.883   1.380   4.307
 5391SOL     OW16738   3.964   1.091   4.610
 5391SOL    HW116739   3.978   1.007   4.662
 5391SOL    HW216740   3.909   1.155   4.665
 5392SOL     OW16741   4.344   1.786   5.163
 5392SOL    HW116742   4.252   1.769   5.198
 5392SOL    HW216743   4.372   1.878   5.189
 5393SOL     OW16744   4.330   0.964   3.847
 5393SOL    HW116745   4.337   1.048   3.793
 5393SOL    HW216746   4.376   0.977   3.935
 5394SOL     OW16747   5.318   0.114   5.204
 5394SOL    HW116748   5.300   0.181   5.132
 5394SOL    HW216749   5.315   0.160   5.293
 5395SOL     OW16750   3.846   0.643   4.287
 5395SOL    HW116751   3.801   0.555   4.304
 5395SOL    HW216752   3.845   0.697   4.371
 5396SOL     OW16753   3.751   1.596   3.841
 5396SOL    HW116754   3.732   1.500   3.862
 5396SOL    HW216755   3.718   1.654   3.916
 5397SOL     OW16756   5.413   0.922   4.336
 5397SOL    HW116757   5.508   0.893   4.344
 5397SOL    HW216758   5.405   0.987   4.261
 5398SOL     OW16759   3.837   0.737   5.321
 5398SOL    HW116760   3.925   0.724   5.366
 5398SOL    HW216761   3.824   0.834   5.299
 5399SOL     OW16762   4.337   1.365   4.450
 5399SOL    HW116763   4.288   1.278   4.459
 5399SOL    HW216764   4.314   1.408   4.363
 5400SOL     OW16765   5.017   1.228   5.147
 5400SOL    HW116766   5.054   1.155   5.089
 5400SOL    HW216767   5.069   1.233   5.232
 5401SOL     OW16768   4.533   0.004   4.226
 5401SOL    HW116769   4.573   0.095   4.217
 5401SOL    HW216770   4.433   0.012   4.232
 5402SOL     OW16771   3.921   0.976   4.988
 5402SOL    HW116772   4.010   0.931   4.974
 5402SOL    HW216773   3.848   0.911   4.969
 5403SOL     OW16774   4.911   1.792   5.340
 5403SOL    HW116775   4.935   1.852   5.264
 5403SOL    HW216776   4.918   1.697   5.310
 5404SOL     OW16777   4.041   0.251   5.525
 5404SOL    HW116778   4.112   0.322   5.531
 5404SOL    HW216779   3.953   0.290   5.553
 5405SOL     OW16780   5.190   1.417   4.677
 5405SOL    HW116781   5.131   1.423   4.757
 5405SOL    HW216782   5.175   1.329   4.631
 5406SOL     OW16783   4.322   0.729   3.994
 5406SOL    HW116784   4.346   0.798   3.926
 5406SOL    HW216785   4.244   0.762   4.048
 5407SOL     OW16786   5.005   0.345   4.668
 5407SOL    HW116787   4.919   0.295   4.655
 5407SOL    HW216788   5.067   0.291   4.724
 5408SOL     OW16789   4.531   0.605   5.189
 5408SOL    HW116790   4.484   0.602   5.278
 5408SOL    HW216791   4.480   0.550   5.123
 5409SOL     OW16792   5.118   0.469   5.398
 5409SOL    HW116793   5.098   0.512   5.486
 5409SOL    HW216794   5.196   0.407   5.407
 5410SOL     OW16795   4.697   0.890   5.296
 5410SOL    HW116796   4.743   0.806   5.267
 5410SOL    HW216797   4.641   0.924   5.221
 5411SOL     OW16798   4.715   0.410   4.966
 5411SOL    HW116799   4.638   0.444   5.020
 5411SOL    HW216800   4.681   0.359   4.887
 5412SOL     OW16801   4.765   0.701   4.153
 5412SOL    HW116802   4.791   0.697   4.249
 5412SOL    HW216803   4.680   0.650   4.139
 5413SOL     OW16804   3.800   0.811   4.513
 5413SOL    HW116805   3.899   0.799   4.522
 5413SOL    HW216806   3.776   0.906   4.534
 5414SOL     OW16807   3.854   1.821   5.295
 5414SOL    HW116808   3.844   1.806   5.394
 5414SOL    HW216809   3.768   1.857   5.259
 5415SOL     OW16810   4.589   0.348   3.919
 5415SOL    HW116811   4.648   0.411   3.870
 5415SOL    HW216812   4.608   0.254   3.890
 5416SOL     OW16813   5.086   1.144   4.269
 5416SOL    HW116814   5.169   1.115   4.221
 5416SOL    HW216815   5.037   1.211   4.213
 5417SOL     OW16816   4.274   0.196   4.609
 5417SOL    HW116817   4.269   0.191   4.709
 5417SOL    HW216818   4.276   0.292   4.580
 5418SOL     OW16819   4.732   1.456   4.201
 5418SOL    HW116820   4.686   1.528   4.149
 5418SOL    HW216821   4.728   1.476   4.299
 5419SOL     OW16822   4.075   1.801   4.577
 5419SOL    HW116823   4.125   1.715   4.583
 5419SOL    HW216824   4.140   1.878   4.574
 5420SOL     OW16825   4.951   1.550   5.230
 5420SOL    HW116826   4.957   1.473   5.294
 5420SOL    HW216827   4.899   1.524   5.150
 5421SOL     OW16828   4.045   0.943   3.966
 5421SOL    HW116829   4.127   0.982   3.924
 5421SOL    HW216830   4.018   0.861   3.917
 5422SOL     OW16831   4.185   1.266   5.451
 5422SOL    HW116832   4.135   1.267   5.365
 5422SOL    HW216833   4.122   1.248   5.527
 5423SOL     OW16834   4.835   1.776   3.961
 5423SOL    HW116835   4.775   1.714   4.011
 5423SOL    HW216836   4.866   1.732   3.876
 5424SOL     OW16837   3.926   0.285   5.222
 5424SOL    HW116838   3.846   0.345   5.209
 5424SOL    HW216839   3.916   0.236   5.308
 5425SOL     OW16840   4.188   1.743   4.047
 5425SOL    HW116841   4.221   1.782   4.133
 5425SOL    HW216842   4.264   1.736   3.982
 5426SOL     OW16843   5.124   0.107   4.150
 5426SOL    HW116844   5.100   0.070   4.060
 5426SOL    HW216845   5.223   0.123   4.154
 5427SOL     OW16846   3.973   1.785   4.965
 5427SOL    HW116847   4.030   1.720   5.015
 5427SOL    HW216848   3.957   1.752   4.872
 5428SOL     OW16849   4.664   1.698   4.628
 5428SOL    HW116850   4.744   1.641   4.649
 5428SOL    HW216851   4.615   1.658   4.551
 5429SOL     OW16852   4.106   0.700   4.204
 5429SOL    HW116853   4.151   0.610   4.201
 5429SOL    HW216854   4.012   0.689   4.237
 5430SOL     OW16855   4.338   0.122   3.841
 5430SOL    HW116856   4.436   0.100   3.848
 5430SOL    HW216857   4.307   0.105   3.748
 5431SOL     OW16858   4.505   0.264   5.473
 5431SOL    HW116859   4.572   0.203   5.516
 5431SOL    HW216860   4.432   0.283   5.538
 5432SOL     OW16861   4.612   1.514   4.919
 5432SOL    HW116862   4.589   1.489   4.825
 5432SOL    HW216863   4.673   1.445   4.958
 5433SOL     OW16864   5.075   0.590   5.157
 5433SOL    HW116865   5.103   0.547   5.242
 5433SOL    HW216866   5.100   0.686   5.158
 5434SOL     OW16867   4.527   1.402   4.648
 5434SOL    HW116868   4.617   1.416   4.606
 5434SOL    HW216869   4.456   1.404   4.577
 5435SOL     OW16870   4.646   0.503   4.623
 5435SOL    HW116871   4.621   0.494   4.527
 5435SOL    HW216872   4.694   0.421   4.654
 5436SOL     OW16873   4.263   0.064   4.236
 5436SOL    HW116874   4.182   0.065   4.294
 5436SOL    HW216875   4.266   0.147   4.181
 5437SOL     OW16876   5.158   1.188   3.765
 5437SOL    HW116877   5.190   1.112   3.822
 5437SOL    HW216878   5.066   1.215   3.795
 5438SOL     OW16879   4.021   0.035   3.895
 5438SOL    HW116880   4.070   0.119   3.874
 5438SOL    HW216881   4.083  -0.030   3.940
 5439SOL     OW16882   4.659   0.236   4.204
 5439SOL    HW116883   4.611   0.277   4.126
 5439SOL    HW216884   4.758   0.234   4.185
 5440SOL     OW16885   4.800   0.683   5.188
 5440SOL    HW116886   4.720   0.622   5.191
 5440SOL    HW216887   4.881   0.630   5.164
 5441SOL     OW16888   4.951   1.570   4.517
 5441SOL    HW116889   4.972   1.644   4.452
 5441SOL    HW216890   5.019   1.570   4.590
 5442SOL     OW16891   4.183   1.152   4.465
 5442SOL    HW116892   4.112   1.125   4.530
 5442SOL    HW216893   4.157   1.124   4.372
 5443SOL     OW16894   4.995   1.797   4.315
 5443SOL    HW116895   5.039   1.861   4.251
 5443SOL    HW216896   4.945   1.849   4.385
 5444SOL     OW16897   4.756   0.549   3.740
 5444SOL    HW116898   4.715   0.631   3.701
 5444SOL    HW216899   4.820   0.575   3.813
 5445SOL     OW16900   3.802   0.556   5.110
 5445SOL    HW116901   3.894   0.555   5.069
 5445SOL    HW216902   3.796   0.630   5.177
 5446SOL     OW16903   4.285   0.222   4.871
 5446SOL    HW116904   4.323   0.138   4.908
 5446SOL    HW216905   4.197   0.241   4.915
 5447SOL     OW16906   4.590   0.454   4.366
 5447SOL    HW116907   4.558   0.526   4.304
 5447SOL    HW216908   4.614   0.373   4.313
 5448SOL     OW16909   4.741   0.039   4.477
 5448SOL    HW116910   4.669   0.044   4.408
 5448SOL    HW216911   4.717  -0.030   4.546
 5449SOL     OW16912   5.153   1.173   4.591
 5449SOL    HW116913   5.098   1.089   4.584
 5449SOL    HW216914   5.179   1.202   4.499
 5450SOL     OW16915   4.212   1.385   3.898
 5450SOL    HW116916   4.125   1.370   3.945
 5450SOL    HW216917   4.195   1.411   3.803
 5451SOL     OW16918   5.114   0.575   3.802
 5451SOL    HW116919   5.060   0.554   3.883
 5451SOL    HW216920   5.205   0.534   3.811
 5452SOL     OW16921   4.251   0.256   4.052
 5452SOL    HW116922   4.278   0.197   3.977
 5452SOL    HW216923   4.251   0.351   4.021
 5453SOL     OW16924   4.788   1.347   5.064
 5453SOL    HW116925   4.708   1.324   5.119
 5453SOL    HW216926   4.871   1.321   5.113
 5454SOL     OW16927   5.316   1.629   5.349
 5454SOL    HW116928   5.343   1.663   5.259
 5454SOL    HW216929   5.395   1.591   5.395
 5455SOL     OW16930   4.835   1.195   4.824
 5455SOL    HW116931   4.795   1.239   4.905
 5455SOL    HW216932   4.794   1.232   4.741
 5456SOL     OW16933   4.639   0.089   5.126
 5456SOL    HW116934   4.664   0.069   5.031
 5456SOL    HW216935   4.711   0.145   5.168
 5457SOL     OW16936   4.704   1.116   5.443
 5457SOL    HW116937   4.605   1.122   5.453
 5457SOL    HW216938   4.727   1.036   5.387
 5458SOL     OW16939   4.429   1.050   4.092
 5458SOL    HW116940   4.415   1.057   4.191
 5458SOL    HW216941   4.513   0.999   4.074
 5459SOL     OW16942   4.134   0.813   4.975
 5459SOL    HW116943   4.220   0.825   5.025
 5459SOL    HW216944   4.092   0.726   5.002
 5460SOL     OW16945   4.998   0.386   4.986
 5460SOL    HW116946   5.019   0.460   5.050
 5460SOL    HW216947   4.909   0.403   4.943
 5461SOL     OW16948   3.788   1.564   5.055
 5461SOL    HW116949   3.742   1.646   5.021
 5461SOL    HW216950   3.886   1.583   5.064
 5462SOL     OW16951   4.091   1.100   4.225
 5462SOL    HW116952   4.084   1.183   4.169
 5462SOL    HW216953   4.095   1.020   4.165
 5463SOL     OW16954   4.290   0.537   4.589
 5463SOL    HW116955   4.302   0.603   4.515
 5463SOL    HW216956   4.336   0.571   4.672
 5464SOL     OW16957   4.976   1.348   4.112
 5464SOL    HW116958   5.026   1.425   4.152
 5464SOL    HW216959   4.881   1.350   4.144
 5465SOL     OW16960   4.996   1.445   4.866
 5465SOL    HW116961   5.043   1.458   4.953
 5465SOL    HW216962   4.930   1.371   4.875
 5466SOL     OW16963   4.078   1.510   5.053
 5466SOL    HW116964   4.057   1.466   4.966
 5466SOL    HW216965   4.175   1.536   5.056
 5467SOL     OW16966   4.126   0.751   5.322
 5467SOL    HW116967   4.194   0.806   5.275
 5467SOL    HW216968   4.166   0.663   5.349
 5468SOL     OW16969   4.737   0.105   5.494
 5468SOL    HW116970   4.743   0.190   5.442
 5468SOL    HW216971   4.769   0.029   5.437
 5469SOL     OW16972   4.228   0.050   5.464
 5469SOL    HW116973   4.186  -0.007   5.394
 5469SOL    HW216974   4.162   0.119   5.496
 5470SOL     OW16975   4.297   0.870   4.753
 5470SOL    HW116976   4.341   0.959   4.744
 5470SOL    HW216977   4.234   0.870   4.830
 5471SOL     OW16978   5.084   0.862   4.769
 5471SOL    HW116979   5.009   0.862   4.703
 5471SOL    HW216980   5.121   0.770   4.778
 5472SOL     OW16981   4.933   0.525   3.999
 5472SOL    HW116982   4.946   0.441   4.053
 5472SOL    HW216983   4.904   0.599   4.059
 5473SOL     OW16984   4.031   0.213   4.955
 5473SOL    HW116985   4.008   0.250   5.045
 5473SOL    HW216986   4.001   0.118   4.949
 5474SOL     OW16987   3.761   1.310   5.006
 5474SOL    HW116988   3.814   1.261   5.074
 5474SOL    HW216989   3.783   1.408   5.011
 5475SOL     OW16990   4.456   0.634   4.788
 5475SOL    HW116991   4.515   0.608   4.712
 5475SOL    HW216992   4.428   0.730   4.777
 5476SOL     OW16993   4.031   0.063   4.342
 5476SOL    HW116994   4.020   0.157   4.375
 5476SOL    HW216995   4.026   0.000   4.419
 5477SOL     OW16996   5.346   0.367   4.098
 5477SOL    HW116997   5.348   0.291   4.162
 5477SOL    HW216998   5.298   0.444   4.138
 5478SOL     OW16999   4.747   0.766   4.690
 5478SOL    HW117000   4.762   0.787   4.786
 5478SOL    HW217001   4.717   0.671   4.681
 5479SOL     OW17002   4.704   1.573   5.424
 5479SOL    HW117003   4.684   1.617   5.336
 5479SOL    HW217004   4.743   1.482   5.408
 5480SOL     OW17005   4.074   0.898   5.528
 5480SOL    HW117006   4.150   0.942   5.576
 5480SOL    HW217007   4.109   0.851   5.446
 5481SOL     OW17008   5.027   0.838   3.766
 5481SOL    HW117009   5.061   0.745   3.781
 5481SOL    HW217010   5.045   0.865   3.671
 5482SOL     OW17011   4.792   1.333   4.573
 5482SOL    HW117012   4.799   1.249   4.518
 5482SOL    HW217013   4.854   1.402   4.537
 5483SOL     OW17014   4.043   0.810   4.673
 5483SOL    HW117015   4.136   0.846   4.678
 5483SOL    HW217016   4.037   0.725   4.725
 5484SOL     OW17017   4.063   0.509   4.730
 5484SOL    HW117018   4.011   0.426   4.713
 5484SOL    HW217019   4.140   0.514   4.666
 5485SOL     OW17020   4.862   0.380   5.402
 5485SOL    HW117021   4.817   0.443   5.466
 5485SOL    HW217022   4.955   0.411   5.385
 5486SOL     OW17023   4.884   0.207   5.201
 5486SOL    HW117024   4.884   0.271   5.278
 5486SOL    HW217025   4.912   0.255   5.118
 5487SOL     OW17026   3.732   1.326   3.924
 5487SOL    HW117027   3.639   1.347   3.893
 5487SOL    HW217028   3.742   1.227   3.937
 5488SOL     OW17029   3.812   1.801   4.651
 5488SOL    HW117030   3.770   1.715   4.624
 5488SOL    HW217031   3.906   1.804   4.617
 5489SOL     OW17032   4.228   1.568   4.634
 5489SOL    HW117033   4.294   1.642   4.643
 5489SOL    HW217034   4.272   1.489   4.592
 5490SOL     OW17035   4.726   0.796   4.962
 5490SOL    HW117036   4.767   0.764   5.048
 5490SOL    HW217037   4.630   0.769   4.959
 5491SOL     OW17038   3.764   0.544   4.838
 5491SOL    HW117039   3.849   0.511   4.797
 5491SOL    HW217040   3.777   0.559   4.936
 5492SOL     OW17041   3.913   0.520   5.446
 5492SOL    HW117042   3.972   0.480   5.376
 5492SOL    HW217043   3.855   0.591   5.405
 5493SOL     OW17044   5.093   0.950   5.384
 5493SOL    HW117045   5.132   1.039   5.404
 5493SOL    HW217046   5.103   0.930   5.287
 5494SOL     OW17047   4.539   0.572   4.049
 5494SOL    HW117048   4.546   0.483   4.003
 5494SOL    HW217049   4.445   0.606   4.041
 5495SOL     OW17050   3.976   1.564   5.468
 5495SOL    HW117051   3.946   1.621   5.544
 5495SOL    HW217052   3.969   1.467   5.494
 5496SOL     OW17053   4.395   0.464   4.993
 5496SOL    HW117054   4.361   0.375   4.963
 5496SOL    HW217055   4.421   0.518   4.913
 5497SOL     OW17056   4.654   1.678   5.189
 5497SOL    HW117057   4.630   1.660   5.094
 5497SOL    HW217058   4.684   1.772   5.199
 5498SOL     OW17059   4.197   0.500   3.915
 5498SOL    HW117060   4.258   0.580   3.919
 5498SOL    HW217061   4.102   0.531   3.922
 5499SOL     OW17062   3.883   1.137   5.190
 5499SOL    HW117063   3.905   1.076   5.266
 5499SOL    HW217064   3.893   1.088   5.104
 5500SOL     OW17065   5.071   1.059   4.958
 5500SOL    HW117066   5.095   0.996   4.884
 5500SOL    HW217067   4.981   1.099   4.940
 5501SOL     OW17068   5.026   0.855   4.033
 5501SOL    HW117069   4.940   0.824   4.075
 5501SOL    HW217070   5.022   0.841   3.934
 5502SOL     OW17071   4.976   1.731   4.852
 5502SOL    HW117072   5.060   1.736   4.798
 5502SOL    HW217073   4.953   1.635   4.870
 5503SOL     OW17074   3.807   1.258   4.746
 5503SOL    HW117075   3.802   1.257   4.846
 5503SOL    HW217076   3.724   1.217   4.708
 5504SOL     OW17077   4.412   1.662   5.440
 5504SOL    HW117078   4.356   1.743   5.449
 5504SOL    HW217079   4.464   1.666   5.354
 5505SOL     OW17080   5.112   1.573   4.201
 5505SOL    HW117081   5.179   1.585   4.127
 5505SOL    HW217082   5.072   1.662   4.224
 5506SOL     OW17083   3.854   1.794   5.575
 5506SOL    HW117084   3.813   1.720   5.628
 5506SOL    HW217085   3.918   1.845   5.633
 5507SOL     OW17086   5.004   0.927   4.396
 5507SOL    HW117087   5.064   0.846   4.398
 5507SOL    HW217088   5.044   0.996   4.336
 5508SOL     OW17089   4.554   1.273   5.146
 5508SOL    HW117090   4.549   1.306   5.241
 5508SOL    HW217091   4.468   1.292   5.100
 5509SOL     OW17092   4.396   1.616   3.878
 5509SOL    HW117093   4.405   1.626   3.779
 5509SOL    HW217094   4.356   1.527   3.899
 5510SOL     OW17095   3.987   0.326   4.444
 5510SOL    HW117096   3.908   0.377   4.410
 5510SOL    HW217097   3.978   0.311   4.542
 5511SOL     OW17098   4.918   1.612   3.755
 5511SOL    HW117099   4.924   1.519   3.792
 5511SOL    HW217100   4.859   1.612   3.675
 5512SOL     OW17101   4.546   1.002   5.096
 5512SOL    HW117102   4.586   1.001   5.004
 5512SOL    HW217103   4.556   1.094   5.136
 5513SOL     OW17104   4.640   0.910   4.015
 5513SOL    HW117105   4.703   0.948   3.947
 5513SOL    HW217106   4.680   0.827   4.054
 5514SOL     OW17107   4.096   1.288   5.214
 5514SOL    HW117108   4.083   1.381   5.180
 5514SOL    HW217109   4.012   1.236   5.201
 5515SOL     OW17110   4.763   1.098   4.420
 5515SOL    HW117111   4.693   1.051   4.474
 5515SOL    HW217112   4.822   1.030   4.377
 5516SOL     OW17113   4.738   0.236   4.695
 5516SOL    HW117114   4.730   0.200   4.602
 5516SOL    HW217115   4.736   0.160   4.760
 5517SOL     OW17116   4.314   1.487   4.215
 5517SOL    HW117117   4.356   1.429   4.145
 5517SOL    HW217118   4.270   1.566   4.171
 5518SOL     OW17119   3.979   1.348   4.014
 5518SOL    HW117120   3.883   1.349   3.987
 5518SOL    HW217121   3.991   1.401   4.098
 5519SOL     OW17122   3.829   1.013   5.450
 5519SOL    HW117123   3.752   0.980   5.504
 5519SOL    HW217124   3.914   0.983   5.492
 5520SOL     OW17125   4.396   0.203   5.213
 5520SOL    HW117126   4.486   0.187   5.173
 5520SOL    HW217127   4.404   0.208   5.312
 5521SOL     OW17128   3.799   0.345   3.757
 5521SOL    HW117129   3.707   0.317   3.728
 5521SOL    HW217130   3.830   0.422   3.701
 5522SOL     OW17131   5.164   0.856   5.122
 5522SOL    HW117132   5.107   0.908   5.059
 5522SOL    HW217133   5.260   0.868   5.098
 5523SOL     OW17134   3.796   0.166   4.042
 5523SOL    HW117135   3.779   0.249   3.988
 5523SOL    HW217136   3.886   0.129   4.020
 5524SOL     OW17137   4.907   1.335   3.843
 5524SOL    HW117138   4.808   1.324   3.845
 5524SOL    HW217139   4.941   1.350   3.936
 5525SOL     OW17140   4.337   0.842   5.155
 5525SOL    HW117141   4.393   0.923   5.138
 5525SOL    HW217142   4.396   0.762   5.158
 5526SOL     OW17143   4.440   0.565   5.432
 5526SOL    HW117144   4.459   0.630   5.506
 5526SOL    HW217145   4.500   0.485   5.441
 5527SOL     OW17146   5.174   1.220   5.357
 5527SOL    HW117147   5.165   1.210   5.456
 5527SOL    HW217148   5.270   1.213   5.331
 5528SOL     OW17149   4.114   1.741   5.284
 5528SOL    HW117150   4.023   1.782   5.282
 5528SOL    HW217151   4.107   1.647   5.316
 5529SOL     OW17152   4.949   0.325   4.173
 5529SOL    HW117153   5.014   0.251   4.162
 5529SOL    HW217154   4.969   0.375   4.257
 5530SOL     OW17155   4.318   0.745   4.376
 5530SOL    HW117156   4.368   0.830   4.357
 5530SOL    HW217157   4.230   0.747   4.328
 5531SOL     OW17158   4.583   1.374   3.740
 5531SOL    HW117159   4.537   1.389   3.828
 5531SOL    HW217160   4.627   1.459   3.710
 5532SOL     OW17161   4.385   1.790   4.677
 5532SOL    HW117162   4.339   1.878   4.664
 5532SOL    HW217163   4.484   1.802   4.670
 5533SOL     OW17164   4.583   0.956   4.585
 5533SOL    HW117165   4.637   0.887   4.633
 5533SOL    HW217166   4.551   1.025   4.651
 5534SOL     OW17167   4.807   0.984   3.811
 5534SOL    HW117168   4.784   1.037   3.729
 5534SOL    HW217169   4.888   0.928   3.792
 5535SOL     OW17170   3.945   1.314   5.568
 5535SOL    HW117171   3.880   1.241   5.547
 5535SOL    HW217172   3.949   1.328   5.666
 5536SOL     OW17173   3.803   1.240   4.377
 5536SOL    HW117174   3.802   1.193   4.465
 5536SOL    HW217175   3.885   1.212   4.326
 5537SOL     OW17176   4.396   1.391   5.348
 5537SOL    HW117177   4.318   1.341   5.386
 5537SOL    HW217178   4.393   1.486   5.379
 5538SOL     OW17179   4.152   0.424   4.244
 5538SOL    HW117180   4.182   0.352   4.182
 5538SOL    HW217181   4.113   0.384   4.327
 5539SOL     OW17182   5.429   1.487   4.828
 5539SOL    HW117183   5.336   1.462   4.801
 5539SOL    HW217184   5.455   1.437   4.910
 5540SOL     OW17185   4.041   0.547   5.004
 5540SOL    HW117186   4.079   0.488   5.076
 5540SOL    HW217187   4.081   0.521   4.916
 5541SOL     OW17188   4.536   1.586   4.411
 5541SOL    HW117189   4.568   1.596   4.317
 5541SOL    HW217190   4.457   1.524   4.413
 5542SOL     OW17191   5.148   0.214   4.836
 5542SOL    HW117192   5.200   0.149   4.891
 5542SOL    HW217193   5.099   0.277   4.897
 5543SOL     OW17194   4.725   0.034   4.878
 5543SOL    HW117195   4.662  -0.038   4.847
 5543SOL    HW217196   4.818  -0.002   4.878
 5544SOL     OW17197   4.494   1.330   4.025
 5544SOL    HW117198   4.448   1.243   4.042
 5544SOL    HW217199   4.585   1.327   4.066
 5545SOL     OW17200   4.342   1.567   5.008
 5545SOL    HW117201   4.337   1.649   5.065
 5545SOL    HW217202   4.431   1.564   4.963
 5546SOL     OW17203   5.076   0.052   3.892
 5546SOL    HW117204   5.111   0.011   3.808
 5546SOL    HW217205   4.986   0.014   3.912
 5547SOL     OW17206   5.024   0.453   4.415
 5547SOL    HW117207   4.965   0.533   4.419
 5547SOL    HW217208   5.039   0.418   4.508
 5548SOL     OW17209   5.317   0.221   4.606
 5548SOL    HW117210   5.233   0.220   4.660
 5548SOL    HW217211   5.319   0.304   4.550
 5549SOL     OW17212   3.763   1.077   4.024
 5549SOL    HW117213   3.862   1.066   4.015
 5549SOL    HW217214   3.723   0.991   4.056
 5550SOL     OW17215   4.599   1.646   4.061
 5550SOL    HW117216   4.522   1.611   4.007
 5550SOL    HW217217   4.567   1.717   4.123
 5551SOL     OW17218   3.954   0.628   5.699
 5551SOL    HW117219   3.861   0.626   5.736
 5551SOL    HW217220   3.955   0.589   5.607
 5552SOL     OW17221   3.949   0.275   6.582
 5552SOL    HW117222   3.984   0.258   6.674
 5552SOL    HW217223   3.861   0.230   6.570
 5553SOL     OW17224   3.743   0.368   6.233
 5553SOL    HW117225   3.661   0.411   6.272
 5553SOL    HW217226   3.715   0.295   6.170
 5554SOL     OW17227   4.293   1.275   6.751
 5554SOL    HW117228   4.200   1.268   6.714
 5554SOL    HW217229   4.304   1.364   6.795
 5555SOL     OW17230   5.279   1.511   6.289
 5555SOL    HW117231   5.222   1.495   6.370
 5555SOL    HW217232   5.220   1.521   6.209
 5556SOL     OW17233   4.859   0.703   6.303
 5556SOL    HW117234   4.916   0.781   6.278
 5556SOL    HW217235   4.799   0.729   6.379
 5557SOL     OW17236   4.492   1.144   6.609
 5557SOL    HW117237   4.414   1.161   6.669
 5557SOL    HW217238   4.526   1.231   6.573
 5558SOL     OW17239   4.574   0.798   7.409
 5558SOL    HW117240   4.570   0.874   7.474
 5558SOL    HW217241   4.596   0.834   7.318
 5559SOL     OW17242   4.409   1.012   6.251
 5559SOL    HW117243   4.478   0.996   6.321
 5559SOL    HW217244   4.336   1.069   6.289
 5560SOL     OW17245   4.410   1.161   7.389
 5560SOL    HW117246   4.470   1.240   7.403
 5560SOL    HW217247   4.324   1.192   7.348
 5561SOL     OW17248   4.059   1.435   6.647
 5561SOL    HW117249   3.981   1.404   6.594
 5561SOL    HW217250   4.117   1.493   6.590
 5562SOL     OW17251   5.184   1.505   6.925
 5562SOL    HW117252   5.208   1.599   6.951
 5562SOL    HW217253   5.168   1.451   7.007
 5563SOL     OW17254   4.162   0.392   7.085
 5563SOL    HW117255   4.244   0.336   7.094
 5563SOL    HW217256   4.081   0.334   7.089
 5564SOL     OW17257   3.955   1.713   6.069
 5564SOL    HW117258   3.989   1.790   6.123
 5564SOL    HW217259   3.999   1.713   5.979
 5565SOL     OW17260   4.851   1.341   7.276
 5565SOL    HW117261   4.898   1.341   7.364
 5565SOL    HW217262   4.803   1.254   7.265
 5566SOL     OW17263   3.954   1.434   6.124
 5566SOL    HW117264   3.928   1.530   6.124
 5566SOL    HW217265   3.883   1.380   6.169
 5567SOL     OW17266   3.964   1.091   6.472
 5567SOL    HW117267   3.978   1.007   6.524
 5567SOL    HW217268   3.909   1.155   6.527
 5568SOL     OW17269   4.344   1.786   7.025
 5568SOL    HW117270   4.252   1.769   7.060
 5568SOL    HW217271   4.372   1.878   7.051
 5569SOL     OW17272   4.330   0.964   5.709
 5569SOL    HW117273   4.337   1.048   5.655
 5569SOL    HW217274   4.376   0.977   5.797
 5570SOL     OW17275   5.318   0.114   7.066
 5570SOL    HW117276   5.300   0.181   6.994
 5570SOL    HW217277   5.315   0.160   7.155
 5571SOL     OW17278   3.846   0.643   6.149
 5571SOL    HW117279   3.801   0.555   6.166
 5571SOL    HW217280   3.845   0.697   6.233
 5572SOL     OW17281   3.751   1.596   5.703
 5572SOL    HW117282   3.732   1.500   5.724
 5572SOL    HW217283   3.718   1.654   5.778
 5573SOL     OW17284   5.413   0.922   6.198
 5573SOL    HW117285   5.508   0.893   6.206
 5573SOL    HW217286   5.405   0.987   6.123
 5574SOL     OW17287   3.837   0.737   7.183
 5574SOL    HW117288   3.925   0.724   7.228
 5574SOL    HW217289   3.824   0.834   7.161
 5575SOL     OW17290   4.337   1.365   6.312
 5575SOL    HW117291   4.288   1.278   6.321
 5575SOL    HW217292   4.314   1.408   6.225
 5576SOL     OW17293   5.017   1.228   7.009
 5576SOL    HW117294   5.054   1.155   6.951
 5576SOL    HW217295   5.069   1.233   7.094
 5577SOL     OW17296   4.533   0.004   6.088
 5577SOL    HW117297   4.573   0.095   6.079
 5577SOL    HW217298   4.433   0.012   6.094
 5578SOL     OW17299   3.921   0.976   6.850
 5578SOL    HW117300   4.010   0.931   6.836
 5578SOL    HW217301   3.848   0.911   6.831
 5579SOL     OW17302   4.911   1.792   7.202
 5579SOL    HW117303   4.935   1.852   7.126
 5579SOL    HW217304   4.918   1.697   7.172
 5580SOL     OW17305   4.041   0.251   7.387
 5580SOL    HW117306   4.112   0.322   7.393
 5580SOL    HW217307   3.953   0.290   7.415
 5581SOL     OW17308   5.190   1.417   6.539
 5581SOL    HW117309   5.131   1.423   6.619
 5581SOL    HW217310   5.175   1.329   6.493
 5582SOL     OW17311   4.322   0.729   5.856
 5582SOL    HW117312   4.346   0.798   5.788
 5582SOL    HW217313   4.244   0.762   5.910
 5583SOL     OW17314   5.005   0.345   6.530
 5583SOL    HW117315   4.919   0.295   6.517
 5583SOL    HW217316   5.067   0.291   6.586
 5584SOL     OW17317   4.531   0.605   7.051
 5584SOL    HW117318   4.484   0.602   7.140
 5584SOL    HW217319   4.480   0.550   6.985
 5585SOL     OW17320   5.118   0.469   7.260
 5585SOL    HW117321   5.098   0.512   7.348
 5585SOL    HW217322   5.196   0.407   7.269
 5586SOL     OW17323   4.697   0.890   7.158
 5586SOL    HW117324   4.743   0.806   7.129
 5586SOL    HW217325   4.641   0.924   7.083
 5587SOL     OW17326   4.715   0.410   6.828
 5587SOL    HW117327   4.638   0.444   6.882
 5587SOL    HW217328   4.681   0.359   6.749
 5588SOL     OW17329   4.765   0.701   6.015
 5588SOL    HW117330   4.791   0.697   6.111
 5588SOL    HW217331   4.680   0.650   6.001
 5589SOL     OW17332   3.800   0.811   6.375
 5589SOL    HW117333   3.899   0.799   6.384
 5589SOL    HW217334   3.776   0.906   6.396
 5590SOL     OW17335   3.854   1.821   7.157
 5590SOL    HW117336   3.844   1.806   7.256
 5590SOL    HW217337   3.768   1.857   7.121
 5591SOL     OW17338   4.589   0.348   5.781
 5591SOL    HW117339   4.648   0.411   5.732
 5591SOL    HW217340   4.608   0.254   5.752
 5592SOL     OW17341   5.086   1.144   6.131
 5592SOL    HW117342   5.169   1.115   6.083
 5592SOL    HW217343   5.037   1.211   6.075
 5593SOL     OW17344   4.274   0.196   6.471
 5593SOL    HW117345   4.269   0.191   6.571
 5593SOL    HW217346   4.276   0.292   6.442
 5594SOL     OW17347   4.732   1.456   6.063
 5594SOL    HW117348   4.686   1.528   6.011
 5594SOL    HW217349   4.728   1.476   6.161
 5595SOL     OW17350   4.075   1.801   6.439
 5595SOL    HW117351   4.125   1.715   6.445
 5595SOL    HW217352   4.140   1.878   6.436
 5596SOL     OW17353   4.951   1.550   7.092
 5596SOL    HW117354   4.957   1.473   7.156
 5596SOL    HW217355   4.899   1.524   7.012
 5597SOL     OW17356   4.045   0.943   5.828
 5597SOL    HW117357   4.127   0.982   5.786
 5597SOL    HW217358   4.018   0.861   5.779
 5598SOL     OW17359   4.185   1.266   7.313
 5598SOL    HW117360   4.135   1.267   7.227
 5598SOL    HW217361   4.122   1.248   7.389
 5599SOL     OW17362   4.835   1.776   5.823
 5599SOL    HW117363   4.775   1.714   5.873
 5599SOL    HW217364   4.866   1.732   5.738
 5600SOL     OW17365   3.926   0.285   7.084
 5600SOL    HW117366   3.846   0.345   7.071
 5600SOL    HW217367   3.916   0.236   7.170
 5601SOL     OW17368   4.188   1.743   5.909
 5601SOL    HW117369   4.221   1.782   5.995
 5601SOL    HW217370   4.264   1.736   5.844
 5602SOL     OW17371   5.124   0.107   6.012
 5602SOL    HW117372   5.100   0.070   5.922
 5602SOL    HW217373   5.223   0.123   6.016
 5603SOL     OW17374   3.973   1.785   6.827
 5603SOL    HW117375   4.030   1.720   6.877
 5603SOL    HW217376   3.957   1.752   6.734
 5604SOL     OW17377   4.664   1.698   6.490
 5604SOL    HW117378   4.744   1.641   6.511
 5604SOL    HW217379   4.615   1.658   6.413
 5605SOL     OW17380   4.106   0.700   6.066
 5605SOL    HW117381   4.151   0.610   6.063
 5605SOL    HW217382   4.012   0.689   6.099
 5606SOL     OW17383   4.338   0.122   5.703
 5606SOL    HW117384   4.436   0.100   5.710
 5606SOL    HW217385   4.307   0.105   5.610
 5607SOL     OW17386   4.505   0.264   7.335
 5607SOL    HW117387   4.572   0.203   7.378
 5607SOL    HW217388   4.432   0.283   7.400
 5608SOL     OW17389   4.612   1.514   6.781
 5608SOL    HW117390   4.589   1.489   6.687
 5608SOL    HW217391   4.673   1.445   6.820
 5609SOL     OW17392   5.075   0.590   7.019
 5609SOL    HW117393   5.103   0.547   7.104
 5609SOL    HW217394   5.100   0.686   7.020
 5610SOL     OW17395   4.527   1.402   6.510
 5610SOL    HW117396   4.617   1.416   6.468
 5610SOL    HW217397   4.456   1.404   6.439
 5611SOL     OW17398   4.646   0.503   6.485
 5611SOL    HW117399   4.621   0.494   6.389
 5611SOL    HW217400   4.694   0.421   6.516
 5612SOL     OW17401   4.263   0.064   6.098
 5612SOL    HW117402   4.182   0.065   6.156
 5612SOL    HW217403   4.266   0.147   6.043
 5613SOL     OW17404   5.158   1.188   5.627
 5613SOL    HW117405   5.190   1.112   5.684
 5613SOL    HW217406   5.066   1.215   5.657
 5614SOL     OW17407   4.021   0.035   5.757
 5614SOL    HW117408   4.070   0.119   5.736
 5614SOL    HW217409   4.083  -0.030   5.802
 5615SOL     OW17410   4.659   0.236   6.066
 5615SOL    HW117411   4.611   0.277   5.988
 5615SOL    HW217412   4.758   0.234   6.047
 5616SOL     OW17413   4.800   0.683   7.050
 5616SOL    HW117414   4.720   0.622   7.053
 5616SOL    HW217415   4.881   0.630   7.026
 5617SOL     OW17416   4.951   1.570   6.379
 5617SOL    HW117417   4.972   1.644   6.314
 5617SOL    HW217418   5.019   1.570   6.452
 5618SOL     OW17419   4.183   1.152   6.327
 5618SOL    HW117420   4.112   1.125   6.392
 5618SOL    HW217421   4.157   1.124   6.234
 5619SOL     OW17422   4.995   1.797   6.177
 5619SOL    HW117423   5.039   1.861   6.113
 5619SOL    HW217424   4.945   1.849   6.247
 5620SOL     OW17425   4.756   0.549   5.602
 5620SOL    HW117426   4.715   0.631   5.563
 5620SOL    HW217427   4.820   0.575   5.675
 5621SOL     OW17428   3.802   0.556   6.972
 5621SOL    HW117429   3.894   0.555   6.931
 5621SOL    HW217430   3.796   0.630   7.039
 5622SOL     OW17431   4.285   0.222   6.733
 5622SOL    HW117432   4.323   0.138   6.770
 5622SOL    HW217433   4.197   0.241   6.777
 5623SOL     OW17434   4.590   0.454   6.228
 5623SOL    HW117435   4.558   0.526   6.166
 5623SOL    HW217436   4.614   0.373   6.175
 5624SOL     OW17437   4.741   0.039   6.339
 5624SOL    HW117438   4.669   0.044   6.270
 5624SOL    HW217439   4.717  -0.030   6.408
 5625SOL     OW17440   5.153   1.173   6.453
 5625SOL    HW117441   5.098   1.089   6.446
 5625SOL    HW217442   5.179   1.202   6.361
 5626SOL     OW17443   4.212   1.385   5.760
 5626SOL    HW117444   4.125   1.370   5.807
 5626SOL    HW217445   4.195   1.411   5.665
 5627SOL     OW17446   5.114   0.575   5.664
 5627SOL    HW117447   5.060   0.554   5.745
 5627SOL    HW217448   5.205   0.534   5.673
 5628SOL     OW17449   4.251   0.256   5.914
 5628SOL    HW117450   4.278   0.197   5.839
 5628SOL    HW217451   4.251   0.351   5.883
 5629SOL     OW17452   4.788   1.347   6.926
 5629SOL    HW117453   4.708   1.324   6.981
 5629SOL    HW217454   4.871   1.321   6.975
 5630SOL     OW17455   5.316   1.629   7.211
 5630SOL    HW117456   5.343   1.663   7.121
 5630SOL    HW217457   5.395   1.591   7.257
 5631SOL     OW17458   4.835   1.195   6.686
 5631SOL    HW117459   4.795   1.239   6.767
 5631SOL    HW217460   4.794   1.232   6.603
 5632SOL     OW17461   4.639   0.089   6.988
 5632SOL    HW117462   4.664   0.069   6.893
 5632SOL    HW217463   4.711   0.145   7.030
 5633SOL     OW17464   4.704   1.116   7.305
 5633SOL    HW117465   4.605   1.122   7.315
 5633SOL    HW217466   4.727   1.036   7.249
 5634SOL     OW17467   4.429   1.050   5.954
 5634SOL    HW117468   4.415   1.057   6.053
 5634SOL    HW217469   4.513   0.999   5.936
 5635SOL     OW17470   4.134   0.813   6.837
 5635SOL    HW117471   4.220   0.825   6.887
 5635SOL    HW217472   4.092   0.726   6.864
 5636SOL     OW17473   4.998   0.386   6.848
 5636SOL    HW117474   5.019   0.460   6.912
 5636SOL    HW217475   4.909   0.403   6.805
 5637SOL     OW17476   3.788   1.564   6.917
 5637SOL    HW117477   3.742   1.646   6.883
 5637SOL    HW217478   3.886   1.583   6.926
 5638SOL     OW17479   4.091   1.100   6.087
 5638SOL    HW117480   4.084   1.183   6.031
 5638SOL    HW217481   4.095   1.020   6.027
 5639SOL     OW17482   4.290   0.537   6.451
 5639SOL    HW117483   4.302   0.603   6.377
 5639SOL    HW217484   4.336   0.571   6.534
 5640SOL     OW17485   4.976   1.348   5.974
 5640SOL    HW117486   5.026   1.425   6.014
 5640SOL    HW217487   4.881   1.350   6.006
 5641SOL     OW17488   4.996   1.445   6.728
 5641SOL    HW117489   5.043   1.458   6.815
 5641SOL    HW217490   4.930   1.371   6.737
 5642SOL     OW17491   4.078   1.510   6.915
 5642SOL    HW117492   4.057   1.466   6.828
 5642SOL    HW217493   4.175   1.536   6.918
 5643SOL     OW17494   4.126   0.751   7.184
 5643SOL    HW117495   4.194   0.806   7.137
 5643SOL    HW217496   4.166   0.663   7.211
 5644SOL     OW17497   4.737   0.105   7.356
 5644SOL    HW117498   4.743   0.190   7.304
 5644SOL    HW217499   4.769   0.029   7.299
 5645SOL     OW17500   4.228   0.050   7.326
 5645SOL    HW117501   4.186  -0.007   7.256
 5645SOL    HW217502   4.162   0.119   7.358
 5646SOL     OW17503   4.297   0.870   6.615
 5646SOL    HW117504   4.341   0.959   6.606
 5646SOL    HW217505   4.234   0.870   6.692
 5647SOL     OW17506   5.084   0.862   6.631
 5647SOL    HW117507   5.009   0.862   6.565
 5647SOL    HW217508   5.121   0.770   6.640
 5648SOL     OW17509   4.933   0.525   5.861
 5648SOL    HW117510   4.946   0.441   5.915
 5648SOL    HW217511   4.904   0.599   5.921
 5649SOL     OW17512   4.031   0.213   6.817
 5649SOL    HW117513   4.008   0.250   6.907
 5649SOL    HW217514   4.001   0.118   6.811
 5650SOL     OW17515   3.761   1.310   6.868
 5650SOL    HW117516   3.814   1.261   6.936
 5650SOL    HW217517   3.783   1.408   6.873
 5651SOL     OW17518   4.456   0.634   6.650
 5651SOL    HW117519   4.515   0.608   6.574
 5651SOL    HW217520   4.428   0.730   6.639
 5652SOL     OW17521   4.031   0.063   6.204
 5652SOL    HW117522   4.020   0.157   6.237
 5652SOL    HW217523   4.026   0.000   6.281
 5653SOL     OW17524   5.346   0.367   5.960
 5653SOL    HW117525   5.348   0.291   6.024
 5653SOL    HW217526   5.298   0.444   6.000
 5654SOL     OW17527   4.747   0.766   6.552
 5654SOL    HW117528   4.762   0.787   6.648
 5654SOL    HW217529   4.717   0.671   6.543
 5655SOL     OW17530   4.704   1.573   7.286
 5655SOL    HW117531   4.684   1.617   7.198
 5655SOL    HW217532   4.743   1.482   7.270
 5656SOL     OW17533   4.074   0.898   7.390
 5656SOL    HW117534   4.150   0.942   7.438
 5656SOL    HW217535   4.109   0.851   7.308
 5657SOL     OW17536   5.027   0.838   5.628
 5657SOL    HW117537   5.061   0.745   5.643
 5657SOL    HW217538   5.045   0.865   5.533
 5658SOL     OW17539   4.792   1.333   6.435
 5658SOL    HW117540   4.799   1.249   6.380
 5658SOL    HW217541   4.854   1.402   6.399
 5659SOL     OW17542   4.043   0.810   6.535
 5659SOL    HW117543   4.136   0.846   6.540
 5659SOL    HW217544   4.037   0.725   6.587
 5660SOL     OW17545   4.063   0.509   6.592
 5660SOL    HW117546   4.011   0.426   6.575
 5660SOL    HW217547   4.140   0.514   6.528
 5661SOL     OW17548   4.862   0.380   7.264
 5661SOL    HW117549   4.817   0.443   7.328
 5661SOL    HW217550   4.955   0.411   7.247
 5662SOL     OW17551   4.884   0.207   7.063
 5662SOL    HW117552   4.884   0.271   7.140
 5662SOL    HW217553   4.912   0.255   6.980
 5663SOL     OW17554   3.732   1.326   5.786
 5663SOL    HW117555   3.639   1.347   5.755
 5663SOL    HW217556   3.742   1.227   5.799
 5664SOL     OW17557   3.812   1.801   6.513
 5664SOL    HW117558   3.770   1.715   6.486
 5664SOL    HW217559   3.906   1.804   6.479
 5665SOL     OW17560   4.228   1.568   6.496
 5665SOL    HW117561   4.294   1.642   6.505
 5665SOL    HW217562   4.272   1.489   6.454
 5666SOL     OW17563   4.726   0.796   6.824
 5666SOL    HW117564   4.767   0.764   6.910
 5666SOL    HW217565   4.630   0.769   6.821
 5667SOL     OW17566   3.764   0.544   6.700
 5667SOL    HW117567   3.849   0.511   6.659
 5667SOL    HW217568   3.777   0.559   6.798
 5668SOL     OW17569   3.913   0.520   7.308
 5668SOL    HW117570   3.972   0.480   7.238
 5668SOL    HW217571   3.855   0.591   7.267
 5669SOL     OW17572   5.093   0.950   7.246
 5669SOL    HW117573   5.132   1.039   7.266
 5669SOL    HW217574   5.103   0.930   7.149
 5670SOL     OW17575   4.539   0.572   5.911
 5670SOL    HW117576   4.546   0.483   5.865
 5670SOL    HW217577   4.445   0.606   5.903
 5671SOL     OW17578   3.976   1.564   7.330
 5671SOL    HW117579   3.946   1.621   7.406
 5671SOL    HW217580   3.969   1.467   7.356
 5672SOL     OW17581   4.395   0.464   6.855
 5672SOL    HW117582   4.361   0.375   6.825
 5672SOL    HW217583   4.421   0.518   6.775
 5673SOL     OW17584   4.654   1.678   7.051
 5673SOL    HW117585   4.630   1.660   6.956
 5673SOL    HW217586   4.684   1.772   7.061
 5674SOL     OW17587   4.197   0.500   5.777
 5674SOL    HW117588   4.258   0.580   5.781
 5674SOL    HW217589   4.102   0.531   5.784
 5675SOL     OW17590   3.883   1.137   7.052
 5675SOL    HW117591   3.905   1.076   7.128
 5675SOL    HW217592   3.893   1.088   6.966
 5676SOL     OW17593   5.071   1.059   6.820
 5676SOL    HW117594   5.095   0.996   6.746
 5676SOL    HW217595   4.981   1.099   6.802
 5677SOL     OW17596   5.026   0.855   5.895
 5677SOL    HW117597   4.940   0.824   5.937
 5677SOL    HW217598   5.022   0.841   5.796
 5678SOL     OW17599   4.976   1.731   6.714
 5678SOL    HW117600   5.060   1.736   6.660
 5678SOL    HW217601   4.953   1.635   6.732
 5679SOL     OW17602   3.807   1.258   6.608
 5679SOL    HW117603   3.802   1.257   6.708
 5679SOL    HW217604   3.724   1.217   6.570
 5680SOL     OW17605   4.412   1.662   7.302
 5680SOL    HW117606   4.356   1.743   7.311
 5680SOL    HW217607   4.464   1.666   7.216
 5681SOL     OW17608   5.112   1.573   6.063
 5681SOL    HW117609   5.179   1.585   5.989
 5681SOL    HW217610   5.072   1.662   6.086
 5682SOL     OW17611   3.854   1.794   7.437
 5682SOL    HW117612   3.813   1.720   7.490
 5682SOL    HW217613   3.918   1.845   7.495
 5683SOL     OW17614   5.004   0.927   6.258
 5683SOL    HW117615   5.064   0.846   6.260
 5683SOL    HW217616   5.044   0.996   6.198
 5684SOL     OW17617   4.554   1.273   7.008
 5684SOL    HW117618   4.549   1.306   7.103
 5684SOL    HW217619   4.468   1.292   6.962
 5685SOL     OW17620   4.396   1.616   5.740
 5685SOL    HW117621   4.405   1.626   5.641
 5685SOL    HW217622   4.356   1.527   5.761
 5686SOL     OW17623   3.987   0.326   6.306
 5686SOL    HW117624   3.908   0.377   6.272
 5686SOL    HW217625   3.978   0.311   6.404
 5687SOL     OW17626   4.918   1.612   5.617
 5687SOL    HW117627   4.924   1.519   5.654
 5687SOL    HW217628   4.859   1.612   5.537
 5688SOL     OW17629   4.546   1.002   6.958
 5688SOL    HW117630   4.586   1.001   6.866
 5688SOL    HW217631   4.556   1.094   6.998
 5689SOL     OW17632   4.640   0.910   5.877
 5689SOL    HW117633   4.703   0.948   5.809
 5689SOL    HW217634   4.680   0.827   5.916
 5690SOL     OW17635   4.096   1.288   7.076
 5690SOL    HW117636   4.083   1.381   7.042
 5690SOL    HW217637   4.012   1.236   7.063
 5691SOL     OW17638   4.763   1.098   6.282
 5691SOL    HW117639   4.693   1.051   6.336
 5691SOL    HW217640   4.822   1.030   6.239
 5692SOL     OW17641   4.738   0.236   6.557
 5692SOL    HW117642   4.730   0.200   6.464
 5692SOL    HW217643   4.736   0.160   6.622
 5693SOL     OW17644   4.314   1.487   6.077
 5693SOL    HW117645   4.356   1.429   6.007
 5693SOL    HW217646   4.270   1.566   6.033
 5694SOL     OW17647   3.979   1.348   5.876
 5694SOL    HW117648   3.883   1.349   5.849
 5694SOL    HW217649   3.991   1.401   5.960
 5695SOL     OW17650   3.829   1.013   7.312
 5695SOL    HW117651   3.752   0.980   7.366
 5695SOL    HW217652   3.914   0.983   7.354
 5696SOL     OW17653   4.396   0.203   7.075
 5696SOL    HW117654   4.486   0.187   7.035
 5696SOL    HW217655   4.404   0.208   7.174
 5697SOL     OW17656   3.799   0.345   5.619
 5697SOL    HW117657   3.707   0.317   5.590
 5697SOL    HW217658   3.830   0.422   5.563
 5698SOL     OW17659   5.164   0.856   6.984
 5698SOL    HW117660   5.107   0.908   6.921
 5698SOL    HW217661   5.260   0.868   6.960
 5699SOL     OW17662   3.796   0.166   5.904
 5699SOL    HW117663   3.779   0.249   5.850
 5699SOL    HW217664   3.886   0.129   5.882
 5700SOL     OW17665   4.907   1.335   5.705
 5700SOL    HW117666   4.808   1.324   5.707
 5700SOL    HW217667   4.941   1.350   5.798
 5701SOL     OW17668   4.337   0.842   7.017
 5701SOL    HW117669   4.393   0.923   7.000
 5701SOL    HW217670   4.396   0.762   7.020
 5702SOL     OW17671   4.440   0.565   7.294
 5702SOL    HW117672   4.459   0.630   7.368
 5702SOL    HW217673   4.500   0.485   7.303
 5703SOL     OW17674   5.174   1.220   7.219
 5703SOL    HW117675   5.165   1.210   7.318
 5703SOL    HW217676   5.270   1.213   7.193
 5704SOL     OW17677   4.114   1.741   7.146
 5704SOL    HW117678   4.023   1.782   7.144
 5704SOL    HW217679   4.107   1.647   7.178
 5705SOL     OW17680   4.949   0.325   6.035
 5705SOL    HW117681   5.014   0.251   6.024
 5705SOL    HW217682   4.969   0.375   6.119
 5706SOL     OW17683   4.318   0.745   6.238
 5706SOL    HW117684   4.368   0.830   6.219
 5706SOL    HW217685   4.230   0.747   6.190
 5707SOL     OW17686   4.583   1.374   5.602
 5707SOL    HW117687   4.537   1.389   5.690
 5707SOL    HW217688   4.627   1.459   5.572
 5708SOL     OW17689   4.385   1.790   6.539
 5708SOL    HW117690   4.339   1.878   6.526
 5708SOL    HW217691   4.484   1.802   6.532
 5709SOL     OW17692   4.583   0.956   6.447
 5709SOL    HW117693   4.637   0.887   6.495
 5709SOL    HW217694   4.551   1.025   6.513
 5710SOL     OW17695   4.807   0.984   5.673
 5710SOL    HW117696   4.784   1.037   5.591
 5710SOL    HW217697   4.888   0.928   5.654
 5711SOL     OW17698   3.945   1.314   7.430
 5711SOL    HW117699   3.880   1.241   7.409
 5711SOL    HW217700   3.949   1.328   7.528
 5712SOL     OW17701   3.803   1.240   6.239
 5712SOL    HW117702   3.802   1.193   6.327
 5712SOL    HW217703   3.885   1.212   6.188
 5713SOL     OW17704   4.396   1.391   7.210
 5713SOL    HW117705   4.318   1.341   7.248
 5713SOL    HW217706   4.393   1.486   7.241
 5714SOL     OW17707   4.152   0.424   6.106
 5714SOL    HW117708   4.182   0.352   6.044
 5714SOL    HW217709   4.113   0.384   6.189
 5715SOL     OW17710   5.429   1.487   6.690
 5715SOL    HW117711   5.336   1.462   6.663
 5715SOL    HW217712   5.455   1.437   6.772
 5716SOL     OW17713   4.041   0.547   6.866
 5716SOL    HW117714   4.079   0.488   6.938
 5716SOL    HW217715   4.081   0.521   6.778
 5717SOL     OW17716   4.536   1.586   6.273
 5717SOL    HW117717   4.568   1.596   6.179
 5717SOL    HW217718   4.457   1.524   6.275
 5718SOL     OW17719   5.148   0.214   6.698
 5718SOL    HW117720   5.200   0.149   6.753
 5718SOL    HW217721   5.099   0.277   6.759
 5719SOL     OW17722   4.725   0.034   6.740
 5719SOL    HW117723   4.662  -0.038   6.709
 5719SOL    HW217724   4.818  -0.002   6.740
 5720SOL     OW17725   4.494   1.330   5.887
 5720SOL    HW117726   4.448   1.243   5.904
 5720SOL    HW217727   4.585   1.327   5.928
 5721SOL     OW17728   4.342   1.567   6.870
 5721SOL    HW117729   4.337   1.649   6.927
 5721SOL    HW217730   4.431   1.564   6.825
 5722SOL     OW17731   5.076   0.052   5.754
 5722SOL    HW117732   5.111   0.011   5.670
 5722SOL    HW217733   4.986   0.014   5.774
 5723SOL     OW17734   5.024   0.453   6.277
 5723SOL    HW117735   4.965   0.533   6.281
 5723SOL    HW217736   5.039   0.418   6.370
 5724SOL     OW17737   5.317   0.221   6.468
 5724SOL    HW117738   5.233   0.220   6.522
 5724SOL    HW217739   5.319   0.304   6.412
 5725SOL     OW17740   3.763   1.077   5.886
 5725SOL    HW117741   3.862   1.066   5.877
 5725SOL    HW217742   3.723   0.991   5.918
 5726SOL     OW17743   4.599   1.646   5.923
 5726SOL    HW117744   4.522   1.611   5.869
 5726SOL    HW217745   4.567   1.717   5.985
 5727SOL     OW17746   3.954   0.628   7.561
 5727SOL    HW117747   3.861   0.626   7.598
 5727SOL    HW217748   3.955   0.589   7.469
 5728SOL     OW17749   3.955   1.713   7.931
 5728SOL    HW117750   3.989   1.790   7.985
 5728SOL    HW217751   3.999   1.713   7.841
 5729SOL     OW17752   3.954   1.434   7.986
 5729SOL    HW117753   3.928   1.530   7.986
 5729SOL    HW217754   3.883   1.380   8.031
 5730SOL     OW17755   4.330   0.964   7.571
 5730SOL    HW117756   4.337   1.048   7.517
 5730SOL    HW217757   4.376   0.977   7.659
 5731SOL     OW17758   3.751   1.596   7.565
 5731SOL    HW117759   3.732   1.500   7.586
 5731SOL    HW217760   3.718   1.654   7.640
 5732SOL     OW17761   5.413   0.922   8.060
 5732SOL    HW117762   5.508   0.893   8.068
 5732SOL    HW217763   5.405   0.987   7.985
 5733SOL     OW17764   4.533   0.004   7.950
 5733SOL    HW117765   4.573   0.095   7.941
 5733SOL    HW217766   4.433   0.012   7.956
 5734SOL     OW17767   4.322   0.729   7.718
 5734SOL    HW117768   4.346   0.798   7.650
 5734SOL    HW217769   4.244   0.762   7.772
 5735SOL     OW17770   3.800   0.811   8.237
 5735SOL    HW117771   3.899   0.799   8.246
 5735SOL    HW217772   3.776   0.906   8.258
 5736SOL     OW17773   4.589   0.348   7.643
 5736SOL    HW117774   4.648   0.411   7.594
 5736SOL    HW217775   4.608   0.254   7.614
 5737SOL     OW17776   4.045   0.943   7.690
 5737SOL    HW117777   4.127   0.982   7.648
 5737SOL    HW217778   4.018   0.861   7.641
 5738SOL     OW17779   4.835   1.776   7.685
 5738SOL    HW117780   4.775   1.714   7.735
 5738SOL    HW217781   4.866   1.732   7.600
 5739SOL     OW17782   4.188   1.743   7.771
 5739SOL    HW117783   4.221   1.782   7.857
 5739SOL    HW217784   4.264   1.736   7.706
 5740SOL     OW17785   5.124   0.107   7.874
 5740SOL    HW117786   5.100   0.070   7.784
 5740SOL    HW217787   5.223   0.123   7.878
 5741SOL     OW17788   4.106   0.700   7.928
 5741SOL    HW117789   4.151   0.610   7.925
 5741SOL    HW217790   4.012   0.689   7.961
 5742SOL     OW17791   4.338   0.122   7.565
 5742SOL    HW117792   4.436   0.100   7.572
 5742SOL    HW217793   4.307   0.105   7.472
 5743SOL     OW17794   4.263   0.064   7.960
 5743SOL    HW117795   4.182   0.065   8.018
 5743SOL    HW217796   4.266   0.147   7.905
 5744SOL     OW17797   5.158   1.188   7.489
 5744SOL    HW117798   5.190   1.112   7.546
 5744SOL    HW217799   5.066   1.215   7.519
 5745SOL     OW17800   4.021   0.035   7.619
 5745SOL    HW117801   4.070   0.119   7.598
 5745SOL    HW217802   4.083  -0.030   7.664
 5746SOL     OW17803   4.659   0.236   7.928
 5746SOL    HW117804   4.611   0.277   7.850
 5746SOL    HW217805   4.758   0.234   7.909
 5747SOL     OW17806   4.183   1.152   8.189
 5747SOL    HW117807   4.112   1.125   8.254
 5747SOL    HW217808   4.157   1.124   8.096
 5748SOL     OW17809   4.995   1.797   8.039
 5748SOL    HW117810   5.039   1.861   7.975
 5748SOL    HW217811   4.945   1.849   8.109
 5749SOL     OW17812   4.756   0.549   7.464
 5749SOL    HW117813   4.715   0.631   7.425
 5749SOL    HW217814   4.820   0.575   7.537
 5750SOL     OW17815   4.212   1.385   7.622
 5750SOL    HW117816   4.125   1.370   7.669
 5750SOL    HW217817   4.195   1.411   7.527
 5751SOL     OW17818   5.114   0.575   7.526
 5751SOL    HW117819   5.060   0.554   7.607
 5751SOL    HW217820   5.205   0.534   7.535
 5752SOL     OW17821   4.251   0.256   7.776
 5752SOL    HW117822   4.278   0.197   7.701
 5752SOL    HW217823   4.251   0.351   7.745
 5753SOL     OW17824   4.429   1.050   7.816
 5753SOL    HW117825   4.415   1.057   7.915
 5753SOL    HW217826   4.513   0.999   7.798
 5754SOL     OW17827   4.091   1.100   7.949
 5754SOL    HW117828   4.084   1.183   7.893
 5754SOL    HW217829   4.095   1.020   7.889
 5755SOL     OW17830   4.976   1.348   7.836
 5755SOL    HW117831   5.026   1.425   7.876
 5755SOL    HW217832   4.881   1.350   7.868
 5756SOL     OW17833   5.306   0.639   7.920
 5756SOL    HW117834   5.275   0.700   7.993
 5756SOL    HW217835   5.356   0.691   7.851
 5757SOL     OW17836   4.933   0.525   7.723
 5757SOL    HW117837   4.946   0.441   7.777
 5757SOL    HW217838   4.904   0.599   7.783
 5758SOL     OW17839   5.346   0.367   7.822
 5758SOL    HW117840   5.348   0.291   7.886
 5758SOL    HW217841   5.298   0.444   7.862
 5759SOL     OW17842   5.027   0.838   7.490
 5759SOL    HW117843   5.061   0.745   7.505
 5759SOL    HW217844   5.045   0.865   7.395
 5760SOL     OW17845   3.732   1.326   7.648
 5760SOL    HW117846   3.639   1.347   7.617
 5760SOL    HW217847   3.742   1.227   7.661
 5761SOL     OW17848   4.539   0.572   7.773
 5761SOL    HW117849   4.546   0.483   7.727
 5761SOL    HW217850   4.445   0.606   7.765
 5762SOL     OW17851   4.197   0.500   7.639
 5762SOL    HW117852   4.258   0.580   7.643
 5762SOL    HW217853   4.102   0.531   7.646
 5763SOL     OW17854   5.026   0.855   7.757
 5763SOL    HW117855   4.940   0.824   7.799
 5763SOL    HW217856   5.022   0.841   7.658
 5764SOL     OW17857   5.112   1.573   7.925
 5764SOL    HW117858   5.179   1.585   7.851
 5764SOL    HW217859   5.072   1.662   7.948
 5765SOL     OW17860   4.396   1.616   7.602
 5765SOL    HW117861   4.405   1.626   7.503
 5765SOL    HW217862   4.356   1.527   7.623
 5766SOL     OW17863   4.918   1.612   7.479
 5766SOL    HW117864   4.924   1.519   7.516
 5766SOL    HW217865   4.859   1.612   7.399
 5767SOL     OW17866   4.640   0.910   7.739
 5767SOL    HW117867   4.703   0.948   7.671
 5767SOL    HW217868   4.680   0.827   7.778
 5768SOL     OW17869   4.314   1.487   7.939
 5768SOL    HW117870   4.356   1.429   7.869
 5768SOL    HW217871   4.270   1.566   7.895
 5769SOL     OW17872   3.979   1.348   7.738
 5769SOL    HW117873   3.883   1.349   7.711
 5769SOL    HW217874   3.991   1.401   7.822
 5770SOL     OW17875   3.799   0.345   7.481
 5770SOL    HW117876   3.707   0.317   7.452
 5770SOL    HW217877   3.830   0.422   7.425
 5771SOL     OW17878   3.796   0.166   7.766
 5771SOL    HW117879   3.779   0.249   7.712
 5771SOL    HW217880   3.886   0.129   7.744
 5772SOL     OW17881   4.907   1.335   7.567
 5772SOL    HW117882   4.808   1.324   7.569
 5772SOL    HW217883   4.941   1.350   7.660
 5773SOL     OW17884   5.217   1.767   8.407
 5773SOL    HW117885   5.250   1.831   8.338
 5773SOL    HW217886   5.283   1.761   8.482
 5774SOL     OW17887   4.949   0.325   7.897
 5774SOL    HW117888   5.014   0.251   7.886
 5774SOL    HW217889   4.969   0.375   7.981
 5775SOL     OW17890   4.318   0.745   8.100
 5775SOL    HW117891   4.368   0.830   8.081
 5775SOL    HW217892   4.230   0.747   8.052
 5776SOL     OW17893   4.583   1.374   7.464
 5776SOL    HW117894   4.537   1.389   7.552
 5776SOL    HW217895   4.627   1.459   7.434
 5777SOL     OW17896   4.807   0.984   7.535
 5777SOL    HW117897   4.784   1.037   7.453
 5777SOL    HW217898   4.888   0.928   7.516
 5778SOL     OW17899   4.152   0.424   7.968
 5778SOL    HW117900   4.182   0.352   7.906
 5778SOL    HW217901   4.113   0.384   8.051
 5779SOL     OW17902   4.494   1.330   7.749
 5779SOL    HW117903   4.448   1.243   7.766
 5779SOL    HW217904   4.585   1.327   7.790
 5780SOL     OW17905   5.076   0.052   7.616
 5780SOL    HW117906   5.111   0.011   7.532
 5780SOL    HW217907   4.986   0.014   7.636
 5781SOL     OW17908   3.763   1.077   7.748
 5781SOL    HW117909   3.862   1.066   7.739
 5781SOL    HW217910   3.723   0.991   7.780
 5782SOL     OW17911   4.599   1.646   7.785
 5782SOL    HW117912   4.522   1.611   7.731
 5782SOL    HW217913   4.567   1.717   7.847
 5783SOL     OW17914   3.954   2.490   0.113
 5783SOL    HW117915   3.861   2.488   0.150
 5783SOL    HW217916   3.955   2.451   0.021
 5784SOL     OW17917   3.949   2.137   0.996
 5784SOL    HW117918   3.984   2.120   1.088
 5784SOL    HW217919   3.861   2.092   0.984
 5785SOL     OW17920   3.743   2.230   0.647
 5785SOL    HW117921   3.661   2.273   0.686
 5785SOL    HW217922   3.715   2.157   0.584
 5786SOL     OW17923   4.293   3.137   1.165
 5786SOL    HW117924   4.200   3.130   1.128
 5786SOL    HW217925   4.304   3.226   1.209
 5787SOL     OW17926   5.279   3.373   0.703
 5787SOL    HW117927   5.222   3.357   0.784
 5787SOL    HW217928   5.220   3.383   0.623
 5788SOL     OW17929   4.859   2.565   0.717
 5788SOL    HW117930   4.916   2.643   0.692
 5788SOL    HW217931   4.799   2.591   0.793
 5789SOL     OW17932   4.492   3.006   1.023
 5789SOL    HW117933   4.414   3.023   1.083
 5789SOL    HW217934   4.526   3.093   0.987
 5790SOL     OW17935   4.574   2.660   1.823
 5790SOL    HW117936   4.570   2.736   1.888
 5790SOL    HW217937   4.596   2.696   1.732
 5791SOL     OW17938   4.409   2.874   0.665
 5791SOL    HW117939   4.478   2.858   0.735
 5791SOL    HW217940   4.336   2.931   0.703
 5792SOL     OW17941   4.410   3.023   1.803
 5792SOL    HW117942   4.470   3.102   1.817
 5792SOL    HW217943   4.324   3.054   1.762
 5793SOL     OW17944   4.059   3.297   1.061
 5793SOL    HW117945   3.981   3.266   1.008
 5793SOL    HW217946   4.117   3.355   1.004
 5794SOL     OW17947   5.184   3.367   1.339
 5794SOL    HW117948   5.208   3.461   1.365
 5794SOL    HW217949   5.168   3.313   1.421
 5795SOL     OW17950   4.162   2.254   1.499
 5795SOL    HW117951   4.244   2.198   1.508
 5795SOL    HW217952   4.081   2.196   1.503
 5796SOL     OW17953   3.955   3.575   0.483
 5796SOL    HW117954   3.989   3.652   0.537
 5796SOL    HW217955   3.999   3.575   0.393
 5797SOL     OW17956   4.851   3.203   1.690
 5797SOL    HW117957   4.898   3.203   1.778
 5797SOL    HW217958   4.803   3.116   1.679
 5798SOL     OW17959   3.954   3.296   0.538
 5798SOL    HW117960   3.928   3.392   0.538
 5798SOL    HW217961   3.883   3.242   0.583
 5799SOL     OW17962   3.964   2.953   0.886
 5799SOL    HW117963   3.978   2.869   0.938
 5799SOL    HW217964   3.909   3.017   0.941
 5800SOL     OW17965   4.344   3.648   1.439
 5800SOL    HW117966   4.252   3.631   1.474
 5800SOL    HW217967   4.372   3.740   1.465
 5801SOL     OW17968   4.330   2.826   0.123
 5801SOL    HW117969   4.337   2.910   0.069
 5801SOL    HW217970   4.376   2.839   0.211
 5802SOL     OW17971   3.846   2.505   0.563
 5802SOL    HW117972   3.801   2.417   0.580
 5802SOL    HW217973   3.845   2.559   0.647
 5803SOL     OW17974   3.751   3.458   0.117
 5803SOL    HW117975   3.732   3.362   0.138
 5803SOL    HW217976   3.718   3.516   0.192
 5804SOL     OW17977   5.413   2.784   0.612
 5804SOL    HW117978   5.508   2.755   0.620
 5804SOL    HW217979   5.405   2.849   0.537
 5805SOL     OW17980   3.837   2.599   1.597
 5805SOL    HW117981   3.925   2.586   1.642
 5805SOL    HW217982   3.824   2.696   1.575
 5806SOL     OW17983   4.337   3.227   0.726
 5806SOL    HW117984   4.288   3.140   0.735
 5806SOL    HW217985   4.314   3.270   0.639
 5807SOL     OW17986   5.017   3.090   1.423
 5807SOL    HW117987   5.054   3.017   1.365
 5807SOL    HW217988   5.069   3.095   1.508
 5808SOL     OW17989   4.533   1.866   0.502
 5808SOL    HW117990   4.573   1.957   0.493
 5808SOL    HW217991   4.433   1.874   0.508
 5809SOL     OW17992   3.921   2.838   1.264
 5809SOL    HW117993   4.010   2.793   1.250
 5809SOL    HW217994   3.848   2.773   1.245
 5810SOL     OW17995   4.911   3.654   1.616
 5810SOL    HW117996   4.935   3.714   1.540
 5810SOL    HW217997   4.918   3.559   1.586
 5811SOL     OW17998   4.041   2.113   1.801
 5811SOL    HW117999   4.112   2.184   1.807
 5811SOL    HW218000   3.953   2.152   1.829
 5812SOL     OW18001   5.190   3.279   0.953
 5812SOL    HW118002   5.131   3.285   1.033
 5812SOL    HW218003   5.175   3.191   0.907
 5813SOL     OW18004   4.322   2.591   0.270
 5813SOL    HW118005   4.346   2.660   0.202
 5813SOL    HW218006   4.244   2.624   0.324
 5814SOL     OW18007   5.005   2.207   0.944
 5814SOL    HW118008   4.919   2.157   0.931
 5814SOL    HW218009   5.067   2.153   1.000
 5815SOL     OW18010   4.531   2.467   1.465
 5815SOL    HW118011   4.484   2.464   1.554
 5815SOL    HW218012   4.480   2.412   1.399
 5816SOL     OW18013   5.118   2.331   1.674
 5816SOL    HW118014   5.098   2.374   1.762
 5816SOL    HW218015   5.196   2.269   1.683
 5817SOL     OW18016   4.697   2.752   1.572
 5817SOL    HW118017   4.743   2.668   1.543
 5817SOL    HW218018   4.641   2.786   1.497
 5818SOL     OW18019   4.715   2.272   1.242
 5818SOL    HW118020   4.638   2.306   1.296
 5818SOL    HW218021   4.681   2.221   1.163
 5819SOL     OW18022   4.765   2.563   0.429
 5819SOL    HW118023   4.791   2.559   0.525
 5819SOL    HW218024   4.680   2.512   0.415
 5820SOL     OW18025   3.800   2.673   0.789
 5820SOL    HW118026   3.899   2.661   0.798
 5820SOL    HW218027   3.776   2.768   0.810
 5821SOL     OW18028   3.854   3.683   1.571
 5821SOL    HW118029   3.844   3.668   1.670
 5821SOL    HW218030   3.768   3.719   1.535
 5822SOL     OW18031   4.589   2.210   0.195
 5822SOL    HW118032   4.648   2.273   0.146
 5822SOL    HW218033   4.608   2.116   0.166
 5823SOL     OW18034   5.086   3.006   0.545
 5823SOL    HW118035   5.169   2.977   0.497
 5823SOL    HW218036   5.037   3.073   0.489
 5824SOL     OW18037   4.274   2.058   0.885
 5824SOL    HW118038   4.269   2.053   0.985
 5824SOL    HW218039   4.276   2.154   0.856
 5825SOL     OW18040   4.732   3.318   0.477
 5825SOL    HW118041   4.686   3.390   0.425
 5825SOL    HW218042   4.728   3.338   0.575
 5826SOL     OW18043   4.075   3.663   0.853
 5826SOL    HW118044   4.125   3.577   0.859
 5826SOL    HW218045   4.140   3.740   0.850
 5827SOL     OW18046   4.951   3.412   1.506
 5827SOL    HW118047   4.957   3.335   1.570
 5827SOL    HW218048   4.899   3.386   1.426
 5828SOL     OW18049   4.045   2.805   0.242
 5828SOL    HW118050   4.127   2.844   0.200
 5828SOL    HW218051   4.018   2.723   0.193
 5829SOL     OW18052   4.185   3.128   1.727
 5829SOL    HW118053   4.135   3.129   1.641
 5829SOL    HW218054   4.122   3.110   1.803
 5830SOL     OW18055   4.835   3.638   0.237
 5830SOL    HW118056   4.775   3.576   0.287
 5830SOL    HW218057   4.866   3.594   0.152
 5831SOL     OW18058   3.926   2.147   1.498
 5831SOL    HW118059   3.846   2.207   1.485
 5831SOL    HW218060   3.916   2.098   1.584
 5832SOL     OW18061   4.188   3.605   0.323
 5832SOL    HW118062   4.221   3.644   0.409
 5832SOL    HW218063   4.264   3.598   0.258
 5833SOL     OW18064   5.124   1.969   0.426
 5833SOL    HW118065   5.100   1.932   0.336
 5833SOL    HW218066   5.223   1.985   0.430
 5834SOL     OW18067   3.973   3.647   1.241
 5834SOL    HW118068   4.030   3.582   1.291
 5834SOL    HW218069   3.957   3.614   1.148
 5835SOL     OW18070   4.664   3.560   0.904
 5835SOL    HW118071   4.744   3.503   0.925
 5835SOL    HW218072   4.615   3.520   0.827
 5836SOL     OW18073   4.106   2.562   0.480
 5836SOL    HW118074   4.151   2.472   0.477
 5836SOL    HW218075   4.012   2.551   0.513
 5837SOL     OW18076   4.338   1.984   0.117
 5837SOL    HW118077   4.436   1.962   0.124
 5837SOL    HW218078   4.307   1.967   0.024
 5838SOL     OW18079   4.505   2.126   1.749
 5838SOL    HW118080   4.572   2.065   1.792
 5838SOL    HW218081   4.432   2.145   1.814
 5839SOL     OW18082   4.612   3.376   1.195
 5839SOL    HW118083   4.589   3.351   1.101
 5839SOL    HW218084   4.673   3.307   1.234
 5840SOL     OW18085   5.075   2.452   1.433
 5840SOL    HW118086   5.103   2.409   1.518
 5840SOL    HW218087   5.100   2.548   1.434
 5841SOL     OW18088   4.527   3.264   0.924
 5841SOL    HW118089   4.617   3.278   0.882
 5841SOL    HW218090   4.456   3.266   0.853
 5842SOL     OW18091   4.646   2.365   0.899
 5842SOL    HW118092   4.621   2.356   0.803
 5842SOL    HW218093   4.694   2.283   0.930
 5843SOL     OW18094   4.263   1.926   0.512
 5843SOL    HW118095   4.182   1.927   0.570
 5843SOL    HW218096   4.266   2.009   0.457
 5844SOL     OW18097   5.158   3.050   0.041
 5844SOL    HW118098   5.190   2.974   0.098
 5844SOL    HW218099   5.066   3.077   0.071
 5845SOL     OW18100   4.021   1.897   0.171
 5845SOL    HW118101   4.070   1.981   0.150
 5845SOL    HW218102   4.083   1.832   0.216
 5846SOL     OW18103   4.659   2.098   0.480
 5846SOL    HW118104   4.611   2.139   0.402
 5846SOL    HW218105   4.758   2.096   0.461
 5847SOL     OW18106   4.800   2.545   1.464
 5847SOL    HW118107   4.720   2.484   1.467
 5847SOL    HW218108   4.881   2.492   1.440
 5848SOL     OW18109   4.951   3.432   0.793
 5848SOL    HW118110   4.972   3.506   0.728
 5848SOL    HW218111   5.019   3.432   0.866
 5849SOL     OW18112   4.183   3.014   0.741
 5849SOL    HW118113   4.112   2.987   0.806
 5849SOL    HW218114   4.157   2.986   0.648
 5850SOL     OW18115   4.995   3.659   0.591
 5850SOL    HW118116   5.039   3.723   0.527
 5850SOL    HW218117   4.945   3.711   0.661
 5851SOL     OW18118   4.756   2.411   0.016
 5851SOL    HW118119   4.715   2.493  -0.023
 5851SOL    HW218120   4.820   2.437   0.089
 5852SOL     OW18121   3.802   2.418   1.386
 5852SOL    HW118122   3.894   2.417   1.345
 5852SOL    HW218123   3.796   2.492   1.453
 5853SOL     OW18124   4.285   2.084   1.147
 5853SOL    HW118125   4.323   2.000   1.184
 5853SOL    HW218126   4.197   2.103   1.191
 5854SOL     OW18127   4.590   2.316   0.642
 5854SOL    HW118128   4.558   2.388   0.580
 5854SOL    HW218129   4.614   2.235   0.589
 5855SOL     OW18130   4.741   1.901   0.753
 5855SOL    HW118131   4.669   1.906   0.684
 5855SOL    HW218132   4.717   1.832   0.822
 5856SOL     OW18133   5.153   3.035   0.867
 5856SOL    HW118134   5.098   2.951   0.860
 5856SOL    HW218135   5.179   3.064   0.775
 5857SOL     OW18136   4.212   3.247   0.174
 5857SOL    HW118137   4.125   3.232   0.221
 5857SOL    HW218138   4.195   3.273   0.079
 5858SOL     OW18139   5.114   2.437   0.078
 5858SOL    HW118140   5.060   2.416   0.159
 5858SOL    HW218141   5.205   2.396   0.087
 5859SOL     OW18142   4.251   2.118   0.328
 5859SOL    HW118143   4.278   2.059   0.253
 5859SOL    HW218144   4.251   2.213   0.297
 5860SOL     OW18145   4.788   3.209   1.340
 5860SOL    HW118146   4.708   3.186   1.395
 5860SOL    HW218147   4.871   3.183   1.389
 5861SOL     OW18148   5.316   3.491   1.625
 5861SOL    HW118149   5.343   3.525   1.535
 5861SOL    HW218150   5.395   3.453   1.671
 5862SOL     OW18151   4.835   3.057   1.100
 5862SOL    HW118152   4.795   3.101   1.181
 5862SOL    HW218153   4.794   3.094   1.017
 5863SOL     OW18154   4.639   1.951   1.402
 5863SOL    HW118155   4.664   1.931   1.307
 5863SOL    HW218156   4.711   2.007   1.444
 5864SOL     OW18157   4.704   2.978   1.719
 5864SOL    HW118158   4.605   2.984   1.729
 5864SOL    HW218159   4.727   2.898   1.663
 5865SOL     OW18160   4.429   2.912   0.368
 5865SOL    HW118161   4.415   2.919   0.467
 5865SOL    HW218162   4.513   2.861   0.350
 5866SOL     OW18163   4.134   2.675   1.251
 5866SOL    HW118164   4.220   2.687   1.301
 5866SOL    HW218165   4.092   2.588   1.278
 5867SOL     OW18166   4.998   2.248   1.262
 5867SOL    HW118167   5.019   2.322   1.326
 5867SOL    HW218168   4.909   2.265   1.219
 5868SOL     OW18169   3.788   3.426   1.331
 5868SOL    HW118170   3.742   3.508   1.297
 5868SOL    HW218171   3.886   3.445   1.340
 5869SOL     OW18172   4.091   2.962   0.501
 5869SOL    HW118173   4.084   3.045   0.445
 5869SOL    HW218174   4.095   2.882   0.441
 5870SOL     OW18175   4.290   2.399   0.865
 5870SOL    HW118176   4.302   2.465   0.791
 5870SOL    HW218177   4.336   2.433   0.948
 5871SOL     OW18178   4.976   3.210   0.388
 5871SOL    HW118179   5.026   3.287   0.428
 5871SOL    HW218180   4.881   3.212   0.420
 5872SOL     OW18181   4.996   3.307   1.142
 5872SOL    HW118182   5.043   3.320   1.229
 5872SOL    HW218183   4.930   3.233   1.151
 5873SOL     OW18184   4.078   3.372   1.329
 5873SOL    HW118185   4.057   3.328   1.242
 5873SOL    HW218186   4.175   3.398   1.332
 5874SOL     OW18187   4.126   2.613   1.598
 5874SOL    HW118188   4.194   2.668   1.551
 5874SOL    HW218189   4.166   2.525   1.625
 5875SOL     OW18190   4.737   1.967   1.770
 5875SOL    HW118191   4.743   2.052   1.718
 5875SOL    HW218192   4.769   1.891   1.713
 5876SOL     OW18193   4.228   1.912   1.740
 5876SOL    HW118194   4.186   1.855   1.670
 5876SOL    HW218195   4.162   1.981   1.772
 5877SOL     OW18196   4.297   2.732   1.029
 5877SOL    HW118197   4.341   2.821   1.020
 5877SOL    HW218198   4.234   2.732   1.106
 5878SOL     OW18199   5.084   2.724   1.045
 5878SOL    HW118200   5.009   2.724   0.979
 5878SOL    HW218201   5.121   2.632   1.054
 5879SOL     OW18202   4.933   2.387   0.275
 5879SOL    HW118203   4.946   2.303   0.329
 5879SOL    HW218204   4.904   2.461   0.335
 5880SOL     OW18205   4.031   2.075   1.231
 5880SOL    HW118206   4.008   2.112   1.321
 5880SOL    HW218207   4.001   1.980   1.225
 5881SOL     OW18208   3.761   3.172   1.282
 5881SOL    HW118209   3.814   3.123   1.350
 5881SOL    HW218210   3.783   3.270   1.287
 5882SOL     OW18211   4.456   2.496   1.064
 5882SOL    HW118212   4.515   2.470   0.988
 5882SOL    HW218213   4.428   2.592   1.053
 5883SOL     OW18214   4.031   1.925   0.618
 5883SOL    HW118215   4.020   2.019   0.651
 5883SOL    HW218216   4.026   1.862   0.695
 5884SOL     OW18217   5.346   2.229   0.374
 5884SOL    HW118218   5.348   2.153   0.438
 5884SOL    HW218219   5.298   2.306   0.414
 5885SOL     OW18220   4.747   2.628   0.966
 5885SOL    HW118221   4.762   2.649   1.062
 5885SOL    HW218222   4.717   2.533   0.957
 5886SOL     OW18223   4.704   3.435   1.700
 5886SOL    HW118224   4.684   3.479   1.612
 5886SOL    HW218225   4.743   3.344   1.684
 5887SOL     OW18226   4.074   2.760   1.804
 5887SOL    HW118227   4.150   2.804   1.852
 5887SOL    HW218228   4.109   2.713   1.722
 5888SOL     OW18229   5.027   2.700   0.042
 5888SOL    HW118230   5.061   2.607   0.057
 5888SOL    HW218231   5.045   2.727  -0.053
 5889SOL     OW18232   4.792   3.195   0.849
 5889SOL    HW118233   4.799   3.111   0.794
 5889SOL    HW218234   4.854   3.264   0.813
 5890SOL     OW18235   4.043   2.672   0.949
 5890SOL    HW118236   4.136   2.708   0.954
 5890SOL    HW218237   4.037   2.587   1.001
 5891SOL     OW18238   4.063   2.371   1.006
 5891SOL    HW118239   4.011   2.288   0.989
 5891SOL    HW218240   4.140   2.376   0.942
 5892SOL     OW18241   4.862   2.242   1.678
 5892SOL    HW118242   4.817   2.305   1.742
 5892SOL    HW218243   4.955   2.273   1.661
 5893SOL     OW18244   4.884   2.069   1.477
 5893SOL    HW118245   4.884   2.133   1.554
 5893SOL    HW218246   4.912   2.117   1.394
 5894SOL     OW18247   3.732   3.188   0.200
 5894SOL    HW118248   3.639   3.209   0.169
 5894SOL    HW218249   3.742   3.089   0.213
 5895SOL     OW18250   3.812   3.663   0.927
 5895SOL    HW118251   3.770   3.577   0.900
 5895SOL    HW218252   3.906   3.666   0.893
 5896SOL     OW18253   4.228   3.430   0.910
 5896SOL    HW118254   4.294   3.504   0.919
 5896SOL    HW218255   4.272   3.351   0.868
 5897SOL     OW18256   4.726   2.658   1.238
 5897SOL    HW118257   4.767   2.626   1.324
 5897SOL    HW218258   4.630   2.631   1.235
 5898SOL     OW18259   3.764   2.406   1.114
 5898SOL    HW118260   3.849   2.373   1.073
 5898SOL    HW218261   3.777   2.421   1.212
 5899SOL     OW18262   3.913   2.382   1.722
 5899SOL    HW118263   3.972   2.342   1.652
 5899SOL    HW218264   3.855   2.453   1.681
 5900SOL     OW18265   5.093   2.812   1.660
 5900SOL    HW118266   5.132   2.901   1.680
 5900SOL    HW218267   5.103   2.792   1.563
 5901SOL     OW18268   4.539   2.434   0.325
 5901SOL    HW118269   4.546   2.345   0.279
 5901SOL    HW218270   4.445   2.468   0.317
 5902SOL     OW18271   3.976   3.426   1.744
 5902SOL    HW118272   3.946   3.483   1.820
 5902SOL    HW218273   3.969   3.329   1.770
 5903SOL     OW18274   4.395   2.326   1.269
 5903SOL    HW118275   4.361   2.237   1.239
 5903SOL    HW218276   4.421   2.380   1.189
 5904SOL     OW18277   4.654   3.540   1.465
 5904SOL    HW118278   4.630   3.522   1.370
 5904SOL    HW218279   4.684   3.634   1.475
 5905SOL     OW18280   4.197   2.362   0.191
 5905SOL    HW118281   4.258   2.442   0.195
 5905SOL    HW218282   4.102   2.393   0.198
 5906SOL     OW18283   3.883   2.999   1.466
 5906SOL    HW118284   3.905   2.938   1.542
 5906SOL    HW218285   3.893   2.950   1.380
 5907SOL     OW18286   5.071   2.921   1.234
 5907SOL    HW118287   5.095   2.858   1.160
 5907SOL    HW218288   4.981   2.961   1.216
 5908SOL     OW18289   5.026   2.717   0.309
 5908SOL    HW118290   4.940   2.686   0.351
 5908SOL    HW218291   5.022   2.703   0.210
 5909SOL     OW18292   4.976   3.593   1.128
 5909SOL    HW118293   5.060   3.598   1.074
 5909SOL    HW218294   4.953   3.497   1.146
 5910SOL     OW18295   3.807   3.120   1.022
 5910SOL    HW118296   3.802   3.119   1.122
 5910SOL    HW218297   3.724   3.079   0.984
 5911SOL     OW18298   4.412   3.524   1.716
 5911SOL    HW118299   4.356   3.605   1.725
 5911SOL    HW218300   4.464   3.528   1.630
 5912SOL     OW18301   4.627   1.948   0.133
 5912SOL    HW118302   4.678   1.949   0.047
 5912SOL    HW218303   4.683   1.906   0.204
 5913SOL     OW18304   5.450   1.997   0.523
 5913SOL    HW118305   5.523   1.980   0.456
 5913SOL    HW218306   5.419   1.910   0.561
 5914SOL     OW18307   5.112   3.435   0.477
 5914SOL    HW118308   5.179   3.447   0.403
 5914SOL    HW218309   5.072   3.524   0.500
 5915SOL     OW18310   3.854   3.656   1.851
 5915SOL    HW118311   3.813   3.582   1.904
 5915SOL    HW218312   3.918   3.707   1.909
 5916SOL     OW18313   5.004   2.789   0.672
 5916SOL    HW118314   5.064   2.708   0.674
 5916SOL    HW218315   5.044   2.858   0.612
 5917SOL     OW18316   4.554   3.135   1.422
 5917SOL    HW118317   4.549   3.168   1.517
 5917SOL    HW218318   4.468   3.154   1.376
 5918SOL     OW18319   4.396   3.478   0.154
 5918SOL    HW118320   4.405   3.488   0.055
 5918SOL    HW218321   4.356   3.389   0.175
 5919SOL     OW18322   3.987   2.188   0.720
 5919SOL    HW118323   3.908   2.239   0.686
 5919SOL    HW218324   3.978   2.173   0.818
 5920SOL     OW18325   4.918   3.474   0.031
 5920SOL    HW118326   4.924   3.381   0.068
 5920SOL    HW218327   4.859   3.474  -0.049
 5921SOL     OW18328   4.546   2.864   1.372
 5921SOL    HW118329   4.586   2.863   1.280
 5921SOL    HW218330   4.556   2.956   1.412
 5922SOL     OW18331   4.640   2.772   0.291
 5922SOL    HW118332   4.703   2.810   0.223
 5922SOL    HW218333   4.680   2.689   0.330
 5923SOL     OW18334   4.096   3.150   1.490
 5923SOL    HW118335   4.083   3.243   1.456
 5923SOL    HW218336   4.012   3.098   1.477
 5924SOL     OW18337   4.763   2.960   0.696
 5924SOL    HW118338   4.693   2.913   0.750
 5924SOL    HW218339   4.822   2.892   0.653
 5925SOL     OW18340   4.738   2.098   0.971
 5925SOL    HW118341   4.730   2.062   0.878
 5925SOL    HW218342   4.736   2.022   1.036
 5926SOL     OW18343   4.314   3.349   0.491
 5926SOL    HW118344   4.356   3.291   0.421
 5926SOL    HW218345   4.270   3.428   0.447
 5927SOL     OW18346   3.979   3.210   0.290
 5927SOL    HW118347   3.883   3.211   0.263
 5927SOL    HW218348   3.991   3.263   0.374
 5928SOL     OW18349   3.829   2.875   1.726
 5928SOL    HW118350   3.752   2.842   1.780
 5928SOL    HW218351   3.914   2.845   1.768
 5929SOL     OW18352   4.396   2.065   1.489
 5929SOL    HW118353   4.486   2.049   1.449
 5929SOL    HW218354   4.404   2.070   1.588
 5930SOL     OW18355   3.799   2.207   0.033
 5930SOL    HW118356   3.707   2.179   0.004
 5930SOL    HW218357   3.830   2.284  -0.023
 5931SOL     OW18358   5.164   2.718   1.398
 5931SOL    HW118359   5.107   2.770   1.335
 5931SOL    HW218360   5.260   2.730   1.374
 5932SOL     OW18361   3.796   2.028   0.318
 5932SOL    HW118362   3.779   2.111   0.264
 5932SOL    HW218363   3.886   1.991   0.296
 5933SOL     OW18364   4.907   3.197   0.119
 5933SOL    HW118365   4.808   3.186   0.121
 5933SOL    HW218366   4.941   3.212   0.212
 5934SOL     OW18367   4.337   2.704   1.431
 5934SOL    HW118368   4.393   2.785   1.414
 5934SOL    HW218369   4.396   2.624   1.434
 5935SOL     OW18370   4.440   2.427   1.708
 5935SOL    HW118371   4.459   2.492   1.782
 5935SOL    HW218372   4.500   2.347   1.717
 5936SOL     OW18373   5.174   3.082   1.633
 5936SOL    HW118374   5.165   3.072   1.732
 5936SOL    HW218375   5.270   3.075   1.607
 5937SOL     OW18376   4.114   3.603   1.560
 5937SOL    HW118377   4.023   3.644   1.558
 5937SOL    HW218378   4.107   3.509   1.592
 5938SOL     OW18379   4.949   2.187   0.449
 5938SOL    HW118380   5.014   2.113   0.438
 5938SOL    HW218381   4.969   2.237   0.533
 5939SOL     OW18382   4.318   2.607   0.652
 5939SOL    HW118383   4.368   2.692   0.633
 5939SOL    HW218384   4.230   2.609   0.604
 5940SOL     OW18385   4.583   3.236   0.016
 5940SOL    HW118386   4.537   3.251   0.104
 5940SOL    HW218387   4.627   3.321  -0.014
 5941SOL     OW18388   4.385   3.652   0.953
 5941SOL    HW118389   4.339   3.740   0.940
 5941SOL    HW218390   4.484   3.664   0.946
 5942SOL     OW18391   4.583   2.818   0.861
 5942SOL    HW118392   4.637   2.749   0.909
 5942SOL    HW218393   4.551   2.887   0.927
 5943SOL     OW18394   4.807   2.846   0.087
 5943SOL    HW118395   4.784   2.899   0.005
 5943SOL    HW218396   4.888   2.790   0.068
 5944SOL     OW18397   3.945   3.176   1.844
 5944SOL    HW118398   3.880   3.103   1.823
 5944SOL    HW218399   3.949   3.190   1.942
 5945SOL     OW18400   3.803   3.102   0.653
 5945SOL    HW118401   3.802   3.055   0.741
 5945SOL    HW218402   3.885   3.074   0.602
 5946SOL     OW18403   4.396   3.253   1.624
 5946SOL    HW118404   4.318   3.203   1.662
 5946SOL    HW218405   4.393   3.348   1.655
 5947SOL     OW18406   4.152   2.286   0.520
 5947SOL    HW118407   4.182   2.214   0.458
 5947SOL    HW218408   4.113   2.246   0.603
 5948SOL     OW18409   5.429   3.349   1.104
 5948SOL    HW118410   5.336   3.324   1.077
 5948SOL    HW218411   5.455   3.299   1.186
 5949SOL     OW18412   4.041   2.409   1.280
 5949SOL    HW118413   4.079   2.350   1.352
 5949SOL    HW218414   4.081   2.383   1.192
 5950SOL     OW18415   4.536   3.448   0.687
 5950SOL    HW118416   4.568   3.458   0.593
 5950SOL    HW218417   4.457   3.386   0.689
 5951SOL     OW18418   5.148   2.076   1.112
 5951SOL    HW118419   5.200   2.011   1.167
 5951SOL    HW218420   5.099   2.139   1.173
 5952SOL     OW18421   4.725   1.896   1.154
 5952SOL    HW118422   4.662   1.824   1.123
 5952SOL    HW218423   4.818   1.860   1.154
 5953SOL     OW18424   4.494   3.192   0.301
 5953SOL    HW118425   4.448   3.105   0.318
 5953SOL    HW218426   4.585   3.189   0.342
 5954SOL     OW18427   4.342   3.429   1.284
 5954SOL    HW118428   4.337   3.511   1.341
 5954SOL    HW218429   4.431   3.426   1.239
 5955SOL     OW18430   5.076   1.914   0.168
 5955SOL    HW118431   5.111   1.873   0.084
 5955SOL    HW218432   4.986   1.876   0.188
 5956SOL     OW18433   5.024   2.315   0.691
 5956SOL    HW118434   4.965   2.395   0.695
 5956SOL    HW218435   5.039   2.280   0.784
 5957SOL     OW18436   5.317   2.083   0.882
 5957SOL    HW118437   5.233   2.082   0.936
 5957SOL    HW218438   5.319   2.166   0.826
 5958SOL     OW18439   3.763   2.939   0.300
 5958SOL    HW118440   3.862   2.928   0.291
 5958SOL    HW218441   3.723   2.853   0.332
 5959SOL     OW18442   4.599   3.508   0.337
 5959SOL    HW118443   4.522   3.473   0.283
 5959SOL    HW218444   4.567   3.579   0.399
 5960SOL     OW18445   3.954   2.490   1.975
 5960SOL    HW118446   3.861   2.488   2.012
 5960SOL    HW218447   3.955   2.451   1.883
 5961SOL     OW18448   3.949   2.137   2.858
 5961SOL    HW118449   3.984   2.120   2.950
 5961SOL    HW218450   3.861   2.092   2.846
 5962SOL     OW18451   3.743   2.230   2.509
 5962SOL    HW118452   3.661   2.273   2.548
 5962SOL    HW218453   3.715   2.157   2.446
 5963SOL     OW18454   4.293   3.137   3.027
 5963SOL    HW118455   4.200   3.130   2.990
 5963SOL    HW218456   4.304   3.226   3.071
 5964SOL     OW18457   5.279   3.373   2.565
 5964SOL    HW118458   5.222   3.357   2.646
 5964SOL    HW218459   5.220   3.383   2.485
 5965SOL     OW18460   4.859   2.565   2.579
 5965SOL    HW118461   4.916   2.643   2.554
 5965SOL    HW218462   4.799   2.591   2.655
 5966SOL     OW18463   4.492   3.006   2.885
 5966SOL    HW118464   4.414   3.023   2.945
 5966SOL    HW218465   4.526   3.093   2.849
 5967SOL     OW18466   4.574   2.660   3.685
 5967SOL    HW118467   4.570   2.736   3.750
 5967SOL    HW218468   4.596   2.696   3.594
 5968SOL     OW18469   4.409   2.874   2.527
 5968SOL    HW118470   4.478   2.858   2.597
 5968SOL    HW218471   4.336   2.931   2.565
 5969SOL     OW18472   4.410   3.023   3.665
 5969SOL    HW118473   4.470   3.102   3.679
 5969SOL    HW218474   4.324   3.054   3.624
 5970SOL     OW18475   4.059   3.297   2.923
 5970SOL    HW118476   3.981   3.266   2.870
 5970SOL    HW218477   4.117   3.355   2.866
 5971SOL     OW18478   5.184   3.367   3.201
 5971SOL    HW118479   5.208   3.461   3.227
 5971SOL    HW218480   5.168   3.313   3.283
 5972SOL     OW18481   4.162   2.254   3.361
 5972SOL    HW118482   4.244   2.198   3.370
 5972SOL    HW218483   4.081   2.196   3.365
 5973SOL     OW18484   3.955   3.575   2.345
 5973SOL    HW118485   3.989   3.652   2.399
 5973SOL    HW218486   3.999   3.575   2.255
 5974SOL     OW18487   4.851   3.203   3.552
 5974SOL    HW118488   4.898   3.203   3.640
 5974SOL    HW218489   4.803   3.116   3.541
 5975SOL     OW18490   3.954   3.296   2.400
 5975SOL    HW118491   3.928   3.392   2.400
 5975SOL    HW218492   3.883   3.242   2.445
 5976SOL     OW18493   3.964   2.953   2.748
 5976SOL    HW118494   3.978   2.869   2.800
 5976SOL    HW218495   3.909   3.017   2.803
 5977SOL     OW18496   4.344   3.648   3.301
 5977SOL    HW118497   4.252   3.631   3.336
 5977SOL    HW218498   4.372   3.740   3.327
 5978SOL     OW18499   4.330   2.826   1.985
 5978SOL    HW118500   4.337   2.910   1.931
 5978SOL    HW218501   4.376   2.839   2.073
 5979SOL     OW18502   3.846   2.505   2.425
 5979SOL    HW118503   3.801   2.417   2.442
 5979SOL    HW218504   3.845   2.559   2.509
 5980SOL     OW18505   3.751   3.458   1.979
 5980SOL    HW118506   3.732   3.362   2.000
 5980SOL    HW218507   3.718   3.516   2.054
 5981SOL     OW18508   5.413   2.784   2.474
 5981SOL    HW118509   5.508   2.755   2.482
 5981SOL    HW218510   5.405   2.849   2.399
 5982SOL     OW18511   3.837   2.599   3.459
 5982SOL    HW118512   3.925   2.586   3.504
 5982SOL    HW218513   3.824   2.696   3.437
 5983SOL     OW18514   4.337   3.227   2.588
 5983SOL    HW118515   4.288   3.140   2.597
 5983SOL    HW218516   4.314   3.270   2.501
 5984SOL     OW18517   5.017   3.090   3.285
 5984SOL    HW118518   5.054   3.017   3.227
 5984SOL    HW218519   5.069   3.095   3.370
 5985SOL     OW18520   4.533   1.866   2.364
 5985SOL    HW118521   4.573   1.957   2.355
 5985SOL    HW218522   4.433   1.874   2.370
 5986SOL     OW18523   3.921   2.838   3.126
 5986SOL    HW118524   4.010   2.793   3.112
 5986SOL    HW218525   3.848   2.773   3.107
 5987SOL     OW18526   4.911   3.654   3.478
 5987SOL    HW118527   4.935   3.714   3.402
 5987SOL    HW218528   4.918   3.559   3.448
 5988SOL     OW18529   4.041   2.113   3.663
 5988SOL    HW118530   4.112   2.184   3.669
 5988SOL    HW218531   3.953   2.152   3.691
 5989SOL     OW18532   5.190   3.279   2.815
 5989SOL    HW118533   5.131   3.285   2.895
 5989SOL    HW218534   5.175   3.191   2.769
 5990SOL     OW18535   4.322   2.591   2.132
 5990SOL    HW118536   4.346   2.660   2.064
 5990SOL    HW218537   4.244   2.624   2.186
 5991SOL     OW18538   5.005   2.207   2.806
 5991SOL    HW118539   4.919   2.157   2.793
 5991SOL    HW218540   5.067   2.153   2.862
 5992SOL     OW18541   4.531   2.467   3.327
 5992SOL    HW118542   4.484   2.464   3.416
 5992SOL    HW218543   4.480   2.412   3.261
 5993SOL     OW18544   5.118   2.331   3.536
 5993SOL    HW118545   5.098   2.374   3.624
 5993SOL    HW218546   5.196   2.269   3.545
 5994SOL     OW18547   4.697   2.752   3.434
 5994SOL    HW118548   4.743   2.668   3.405
 5994SOL    HW218549   4.641   2.786   3.359
 5995SOL     OW18550   4.715   2.272   3.104
 5995SOL    HW118551   4.638   2.306   3.158
 5995SOL    HW218552   4.681   2.221   3.025
 5996SOL     OW18553   4.765   2.563   2.291
 5996SOL    HW118554   4.791   2.559   2.387
 5996SOL    HW218555   4.680   2.512   2.277
 5997SOL     OW18556   3.800   2.673   2.651
 5997SOL    HW118557   3.899   2.661   2.660
 5997SOL    HW218558   3.776   2.768   2.672
 5998SOL     OW18559   3.854   3.683   3.433
 5998SOL    HW118560   3.844   3.668   3.532
 5998SOL    HW218561   3.768   3.719   3.397
 5999SOL     OW18562   4.589   2.210   2.057
 5999SOL    HW118563   4.648   2.273   2.008
 5999SOL    HW218564   4.608   2.116   2.028
 6000SOL     OW18565   5.086   3.006   2.407
 6000SOL    HW118566   5.169   2.977   2.359
 6000SOL    HW218567   5.037   3.073   2.351
 6001SOL     OW18568   4.274   2.058   2.747
 6001SOL    HW118569   4.269   2.053   2.847
 6001SOL    HW218570   4.276   2.154   2.718
 6002SOL     OW18571   4.732   3.318   2.339
 6002SOL    HW118572   4.686   3.390   2.287
 6002SOL    HW218573   4.728   3.338   2.437
 6003SOL     OW18574   4.075   3.663   2.715
 6003SOL    HW118575   4.125   3.577   2.721
 6003SOL    HW218576   4.140   3.740   2.712
 6004SOL     OW18577   4.951   3.412   3.368
 6004SOL    HW118578   4.957   3.335   3.432
 6004SOL    HW218579   4.899   3.386   3.288
 6005SOL     OW18580   4.045   2.805   2.104
 6005SOL    HW118581   4.127   2.844   2.062
 6005SOL    HW218582   4.018   2.723   2.055
 6006SOL     OW18583   4.185   3.128   3.589
 6006SOL    HW118584   4.135   3.129   3.503
 6006SOL    HW218585   4.122   3.110   3.665
 6007SOL     OW18586   4.835   3.638   2.099
 6007SOL    HW118587   4.775   3.576   2.149
 6007SOL    HW218588   4.866   3.594   2.014
 6008SOL     OW18589   3.926   2.147   3.360
 6008SOL    HW118590   3.846   2.207   3.347
 6008SOL    HW218591   3.916   2.098   3.446
 6009SOL     OW18592   4.188   3.605   2.185
 6009SOL    HW118593   4.221   3.644   2.271
 6009SOL    HW218594   4.264   3.598   2.120
 6010SOL     OW18595   5.124   1.969   2.288
 6010SOL    HW118596   5.100   1.932   2.198
 6010SOL    HW218597   5.223   1.985   2.292
 6011SOL     OW18598   3.973   3.647   3.103
 6011SOL    HW118599   4.030   3.582   3.153
 6011SOL    HW218600   3.957   3.614   3.010
 6012SOL     OW18601   4.664   3.560   2.766
 6012SOL    HW118602   4.744   3.503   2.787
 6012SOL    HW218603   4.615   3.520   2.689
 6013SOL     OW18604   4.106   2.562   2.342
 6013SOL    HW118605   4.151   2.472   2.339
 6013SOL    HW218606   4.012   2.551   2.375
 6014SOL     OW18607   4.338   1.984   1.979
 6014SOL    HW118608   4.436   1.962   1.986
 6014SOL    HW218609   4.307   1.967   1.886
 6015SOL     OW18610   4.505   2.126   3.611
 6015SOL    HW118611   4.572   2.065   3.654
 6015SOL    HW218612   4.432   2.145   3.676
 6016SOL     OW18613   4.612   3.376   3.057
 6016SOL    HW118614   4.589   3.351   2.963
 6016SOL    HW218615   4.673   3.307   3.096
 6017SOL     OW18616   5.075   2.452   3.295
 6017SOL    HW118617   5.103   2.409   3.380
 6017SOL    HW218618   5.100   2.548   3.296
 6018SOL     OW18619   4.527   3.264   2.786
 6018SOL    HW118620   4.617   3.278   2.744
 6018SOL    HW218621   4.456   3.266   2.715
 6019SOL     OW18622   4.646   2.365   2.761
 6019SOL    HW118623   4.621   2.356   2.665
 6019SOL    HW218624   4.694   2.283   2.792
 6020SOL     OW18625   4.263   1.926   2.374
 6020SOL    HW118626   4.182   1.927   2.432
 6020SOL    HW218627   4.266   2.009   2.319
 6021SOL     OW18628   5.158   3.050   1.903
 6021SOL    HW118629   5.190   2.974   1.960
 6021SOL    HW218630   5.066   3.077   1.933
 6022SOL     OW18631   4.021   1.897   2.033
 6022SOL    HW118632   4.070   1.981   2.012
 6022SOL    HW218633   4.083   1.832   2.078
 6023SOL     OW18634   4.659   2.098   2.342
 6023SOL    HW118635   4.611   2.139   2.264
 6023SOL    HW218636   4.758   2.096   2.323
 6024SOL     OW18637   4.800   2.545   3.326
 6024SOL    HW118638   4.720   2.484   3.329
 6024SOL    HW218639   4.881   2.492   3.302
 6025SOL     OW18640   4.951   3.432   2.655
 6025SOL    HW118641   4.972   3.506   2.590
 6025SOL    HW218642   5.019   3.432   2.728
 6026SOL     OW18643   4.183   3.014   2.603
 6026SOL    HW118644   4.112   2.987   2.668
 6026SOL    HW218645   4.157   2.986   2.510
 6027SOL     OW18646   4.995   3.659   2.453
 6027SOL    HW118647   5.039   3.723   2.389
 6027SOL    HW218648   4.945   3.711   2.523
 6028SOL     OW18649   4.756   2.411   1.878
 6028SOL    HW118650   4.715   2.493   1.839
 6028SOL    HW218651   4.820   2.437   1.951
 6029SOL     OW18652   3.802   2.418   3.248
 6029SOL    HW118653   3.894   2.417   3.207
 6029SOL    HW218654   3.796   2.492   3.315
 6030SOL     OW18655   4.285   2.084   3.009
 6030SOL    HW118656   4.323   2.000   3.046
 6030SOL    HW218657   4.197   2.103   3.053
 6031SOL     OW18658   4.590   2.316   2.504
 6031SOL    HW118659   4.558   2.388   2.442
 6031SOL    HW218660   4.614   2.235   2.451
 6032SOL     OW18661   4.741   1.901   2.615
 6032SOL    HW118662   4.669   1.906   2.546
 6032SOL    HW218663   4.717   1.832   2.684
 6033SOL     OW18664   5.153   3.035   2.729
 6033SOL    HW118665   5.098   2.951   2.722
 6033SOL    HW218666   5.179   3.064   2.637
 6034SOL     OW18667   4.212   3.247   2.036
 6034SOL    HW118668   4.125   3.232   2.083
 6034SOL    HW218669   4.195   3.273   1.941
 6035SOL     OW18670   5.114   2.437   1.940
 6035SOL    HW118671   5.060   2.416   2.021
 6035SOL    HW218672   5.205   2.396   1.949
 6036SOL     OW18673   4.251   2.118   2.190
 6036SOL    HW118674   4.278   2.059   2.115
 6036SOL    HW218675   4.251   2.213   2.159
 6037SOL     OW18676   4.788   3.209   3.202
 6037SOL    HW118677   4.708   3.186   3.257
 6037SOL    HW218678   4.871   3.183   3.251
 6038SOL     OW18679   5.316   3.491   3.487
 6038SOL    HW118680   5.343   3.525   3.397
 6038SOL    HW218681   5.395   3.453   3.533
 6039SOL     OW18682   4.835   3.057   2.962
 6039SOL    HW118683   4.795   3.101   3.043
 6039SOL    HW218684   4.794   3.094   2.879
 6040SOL     OW18685   4.639   1.951   3.264
 6040SOL    HW118686   4.664   1.931   3.169
 6040SOL    HW218687   4.711   2.007   3.306
 6041SOL     OW18688   4.704   2.978   3.581
 6041SOL    HW118689   4.605   2.984   3.591
 6041SOL    HW218690   4.727   2.898   3.525
 6042SOL     OW18691   4.429   2.912   2.230
 6042SOL    HW118692   4.415   2.919   2.329
 6042SOL    HW218693   4.513   2.861   2.212
 6043SOL     OW18694   4.134   2.675   3.113
 6043SOL    HW118695   4.220   2.687   3.163
 6043SOL    HW218696   4.092   2.588   3.140
 6044SOL     OW18697   4.998   2.248   3.124
 6044SOL    HW118698   5.019   2.322   3.188
 6044SOL    HW218699   4.909   2.265   3.081
 6045SOL     OW18700   3.788   3.426   3.193
 6045SOL    HW118701   3.742   3.508   3.159
 6045SOL    HW218702   3.886   3.445   3.202
 6046SOL     OW18703   4.091   2.962   2.363
 6046SOL    HW118704   4.084   3.045   2.307
 6046SOL    HW218705   4.095   2.882   2.303
 6047SOL     OW18706   4.290   2.399   2.727
 6047SOL    HW118707   4.302   2.465   2.653
 6047SOL    HW218708   4.336   2.433   2.810
 6048SOL     OW18709   4.976   3.210   2.250
 6048SOL    HW118710   5.026   3.287   2.290
 6048SOL    HW218711   4.881   3.212   2.282
 6049SOL     OW18712   4.996   3.307   3.004
 6049SOL    HW118713   5.043   3.320   3.091
 6049SOL    HW218714   4.930   3.233   3.013
 6050SOL     OW18715   4.078   3.372   3.191
 6050SOL    HW118716   4.057   3.328   3.104
 6050SOL    HW218717   4.175   3.398   3.194
 6051SOL     OW18718   4.126   2.613   3.460
 6051SOL    HW118719   4.194   2.668   3.413
 6051SOL    HW218720   4.166   2.525   3.487
 6052SOL     OW18721   4.737   1.967   3.632
 6052SOL    HW118722   4.743   2.052   3.580
 6052SOL    HW218723   4.769   1.891   3.575
 6053SOL     OW18724   4.228   1.912   3.602
 6053SOL    HW118725   4.186   1.855   3.532
 6053SOL    HW218726   4.162   1.981   3.634
 6054SOL     OW18727   4.297   2.732   2.891
 6054SOL    HW118728   4.341   2.821   2.882
 6054SOL    HW218729   4.234   2.732   2.968
 6055SOL     OW18730   5.084   2.724   2.907
 6055SOL    HW118731   5.009   2.724   2.841
 6055SOL    HW218732   5.121   2.632   2.916
 6056SOL     OW18733   4.933   2.387   2.137
 6056SOL    HW118734   4.946   2.303   2.191
 6056SOL    HW218735   4.904   2.461   2.197
 6057SOL     OW18736   4.031   2.075   3.093
 6057SOL    HW118737   4.008   2.112   3.183
 6057SOL    HW218738   4.001   1.980   3.087
 6058SOL     OW18739   3.761   3.172   3.144
 6058SOL    HW118740   3.814   3.123   3.212
 6058SOL    HW218741   3.783   3.270   3.149
 6059SOL     OW18742   4.456   2.496   2.926
 6059SOL    HW118743   4.515   2.470   2.850
 6059SOL    HW218744   4.428   2.592   2.915
 6060SOL     OW18745   4.031   1.925   2.480
 6060SOL    HW118746   4.020   2.019   2.513
 6060SOL    HW218747   4.026   1.862   2.557
 6061SOL     OW18748   5.346   2.229   2.236
 6061SOL    HW118749   5.348   2.153   2.300
 6061SOL    HW218750   5.298   2.306   2.276
 6062SOL     OW18751   4.747   2.628   2.828
 6062SOL    HW118752   4.762   2.649   2.924
 6062SOL    HW218753   4.717   2.533   2.819
 6063SOL     OW18754   4.704   3.435   3.562
 6063SOL    HW118755   4.684   3.479   3.474
 6063SOL    HW218756   4.743   3.344   3.546
 6064SOL     OW18757   4.074   2.760   3.666
 6064SOL    HW118758   4.150   2.804   3.714
 6064SOL    HW218759   4.109   2.713   3.584
 6065SOL     OW18760   5.027   2.700   1.904
 6065SOL    HW118761   5.061   2.607   1.919
 6065SOL    HW218762   5.045   2.727   1.809
 6066SOL     OW18763   4.792   3.195   2.711
 6066SOL    HW118764   4.799   3.111   2.656
 6066SOL    HW218765   4.854   3.264   2.675
 6067SOL     OW18766   4.043   2.672   2.811
 6067SOL    HW118767   4.136   2.708   2.816
 6067SOL    HW218768   4.037   2.587   2.863
 6068SOL     OW18769   4.063   2.371   2.868
 6068SOL    HW118770   4.011   2.288   2.851
 6068SOL    HW218771   4.140   2.376   2.804
 6069SOL     OW18772   4.862   2.242   3.540
 6069SOL    HW118773   4.817   2.305   3.604
 6069SOL    HW218774   4.955   2.273   3.523
 6070SOL     OW18775   4.884   2.069   3.339
 6070SOL    HW118776   4.884   2.133   3.416
 6070SOL    HW218777   4.912   2.117   3.256
 6071SOL     OW18778   3.732   3.188   2.062
 6071SOL    HW118779   3.639   3.209   2.031
 6071SOL    HW218780   3.742   3.089   2.075
 6072SOL     OW18781   3.812   3.663   2.789
 6072SOL    HW118782   3.770   3.577   2.762
 6072SOL    HW218783   3.906   3.666   2.755
 6073SOL     OW18784   4.228   3.430   2.772
 6073SOL    HW118785   4.294   3.504   2.781
 6073SOL    HW218786   4.272   3.351   2.730
 6074SOL     OW18787   4.726   2.658   3.100
 6074SOL    HW118788   4.767   2.626   3.186
 6074SOL    HW218789   4.630   2.631   3.097
 6075SOL     OW18790   3.764   2.406   2.976
 6075SOL    HW118791   3.849   2.373   2.935
 6075SOL    HW218792   3.777   2.421   3.074
 6076SOL     OW18793   3.913   2.382   3.584
 6076SOL    HW118794   3.972   2.342   3.514
 6076SOL    HW218795   3.855   2.453   3.543
 6077SOL     OW18796   5.093   2.812   3.522
 6077SOL    HW118797   5.132   2.901   3.542
 6077SOL    HW218798   5.103   2.792   3.425
 6078SOL     OW18799   4.539   2.434   2.187
 6078SOL    HW118800   4.546   2.345   2.141
 6078SOL    HW218801   4.445   2.468   2.179
 6079SOL     OW18802   3.976   3.426   3.606
 6079SOL    HW118803   3.946   3.483   3.682
 6079SOL    HW218804   3.969   3.329   3.632
 6080SOL     OW18805   4.395   2.326   3.131
 6080SOL    HW118806   4.361   2.237   3.101
 6080SOL    HW218807   4.421   2.380   3.051
 6081SOL     OW18808   4.654   3.540   3.327
 6081SOL    HW118809   4.630   3.522   3.232
 6081SOL    HW218810   4.684   3.634   3.337
 6082SOL     OW18811   4.197   2.362   2.053
 6082SOL    HW118812   4.258   2.442   2.057
 6082SOL    HW218813   4.102   2.393   2.060
 6083SOL     OW18814   3.883   2.999   3.328
 6083SOL    HW118815   3.905   2.938   3.404
 6083SOL    HW218816   3.893   2.950   3.242
 6084SOL     OW18817   5.071   2.921   3.096
 6084SOL    HW118818   5.095   2.858   3.022
 6084SOL    HW218819   4.981   2.961   3.078
 6085SOL     OW18820   5.026   2.717   2.171
 6085SOL    HW118821   4.940   2.686   2.213
 6085SOL    HW218822   5.022   2.703   2.072
 6086SOL     OW18823   4.976   3.593   2.990
 6086SOL    HW118824   5.060   3.598   2.936
 6086SOL    HW218825   4.953   3.497   3.008
 6087SOL     OW18826   3.807   3.120   2.884
 6087SOL    HW118827   3.802   3.119   2.984
 6087SOL    HW218828   3.724   3.079   2.846
 6088SOL     OW18829   4.412   3.524   3.578
 6088SOL    HW118830   4.356   3.605   3.587
 6088SOL    HW218831   4.464   3.528   3.492
 6089SOL     OW18832   5.450   1.997   2.385
 6089SOL    HW118833   5.523   1.980   2.318
 6089SOL    HW218834   5.419   1.910   2.423
 6090SOL     OW18835   5.112   3.435   2.339
 6090SOL    HW118836   5.179   3.447   2.265
 6090SOL    HW218837   5.072   3.524   2.362
 6091SOL     OW18838   3.854   3.656   3.713
 6091SOL    HW118839   3.813   3.582   3.766
 6091SOL    HW218840   3.918   3.707   3.771
 6092SOL     OW18841   5.004   2.789   2.534
 6092SOL    HW118842   5.064   2.708   2.536
 6092SOL    HW218843   5.044   2.858   2.474
 6093SOL     OW18844   4.554   3.135   3.284
 6093SOL    HW118845   4.549   3.168   3.379
 6093SOL    HW218846   4.468   3.154   3.238
 6094SOL     OW18847   4.396   3.478   2.016
 6094SOL    HW118848   4.405   3.488   1.917
 6094SOL    HW218849   4.356   3.389   2.037
 6095SOL     OW18850   3.987   2.188   2.582
 6095SOL    HW118851   3.908   2.239   2.548
 6095SOL    HW218852   3.978   2.173   2.680
 6096SOL     OW18853   4.918   3.474   1.893
 6096SOL    HW118854   4.924   3.381   1.930
 6096SOL    HW218855   4.859   3.474   1.813
 6097SOL     OW18856   4.546   2.864   3.234
 6097SOL    HW118857   4.586   2.863   3.142
 6097SOL    HW218858   4.556   2.956   3.274
 6098SOL     OW18859   4.640   2.772   2.153
 6098SOL    HW118860   4.703   2.810   2.085
 6098SOL    HW218861   4.680   2.689   2.192
 6099SOL     OW18862   4.096   3.150   3.352
 6099SOL    HW118863   4.083   3.243   3.318
 6099SOL    HW218864   4.012   3.098   3.339
 6100SOL     OW18865   4.763   2.960   2.558
 6100SOL    HW118866   4.693   2.913   2.612
 6100SOL    HW218867   4.822   2.892   2.515
 6101SOL     OW18868   4.738   2.098   2.833
 6101SOL    HW118869   4.730   2.062   2.740
 6101SOL    HW218870   4.736   2.022   2.898
 6102SOL     OW18871   4.314   3.349   2.353
 6102SOL    HW118872   4.356   3.291   2.283
 6102SOL    HW218873   4.270   3.428   2.309
 6103SOL     OW18874   3.979   3.210   2.152
 6103SOL    HW118875   3.883   3.211   2.125
 6103SOL    HW218876   3.991   3.263   2.236
 6104SOL     OW18877   3.829   2.875   3.588
 6104SOL    HW118878   3.752   2.842   3.642
 6104SOL    HW218879   3.914   2.845   3.630
 6105SOL     OW18880   4.396   2.065   3.351
 6105SOL    HW118881   4.486   2.049   3.311
 6105SOL    HW218882   4.404   2.070   3.450
 6106SOL     OW18883   3.799   2.207   1.895
 6106SOL    HW118884   3.707   2.179   1.866
 6106SOL    HW218885   3.830   2.284   1.839
 6107SOL     OW18886   5.164   2.718   3.260
 6107SOL    HW118887   5.107   2.770   3.197
 6107SOL    HW218888   5.260   2.730   3.236
 6108SOL     OW18889   3.796   2.028   2.180
 6108SOL    HW118890   3.779   2.111   2.126
 6108SOL    HW218891   3.886   1.991   2.158
 6109SOL     OW18892   4.907   3.197   1.981
 6109SOL    HW118893   4.808   3.186   1.983
 6109SOL    HW218894   4.941   3.212   2.074
 6110SOL     OW18895   4.337   2.704   3.293
 6110SOL    HW118896   4.393   2.785   3.276
 6110SOL    HW218897   4.396   2.624   3.296
 6111SOL     OW18898   4.440   2.427   3.570
 6111SOL    HW118899   4.459   2.492   3.644
 6111SOL    HW218900   4.500   2.347   3.579
 6112SOL     OW18901   5.174   3.082   3.495
 6112SOL    HW118902   5.165   3.072   3.594
 6112SOL    HW218903   5.270   3.075   3.469
 6113SOL     OW18904   4.114   3.603   3.422
 6113SOL    HW118905   4.023   3.644   3.420
 6113SOL    HW218906   4.107   3.509   3.454
 6114SOL     OW18907   4.949   2.187   2.311
 6114SOL    HW118908   5.014   2.113   2.300
 6114SOL    HW218909   4.969   2.237   2.395
 6115SOL     OW18910   4.318   2.607   2.514
 6115SOL    HW118911   4.368   2.692   2.495
 6115SOL    HW218912   4.230   2.609   2.466
 6116SOL     OW18913   4.583   3.236   1.878
 6116SOL    HW118914   4.537   3.251   1.966
 6116SOL    HW218915   4.627   3.321   1.848
 6117SOL     OW18916   4.385   3.652   2.815
 6117SOL    HW118917   4.339   3.740   2.802
 6117SOL    HW218918   4.484   3.664   2.808
 6118SOL     OW18919   4.583   2.818   2.723
 6118SOL    HW118920   4.637   2.749   2.771
 6118SOL    HW218921   4.551   2.887   2.789
 6119SOL     OW18922   4.807   2.846   1.949
 6119SOL    HW118923   4.784   2.899   1.867
 6119SOL    HW218924   4.888   2.790   1.930
 6120SOL     OW18925   3.945   3.176   3.706
 6120SOL    HW118926   3.880   3.103   3.685
 6120SOL    HW218927   3.949   3.190   3.804
 6121SOL     OW18928   3.803   3.102   2.515
 6121SOL    HW118929   3.802   3.055   2.603
 6121SOL    HW218930   3.885   3.074   2.464
 6122SOL     OW18931   4.396   3.253   3.486
 6122SOL    HW118932   4.318   3.203   3.524
 6122SOL    HW218933   4.393   3.348   3.517
 6123SOL     OW18934   4.152   2.286   2.382
 6123SOL    HW118935   4.182   2.214   2.320
 6123SOL    HW218936   4.113   2.246   2.465
 6124SOL     OW18937   5.429   3.349   2.966
 6124SOL    HW118938   5.336   3.324   2.939
 6124SOL    HW218939   5.455   3.299   3.048
 6125SOL     OW18940   4.041   2.409   3.142
 6125SOL    HW118941   4.079   2.350   3.214
 6125SOL    HW218942   4.081   2.383   3.054
 6126SOL     OW18943   4.536   3.448   2.549
 6126SOL    HW118944   4.568   3.458   2.455
 6126SOL    HW218945   4.457   3.386   2.551
 6127SOL     OW18946   5.148   2.076   2.974
 6127SOL    HW118947   5.200   2.011   3.029
 6127SOL    HW218948   5.099   2.139   3.035
 6128SOL     OW18949   4.725   1.896   3.016
 6128SOL    HW118950   4.662   1.824   2.985
 6128SOL    HW218951   4.818   1.860   3.016
 6129SOL     OW18952   4.494   3.192   2.163
 6129SOL    HW118953   4.448   3.105   2.180
 6129SOL    HW218954   4.585   3.189   2.204
 6130SOL     OW18955   4.342   3.429   3.146
 6130SOL    HW118956   4.337   3.511   3.203
 6130SOL    HW218957   4.431   3.426   3.101
 6131SOL     OW18958   5.076   1.914   2.030
 6131SOL    HW118959   5.111   1.873   1.946
 6131SOL    HW218960   4.986   1.876   2.050
 6132SOL     OW18961   5.024   2.315   2.553
 6132SOL    HW118962   4.965   2.395   2.557
 6132SOL    HW218963   5.039   2.280   2.646
 6133SOL     OW18964   5.317   2.083   2.744
 6133SOL    HW118965   5.233   2.082   2.798
 6133SOL    HW218966   5.319   2.166   2.688
 6134SOL     OW18967   3.763   2.939   2.162
 6134SOL    HW118968   3.862   2.928   2.153
 6134SOL    HW218969   3.723   2.853   2.194
 6135SOL     OW18970   4.599   3.508   2.199
 6135SOL    HW118971   4.522   3.473   2.145
 6135SOL    HW218972   4.567   3.579   2.261
 6136SOL     OW18973   3.954   2.490   3.837
 6136SOL    HW118974   3.861   2.488   3.874
 6136SOL    HW218975   3.955   2.451   3.745
 6137SOL     OW18976   3.949   2.137   4.720
 6137SOL    HW118977   3.984   2.120   4.812
 6137SOL    HW218978   3.861   2.092   4.708
 6138SOL     OW18979   3.743   2.230   4.371
 6138SOL    HW118980   3.661   2.273   4.410
 6138SOL    HW218981   3.715   2.157   4.308
 6139SOL     OW18982   4.293   3.137   4.889
 6139SOL    HW118983   4.200   3.130   4.852
 6139SOL    HW218984   4.304   3.226   4.933
 6140SOL     OW18985   5.279   3.373   4.427
 6140SOL    HW118986   5.222   3.357   4.508
 6140SOL    HW218987   5.220   3.383   4.347
 6141SOL     OW18988   4.859   2.565   4.441
 6141SOL    HW118989   4.916   2.643   4.416
 6141SOL    HW218990   4.799   2.591   4.517
 6142SOL     OW18991   4.492   3.006   4.747
 6142SOL    HW118992   4.414   3.023   4.807
 6142SOL    HW218993   4.526   3.093   4.711
 6143SOL     OW18994   4.574   2.660   5.547
 6143SOL    HW118995   4.570   2.736   5.612
 6143SOL    HW218996   4.596   2.696   5.456
 6144SOL     OW18997   4.409   2.874   4.389
 6144SOL    HW118998   4.478   2.858   4.459
 6144SOL    HW218999   4.336   2.931   4.427
 6145SOL     OW19000   4.410   3.023   5.527
 6145SOL    HW119001   4.470   3.102   5.541
 6145SOL    HW219002   4.324   3.054   5.486
 6146SOL     OW19003   4.059   3.297   4.785
 6146SOL    HW119004   3.981   3.266   4.732
 6146SOL    HW219005   4.117   3.355   4.728
 6147SOL     OW19006   5.184   3.367   5.063
 6147SOL    HW119007   5.208   3.461   5.089
 6147SOL    HW219008   5.168   3.313   5.145
 6148SOL     OW19009   4.162   2.254   5.223
 6148SOL    HW119010   4.244   2.198   5.232
 6148SOL    HW219011   4.081   2.196   5.227
 6149SOL     OW19012   3.955   3.575   4.207
 6149SOL    HW119013   3.989   3.652   4.261
 6149SOL    HW219014   3.999   3.575   4.117
 6150SOL     OW19015   4.851   3.203   5.414
 6150SOL    HW119016   4.898   3.203   5.502
 6150SOL    HW219017   4.803   3.116   5.403
 6151SOL     OW19018   3.954   3.296   4.262
 6151SOL    HW119019   3.928   3.392   4.262
 6151SOL    HW219020   3.883   3.242   4.307
 6152SOL     OW19021   3.964   2.953   4.610
 6152SOL    HW119022   3.978   2.869   4.662
 6152SOL    HW219023   3.909   3.017   4.665
 6153SOL     OW19024   4.344   3.648   5.163
 6153SOL    HW119025   4.252   3.631   5.198
 6153SOL    HW219026   4.372   3.740   5.189
 6154SOL     OW19027   4.330   2.826   3.847
 6154SOL    HW119028   4.337   2.910   3.793
 6154SOL    HW219029   4.376   2.839   3.935
 6155SOL     OW19030   3.846   2.505   4.287
 6155SOL    HW119031   3.801   2.417   4.304
 6155SOL    HW219032   3.845   2.559   4.371
 6156SOL     OW19033   3.751   3.458   3.841
 6156SOL    HW119034   3.732   3.362   3.862
 6156SOL    HW219035   3.718   3.516   3.916
 6157SOL     OW19036   5.413   2.784   4.336
 6157SOL    HW119037   5.508   2.755   4.344
 6157SOL    HW219038   5.405   2.849   4.261
 6158SOL     OW19039   3.837   2.599   5.321
 6158SOL    HW119040   3.925   2.586   5.366
 6158SOL    HW219041   3.824   2.696   5.299
 6159SOL     OW19042   4.337   3.227   4.450
 6159SOL    HW119043   4.288   3.140   4.459
 6159SOL    HW219044   4.314   3.270   4.363
 6160SOL     OW19045   5.017   3.090   5.147
 6160SOL    HW119046   5.054   3.017   5.089
 6160SOL    HW219047   5.069   3.095   5.232
 6161SOL     OW19048   4.533   1.866   4.226
 6161SOL    HW119049   4.573   1.957   4.217
 6161SOL    HW219050   4.433   1.874   4.232
 6162SOL     OW19051   3.921   2.838   4.988
 6162SOL    HW119052   4.010   2.793   4.974
 6162SOL    HW219053   3.848   2.773   4.969
 6163SOL     OW19054   4.911   3.654   5.340
 6163SOL    HW119055   4.935   3.714   5.264
 6163SOL    HW219056   4.918   3.559   5.310
 6164SOL     OW19057   4.041   2.113   5.525
 6164SOL    HW119058   4.112   2.184   5.531
 6164SOL    HW219059   3.953   2.152   5.553
 6165SOL     OW19060   5.190   3.279   4.677
 6165SOL    HW119061   5.131   3.285   4.757
 6165SOL    HW219062   5.175   3.191   4.631
 6166SOL     OW19063   4.322   2.591   3.994
 6166SOL    HW119064   4.346   2.660   3.926
 6166SOL    HW219065   4.244   2.624   4.048
 6167SOL     OW19066   5.005   2.207   4.668
 6167SOL    HW119067   4.919   2.157   4.655
 6167SOL    HW219068   5.067   2.153   4.724
 6168SOL     OW19069   4.531   2.467   5.189
 6168SOL    HW119070   4.484   2.464   5.278
 6168SOL    HW219071   4.480   2.412   5.123
 6169SOL     OW19072   5.118   2.331   5.398
 6169SOL    HW119073   5.098   2.374   5.486
 6169SOL    HW219074   5.196   2.269   5.407
 6170SOL     OW19075   4.697   2.752   5.296
 6170SOL    HW119076   4.743   2.668   5.267
 6170SOL    HW219077   4.641   2.786   5.221
 6171SOL     OW19078   4.715   2.272   4.966
 6171SOL    HW119079   4.638   2.306   5.020
 6171SOL    HW219080   4.681   2.221   4.887
 6172SOL     OW19081   4.765   2.563   4.153
 6172SOL    HW119082   4.791   2.559   4.249
 6172SOL    HW219083   4.680   2.512   4.139
 6173SOL     OW19084   3.800   2.673   4.513
 6173SOL    HW119085   3.899   2.661   4.522
 6173SOL    HW219086   3.776   2.768   4.534
 6174SOL     OW19087   3.854   3.683   5.295
 6174SOL    HW119088   3.844   3.668   5.394
 6174SOL    HW219089   3.768   3.719   5.259
 6175SOL     OW19090   4.589   2.210   3.919
 6175SOL    HW119091   4.648   2.273   3.870
 6175SOL    HW219092   4.608   2.116   3.890
 6176SOL     OW19093   5.086   3.006   4.269
 6176SOL    HW119094   5.169   2.977   4.221
 6176SOL    HW219095   5.037   3.073   4.213
 6177SOL     OW19096   4.274   2.058   4.609
 6177SOL    HW119097   4.269   2.053   4.709
 6177SOL    HW219098   4.276   2.154   4.580
 6178SOL     OW19099   4.732   3.318   4.201
 6178SOL    HW119100   4.686   3.390   4.149
 6178SOL    HW219101   4.728   3.338   4.299
 6179SOL     OW19102   4.075   3.663   4.577
 6179SOL    HW119103   4.125   3.577   4.583
 6179SOL    HW219104   4.140   3.740   4.574
 6180SOL     OW19105   4.951   3.412   5.230
 6180SOL    HW119106   4.957   3.335   5.294
 6180SOL    HW219107   4.899   3.386   5.150
 6181SOL     OW19108   4.045   2.805   3.966
 6181SOL    HW119109   4.127   2.844   3.924
 6181SOL    HW219110   4.018   2.723   3.917
 6182SOL     OW19111   4.185   3.128   5.451
 6182SOL    HW119112   4.135   3.129   5.365
 6182SOL    HW219113   4.122   3.110   5.527
 6183SOL     OW19114   4.835   3.638   3.961
 6183SOL    HW119115   4.775   3.576   4.011
 6183SOL    HW219116   4.866   3.594   3.876
 6184SOL     OW19117   3.926   2.147   5.222
 6184SOL    HW119118   3.846   2.207   5.209
 6184SOL    HW219119   3.916   2.098   5.308
 6185SOL     OW19120   4.188   3.605   4.047
 6185SOL    HW119121   4.221   3.644   4.133
 6185SOL    HW219122   4.264   3.598   3.982
 6186SOL     OW19123   5.124   1.969   4.150
 6186SOL    HW119124   5.100   1.932   4.060
 6186SOL    HW219125   5.223   1.985   4.154
 6187SOL     OW19126   3.973   3.647   4.965
 6187SOL    HW119127   4.030   3.582   5.015
 6187SOL    HW219128   3.957   3.614   4.872
 6188SOL     OW19129   4.664   3.560   4.628
 6188SOL    HW119130   4.744   3.503   4.649
 6188SOL    HW219131   4.615   3.520   4.551
 6189SOL     OW19132   4.106   2.562   4.204
 6189SOL    HW119133   4.151   2.472   4.201
 6189SOL    HW219134   4.012   2.551   4.237
 6190SOL     OW19135   4.338   1.984   3.841
 6190SOL    HW119136   4.436   1.962   3.848
 6190SOL    HW219137   4.307   1.967   3.748
 6191SOL     OW19138   4.505   2.126   5.473
 6191SOL    HW119139   4.572   2.065   5.516
 6191SOL    HW219140   4.432   2.145   5.538
 6192SOL     OW19141   4.612   3.376   4.919
 6192SOL    HW119142   4.589   3.351   4.825
 6192SOL    HW219143   4.673   3.307   4.958
 6193SOL     OW19144   5.075   2.452   5.157
 6193SOL    HW119145   5.103   2.409   5.242
 6193SOL    HW219146   5.100   2.548   5.158
 6194SOL     OW19147   4.527   3.264   4.648
 6194SOL    HW119148   4.617   3.278   4.606
 6194SOL    HW219149   4.456   3.266   4.577
 6195SOL     OW19150   4.646   2.365   4.623
 6195SOL    HW119151   4.621   2.356   4.527
 6195SOL    HW219152   4.694   2.283   4.654
 6196SOL     OW19153   4.263   1.926   4.236
 6196SOL    HW119154   4.182   1.927   4.294
 6196SOL    HW219155   4.266   2.009   4.181
 6197SOL     OW19156   5.158   3.050   3.765
 6197SOL    HW119157   5.190   2.974   3.822
 6197SOL    HW219158   5.066   3.077   3.795
 6198SOL     OW19159   4.021   1.897   3.895
 6198SOL    HW119160   4.070   1.981   3.874
 6198SOL    HW219161   4.083   1.832   3.940
 6199SOL     OW19162   4.659   2.098   4.204
 6199SOL    HW119163   4.611   2.139   4.126
 6199SOL    HW219164   4.758   2.096   4.185
 6200SOL     OW19165   4.800   2.545   5.188
 6200SOL    HW119166   4.720   2.484   5.191
 6200SOL    HW219167   4.881   2.492   5.164
 6201SOL     OW19168   4.951   3.432   4.517
 6201SOL    HW119169   4.972   3.506   4.452
 6201SOL    HW219170   5.019   3.432   4.590
 6202SOL     OW19171   4.183   3.014   4.465
 6202SOL    HW119172   4.112   2.987   4.530
 6202SOL    HW219173   4.157   2.986   4.372
 6203SOL     OW19174   4.995   3.659   4.315
 6203SOL    HW119175   5.039   3.723   4.251
 6203SOL    HW219176   4.945   3.711   4.385
 6204SOL     OW19177   4.756   2.411   3.740
 6204SOL    HW119178   4.715   2.493   3.701
 6204SOL    HW219179   4.820   2.437   3.813
 6205SOL     OW19180   3.802   2.418   5.110
 6205SOL    HW119181   3.894   2.417   5.069
 6205SOL    HW219182   3.796   2.492   5.177
 6206SOL     OW19183   4.285   2.084   4.871
 6206SOL    HW119184   4.323   2.000   4.908
 6206SOL    HW219185   4.197   2.103   4.915
 6207SOL     OW19186   4.590   2.316   4.366
 6207SOL    HW119187   4.558   2.388   4.304
 6207SOL    HW219188   4.614   2.235   4.313
 6208SOL     OW19189   4.741   1.901   4.477
 6208SOL    HW119190   4.669   1.906   4.408
 6208SOL    HW219191   4.717   1.832   4.546
 6209SOL     OW19192   5.153   3.035   4.591
 6209SOL    HW119193   5.098   2.951   4.584
 6209SOL    HW219194   5.179   3.064   4.499
 6210SOL     OW19195   4.212   3.247   3.898
 6210SOL    HW119196   4.125   3.232   3.945
 6210SOL    HW219197   4.195   3.273   3.803
 6211SOL     OW19198   5.114   2.437   3.802
 6211SOL    HW119199   5.060   2.416   3.883
 6211SOL    HW219200   5.205   2.396   3.811
 6212SOL     OW19201   4.251   2.118   4.052
 6212SOL    HW119202   4.278   2.059   3.977
 6212SOL    HW219203   4.251   2.213   4.021
 6213SOL     OW19204   4.788   3.209   5.064
 6213SOL    HW119205   4.708   3.186   5.119
 6213SOL    HW219206   4.871   3.183   5.113
 6214SOL     OW19207   5.316   3.491   5.349
 6214SOL    HW119208   5.343   3.525   5.259
 6214SOL    HW219209   5.395   3.453   5.395
 6215SOL     OW19210   4.835   3.057   4.824
 6215SOL    HW119211   4.795   3.101   4.905
 6215SOL    HW219212   4.794   3.094   4.741
 6216SOL     OW19213   4.639   1.951   5.126
 6216SOL    HW119214   4.664   1.931   5.031
 6216SOL    HW219215   4.711   2.007   5.168
 6217SOL     OW19216   4.704   2.978   5.443
 6217SOL    HW119217   4.605   2.984   5.453
 6217SOL    HW219218   4.727   2.898   5.387
 6218SOL     OW19219   4.429   2.912   4.092
 6218SOL    HW119220   4.415   2.919   4.191
 6218SOL    HW219221   4.513   2.861   4.074
 6219SOL     OW19222   4.134   2.675   4.975
 6219SOL    HW119223   4.220   2.687   5.025
 6219SOL    HW219224   4.092   2.588   5.002
 6220SOL     OW19225   4.998   2.248   4.986
 6220SOL    HW119226   5.019   2.322   5.050
 6220SOL    HW219227   4.909   2.265   4.943
 6221SOL     OW19228   3.788   3.426   5.055
 6221SOL    HW119229   3.742   3.508   5.021
 6221SOL    HW219230   3.886   3.445   5.064
 6222SOL     OW19231   4.091   2.962   4.225
 6222SOL    HW119232   4.084   3.045   4.169
 6222SOL    HW219233   4.095   2.882   4.165
 6223SOL     OW19234   4.290   2.399   4.589
 6223SOL    HW119235   4.302   2.465   4.515
 6223SOL    HW219236   4.336   2.433   4.672
 6224SOL     OW19237   4.976   3.210   4.112
 6224SOL    HW119238   5.026   3.287   4.152
 6224SOL    HW219239   4.881   3.212   4.144
 6225SOL     OW19240   4.996   3.307   4.866
 6225SOL    HW119241   5.043   3.320   4.953
 6225SOL    HW219242   4.930   3.233   4.875
 6226SOL     OW19243   4.078   3.372   5.053
 6226SOL    HW119244   4.057   3.328   4.966
 6226SOL    HW219245   4.175   3.398   5.056
 6227SOL     OW19246   4.126   2.613   5.322
 6227SOL    HW119247   4.194   2.668   5.275
 6227SOL    HW219248   4.166   2.525   5.349
 6228SOL     OW19249   4.737   1.967   5.494
 6228SOL    HW119250   4.743   2.052   5.442
 6228SOL    HW219251   4.769   1.891   5.437
 6229SOL     OW19252   4.228   1.912   5.464
 6229SOL    HW119253   4.186   1.855   5.394
 6229SOL    HW219254   4.162   1.981   5.496
 6230SOL     OW19255   4.297   2.732   4.753
 6230SOL    HW119256   4.341   2.821   4.744
 6230SOL    HW219257   4.234   2.732   4.830
 6231SOL     OW19258   5.084   2.724   4.769
 6231SOL    HW119259   5.009   2.724   4.703
 6231SOL    HW219260   5.121   2.632   4.778
 6232SOL     OW19261   4.933   2.387   3.999
 6232SOL    HW119262   4.946   2.303   4.053
 6232SOL    HW219263   4.904   2.461   4.059
 6233SOL     OW19264   4.031   2.075   4.955
 6233SOL    HW119265   4.008   2.112   5.045
 6233SOL    HW219266   4.001   1.980   4.949
 6234SOL     OW19267   3.761   3.172   5.006
 6234SOL    HW119268   3.814   3.123   5.074
 6234SOL    HW219269   3.783   3.270   5.011
 6235SOL     OW19270   4.456   2.496   4.788
 6235SOL    HW119271   4.515   2.470   4.712
 6235SOL    HW219272   4.428   2.592   4.777
 6236SOL     OW19273   4.031   1.925   4.342
 6236SOL    HW119274   4.020   2.019   4.375
 6236SOL    HW219275   4.026   1.862   4.419
 6237SOL     OW19276   5.346   2.229   4.098
 6237SOL    HW119277   5.348   2.153   4.162
 6237SOL    HW219278   5.298   2.306   4.138
 6238SOL     OW19279   4.747   2.628   4.690
 6238SOL    HW119280   4.762   2.649   4.786
 6238SOL    HW219281   4.717   2.533   4.681
 6239SOL     OW19282   4.704   3.435   5.424
 6239SOL    HW119283   4.684   3.479   5.336
 6239SOL    HW219284   4.743   3.344   5.408
 6240SOL     OW19285   4.074   2.760   5.528
 6240SOL    HW119286   4.150   2.804   5.576
 6240SOL    HW219287   4.109   2.713   5.446
 6241SOL     OW19288   5.027   2.700   3.766
 6241SOL    HW119289   5.061   2.607   3.781
 6241SOL    HW219290   5.045   2.727   3.671
 6242SOL     OW19291   4.792   3.195   4.573
 6242SOL    HW119292   4.799   3.111   4.518
 6242SOL    HW219293   4.854   3.264   4.537
 6243SOL     OW19294   4.043   2.672   4.673
 6243SOL    HW119295   4.136   2.708   4.678
 6243SOL    HW219296   4.037   2.587   4.725
 6244SOL     OW19297   4.063   2.371   4.730
 6244SOL    HW119298   4.011   2.288   4.713
 6244SOL    HW219299   4.140   2.376   4.666
 6245SOL     OW19300   4.862   2.242   5.402
 6245SOL    HW119301   4.817   2.305   5.466
 6245SOL    HW219302   4.955   2.273   5.385
 6246SOL     OW19303   4.884   2.069   5.201
 6246SOL    HW119304   4.884   2.133   5.278
 6246SOL    HW219305   4.912   2.117   5.118
 6247SOL     OW19306   3.732   3.188   3.924
 6247SOL    HW119307   3.639   3.209   3.893
 6247SOL    HW219308   3.742   3.089   3.937
 6248SOL     OW19309   3.812   3.663   4.651
 6248SOL    HW119310   3.770   3.577   4.624
 6248SOL    HW219311   3.906   3.666   4.617
 6249SOL     OW19312   4.228   3.430   4.634
 6249SOL    HW119313   4.294   3.504   4.643
 6249SOL    HW219314   4.272   3.351   4.592
 6250SOL     OW19315   4.726   2.658   4.962
 6250SOL    HW119316   4.767   2.626   5.048
 6250SOL    HW219317   4.630   2.631   4.959
 6251SOL     OW19318   3.764   2.406   4.838
 6251SOL    HW119319   3.849   2.373   4.797
 6251SOL    HW219320   3.777   2.421   4.936
 6252SOL     OW19321   3.913   2.382   5.446
 6252SOL    HW119322   3.972   2.342   5.376
 6252SOL    HW219323   3.855   2.453   5.405
 6253SOL     OW19324   5.093   2.812   5.384
 6253SOL    HW119325   5.132   2.901   5.404
 6253SOL    HW219326   5.103   2.792   5.287
 6254SOL     OW19327   4.539   2.434   4.049
 6254SOL    HW119328   4.546   2.345   4.003
 6254SOL    HW219329   4.445   2.468   4.041
 6255SOL     OW19330   3.976   3.426   5.468
 6255SOL    HW119331   3.946   3.483   5.544
 6255SOL    HW219332   3.969   3.329   5.494
 6256SOL     OW19333   4.395   2.326   4.993
 6256SOL    HW119334   4.361   2.237   4.963
 6256SOL    HW219335   4.421   2.380   4.913
 6257SOL     OW19336   4.654   3.540   5.189
 6257SOL    HW119337   4.630   3.522   5.094
 6257SOL    HW219338   4.684   3.634   5.199
 6258SOL     OW19339   4.197   2.362   3.915
 6258SOL    HW119340   4.258   2.442   3.919
 6258SOL    HW219341   4.102   2.393   3.922
 6259SOL     OW19342   3.883   2.999   5.190
 6259SOL    HW119343   3.905   2.938   5.266
 6259SOL    HW219344   3.893   2.950   5.104
 6260SOL     OW19345   5.071   2.921   4.958
 6260SOL    HW119346   5.095   2.858   4.884
 6260SOL    HW219347   4.981   2.961   4.940
 6261SOL     OW19348   5.026   2.717   4.033
 6261SOL    HW119349   4.940   2.686   4.075
 6261SOL    HW219350   5.022   2.703   3.934
 6262SOL     OW19351   4.976   3.593   4.852
 6262SOL    HW119352   5.060   3.598   4.798
 6262SOL    HW219353   4.953   3.497   4.870
 6263SOL     OW19354   3.807   3.120   4.746
 6263SOL    HW119355   3.802   3.119   4.846
 6263SOL    HW219356   3.724   3.079   4.708
 6264SOL     OW19357   4.412   3.524   5.440
 6264SOL    HW119358   4.356   3.605   5.449
 6264SOL    HW219359   4.464   3.528   5.354
 6265SOL     OW19360   5.450   1.997   4.247
 6265SOL    HW119361   5.523   1.980   4.180
 6265SOL    HW219362   5.419   1.910   4.285
 6266SOL     OW19363   5.112   3.435   4.201
 6266SOL    HW119364   5.179   3.447   4.127
 6266SOL    HW219365   5.072   3.524   4.224
 6267SOL     OW19366   3.854   3.656   5.575
 6267SOL    HW119367   3.813   3.582   5.628
 6267SOL    HW219368   3.918   3.707   5.633
 6268SOL     OW19369   5.004   2.789   4.396
 6268SOL    HW119370   5.064   2.708   4.398
 6268SOL    HW219371   5.044   2.858   4.336
 6269SOL     OW19372   4.554   3.135   5.146
 6269SOL    HW119373   4.549   3.168   5.241
 6269SOL    HW219374   4.468   3.154   5.100
 6270SOL     OW19375   4.396   3.478   3.878
 6270SOL    HW119376   4.405   3.488   3.779
 6270SOL    HW219377   4.356   3.389   3.899
 6271SOL     OW19378   3.987   2.188   4.444
 6271SOL    HW119379   3.908   2.239   4.410
 6271SOL    HW219380   3.978   2.173   4.542
 6272SOL     OW19381   4.918   3.474   3.755
 6272SOL    HW119382   4.924   3.381   3.792
 6272SOL    HW219383   4.859   3.474   3.675
 6273SOL     OW19384   4.546   2.864   5.096
 6273SOL    HW119385   4.586   2.863   5.004
 6273SOL    HW219386   4.556   2.956   5.136
 6274SOL     OW19387   4.640   2.772   4.015
 6274SOL    HW119388   4.703   2.810   3.947
 6274SOL    HW219389   4.680   2.689   4.054
 6275SOL     OW19390   4.096   3.150   5.214
 6275SOL    HW119391   4.083   3.243   5.180
 6275SOL    HW219392   4.012   3.098   5.201
 6276SOL     OW19393   4.763   2.960   4.420
 6276SOL    HW119394   4.693   2.913   4.474
 6276SOL    HW219395   4.822   2.892   4.377
 6277SOL     OW19396   4.738   2.098   4.695
 6277SOL    HW119397   4.730   2.062   4.602
 6277SOL    HW219398   4.736   2.022   4.760
 6278SOL     OW19399   4.314   3.349   4.215
 6278SOL    HW119400   4.356   3.291   4.145
 6278SOL    HW219401   4.270   3.428   4.171
 6279SOL     OW19402   3.979   3.210   4.014
 6279SOL    HW119403   3.883   3.211   3.987
 6279SOL    HW219404   3.991   3.263   4.098
 6280SOL     OW19405   3.829   2.875   5.450
 6280SOL    HW119406   3.752   2.842   5.504
 6280SOL    HW219407   3.914   2.845   5.492
 6281SOL     OW19408   4.396   2.065   5.213
 6281SOL    HW119409   4.486   2.049   5.173
 6281SOL    HW219410   4.404   2.070   5.312
 6282SOL     OW19411   3.799   2.207   3.757
 6282SOL    HW119412   3.707   2.179   3.728
 6282SOL    HW219413   3.830   2.284   3.701
 6283SOL     OW19414   5.164   2.718   5.122
 6283SOL    HW119415   5.107   2.770   5.059
 6283SOL    HW219416   5.260   2.730   5.098
 6284SOL     OW19417   3.796   2.028   4.042
 6284SOL    HW119418   3.779   2.111   3.988
 6284SOL    HW219419   3.886   1.991   4.020
 6285SOL     OW19420   4.907   3.197   3.843
 6285SOL    HW119421   4.808   3.186   3.845
 6285SOL    HW219422   4.941   3.212   3.936
 6286SOL     OW19423   4.337   2.704   5.155
 6286SOL    HW119424   4.393   2.785   5.138
 6286SOL    HW219425   4.396   2.624   5.158
 6287SOL     OW19426   4.440   2.427   5.432
 6287SOL    HW119427   4.459   2.492   5.506
 6287SOL    HW219428   4.500   2.347   5.441
 6288SOL     OW19429   5.174   3.082   5.357
 6288SOL    HW119430   5.165   3.072   5.456
 6288SOL    HW219431   5.270   3.075   5.331
 6289SOL     OW19432   4.114   3.603   5.284
 6289SOL    HW119433   4.023   3.644   5.282
 6289SOL    HW219434   4.107   3.509   5.316
 6290SOL     OW19435   4.949   2.187   4.173
 6290SOL    HW119436   5.014   2.113   4.162
 6290SOL    HW219437   4.969   2.237   4.257
 6291SOL     OW19438   4.318   2.607   4.376
 6291SOL    HW119439   4.368   2.692   4.357
 6291SOL    HW219440   4.230   2.609   4.328
 6292SOL     OW19441   4.583   3.236   3.740
 6292SOL    HW119442   4.537   3.251   3.828
 6292SOL    HW219443   4.627   3.321   3.710
 6293SOL     OW19444   4.385   3.652   4.677
 6293SOL    HW119445   4.339   3.740   4.664
 6293SOL    HW219446   4.484   3.664   4.670
 6294SOL     OW19447   4.583   2.818   4.585
 6294SOL    HW119448   4.637   2.749   4.633
 6294SOL    HW219449   4.551   2.887   4.651
 6295SOL     OW19450   4.807   2.846   3.811
 6295SOL    HW119451   4.784   2.899   3.729
 6295SOL    HW219452   4.888   2.790   3.792
 6296SOL     OW19453   3.945   3.176   5.568
 6296SOL    HW119454   3.880   3.103   5.547
 6296SOL    HW219455   3.949   3.190   5.666
 6297SOL     OW19456   3.803   3.102   4.377
 6297SOL    HW119457   3.802   3.055   4.465
 6297SOL    HW219458   3.885   3.074   4.326
 6298SOL     OW19459   4.396   3.253   5.348
 6298SOL    HW119460   4.318   3.203   5.386
 6298SOL    HW219461   4.393   3.348   5.379
 6299SOL     OW19462   4.152   2.286   4.244
 6299SOL    HW119463   4.182   2.214   4.182
 6299SOL    HW219464   4.113   2.246   4.327
 6300SOL     OW19465   5.429   3.349   4.828
 6300SOL    HW119466   5.336   3.324   4.801
 6300SOL    HW219467   5.455   3.299   4.910
 6301SOL     OW19468   4.041   2.409   5.004
 6301SOL    HW119469   4.079   2.350   5.076
 6301SOL    HW219470   4.081   2.383   4.916
 6302SOL     OW19471   4.536   3.448   4.411
 6302SOL    HW119472   4.568   3.458   4.317
 6302SOL    HW219473   4.457   3.386   4.413
 6303SOL     OW19474   5.148   2.076   4.836
 6303SOL    HW119475   5.200   2.011   4.891
 6303SOL    HW219476   5.099   2.139   4.897
 6304SOL     OW19477   4.725   1.896   4.878
 6304SOL    HW119478   4.662   1.824   4.847
 6304SOL    HW219479   4.818   1.860   4.878
 6305SOL     OW19480   4.494   3.192   4.025
 6305SOL    HW119481   4.448   3.105   4.042
 6305SOL    HW219482   4.585   3.189   4.066
 6306SOL     OW19483   4.342   3.429   5.008
 6306SOL    HW119484   4.337   3.511   5.065
 6306SOL    HW219485   4.431   3.426   4.963
 6307SOL     OW19486   5.076   1.914   3.892
 6307SOL    HW119487   5.111   1.873   3.808
 6307SOL    HW219488   4.986   1.876   3.912
 6308SOL     OW19489   5.024   2.315   4.415
 6308SOL    HW119490   4.965   2.395   4.419
 6308SOL    HW219491   5.039   2.280   4.508
 6309SOL     OW19492   5.317   2.083   4.606
 6309SOL    HW119493   5.233   2.082   4.660
 6309SOL    HW219494   5.319   2.166   4.550
 6310SOL     OW19495   3.763   2.939   4.024
 6310SOL    HW119496   3.862   2.928   4.015
 6310SOL    HW219497   3.723   2.853   4.056
 6311SOL     OW19498   4.599   3.508   4.061
 6311SOL    HW119499   4.522   3.473   4.007
 6311SOL    HW219500   4.567   3.579   4.123
 6312SOL     OW19501   3.954   2.490   5.699
 6312SOL    HW119502   3.861   2.488   5.736
 6312SOL    HW219503   3.955   2.451   5.607
 6313SOL     OW19504   3.949   2.137   6.582
 6313SOL    HW119505   3.984   2.120   6.674
 6313SOL    HW219506   3.861   2.092   6.570
 6314SOL     OW19507   3.743   2.230   6.233
 6314SOL    HW119508   3.661   2.273   6.272
 6314SOL    HW219509   3.715   2.157   6.170
 6315SOL     OW19510   4.293   3.137   6.751
 6315SOL    HW119511   4.200   3.130   6.714
 6315SOL    HW219512   4.304   3.226   6.795
 6316SOL     OW19513   5.279   3.373   6.289
 6316SOL    HW119514   5.222   3.357   6.370
 6316SOL    HW219515   5.220   3.383   6.209
 6317SOL     OW19516   4.859   2.565   6.303
 6317SOL    HW119517   4.916   2.643   6.278
 6317SOL    HW219518   4.799   2.591   6.379
 6318SOL     OW19519   4.492   3.006   6.609
 6318SOL    HW119520   4.414   3.023   6.669
 6318SOL    HW219521   4.526   3.093   6.573
 6319SOL     OW19522   4.574   2.660   7.409
 6319SOL    HW119523   4.570   2.736   7.474
 6319SOL    HW219524   4.596   2.696   7.318
 6320SOL     OW19525   4.409   2.874   6.251
 6320SOL    HW119526   4.478   2.858   6.321
 6320SOL    HW219527   4.336   2.931   6.289
 6321SOL     OW19528   4.410   3.023   7.389
 6321SOL    HW119529   4.470   3.102   7.403
 6321SOL    HW219530   4.324   3.054   7.348
 6322SOL     OW19531   4.059   3.297   6.647
 6322SOL    HW119532   3.981   3.266   6.594
 6322SOL    HW219533   4.117   3.355   6.590
 6323SOL     OW19534   5.184   3.367   6.925
 6323SOL    HW119535   5.208   3.461   6.951
 6323SOL    HW219536   5.168   3.313   7.007
 6324SOL     OW19537   4.162   2.254   7.085
 6324SOL    HW119538   4.244   2.198   7.094
 6324SOL    HW219539   4.081   2.196   7.089
 6325SOL     OW19540   3.955   3.575   6.069
 6325SOL    HW119541   3.989   3.652   6.123
 6325SOL    HW219542   3.999   3.575   5.979
 6326SOL     OW19543   4.851   3.203   7.276
 6326SOL    HW119544   4.898   3.203   7.364
 6326SOL    HW219545   4.803   3.116   7.265
 6327SOL     OW19546   3.954   3.296   6.124
 6327SOL    HW119547   3.928   3.392   6.124
 6327SOL    HW219548   3.883   3.242   6.169
 6328SOL     OW19549   3.964   2.953   6.472
 6328SOL    HW119550   3.978   2.869   6.524
 6328SOL    HW219551   3.909   3.017   6.527
 6329SOL     OW19552   4.344   3.648   7.025
 6329SOL    HW119553   4.252   3.631   7.060
 6329SOL    HW219554   4.372   3.740   7.051
 6330SOL     OW19555   4.330   2.826   5.709
 6330SOL    HW119556   4.337   2.910   5.655
 6330SOL    HW219557   4.376   2.839   5.797
 6331SOL     OW19558   3.846   2.505   6.149
 6331SOL    HW119559   3.801   2.417   6.166
 6331SOL    HW219560   3.845   2.559   6.233
 6332SOL     OW19561   3.751   3.458   5.703
 6332SOL    HW119562   3.732   3.362   5.724
 6332SOL    HW219563   3.718   3.516   5.778
 6333SOL     OW19564   5.413   2.784   6.198
 6333SOL    HW119565   5.508   2.755   6.206
 6333SOL    HW219566   5.405   2.849   6.123
 6334SOL     OW19567   3.837   2.599   7.183
 6334SOL    HW119568   3.925   2.586   7.228
 6334SOL    HW219569   3.824   2.696   7.161
 6335SOL     OW19570   4.337   3.227   6.312
 6335SOL    HW119571   4.288   3.140   6.321
 6335SOL    HW219572   4.314   3.270   6.225
 6336SOL     OW19573   5.017   3.090   7.009
 6336SOL    HW119574   5.054   3.017   6.951
 6336SOL    HW219575   5.069   3.095   7.094
 6337SOL     OW19576   4.533   1.866   6.088
 6337SOL    HW119577   4.573   1.957   6.079
 6337SOL    HW219578   4.433   1.874   6.094
 6338SOL     OW19579   3.921   2.838   6.850
 6338SOL    HW119580   4.010   2.793   6.836
 6338SOL    HW219581   3.848   2.773   6.831
 6339SOL     OW19582   4.911   3.654   7.202
 6339SOL    HW119583   4.935   3.714   7.126
 6339SOL    HW219584   4.918   3.559   7.172
 6340SOL     OW19585   4.041   2.113   7.387
 6340SOL    HW119586   4.112   2.184   7.393
 6340SOL    HW219587   3.953   2.152   7.415
 6341SOL     OW19588   5.190   3.279   6.539
 6341SOL    HW119589   5.131   3.285   6.619
 6341SOL    HW219590   5.175   3.191   6.493
 6342SOL     OW19591   4.322   2.591   5.856
 6342SOL    HW119592   4.346   2.660   5.788
 6342SOL    HW219593   4.244   2.624   5.910
 6343SOL     OW19594   5.005   2.207   6.530
 6343SOL    HW119595   4.919   2.157   6.517
 6343SOL    HW219596   5.067   2.153   6.586
 6344SOL     OW19597   4.531   2.467   7.051
 6344SOL    HW119598   4.484   2.464   7.140
 6344SOL    HW219599   4.480   2.412   6.985
 6345SOL     OW19600   5.118   2.331   7.260
 6345SOL    HW119601   5.098   2.374   7.348
 6345SOL    HW219602   5.196   2.269   7.269
 6346SOL     OW19603   4.697   2.752   7.158
 6346SOL    HW119604   4.743   2.668   7.129
 6346SOL    HW219605   4.641   2.786   7.083
 6347SOL     OW19606   4.715   2.272   6.828
 6347SOL    HW119607   4.638   2.306   6.882
 6347SOL    HW219608   4.681   2.221   6.749
 6348SOL     OW19609   4.765   2.563   6.015
 6348SOL    HW119610   4.791   2.559   6.111
 6348SOL    HW219611   4.680   2.512   6.001
 6349SOL     OW19612   3.800   2.673   6.375
 6349SOL    HW119613   3.899   2.661   6.384
 6349SOL    HW219614   3.776   2.768   6.396
 6350SOL     OW19615   3.854   3.683   7.157
 6350SOL    HW119616   3.844   3.668   7.256
 6350SOL    HW219617   3.768   3.719   7.121
 6351SOL     OW19618   4.589   2.210   5.781
 6351SOL    HW119619   4.648   2.273   5.732
 6351SOL    HW219620   4.608   2.116   5.752
 6352SOL     OW19621   5.086   3.006   6.131
 6352SOL    HW119622   5.169   2.977   6.083
 6352SOL    HW219623   5.037   3.073   6.075
 6353SOL     OW19624   4.274   2.058   6.471
 6353SOL    HW119625   4.269   2.053   6.571
 6353SOL    HW219626   4.276   2.154   6.442
 6354SOL     OW19627   4.732   3.318   6.063
 6354SOL    HW119628   4.686   3.390   6.011
 6354SOL    HW219629   4.728   3.338   6.161
 6355SOL     OW19630   4.075   3.663   6.439
 6355SOL    HW119631   4.125   3.577   6.445
 6355SOL    HW219632   4.140   3.740   6.436
 6356SOL     OW19633   4.951   3.412   7.092
 6356SOL    HW119634   4.957   3.335   7.156
 6356SOL    HW219635   4.899   3.386   7.012
 6357SOL     OW19636   4.045   2.805   5.828
 6357SOL    HW119637   4.127   2.844   5.786
 6357SOL    HW219638   4.018   2.723   5.779
 6358SOL     OW19639   4.185   3.128   7.313
 6358SOL    HW119640   4.135   3.129   7.227
 6358SOL    HW219641   4.122   3.110   7.389
 6359SOL     OW19642   4.835   3.638   5.823
 6359SOL    HW119643   4.775   3.576   5.873
 6359SOL    HW219644   4.866   3.594   5.738
 6360SOL     OW19645   3.926   2.147   7.084
 6360SOL    HW119646   3.846   2.207   7.071
 6360SOL    HW219647   3.916   2.098   7.170
 6361SOL     OW19648   4.188   3.605   5.909
 6361SOL    HW119649   4.221   3.644   5.995
 6361SOL    HW219650   4.264   3.598   5.844
 6362SOL     OW19651   5.124   1.969   6.012
 6362SOL    HW119652   5.100   1.932   5.922
 6362SOL    HW219653   5.223   1.985   6.016
 6363SOL     OW19654   3.973   3.647   6.827
 6363SOL    HW119655   4.030   3.582   6.877
 6363SOL    HW219656   3.957   3.614   6.734
 6364SOL     OW19657   4.664   3.560   6.490
 6364SOL    HW119658   4.744   3.503   6.511
 6364SOL    HW219659   4.615   3.520   6.413
 6365SOL     OW19660   4.106   2.562   6.066
 6365SOL    HW119661   4.151   2.472   6.063
 6365SOL    HW219662   4.012   2.551   6.099
 6366SOL     OW19663   4.338   1.984   5.703
 6366SOL    HW119664   4.436   1.962   5.710
 6366SOL    HW219665   4.307   1.967   5.610
 6367SOL     OW19666   4.505   2.126   7.335
 6367SOL    HW119667   4.572   2.065   7.378
 6367SOL    HW219668   4.432   2.145   7.400
 6368SOL     OW19669   4.612   3.376   6.781
 6368SOL    HW119670   4.589   3.351   6.687
 6368SOL    HW219671   4.673   3.307   6.820
 6369SOL     OW19672   5.075   2.452   7.019
 6369SOL    HW119673   5.103   2.409   7.104
 6369SOL    HW219674   5.100   2.548   7.020
 6370SOL     OW19675   4.527   3.264   6.510
 6370SOL    HW119676   4.617   3.278   6.468
 6370SOL    HW219677   4.456   3.266   6.439
 6371SOL     OW19678   4.646   2.365   6.485
 6371SOL    HW119679   4.621   2.356   6.389
 6371SOL    HW219680   4.694   2.283   6.516
 6372SOL     OW19681   4.263   1.926   6.098
 6372SOL    HW119682   4.182   1.927   6.156
 6372SOL    HW219683   4.266   2.009   6.043
 6373SOL     OW19684   5.158   3.050   5.627
 6373SOL    HW119685   5.190   2.974   5.684
 6373SOL    HW219686   5.066   3.077   5.657
 6374SOL     OW19687   4.021   1.897   5.757
 6374SOL    HW119688   4.070   1.981   5.736
 6374SOL    HW219689   4.083   1.832   5.802
 6375SOL     OW19690   4.659   2.098   6.066
 6375SOL    HW119691   4.611   2.139   5.988
 6375SOL    HW219692   4.758   2.096   6.047
 6376SOL     OW19693   4.800   2.545   7.050
 6376SOL    HW119694   4.720   2.484   7.053
 6376SOL    HW219695   4.881   2.492   7.026
 6377SOL     OW19696   4.951   3.432   6.379
 6377SOL    HW119697   4.972   3.506   6.314
 6377SOL    HW219698   5.019   3.432   6.452
 6378SOL     OW19699   4.183   3.014   6.327
 6378SOL    HW119700   4.112   2.987   6.392
 6378SOL    HW219701   4.157   2.986   6.234
 6379SOL     OW19702   4.995   3.659   6.177
 6379SOL    HW119703   5.039   3.723   6.113
 6379SOL    HW219704   4.945   3.711   6.247
 6380SOL     OW19705   4.756   2.411   5.602
 6380SOL    HW119706   4.715   2.493   5.563
 6380SOL    HW219707   4.820   2.437   5.675
 6381SOL     OW19708   3.802   2.418   6.972
 6381SOL    HW119709   3.894   2.417   6.931
 6381SOL    HW219710   3.796   2.492   7.039
 6382SOL     OW19711   4.285   2.084   6.733
 6382SOL    HW119712   4.323   2.000   6.770
 6382SOL    HW219713   4.197   2.103   6.777
 6383SOL     OW19714   4.590   2.316   6.228
 6383SOL    HW119715   4.558   2.388   6.166
 6383SOL    HW219716   4.614   2.235   6.175
 6384SOL     OW19717   4.741   1.901   6.339
 6384SOL    HW119718   4.669   1.906   6.270
 6384SOL    HW219719   4.717   1.832   6.408
 6385SOL     OW19720   5.153   3.035   6.453
 6385SOL    HW119721   5.098   2.951   6.446
 6385SOL    HW219722   5.179   3.064   6.361
 6386SOL     OW19723   4.212   3.247   5.760
 6386SOL    HW119724   4.125   3.232   5.807
 6386SOL    HW219725   4.195   3.273   5.665
 6387SOL     OW19726   5.114   2.437   5.664
 6387SOL    HW119727   5.060   2.416   5.745
 6387SOL    HW219728   5.205   2.396   5.673
 6388SOL     OW19729   4.251   2.118   5.914
 6388SOL    HW119730   4.278   2.059   5.839
 6388SOL    HW219731   4.251   2.213   5.883
 6389SOL     OW19732   4.788   3.209   6.926
 6389SOL    HW119733   4.708   3.186   6.981
 6389SOL    HW219734   4.871   3.183   6.975
 6390SOL     OW19735   5.316   3.491   7.211
 6390SOL    HW119736   5.343   3.525   7.121
 6390SOL    HW219737   5.395   3.453   7.257
 6391SOL     OW19738   4.835   3.057   6.686
 6391SOL    HW119739   4.795   3.101   6.767
 6391SOL    HW219740   4.794   3.094   6.603
 6392SOL     OW19741   4.639   1.951   6.988
 6392SOL    HW119742   4.664   1.931   6.893
 6392SOL    HW219743   4.711   2.007   7.030
 6393SOL     OW19744   4.704   2.978   7.305
 6393SOL    HW119745   4.605   2.984   7.315
 6393SOL    HW219746   4.727   2.898   7.249
 6394SOL     OW19747   4.429   2.912   5.954
 6394SOL    HW119748   4.415   2.919   6.053
 6394SOL    HW219749   4.513   2.861   5.936
 6395SOL     OW19750   4.134   2.675   6.837
 6395SOL    HW119751   4.220   2.687   6.887
 6395SOL    HW219752   4.092   2.588   6.864
 6396SOL     OW19753   4.998   2.248   6.848
 6396SOL    HW119754   5.019   2.322   6.912
 6396SOL    HW219755   4.909   2.265   6.805
 6397SOL     OW19756   3.788   3.426   6.917
 6397SOL    HW119757   3.742   3.508   6.883
 6397SOL    HW219758   3.886   3.445   6.926
 6398SOL     OW19759   4.091   2.962   6.087
 6398SOL    HW119760   4.084   3.045   6.031
 6398SOL    HW219761   4.095   2.882   6.027
 6399SOL     OW19762   4.290   2.399   6.451
 6399SOL    HW119763   4.302   2.465   6.377
 6399SOL    HW219764   4.336   2.433   6.534
 6400SOL     OW19765   4.976   3.210   5.974
 6400SOL    HW119766   5.026   3.287   6.014
 6400SOL    HW219767   4.881   3.212   6.006
 6401SOL     OW19768   4.996   3.307   6.728
 6401SOL    HW119769   5.043   3.320   6.815
 6401SOL    HW219770   4.930   3.233   6.737
 6402SOL     OW19771   4.078   3.372   6.915
 6402SOL    HW119772   4.057   3.328   6.828
 6402SOL    HW219773   4.175   3.398   6.918
 6403SOL     OW19774   4.126   2.613   7.184
 6403SOL    HW119775   4.194   2.668   7.137
 6403SOL    HW219776   4.166   2.525   7.211
 6404SOL     OW19777   4.737   1.967   7.356
 6404SOL    HW119778   4.743   2.052   7.304
 6404SOL    HW219779   4.769   1.891   7.299
 6405SOL     OW19780   4.228   1.912   7.326
 6405SOL    HW119781   4.186   1.855   7.256
 6405SOL    HW219782   4.162   1.981   7.358
 6406SOL     OW19783   4.297   2.732   6.615
 6406SOL    HW119784   4.341   2.821   6.606
 6406SOL    HW219785   4.234   2.732   6.692
 6407SOL     OW19786   5.084   2.724   6.631
 6407SOL    HW119787   5.009   2.724   6.565
 6407SOL    HW219788   5.121   2.632   6.640
 6408SOL     OW19789   4.933   2.387   5.861
 6408SOL    HW119790   4.946   2.303   5.915
 6408SOL    HW219791   4.904   2.461   5.921
 6409SOL     OW19792   4.031   2.075   6.817
 6409SOL    HW119793   4.008   2.112   6.907
 6409SOL    HW219794   4.001   1.980   6.811
 6410SOL     OW19795   3.761   3.172   6.868
 6410SOL    HW119796   3.814   3.123   6.936
 6410SOL    HW219797   3.783   3.270   6.873
 6411SOL     OW19798   4.456   2.496   6.650
 6411SOL    HW119799   4.515   2.470   6.574
 6411SOL    HW219800   4.428   2.592   6.639
 6412SOL     OW19801   4.031   1.925   6.204
 6412SOL    HW119802   4.020   2.019   6.237
 6412SOL    HW219803   4.026   1.862   6.281
 6413SOL     OW19804   5.346   2.229   5.960
 6413SOL    HW119805   5.348   2.153   6.024
 6413SOL    HW219806   5.298   2.306   6.000
 6414SOL     OW19807   4.747   2.628   6.552
 6414SOL    HW119808   4.762   2.649   6.648
 6414SOL    HW219809   4.717   2.533   6.543
 6415SOL     OW19810   4.704   3.435   7.286
 6415SOL    HW119811   4.684   3.479   7.198
 6415SOL    HW219812   4.743   3.344   7.270
 6416SOL     OW19813   4.074   2.760   7.390
 6416SOL    HW119814   4.150   2.804   7.438
 6416SOL    HW219815   4.109   2.713   7.308
 6417SOL     OW19816   5.027   2.700   5.628
 6417SOL    HW119817   5.061   2.607   5.643
 6417SOL    HW219818   5.045   2.727   5.533
 6418SOL     OW19819   4.792   3.195   6.435
 6418SOL    HW119820   4.799   3.111   6.380
 6418SOL    HW219821   4.854   3.264   6.399
 6419SOL     OW19822   4.043   2.672   6.535
 6419SOL    HW119823   4.136   2.708   6.540
 6419SOL    HW219824   4.037   2.587   6.587
 6420SOL     OW19825   4.063   2.371   6.592
 6420SOL    HW119826   4.011   2.288   6.575
 6420SOL    HW219827   4.140   2.376   6.528
 6421SOL     OW19828   4.862   2.242   7.264
 6421SOL    HW119829   4.817   2.305   7.328
 6421SOL    HW219830   4.955   2.273   7.247
 6422SOL     OW19831   4.884   2.069   7.063
 6422SOL    HW119832   4.884   2.133   7.140
 6422SOL    HW219833   4.912   2.117   6.980
 6423SOL     OW19834   3.732   3.188   5.786
 6423SOL    HW119835   3.639   3.209   5.755
 6423SOL    HW219836   3.742   3.089   5.799
 6424SOL     OW19837   3.812   3.663   6.513
 6424SOL    HW119838   3.770   3.577   6.486
 6424SOL    HW219839   3.906   3.666   6.479
 6425SOL     OW19840   4.228   3.430   6.496
 6425SOL    HW119841   4.294   3.504   6.505
 6425SOL    HW219842   4.272   3.351   6.454
 6426SOL     OW19843   4.726   2.658   6.824
 6426SOL    HW119844   4.767   2.626   6.910
 6426SOL    HW219845   4.630   2.631   6.821
 6427SOL     OW19846   3.764   2.406   6.700
 6427SOL    HW119847   3.849   2.373   6.659
 6427SOL    HW219848   3.777   2.421   6.798
 6428SOL     OW19849   3.913   2.382   7.308
 6428SOL    HW119850   3.972   2.342   7.238
 6428SOL    HW219851   3.855   2.453   7.267
 6429SOL     OW19852   5.093   2.812   7.246
 6429SOL    HW119853   5.132   2.901   7.266
 6429SOL    HW219854   5.103   2.792   7.149
 6430SOL     OW19855   4.539   2.434   5.911
 6430SOL    HW119856   4.546   2.345   5.865
 6430SOL    HW219857   4.445   2.468   5.903
 6431SOL     OW19858   3.976   3.426   7.330
 6431SOL    HW119859   3.946   3.483   7.406
 6431SOL    HW219860   3.969   3.329   7.356
 6432SOL     OW19861   4.395   2.326   6.855
 6432SOL    HW119862   4.361   2.237   6.825
 6432SOL    HW219863   4.421   2.380   6.775
 6433SOL     OW19864   4.654   3.540   7.051
 6433SOL    HW119865   4.630   3.522   6.956
 6433SOL    HW219866   4.684   3.634   7.061
 6434SOL     OW19867   4.197   2.362   5.777
 6434SOL    HW119868   4.258   2.442   5.781
 6434SOL    HW219869   4.102   2.393   5.784
 6435SOL     OW19870   3.883   2.999   7.052
 6435SOL    HW119871   3.905   2.938   7.128
 6435SOL    HW219872   3.893   2.950   6.966
 6436SOL     OW19873   5.071   2.921   6.820
 6436SOL    HW119874   5.095   2.858   6.746
 6436SOL    HW219875   4.981   2.961   6.802
 6437SOL     OW19876   5.026   2.717   5.895
 6437SOL    HW119877   4.940   2.686   5.937
 6437SOL    HW219878   5.022   2.703   5.796
 6438SOL     OW19879   4.976   3.593   6.714
 6438SOL    HW119880   5.060   3.598   6.660
 6438SOL    HW219881   4.953   3.497   6.732
 6439SOL     OW19882   3.807   3.120   6.608
 6439SOL    HW119883   3.802   3.119   6.708
 6439SOL    HW219884   3.724   3.079   6.570
 6440SOL     OW19885   4.412   3.524   7.302
 6440SOL    HW119886   4.356   3.605   7.311
 6440SOL    HW219887   4.464   3.528   7.216
 6441SOL     OW19888   5.450   1.997   6.109
 6441SOL    HW119889   5.523   1.980   6.042
 6441SOL    HW219890   5.419   1.910   6.147
 6442SOL     OW19891   5.112   3.435   6.063
 6442SOL    HW119892   5.179   3.447   5.989
 6442SOL    HW219893   5.072   3.524   6.086
 6443SOL     OW19894   3.854   3.656   7.437
 6443SOL    HW119895   3.813   3.582   7.490
 6443SOL    HW219896   3.918   3.707   7.495
 6444SOL     OW19897   5.004   2.789   6.258
 6444SOL    HW119898   5.064   2.708   6.260
 6444SOL    HW219899   5.044   2.858   6.198
 6445SOL     OW19900   4.554   3.135   7.008
 6445SOL    HW119901   4.549   3.168   7.103
 6445SOL    HW219902   4.468   3.154   6.962
 6446SOL     OW19903   4.396   3.478   5.740
 6446SOL    HW119904   4.405   3.488   5.641
 6446SOL    HW219905   4.356   3.389   5.761
 6447SOL     OW19906   3.987   2.188   6.306
 6447SOL    HW119907   3.908   2.239   6.272
 6447SOL    HW219908   3.978   2.173   6.404
 6448SOL     OW19909   4.918   3.474   5.617
 6448SOL    HW119910   4.924   3.381   5.654
 6448SOL    HW219911   4.859   3.474   5.537
 6449SOL     OW19912   4.546   2.864   6.958
 6449SOL    HW119913   4.586   2.863   6.866
 6449SOL    HW219914   4.556   2.956   6.998
 6450SOL     OW19915   4.640   2.772   5.877
 6450SOL    HW119916   4.703   2.810   5.809
 6450SOL    HW219917   4.680   2.689   5.916
 6451SOL     OW19918   4.096   3.150   7.076
 6451SOL    HW119919   4.083   3.243   7.042
 6451SOL    HW219920   4.012   3.098   7.063
 6452SOL     OW19921   4.763   2.960   6.282
 6452SOL    HW119922   4.693   2.913   6.336
 6452SOL    HW219923   4.822   2.892   6.239
 6453SOL     OW19924   4.738   2.098   6.557
 6453SOL    HW119925   4.730   2.062   6.464
 6453SOL    HW219926   4.736   2.022   6.622
 6454SOL     OW19927   4.314   3.349   6.077
 6454SOL    HW119928   4.356   3.291   6.007
 6454SOL    HW219929   4.270   3.428   6.033
 6455SOL     OW19930   3.979   3.210   5.876
 6455SOL    HW119931   3.883   3.211   5.849
 6455SOL    HW219932   3.991   3.263   5.960
 6456SOL     OW19933   3.829   2.875   7.312
 6456SOL    HW119934   3.752   2.842   7.366
 6456SOL    HW219935   3.914   2.845   7.354
 6457SOL     OW19936   4.396   2.065   7.075
 6457SOL    HW119937   4.486   2.049   7.035
 6457SOL    HW219938   4.404   2.070   7.174
 6458SOL     OW19939   3.799   2.207   5.619
 6458SOL    HW119940   3.707   2.179   5.590
 6458SOL    HW219941   3.830   2.284   5.563
 6459SOL     OW19942   5.164   2.718   6.984
 6459SOL    HW119943   5.107   2.770   6.921
 6459SOL    HW219944   5.260   2.730   6.960
 6460SOL     OW19945   3.796   2.028   5.904
 6460SOL    HW119946   3.779   2.111   5.850
 6460SOL    HW219947   3.886   1.991   5.882
 6461SOL     OW19948   4.907   3.197   5.705
 6461SOL    HW119949   4.808   3.186   5.707
 6461SOL    HW219950   4.941   3.212   5.798
 6462SOL     OW19951   4.337   2.704   7.017
 6462SOL    HW119952   4.393   2.785   7.000
 6462SOL    HW219953   4.396   2.624   7.020
 6463SOL     OW19954   4.440   2.427   7.294
 6463SOL    HW119955   4.459   2.492   7.368
 6463SOL    HW219956   4.500   2.347   7.303
 6464SOL     OW19957   5.174   3.082   7.219
 6464SOL    HW119958   5.165   3.072   7.318
 6464SOL    HW219959   5.270   3.075   7.193
 6465SOL     OW19960   4.114   3.603   7.146
 6465SOL    HW119961   4.023   3.644   7.144
 6465SOL    HW219962   4.107   3.509   7.178
 6466SOL     OW19963   4.949   2.187   6.035
 6466SOL    HW119964   5.014   2.113   6.024
 6466SOL    HW219965   4.969   2.237   6.119
 6467SOL     OW19966   4.318   2.607   6.238
 6467SOL    HW119967   4.368   2.692   6.219
 6467SOL    HW219968   4.230   2.609   6.190
 6468SOL     OW19969   4.583   3.236   5.602
 6468SOL    HW119970   4.537   3.251   5.690
 6468SOL    HW219971   4.627   3.321   5.572
 6469SOL     OW19972   4.385   3.652   6.539
 6469SOL    HW119973   4.339   3.740   6.526
 6469SOL    HW219974   4.484   3.664   6.532
 6470SOL     OW19975   4.583   2.818   6.447
 6470SOL    HW119976   4.637   2.749   6.495
 6470SOL    HW219977   4.551   2.887   6.513
 6471SOL     OW19978   4.807   2.846   5.673
 6471SOL    HW119979   4.784   2.899   5.591
 6471SOL    HW219980   4.888   2.790   5.654
 6472SOL     OW19981   3.945   3.176   7.430
 6472SOL    HW119982   3.880   3.103   7.409
 6472SOL    HW219983   3.949   3.190   7.528
 6473SOL     OW19984   3.803   3.102   6.239
 6473SOL    HW119985   3.802   3.055   6.327
 6473SOL    HW219986   3.885   3.074   6.188
 6474SOL     OW19987   4.396   3.253   7.210
 6474SOL    HW119988   4.318   3.203   7.248
 6474SOL    HW219989   4.393   3.348   7.241
 6475SOL     OW19990   4.152   2.286   6.106
 6475SOL    HW119991   4.182   2.214   6.044
 6475SOL    HW219992   4.113   2.246   6.189
 6476SOL     OW19993   5.429   3.349   6.690
 6476SOL    HW119994   5.336   3.324   6.663
 6476SOL    HW219995   5.455   3.299   6.772
 6477SOL     OW19996   4.041   2.409   6.866
 6477SOL    HW119997   4.079   2.350   6.938
 6477SOL    HW219998   4.081   2.383   6.778
 6478SOL     OW19999   4.536   3.448   6.273
 6478SOL    HW120000   4.568   3.458   6.179
 6478SOL    HW220001   4.457   3.386   6.275
 6479SOL     OW20002   5.148   2.076   6.698
 6479SOL    HW120003   5.200   2.011   6.753
 6479SOL    HW220004   5.099   2.139   6.759
 6480SOL     OW20005   4.725   1.896   6.740
 6480SOL    HW120006   4.662   1.824   6.709
 6480SOL    HW220007   4.818   1.860   6.740
 6481SOL     OW20008   4.494   3.192   5.887
 6481SOL    HW120009   4.448   3.105   5.904
 6481SOL    HW220010   4.585   3.189   5.928
 6482SOL     OW20011   4.342   3.429   6.870
 6482SOL    HW120012   4.337   3.511   6.927
 6482SOL    HW220013   4.431   3.426   6.825
 6483SOL     OW20014   5.076   1.914   5.754
 6483SOL    HW120015   5.111   1.873   5.670
 6483SOL    HW220016   4.986   1.876   5.774
 6484SOL     OW20017   5.024   2.315   6.277
 6484SOL    HW120018   4.965   2.395   6.281
 6484SOL    HW220019   5.039   2.280   6.370
 6485SOL     OW20020   5.317   2.083   6.468
 6485SOL    HW120021   5.233   2.082   6.522
 6485SOL    HW220022   5.319   2.166   6.412
 6486SOL     OW20023   3.763   2.939   5.886
 6486SOL    HW120024   3.862   2.928   5.877
 6486SOL    HW220025   3.723   2.853   5.918
 6487SOL     OW20026   4.599   3.508   5.923
 6487SOL    HW120027   4.522   3.473   5.869
 6487SOL    HW220028   4.567   3.579   5.985
 6488SOL     OW20029   3.954   2.490   7.561
 6488SOL    HW120030   3.861   2.488   7.598
 6488SOL    HW220031   3.955   2.451   7.469
 6489SOL     OW20032   3.955   3.575   7.931
 6489SOL    HW120033   3.989   3.652   7.985
 6489SOL    HW220034   3.999   3.575   7.841
 6490SOL     OW20035   3.954   3.296   7.986
 6490SOL    HW120036   3.928   3.392   7.986
 6490SOL    HW220037   3.883   3.242   8.031
 6491SOL     OW20038   4.330   2.826   7.571
 6491SOL    HW120039   4.337   2.910   7.517
 6491SOL    HW220040   4.376   2.839   7.659
 6492SOL     OW20041   3.751   3.458   7.565
 6492SOL    HW120042   3.732   3.362   7.586
 6492SOL    HW220043   3.718   3.516   7.640
 6493SOL     OW20044   5.413   2.784   8.060
 6493SOL    HW120045   5.508   2.755   8.068
 6493SOL    HW220046   5.405   2.849   7.985
 6494SOL     OW20047   4.533   1.866   7.950
 6494SOL    HW120048   4.573   1.957   7.941
 6494SOL    HW220049   4.433   1.874   7.956
 6495SOL     OW20050   4.322   2.591   7.718
 6495SOL    HW120051   4.346   2.660   7.650
 6495SOL    HW220052   4.244   2.624   7.772
 6496SOL     OW20053   3.800   2.673   8.237
 6496SOL    HW120054   3.899   2.661   8.246
 6496SOL    HW220055   3.776   2.768   8.258
 6497SOL     OW20056   4.589   2.210   7.643
 6497SOL    HW120057   4.648   2.273   7.594
 6497SOL    HW220058   4.608   2.116   7.614
 6498SOL     OW20059   4.045   2.805   7.690
 6498SOL    HW120060   4.127   2.844   7.648
 6498SOL    HW220061   4.018   2.723   7.641
 6499SOL     OW20062   4.835   3.638   7.685
 6499SOL    HW120063   4.775   3.576   7.735
 6499SOL    HW220064   4.866   3.594   7.600
 6500SOL     OW20065   4.188   3.605   7.771
 6500SOL    HW120066   4.221   3.644   7.857
 6500SOL    HW220067   4.264   3.598   7.706
 6501SOL     OW20068   5.124   1.969   7.874
 6501SOL    HW120069   5.100   1.932   7.784
 6501SOL    HW220070   5.223   1.985   7.878
 6502SOL     OW20071   4.106   2.562   7.928
 6502SOL    HW120072   4.151   2.472   7.925
 6502SOL    HW220073   4.012   2.551   7.961
 6503SOL     OW20074   4.338   1.984   7.565
 6503SOL    HW120075   4.436   1.962   7.572
 6503SOL    HW220076   4.307   1.967   7.472
 6504SOL     OW20077   4.263   1.926   7.960
 6504SOL    HW120078   4.182   1.927   8.018
 6504SOL    HW220079   4.266   2.009   7.905
 6505SOL     OW20080   5.158   3.050   7.489
 6505SOL    HW120081   5.190   2.974   7.546
 6505SOL    HW220082   5.066   3.077   7.519
 6506SOL     OW20083   4.021   1.897   7.619
 6506SOL    HW120084   4.070   1.981   7.598
 6506SOL    HW220085   4.083   1.832   7.664
 6507SOL     OW20086   4.659   2.098   7.928
 6507SOL    HW120087   4.611   2.139   7.850
 6507SOL    HW220088   4.758   2.096   7.909
 6508SOL     OW20089   4.183   3.014   8.189
 6508SOL    HW120090   4.112   2.987   8.254
 6508SOL    HW220091   4.157   2.986   8.096
 6509SOL     OW20092   4.995   3.659   8.039
 6509SOL    HW120093   5.039   3.723   7.975
 6509SOL    HW220094   4.945   3.711   8.109
 6510SOL     OW20095   4.756   2.411   7.464
 6510SOL    HW120096   4.715   2.493   7.425
 6510SOL    HW220097   4.820   2.437   7.537
 6511SOL     OW20098   4.212   3.247   7.622
 6511SOL    HW120099   4.125   3.232   7.669
 6511SOL    HW220100   4.195   3.273   7.527
 6512SOL     OW20101   5.114   2.437   7.526
 6512SOL    HW120102   5.060   2.416   7.607
 6512SOL    HW220103   5.205   2.396   7.535
 6513SOL     OW20104   4.251   2.118   7.776
 6513SOL    HW120105   4.278   2.059   7.701
 6513SOL    HW220106   4.251   2.213   7.745
 6514SOL     OW20107   4.429   2.912   7.816
 6514SOL    HW120108   4.415   2.919   7.915
 6514SOL    HW220109   4.513   2.861   7.798
 6515SOL     OW20110   4.091   2.962   7.949
 6515SOL    HW120111   4.084   3.045   7.893
 6515SOL    HW220112   4.095   2.882   7.889
 6516SOL     OW20113   4.976   3.210   7.836
 6516SOL    HW120114   5.026   3.287   7.876
 6516SOL    HW220115   4.881   3.212   7.868
 6517SOL     OW20116   5.306   2.501   7.920
 6517SOL    HW120117   5.275   2.562   7.993
 6517SOL    HW220118   5.356   2.553   7.851
 6518SOL     OW20119   4.933   2.387   7.723
 6518SOL    HW120120   4.946   2.303   7.777
 6518SOL    HW220121   4.904   2.461   7.783
 6519SOL     OW20122   5.346   2.229   7.822
 6519SOL    HW120123   5.348   2.153   7.886
 6519SOL    HW220124   5.298   2.306   7.862
 6520SOL     OW20125   5.027   2.700   7.490
 6520SOL    HW120126   5.061   2.607   7.505
 6520SOL    HW220127   5.045   2.727   7.395
 6521SOL     OW20128   3.732   3.188   7.648
 6521SOL    HW120129   3.639   3.209   7.617
 6521SOL    HW220130   3.742   3.089   7.661
 6522SOL     OW20131   4.539   2.434   7.773
 6522SOL    HW120132   4.546   2.345   7.727
 6522SOL    HW220133   4.445   2.468   7.765
 6523SOL     OW20134   4.197   2.362   7.639
 6523SOL    HW120135   4.258   2.442   7.643
 6523SOL    HW220136   4.102   2.393   7.646
 6524SOL     OW20137   5.026   2.717   7.757
 6524SOL    HW120138   4.940   2.686   7.799
 6524SOL    HW220139   5.022   2.703   7.658
 6525SOL     OW20140   5.450   1.997   7.971
 6525SOL    HW120141   5.523   1.980   7.904
 6525SOL    HW220142   5.419   1.910   8.009
 6526SOL     OW20143   5.112   3.435   7.925
 6526SOL    HW120144   5.179   3.447   7.851
 6526SOL    HW220145   5.072   3.524   7.948
 6527SOL     OW20146   4.396   3.478   7.602
 6527SOL    HW120147   4.405   3.488   7.503
 6527SOL    HW220148   4.356   3.389   7.623
 6528SOL     OW20149   4.918   3.474   7.479
 6528SOL    HW120150   4.924   3.381   7.516
 6528SOL    HW220151   4.859   3.474   7.399
 6529SOL     OW20152   4.640   2.772   7.739
 6529SOL    HW120153   4.703   2.810   7.671
 6529SOL    HW220154   4.680   2.689   7.778
 6530SOL     OW20155   4.314   3.349   7.939
 6530SOL    HW120156   4.356   3.291   7.869
 6530SOL    HW220157   4.270   3.428   7.895
 6531SOL     OW20158   3.979   3.210   7.738
 6531SOL    HW120159   3.883   3.211   7.711
 6531SOL    HW220160   3.991   3.263   7.822
 6532SOL     OW20161   3.799   2.207   7.481
 6532SOL    HW120162   3.707   2.179   7.452
 6532SOL    HW220163   3.830   2.284   7.425
 6533SOL     OW20164   3.796   2.028   7.766
 6533SOL    HW120165   3.779   2.111   7.712
 6533SOL    HW220166   3.886   1.991   7.744
 6534SOL     OW20167   4.907   3.197   7.567
 6534SOL    HW120168   4.808   3.186   7.569
 6534SOL    HW220169   4.941   3.212   7.660
 6535SOL     OW20170   5.217   3.629   8.407
 6535SOL    HW120171   5.250   3.693   8.338
 6535SOL    HW220172   5.283   3.623   8.482
 6536SOL     OW20173   4.949   2.187   7.897
 6536SOL    HW120174   5.014   2.113   7.886
 6536SOL    HW220175   4.969   2.237   7.981
 6537SOL     OW20176   4.318   2.607   8.100
 6537SOL    HW120177   4.368   2.692   8.081
 6537SOL    HW220178   4.230   2.609   8.052
 6538SOL     OW20179   4.583   3.236   7.464
 6538SOL    HW120180   4.537   3.251   7.552
 6538SOL    HW220181   4.627   3.321   7.434
 6539SOL     OW20182   4.807   2.846   7.535
 6539SOL    HW120183   4.784   2.899   7.453
 6539SOL    HW220184   4.888   2.790   7.516
 6540SOL     OW20185   4.152   2.286   7.968
 6540SOL    HW120186   4.182   2.214   7.906
 6540SOL    HW220187   4.113   2.246   8.051
 6541SOL     OW20188   4.494   3.192   7.749
 6541SOL    HW120189   4.448   3.105   7.766
 6541SOL    HW220190   4.585   3.189   7.790
 6542SOL     OW20191   5.076   1.914   7.616
 6542SOL    HW120192   5.111   1.873   7.532
 6542SOL    HW220193   4.986   1.876   7.636
 6543SOL     OW20194   3.763   2.939   7.748
 6543SOL    HW120195   3.862   2.928   7.739
 6543SOL    HW220196   3.723   2.853   7.780
 6544SOL     OW20197   4.599   3.508   7.785
 6544SOL    HW120198   4.522   3.473   7.731
 6544SOL    HW220199   4.567   3.579   7.847
 6545SOL     OW20200   3.954   4.352   0.113
 6545SOL    HW120201   3.861   4.350   0.150
 6545SOL    HW220202   3.955   4.313   0.021
 6546SOL     OW20203   3.949   3.999   0.996
 6546SOL    HW120204   3.984   3.982   1.088
 6546SOL    HW220205   3.861   3.954   0.984
 6547SOL     OW20206   3.743   4.092   0.647
 6547SOL    HW120207   3.661   4.135   0.686
 6547SOL    HW220208   3.715   4.019   0.584
 6548SOL     OW20209   4.293   4.999   1.165
 6548SOL    HW120210   4.200   4.992   1.128
 6548SOL    HW220211   4.304   5.088   1.209
 6549SOL     OW20212   5.279   5.235   0.703
 6549SOL    HW120213   5.222   5.219   0.784
 6549SOL    HW220214   5.220   5.245   0.623
 6550SOL     OW20215   4.859   4.427   0.717
 6550SOL    HW120216   4.916   4.505   0.692
 6550SOL    HW220217   4.799   4.453   0.793
 6551SOL     OW20218   4.492   4.868   1.023
 6551SOL    HW120219   4.414   4.885   1.083
 6551SOL    HW220220   4.526   4.955   0.987
 6552SOL     OW20221   4.574   4.522   1.823
 6552SOL    HW120222   4.570   4.598   1.888
 6552SOL    HW220223   4.596   4.558   1.732
 6553SOL     OW20224   4.409   4.736   0.665
 6553SOL    HW120225   4.478   4.720   0.735
 6553SOL    HW220226   4.336   4.793   0.703
 6554SOL     OW20227   4.410   4.885   1.803
 6554SOL    HW120228   4.470   4.964   1.817
 6554SOL    HW220229   4.324   4.916   1.762
 6555SOL     OW20230   4.059   5.159   1.061
 6555SOL    HW120231   3.981   5.128   1.008
 6555SOL    HW220232   4.117   5.217   1.004
 6556SOL     OW20233   5.184   5.229   1.339
 6556SOL    HW120234   5.208   5.323   1.365
 6556SOL    HW220235   5.168   5.175   1.421
 6557SOL     OW20236   4.162   4.116   1.499
 6557SOL    HW120237   4.244   4.060   1.508
 6557SOL    HW220238   4.081   4.058   1.503
 6558SOL     OW20239   4.851   5.065   1.690
 6558SOL    HW120240   4.898   5.065   1.778
 6558SOL    HW220241   4.803   4.978   1.679
 6559SOL     OW20242   3.954   5.158   0.538
 6559SOL    HW120243   3.928   5.254   0.538
 6559SOL    HW220244   3.883   5.104   0.583
 6560SOL     OW20245   3.964   4.815   0.886
 6560SOL    HW120246   3.978   4.731   0.938
 6560SOL    HW220247   3.909   4.879   0.941
 6561SOL     OW20248   4.330   4.688   0.123
 6561SOL    HW120249   4.337   4.772   0.069
 6561SOL    HW220250   4.376   4.701   0.211
 6562SOL     OW20251   3.846   4.367   0.563
 6562SOL    HW120252   3.801   4.279   0.580
 6562SOL    HW220253   3.845   4.421   0.647
 6563SOL     OW20254   3.751   5.320   0.117
 6563SOL    HW120255   3.732   5.224   0.138
 6563SOL    HW220256   3.718   5.378   0.192
 6564SOL     OW20257   5.413   4.646   0.612
 6564SOL    HW120258   5.508   4.617   0.620
 6564SOL    HW220259   5.405   4.711   0.537
 6565SOL     OW20260   3.837   4.461   1.597
 6565SOL    HW120261   3.925   4.448   1.642
 6565SOL    HW220262   3.824   4.558   1.575
 6566SOL     OW20263   4.337   5.089   0.726
 6566SOL    HW120264   4.288   5.002   0.735
 6566SOL    HW220265   4.314   5.132   0.639
 6567SOL     OW20266   5.017   4.952   1.423
 6567SOL    HW120267   5.054   4.879   1.365
 6567SOL    HW220268   5.069   4.957   1.508
 6568SOL     OW20269   4.533   3.728   0.502
 6568SOL    HW120270   4.573   3.819   0.493
 6568SOL    HW220271   4.433   3.736   0.508
 6569SOL     OW20272   3.921   4.700   1.264
 6569SOL    HW120273   4.010   4.655   1.250
 6569SOL    HW220274   3.848   4.635   1.245
 6570SOL     OW20275   4.041   3.975   1.801
 6570SOL    HW120276   4.112   4.046   1.807
 6570SOL    HW220277   3.953   4.014   1.829
 6571SOL     OW20278   5.190   5.141   0.953
 6571SOL    HW120279   5.131   5.147   1.033
 6571SOL    HW220280   5.175   5.053   0.907
 6572SOL     OW20281   5.391   5.438   0.572
 6572SOL    HW120282   5.350   5.415   0.484
 6572SOL    HW220283   5.373   5.364   0.637
 6573SOL     OW20284   4.322   4.453   0.270
 6573SOL    HW120285   4.346   4.522   0.202
 6573SOL    HW220286   4.244   4.486   0.324
 6574SOL     OW20287   5.005   4.069   0.944
 6574SOL    HW120288   4.919   4.019   0.931
 6574SOL    HW220289   5.067   4.015   1.000
 6575SOL     OW20290   4.531   4.329   1.465
 6575SOL    HW120291   4.484   4.326   1.554
 6575SOL    HW220292   4.480   4.274   1.399
 6576SOL     OW20293   5.118   4.193   1.674
 6576SOL    HW120294   5.098   4.236   1.762
 6576SOL    HW220295   5.196   4.131   1.683
 6577SOL     OW20296   4.697   4.614   1.572
 6577SOL    HW120297   4.743   4.530   1.543
 6577SOL    HW220298   4.641   4.648   1.497
 6578SOL     OW20299   4.715   4.134   1.242
 6578SOL    HW120300   4.638   4.168   1.296
 6578SOL    HW220301   4.681   4.083   1.163
 6579SOL     OW20302   4.765   4.425   0.429
 6579SOL    HW120303   4.791   4.421   0.525
 6579SOL    HW220304   4.680   4.374   0.415
 6580SOL     OW20305   3.800   4.535   0.789
 6580SOL    HW120306   3.899   4.523   0.798
 6580SOL    HW220307   3.776   4.630   0.810
 6581SOL     OW20308   4.589   4.072   0.195
 6581SOL    HW120309   4.648   4.135   0.146
 6581SOL    HW220310   4.608   3.978   0.166
 6582SOL     OW20311   5.086   4.868   0.545
 6582SOL    HW120312   5.169   4.839   0.497
 6582SOL    HW220313   5.037   4.935   0.489
 6583SOL     OW20314   4.274   3.920   0.885
 6583SOL    HW120315   4.269   3.915   0.985
 6583SOL    HW220316   4.276   4.016   0.856
 6584SOL     OW20317   4.732   5.180   0.477
 6584SOL    HW120318   4.686   5.252   0.425
 6584SOL    HW220319   4.728   5.200   0.575
 6585SOL     OW20320   4.951   5.274   1.506
 6585SOL    HW120321   4.957   5.197   1.570
 6585SOL    HW220322   4.899   5.248   1.426
 6586SOL     OW20323   4.045   4.667   0.242
 6586SOL    HW120324   4.127   4.706   0.200
 6586SOL    HW220325   4.018   4.585   0.193
 6587SOL     OW20326   4.185   4.990   1.727
 6587SOL    HW120327   4.135   4.991   1.641
 6587SOL    HW220328   4.122   4.972   1.803
 6588SOL     OW20329   4.835   5.500   0.237
 6588SOL    HW120330   4.775   5.438   0.287
 6588SOL    HW220331   4.866   5.456   0.152
 6589SOL     OW20332   3.926   4.009   1.498
 6589SOL    HW120333   3.846   4.069   1.485
 6589SOL    HW220334   3.916   3.960   1.584
 6590SOL     OW20335   5.124   3.831   0.426
 6590SOL    HW120336   5.100   3.794   0.336
 6590SOL    HW220337   5.223   3.847   0.430
 6591SOL     OW20338   4.106   4.424   0.480
 6591SOL    HW120339   4.151   4.334   0.477
 6591SOL    HW220340   4.012   4.413   0.513
 6592SOL     OW20341   4.338   3.846   0.117
 6592SOL    HW120342   4.436   3.824   0.124
 6592SOL    HW220343   4.307   3.829   0.024
 6593SOL     OW20344   4.505   3.988   1.749
 6593SOL    HW120345   4.572   3.927   1.792
 6593SOL    HW220346   4.432   4.007   1.814
 6594SOL     OW20347   5.075   4.314   1.433
 6594SOL    HW120348   5.103   4.271   1.518
 6594SOL    HW220349   5.100   4.410   1.434
 6595SOL     OW20350   4.527   5.126   0.924
 6595SOL    HW120351   4.617   5.140   0.882
 6595SOL    HW220352   4.456   5.128   0.853
 6596SOL     OW20353   4.646   4.227   0.899
 6596SOL    HW120354   4.621   4.218   0.803
 6596SOL    HW220355   4.694   4.145   0.930
 6597SOL     OW20356   4.263   3.788   0.512
 6597SOL    HW120357   4.182   3.789   0.570
 6597SOL    HW220358   4.266   3.871   0.457
 6598SOL     OW20359   5.158   4.912   0.041
 6598SOL    HW120360   5.190   4.836   0.098
 6598SOL    HW220361   5.066   4.939   0.071
 6599SOL     OW20362   4.021   3.759   0.171
 6599SOL    HW120363   4.070   3.843   0.150
 6599SOL    HW220364   4.083   3.694   0.216
 6600SOL     OW20365   4.659   3.960   0.480
 6600SOL    HW120366   4.611   4.001   0.402
 6600SOL    HW220367   4.758   3.958   0.461
 6601SOL     OW20368   4.800   4.407   1.464
 6601SOL    HW120369   4.720   4.346   1.467
 6601SOL    HW220370   4.881   4.354   1.440
 6602SOL     OW20371   4.951   5.294   0.793
 6602SOL    HW120372   4.972   5.368   0.728
 6602SOL    HW220373   5.019   5.294   0.866
 6603SOL     OW20374   4.183   4.876   0.741
 6603SOL    HW120375   4.112   4.849   0.806
 6603SOL    HW220376   4.157   4.848   0.648
 6604SOL     OW20377   4.756   4.273   0.016
 6604SOL    HW120378   4.715   4.355  -0.023
 6604SOL    HW220379   4.820   4.299   0.089
 6605SOL     OW20380   3.802   4.280   1.386
 6605SOL    HW120381   3.894   4.279   1.345
 6605SOL    HW220382   3.796   4.354   1.453
 6606SOL     OW20383   4.285   3.946   1.147
 6606SOL    HW120384   4.323   3.862   1.184
 6606SOL    HW220385   4.197   3.965   1.191
 6607SOL     OW20386   4.590   4.178   0.642
 6607SOL    HW120387   4.558   4.250   0.580
 6607SOL    HW220388   4.614   4.097   0.589
 6608SOL     OW20389   4.741   3.763   0.753
 6608SOL    HW120390   4.669   3.768   0.684
 6608SOL    HW220391   4.717   3.694   0.822
 6609SOL     OW20392   5.153   4.897   0.867
 6609SOL    HW120393   5.098   4.813   0.860
 6609SOL    HW220394   5.179   4.926   0.775
 6610SOL     OW20395   4.212   5.109   0.174
 6610SOL    HW120396   4.125   5.094   0.221
 6610SOL    HW220397   4.195   5.135   0.079
 6611SOL     OW20398   5.114   4.299   0.078
 6611SOL    HW120399   5.060   4.278   0.159
 6611SOL    HW220400   5.205   4.258   0.087
 6612SOL     OW20401   4.251   3.980   0.328
 6612SOL    HW120402   4.278   3.921   0.253
 6612SOL    HW220403   4.251   4.075   0.297
 6613SOL     OW20404   4.788   5.071   1.340
 6613SOL    HW120405   4.708   5.048   1.395
 6613SOL    HW220406   4.871   5.045   1.389
 6614SOL     OW20407   4.835   4.919   1.100
 6614SOL    HW120408   4.795   4.963   1.181
 6614SOL    HW220409   4.794   4.956   1.017
 6615SOL     OW20410   4.639   3.813   1.402
 6615SOL    HW120411   4.664   3.793   1.307
 6615SOL    HW220412   4.711   3.869   1.444
 6616SOL     OW20413   4.704   4.840   1.719
 6616SOL    HW120414   4.605   4.846   1.729
 6616SOL    HW220415   4.727   4.760   1.663
 6617SOL     OW20416   4.429   4.774   0.368
 6617SOL    HW120417   4.415   4.781   0.467
 6617SOL    HW220418   4.513   4.723   0.350
 6618SOL     OW20419   4.134   4.537   1.251
 6618SOL    HW120420   4.220   4.549   1.301
 6618SOL    HW220421   4.092   4.450   1.278
 6619SOL     OW20422   4.998   4.110   1.262
 6619SOL    HW120423   5.019   4.184   1.326
 6619SOL    HW220424   4.909   4.127   1.219
 6620SOL     OW20425   4.091   4.824   0.501
 6620SOL    HW120426   4.084   4.907   0.445
 6620SOL    HW220427   4.095   4.744   0.441
 6621SOL     OW20428   4.290   4.261   0.865
 6621SOL    HW120429   4.302   4.327   0.791
 6621SOL    HW220430   4.336   4.295   0.948
 6622SOL     OW20431   4.976   5.072   0.388
 6622SOL    HW120432   5.026   5.149   0.428
 6622SOL    HW220433   4.881   5.074   0.420
 6623SOL     OW20434   4.996   5.169   1.142
 6623SOL    HW120435   5.043   5.182   1.229
 6623SOL    HW220436   4.930   5.095   1.151
 6624SOL     OW20437   4.078   5.234   1.329
 6624SOL    HW120438   4.057   5.190   1.242
 6624SOL    HW220439   4.175   5.260   1.332
 6625SOL     OW20440   4.126   4.475   1.598
 6625SOL    HW120441   4.194   4.530   1.551
 6625SOL    HW220442   4.166   4.387   1.625
 6626SOL     OW20443   4.737   3.829   1.770
 6626SOL    HW120444   4.743   3.914   1.718
 6626SOL    HW220445   4.769   3.753   1.713
 6627SOL     OW20446   4.228   3.774   1.740
 6627SOL    HW120447   4.186   3.717   1.670
 6627SOL    HW220448   4.162   3.843   1.772
 6628SOL     OW20449   4.297   4.594   1.029
 6628SOL    HW120450   4.341   4.683   1.020
 6628SOL    HW220451   4.234   4.594   1.106
 6629SOL     OW20452   5.084   4.586   1.045
 6629SOL    HW120453   5.009   4.586   0.979
 6629SOL    HW220454   5.121   4.494   1.054
 6630SOL     OW20455   4.933   4.249   0.275
 6630SOL    HW120456   4.946   4.165   0.329
 6630SOL    HW220457   4.904   4.323   0.335
 6631SOL     OW20458   4.031   3.937   1.231
 6631SOL    HW120459   4.008   3.974   1.321
 6631SOL    HW220460   4.001   3.842   1.225
 6632SOL     OW20461   3.761   5.034   1.282
 6632SOL    HW120462   3.814   4.985   1.350
 6632SOL    HW220463   3.783   5.132   1.287
 6633SOL     OW20464   4.456   4.358   1.064
 6633SOL    HW120465   4.515   4.332   0.988
 6633SOL    HW220466   4.428   4.454   1.053
 6634SOL     OW20467   4.031   3.787   0.618
 6634SOL    HW120468   4.020   3.881   0.651
 6634SOL    HW220469   4.026   3.724   0.695
 6635SOL     OW20470   5.346   4.091   0.374
 6635SOL    HW120471   5.348   4.015   0.438
 6635SOL    HW220472   5.298   4.168   0.414
 6636SOL     OW20473   4.747   4.490   0.966
 6636SOL    HW120474   4.762   4.511   1.062
 6636SOL    HW220475   4.717   4.395   0.957
 6637SOL     OW20476   4.074   4.622   1.804
 6637SOL    HW120477   4.150   4.666   1.852
 6637SOL    HW220478   4.109   4.575   1.722
 6638SOL     OW20479   5.027   4.562   0.042
 6638SOL    HW120480   5.061   4.469   0.057
 6638SOL    HW220481   5.045   4.589  -0.053
 6639SOL     OW20482   4.792   5.057   0.849
 6639SOL    HW120483   4.799   4.973   0.794
 6639SOL    HW220484   4.854   5.126   0.813
 6640SOL     OW20485   4.043   4.534   0.949
 6640SOL    HW120486   4.136   4.570   0.954
 6640SOL    HW220487   4.037   4.449   1.001
 6641SOL     OW20488   4.063   4.233   1.006
 6641SOL    HW120489   4.011   4.150   0.989
 6641SOL    HW220490   4.140   4.238   0.942
 6642SOL     OW20491   4.862   4.104   1.678
 6642SOL    HW120492   4.817   4.167   1.742
 6642SOL    HW220493   4.955   4.135   1.661
 6643SOL     OW20494   4.884   3.931   1.477
 6643SOL    HW120495   4.884   3.995   1.554
 6643SOL    HW220496   4.912   3.979   1.394
 6644SOL     OW20497   3.732   5.050   0.200
 6644SOL    HW120498   3.639   5.071   0.169
 6644SOL    HW220499   3.742   4.951   0.213
 6645SOL     OW20500   4.726   4.520   1.238
 6645SOL    HW120501   4.767   4.488   1.324
 6645SOL    HW220502   4.630   4.493   1.235
 6646SOL     OW20503   3.764   4.268   1.114
 6646SOL    HW120504   3.849   4.235   1.073
 6646SOL    HW220505   3.777   4.283   1.212
 6647SOL     OW20506   3.913   4.244   1.722
 6647SOL    HW120507   3.972   4.204   1.652
 6647SOL    HW220508   3.855   4.315   1.681
 6648SOL     OW20509   5.093   4.674   1.660
 6648SOL    HW120510   5.132   4.763   1.680
 6648SOL    HW220511   5.103   4.654   1.563
 6649SOL     OW20512   4.539   4.296   0.325
 6649SOL    HW120513   4.546   4.207   0.279
 6649SOL    HW220514   4.445   4.330   0.317
 6650SOL     OW20515   3.976   5.288   1.744
 6650SOL    HW120516   3.946   5.345   1.820
 6650SOL    HW220517   3.969   5.191   1.770
 6651SOL     OW20518   4.395   4.188   1.269
 6651SOL    HW120519   4.361   4.099   1.239
 6651SOL    HW220520   4.421   4.242   1.189
 6652SOL     OW20521   4.197   4.224   0.191
 6652SOL    HW120522   4.258   4.304   0.195
 6652SOL    HW220523   4.102   4.255   0.198
 6653SOL     OW20524   3.883   4.861   1.466
 6653SOL    HW120525   3.905   4.800   1.542
 6653SOL    HW220526   3.893   4.812   1.380
 6654SOL     OW20527   5.071   4.783   1.234
 6654SOL    HW120528   5.095   4.720   1.160
 6654SOL    HW220529   4.981   4.823   1.216
 6655SOL     OW20530   5.026   4.579   0.309
 6655SOL    HW120531   4.940   4.548   0.351
 6655SOL    HW220532   5.022   4.565   0.210
 6656SOL     OW20533   3.807   4.982   1.022
 6656SOL    HW120534   3.802   4.981   1.122
 6656SOL    HW220535   3.724   4.941   0.984
 6657SOL     OW20536   4.412   5.386   1.716
 6657SOL    HW120537   4.356   5.467   1.725
 6657SOL    HW220538   4.464   5.390   1.630
 6658SOL     OW20539   4.627   3.810   0.133
 6658SOL    HW120540   4.678   3.811   0.047
 6658SOL    HW220541   4.683   3.768   0.204
 6659SOL     OW20542   5.450   3.859   0.523
 6659SOL    HW120543   5.523   3.842   0.456
 6659SOL    HW220544   5.419   3.772   0.561
 6660SOL     OW20545   5.004   4.651   0.672
 6660SOL    HW120546   5.064   4.570   0.674
 6660SOL    HW220547   5.044   4.720   0.612
 6661SOL     OW20548   4.554   4.997   1.422
 6661SOL    HW120549   4.549   5.030   1.517
 6661SOL    HW220550   4.468   5.016   1.376
 6662SOL     OW20551   3.987   4.050   0.720
 6662SOL    HW120552   3.908   4.101   0.686
 6662SOL    HW220553   3.978   4.035   0.818
 6663SOL     OW20554   4.918   5.336   0.031
 6663SOL    HW120555   4.924   5.243   0.068
 6663SOL    HW220556   4.859   5.336  -0.049
 6664SOL     OW20557   4.546   4.726   1.372
 6664SOL    HW120558   4.586   4.725   1.280
 6664SOL    HW220559   4.556   4.818   1.412
 6665SOL     OW20560   4.640   4.634   0.291
 6665SOL    HW120561   4.703   4.672   0.223
 6665SOL    HW220562   4.680   4.551   0.330
 6666SOL     OW20563   4.096   5.012   1.490
 6666SOL    HW120564   4.083   5.105   1.456
 6666SOL    HW220565   4.012   4.960   1.477
 6667SOL     OW20566   4.763   4.822   0.696
 6667SOL    HW120567   4.693   4.775   0.750
 6667SOL    HW220568   4.822   4.754   0.653
 6668SOL     OW20569   4.738   3.960   0.971
 6668SOL    HW120570   4.730   3.924   0.878
 6668SOL    HW220571   4.736   3.884   1.036
 6669SOL     OW20572   3.979   5.072   0.290
 6669SOL    HW120573   3.883   5.073   0.263
 6669SOL    HW220574   3.991   5.125   0.374
 6670SOL     OW20575   3.829   4.737   1.726
 6670SOL    HW120576   3.752   4.704   1.780
 6670SOL    HW220577   3.914   4.707   1.768
 6671SOL     OW20578   4.396   3.927   1.489
 6671SOL    HW120579   4.486   3.911   1.449
 6671SOL    HW220580   4.404   3.932   1.588
 6672SOL     OW20581   3.799   4.069   0.033
 6672SOL    HW120582   3.707   4.041   0.004
 6672SOL    HW220583   3.830   4.146  -0.023
 6673SOL     OW20584   5.164   4.580   1.398
 6673SOL    HW120585   5.107   4.632   1.335
 6673SOL    HW220586   5.260   4.592   1.374
 6674SOL     OW20587   3.796   3.890   0.318
 6674SOL    HW120588   3.779   3.973   0.264
 6674SOL    HW220589   3.886   3.853   0.296
 6675SOL     OW20590   4.907   5.059   0.119
 6675SOL    HW120591   4.808   5.048   0.121
 6675SOL    HW220592   4.941   5.074   0.212
 6676SOL     OW20593   4.337   4.566   1.431
 6676SOL    HW120594   4.393   4.647   1.414
 6676SOL    HW220595   4.396   4.486   1.434
 6677SOL     OW20596   4.440   4.289   1.708
 6677SOL    HW120597   4.459   4.354   1.782
 6677SOL    HW220598   4.500   4.209   1.717
 6678SOL     OW20599   5.174   4.944   1.633
 6678SOL    HW120600   5.165   4.934   1.732
 6678SOL    HW220601   5.270   4.937   1.607
 6679SOL     OW20602   4.949   4.049   0.449
 6679SOL    HW120603   5.014   3.975   0.438
 6679SOL    HW220604   4.969   4.099   0.533
 6680SOL     OW20605   4.318   4.469   0.652
 6680SOL    HW120606   4.368   4.554   0.633
 6680SOL    HW220607   4.230   4.471   0.604
 6681SOL     OW20608   4.583   5.098   0.016
 6681SOL    HW120609   4.537   5.113   0.104
 6681SOL    HW220610   4.627   5.183  -0.014
 6682SOL     OW20611   4.583   4.680   0.861
 6682SOL    HW120612   4.637   4.611   0.909
 6682SOL    HW220613   4.551   4.749   0.927
 6683SOL     OW20614   4.807   4.708   0.087
 6683SOL    HW120615   4.784   4.761   0.005
 6683SOL    HW220616   4.888   4.652   0.068
 6684SOL     OW20617   3.945   5.038   1.844
 6684SOL    HW120618   3.880   4.965   1.823
 6684SOL    HW220619   3.949   5.052   1.942
 6685SOL     OW20620   3.803   4.964   0.653
 6685SOL    HW120621   3.802   4.917   0.741
 6685SOL    HW220622   3.885   4.936   0.602
 6686SOL     OW20623   4.396   5.115   1.624
 6686SOL    HW120624   4.318   5.065   1.662
 6686SOL    HW220625   4.393   5.210   1.655
 6687SOL     OW20626   4.152   4.148   0.520
 6687SOL    HW120627   4.182   4.076   0.458
 6687SOL    HW220628   4.113   4.108   0.603
 6688SOL     OW20629   5.429   5.211   1.104
 6688SOL    HW120630   5.336   5.186   1.077
 6688SOL    HW220631   5.455   5.161   1.186
 6689SOL     OW20632   4.041   4.271   1.280
 6689SOL    HW120633   4.079   4.212   1.352
 6689SOL    HW220634   4.081   4.245   1.192
 6690SOL     OW20635   5.148   3.938   1.112
 6690SOL    HW120636   5.200   3.873   1.167
 6690SOL    HW220637   5.099   4.001   1.173
 6691SOL     OW20638   4.725   3.758   1.154
 6691SOL    HW120639   4.662   3.686   1.123
 6691SOL    HW220640   4.818   3.722   1.154
 6692SOL     OW20641   4.494   5.054   0.301
 6692SOL    HW120642   4.448   4.967   0.318
 6692SOL    HW220643   4.585   5.051   0.342
 6693SOL     OW20644   4.342   5.291   1.284
 6693SOL    HW120645   4.337   5.373   1.341
 6693SOL    HW220646   4.431   5.288   1.239
 6694SOL     OW20647   5.076   3.776   0.168
 6694SOL    HW120648   5.111   3.735   0.084
 6694SOL    HW220649   4.986   3.738   0.188
 6695SOL     OW20650   5.024   4.177   0.691
 6695SOL    HW120651   4.965   4.257   0.695
 6695SOL    HW220652   5.039   4.142   0.784
 6696SOL     OW20653   5.317   3.945   0.882
 6696SOL    HW120654   5.233   3.944   0.936
 6696SOL    HW220655   5.319   4.028   0.826
 6697SOL     OW20656   3.763   4.801   0.300
 6697SOL    HW120657   3.862   4.790   0.291
 6697SOL    HW220658   3.723   4.715   0.332
 6698SOL     OW20659   3.954   4.352   1.975
 6698SOL    HW120660   3.861   4.350   2.012
 6698SOL    HW220661   3.955   4.313   1.883
 6699SOL     OW20662   3.949   3.999   2.858
 6699SOL    HW120663   3.984   3.982   2.950
 6699SOL    HW220664   3.861   3.954   2.846
 6700SOL     OW20665   3.743   4.092   2.509
 6700SOL    HW120666   3.661   4.135   2.548
 6700SOL    HW220667   3.715   4.019   2.446
 6701SOL     OW20668   4.293   4.999   3.027
 6701SOL    HW120669   4.200   4.992   2.990
 6701SOL    HW220670   4.304   5.088   3.071
 6702SOL     OW20671   5.279   5.235   2.565
 6702SOL    HW120672   5.222   5.219   2.646
 6702SOL    HW220673   5.220   5.245   2.485
 6703SOL     OW20674   4.859   4.427   2.579
 6703SOL    HW120675   4.916   4.505   2.554
 6703SOL    HW220676   4.799   4.453   2.655
 6704SOL     OW20677   4.492   4.868   2.885
 6704SOL    HW120678   4.414   4.885   2.945
 6704SOL    HW220679   4.526   4.955   2.849
 6705SOL     OW20680   4.574   4.522   3.685
 6705SOL    HW120681   4.570   4.598   3.750
 6705SOL    HW220682   4.596   4.558   3.594
 6706SOL     OW20683   4.409   4.736   2.527
 6706SOL    HW120684   4.478   4.720   2.597
 6706SOL    HW220685   4.336   4.793   2.565
 6707SOL     OW20686   4.410   4.885   3.665
 6707SOL    HW120687   4.470   4.964   3.679
 6707SOL    HW220688   4.324   4.916   3.624
 6708SOL     OW20689   4.059   5.159   2.923
 6708SOL    HW120690   3.981   5.128   2.870
 6708SOL    HW220691   4.117   5.217   2.866
 6709SOL     OW20692   5.184   5.229   3.201
 6709SOL    HW120693   5.208   5.323   3.227
 6709SOL    HW220694   5.168   5.175   3.283
 6710SOL     OW20695   4.162   4.116   3.361
 6710SOL    HW120696   4.244   4.060   3.370
 6710SOL    HW220697   4.081   4.058   3.365
 6711SOL     OW20698   4.851   5.065   3.552
 6711SOL    HW120699   4.898   5.065   3.640
 6711SOL    HW220700   4.803   4.978   3.541
 6712SOL     OW20701   3.954   5.158   2.400
 6712SOL    HW120702   3.928   5.254   2.400
 6712SOL    HW220703   3.883   5.104   2.445
 6713SOL     OW20704   3.964   4.815   2.748
 6713SOL    HW120705   3.978   4.731   2.800
 6713SOL    HW220706   3.909   4.879   2.803
 6714SOL     OW20707   4.330   4.688   1.985
 6714SOL    HW120708   4.337   4.772   1.931
 6714SOL    HW220709   4.376   4.701   2.073
 6715SOL     OW20710   3.846   4.367   2.425
 6715SOL    HW120711   3.801   4.279   2.442
 6715SOL    HW220712   3.845   4.421   2.509
 6716SOL     OW20713   3.751   5.320   1.979
 6716SOL    HW120714   3.732   5.224   2.000
 6716SOL    HW220715   3.718   5.378   2.054
 6717SOL     OW20716   5.413   4.646   2.474
 6717SOL    HW120717   5.508   4.617   2.482
 6717SOL    HW220718   5.405   4.711   2.399
 6718SOL     OW20719   3.837   4.461   3.459
 6718SOL    HW120720   3.925   4.448   3.504
 6718SOL    HW220721   3.824   4.558   3.437
 6719SOL     OW20722   4.337   5.089   2.588
 6719SOL    HW120723   4.288   5.002   2.597
 6719SOL    HW220724   4.314   5.132   2.501
 6720SOL     OW20725   5.017   4.952   3.285
 6720SOL    HW120726   5.054   4.879   3.227
 6720SOL    HW220727   5.069   4.957   3.370
 6721SOL     OW20728   4.533   3.728   2.364
 6721SOL    HW120729   4.573   3.819   2.355
 6721SOL    HW220730   4.433   3.736   2.370
 6722SOL     OW20731   3.921   4.700   3.126
 6722SOL    HW120732   4.010   4.655   3.112
 6722SOL    HW220733   3.848   4.635   3.107
 6723SOL     OW20734   4.041   3.975   3.663
 6723SOL    HW120735   4.112   4.046   3.669
 6723SOL    HW220736   3.953   4.014   3.691
 6724SOL     OW20737   5.190   5.141   2.815
 6724SOL    HW120738   5.131   5.147   2.895
 6724SOL    HW220739   5.175   5.053   2.769
 6725SOL     OW20740   5.391   5.438   2.434
 6725SOL    HW120741   5.350   5.415   2.346
 6725SOL    HW220742   5.373   5.364   2.499
 6726SOL     OW20743   4.322   4.453   2.132
 6726SOL    HW120744   4.346   4.522   2.064
 6726SOL    HW220745   4.244   4.486   2.186
 6727SOL     OW20746   5.005   4.069   2.806
 6727SOL    HW120747   4.919   4.019   2.793
 6727SOL    HW220748   5.067   4.015   2.862
 6728SOL     OW20749   4.531   4.329   3.327
 6728SOL    HW120750   4.484   4.326   3.416
 6728SOL    HW220751   4.480   4.274   3.261
 6729SOL     OW20752   5.118   4.193   3.536
 6729SOL    HW120753   5.098   4.236   3.624
 6729SOL    HW220754   5.196   4.131   3.545
 6730SOL     OW20755   4.697   4.614   3.434
 6730SOL    HW120756   4.743   4.530   3.405
 6730SOL    HW220757   4.641   4.648   3.359
 6731SOL     OW20758   4.715   4.134   3.104
 6731SOL    HW120759   4.638   4.168   3.158
 6731SOL    HW220760   4.681   4.083   3.025
 6732SOL     OW20761   4.765   4.425   2.291
 6732SOL    HW120762   4.791   4.421   2.387
 6732SOL    HW220763   4.680   4.374   2.277
 6733SOL     OW20764   3.800   4.535   2.651
 6733SOL    HW120765   3.899   4.523   2.660
 6733SOL    HW220766   3.776   4.630   2.672
 6734SOL     OW20767   4.589   4.072   2.057
 6734SOL    HW120768   4.648   4.135   2.008
 6734SOL    HW220769   4.608   3.978   2.028
 6735SOL     OW20770   5.086   4.868   2.407
 6735SOL    HW120771   5.169   4.839   2.359
 6735SOL    HW220772   5.037   4.935   2.351
 6736SOL     OW20773   4.274   3.920   2.747
 6736SOL    HW120774   4.269   3.915   2.847
 6736SOL    HW220775   4.276   4.016   2.718
 6737SOL     OW20776   4.732   5.180   2.339
 6737SOL    HW120777   4.686   5.252   2.287
 6737SOL    HW220778   4.728   5.200   2.437
 6738SOL     OW20779   4.951   5.274   3.368
 6738SOL    HW120780   4.957   5.197   3.432
 6738SOL    HW220781   4.899   5.248   3.288
 6739SOL     OW20782   4.045   4.667   2.104
 6739SOL    HW120783   4.127   4.706   2.062
 6739SOL    HW220784   4.018   4.585   2.055
 6740SOL     OW20785   4.185   4.990   3.589
 6740SOL    HW120786   4.135   4.991   3.503
 6740SOL    HW220787   4.122   4.972   3.665
 6741SOL     OW20788   4.835   5.500   2.099
 6741SOL    HW120789   4.775   5.438   2.149
 6741SOL    HW220790   4.866   5.456   2.014
 6742SOL     OW20791   3.926   4.009   3.360
 6742SOL    HW120792   3.846   4.069   3.347
 6742SOL    HW220793   3.916   3.960   3.446
 6743SOL     OW20794   5.124   3.831   2.288
 6743SOL    HW120795   5.100   3.794   2.198
 6743SOL    HW220796   5.223   3.847   2.292
 6744SOL     OW20797   4.106   4.424   2.342
 6744SOL    HW120798   4.151   4.334   2.339
 6744SOL    HW220799   4.012   4.413   2.375
 6745SOL     OW20800   4.338   3.846   1.979
 6745SOL    HW120801   4.436   3.824   1.986
 6745SOL    HW220802   4.307   3.829   1.886
 6746SOL     OW20803   4.505   3.988   3.611
 6746SOL    HW120804   4.572   3.927   3.654
 6746SOL    HW220805   4.432   4.007   3.676
 6747SOL     OW20806   5.075   4.314   3.295
 6747SOL    HW120807   5.103   4.271   3.380
 6747SOL    HW220808   5.100   4.410   3.296
 6748SOL     OW20809   4.527   5.126   2.786
 6748SOL    HW120810   4.617   5.140   2.744
 6748SOL    HW220811   4.456   5.128   2.715
 6749SOL     OW20812   4.646   4.227   2.761
 6749SOL    HW120813   4.621   4.218   2.665
 6749SOL    HW220814   4.694   4.145   2.792
 6750SOL     OW20815   4.263   3.788   2.374
 6750SOL    HW120816   4.182   3.789   2.432
 6750SOL    HW220817   4.266   3.871   2.319
 6751SOL     OW20818   5.158   4.912   1.903
 6751SOL    HW120819   5.190   4.836   1.960
 6751SOL    HW220820   5.066   4.939   1.933
 6752SOL     OW20821   4.021   3.759   2.033
 6752SOL    HW120822   4.070   3.843   2.012
 6752SOL    HW220823   4.083   3.694   2.078
 6753SOL     OW20824   4.659   3.960   2.342
 6753SOL    HW120825   4.611   4.001   2.264
 6753SOL    HW220826   4.758   3.958   2.323
 6754SOL     OW20827   4.800   4.407   3.326
 6754SOL    HW120828   4.720   4.346   3.329
 6754SOL    HW220829   4.881   4.354   3.302
 6755SOL     OW20830   4.951   5.294   2.655
 6755SOL    HW120831   4.972   5.368   2.590
 6755SOL    HW220832   5.019   5.294   2.728
 6756SOL     OW20833   4.183   4.876   2.603
 6756SOL    HW120834   4.112   4.849   2.668
 6756SOL    HW220835   4.157   4.848   2.510
 6757SOL     OW20836   4.756   4.273   1.878
 6757SOL    HW120837   4.715   4.355   1.839
 6757SOL    HW220838   4.820   4.299   1.951
 6758SOL     OW20839   3.802   4.280   3.248
 6758SOL    HW120840   3.894   4.279   3.207
 6758SOL    HW220841   3.796   4.354   3.315
 6759SOL     OW20842   4.285   3.946   3.009
 6759SOL    HW120843   4.323   3.862   3.046
 6759SOL    HW220844   4.197   3.965   3.053
 6760SOL     OW20845   4.590   4.178   2.504
 6760SOL    HW120846   4.558   4.250   2.442
 6760SOL    HW220847   4.614   4.097   2.451
 6761SOL     OW20848   4.741   3.763   2.615
 6761SOL    HW120849   4.669   3.768   2.546
 6761SOL    HW220850   4.717   3.694   2.684
 6762SOL     OW20851   5.153   4.897   2.729
 6762SOL    HW120852   5.098   4.813   2.722
 6762SOL    HW220853   5.179   4.926   2.637
 6763SOL     OW20854   4.212   5.109   2.036
 6763SOL    HW120855   4.125   5.094   2.083
 6763SOL    HW220856   4.195   5.135   1.941
 6764SOL     OW20857   5.114   4.299   1.940
 6764SOL    HW120858   5.060   4.278   2.021
 6764SOL    HW220859   5.205   4.258   1.949
 6765SOL     OW20860   4.251   3.980   2.190
 6765SOL    HW120861   4.278   3.921   2.115
 6765SOL    HW220862   4.251   4.075   2.159
 6766SOL     OW20863   4.788   5.071   3.202
 6766SOL    HW120864   4.708   5.048   3.257
 6766SOL    HW220865   4.871   5.045   3.251
 6767SOL     OW20866   4.835   4.919   2.962
 6767SOL    HW120867   4.795   4.963   3.043
 6767SOL    HW220868   4.794   4.956   2.879
 6768SOL     OW20869   4.639   3.813   3.264
 6768SOL    HW120870   4.664   3.793   3.169
 6768SOL    HW220871   4.711   3.869   3.306
 6769SOL     OW20872   4.704   4.840   3.581
 6769SOL    HW120873   4.605   4.846   3.591
 6769SOL    HW220874   4.727   4.760   3.525
 6770SOL     OW20875   4.429   4.774   2.230
 6770SOL    HW120876   4.415   4.781   2.329
 6770SOL    HW220877   4.513   4.723   2.212
 6771SOL     OW20878   4.134   4.537   3.113
 6771SOL    HW120879   4.220   4.549   3.163
 6771SOL    HW220880   4.092   4.450   3.140
 6772SOL     OW20881   4.998   4.110   3.124
 6772SOL    HW120882   5.019   4.184   3.188
 6772SOL    HW220883   4.909   4.127   3.081
 6773SOL     OW20884   4.091   4.824   2.363
 6773SOL    HW120885   4.084   4.907   2.307
 6773SOL    HW220886   4.095   4.744   2.303
 6774SOL     OW20887   4.290   4.261   2.727
 6774SOL    HW120888   4.302   4.327   2.653
 6774SOL    HW220889   4.336   4.295   2.810
 6775SOL     OW20890   4.976   5.072   2.250
 6775SOL    HW120891   5.026   5.149   2.290
 6775SOL    HW220892   4.881   5.074   2.282
 6776SOL     OW20893   4.996   5.169   3.004
 6776SOL    HW120894   5.043   5.182   3.091
 6776SOL    HW220895   4.930   5.095   3.013
 6777SOL     OW20896   4.078   5.234   3.191
 6777SOL    HW120897   4.057   5.190   3.104
 6777SOL    HW220898   4.175   5.260   3.194
 6778SOL     OW20899   4.126   4.475   3.460
 6778SOL    HW120900   4.194   4.530   3.413
 6778SOL    HW220901   4.166   4.387   3.487
 6779SOL     OW20902   4.737   3.829   3.632
 6779SOL    HW120903   4.743   3.914   3.580
 6779SOL    HW220904   4.769   3.753   3.575
 6780SOL     OW20905   4.228   3.774   3.602
 6780SOL    HW120906   4.186   3.717   3.532
 6780SOL    HW220907   4.162   3.843   3.634
 6781SOL     OW20908   4.297   4.594   2.891
 6781SOL    HW120909   4.341   4.683   2.882
 6781SOL    HW220910   4.234   4.594   2.968
 6782SOL     OW20911   5.084   4.586   2.907
 6782SOL    HW120912   5.009   4.586   2.841
 6782SOL    HW220913   5.121   4.494   2.916
 6783SOL     OW20914   4.933   4.249   2.137
 6783SOL    HW120915   4.946   4.165   2.191
 6783SOL    HW220916   4.904   4.323   2.197
 6784SOL     OW20917   4.031   3.937   3.093
 6784SOL    HW120918   4.008   3.974   3.183
 6784SOL    HW220919   4.001   3.842   3.087
 6785SOL     OW20920   3.761   5.034   3.144
 6785SOL    HW120921   3.814   4.985   3.212
 6785SOL    HW220922   3.783   5.132   3.149
 6786SOL     OW20923   4.456   4.358   2.926
 6786SOL    HW120924   4.515   4.332   2.850
 6786SOL    HW220925   4.428   4.454   2.915
 6787SOL     OW20926   4.031   3.787   2.480
 6787SOL    HW120927   4.020   3.881   2.513
 6787SOL    HW220928   4.026   3.724   2.557
 6788SOL     OW20929   5.346   4.091   2.236
 6788SOL    HW120930   5.348   4.015   2.300
 6788SOL    HW220931   5.298   4.168   2.276
 6789SOL     OW20932   4.747   4.490   2.828
 6789SOL    HW120933   4.762   4.511   2.924
 6789SOL    HW220934   4.717   4.395   2.819
 6790SOL     OW20935   4.074   4.622   3.666
 6790SOL    HW120936   4.150   4.666   3.714
 6790SOL    HW220937   4.109   4.575   3.584
 6791SOL     OW20938   5.027   4.562   1.904
 6791SOL    HW120939   5.061   4.469   1.919
 6791SOL    HW220940   5.045   4.589   1.809
 6792SOL     OW20941   4.792   5.057   2.711
 6792SOL    HW120942   4.799   4.973   2.656
 6792SOL    HW220943   4.854   5.126   2.675
 6793SOL     OW20944   4.043   4.534   2.811
 6793SOL    HW120945   4.136   4.570   2.816
 6793SOL    HW220946   4.037   4.449   2.863
 6794SOL     OW20947   4.063   4.233   2.868
 6794SOL    HW120948   4.011   4.150   2.851
 6794SOL    HW220949   4.140   4.238   2.804
 6795SOL     OW20950   4.862   4.104   3.540
 6795SOL    HW120951   4.817   4.167   3.604
 6795SOL    HW220952   4.955   4.135   3.523
 6796SOL     OW20953   4.884   3.931   3.339
 6796SOL    HW120954   4.884   3.995   3.416
 6796SOL    HW220955   4.912   3.979   3.256
 6797SOL     OW20956   3.732   5.050   2.062
 6797SOL    HW120957   3.639   5.071   2.031
 6797SOL    HW220958   3.742   4.951   2.075
 6798SOL     OW20959   4.726   4.520   3.100
 6798SOL    HW120960   4.767   4.488   3.186
 6798SOL    HW220961   4.630   4.493   3.097
 6799SOL     OW20962   3.764   4.268   2.976
 6799SOL    HW120963   3.849   4.235   2.935
 6799SOL    HW220964   3.777   4.283   3.074
 6800SOL     OW20965   3.913   4.244   3.584
 6800SOL    HW120966   3.972   4.204   3.514
 6800SOL    HW220967   3.855   4.315   3.543
 6801SOL     OW20968   5.093   4.674   3.522
 6801SOL    HW120969   5.132   4.763   3.542
 6801SOL    HW220970   5.103   4.654   3.425
 6802SOL     OW20971   4.539   4.296   2.187
 6802SOL    HW120972   4.546   4.207   2.141
 6802SOL    HW220973   4.445   4.330   2.179
 6803SOL     OW20974   3.976   5.288   3.606
 6803SOL    HW120975   3.946   5.345   3.682
 6803SOL    HW220976   3.969   5.191   3.632
 6804SOL     OW20977   4.395   4.188   3.131
 6804SOL    HW120978   4.361   4.099   3.101
 6804SOL    HW220979   4.421   4.242   3.051
 6805SOL     OW20980   4.197   4.224   2.053
 6805SOL    HW120981   4.258   4.304   2.057
 6805SOL    HW220982   4.102   4.255   2.060
 6806SOL     OW20983   3.883   4.861   3.328
 6806SOL    HW120984   3.905   4.800   3.404
 6806SOL    HW220985   3.893   4.812   3.242
 6807SOL     OW20986   5.071   4.783   3.096
 6807SOL    HW120987   5.095   4.720   3.022
 6807SOL    HW220988   4.981   4.823   3.078
 6808SOL     OW20989   5.026   4.579   2.171
 6808SOL    HW120990   4.940   4.548   2.213
 6808SOL    HW220991   5.022   4.565   2.072
 6809SOL     OW20992   3.807   4.982   2.884
 6809SOL    HW120993   3.802   4.981   2.984
 6809SOL    HW220994   3.724   4.941   2.846
 6810SOL     OW20995   4.412   5.386   3.578
 6810SOL    HW120996   4.356   5.467   3.587
 6810SOL    HW220997   4.464   5.390   3.492
 6811SOL     OW20998   5.450   3.859   2.385
 6811SOL    HW120999   5.523   3.842   2.318
 6811SOL    HW221000   5.419   3.772   2.423
 6812SOL     OW21001   5.004   4.651   2.534
 6812SOL    HW121002   5.064   4.570   2.536
 6812SOL    HW221003   5.044   4.720   2.474
 6813SOL     OW21004   4.554   4.997   3.284
 6813SOL    HW121005   4.549   5.030   3.379
 6813SOL    HW221006   4.468   5.016   3.238
 6814SOL     OW21007   3.987   4.050   2.582
 6814SOL    HW121008   3.908   4.101   2.548
 6814SOL    HW221009   3.978   4.035   2.680
 6815SOL     OW21010   4.546   4.726   3.234
 6815SOL    HW121011   4.586   4.725   3.142
 6815SOL    HW221012   4.556   4.818   3.274
 6816SOL     OW21013   4.640   4.634   2.153
 6816SOL    HW121014   4.703   4.672   2.085
 6816SOL    HW221015   4.680   4.551   2.192
 6817SOL     OW21016   4.096   5.012   3.352
 6817SOL    HW121017   4.083   5.105   3.318
 6817SOL    HW221018   4.012   4.960   3.339
 6818SOL     OW21019   4.763   4.822   2.558
 6818SOL    HW121020   4.693   4.775   2.612
 6818SOL    HW221021   4.822   4.754   2.515
 6819SOL     OW21022   4.738   3.960   2.833
 6819SOL    HW121023   4.730   3.924   2.740
 6819SOL    HW221024   4.736   3.884   2.898
 6820SOL     OW21025   3.979   5.072   2.152
 6820SOL    HW121026   3.883   5.073   2.125
 6820SOL    HW221027   3.991   5.125   2.236
 6821SOL     OW21028   3.829   4.737   3.588
 6821SOL    HW121029   3.752   4.704   3.642
 6821SOL    HW221030   3.914   4.707   3.630
 6822SOL     OW21031   4.396   3.927   3.351
 6822SOL    HW121032   4.486   3.911   3.311
 6822SOL    HW221033   4.404   3.932   3.450
 6823SOL     OW21034   3.799   4.069   1.895
 6823SOL    HW121035   3.707   4.041   1.866
 6823SOL    HW221036   3.830   4.146   1.839
 6824SOL     OW21037   5.164   4.580   3.260
 6824SOL    HW121038   5.107   4.632   3.197
 6824SOL    HW221039   5.260   4.592   3.236
 6825SOL     OW21040   3.796   3.890   2.180
 6825SOL    HW121041   3.779   3.973   2.126
 6825SOL    HW221042   3.886   3.853   2.158
 6826SOL     OW21043   4.907   5.059   1.981
 6826SOL    HW121044   4.808   5.048   1.983
 6826SOL    HW221045   4.941   5.074   2.074
 6827SOL     OW21046   4.337   4.566   3.293
 6827SOL    HW121047   4.393   4.647   3.276
 6827SOL    HW221048   4.396   4.486   3.296
 6828SOL     OW21049   4.440   4.289   3.570
 6828SOL    HW121050   4.459   4.354   3.644
 6828SOL    HW221051   4.500   4.209   3.579
 6829SOL     OW21052   5.174   4.944   3.495
 6829SOL    HW121053   5.165   4.934   3.594
 6829SOL    HW221054   5.270   4.937   3.469
 6830SOL     OW21055   4.949   4.049   2.311
 6830SOL    HW121056   5.014   3.975   2.300
 6830SOL    HW221057   4.969   4.099   2.395
 6831SOL     OW21058   4.318   4.469   2.514
 6831SOL    HW121059   4.368   4.554   2.495
 6831SOL    HW221060   4.230   4.471   2.466
 6832SOL     OW21061   4.583   5.098   1.878
 6832SOL    HW121062   4.537   5.113   1.966
 6832SOL    HW221063   4.627   5.183   1.848
 6833SOL     OW21064   4.583   4.680   2.723
 6833SOL    HW121065   4.637   4.611   2.771
 6833SOL    HW221066   4.551   4.749   2.789
 6834SOL     OW21067   4.807   4.708   1.949
 6834SOL    HW121068   4.784   4.761   1.867
 6834SOL    HW221069   4.888   4.652   1.930
 6835SOL     OW21070   3.945   5.038   3.706
 6835SOL    HW121071   3.880   4.965   3.685
 6835SOL    HW221072   3.949   5.052   3.804
 6836SOL     OW21073   3.803   4.964   2.515
 6836SOL    HW121074   3.802   4.917   2.603
 6836SOL    HW221075   3.885   4.936   2.464
 6837SOL     OW21076   4.396   5.115   3.486
 6837SOL    HW121077   4.318   5.065   3.524
 6837SOL    HW221078   4.393   5.210   3.517
 6838SOL     OW21079   4.152   4.148   2.382
 6838SOL    HW121080   4.182   4.076   2.320
 6838SOL    HW221081   4.113   4.108   2.465
 6839SOL     OW21082   5.429   5.211   2.966
 6839SOL    HW121083   5.336   5.186   2.939
 6839SOL    HW221084   5.455   5.161   3.048
 6840SOL     OW21085   4.041   4.271   3.142
 6840SOL    HW121086   4.079   4.212   3.214
 6840SOL    HW221087   4.081   4.245   3.054
 6841SOL     OW21088   5.148   3.938   2.974
 6841SOL    HW121089   5.200   3.873   3.029
 6841SOL    HW221090   5.099   4.001   3.035
 6842SOL     OW21091   4.725   3.758   3.016
 6842SOL    HW121092   4.662   3.686   2.985
 6842SOL    HW221093   4.818   3.722   3.016
 6843SOL     OW21094   4.494   5.054   2.163
 6843SOL    HW121095   4.448   4.967   2.180
 6843SOL    HW221096   4.585   5.051   2.204
 6844SOL     OW21097   4.342   5.291   3.146
 6844SOL    HW121098   4.337   5.373   3.203
 6844SOL    HW221099   4.431   5.288   3.101
 6845SOL     OW21100   5.076   3.776   2.030
 6845SOL    HW121101   5.111   3.735   1.946
 6845SOL    HW221102   4.986   3.738   2.050
 6846SOL     OW21103   5.024   4.177   2.553
 6846SOL    HW121104   4.965   4.257   2.557
 6846SOL    HW221105   5.039   4.142   2.646
 6847SOL     OW21106   5.317   3.945   2.744
 6847SOL    HW121107   5.233   3.944   2.798
 6847SOL    HW221108   5.319   4.028   2.688
 6848SOL     OW21109   3.763   4.801   2.162
 6848SOL    HW121110   3.862   4.790   2.153
 6848SOL    HW221111   3.723   4.715   2.194
 6849SOL     OW21112   3.954   4.352   3.837
 6849SOL    HW121113   3.861   4.350   3.874
 6849SOL    HW221114   3.955   4.313   3.745
 6850SOL     OW21115   3.949   3.999   4.720
 6850SOL    HW121116   3.984   3.982   4.812
 6850SOL    HW221117   3.861   3.954   4.708
 6851SOL     OW21118   3.743   4.092   4.371
 6851SOL    HW121119   3.661   4.135   4.410
 6851SOL    HW221120   3.715   4.019   4.308
 6852SOL     OW21121   4.293   4.999   4.889
 6852SOL    HW121122   4.200   4.992   4.852
 6852SOL    HW221123   4.304   5.088   4.933
 6853SOL     OW21124   5.279   5.235   4.427
 6853SOL    HW121125   5.222   5.219   4.508
 6853SOL    HW221126   5.220   5.245   4.347
 6854SOL     OW21127   4.859   4.427   4.441
 6854SOL    HW121128   4.916   4.505   4.416
 6854SOL    HW221129   4.799   4.453   4.517
 6855SOL     OW21130   4.492   4.868   4.747
 6855SOL    HW121131   4.414   4.885   4.807
 6855SOL    HW221132   4.526   4.955   4.711
 6856SOL     OW21133   4.574   4.522   5.547
 6856SOL    HW121134   4.570   4.598   5.612
 6856SOL    HW221135   4.596   4.558   5.456
 6857SOL     OW21136   4.409   4.736   4.389
 6857SOL    HW121137   4.478   4.720   4.459
 6857SOL    HW221138   4.336   4.793   4.427
 6858SOL     OW21139   4.410   4.885   5.527
 6858SOL    HW121140   4.470   4.964   5.541
 6858SOL    HW221141   4.324   4.916   5.486
 6859SOL     OW21142   4.059   5.159   4.785
 6859SOL    HW121143   3.981   5.128   4.732
 6859SOL    HW221144   4.117   5.217   4.728
 6860SOL     OW21145   5.184   5.229   5.063
 6860SOL    HW121146   5.208   5.323   5.089
 6860SOL    HW221147   5.168   5.175   5.145
 6861SOL     OW21148   4.162   4.116   5.223
 6861SOL    HW121149   4.244   4.060   5.232
 6861SOL    HW221150   4.081   4.058   5.227
 6862SOL     OW21151   4.851   5.065   5.414
 6862SOL    HW121152   4.898   5.065   5.502
 6862SOL    HW221153   4.803   4.978   5.403
 6863SOL     OW21154   3.954   5.158   4.262
 6863SOL    HW121155   3.928   5.254   4.262
 6863SOL    HW221156   3.883   5.104   4.307
 6864SOL     OW21157   3.964   4.815   4.610
 6864SOL    HW121158   3.978   4.731   4.662
 6864SOL    HW221159   3.909   4.879   4.665
 6865SOL     OW21160   4.330   4.688   3.847
 6865SOL    HW121161   4.337   4.772   3.793
 6865SOL    HW221162   4.376   4.701   3.935
 6866SOL     OW21163   3.846   4.367   4.287
 6866SOL    HW121164   3.801   4.279   4.304
 6866SOL    HW221165   3.845   4.421   4.371
 6867SOL     OW21166   3.751   5.320   3.841
 6867SOL    HW121167   3.732   5.224   3.862
 6867SOL    HW221168   3.718   5.378   3.916
 6868SOL     OW21169   5.413   4.646   4.336
 6868SOL    HW121170   5.508   4.617   4.344
 6868SOL    HW221171   5.405   4.711   4.261
 6869SOL     OW21172   3.837   4.461   5.321
 6869SOL    HW121173   3.925   4.448   5.366
 6869SOL    HW221174   3.824   4.558   5.299
 6870SOL     OW21175   4.337   5.089   4.450
 6870SOL    HW121176   4.288   5.002   4.459
 6870SOL    HW221177   4.314   5.132   4.363
 6871SOL     OW21178   5.017   4.952   5.147
 6871SOL    HW121179   5.054   4.879   5.089
 6871SOL    HW221180   5.069   4.957   5.232
 6872SOL     OW21181   4.533   3.728   4.226
 6872SOL    HW121182   4.573   3.819   4.217
 6872SOL    HW221183   4.433   3.736   4.232
 6873SOL     OW21184   3.921   4.700   4.988
 6873SOL    HW121185   4.010   4.655   4.974
 6873SOL    HW221186   3.848   4.635   4.969
 6874SOL     OW21187   4.041   3.975   5.525
 6874SOL    HW121188   4.112   4.046   5.531
 6874SOL    HW221189   3.953   4.014   5.553
 6875SOL     OW21190   5.190   5.141   4.677
 6875SOL    HW121191   5.131   5.147   4.757
 6875SOL    HW221192   5.175   5.053   4.631
 6876SOL     OW21193   5.391   5.438   4.296
 6876SOL    HW121194   5.350   5.415   4.208
 6876SOL    HW221195   5.373   5.364   4.361
 6877SOL     OW21196   4.322   4.453   3.994
 6877SOL    HW121197   4.346   4.522   3.926
 6877SOL    HW221198   4.244   4.486   4.048
 6878SOL     OW21199   5.005   4.069   4.668
 6878SOL    HW121200   4.919   4.019   4.655
 6878SOL    HW221201   5.067   4.015   4.724
 6879SOL     OW21202   4.531   4.329   5.189
 6879SOL    HW121203   4.484   4.326   5.278
 6879SOL    HW221204   4.480   4.274   5.123
 6880SOL     OW21205   5.118   4.193   5.398
 6880SOL    HW121206   5.098   4.236   5.486
 6880SOL    HW221207   5.196   4.131   5.407
 6881SOL     OW21208   4.697   4.614   5.296
 6881SOL    HW121209   4.743   4.530   5.267
 6881SOL    HW221210   4.641   4.648   5.221
 6882SOL     OW21211   4.715   4.134   4.966
 6882SOL    HW121212   4.638   4.168   5.020
 6882SOL    HW221213   4.681   4.083   4.887
 6883SOL     OW21214   4.765   4.425   4.153
 6883SOL    HW121215   4.791   4.421   4.249
 6883SOL    HW221216   4.680   4.374   4.139
 6884SOL     OW21217   3.800   4.535   4.513
 6884SOL    HW121218   3.899   4.523   4.522
 6884SOL    HW221219   3.776   4.630   4.534
 6885SOL     OW21220   4.589   4.072   3.919
 6885SOL    HW121221   4.648   4.135   3.870
 6885SOL    HW221222   4.608   3.978   3.890
 6886SOL     OW21223   5.086   4.868   4.269
 6886SOL    HW121224   5.169   4.839   4.221
 6886SOL    HW221225   5.037   4.935   4.213
 6887SOL     OW21226   4.274   3.920   4.609
 6887SOL    HW121227   4.269   3.915   4.709
 6887SOL    HW221228   4.276   4.016   4.580
 6888SOL     OW21229   4.732   5.180   4.201
 6888SOL    HW121230   4.686   5.252   4.149
 6888SOL    HW221231   4.728   5.200   4.299
 6889SOL     OW21232   4.951   5.274   5.230
 6889SOL    HW121233   4.957   5.197   5.294
 6889SOL    HW221234   4.899   5.248   5.150
 6890SOL     OW21235   4.045   4.667   3.966
 6890SOL    HW121236   4.127   4.706   3.924
 6890SOL    HW221237   4.018   4.585   3.917
 6891SOL     OW21238   4.185   4.990   5.451
 6891SOL    HW121239   4.135   4.991   5.365
 6891SOL    HW221240   4.122   4.972   5.527
 6892SOL     OW21241   4.835   5.500   3.961
 6892SOL    HW121242   4.775   5.438   4.011
 6892SOL    HW221243   4.866   5.456   3.876
 6893SOL     OW21244   3.926   4.009   5.222
 6893SOL    HW121245   3.846   4.069   5.209
 6893SOL    HW221246   3.916   3.960   5.308
 6894SOL     OW21247   5.124   3.831   4.150
 6894SOL    HW121248   5.100   3.794   4.060
 6894SOL    HW221249   5.223   3.847   4.154
 6895SOL     OW21250   4.106   4.424   4.204
 6895SOL    HW121251   4.151   4.334   4.201
 6895SOL    HW221252   4.012   4.413   4.237
 6896SOL     OW21253   4.338   3.846   3.841
 6896SOL    HW121254   4.436   3.824   3.848
 6896SOL    HW221255   4.307   3.829   3.748
 6897SOL     OW21256   4.505   3.988   5.473
 6897SOL    HW121257   4.572   3.927   5.516
 6897SOL    HW221258   4.432   4.007   5.538
 6898SOL     OW21259   5.075   4.314   5.157
 6898SOL    HW121260   5.103   4.271   5.242
 6898SOL    HW221261   5.100   4.410   5.158
 6899SOL     OW21262   4.527   5.126   4.648
 6899SOL    HW121263   4.617   5.140   4.606
 6899SOL    HW221264   4.456   5.128   4.577
 6900SOL     OW21265   4.646   4.227   4.623
 6900SOL    HW121266   4.621   4.218   4.527
 6900SOL    HW221267   4.694   4.145   4.654
 6901SOL     OW21268   4.263   3.788   4.236
 6901SOL    HW121269   4.182   3.789   4.294
 6901SOL    HW221270   4.266   3.871   4.181
 6902SOL     OW21271   5.158   4.912   3.765
 6902SOL    HW121272   5.190   4.836   3.822
 6902SOL    HW221273   5.066   4.939   3.795
 6903SOL     OW21274   4.021   3.759   3.895
 6903SOL    HW121275   4.070   3.843   3.874
 6903SOL    HW221276   4.083   3.694   3.940
 6904SOL     OW21277   4.659   3.960   4.204
 6904SOL    HW121278   4.611   4.001   4.126
 6904SOL    HW221279   4.758   3.958   4.185
 6905SOL     OW21280   4.800   4.407   5.188
 6905SOL    HW121281   4.720   4.346   5.191
 6905SOL    HW221282   4.881   4.354   5.164
 6906SOL     OW21283   4.951   5.294   4.517
 6906SOL    HW121284   4.972   5.368   4.452
 6906SOL    HW221285   5.019   5.294   4.590
 6907SOL     OW21286   4.183   4.876   4.465
 6907SOL    HW121287   4.112   4.849   4.530
 6907SOL    HW221288   4.157   4.848   4.372
 6908SOL     OW21289   4.756   4.273   3.740
 6908SOL    HW121290   4.715   4.355   3.701
 6908SOL    HW221291   4.820   4.299   3.813
 6909SOL     OW21292   3.802   4.280   5.110
 6909SOL    HW121293   3.894   4.279   5.069
 6909SOL    HW221294   3.796   4.354   5.177
 6910SOL     OW21295   4.285   3.946   4.871
 6910SOL    HW121296   4.323   3.862   4.908
 6910SOL    HW221297   4.197   3.965   4.915
 6911SOL     OW21298   4.590   4.178   4.366
 6911SOL    HW121299   4.558   4.250   4.304
 6911SOL    HW221300   4.614   4.097   4.313
 6912SOL     OW21301   4.741   3.763   4.477
 6912SOL    HW121302   4.669   3.768   4.408
 6912SOL    HW221303   4.717   3.694   4.546
 6913SOL     OW21304   5.153   4.897   4.591
 6913SOL    HW121305   5.098   4.813   4.584
 6913SOL    HW221306   5.179   4.926   4.499
 6914SOL     OW21307   4.212   5.109   3.898
 6914SOL    HW121308   4.125   5.094   3.945
 6914SOL    HW221309   4.195   5.135   3.803
 6915SOL     OW21310   5.114   4.299   3.802
 6915SOL    HW121311   5.060   4.278   3.883
 6915SOL    HW221312   5.205   4.258   3.811
 6916SOL     OW21313   4.251   3.980   4.052
 6916SOL    HW121314   4.278   3.921   3.977
 6916SOL    HW221315   4.251   4.075   4.021
 6917SOL     OW21316   4.788   5.071   5.064
 6917SOL    HW121317   4.708   5.048   5.119
 6917SOL    HW221318   4.871   5.045   5.113
 6918SOL     OW21319   4.835   4.919   4.824
 6918SOL    HW121320   4.795   4.963   4.905
 6918SOL    HW221321   4.794   4.956   4.741
 6919SOL     OW21322   4.639   3.813   5.126
 6919SOL    HW121323   4.664   3.793   5.031
 6919SOL    HW221324   4.711   3.869   5.168
 6920SOL     OW21325   4.704   4.840   5.443
 6920SOL    HW121326   4.605   4.846   5.453
 6920SOL    HW221327   4.727   4.760   5.387
 6921SOL     OW21328   4.429   4.774   4.092
 6921SOL    HW121329   4.415   4.781   4.191
 6921SOL    HW221330   4.513   4.723   4.074
 6922SOL     OW21331   4.134   4.537   4.975
 6922SOL    HW121332   4.220   4.549   5.025
 6922SOL    HW221333   4.092   4.450   5.002
 6923SOL     OW21334   4.998   4.110   4.986
 6923SOL    HW121335   5.019   4.184   5.050
 6923SOL    HW221336   4.909   4.127   4.943
 6924SOL     OW21337   4.091   4.824   4.225
 6924SOL    HW121338   4.084   4.907   4.169
 6924SOL    HW221339   4.095   4.744   4.165
 6925SOL     OW21340   4.290   4.261   4.589
 6925SOL    HW121341   4.302   4.327   4.515
 6925SOL    HW221342   4.336   4.295   4.672
 6926SOL     OW21343   4.976   5.072   4.112
 6926SOL    HW121344   5.026   5.149   4.152
 6926SOL    HW221345   4.881   5.074   4.144
 6927SOL     OW21346   4.996   5.169   4.866
 6927SOL    HW121347   5.043   5.182   4.953
 6927SOL    HW221348   4.930   5.095   4.875
 6928SOL     OW21349   4.078   5.234   5.053
 6928SOL    HW121350   4.057   5.190   4.966
 6928SOL    HW221351   4.175   5.260   5.056
 6929SOL     OW21352   4.126   4.475   5.322
 6929SOL    HW121353   4.194   4.530   5.275
 6929SOL    HW221354   4.166   4.387   5.349
 6930SOL     OW21355   4.737   3.829   5.494
 6930SOL    HW121356   4.743   3.914   5.442
 6930SOL    HW221357   4.769   3.753   5.437
 6931SOL     OW21358   4.228   3.774   5.464
 6931SOL    HW121359   4.186   3.717   5.394
 6931SOL    HW221360   4.162   3.843   5.496
 6932SOL     OW21361   4.297   4.594   4.753
 6932SOL    HW121362   4.341   4.683   4.744
 6932SOL    HW221363   4.234   4.594   4.830
 6933SOL     OW21364   5.084   4.586   4.769
 6933SOL    HW121365   5.009   4.586   4.703
 6933SOL    HW221366   5.121   4.494   4.778
 6934SOL     OW21367   4.933   4.249   3.999
 6934SOL    HW121368   4.946   4.165   4.053
 6934SOL    HW221369   4.904   4.323   4.059
 6935SOL     OW21370   4.031   3.937   4.955
 6935SOL    HW121371   4.008   3.974   5.045
 6935SOL    HW221372   4.001   3.842   4.949
 6936SOL     OW21373   3.761   5.034   5.006
 6936SOL    HW121374   3.814   4.985   5.074
 6936SOL    HW221375   3.783   5.132   5.011
 6937SOL     OW21376   4.456   4.358   4.788
 6937SOL    HW121377   4.515   4.332   4.712
 6937SOL    HW221378   4.428   4.454   4.777
 6938SOL     OW21379   4.031   3.787   4.342
 6938SOL    HW121380   4.020   3.881   4.375
 6938SOL    HW221381   4.026   3.724   4.419
 6939SOL     OW21382   5.346   4.091   4.098
 6939SOL    HW121383   5.348   4.015   4.162
 6939SOL    HW221384   5.298   4.168   4.138
 6940SOL     OW21385   4.747   4.490   4.690
 6940SOL    HW121386   4.762   4.511   4.786
 6940SOL    HW221387   4.717   4.395   4.681
 6941SOL     OW21388   4.074   4.622   5.528
 6941SOL    HW121389   4.150   4.666   5.576
 6941SOL    HW221390   4.109   4.575   5.446
 6942SOL     OW21391   5.027   4.562   3.766
 6942SOL    HW121392   5.061   4.469   3.781
 6942SOL    HW221393   5.045   4.589   3.671
 6943SOL     OW21394   4.792   5.057   4.573
 6943SOL    HW121395   4.799   4.973   4.518
 6943SOL    HW221396   4.854   5.126   4.537
 6944SOL     OW21397   4.043   4.534   4.673
 6944SOL    HW121398   4.136   4.570   4.678
 6944SOL    HW221399   4.037   4.449   4.725
 6945SOL     OW21400   4.063   4.233   4.730
 6945SOL    HW121401   4.011   4.150   4.713
 6945SOL    HW221402   4.140   4.238   4.666
 6946SOL     OW21403   4.862   4.104   5.402
 6946SOL    HW121404   4.817   4.167   5.466
 6946SOL    HW221405   4.955   4.135   5.385
 6947SOL     OW21406   4.884   3.931   5.201
 6947SOL    HW121407   4.884   3.995   5.278
 6947SOL    HW221408   4.912   3.979   5.118
 6948SOL     OW21409   3.732   5.050   3.924
 6948SOL    HW121410   3.639   5.071   3.893
 6948SOL    HW221411   3.742   4.951   3.937
 6949SOL     OW21412   4.726   4.520   4.962
 6949SOL    HW121413   4.767   4.488   5.048
 6949SOL    HW221414   4.630   4.493   4.959
 6950SOL     OW21415   3.764   4.268   4.838
 6950SOL    HW121416   3.849   4.235   4.797
 6950SOL    HW221417   3.777   4.283   4.936
 6951SOL     OW21418   3.913   4.244   5.446
 6951SOL    HW121419   3.972   4.204   5.376
 6951SOL    HW221420   3.855   4.315   5.405
 6952SOL     OW21421   5.093   4.674   5.384
 6952SOL    HW121422   5.132   4.763   5.404
 6952SOL    HW221423   5.103   4.654   5.287
 6953SOL     OW21424   4.539   4.296   4.049
 6953SOL    HW121425   4.546   4.207   4.003
 6953SOL    HW221426   4.445   4.330   4.041
 6954SOL     OW21427   3.976   5.288   5.468
 6954SOL    HW121428   3.946   5.345   5.544
 6954SOL    HW221429   3.969   5.191   5.494
 6955SOL     OW21430   4.395   4.188   4.993
 6955SOL    HW121431   4.361   4.099   4.963
 6955SOL    HW221432   4.421   4.242   4.913
 6956SOL     OW21433   4.197   4.224   3.915
 6956SOL    HW121434   4.258   4.304   3.919
 6956SOL    HW221435   4.102   4.255   3.922
 6957SOL     OW21436   3.883   4.861   5.190
 6957SOL    HW121437   3.905   4.800   5.266
 6957SOL    HW221438   3.893   4.812   5.104
 6958SOL     OW21439   5.071   4.783   4.958
 6958SOL    HW121440   5.095   4.720   4.884
 6958SOL    HW221441   4.981   4.823   4.940
 6959SOL     OW21442   5.026   4.579   4.033
 6959SOL    HW121443   4.940   4.548   4.075
 6959SOL    HW221444   5.022   4.565   3.934
 6960SOL     OW21445   3.807   4.982   4.746
 6960SOL    HW121446   3.802   4.981   4.846
 6960SOL    HW221447   3.724   4.941   4.708
 6961SOL     OW21448   4.412   5.386   5.440
 6961SOL    HW121449   4.356   5.467   5.449
 6961SOL    HW221450   4.464   5.390   5.354
 6962SOL     OW21451   5.450   3.859   4.247
 6962SOL    HW121452   5.523   3.842   4.180
 6962SOL    HW221453   5.419   3.772   4.285
 6963SOL     OW21454   5.004   4.651   4.396
 6963SOL    HW121455   5.064   4.570   4.398
 6963SOL    HW221456   5.044   4.720   4.336
 6964SOL     OW21457   4.554   4.997   5.146
 6964SOL    HW121458   4.549   5.030   5.241
 6964SOL    HW221459   4.468   5.016   5.100
 6965SOL     OW21460   3.987   4.050   4.444
 6965SOL    HW121461   3.908   4.101   4.410
 6965SOL    HW221462   3.978   4.035   4.542
 6966SOL     OW21463   4.546   4.726   5.096
 6966SOL    HW121464   4.586   4.725   5.004
 6966SOL    HW221465   4.556   4.818   5.136
 6967SOL     OW21466   4.640   4.634   4.015
 6967SOL    HW121467   4.703   4.672   3.947
 6967SOL    HW221468   4.680   4.551   4.054
 6968SOL     OW21469   4.096   5.012   5.214
 6968SOL    HW121470   4.083   5.105   5.180
 6968SOL    HW221471   4.012   4.960   5.201
 6969SOL     OW21472   4.763   4.822   4.420
 6969SOL    HW121473   4.693   4.775   4.474
 6969SOL    HW221474   4.822   4.754   4.377
 6970SOL     OW21475   4.738   3.960   4.695
 6970SOL    HW121476   4.730   3.924   4.602
 6970SOL    HW221477   4.736   3.884   4.760
 6971SOL     OW21478   3.979   5.072   4.014
 6971SOL    HW121479   3.883   5.073   3.987
 6971SOL    HW221480   3.991   5.125   4.098
 6972SOL     OW21481   3.829   4.737   5.450
 6972SOL    HW121482   3.752   4.704   5.504
 6972SOL    HW221483   3.914   4.707   5.492
 6973SOL     OW21484   4.396   3.927   5.213
 6973SOL    HW121485   4.486   3.911   5.173
 6973SOL    HW221486   4.404   3.932   5.312
 6974SOL     OW21487   3.799   4.069   3.757
 6974SOL    HW121488   3.707   4.041   3.728
 6974SOL    HW221489   3.830   4.146   3.701
 6975SOL     OW21490   5.164   4.580   5.122
 6975SOL    HW121491   5.107   4.632   5.059
 6975SOL    HW221492   5.260   4.592   5.098
 6976SOL     OW21493   3.796   3.890   4.042
 6976SOL    HW121494   3.779   3.973   3.988
 6976SOL    HW221495   3.886   3.853   4.020
 6977SOL     OW21496   4.907   5.059   3.843
 6977SOL    HW121497   4.808   5.048   3.845
 6977SOL    HW221498   4.941   5.074   3.936
 6978SOL     OW21499   4.337   4.566   5.155
 6978SOL    HW121500   4.393   4.647   5.138
 6978SOL    HW221501   4.396   4.486   5.158
 6979SOL     OW21502   4.440   4.289   5.432
 6979SOL    HW121503   4.459   4.354   5.506
 6979SOL    HW221504   4.500   4.209   5.441
 6980SOL     OW21505   5.174   4.944   5.357
 6980SOL    HW121506   5.165   4.934   5.456
 6980SOL    HW221507   5.270   4.937   5.331
 6981SOL     OW21508   4.949   4.049   4.173
 6981SOL    HW121509   5.014   3.975   4.162
 6981SOL    HW221510   4.969   4.099   4.257
 6982SOL     OW21511   4.318   4.469   4.376
 6982SOL    HW121512   4.368   4.554   4.357
 6982SOL    HW221513   4.230   4.471   4.328
 6983SOL     OW21514   4.583   5.098   3.740
 6983SOL    HW121515   4.537   5.113   3.828
 6983SOL    HW221516   4.627   5.183   3.710
 6984SOL     OW21517   4.583   4.680   4.585
 6984SOL    HW121518   4.637   4.611   4.633
 6984SOL    HW221519   4.551   4.749   4.651
 6985SOL     OW21520   4.807   4.708   3.811
 6985SOL    HW121521   4.784   4.761   3.729
 6985SOL    HW221522   4.888   4.652   3.792
 6986SOL     OW21523   3.945   5.038   5.568
 6986SOL    HW121524   3.880   4.965   5.547
 6986SOL    HW221525   3.949   5.052   5.666
 6987SOL     OW21526   3.803   4.964   4.377
 6987SOL    HW121527   3.802   4.917   4.465
 6987SOL    HW221528   3.885   4.936   4.326
 6988SOL     OW21529   4.396   5.115   5.348
 6988SOL    HW121530   4.318   5.065   5.386
 6988SOL    HW221531   4.393   5.210   5.379
 6989SOL     OW21532   4.152   4.148   4.244
 6989SOL    HW121533   4.182   4.076   4.182
 6989SOL    HW221534   4.113   4.108   4.327
 6990SOL     OW21535   5.429   5.211   4.828
 6990SOL    HW121536   5.336   5.186   4.801
 6990SOL    HW221537   5.455   5.161   4.910
 6991SOL     OW21538   4.041   4.271   5.004
 6991SOL    HW121539   4.079   4.212   5.076
 6991SOL    HW221540   4.081   4.245   4.916
 6992SOL     OW21541   5.148   3.938   4.836
 6992SOL    HW121542   5.200   3.873   4.891
 6992SOL    HW221543   5.099   4.001   4.897
 6993SOL     OW21544   4.725   3.758   4.878
 6993SOL    HW121545   4.662   3.686   4.847
 6993SOL    HW221546   4.818   3.722   4.878
 6994SOL     OW21547   4.494   5.054   4.025
 6994SOL    HW121548   4.448   4.967   4.042
 6994SOL    HW221549   4.585   5.051   4.066
 6995SOL     OW21550   4.342   5.291   5.008
 6995SOL    HW121551   4.337   5.373   5.065
 6995SOL    HW221552   4.431   5.288   4.963
 6996SOL     OW21553   5.076   3.776   3.892
 6996SOL    HW121554   5.111   3.735   3.808
 6996SOL    HW221555   4.986   3.738   3.912
 6997SOL     OW21556   5.024   4.177   4.415
 6997SOL    HW121557   4.965   4.257   4.419
 6997SOL    HW221558   5.039   4.142   4.508
 6998SOL     OW21559   5.317   3.945   4.606
 6998SOL    HW121560   5.233   3.944   4.660
 6998SOL    HW221561   5.319   4.028   4.550
 6999SOL     OW21562   3.763   4.801   4.024
 6999SOL    HW121563   3.862   4.790   4.015
 6999SOL    HW221564   3.723   4.715   4.056
 7000SOL     OW21565   3.954   4.352   5.699
 7000SOL    HW121566   3.861   4.350   5.736
 7000SOL    HW221567   3.955   4.313   5.607
 7001SOL     OW21568   3.949   3.999   6.582
 7001SOL    HW121569   3.984   3.982   6.674
 7001SOL    HW221570   3.861   3.954   6.570
 7002SOL     OW21571   3.743   4.092   6.233
 7002SOL    HW121572   3.661   4.135   6.272
 7002SOL    HW221573   3.715   4.019   6.170
 7003SOL     OW21574   4.293   4.999   6.751
 7003SOL    HW121575   4.200   4.992   6.714
 7003SOL    HW221576   4.304   5.088   6.795
 7004SOL     OW21577   5.279   5.235   6.289
 7004SOL    HW121578   5.222   5.219   6.370
 7004SOL    HW221579   5.220   5.245   6.209
 7005SOL     OW21580   4.859   4.427   6.303
 7005SOL    HW121581   4.916   4.505   6.278
 7005SOL    HW221582   4.799   4.453   6.379
 7006SOL     OW21583   4.492   4.868   6.609
 7006SOL    HW121584   4.414   4.885   6.669
 7006SOL    HW221585   4.526   4.955   6.573
 7007SOL     OW21586   4.574   4.522   7.409
 7007SOL    HW121587   4.570   4.598   7.474
 7007SOL    HW221588   4.596   4.558   7.318
 7008SOL     OW21589   4.409   4.736   6.251
 7008SOL    HW121590   4.478   4.720   6.321
 7008SOL    HW221591   4.336   4.793   6.289
 7009SOL     OW21592   4.410   4.885   7.389
 7009SOL    HW121593   4.470   4.964   7.403
 7009SOL    HW221594   4.324   4.916   7.348
 7010SOL     OW21595   4.059   5.159   6.647
 7010SOL    HW121596   3.981   5.128   6.594
 7010SOL    HW221597   4.117   5.217   6.590
 7011SOL     OW21598   5.184   5.229   6.925
 7011SOL    HW121599   5.208   5.323   6.951
 7011SOL    HW221600   5.168   5.175   7.007
 7012SOL     OW21601   4.162   4.116   7.085
 7012SOL    HW121602   4.244   4.060   7.094
 7012SOL    HW221603   4.081   4.058   7.089
 7013SOL     OW21604   4.851   5.065   7.276
 7013SOL    HW121605   4.898   5.065   7.364
 7013SOL    HW221606   4.803   4.978   7.265
 7014SOL     OW21607   3.954   5.158   6.124
 7014SOL    HW121608   3.928   5.254   6.124
 7014SOL    HW221609   3.883   5.104   6.169
 7015SOL     OW21610   3.964   4.815   6.472
 7015SOL    HW121611   3.978   4.731   6.524
 7015SOL    HW221612   3.909   4.879   6.527
 7016SOL     OW21613   4.330   4.688   5.709
 7016SOL    HW121614   4.337   4.772   5.655
 7016SOL    HW221615   4.376   4.701   5.797
 7017SOL     OW21616   3.846   4.367   6.149
 7017SOL    HW121617   3.801   4.279   6.166
 7017SOL    HW221618   3.845   4.421   6.233
 7018SOL     OW21619   3.751   5.320   5.703
 7018SOL    HW121620   3.732   5.224   5.724
 7018SOL    HW221621   3.718   5.378   5.778
 7019SOL     OW21622   5.413   4.646   6.198
 7019SOL    HW121623   5.508   4.617   6.206
 7019SOL    HW221624   5.405   4.711   6.123
 7020SOL     OW21625   3.837   4.461   7.183
 7020SOL    HW121626   3.925   4.448   7.228
 7020SOL    HW221627   3.824   4.558   7.161
 7021SOL     OW21628   4.337   5.089   6.312
 7021SOL    HW121629   4.288   5.002   6.321
 7021SOL    HW221630   4.314   5.132   6.225
 7022SOL     OW21631   5.017   4.952   7.009
 7022SOL    HW121632   5.054   4.879   6.951
 7022SOL    HW221633   5.069   4.957   7.094
 7023SOL     OW21634   4.533   3.728   6.088
 7023SOL    HW121635   4.573   3.819   6.079
 7023SOL    HW221636   4.433   3.736   6.094
 7024SOL     OW21637   3.921   4.700   6.850
 7024SOL    HW121638   4.010   4.655   6.836
 7024SOL    HW221639   3.848   4.635   6.831
 7025SOL     OW21640   4.041   3.975   7.387
 7025SOL    HW121641   4.112   4.046   7.393
 7025SOL    HW221642   3.953   4.014   7.415
 7026SOL     OW21643   5.190   5.141   6.539
 7026SOL    HW121644   5.131   5.147   6.619
 7026SOL    HW221645   5.175   5.053   6.493
 7027SOL     OW21646   5.391   5.438   6.158
 7027SOL    HW121647   5.350   5.415   6.070
 7027SOL    HW221648   5.373   5.364   6.223
 7028SOL     OW21649   4.322   4.453   5.856
 7028SOL    HW121650   4.346   4.522   5.788
 7028SOL    HW221651   4.244   4.486   5.910
 7029SOL     OW21652   5.005   4.069   6.530
 7029SOL    HW121653   4.919   4.019   6.517
 7029SOL    HW221654   5.067   4.015   6.586
 7030SOL     OW21655   4.531   4.329   7.051
 7030SOL    HW121656   4.484   4.326   7.140
 7030SOL    HW221657   4.480   4.274   6.985
 7031SOL     OW21658   5.118   4.193   7.260
 7031SOL    HW121659   5.098   4.236   7.348
 7031SOL    HW221660   5.196   4.131   7.269
 7032SOL     OW21661   4.697   4.614   7.158
 7032SOL    HW121662   4.743   4.530   7.129
 7032SOL    HW221663   4.641   4.648   7.083
 7033SOL     OW21664   4.715   4.134   6.828
 7033SOL    HW121665   4.638   4.168   6.882
 7033SOL    HW221666   4.681   4.083   6.749
 7034SOL     OW21667   4.765   4.425   6.015
 7034SOL    HW121668   4.791   4.421   6.111
 7034SOL    HW221669   4.680   4.374   6.001
 7035SOL     OW21670   3.800   4.535   6.375
 7035SOL    HW121671   3.899   4.523   6.384
 7035SOL    HW221672   3.776   4.630   6.396
 7036SOL     OW21673   4.589   4.072   5.781
 7036SOL    HW121674   4.648   4.135   5.732
 7036SOL    HW221675   4.608   3.978   5.752
 7037SOL     OW21676   5.086   4.868   6.131
 7037SOL    HW121677   5.169   4.839   6.083
 7037SOL    HW221678   5.037   4.935   6.075
 7038SOL     OW21679   4.274   3.920   6.471
 7038SOL    HW121680   4.269   3.915   6.571
 7038SOL    HW221681   4.276   4.016   6.442
 7039SOL     OW21682   4.732   5.180   6.063
 7039SOL    HW121683   4.686   5.252   6.011
 7039SOL    HW221684   4.728   5.200   6.161
 7040SOL     OW21685   4.951   5.274   7.092
 7040SOL    HW121686   4.957   5.197   7.156
 7040SOL    HW221687   4.899   5.248   7.012
 7041SOL     OW21688   4.045   4.667   5.828
 7041SOL    HW121689   4.127   4.706   5.786
 7041SOL    HW221690   4.018   4.585   5.779
 7042SOL     OW21691   4.185   4.990   7.313
 7042SOL    HW121692   4.135   4.991   7.227
 7042SOL    HW221693   4.122   4.972   7.389
 7043SOL     OW21694   4.835   5.500   5.823
 7043SOL    HW121695   4.775   5.438   5.873
 7043SOL    HW221696   4.866   5.456   5.738
 7044SOL     OW21697   3.926   4.009   7.084
 7044SOL    HW121698   3.846   4.069   7.071
 7044SOL    HW221699   3.916   3.960   7.170
 7045SOL     OW21700   5.124   3.831   6.012
 7045SOL    HW121701   5.100   3.794   5.922
 7045SOL    HW221702   5.223   3.847   6.016
 7046SOL     OW21703   4.106   4.424   6.066
 7046SOL    HW121704   4.151   4.334   6.063
 7046SOL    HW221705   4.012   4.413   6.099
 7047SOL     OW21706   4.338   3.846   5.703
 7047SOL    HW121707   4.436   3.824   5.710
 7047SOL    HW221708   4.307   3.829   5.610
 7048SOL     OW21709   4.505   3.988   7.335
 7048SOL    HW121710   4.572   3.927   7.378
 7048SOL    HW221711   4.432   4.007   7.400
 7049SOL     OW21712   5.075   4.314   7.019
 7049SOL    HW121713   5.103   4.271   7.104
 7049SOL    HW221714   5.100   4.410   7.020
 7050SOL     OW21715   4.527   5.126   6.510
 7050SOL    HW121716   4.617   5.140   6.468
 7050SOL    HW221717   4.456   5.128   6.439
 7051SOL     OW21718   4.646   4.227   6.485
 7051SOL    HW121719   4.621   4.218   6.389
 7051SOL    HW221720   4.694   4.145   6.516
 7052SOL     OW21721   4.263   3.788   6.098
 7052SOL    HW121722   4.182   3.789   6.156
 7052SOL    HW221723   4.266   3.871   6.043
 7053SOL     OW21724   5.158   4.912   5.627
 7053SOL    HW121725   5.190   4.836   5.684
 7053SOL    HW221726   5.066   4.939   5.657
 7054SOL     OW21727   4.021   3.759   5.757
 7054SOL    HW121728   4.070   3.843   5.736
 7054SOL    HW221729   4.083   3.694   5.802
 7055SOL     OW21730   4.659   3.960   6.066
 7055SOL    HW121731   4.611   4.001   5.988
 7055SOL    HW221732   4.758   3.958   6.047
 7056SOL     OW21733   4.800   4.407   7.050
 7056SOL    HW121734   4.720   4.346   7.053
 7056SOL    HW221735   4.881   4.354   7.026
 7057SOL     OW21736   4.951   5.294   6.379
 7057SOL    HW121737   4.972   5.368   6.314
 7057SOL    HW221738   5.019   5.294   6.452
 7058SOL     OW21739   4.183   4.876   6.327
 7058SOL    HW121740   4.112   4.849   6.392
 7058SOL    HW221741   4.157   4.848   6.234
 7059SOL     OW21742   4.756   4.273   5.602
 7059SOL    HW121743   4.715   4.355   5.563
 7059SOL    HW221744   4.820   4.299   5.675
 7060SOL     OW21745   3.802   4.280   6.972
 7060SOL    HW121746   3.894   4.279   6.931
 7060SOL    HW221747   3.796   4.354   7.039
 7061SOL     OW21748   4.285   3.946   6.733
 7061SOL    HW121749   4.323   3.862   6.770
 7061SOL    HW221750   4.197   3.965   6.777
 7062SOL     OW21751   4.590   4.178   6.228
 7062SOL    HW121752   4.558   4.250   6.166
 7062SOL    HW221753   4.614   4.097   6.175
 7063SOL     OW21754   4.741   3.763   6.339
 7063SOL    HW121755   4.669   3.768   6.270
 7063SOL    HW221756   4.717   3.694   6.408
 7064SOL     OW21757   5.153   4.897   6.453
 7064SOL    HW121758   5.098   4.813   6.446
 7064SOL    HW221759   5.179   4.926   6.361
 7065SOL     OW21760   4.212   5.109   5.760
 7065SOL    HW121761   4.125   5.094   5.807
 7065SOL    HW221762   4.195   5.135   5.665
 7066SOL     OW21763   5.114   4.299   5.664
 7066SOL    HW121764   5.060   4.278   5.745
 7066SOL    HW221765   5.205   4.258   5.673
 7067SOL     OW21766   4.251   3.980   5.914
 7067SOL    HW121767   4.278   3.921   5.839
 7067SOL    HW221768   4.251   4.075   5.883
 7068SOL     OW21769   4.788   5.071   6.926
 7068SOL    HW121770   4.708   5.048   6.981
 7068SOL    HW221771   4.871   5.045   6.975
 7069SOL     OW21772   4.835   4.919   6.686
 7069SOL    HW121773   4.795   4.963   6.767
 7069SOL    HW221774   4.794   4.956   6.603
 7070SOL     OW21775   4.639   3.813   6.988
 7070SOL    HW121776   4.664   3.793   6.893
 7070SOL    HW221777   4.711   3.869   7.030
 7071SOL     OW21778   4.704   4.840   7.305
 7071SOL    HW121779   4.605   4.846   7.315
 7071SOL    HW221780   4.727   4.760   7.249
 7072SOL     OW21781   4.429   4.774   5.954
 7072SOL    HW121782   4.415   4.781   6.053
 7072SOL    HW221783   4.513   4.723   5.936
 7073SOL     OW21784   4.134   4.537   6.837
 7073SOL    HW121785   4.220   4.549   6.887
 7073SOL    HW221786   4.092   4.450   6.864
 7074SOL     OW21787   4.998   4.110   6.848
 7074SOL    HW121788   5.019   4.184   6.912
 7074SOL    HW221789   4.909   4.127   6.805
 7075SOL     OW21790   4.091   4.824   6.087
 7075SOL    HW121791   4.084   4.907   6.031
 7075SOL    HW221792   4.095   4.744   6.027
 7076SOL     OW21793   4.290   4.261   6.451
 7076SOL    HW121794   4.302   4.327   6.377
 7076SOL    HW221795   4.336   4.295   6.534
 7077SOL     OW21796   4.976   5.072   5.974
 7077SOL    HW121797   5.026   5.149   6.014
 7077SOL    HW221798   4.881   5.074   6.006
 7078SOL     OW21799   4.996   5.169   6.728
 7078SOL    HW121800   5.043   5.182   6.815
 7078SOL    HW221801   4.930   5.095   6.737
 7079SOL     OW21802   4.078   5.234   6.915
 7079SOL    HW121803   4.057   5.190   6.828
 7079SOL    HW221804   4.175   5.260   6.918
 7080SOL     OW21805   4.126   4.475   7.184
 7080SOL    HW121806   4.194   4.530   7.137
 7080SOL    HW221807   4.166   4.387   7.211
 7081SOL     OW21808   4.737   3.829   7.356
 7081SOL    HW121809   4.743   3.914   7.304
 7081SOL    HW221810   4.769   3.753   7.299
 7082SOL     OW21811   4.228   3.774   7.326
 7082SOL    HW121812   4.186   3.717   7.256
 7082SOL    HW221813   4.162   3.843   7.358
 7083SOL     OW21814   4.297   4.594   6.615
 7083SOL    HW121815   4.341   4.683   6.606
 7083SOL    HW221816   4.234   4.594   6.692
 7084SOL     OW21817   5.084   4.586   6.631
 7084SOL    HW121818   5.009   4.586   6.565
 7084SOL    HW221819   5.121   4.494   6.640
 7085SOL     OW21820   4.933   4.249   5.861
 7085SOL    HW121821   4.946   4.165   5.915
 7085SOL    HW221822   4.904   4.323   5.921
 7086SOL     OW21823   4.031   3.937   6.817
 7086SOL    HW121824   4.008   3.974   6.907
 7086SOL    HW221825   4.001   3.842   6.811
 7087SOL     OW21826   3.761   5.034   6.868
 7087SOL    HW121827   3.814   4.985   6.936
 7087SOL    HW221828   3.783   5.132   6.873
 7088SOL     OW21829   4.456   4.358   6.650
 7088SOL    HW121830   4.515   4.332   6.574
 7088SOL    HW221831   4.428   4.454   6.639
 7089SOL     OW21832   4.031   3.787   6.204
 7089SOL    HW121833   4.020   3.881   6.237
 7089SOL    HW221834   4.026   3.724   6.281
 7090SOL     OW21835   5.346   4.091   5.960
 7090SOL    HW121836   5.348   4.015   6.024
 7090SOL    HW221837   5.298   4.168   6.000
 7091SOL     OW21838   4.747   4.490   6.552
 7091SOL    HW121839   4.762   4.511   6.648
 7091SOL    HW221840   4.717   4.395   6.543
 7092SOL     OW21841   4.074   4.622   7.390
 7092SOL    HW121842   4.150   4.666   7.438
 7092SOL    HW221843   4.109   4.575   7.308
 7093SOL     OW21844   5.027   4.562   5.628
 7093SOL    HW121845   5.061   4.469   5.643
 7093SOL    HW221846   5.045   4.589   5.533
 7094SOL     OW21847   4.792   5.057   6.435
 7094SOL    HW121848   4.799   4.973   6.380
 7094SOL    HW221849   4.854   5.126   6.399
 7095SOL     OW21850   4.043   4.534   6.535
 7095SOL    HW121851   4.136   4.570   6.540
 7095SOL    HW221852   4.037   4.449   6.587
 7096SOL     OW21853   4.063   4.233   6.592
 7096SOL    HW121854   4.011   4.150   6.575
 7096SOL    HW221855   4.140   4.238   6.528
 7097SOL     OW21856   4.862   4.104   7.264
 7097SOL    HW121857   4.817   4.167   7.328
 7097SOL    HW221858   4.955   4.135   7.247
 7098SOL     OW21859   4.884   3.931   7.063
 7098SOL    HW121860   4.884   3.995   7.140
 7098SOL    HW221861   4.912   3.979   6.980
 7099SOL     OW21862   3.732   5.050   5.786
 7099SOL    HW121863   3.639   5.071   5.755
 7099SOL    HW221864   3.742   4.951   5.799
 7100SOL     OW21865   4.726   4.520   6.824
 7100SOL    HW121866   4.767   4.488   6.910
 7100SOL    HW221867   4.630   4.493   6.821
 7101SOL     OW21868   3.764   4.268   6.700
 7101SOL    HW121869   3.849   4.235   6.659
 7101SOL    HW221870   3.777   4.283   6.798
 7102SOL     OW21871   3.913   4.244   7.308
 7102SOL    HW121872   3.972   4.204   7.238
 7102SOL    HW221873   3.855   4.315   7.267
 7103SOL     OW21874   5.093   4.674   7.246
 7103SOL    HW121875   5.132   4.763   7.266
 7103SOL    HW221876   5.103   4.654   7.149
 7104SOL     OW21877   4.539   4.296   5.911
 7104SOL    HW121878   4.546   4.207   5.865
 7104SOL    HW221879   4.445   4.330   5.903
 7105SOL     OW21880   3.976   5.288   7.330
 7105SOL    HW121881   3.946   5.345   7.406
 7105SOL    HW221882   3.969   5.191   7.356
 7106SOL     OW21883   4.395   4.188   6.855
 7106SOL    HW121884   4.361   4.099   6.825
 7106SOL    HW221885   4.421   4.242   6.775
 7107SOL     OW21886   4.197   4.224   5.777
 7107SOL    HW121887   4.258   4.304   5.781
 7107SOL    HW221888   4.102   4.255   5.784
 7108SOL     OW21889   3.883   4.861   7.052
 7108SOL    HW121890   3.905   4.800   7.128
 7108SOL    HW221891   3.893   4.812   6.966
 7109SOL     OW21892   5.071   4.783   6.820
 7109SOL    HW121893   5.095   4.720   6.746
 7109SOL    HW221894   4.981   4.823   6.802
 7110SOL     OW21895   5.026   4.579   5.895
 7110SOL    HW121896   4.940   4.548   5.937
 7110SOL    HW221897   5.022   4.565   5.796
 7111SOL     OW21898   3.807   4.982   6.608
 7111SOL    HW121899   3.802   4.981   6.708
 7111SOL    HW221900   3.724   4.941   6.570
 7112SOL     OW21901   4.412   5.386   7.302
 7112SOL    HW121902   4.356   5.467   7.311
 7112SOL    HW221903   4.464   5.390   7.216
 7113SOL     OW21904   5.450   3.859   6.109
 7113SOL    HW121905   5.523   3.842   6.042
 7113SOL    HW221906   5.419   3.772   6.147
 7114SOL     OW21907   5.004   4.651   6.258
 7114SOL    HW121908   5.064   4.570   6.260
 7114SOL    HW221909   5.044   4.720   6.198
 7115SOL     OW21910   4.554   4.997   7.008
 7115SOL    HW121911   4.549   5.030   7.103
 7115SOL    HW221912   4.468   5.016   6.962
 7116SOL     OW21913   3.987   4.050   6.306
 7116SOL    HW121914   3.908   4.101   6.272
 7116SOL    HW221915   3.978   4.035   6.404
 7117SOL     OW21916   4.546   4.726   6.958
 7117SOL    HW121917   4.586   4.725   6.866
 7117SOL    HW221918   4.556   4.818   6.998
 7118SOL     OW21919   4.640   4.634   5.877
 7118SOL    HW121920   4.703   4.672   5.809
 7118SOL    HW221921   4.680   4.551   5.916
 7119SOL     OW21922   4.096   5.012   7.076
 7119SOL    HW121923   4.083   5.105   7.042
 7119SOL    HW221924   4.012   4.960   7.063
 7120SOL     OW21925   4.763   4.822   6.282
 7120SOL    HW121926   4.693   4.775   6.336
 7120SOL    HW221927   4.822   4.754   6.239
 7121SOL     OW21928   4.738   3.960   6.557
 7121SOL    HW121929   4.730   3.924   6.464
 7121SOL    HW221930   4.736   3.884   6.622
 7122SOL     OW21931   3.979   5.072   5.876
 7122SOL    HW121932   3.883   5.073   5.849
 7122SOL    HW221933   3.991   5.125   5.960
 7123SOL     OW21934   3.829   4.737   7.312
 7123SOL    HW121935   3.752   4.704   7.366
 7123SOL    HW221936   3.914   4.707   7.354
 7124SOL     OW21937   4.396   3.927   7.075
 7124SOL    HW121938   4.486   3.911   7.035
 7124SOL    HW221939   4.404   3.932   7.174
 7125SOL     OW21940   3.799   4.069   5.619
 7125SOL    HW121941   3.707   4.041   5.590
 7125SOL    HW221942   3.830   4.146   5.563
 7126SOL     OW21943   5.164   4.580   6.984
 7126SOL    HW121944   5.107   4.632   6.921
 7126SOL    HW221945   5.260   4.592   6.960
 7127SOL     OW21946   3.796   3.890   5.904
 7127SOL    HW121947   3.779   3.973   5.850
 7127SOL    HW221948   3.886   3.853   5.882
 7128SOL     OW21949   4.907   5.059   5.705
 7128SOL    HW121950   4.808   5.048   5.707
 7128SOL    HW221951   4.941   5.074   5.798
 7129SOL     OW21952   4.337   4.566   7.017
 7129SOL    HW121953   4.393   4.647   7.000
 7129SOL    HW221954   4.396   4.486   7.020
 7130SOL     OW21955   4.440   4.289   7.294
 7130SOL    HW121956   4.459   4.354   7.368
 7130SOL    HW221957   4.500   4.209   7.303
 7131SOL     OW21958   5.174   4.944   7.219
 7131SOL    HW121959   5.165   4.934   7.318
 7131SOL    HW221960   5.270   4.937   7.193
 7132SOL     OW21961   4.949   4.049   6.035
 7132SOL    HW121962   5.014   3.975   6.024
 7132SOL    HW221963   4.969   4.099   6.119
 7133SOL     OW21964   4.318   4.469   6.238
 7133SOL    HW121965   4.368   4.554   6.219
 7133SOL    HW221966   4.230   4.471   6.190
 7134SOL     OW21967   4.583   5.098   5.602
 7134SOL    HW121968   4.537   5.113   5.690
 7134SOL    HW221969   4.627   5.183   5.572
 7135SOL     OW21970   4.583   4.680   6.447
 7135SOL    HW121971   4.637   4.611   6.495
 7135SOL    HW221972   4.551   4.749   6.513
 7136SOL     OW21973   4.807   4.708   5.673
 7136SOL    HW121974   4.784   4.761   5.591
 7136SOL    HW221975   4.888   4.652   5.654
 7137SOL     OW21976   3.945   5.038   7.430
 7137SOL    HW121977   3.880   4.965   7.409
 7137SOL    HW221978   3.949   5.052   7.528
 7138SOL     OW21979   3.803   4.964   6.239
 7138SOL    HW121980   3.802   4.917   6.327
 7138SOL    HW221981   3.885   4.936   6.188
 7139SOL     OW21982   4.396   5.115   7.210
 7139SOL    HW121983   4.318   5.065   7.248
 7139SOL    HW221984   4.393   5.210   7.241
 7140SOL     OW21985   4.152   4.148   6.106
 7140SOL    HW121986   4.182   4.076   6.044
 7140SOL    HW221987   4.113   4.108   6.189
 7141SOL     OW21988   5.429   5.211   6.690
 7141SOL    HW121989   5.336   5.186   6.663
 7141SOL    HW221990   5.455   5.161   6.772
 7142SOL     OW21991   4.041   4.271   6.866
 7142SOL    HW121992   4.079   4.212   6.938
 7142SOL    HW221993   4.081   4.245   6.778
 7143SOL     OW21994   5.148   3.938   6.698
 7143SOL    HW121995   5.200   3.873   6.753
 7143SOL    HW221996   5.099   4.001   6.759
 7144SOL     OW21997   4.725   3.758   6.740
 7144SOL    HW121998   4.662   3.686   6.709
 7144SOL    HW221999   4.818   3.722   6.740
 7145SOL     OW22000   4.494   5.054   5.887
 7145SOL    HW122001   4.448   4.967   5.904
 7145SOL    HW222002   4.585   5.051   5.928
 7146SOL     OW22003   4.342   5.291   6.870
 7146SOL    HW122004   4.337   5.373   6.927
 7146SOL    HW222005   4.431   5.288   6.825
 7147SOL     OW22006   5.076   3.776   5.754
 7147SOL    HW122007   5.111   3.735   5.670
 7147SOL    HW222008   4.986   3.738   5.774
 7148SOL     OW22009   5.024   4.177   6.277
 7148SOL    HW122010   4.965   4.257   6.281
 7148SOL    HW222011   5.039   4.142   6.370
 7149SOL     OW22012   5.317   3.945   6.468
 7149SOL    HW122013   5.233   3.944   6.522
 7149SOL    HW222014   5.319   4.028   6.412
 7150SOL     OW22015   3.763   4.801   5.886
 7150SOL    HW122016   3.862   4.790   5.877
 7150SOL    HW222017   3.723   4.715   5.918
 7151SOL     OW22018   3.954   4.352   7.561
 7151SOL    HW122019   3.861   4.350   7.598
 7151SOL    HW222020   3.955   4.313   7.469
 7152SOL     OW22021   3.955   5.437   7.931
 7152SOL    HW122022   3.989   5.514   7.985
 7152SOL    HW222023   3.999   5.437   7.841
 7153SOL     OW22024   3.954   5.158   7.986
 7153SOL    HW122025   3.928   5.254   7.986
 7153SOL    HW222026   3.883   5.104   8.031
 7154SOL     OW22027   4.330   4.688   7.571
 7154SOL    HW122028   4.337   4.772   7.517
 7154SOL    HW222029   4.376   4.701   7.659
 7155SOL     OW22030   3.751   5.320   7.565
 7155SOL    HW122031   3.732   5.224   7.586
 7155SOL    HW222032   3.718   5.378   7.640
 7156SOL     OW22033   5.413   4.646   8.060
 7156SOL    HW122034   5.508   4.617   8.068
 7156SOL    HW222035   5.405   4.711   7.985
 7157SOL     OW22036   4.533   3.728   7.950
 7157SOL    HW122037   4.573   3.819   7.941
 7157SOL    HW222038   4.433   3.736   7.956
 7158SOL     OW22039   4.322   4.453   7.718
 7158SOL    HW122040   4.346   4.522   7.650
 7158SOL    HW222041   4.244   4.486   7.772
 7159SOL     OW22042   3.800   4.535   8.237
 7159SOL    HW122043   3.899   4.523   8.246
 7159SOL    HW222044   3.776   4.630   8.258
 7160SOL     OW22045   4.589   4.072   7.643
 7160SOL    HW122046   4.648   4.135   7.594
 7160SOL    HW222047   4.608   3.978   7.614
 7161SOL     OW22048   4.045   4.667   7.690
 7161SOL    HW122049   4.127   4.706   7.648
 7161SOL    HW222050   4.018   4.585   7.641
 7162SOL     OW22051   4.835   5.500   7.685
 7162SOL    HW122052   4.775   5.438   7.735
 7162SOL    HW222053   4.866   5.456   7.600
 7163SOL     OW22054   5.124   3.831   7.874
 7163SOL    HW122055   5.100   3.794   7.784
 7163SOL    HW222056   5.223   3.847   7.878
 7164SOL     OW22057   4.106   4.424   7.928
 7164SOL    HW122058   4.151   4.334   7.925
 7164SOL    HW222059   4.012   4.413   7.961
 7165SOL     OW22060   4.338   3.846   7.565
 7165SOL    HW122061   4.436   3.824   7.572
 7165SOL    HW222062   4.307   3.829   7.472
 7166SOL     OW22063   4.263   3.788   7.960
 7166SOL    HW122064   4.182   3.789   8.018
 7166SOL    HW222065   4.266   3.871   7.905
 7167SOL     OW22066   5.158   4.912   7.489
 7167SOL    HW122067   5.190   4.836   7.546
 7167SOL    HW222068   5.066   4.939   7.519
 7168SOL     OW22069   4.021   3.759   7.619
 7168SOL    HW122070   4.070   3.843   7.598
 7168SOL    HW222071   4.083   3.694   7.664
 7169SOL     OW22072   4.659   3.960   7.928
 7169SOL    HW122073   4.611   4.001   7.850
 7169SOL    HW222074   4.758   3.958   7.909
 7170SOL     OW22075   4.183   4.876   8.189
 7170SOL    HW122076   4.112   4.849   8.254
 7170SOL    HW222077   4.157   4.848   8.096
 7171SOL     OW22078   4.756   4.273   7.464
 7171SOL    HW122079   4.715   4.355   7.425
 7171SOL    HW222080   4.820   4.299   7.537
 7172SOL     OW22081   4.212   5.109   7.622
 7172SOL    HW122082   4.125   5.094   7.669
 7172SOL    HW222083   4.195   5.135   7.527
 7173SOL     OW22084   5.114   4.299   7.526
 7173SOL    HW122085   5.060   4.278   7.607
 7173SOL    HW222086   5.205   4.258   7.535
 7174SOL     OW22087   4.251   3.980   7.776
 7174SOL    HW122088   4.278   3.921   7.701
 7174SOL    HW222089   4.251   4.075   7.745
 7175SOL     OW22090   4.429   4.774   7.816
 7175SOL    HW122091   4.415   4.781   7.915
 7175SOL    HW222092   4.513   4.723   7.798
 7176SOL     OW22093   4.091   4.824   7.949
 7176SOL    HW122094   4.084   4.907   7.893
 7176SOL    HW222095   4.095   4.744   7.889
 7177SOL     OW22096   4.976   5.072   7.836
 7177SOL    HW122097   5.026   5.149   7.876
 7177SOL    HW222098   4.881   5.074   7.868
 7178SOL     OW22099   5.306   4.363   7.920
 7178SOL    HW122100   5.275   4.424   7.993
 7178SOL    HW222101   5.356   4.415   7.851
 7179SOL     OW22102   4.933   4.249   7.723
 7179SOL    HW122103   4.946   4.165   7.777
 7179SOL    HW222104   4.904   4.323   7.783
 7180SOL     OW22105   5.346   4.091   7.822
 7180SOL    HW122106   5.348   4.015   7.886
 7180SOL    HW222107   5.298   4.168   7.862
 7181SOL     OW22108   5.027   4.562   7.490
 7181SOL    HW122109   5.061   4.469   7.505
 7181SOL    HW222110   5.045   4.589   7.395
 7182SOL     OW22111   3.732   5.050   7.648
 7182SOL    HW122112   3.639   5.071   7.617
 7182SOL    HW222113   3.742   4.951   7.661
 7183SOL     OW22114   4.539   4.296   7.773
 7183SOL    HW122115   4.546   4.207   7.727
 7183SOL    HW222116   4.445   4.330   7.765
 7184SOL     OW22117   4.197   4.224   7.639
 7184SOL    HW122118   4.258   4.304   7.643
 7184SOL    HW222119   4.102   4.255   7.646
 7185SOL     OW22120   5.026   4.579   7.757
 7185SOL    HW122121   4.940   4.548   7.799
 7185SOL    HW222122   5.022   4.565   7.658
 7186SOL     OW22123   5.450   3.859   7.971
 7186SOL    HW122124   5.523   3.842   7.904
 7186SOL    HW222125   5.419   3.772   8.009
 7187SOL     OW22126   4.640   4.634   7.739
 7187SOL    HW122127   4.703   4.672   7.671
 7187SOL    HW222128   4.680   4.551   7.778
 7188SOL     OW22129   3.979   5.072   7.738
 7188SOL    HW122130   3.883   5.073   7.711
 7188SOL    HW222131   3.991   5.125   7.822
 7189SOL     OW22132   3.799   4.069   7.481
 7189SOL    HW122133   3.707   4.041   7.452
 7189SOL    HW222134   3.830   4.146   7.425
 7190SOL     OW22135   3.796   3.890   7.766
 7190SOL    HW122136   3.779   3.973   7.712
 7190SOL    HW222137   3.886   3.853   7.744
 7191SOL     OW22138   4.907   5.059   7.567
 7191SOL    HW122139   4.808   5.048   7.569
 7191SOL    HW222140   4.941   5.074   7.660
 7192SOL     OW22141   4.949   4.049   7.897
 7192SOL    HW122142   5.014   3.975   7.886
 7192SOL    HW222143   4.969   4.099   7.981
 7193SOL     OW22144   4.318   4.469   8.100
 7193SOL    HW122145   4.368   4.554   8.081
 7193SOL    HW222146   4.230   4.471   8.052
 7194SOL     OW22147   4.583   5.098   7.464
 7194SOL    HW122148   4.537   5.113   7.552
 7194SOL    HW222149   4.627   5.183   7.434
 7195SOL     OW22150   4.807   4.708   7.535
 7195SOL    HW122151   4.784   4.761   7.453
 7195SOL    HW222152   4.888   4.652   7.516
 7196SOL     OW22153   4.152   4.148   7.968
 7196SOL    HW122154   4.182   4.076   7.906
 7196SOL    HW222155   4.113   4.108   8.051
 7197SOL     OW22156   4.494   5.054   7.749
 7197SOL    HW122157   4.448   4.967   7.766
 7197SOL    HW222158   4.585   5.051   7.790
 7198SOL     OW22159   5.076   3.776   7.616
 7198SOL    HW122160   5.111   3.735   7.532
 7198SOL    HW222161   4.986   3.738   7.636
 7199SOL     OW22162   3.763   4.801   7.748
 7199SOL    HW122163   3.862   4.790   7.739
 7199SOL    HW222164   3.723   4.715   7.780
   5.30000   5.30000   8.08000
