Built with Packmol
22218
    1LIG      O    1   1.977   1.970   0.066
    1LIG      C    2   2.042   2.020   0.217
    1LIG     C1    3   1.971   1.967   0.377
    1LIG     O1    4   2.035   2.017   0.530
    1LIG     C2    5   1.970   1.968   0.681
    1LIG     C3    6   2.041   2.023   0.839
    1LIG     O2    7   1.977   1.975   0.990
    1LIG     C4    8   2.040   2.025   1.142
    1LIG     C5    9   1.968   1.970   1.300
    1LIG     O3   10   2.031   2.020   1.452
    1LIG     C6   11   1.966   1.971   1.603
    1LIG     C7   12   2.038   2.027   1.761
    1LIG     O4   13   1.974   1.979   1.913
    1LIG     C8   14   2.038   2.029   2.065
    1LIG     C9   15   1.965   1.973   2.221
    1LIG     O5   16   2.028   2.023   2.373
    1LIG    C10   17   1.964   1.974   2.525
    1LIG    C11   18   2.037   2.030   2.682
    1LIG     O6   19   1.973   1.981   2.833
    1LIG    C12   20   2.036   2.030   2.986
    1LIG    C13   21   1.963   1.975   3.142
    1LIG     O7   22   2.027   2.024   3.294
    1LIG    C14   23   1.963   1.975   3.446
    1LIG    C15   24   2.035   2.030   3.604
    1LIG     O8   25   1.971   1.981   3.757
    1LIG    C16   26   2.035   2.031   3.908
    1LIG    C17   27   1.964   1.976   4.066
    1LIG     O9   28   2.027   2.025   4.219
    1LIG    C18   29   1.962   1.976   4.369
    1LIG    C19   30   2.034   2.031   4.526
    1LIG    O10   31   1.970   1.982   4.679
    1LIG    C20   32   2.034   2.032   4.830
    1LIG    C21   33   1.962   1.976   4.986
    1LIG    O11   34   2.026   2.025   5.138
    1LIG    C22   35   1.962   1.976   5.290
    1LIG    C23   36   2.034   2.032   5.447
    1LIG    O12   37   1.970   1.983   5.598
    1LIG    C24   38   2.034   2.032   5.751
    1LIG    C25   39   1.962   1.977   5.909
    1LIG    O13   40   2.025   2.026   6.062
    1LIG    C26   41   1.961   1.977   6.213
    1LIG    C27   42   2.033   2.032   6.369
    1LIG    O14   43   1.969   1.983   6.521
    1LIG    C28   44   2.034   2.032   6.674
    1LIG    C29   45   1.962   1.976   6.831
    1LIG    O15   46   2.026   2.025   6.984
    1LIG    C30   47   1.962   1.976   7.134
    1LIG    C31   48   2.034   2.031   7.291
    1LIG    O16   49   1.970   1.982   7.442
    1LIG    C32   50   2.034   2.031   7.595
    1LIG    C33   51   1.962   1.976   7.752
    1LIG    O17   52   2.026   2.025   7.904
    1LIG    C34   53   1.962   1.975   8.056
    1LIG    C35   54   2.033   2.030   8.213
    1LIG    O18   55   1.970   1.981   8.365
    1LIG    C36   56   2.034   2.030   8.517
    1LIG    C37   57   1.963   1.975   8.674
    1LIG    O19   58   2.027   2.024   8.827
    1LIG    C38   59   1.963   1.974   8.978
    1LIG    C39   60   2.034   2.029   9.136
    1LIG    O20   61   1.971   1.980   9.288
    1LIG    C40   62   2.035   2.029   9.439
    1LIG    C41   63   1.964   1.974   9.597
    1LIG    O21   64   2.027   2.023   9.749
    1LIG    C42   65   1.963   1.973   9.900
    1LIG    C43   66   2.035   2.028  10.057
    1LIG    O22   67   1.972   1.979  10.209
    1LIG    C44   68   2.036   2.028  10.361
    1LIG    C45   69   1.964   1.972  10.518
    1LIG    O23   70   2.027   2.021  10.670
    1LIG    C46   71   1.964   1.972  10.822
    1LIG    C47   72   2.036   2.028  10.979
    1LIG    O24   73   1.973   1.978  11.130
    1LIG    C48   74   2.036   2.027  11.283
    1LIG    C49   75   1.964   1.971  11.439
    1LIG    O25   76   2.028   2.020  11.591
    1LIG    C50   77   1.965   1.971  11.743
    1LIG    C51   78   2.037   2.027  11.900
    1LIG    O26   79   1.973   1.977  12.052
    1LIG    C52   80   2.037   2.026  12.204
    1LIG    C53   81   1.965   1.969  12.360
    1LIG    O27   82   2.029   2.019  12.512
    1LIG    C54   83   1.966   1.969  12.664
    1LIG    C55   84   2.038   2.025  12.823
    1LIG    O28   85   1.974   1.975  12.975
    1LIG    C56   86   2.038   2.024  13.127
    1LIG    C57   87   1.967   1.968  13.285
    1LIG    O29   88   2.031   2.017  13.438
    1LIG    C58   89   1.967   1.967  13.589
    1LIG    C59   90   2.038   2.022  13.747
    1LIG      H   91   2.039   2.130   0.214
    1LIG     H1   92   2.147   1.989   0.215
    1LIG     H2   93   1.974   1.858   0.377
    1LIG     H3   94   1.866   1.998   0.376
    1LIG     H4   95   1.972   1.858   0.683
    1LIG     H5   96   1.865   1.999   0.682
    1LIG     H6   97   2.039   2.133   0.836
    1LIG     H7   98   2.146   1.992   0.838
    1LIG     H8   99   2.038   2.134   1.143
    1LIG     H9  100   2.145   1.994   1.145
    1LIG    H10  101   1.971   1.861   1.299
    1LIG    H11  102   1.863   2.001   1.297
    1LIG    H12  103   1.969   1.862   1.606
    1LIG    H13  104   1.861   2.002   1.604
    1LIG    H14  105   2.035   2.137   1.758
    1LIG    H15  106   2.143   1.996   1.759
    1LIG    H16  107   2.035   2.138   2.066
    1LIG    H17  108   2.143   1.998   2.067
    1LIG    H18  109   1.968   1.864   2.220
    1LIG    H19  110   1.860   2.004   2.219
    1LIG    H20  111   1.967   1.864   2.527
    1LIG    H21  112   1.859   2.005   2.527
    1LIG    H22  113   2.034   2.139   2.680
    1LIG    H23  114   2.142   1.999   2.680
    1LIG    H24  115   2.033   2.139   2.987
    1LIG    H25  116   2.141   1.999   2.988
    1LIG    H26  117   1.966   1.865   3.141
    1LIG    H27  118   1.858   2.006   3.140
    1LIG    H28  119   1.966   1.865   3.448
    1LIG    H29  120   1.858   2.006   3.448
    1LIG    H30  121   2.032   2.140   3.602
    1LIG    H31  122   2.140   1.999   3.603
    1LIG    H32  123   2.032   2.141   3.909
    1LIG    H33  124   2.140   2.000   3.910
    1LIG    H34  125   1.966   1.867   4.064
    1LIG    H35  126   1.858   2.007   4.064
    1LIG    H36  127   1.965   1.866   4.371
    1LIG    H37  128   1.857   2.007   4.371
    1LIG    H38  129   2.031   2.141   4.524
    1LIG    H39  130   2.139   2.000   4.524
    1LIG    H40  131   2.032   2.141   4.832
    1LIG    H41  132   2.140   2.001   4.832
    1LIG    H42  133   1.965   1.867   4.985
    1LIG    H43  134   1.857   2.007   4.984
    1LIG    H44  135   1.965   1.867   5.292
    1LIG    H45  136   1.857   2.007   5.292
    1LIG    H46  137   2.031   2.142   5.445
    1LIG    H47  138   2.139   2.001   5.445
    1LIG    H48  139   2.031   2.141   5.753
    1LIG    H49  140   2.139   2.001   5.753
    1LIG    H50  141   1.964   1.867   5.908
    1LIG    H51  142   1.857   2.008   5.907
    1LIG    H52  143   1.964   1.867   6.215
    1LIG    H53  144   1.856   2.008   6.215
    1LIG    H54  145   2.030   2.142   6.368
    1LIG    H55  146   2.138   2.001   6.368
    1LIG    H56  147   2.031   2.141   6.675
    1LIG    H57  148   2.139   2.001   6.675
    1LIG    H58  149   1.965   1.867   6.829
    1LIG    H59  150   1.857   2.007   6.830
    1LIG    H60  151   1.965   1.866   7.136
    1LIG    H61  152   1.857   2.007   7.136
    1LIG    H62  153   2.031   2.141   7.289
    1LIG    H63  154   2.139   2.000   7.289
    1LIG    H64  155   2.031   2.140   7.597
    1LIG    H65  156   2.139   2.000   7.596
    1LIG    H66  157   1.965   1.866   7.750
    1LIG    H67  158   1.857   2.007   7.751
    1LIG    H68  159   1.965   1.866   8.057
    1LIG    H69  160   1.857   2.006   8.057
    1LIG    H70  161   2.030   2.140   8.212
    1LIG    H71  162   2.139   2.000   8.212
    1LIG    H72  163   2.031   2.140   8.518
    1LIG    H73  164   2.139   2.000   8.518
    1LIG    H74  165   1.966   1.866   8.673
    1LIG    H75  166   1.858   2.006   8.673
    1LIG    H76  167   1.966   1.865   8.979
    1LIG    H77  168   1.857   2.005   8.979
    1LIG    H78  169   2.031   2.138   9.134
    1LIG    H79  170   2.139   1.998   9.134
    1LIG    H80  171   2.032   2.139   9.441
    1LIG    H81  172   2.140   1.999   9.441
    1LIG    H82  173   1.967   1.864   9.595
    1LIG    H83  174   1.858   2.004   9.596
    1LIG    H84  175   1.967   1.863   9.902
    1LIG    H85  176   1.858   2.003   9.902
    1LIG    H86  177   2.032   2.138  10.055
    1LIG    H87  178   2.141   1.998  10.055
    1LIG    H88  179   2.033   2.138  10.363
    1LIG    H89  180   2.141   1.998  10.363
    1LIG    H90  181   1.967   1.863  10.516
    1LIG    H91  182   1.859   2.003  10.516
    1LIG    H92  183   1.967   1.862  10.824
    1LIG    H93  184   1.859   2.002  10.824
    1LIG    H94  185   2.033   2.137  10.977
    1LIG    H95  186   2.142   1.997  10.977
    1LIG    H96  187   2.033   2.136  11.285
    1LIG    H97  188   2.141   1.996  11.285
    1LIG    H98  189   1.967   1.861  11.437
    1LIG    H99  190   1.859   2.001  11.438
    1LIG   H100  191   1.968   1.861  11.745
    1LIG   H101  192   1.860   2.001  11.746
    1LIG   H102  193   2.034   2.136  11.898
    1LIG   H103  194   2.142   1.996  11.898
    1LIG   H104  195   2.034   2.135  12.206
    1LIG   H105  196   2.142   1.995  12.206
    1LIG   H106  197   1.969   1.860  12.359
    1LIG   H107  198   1.860   2.000  12.359
    1LIG   H108  199   1.969   1.860  12.666
    1LIG   H109  200   1.861   2.000  12.667
    1LIG   H110  201   2.034   2.134  12.821
    1LIG   H111  202   2.143   1.994  12.820
    1LIG   H112  203   2.035   2.134  13.129
    1LIG   H113  204   2.144   1.994  13.128
    1LIG   H114  205   1.971   1.859  13.283
    1LIG   H115  206   1.862   1.999  13.284
    1LIG   H116  207   1.971   1.857  13.589
    1LIG   H117  208   1.862   1.999  13.590
    1LIG   H118  209   2.143   1.992  13.747
    1LIG   H119  210   1.991   1.985  13.866
    1MOL     C1  211   1.653   1.587   6.947
    1MOL     H1  212   1.645   1.480   6.970
    1MOL     O1  213   1.604   1.651   7.064
    1MOL     C2  214   1.607   1.795   7.062
    1MOL     H2  215   1.711   1.829   7.056
    1MOL     C3  216   1.545   1.841   7.192
    1MOL     H3  217   1.444   1.796   7.200
    1MOL     H4  218   1.535   1.950   7.192
    1MOL     O2  219   1.624   1.798   7.302
    1MOL     C4  220   1.568   1.840   7.425
    1MOL     C5  221   1.560   1.625   6.830
    1MOL     H5  222   1.459   1.594   6.859
    1MOL     O3  223   1.595   1.565   6.707
    1MOL     C6  224   1.559   1.428   6.696
    1MOL     C7  225   1.560   1.777   6.810
    1MOL     H6  226   1.659   1.808   6.774
    1MOL     O4  227   1.459   1.813   6.716
    1MOL     C8  228   1.507   1.844   6.586
    1MOL     C9  229   1.529   1.851   6.940
    1MOL     H7  230   1.421   1.840   6.959
    1MOL     O5  231   1.561   1.989   6.918
    1MOL    C10  232   1.468   2.087   6.956
    1MOL     H8  233   1.371   2.042   6.978
    1MOL     O6  234   1.505   2.153   7.076
    1MOL    C11  235   1.634   2.216   7.073
    1MOL     H9  236   1.712   2.142   7.051
    1MOL    C12  237   1.658   2.272   7.213
    1MOL    H10  238   1.572   2.335   7.241
    1MOL    H11  239   1.748   2.336   7.212
    1MOL     O7  240   1.675   2.165   7.304
    1MOL    C13  241   1.713   2.211   7.432
    1MOL    C14  242   1.455   2.194   6.846
    1MOL    H12  243   1.376   2.263   6.879
    1MOL     O8  244   1.421   2.141   6.719
    1MOL    C15  245   1.287   2.098   6.706
    1MOL    C16  246   1.584   2.275   6.830
    1MOL    H13  247   1.661   2.210   6.786
    1MOL     O9  248   1.560   2.387   6.747
    1MOL    C17  249   1.607   2.374   6.614
    1MOL    C18  250   1.636   2.326   6.965
    1MOL    H14  251   1.572   2.409   6.996
    1MOL    O10  252   1.770   2.374   6.942
    1MOL    C19  253   1.806   2.502   6.989
    1MOL    H15  254   1.717   2.556   7.023
    1MOL    O11  255   1.890   2.496   7.102
    1MOL    C20  256   2.013   2.425   7.084
    1MOL    H16  257   1.992   2.320   7.061
    1MOL    C21  258   2.088   2.435   7.216
    1MOL    H17  259   2.085   2.540   7.250
    1MOL    H18  260   2.193   2.406   7.202
    1MOL    O12  261   2.026   2.350   7.312
    1MOL    C22  262   2.093   2.355   7.437
    1MOL    C23  263   1.879   2.580   6.878
    1MOL    H19  264   1.901   2.680   6.920
    1MOL    O13  265   1.805   2.594   6.759
    1MOL    C24  266   1.698   2.687   6.765
    1MOL    C25  267   2.012   2.513   6.843
    1MOL    H20  268   1.991   2.417   6.794
    1MOL    O14  269   2.088   2.598   6.758
    1MOL    C26  270   2.085   2.562   6.621
    1MOL    C27  271   2.096   2.485   6.968
    1MOL    H21  272   2.141   2.580   7.001
    1MOL    O15  273   2.200   2.394   6.929
    1MOL    C28  274   2.334   2.424   6.959
    1MOL    H22  275   2.343   2.530   6.987
    1MOL    O16  276   2.381   2.353   7.072
    1MOL    C29  277   2.373   2.210   7.059
    1MOL    H23  278   2.268   2.181   7.044
    1MOL    C30  279   2.420   2.151   7.191
    1MOL    H24  280   2.394   2.044   7.194
    1MOL    H25  281   2.366   2.201   7.274
    1MOL    O17  282   2.560   2.168   7.205
    1MOL    C31  283   2.611   2.102   7.318
    1MOL    C32  284   2.424   2.391   6.839
    1MOL    H26  285   2.526   2.421   6.867
    1MOL    O18  286   2.386   2.456   6.719
    1MOL    C33  287   2.422   2.593   6.713
    1MOL    C34  288   2.425   2.240   6.811
    1MOL    H27  289   2.326   2.210   6.773
    1MOL    O19  290   2.526   2.210   6.716
    1MOL    C35  291   2.478   2.180   6.586
    1MOL    C36  292   2.455   2.160   6.938
    1MOL    H28  293   2.562   2.172   6.962
    1MOL    O20  294   2.425   2.023   6.910
    1MOL    C37  295   2.517   1.924   6.949
    1MOL    H29  296   2.613   1.970   6.976
    1MOL    O21  297   2.477   1.854   7.065
    1MOL    C38  298   2.349   1.789   7.054
    1MOL    H30  299   2.272   1.864   7.031
    1MOL    C39  300   2.318   1.729   7.191
    1MOL    H31  301   2.211   1.705   7.197
    1MOL    H32  302   2.339   1.805   7.268
    1MOL    O22  303   2.397   1.614   7.212
    1MOL    C40  304   2.359   1.545   7.330
    1MOL    C41  305   2.535   1.822   6.834
    1MOL    H33  306   2.613   1.752   6.867
    1MOL    O23  307   2.572   1.881   6.711
    1MOL    C42  308   2.706   1.926   6.705
    1MOL    C43  309   2.406   1.743   6.810
    1MOL    H34  310   2.331   1.810   6.767
    1MOL    O24  311   2.433   1.634   6.722
    1MOL    C44  312   2.387   1.653   6.590
    1MOL    C45  313   2.351   1.685   6.941
    1MOL    H35  314   2.415   1.601   6.972
    1MOL    O25  315   2.219   1.637   6.913
    1MOL    C46  316   2.182   1.509   6.958
    1MOL    H36  317   2.271   1.453   6.988
    1MOL    O26  318   2.101   1.513   7.074
    1MOL    C47  319   1.980   1.588   7.061
    1MOL    H37  320   2.003   1.692   7.036
    1MOL    C48  321   1.913   1.583   7.198
    1MOL    H38  322   1.904   1.478   7.230
    1MOL    H39  323   1.812   1.625   7.192
    1MOL    O27  324   1.993   1.656   7.289
    1MOL    C49  325   1.933   1.666   7.417
    1MOL    C50  326   2.104   1.436   6.847
    1MOL    H40  327   2.083   1.334   6.886
    1MOL    O28  328   2.173   1.426   6.725
    1MOL    C51  329   2.283   1.336   6.725
    1MOL    C52  330   1.970   1.505   6.820
    1MOL    H41  331   1.989   1.602   6.773
    1MOL    O29  332   1.889   1.423   6.736
    1MOL    C53  333   1.891   1.460   6.599
    1MOL    C54  334   1.891   1.530   6.949
    1MOL    H42  335   1.848   1.434   6.982
    1MOL    O30  336   1.785   1.621   6.917
    1MOL    H43  337   1.729   2.122   7.494
    1MOL    H44  338   1.806   2.269   7.427
    1MOL    H45  339   1.635   2.273   7.478
    1MOL    H46  340   1.636   1.807   7.504
    1MOL    H47  341   1.557   1.949   7.429
    1MOL    H48  342   1.469   1.794   7.442
    1MOL    H49  343   2.001   1.725   7.479
    1MOL    H50  344   1.836   1.716   7.411
    1MOL    H51  345   1.920   1.567   7.463
    1MOL    H52  346   2.421   1.455   7.336
    1MOL    H53  347   2.378   1.606   7.420
    1MOL    H54  348   2.253   1.517   7.328
    1MOL    H55  349   2.719   2.121   7.320
    1MOL    H56  350   2.567   2.141   7.412
    1MOL    H57  351   2.593   1.994   7.313
    1MOL    H58  352   2.040   2.286   7.504
    1MOL    H59  353   2.198   2.323   7.428
    1MOL    H60  354   2.091   2.456   7.480
    1MOL    H61  355   2.727   1.948   6.599
    1MOL    H62  356   2.722   2.018   6.762
    1MOL    H63  357   2.776   1.849   6.739
    1MOL    H64  358   2.566   2.165   6.523
    1MOL    H65  359   2.419   2.088   6.586
    1MOL    H66  360   2.419   2.263   6.545
    1MOL    H67  361   2.407   2.625   6.610
    1MOL    H68  362   2.359   2.655   6.778
    1MOL    H69  363   2.528   2.608   6.740
    1MOL    H70  364   2.142   2.639   6.568
    1MOL    H71  365   2.134   2.465   6.604
    1MOL    H72  366   1.982   2.560   6.582
    1MOL    H73  367   1.665   2.704   6.662
    1MOL    H74  368   1.613   2.648   6.823
    1MOL    H75  369   1.731   2.783   6.808
    1MOL    H76  370   1.577   2.466   6.561
    1MOL    H77  371   1.716   2.366   6.611
    1MOL    H78  372   1.561   2.288   6.564
    1MOL    H79  373   1.269   2.082   6.600
    1MOL    H80  374   1.269   2.003   6.759
    1MOL    H81  375   1.217   2.175   6.743
    1MOL    H82  376   1.419   1.863   6.524
    1MOL    H83  377   1.569   1.934   6.588
    1MOL    H84  378   1.564   1.760   6.543
    1MOL    H85  379   1.571   1.401   6.591
    1MOL    H86  380   1.625   1.364   6.756
    1MOL    H87  381   1.455   1.412   6.726
    1MOL    H88  382   1.831   1.386   6.546
    1MOL    H89  383   1.845   1.559   6.584
    1MOL    H90  384   1.993   1.460   6.558
    1MOL    H91  385   2.311   1.321   6.620
    1MOL    H92  386   2.369   1.377   6.779
    1MOL    H93  387   2.254   1.239   6.768
    1MOL    H94  388   2.419   1.565   6.533
    1MOL    H95  389   2.277   1.658   6.586
    1MOL    H96  390   2.430   1.743   6.544
    2SOL     OW  391   0.230   0.628   0.113
    2SOL    HW1  392   0.137   0.626   0.150
    2SOL    HW2  393   0.231   0.589   0.021
    3SOL     OW  394   0.225   0.275   0.996
    3SOL    HW1  395   0.260   0.258   1.088
    3SOL    HW2  396   0.137   0.230   0.984
    4SOL     OW  397   0.019   0.368   0.647
    4SOL    HW1  398  -0.063   0.411   0.686
    4SOL    HW2  399  -0.009   0.295   0.584
    5SOL     OW  400   0.569   1.275   1.165
    5SOL    HW1  401   0.476   1.268   1.128
    5SOL    HW2  402   0.580   1.364   1.209
    6SOL     OW  403   1.555   1.511   0.703
    6SOL    HW1  404   1.498   1.495   0.784
    6SOL    HW2  405   1.496   1.521   0.623
    7SOL     OW  406   1.135   0.703   0.717
    7SOL    HW1  407   1.192   0.781   0.692
    7SOL    HW2  408   1.075   0.729   0.793
    8SOL     OW  409   1.755   0.607   0.231
    8SOL    HW1  410   1.743   0.594   0.132
    8SOL    HW2  411   1.725   0.526   0.280
    9SOL     OW  412   0.768   1.144   1.023
    9SOL    HW1  413   0.690   1.161   1.083
    9SOL    HW2  414   0.802   1.231   0.987
   10SOL     OW  415   0.850   0.798   1.823
   10SOL    HW1  416   0.846   0.874   1.888
   10SOL    HW2  417   0.872   0.834   1.732
   11SOL     OW  418   0.685   1.012   0.665
   11SOL    HW1  419   0.754   0.996   0.735
   11SOL    HW2  420   0.612   1.069   0.703
   12SOL     OW  421   0.686   1.161   1.803
   12SOL    HW1  422   0.746   1.240   1.817
   12SOL    HW2  423   0.600   1.192   1.762
   13SOL     OW  424   0.335   1.435   1.061
   13SOL    HW1  425   0.257   1.404   1.008
   13SOL    HW2  426   0.393   1.493   1.004
   14SOL     OW  427   1.460   1.505   1.339
   14SOL    HW1  428   1.484   1.599   1.365
   14SOL    HW2  429   1.444   1.451   1.421
   15SOL     OW  430   0.438   0.392   1.499
   15SOL    HW1  431   0.520   0.336   1.508
   15SOL    HW2  432   0.357   0.334   1.503
   16SOL     OW  433   1.603   0.447   0.737
   16SOL    HW1  434   1.529   0.493   0.687
   16SOL    HW2  435   1.654   0.515   0.790
   17SOL     OW  436   0.231   1.713   0.483
   17SOL    HW1  437   0.265   1.790   0.537
   17SOL    HW2  438   0.275   1.713   0.393
   18SOL     OW  439   1.127   1.341   1.690
   18SOL    HW1  440   1.174   1.341   1.778
   18SOL    HW2  441   1.079   1.254   1.679
   19SOL     OW  442   0.230   1.434   0.538
   19SOL    HW1  443   0.204   1.530   0.538
   19SOL    HW2  444   0.159   1.380   0.583
   20SOL     OW  445   0.240   1.091   0.886
   20SOL    HW1  446   0.254   1.007   0.938
   20SOL    HW2  447   0.185   1.155   0.941
   21SOL     OW  448   0.620   1.786   1.439
   21SOL    HW1  449   0.528   1.769   1.474
   21SOL    HW2  450   0.648   1.878   1.465
   22SOL     OW  451   0.606   0.964   0.123
   22SOL    HW1  452   0.613   1.048   0.069
   22SOL    HW2  453   0.652   0.977   0.211
   23SOL     OW  454   1.594   0.114   1.480
   23SOL    HW1  455   1.576   0.181   1.408
   23SOL    HW2  456   1.591   0.160   1.569
   24SOL     OW  457   0.122   0.643   0.563
   24SOL    HW1  458   0.077   0.555   0.580
   24SOL    HW2  459   0.121   0.697   0.647
   25SOL     OW  460   0.027   1.596   0.117
   25SOL    HW1  461   0.008   1.500   0.138
   25SOL    HW2  462  -0.006   1.654   0.192
   26SOL     OW  463   1.689   0.922   0.612
   26SOL    HW1  464   1.784   0.893   0.620
   26SOL    HW2  465   1.681   0.987   0.537
   27SOL     OW  466   1.641   1.108   0.432
   27SOL    HW1  467   1.727   1.110   0.380
   27SOL    HW2  468   1.655   1.155   0.520
   28SOL     OW  469   0.113   0.737   1.597
   28SOL    HW1  470   0.201   0.724   1.642
   28SOL    HW2  471   0.100   0.834   1.575
   29SOL     OW  472   0.613   1.365   0.726
   29SOL    HW1  473   0.564   1.278   0.735
   29SOL    HW2  474   0.590   1.408   0.639
   30SOL     OW  475   1.293   1.228   1.423
   30SOL    HW1  476   1.330   1.155   1.365
   30SOL    HW2  477   1.345   1.233   1.508
   31SOL     OW  478   0.809   0.004   0.502
   31SOL    HW1  479   0.849   0.095   0.493
   31SOL    HW2  480   0.709   0.012   0.508
   32SOL     OW  481   0.197   0.976   1.264
   32SOL    HW1  482   0.286   0.931   1.250
   32SOL    HW2  483   0.124   0.911   1.245
   33SOL     OW  484   1.525   0.999   0.190
   33SOL    HW1  485   1.462   0.923   0.203
   33SOL    HW2  486   1.573   1.017   0.276
   34SOL     OW  487   1.187   1.792   1.616
   34SOL    HW1  488   1.211   1.852   1.540
   34SOL    HW2  489   1.194   1.697   1.586
   35SOL     OW  490   0.317   0.251   1.801
   35SOL    HW1  491   0.388   0.322   1.807
   35SOL    HW2  492   0.229   0.290   1.829
   36SOL     OW  493   1.466   1.417   0.953
   36SOL    HW1  494   1.407   1.423   1.033
   36SOL    HW2  495   1.451   1.329   0.907
   37SOL     OW  496   1.667   1.714   0.572
   37SOL    HW1  497   1.626   1.691   0.484
   37SOL    HW2  498   1.649   1.640   0.637
   38SOL     OW  499   0.598   0.729   0.270
   38SOL    HW1  500   0.622   0.798   0.202
   38SOL    HW2  501   0.520   0.762   0.324
   39SOL     OW  502   1.281   0.345   0.944
   39SOL    HW1  503   1.195   0.295   0.931
   39SOL    HW2  504   1.343   0.291   1.000
   40SOL     OW  505   1.576   1.662   0.307
   40SOL    HW1  506   1.665   1.708   0.310
   40SOL    HW2  507   1.555   1.638   0.212
   41SOL     OW  508   0.807   0.605   1.465
   41SOL    HW1  509   0.760   0.602   1.554
   41SOL    HW2  510   0.756   0.550   1.399
   42SOL     OW  511   1.394   0.469   1.674
   42SOL    HW1  512   1.374   0.512   1.762
   42SOL    HW2  513   1.472   0.407   1.683
   43SOL     OW  514   0.973   0.890   1.572
   43SOL    HW1  515   1.019   0.806   1.543
   43SOL    HW2  516   0.917   0.924   1.497
   44SOL     OW  517   0.991   0.410   1.242
   44SOL    HW1  518   0.914   0.444   1.296
   44SOL    HW2  519   0.957   0.359   1.163
   45SOL     OW  520   1.041   0.701   0.429
   45SOL    HW1  521   1.067   0.697   0.525
   45SOL    HW2  522   0.956   0.650   0.415
   46SOL     OW  523   0.076   0.811   0.789
   46SOL    HW1  524   0.175   0.799   0.798
   46SOL    HW2  525   0.052   0.906   0.810
   47SOL     OW  526   0.130   1.821   1.571
   47SOL    HW1  527   0.120   1.806   1.670
   47SOL    HW2  528   0.044   1.857   1.535
   48SOL     OW  529   0.865   0.348   0.195
   48SOL    HW1  530   0.924   0.411   0.146
   48SOL    HW2  531   0.884   0.254   0.166
   49SOL     OW  532   1.719   0.585   1.831
   49SOL    HW1  533   1.693   0.674   1.795
   49SOL    HW2  534   1.717   0.517   1.758
   50SOL     OW  535   1.362   1.144   0.545
   50SOL    HW1  536   1.445   1.115   0.497
   50SOL    HW2  537   1.313   1.211   0.489
   51SOL     OW  538   0.550   0.196   0.885
   51SOL    HW1  539   0.545   0.191   0.985
   51SOL    HW2  540   0.552   0.292   0.856
   52SOL     OW  541   1.008   1.456   0.477
   52SOL    HW1  542   0.962   1.528   0.425
   52SOL    HW2  543   1.004   1.476   0.575
   53SOL     OW  544   0.351   1.801   0.853
   53SOL    HW1  545   0.401   1.715   0.859
   53SOL    HW2  546   0.416   1.878   0.850
   54SOL     OW  547   1.795   1.066   0.873
   54SOL    HW1  548   1.733   1.051   0.797
   54SOL    HW2  549   1.743   1.077   0.958
   55SOL     OW  550   1.227   1.550   1.506
   55SOL    HW1  551   1.233   1.473   1.570
   55SOL    HW2  552   1.175   1.524   1.426
   56SOL     OW  553   0.321   0.943   0.242
   56SOL    HW1  554   0.403   0.982   0.200
   56SOL    HW2  555   0.294   0.861   0.193
   57SOL     OW  556   1.458   0.735   0.728
   57SOL    HW1  557   1.453   0.670   0.803
   57SOL    HW2  558   1.538   0.794   0.741
   58SOL     OW  559   0.461   1.266   1.727
   58SOL    HW1  560   0.411   1.267   1.641
   58SOL    HW2  561   0.398   1.248   1.803
   59SOL     OW  562   1.111   1.776   0.237
   59SOL    HW1  563   1.051   1.714   0.287
   59SOL    HW2  564   1.142   1.732   0.152
   60SOL     OW  565   0.202   0.285   1.498
   60SOL    HW1  566   0.122   0.345   1.485
   60SOL    HW2  567   0.192   0.236   1.584
   61SOL     OW  568   1.632   1.377   0.081
   61SOL    HW1  569   1.600   1.471   0.071
   61SOL    HW2  570   1.556   1.314   0.069
   62SOL     OW  571   0.464   1.743   0.323
   62SOL    HW1  572   0.497   1.782   0.409
   62SOL    HW2  573   0.540   1.736   0.258
   63SOL     OW  574   1.400   0.107   0.426
   63SOL    HW1  575   1.376   0.070   0.336
   63SOL    HW2  576   1.499   0.123   0.430
   64SOL     OW  577   0.249   1.785   1.241
   64SOL    HW1  578   0.306   1.720   1.291
   64SOL    HW2  579   0.233   1.752   1.148
   65SOL     OW  580   0.940   1.698   0.904
   65SOL    HW1  581   1.020   1.641   0.925
   65SOL    HW2  582   0.891   1.658   0.827
   66SOL     OW  583   0.382   0.700   0.480
   66SOL    HW1  584   0.427   0.610   0.477
   66SOL    HW2  585   0.288   0.689   0.513
   67SOL     OW  586   1.547   0.222   1.729
   67SOL    HW1  587   1.542   0.259   1.821
   67SOL    HW2  588   1.475   0.153   1.717
   68SOL     OW  589   0.614   0.122   0.117
   68SOL    HW1  590   0.712   0.100   0.124
   68SOL    HW2  591   0.583   0.105   0.024
   69SOL     OW  592   0.781   0.264   1.749
   69SOL    HW1  593   0.848   0.203   1.792
   69SOL    HW2  594   0.708   0.283   1.814
   70SOL     OW  595   0.888   1.514   1.195
   70SOL    HW1  596   0.865   1.489   1.101
   70SOL    HW2  597   0.949   1.445   1.234
   71SOL     OW  598   1.351   0.590   1.433
   71SOL    HW1  599   1.379   0.547   1.518
   71SOL    HW2  600   1.376   0.686   1.434
   72SOL     OW  601   0.803   1.402   0.924
   72SOL    HW1  602   0.893   1.416   0.882
   72SOL    HW2  603   0.732   1.404   0.853
   73SOL     OW  604   0.922   0.503   0.899
   73SOL    HW1  605   0.897   0.494   0.803
   73SOL    HW2  606   0.970   0.421   0.930
   74SOL     OW  607   0.539   0.064   0.512
   74SOL    HW1  608   0.458   0.065   0.570
   74SOL    HW2  609   0.542   0.147   0.457
   75SOL     OW  610   1.434   1.188   0.041
   75SOL    HW1  611   1.466   1.112   0.098
   75SOL    HW2  612   1.342   1.215   0.071
   76SOL     OW  613   0.297   0.035   0.171
   76SOL    HW1  614   0.346   0.119   0.150
   76SOL    HW2  615   0.359  -0.030   0.216
   77SOL     OW  616   0.935   0.236   0.480
   77SOL    HW1  617   0.887   0.277   0.402
   77SOL    HW2  618   1.034   0.234   0.461
   78SOL     OW  619   1.076   0.683   1.464
   78SOL    HW1  620   0.996   0.622   1.467
   78SOL    HW2  621   1.157   0.630   1.440
   79SOL     OW  622   1.227   1.570   0.793
   79SOL    HW1  623   1.248   1.644   0.728
   79SOL    HW2  624   1.295   1.570   0.866
   80SOL     OW  625   0.459   1.152   0.741
   80SOL    HW1  626   0.388   1.125   0.806
   80SOL    HW2  627   0.433   1.124   0.648
   81SOL     OW  628   1.271   1.797   0.591
   81SOL    HW1  629   1.315   1.861   0.527
   81SOL    HW2  630   1.221   1.849   0.661
   82SOL     OW  631   1.032   0.549   0.016
   82SOL    HW1  632   0.991   0.631  -0.023
   82SOL    HW2  633   1.096   0.575   0.089
   83SOL     OW  634   0.078   0.556   1.386
   83SOL    HW1  635   0.170   0.555   1.345
   83SOL    HW2  636   0.072   0.630   1.453
   84SOL     OW  637   0.561   0.222   1.147
   84SOL    HW1  638   0.599   0.138   1.184
   84SOL    HW2  639   0.473   0.241   1.191
   85SOL     OW  640   0.866   0.454   0.642
   85SOL    HW1  641   0.834   0.526   0.580
   85SOL    HW2  642   0.890   0.373   0.589
   86SOL     OW  643   1.017   0.039   0.753
   86SOL    HW1  644   0.945   0.044   0.684
   86SOL    HW2  645   0.993  -0.030   0.822
   87SOL     OW  646   1.429   1.173   0.867
   87SOL    HW1  647   1.374   1.089   0.860
   87SOL    HW2  648   1.455   1.202   0.775
   88SOL     OW  649   1.466   0.590   0.992
   88SOL    HW1  650   1.436   0.495   0.999
   88SOL    HW2  651   1.539   0.606   1.058
   89SOL     OW  652   1.857   0.833   0.377
   89SOL    HW1  653   1.899   0.769   0.441
   89SOL    HW2  654   1.819   0.782   0.299
   90SOL     OW  655   0.488   1.385   0.174
   90SOL    HW1  656   0.401   1.370   0.221
   90SOL    HW2  657   0.471   1.411   0.079
   91SOL     OW  658   1.664   1.280   0.657
   91SOL    HW1  659   1.763   1.288   0.671
   91SOL    HW2  660   1.619   1.364   0.688
   92SOL     OW  661   1.390   0.575   0.078
   92SOL    HW1  662   1.336   0.554   0.159
   92SOL    HW2  663   1.481   0.534   0.087
   93SOL     OW  664   0.527   0.256   0.328
   93SOL    HW1  665   0.554   0.197   0.253
   93SOL    HW2  666   0.527   0.351   0.297
   94SOL     OW  667   1.754   1.223   1.588
   94SOL    HW1  668   1.845   1.184   1.575
   94SOL    HW2  669   1.762   1.319   1.612
   95SOL     OW  670   1.064   1.347   1.340
   95SOL    HW1  671   0.984   1.324   1.395
   95SOL    HW2  672   1.147   1.321   1.389
   96SOL     OW  673   1.592   1.629   1.625
   96SOL    HW1  674   1.619   1.663   1.535
   96SOL    HW2  675   1.671   1.591   1.671
   97SOL     OW  676   1.111   1.195   1.100
   97SOL    HW1  677   1.071   1.239   1.181
   97SOL    HW2  678   1.070   1.232   1.017
   98SOL     OW  679   1.638   1.099   1.079
   98SOL    HW1  680   1.643   1.180   1.138
   98SOL    HW2  681   1.552   1.101   1.028
   99SOL     OW  682   0.915   0.089   1.402
   99SOL    HW1  683   0.940   0.069   1.307
   99SOL    HW2  684   0.987   0.145   1.444
  100SOL     OW  685   0.980   1.116   1.719
  100SOL    HW1  686   0.881   1.122   1.729
  100SOL    HW2  687   1.003   1.036   1.663
  101SOL     OW  688   0.705   1.050   0.368
  101SOL    HW1  689   0.691   1.057   0.467
  101SOL    HW2  690   0.789   0.999   0.350
  102SOL     OW  691   0.410   0.813   1.251
  102SOL    HW1  692   0.496   0.825   1.301
  102SOL    HW2  693   0.368   0.726   1.278
  103SOL     OW  694   1.274   0.386   1.262
  103SOL    HW1  695   1.295   0.460   1.326
  103SOL    HW2  696   1.185   0.403   1.219
  104SOL     OW  697   0.064   1.564   1.331
  104SOL    HW1  698   0.018   1.646   1.297
  104SOL    HW2  699   0.162   1.583   1.340
  105SOL     OW  700   0.367   1.100   0.501
  105SOL    HW1  701   0.360   1.183   0.445
  105SOL    HW2  702   0.371   1.020   0.441
  106SOL     OW  703   0.566   0.537   0.865
  106SOL    HW1  704   0.578   0.603   0.791
  106SOL    HW2  705   0.612   0.571   0.948
  107SOL     OW  706   1.252   1.348   0.388
  107SOL    HW1  707   1.302   1.425   0.428
  107SOL    HW2  708   1.157   1.350   0.420
  108SOL     OW  709   1.272   1.445   1.142
  108SOL    HW1  710   1.319   1.458   1.229
  108SOL    HW2  711   1.206   1.371   1.151
  109SOL     OW  712   1.582   0.639   0.472
  109SOL    HW1  713   1.551   0.700   0.545
  109SOL    HW2  714   1.632   0.691   0.403
  110SOL     OW  715   0.354   1.510   1.329
  110SOL    HW1  716   0.333   1.466   1.242
  110SOL    HW2  717   0.451   1.536   1.332
  111SOL     OW  718   0.402   0.751   1.598
  111SOL    HW1  719   0.470   0.806   1.551
  111SOL    HW2  720   0.442   0.663   1.625
  112SOL     OW  721   1.587   0.779   1.670
  112SOL    HW1  722   1.495   0.817   1.665
  112SOL    HW2  723   1.647   0.826   1.605
  113SOL     OW  724   1.013   0.105   1.770
  113SOL    HW1  725   1.019   0.190   1.718
  113SOL    HW2  726   1.045   0.029   1.713
  114SOL     OW  727   0.504   0.050   1.740
  114SOL    HW1  728   0.462  -0.007   1.670
  114SOL    HW2  729   0.438   0.119   1.772
  115SOL     OW  730   0.573   0.870   1.029
  115SOL    HW1  731   0.617   0.959   1.020
  115SOL    HW2  732   0.510   0.870   1.106
  116SOL     OW  733   1.360   0.862   1.045
  116SOL    HW1  734   1.285   0.862   0.979
  116SOL    HW2  735   1.397   0.770   1.054
  117SOL     OW  736   1.209   0.525   0.275
  117SOL    HW1  737   1.222   0.441   0.329
  117SOL    HW2  738   1.180   0.599   0.335
  118SOL     OW  739   0.307   0.213   1.231
  118SOL    HW1  740   0.284   0.250   1.321
  118SOL    HW2  741   0.277   0.118   1.225
  119SOL     OW  742   0.037   1.310   1.282
  119SOL    HW1  743   0.090   1.261   1.350
  119SOL    HW2  744   0.059   1.408   1.287
  120SOL     OW  745   0.732   0.634   1.064
  120SOL    HW1  746   0.791   0.608   0.988
  120SOL    HW2  747   0.704   0.730   1.053
  121SOL     OW  748   1.728   0.935   1.854
  121SOL    HW1  749   1.682   0.928   1.765
  121SOL    HW2  750   1.666   0.979   1.920
  122SOL     OW  751   0.307   0.063   0.618
  122SOL    HW1  752   0.296   0.157   0.651
  122SOL    HW2  753   0.302   0.000   0.695
  123SOL     OW  754   1.622   0.367   0.374
  123SOL    HW1  755   1.624   0.291   0.438
  123SOL    HW2  756   1.574   0.444   0.414
  124SOL     OW  757   1.023   0.766   0.966
  124SOL    HW1  758   1.038   0.787   1.062
  124SOL    HW2  759   0.993   0.671   0.957
  125SOL     OW  760   0.980   1.573   1.700
  125SOL    HW1  761   0.960   1.617   1.612
  125SOL    HW2  762   1.019   1.482   1.684
  126SOL     OW  763   1.859   1.518   1.605
  126SOL    HW1  764   1.873   1.545   1.510
  126SOL    HW2  765   1.942   1.540   1.658
  127SOL     OW  766   0.350   0.898   1.804
  127SOL    HW1  767   0.426   0.942   1.852
  127SOL    HW2  768   0.385   0.851   1.722
  128SOL     OW  769   1.540   0.274   0.125
  128SOL    HW1  770   1.479   0.199   0.148
  128SOL    HW2  771   1.562   0.326   0.208
  129SOL     OW  772   1.303   0.838   0.042
  129SOL    HW1  773   1.337   0.745   0.057
  129SOL    HW2  774   1.321   0.865  -0.053
  130SOL     OW  775   1.068   1.333   0.849
  130SOL    HW1  776   1.075   1.249   0.794
  130SOL    HW2  777   1.130   1.402   0.813
  131SOL     OW  778   0.319   0.810   0.949
  131SOL    HW1  779   0.412   0.846   0.954
  131SOL    HW2  780   0.313   0.725   1.001
  132SOL     OW  781   0.339   0.509   1.006
  132SOL    HW1  782   0.287   0.426   0.989
  132SOL    HW2  783   0.416   0.514   0.942
  133SOL     OW  784   1.138   0.380   1.678
  133SOL    HW1  785   1.093   0.443   1.742
  133SOL    HW2  786   1.231   0.411   1.661
  134SOL     OW  787   1.160   0.207   1.477
  134SOL    HW1  788   1.160   0.271   1.554
  134SOL    HW2  789   1.188   0.255   1.394
  135SOL     OW  790   0.008   1.326   0.200
  135SOL    HW1  791  -0.085   1.347   0.169
  135SOL    HW2  792   0.018   1.227   0.213
  136SOL     OW  793   0.088   1.801   0.927
  136SOL    HW1  794   0.046   1.715   0.900
  136SOL    HW2  795   0.182   1.804   0.893
  137SOL     OW  796   0.504   1.568   0.910
  137SOL    HW1  797   0.570   1.642   0.919
  137SOL    HW2  798   0.548   1.489   0.868
  138SOL     OW  799   1.002   0.796   1.238
  138SOL    HW1  800   1.043   0.764   1.324
  138SOL    HW2  801   0.906   0.769   1.235
  139SOL     OW  802   0.040   0.544   1.114
  139SOL    HW1  803   0.125   0.511   1.073
  139SOL    HW2  804   0.053   0.559   1.212
  140SOL     OW  805   0.189   0.520   1.722
  140SOL    HW1  806   0.248   0.480   1.652
  140SOL    HW2  807   0.131   0.591   1.681
  141SOL     OW  808   1.369   0.950   1.660
  141SOL    HW1  809   1.408   1.039   1.680
  141SOL    HW2  810   1.379   0.930   1.563
  142SOL     OW  811   0.815   0.572   0.325
  142SOL    HW1  812   0.822   0.483   0.279
  142SOL    HW2  813   0.721   0.606   0.317
  143SOL     OW  814   1.657   0.604   1.206
  143SOL    HW1  815   1.619   0.535   1.268
  143SOL    HW2  816   1.739   0.568   1.162
  144SOL     OW  817   0.252   1.564   1.744
  144SOL    HW1  818   0.222   1.621   1.820
  144SOL    HW2  819   0.245   1.467   1.770
  145SOL     OW  820   0.671   0.464   1.269
  145SOL    HW1  821   0.637   0.375   1.239
  145SOL    HW2  822   0.697   0.518   1.189
  146SOL     OW  823   0.930   1.678   1.465
  146SOL    HW1  824   0.906   1.660   1.370
  146SOL    HW2  825   0.960   1.772   1.475
  147SOL     OW  826   0.473   0.500   0.191
  147SOL    HW1  827   0.534   0.580   0.195
  147SOL    HW2  828   0.378   0.531   0.198
  148SOL     OW  829   0.159   1.137   1.466
  148SOL    HW1  830   0.181   1.076   1.542
  148SOL    HW2  831   0.169   1.088   1.380
  149SOL     OW  832   1.347   1.059   1.234
  149SOL    HW1  833   1.371   0.996   1.160
  149SOL    HW2  834   1.257   1.099   1.216
  150SOL     OW  835   1.302   0.855   0.309
  150SOL    HW1  836   1.216   0.824   0.351
  150SOL    HW2  837   1.298   0.841   0.210
  151SOL     OW  838   1.759   1.747   1.154
  151SOL    HW1  839   1.820   1.777   1.081
  151SOL    HW2  840   1.721   1.658   1.132
  152SOL     OW  841   1.252   1.731   1.128
  152SOL    HW1  842   1.336   1.736   1.074
  152SOL    HW2  843   1.229   1.635   1.146
  153SOL     OW  844   0.083   1.258   1.022
  153SOL    HW1  845   0.078   1.257   1.122
  153SOL    HW2  846   0.000   1.217   0.984
  154SOL     OW  847   0.688   1.662   1.716
  154SOL    HW1  848   0.632   1.743   1.725
  154SOL    HW2  849   0.740   1.666   1.630
  155SOL     OW  850   0.903   0.086   0.133
  155SOL    HW1  851   0.954   0.087   0.047
  155SOL    HW2  852   0.959   0.044   0.204
  156SOL     OW  853   1.726   0.135   0.523
  156SOL    HW1  854   1.799   0.118   0.456
  156SOL    HW2  855   1.695   0.048   0.561
  157SOL     OW  856   1.388   1.573   0.477
  157SOL    HW1  857   1.455   1.585   0.403
  157SOL    HW2  858   1.348   1.662   0.500
  158SOL     OW  859   0.130   1.794   1.851
  158SOL    HW1  860   0.089   1.720   1.904
  158SOL    HW2  861   0.194   1.845   1.909
  159SOL     OW  862   1.280   0.927   0.672
  159SOL    HW1  863   1.340   0.846   0.674
  159SOL    HW2  864   1.320   0.996   0.612
  160SOL     OW  865   0.830   1.273   1.422
  160SOL    HW1  866   0.825   1.306   1.517
  160SOL    HW2  867   0.744   1.292   1.376
  161SOL     OW  868   0.672   1.616   0.154
  161SOL    HW1  869   0.681   1.626   0.055
  161SOL    HW2  870   0.632   1.527   0.175
  162SOL     OW  871   1.650   1.720   1.394
  162SOL    HW1  872   1.703   1.730   1.310
  162SOL    HW2  873   1.623   1.810   1.428
  163SOL     OW  874   1.841   0.175   0.963
  163SOL    HW1  875   1.880   0.090   0.927
  163SOL    HW2  876   1.743   0.177   0.944
  164SOL     OW  877   0.263   0.326   0.720
  164SOL    HW1  878   0.184   0.377   0.686
  164SOL    HW2  879   0.254   0.311   0.818
  165SOL     OW  880   1.194   1.612   0.031
  165SOL    HW1  881   1.200   1.519   0.068
  165SOL    HW2  882   1.135   1.612  -0.049
  166SOL     OW  883   0.822   1.002   1.372
  166SOL    HW1  884   0.862   1.001   1.280
  166SOL    HW2  885   0.832   1.094   1.412
  167SOL     OW  886   0.916   0.910   0.291
  167SOL    HW1  887   0.979   0.948   0.223
  167SOL    HW2  888   0.956   0.827   0.330
  168SOL     OW  889   1.504   1.607   0.044
  168SOL    HW1  890   1.412   1.644   0.051
  168SOL    HW2  891   1.542   1.627  -0.046
  169SOL     OW  892   0.372   1.288   1.490
  169SOL    HW1  893   0.359   1.381   1.456
  169SOL    HW2  894   0.288   1.236   1.477
  170SOL     OW  895   1.614   1.292   1.289
  170SOL    HW1  896   1.674   1.295   1.369
  170SOL    HW2  897   1.539   1.356   1.302
  171SOL     OW  898   1.039   1.098   0.696
  171SOL    HW1  899   0.969   1.051   0.750
  171SOL    HW2  900   1.098   1.030   0.653
  172SOL     OW  901   1.014   0.236   0.971
  172SOL    HW1  902   1.006   0.200   0.878
  172SOL    HW2  903   1.012   0.160   1.036
  173SOL     OW  904   0.590   1.487   0.491
  173SOL    HW1  905   0.632   1.429   0.421
  173SOL    HW2  906   0.546   1.566   0.447
  174SOL     OW  907   1.709   0.385   1.381
  174SOL    HW1  908   1.782   0.454   1.385
  174SOL    HW2  909   1.737   0.310   1.322
  175SOL     OW  910   0.255   1.348   0.290
  175SOL    HW1  911   0.159   1.349   0.263
  175SOL    HW2  912   0.267   1.401   0.374
  176SOL     OW  913   0.105   1.013   1.726
  176SOL    HW1  914   0.028   0.980   1.780
  176SOL    HW2  915   0.190   0.983   1.768
  177SOL     OW  916   0.672   0.203   1.489
  177SOL    HW1  917   0.762   0.187   1.449
  177SOL    HW2  918   0.680   0.208   1.588
  178SOL     OW  919   0.075   0.345   0.033
  178SOL    HW1  920  -0.017   0.317   0.004
  178SOL    HW2  921   0.106   0.422  -0.023
  179SOL     OW  922   1.440   0.856   1.398
  179SOL    HW1  923   1.383   0.908   1.335
  179SOL    HW2  924   1.536   0.868   1.374
  180SOL     OW  925   0.072   0.166   0.318
  180SOL    HW1  926   0.055   0.249   0.264
  180SOL    HW2  927   0.162   0.129   0.296
  181SOL     OW  928   1.183   1.335   0.119
  181SOL    HW1  929   1.084   1.324   0.121
  181SOL    HW2  930   1.217   1.350   0.212
  182SOL     OW  931   0.613   0.842   1.431
  182SOL    HW1  932   0.669   0.923   1.414
  182SOL    HW2  933   0.672   0.762   1.434
  183SOL     OW  934   1.493   1.767   0.959
  183SOL    HW1  935   1.526   1.831   0.890
  183SOL    HW2  936   1.559   1.761   1.034
  184SOL     OW  937   0.716   0.565   1.708
  184SOL    HW1  938   0.735   0.630   1.782
  184SOL    HW2  939   0.776   0.485   1.717
  185SOL     OW  940   1.450   1.220   1.633
  185SOL    HW1  941   1.441   1.210   1.732
  185SOL    HW2  942   1.546   1.213   1.607
  186SOL     OW  943   0.390   1.741   1.560
  186SOL    HW1  944   0.299   1.782   1.558
  186SOL    HW2  945   0.383   1.647   1.592
  187SOL     OW  946   1.674   0.883   1.254
  187SOL    HW1  947   1.647   0.794   1.217
  187SOL    HW2  948   1.675   0.951   1.181
  188SOL     OW  949   1.225   0.325   0.449
  188SOL    HW1  950   1.290   0.251   0.438
  188SOL    HW2  951   1.245   0.375   0.533
  189SOL     OW  952   0.594   0.745   0.652
  189SOL    HW1  953   0.644   0.830   0.633
  189SOL    HW2  954   0.506   0.747   0.604
  190SOL     OW  955   1.777   0.342   1.642
  190SOL    HW1  956   1.760   0.373   1.548
  190SOL    HW2  957   1.693   0.305   1.680
  191SOL     OW  958   1.730   0.934   1.517
  191SOL    HW1  959   1.768   1.025   1.532
  191SOL    HW2  960   1.722   0.917   1.418
  192SOL     OW  961   0.859   1.374   0.016
  192SOL    HW1  962   0.813   1.389   0.104
  192SOL    HW2  963   0.903   1.459  -0.014
  193SOL     OW  964   0.661   1.790   0.953
  193SOL    HW1  965   0.615   1.878   0.940
  193SOL    HW2  966   0.760   1.802   0.946
  194SOL     OW  967   0.859   0.956   0.861
  194SOL    HW1  968   0.913   0.887   0.909
  194SOL    HW2  969   0.827   1.025   0.927
  195SOL     OW  970   1.083   0.984   0.087
  195SOL    HW1  971   1.060   1.037   0.005
  195SOL    HW2  972   1.164   0.928   0.068
  196SOL     OW  973   1.861   1.569   0.851
  196SOL    HW1  974   1.790   1.557   0.781
  196SOL    HW2  975   1.862   1.490   0.911
  197SOL     OW  976   0.221   1.314   1.844
  197SOL    HW1  977   0.156   1.241   1.823
  197SOL    HW2  978   0.225   1.328   1.942
  198SOL     OW  979   0.079   1.240   0.653
  198SOL    HW1  980   0.078   1.193   0.741
  198SOL    HW2  981   0.161   1.212   0.602
  199SOL     OW  982   0.672   1.391   1.624
  199SOL    HW1  983   0.594   1.341   1.662
  199SOL    HW2  984   0.669   1.486   1.655
  200SOL     OW  985   1.824   0.192   1.227
  200SOL    HW1  986   1.820   0.102   1.271
  200SOL    HW2  987   1.827   0.181   1.128
  201SOL     OW  988   0.428   0.424   0.520
  201SOL    HW1  989   0.458   0.352   0.458
  201SOL    HW2  990   0.389   0.384   0.603
  202SOL     OW  991   1.705   1.487   1.104
  202SOL    HW1  992   1.612   1.462   1.077
  202SOL    HW2  993   1.731   1.437   1.186
  203SOL     OW  994   0.317   0.547   1.280
  203SOL    HW1  995   0.355   0.488   1.352
  203SOL    HW2  996   0.357   0.521   1.192
  204SOL     OW  997   0.812   1.586   0.687
  204SOL    HW1  998   0.844   1.596   0.593
  204SOL    HW2  999   0.733   1.524   0.689
  205SOL     OW 1000   1.424   0.214   1.112
  205SOL    HW1 1001   1.476   0.149   1.167
  205SOL    HW2 1002   1.375   0.277   1.173
  206SOL     OW 1003   1.001   0.034   1.154
  206SOL    HW1 1004   0.938  -0.038   1.123
  206SOL    HW2 1005   1.094  -0.002   1.154
  207SOL     OW 1006   0.770   1.330   0.301
  207SOL    HW1 1007   0.724   1.243   0.318
  207SOL    HW2 1008   0.861   1.327   0.342
  208SOL     OW 1009   0.618   1.567   1.284
  208SOL    HW1 1010   0.613   1.649   1.341
  208SOL    HW2 1011   0.707   1.564   1.239
  209SOL     OW 1012   1.352   0.052   0.168
  209SOL    HW1 1013   1.387   0.011   0.084
  209SOL    HW2 1014   1.262   0.014   0.188
  210SOL     OW 1015   1.300   0.453   0.691
  210SOL    HW1 1016   1.241   0.533   0.695
  210SOL    HW2 1017   1.315   0.418   0.784
  211SOL     OW 1018   1.593   0.221   0.882
  211SOL    HW1 1019   1.509   0.220   0.936
  211SOL    HW2 1020   1.595   0.304   0.826
  212SOL     OW 1021   0.039   1.077   0.300
  212SOL    HW1 1022   0.138   1.066   0.291
  212SOL    HW2 1023  -0.001   0.991   0.332
  213SOL     OW 1024   0.875   1.646   0.337
  213SOL    HW1 1025   0.798   1.611   0.283
  213SOL    HW2 1026   0.843   1.717   0.399
  214SOL     OW 1027   0.230   0.628   1.975
  214SOL    HW1 1028   0.137   0.626   2.012
  214SOL    HW2 1029   0.231   0.589   1.883
  215SOL     OW 1030   0.225   0.275   2.858
  215SOL    HW1 1031   0.260   0.258   2.950
  215SOL    HW2 1032   0.137   0.230   2.846
  216SOL     OW 1033   0.019   0.368   2.509
  216SOL    HW1 1034  -0.063   0.411   2.548
  216SOL    HW2 1035  -0.009   0.295   2.446
  217SOL     OW 1036   0.569   1.275   3.027
  217SOL    HW1 1037   0.476   1.268   2.990
  217SOL    HW2 1038   0.580   1.364   3.071
  218SOL     OW 1039   1.555   1.511   2.565
  218SOL    HW1 1040   1.498   1.495   2.646
  218SOL    HW2 1041   1.496   1.521   2.485
  219SOL     OW 1042   1.135   0.703   2.579
  219SOL    HW1 1043   1.192   0.781   2.554
  219SOL    HW2 1044   1.075   0.729   2.655
  220SOL     OW 1045   1.755   0.607   2.093
  220SOL    HW1 1046   1.743   0.594   1.994
  220SOL    HW2 1047   1.725   0.526   2.142
  221SOL     OW 1048   0.768   1.144   2.885
  221SOL    HW1 1049   0.690   1.161   2.945
  221SOL    HW2 1050   0.802   1.231   2.849
  222SOL     OW 1051   0.850   0.798   3.685
  222SOL    HW1 1052   0.846   0.874   3.750
  222SOL    HW2 1053   0.872   0.834   3.594
  223SOL     OW 1054   0.685   1.012   2.527
  223SOL    HW1 1055   0.754   0.996   2.597
  223SOL    HW2 1056   0.612   1.069   2.565
  224SOL     OW 1057   0.686   1.161   3.665
  224SOL    HW1 1058   0.746   1.240   3.679
  224SOL    HW2 1059   0.600   1.192   3.624
  225SOL     OW 1060   0.335   1.435   2.923
  225SOL    HW1 1061   0.257   1.404   2.870
  225SOL    HW2 1062   0.393   1.493   2.866
  226SOL     OW 1063   1.460   1.505   3.201
  226SOL    HW1 1064   1.484   1.599   3.227
  226SOL    HW2 1065   1.444   1.451   3.283
  227SOL     OW 1066   0.438   0.392   3.361
  227SOL    HW1 1067   0.520   0.336   3.370
  227SOL    HW2 1068   0.357   0.334   3.365
  228SOL     OW 1069   1.603   0.447   2.599
  228SOL    HW1 1070   1.529   0.493   2.549
  228SOL    HW2 1071   1.654   0.515   2.652
  229SOL     OW 1072   0.231   1.713   2.345
  229SOL    HW1 1073   0.265   1.790   2.399
  229SOL    HW2 1074   0.275   1.713   2.255
  230SOL     OW 1075   1.127   1.341   3.552
  230SOL    HW1 1076   1.174   1.341   3.640
  230SOL    HW2 1077   1.079   1.254   3.541
  231SOL     OW 1078   0.230   1.434   2.400
  231SOL    HW1 1079   0.204   1.530   2.400
  231SOL    HW2 1080   0.159   1.380   2.445
  232SOL     OW 1081   0.240   1.091   2.748
  232SOL    HW1 1082   0.254   1.007   2.800
  232SOL    HW2 1083   0.185   1.155   2.803
  233SOL     OW 1084   0.620   1.786   3.301
  233SOL    HW1 1085   0.528   1.769   3.336
  233SOL    HW2 1086   0.648   1.878   3.327
  234SOL     OW 1087   0.606   0.964   1.985
  234SOL    HW1 1088   0.613   1.048   1.931
  234SOL    HW2 1089   0.652   0.977   2.073
  235SOL     OW 1090   1.594   0.114   3.342
  235SOL    HW1 1091   1.576   0.181   3.270
  235SOL    HW2 1092   1.591   0.160   3.431
  236SOL     OW 1093   0.122   0.643   2.425
  236SOL    HW1 1094   0.077   0.555   2.442
  236SOL    HW2 1095   0.121   0.697   2.509
  237SOL     OW 1096   0.027   1.596   1.979
  237SOL    HW1 1097   0.008   1.500   2.000
  237SOL    HW2 1098  -0.006   1.654   2.054
  238SOL     OW 1099   1.689   0.922   2.474
  238SOL    HW1 1100   1.784   0.893   2.482
  238SOL    HW2 1101   1.681   0.987   2.399
  239SOL     OW 1102   1.641   1.108   2.294
  239SOL    HW1 1103   1.727   1.110   2.242
  239SOL    HW2 1104   1.655   1.155   2.382
  240SOL     OW 1105   0.113   0.737   3.459
  240SOL    HW1 1106   0.201   0.724   3.504
  240SOL    HW2 1107   0.100   0.834   3.437
  241SOL     OW 1108   0.613   1.365   2.588
  241SOL    HW1 1109   0.564   1.278   2.597
  241SOL    HW2 1110   0.590   1.408   2.501
  242SOL     OW 1111   1.293   1.228   3.285
  242SOL    HW1 1112   1.330   1.155   3.227
  242SOL    HW2 1113   1.345   1.233   3.370
  243SOL     OW 1114   0.809   0.004   2.364
  243SOL    HW1 1115   0.849   0.095   2.355
  243SOL    HW2 1116   0.709   0.012   2.370
  244SOL     OW 1117   0.197   0.976   3.126
  244SOL    HW1 1118   0.286   0.931   3.112
  244SOL    HW2 1119   0.124   0.911   3.107
  245SOL     OW 1120   1.525   0.999   2.052
  245SOL    HW1 1121   1.462   0.923   2.065
  245SOL    HW2 1122   1.573   1.017   2.138
  246SOL     OW 1123   1.187   1.792   3.478
  246SOL    HW1 1124   1.211   1.852   3.402
  246SOL    HW2 1125   1.194   1.697   3.448
  247SOL     OW 1126   0.317   0.251   3.663
  247SOL    HW1 1127   0.388   0.322   3.669
  247SOL    HW2 1128   0.229   0.290   3.691
  248SOL     OW 1129   1.466   1.417   2.815
  248SOL    HW1 1130   1.407   1.423   2.895
  248SOL    HW2 1131   1.451   1.329   2.769
  249SOL     OW 1132   1.667   1.714   2.434
  249SOL    HW1 1133   1.626   1.691   2.346
  249SOL    HW2 1134   1.649   1.640   2.499
  250SOL     OW 1135   0.598   0.729   2.132
  250SOL    HW1 1136   0.622   0.798   2.064
  250SOL    HW2 1137   0.520   0.762   2.186
  251SOL     OW 1138   1.281   0.345   2.806
  251SOL    HW1 1139   1.195   0.295   2.793
  251SOL    HW2 1140   1.343   0.291   2.862
  252SOL     OW 1141   1.576   1.662   2.169
  252SOL    HW1 1142   1.665   1.708   2.172
  252SOL    HW2 1143   1.555   1.638   2.074
  253SOL     OW 1144   0.807   0.605   3.327
  253SOL    HW1 1145   0.760   0.602   3.416
  253SOL    HW2 1146   0.756   0.550   3.261
  254SOL     OW 1147   1.394   0.469   3.536
  254SOL    HW1 1148   1.374   0.512   3.624
  254SOL    HW2 1149   1.472   0.407   3.545
  255SOL     OW 1150   0.973   0.890   3.434
  255SOL    HW1 1151   1.019   0.806   3.405
  255SOL    HW2 1152   0.917   0.924   3.359
  256SOL     OW 1153   0.991   0.410   3.104
  256SOL    HW1 1154   0.914   0.444   3.158
  256SOL    HW2 1155   0.957   0.359   3.025
  257SOL     OW 1156   1.041   0.701   2.291
  257SOL    HW1 1157   1.067   0.697   2.387
  257SOL    HW2 1158   0.956   0.650   2.277
  258SOL     OW 1159   0.076   0.811   2.651
  258SOL    HW1 1160   0.175   0.799   2.660
  258SOL    HW2 1161   0.052   0.906   2.672
  259SOL     OW 1162   0.130   1.821   3.433
  259SOL    HW1 1163   0.120   1.806   3.532
  259SOL    HW2 1164   0.044   1.857   3.397
  260SOL     OW 1165   0.865   0.348   2.057
  260SOL    HW1 1166   0.924   0.411   2.008
  260SOL    HW2 1167   0.884   0.254   2.028
  261SOL     OW 1168   1.719   0.585   3.693
  261SOL    HW1 1169   1.693   0.674   3.657
  261SOL    HW2 1170   1.717   0.517   3.620
  262SOL     OW 1171   1.362   1.144   2.407
  262SOL    HW1 1172   1.445   1.115   2.359
  262SOL    HW2 1173   1.313   1.211   2.351
  263SOL     OW 1174   0.550   0.196   2.747
  263SOL    HW1 1175   0.545   0.191   2.847
  263SOL    HW2 1176   0.552   0.292   2.718
  264SOL     OW 1177   1.008   1.456   2.339
  264SOL    HW1 1178   0.962   1.528   2.287
  264SOL    HW2 1179   1.004   1.476   2.437
  265SOL     OW 1180   0.351   1.801   2.715
  265SOL    HW1 1181   0.401   1.715   2.721
  265SOL    HW2 1182   0.416   1.878   2.712
  266SOL     OW 1183   1.795   1.066   2.735
  266SOL    HW1 1184   1.733   1.051   2.659
  266SOL    HW2 1185   1.743   1.077   2.820
  267SOL     OW 1186   1.227   1.550   3.368
  267SOL    HW1 1187   1.233   1.473   3.432
  267SOL    HW2 1188   1.175   1.524   3.288
  268SOL     OW 1189   0.321   0.943   2.104
  268SOL    HW1 1190   0.403   0.982   2.062
  268SOL    HW2 1191   0.294   0.861   2.055
  269SOL     OW 1192   1.458   0.735   2.590
  269SOL    HW1 1193   1.453   0.670   2.665
  269SOL    HW2 1194   1.538   0.794   2.603
  270SOL     OW 1195   0.461   1.266   3.589
  270SOL    HW1 1196   0.411   1.267   3.503
  270SOL    HW2 1197   0.398   1.248   3.665
  271SOL     OW 1198   1.111   1.776   2.099
  271SOL    HW1 1199   1.051   1.714   2.149
  271SOL    HW2 1200   1.142   1.732   2.014
  272SOL     OW 1201   0.202   0.285   3.360
  272SOL    HW1 1202   0.122   0.345   3.347
  272SOL    HW2 1203   0.192   0.236   3.446
  273SOL     OW 1204   1.632   1.377   1.943
  273SOL    HW1 1205   1.600   1.471   1.933
  273SOL    HW2 1206   1.556   1.314   1.931
  274SOL     OW 1207   0.464   1.743   2.185
  274SOL    HW1 1208   0.497   1.782   2.271
  274SOL    HW2 1209   0.540   1.736   2.120
  275SOL     OW 1210   1.400   0.107   2.288
  275SOL    HW1 1211   1.376   0.070   2.198
  275SOL    HW2 1212   1.499   0.123   2.292
  276SOL     OW 1213   0.249   1.785   3.103
  276SOL    HW1 1214   0.306   1.720   3.153
  276SOL    HW2 1215   0.233   1.752   3.010
  277SOL     OW 1216   0.940   1.698   2.766
  277SOL    HW1 1217   1.020   1.641   2.787
  277SOL    HW2 1218   0.891   1.658   2.689
  278SOL     OW 1219   0.382   0.700   2.342
  278SOL    HW1 1220   0.427   0.610   2.339
  278SOL    HW2 1221   0.288   0.689   2.375
  279SOL     OW 1222   1.547   0.222   3.591
  279SOL    HW1 1223   1.542   0.259   3.683
  279SOL    HW2 1224   1.475   0.153   3.579
  280SOL     OW 1225   0.614   0.122   1.979
  280SOL    HW1 1226   0.712   0.100   1.986
  280SOL    HW2 1227   0.583   0.105   1.886
  281SOL     OW 1228   0.781   0.264   3.611
  281SOL    HW1 1229   0.848   0.203   3.654
  281SOL    HW2 1230   0.708   0.283   3.676
  282SOL     OW 1231   0.888   1.514   3.057
  282SOL    HW1 1232   0.865   1.489   2.963
  282SOL    HW2 1233   0.949   1.445   3.096
  283SOL     OW 1234   1.351   0.590   3.295
  283SOL    HW1 1235   1.379   0.547   3.380
  283SOL    HW2 1236   1.376   0.686   3.296
  284SOL     OW 1237   0.803   1.402   2.786
  284SOL    HW1 1238   0.893   1.416   2.744
  284SOL    HW2 1239   0.732   1.404   2.715
  285SOL     OW 1240   0.922   0.503   2.761
  285SOL    HW1 1241   0.897   0.494   2.665
  285SOL    HW2 1242   0.970   0.421   2.792
  286SOL     OW 1243   0.539   0.064   2.374
  286SOL    HW1 1244   0.458   0.065   2.432
  286SOL    HW2 1245   0.542   0.147   2.319
  287SOL     OW 1246   1.434   1.188   1.903
  287SOL    HW1 1247   1.466   1.112   1.960
  287SOL    HW2 1248   1.342   1.215   1.933
  288SOL     OW 1249   0.297   0.035   2.033
  288SOL    HW1 1250   0.346   0.119   2.012
  288SOL    HW2 1251   0.359  -0.030   2.078
  289SOL     OW 1252   0.935   0.236   2.342
  289SOL    HW1 1253   0.887   0.277   2.264
  289SOL    HW2 1254   1.034   0.234   2.323
  290SOL     OW 1255   1.076   0.683   3.326
  290SOL    HW1 1256   0.996   0.622   3.329
  290SOL    HW2 1257   1.157   0.630   3.302
  291SOL     OW 1258   1.227   1.570   2.655
  291SOL    HW1 1259   1.248   1.644   2.590
  291SOL    HW2 1260   1.295   1.570   2.728
  292SOL     OW 1261   0.459   1.152   2.603
  292SOL    HW1 1262   0.388   1.125   2.668
  292SOL    HW2 1263   0.433   1.124   2.510
  293SOL     OW 1264   1.271   1.797   2.453
  293SOL    HW1 1265   1.315   1.861   2.389
  293SOL    HW2 1266   1.221   1.849   2.523
  294SOL     OW 1267   1.032   0.549   1.878
  294SOL    HW1 1268   0.991   0.631   1.839
  294SOL    HW2 1269   1.096   0.575   1.951
  295SOL     OW 1270   0.078   0.556   3.248
  295SOL    HW1 1271   0.170   0.555   3.207
  295SOL    HW2 1272   0.072   0.630   3.315
  296SOL     OW 1273   0.561   0.222   3.009
  296SOL    HW1 1274   0.599   0.138   3.046
  296SOL    HW2 1275   0.473   0.241   3.053
  297SOL     OW 1276   0.866   0.454   2.504
  297SOL    HW1 1277   0.834   0.526   2.442
  297SOL    HW2 1278   0.890   0.373   2.451
  298SOL     OW 1279   1.017   0.039   2.615
  298SOL    HW1 1280   0.945   0.044   2.546
  298SOL    HW2 1281   0.993  -0.030   2.684
  299SOL     OW 1282   1.429   1.173   2.729
  299SOL    HW1 1283   1.374   1.089   2.722
  299SOL    HW2 1284   1.455   1.202   2.637
  300SOL     OW 1285   1.466   0.590   2.854
  300SOL    HW1 1286   1.436   0.495   2.861
  300SOL    HW2 1287   1.539   0.606   2.920
  301SOL     OW 1288   1.857   0.833   2.239
  301SOL    HW1 1289   1.899   0.769   2.303
  301SOL    HW2 1290   1.819   0.782   2.161
  302SOL     OW 1291   0.488   1.385   2.036
  302SOL    HW1 1292   0.401   1.370   2.083
  302SOL    HW2 1293   0.471   1.411   1.941
  303SOL     OW 1294   1.664   1.280   2.519
  303SOL    HW1 1295   1.763   1.288   2.533
  303SOL    HW2 1296   1.619   1.364   2.550
  304SOL     OW 1297   1.390   0.575   1.940
  304SOL    HW1 1298   1.336   0.554   2.021
  304SOL    HW2 1299   1.481   0.534   1.949
  305SOL     OW 1300   0.527   0.256   2.190
  305SOL    HW1 1301   0.554   0.197   2.115
  305SOL    HW2 1302   0.527   0.351   2.159
  306SOL     OW 1303   1.754   1.223   3.450
  306SOL    HW1 1304   1.845   1.184   3.437
  306SOL    HW2 1305   1.762   1.319   3.474
  307SOL     OW 1306   1.064   1.347   3.202
  307SOL    HW1 1307   0.984   1.324   3.257
  307SOL    HW2 1308   1.147   1.321   3.251
  308SOL     OW 1309   1.592   1.629   3.487
  308SOL    HW1 1310   1.619   1.663   3.397
  308SOL    HW2 1311   1.671   1.591   3.533
  309SOL     OW 1312   1.111   1.195   2.962
  309SOL    HW1 1313   1.071   1.239   3.043
  309SOL    HW2 1314   1.070   1.232   2.879
  310SOL     OW 1315   1.638   1.099   2.941
  310SOL    HW1 1316   1.643   1.180   3.000
  310SOL    HW2 1317   1.552   1.101   2.890
  311SOL     OW 1318   0.915   0.089   3.264
  311SOL    HW1 1319   0.940   0.069   3.169
  311SOL    HW2 1320   0.987   0.145   3.306
  312SOL     OW 1321   0.980   1.116   3.581
  312SOL    HW1 1322   0.881   1.122   3.591
  312SOL    HW2 1323   1.003   1.036   3.525
  313SOL     OW 1324   0.705   1.050   2.230
  313SOL    HW1 1325   0.691   1.057   2.329
  313SOL    HW2 1326   0.789   0.999   2.212
  314SOL     OW 1327   0.410   0.813   3.113
  314SOL    HW1 1328   0.496   0.825   3.163
  314SOL    HW2 1329   0.368   0.726   3.140
  315SOL     OW 1330   1.274   0.386   3.124
  315SOL    HW1 1331   1.295   0.460   3.188
  315SOL    HW2 1332   1.185   0.403   3.081
  316SOL     OW 1333   0.064   1.564   3.193
  316SOL    HW1 1334   0.018   1.646   3.159
  316SOL    HW2 1335   0.162   1.583   3.202
  317SOL     OW 1336   0.367   1.100   2.363
  317SOL    HW1 1337   0.360   1.183   2.307
  317SOL    HW2 1338   0.371   1.020   2.303
  318SOL     OW 1339   0.566   0.537   2.727
  318SOL    HW1 1340   0.578   0.603   2.653
  318SOL    HW2 1341   0.612   0.571   2.810
  319SOL     OW 1342   1.252   1.348   2.250
  319SOL    HW1 1343   1.302   1.425   2.290
  319SOL    HW2 1344   1.157   1.350   2.282
  320SOL     OW 1345   1.272   1.445   3.004
  320SOL    HW1 1346   1.319   1.458   3.091
  320SOL    HW2 1347   1.206   1.371   3.013
  321SOL     OW 1348   1.582   0.639   2.334
  321SOL    HW1 1349   1.551   0.700   2.407
  321SOL    HW2 1350   1.632   0.691   2.265
  322SOL     OW 1351   0.354   1.510   3.191
  322SOL    HW1 1352   0.333   1.466   3.104
  322SOL    HW2 1353   0.451   1.536   3.194
  323SOL     OW 1354   0.402   0.751   3.460
  323SOL    HW1 1355   0.470   0.806   3.413
  323SOL    HW2 1356   0.442   0.663   3.487
  324SOL     OW 1357   1.587   0.779   3.532
  324SOL    HW1 1358   1.495   0.817   3.527
  324SOL    HW2 1359   1.647   0.826   3.467
  325SOL     OW 1360   1.013   0.105   3.632
  325SOL    HW1 1361   1.019   0.190   3.580
  325SOL    HW2 1362   1.045   0.029   3.575
  326SOL     OW 1363   0.504   0.050   3.602
  326SOL    HW1 1364   0.462  -0.007   3.532
  326SOL    HW2 1365   0.438   0.119   3.634
  327SOL     OW 1366   0.573   0.870   2.891
  327SOL    HW1 1367   0.617   0.959   2.882
  327SOL    HW2 1368   0.510   0.870   2.968
  328SOL     OW 1369   1.360   0.862   2.907
  328SOL    HW1 1370   1.285   0.862   2.841
  328SOL    HW2 1371   1.397   0.770   2.916
  329SOL     OW 1372   1.209   0.525   2.137
  329SOL    HW1 1373   1.222   0.441   2.191
  329SOL    HW2 1374   1.180   0.599   2.197
  330SOL     OW 1375   0.307   0.213   3.093
  330SOL    HW1 1376   0.284   0.250   3.183
  330SOL    HW2 1377   0.277   0.118   3.087
  331SOL     OW 1378   0.037   1.310   3.144
  331SOL    HW1 1379   0.090   1.261   3.212
  331SOL    HW2 1380   0.059   1.408   3.149
  332SOL     OW 1381   0.732   0.634   2.926
  332SOL    HW1 1382   0.791   0.608   2.850
  332SOL    HW2 1383   0.704   0.730   2.915
  333SOL     OW 1384   1.728   0.935   3.716
  333SOL    HW1 1385   1.682   0.928   3.627
  333SOL    HW2 1386   1.666   0.979   3.782
  334SOL     OW 1387   0.307   0.063   2.480
  334SOL    HW1 1388   0.296   0.157   2.513
  334SOL    HW2 1389   0.302   0.000   2.557
  335SOL     OW 1390   1.622   0.367   2.236
  335SOL    HW1 1391   1.624   0.291   2.300
  335SOL    HW2 1392   1.574   0.444   2.276
  336SOL     OW 1393   1.023   0.766   2.828
  336SOL    HW1 1394   1.038   0.787   2.924
  336SOL    HW2 1395   0.993   0.671   2.819
  337SOL     OW 1396   0.980   1.573   3.562
  337SOL    HW1 1397   0.960   1.617   3.474
  337SOL    HW2 1398   1.019   1.482   3.546
  338SOL     OW 1399   1.859   1.518   3.467
  338SOL    HW1 1400   1.873   1.545   3.372
  338SOL    HW2 1401   1.942   1.540   3.520
  339SOL     OW 1402   0.350   0.898   3.666
  339SOL    HW1 1403   0.426   0.942   3.714
  339SOL    HW2 1404   0.385   0.851   3.584
  340SOL     OW 1405   1.540   0.274   1.987
  340SOL    HW1 1406   1.479   0.199   2.010
  340SOL    HW2 1407   1.562   0.326   2.070
  341SOL     OW 1408   1.303   0.838   1.904
  341SOL    HW1 1409   1.337   0.745   1.919
  341SOL    HW2 1410   1.321   0.865   1.809
  342SOL     OW 1411   1.068   1.333   2.711
  342SOL    HW1 1412   1.075   1.249   2.656
  342SOL    HW2 1413   1.130   1.402   2.675
  343SOL     OW 1414   0.319   0.810   2.811
  343SOL    HW1 1415   0.412   0.846   2.816
  343SOL    HW2 1416   0.313   0.725   2.863
  344SOL     OW 1417   0.339   0.509   2.868
  344SOL    HW1 1418   0.287   0.426   2.851
  344SOL    HW2 1419   0.416   0.514   2.804
  345SOL     OW 1420   1.138   0.380   3.540
  345SOL    HW1 1421   1.093   0.443   3.604
  345SOL    HW2 1422   1.231   0.411   3.523
  346SOL     OW 1423   1.160   0.207   3.339
  346SOL    HW1 1424   1.160   0.271   3.416
  346SOL    HW2 1425   1.188   0.255   3.256
  347SOL     OW 1426   0.008   1.326   2.062
  347SOL    HW1 1427  -0.085   1.347   2.031
  347SOL    HW2 1428   0.018   1.227   2.075
  348SOL     OW 1429   0.088   1.801   2.789
  348SOL    HW1 1430   0.046   1.715   2.762
  348SOL    HW2 1431   0.182   1.804   2.755
  349SOL     OW 1432   0.504   1.568   2.772
  349SOL    HW1 1433   0.570   1.642   2.781
  349SOL    HW2 1434   0.548   1.489   2.730
  350SOL     OW 1435   1.002   0.796   3.100
  350SOL    HW1 1436   1.043   0.764   3.186
  350SOL    HW2 1437   0.906   0.769   3.097
  351SOL     OW 1438   0.040   0.544   2.976
  351SOL    HW1 1439   0.125   0.511   2.935
  351SOL    HW2 1440   0.053   0.559   3.074
  352SOL     OW 1441   0.189   0.520   3.584
  352SOL    HW1 1442   0.248   0.480   3.514
  352SOL    HW2 1443   0.131   0.591   3.543
  353SOL     OW 1444   1.369   0.950   3.522
  353SOL    HW1 1445   1.408   1.039   3.542
  353SOL    HW2 1446   1.379   0.930   3.425
  354SOL     OW 1447   0.815   0.572   2.187
  354SOL    HW1 1448   0.822   0.483   2.141
  354SOL    HW2 1449   0.721   0.606   2.179
  355SOL     OW 1450   1.657   0.604   3.068
  355SOL    HW1 1451   1.619   0.535   3.130
  355SOL    HW2 1452   1.739   0.568   3.024
  356SOL     OW 1453   0.252   1.564   3.606
  356SOL    HW1 1454   0.222   1.621   3.682
  356SOL    HW2 1455   0.245   1.467   3.632
  357SOL     OW 1456   0.671   0.464   3.131
  357SOL    HW1 1457   0.637   0.375   3.101
  357SOL    HW2 1458   0.697   0.518   3.051
  358SOL     OW 1459   0.930   1.678   3.327
  358SOL    HW1 1460   0.906   1.660   3.232
  358SOL    HW2 1461   0.960   1.772   3.337
  359SOL     OW 1462   0.473   0.500   2.053
  359SOL    HW1 1463   0.534   0.580   2.057
  359SOL    HW2 1464   0.378   0.531   2.060
  360SOL     OW 1465   0.159   1.137   3.328
  360SOL    HW1 1466   0.181   1.076   3.404
  360SOL    HW2 1467   0.169   1.088   3.242
  361SOL     OW 1468   1.347   1.059   3.096
  361SOL    HW1 1469   1.371   0.996   3.022
  361SOL    HW2 1470   1.257   1.099   3.078
  362SOL     OW 1471   1.302   0.855   2.171
  362SOL    HW1 1472   1.216   0.824   2.213
  362SOL    HW2 1473   1.298   0.841   2.072
  363SOL     OW 1474   1.759   1.747   3.016
  363SOL    HW1 1475   1.820   1.777   2.943
  363SOL    HW2 1476   1.721   1.658   2.994
  364SOL     OW 1477   1.252   1.731   2.990
  364SOL    HW1 1478   1.336   1.736   2.936
  364SOL    HW2 1479   1.229   1.635   3.008
  365SOL     OW 1480   0.083   1.258   2.884
  365SOL    HW1 1481   0.078   1.257   2.984
  365SOL    HW2 1482   0.000   1.217   2.846
  366SOL     OW 1483   0.688   1.662   3.578
  366SOL    HW1 1484   0.632   1.743   3.587
  366SOL    HW2 1485   0.740   1.666   3.492
  367SOL     OW 1486   1.726   0.135   2.385
  367SOL    HW1 1487   1.799   0.118   2.318
  367SOL    HW2 1488   1.695   0.048   2.423
  368SOL     OW 1489   1.388   1.573   2.339
  368SOL    HW1 1490   1.455   1.585   2.265
  368SOL    HW2 1491   1.348   1.662   2.362
  369SOL     OW 1492   0.130   1.794   3.713
  369SOL    HW1 1493   0.089   1.720   3.766
  369SOL    HW2 1494   0.194   1.845   3.771
  370SOL     OW 1495   1.280   0.927   2.534
  370SOL    HW1 1496   1.340   0.846   2.536
  370SOL    HW2 1497   1.320   0.996   2.474
  371SOL     OW 1498   0.830   1.273   3.284
  371SOL    HW1 1499   0.825   1.306   3.379
  371SOL    HW2 1500   0.744   1.292   3.238
  372SOL     OW 1501   0.672   1.616   2.016
  372SOL    HW1 1502   0.681   1.626   1.917
  372SOL    HW2 1503   0.632   1.527   2.037
  373SOL     OW 1504   1.650   1.720   3.256
  373SOL    HW1 1505   1.703   1.730   3.172
  373SOL    HW2 1506   1.623   1.810   3.290
  374SOL     OW 1507   1.841   0.175   2.825
  374SOL    HW1 1508   1.880   0.090   2.789
  374SOL    HW2 1509   1.743   0.177   2.806
  375SOL     OW 1510   0.263   0.326   2.582
  375SOL    HW1 1511   0.184   0.377   2.548
  375SOL    HW2 1512   0.254   0.311   2.680
  376SOL     OW 1513   1.194   1.612   1.893
  376SOL    HW1 1514   1.200   1.519   1.930
  376SOL    HW2 1515   1.135   1.612   1.813
  377SOL     OW 1516   0.822   1.002   3.234
  377SOL    HW1 1517   0.862   1.001   3.142
  377SOL    HW2 1518   0.832   1.094   3.274
  378SOL     OW 1519   0.916   0.910   2.153
  378SOL    HW1 1520   0.979   0.948   2.085
  378SOL    HW2 1521   0.956   0.827   2.192
  379SOL     OW 1522   1.504   1.607   1.906
  379SOL    HW1 1523   1.412   1.644   1.913
  379SOL    HW2 1524   1.542   1.627   1.816
  380SOL     OW 1525   0.372   1.288   3.352
  380SOL    HW1 1526   0.359   1.381   3.318
  380SOL    HW2 1527   0.288   1.236   3.339
  381SOL     OW 1528   1.614   1.292   3.151
  381SOL    HW1 1529   1.674   1.295   3.231
  381SOL    HW2 1530   1.539   1.356   3.164
  382SOL     OW 1531   1.039   1.098   2.558
  382SOL    HW1 1532   0.969   1.051   2.612
  382SOL    HW2 1533   1.098   1.030   2.515
  383SOL     OW 1534   1.014   0.236   2.833
  383SOL    HW1 1535   1.006   0.200   2.740
  383SOL    HW2 1536   1.012   0.160   2.898
  384SOL     OW 1537   0.590   1.487   2.353
  384SOL    HW1 1538   0.632   1.429   2.283
  384SOL    HW2 1539   0.546   1.566   2.309
  385SOL     OW 1540   1.709   0.385   3.243
  385SOL    HW1 1541   1.782   0.454   3.247
  385SOL    HW2 1542   1.737   0.310   3.184
  386SOL     OW 1543   0.255   1.348   2.152
  386SOL    HW1 1544   0.159   1.349   2.125
  386SOL    HW2 1545   0.267   1.401   2.236
  387SOL     OW 1546   0.105   1.013   3.588
  387SOL    HW1 1547   0.028   0.980   3.642
  387SOL    HW2 1548   0.190   0.983   3.630
  388SOL     OW 1549   0.672   0.203   3.351
  388SOL    HW1 1550   0.762   0.187   3.311
  388SOL    HW2 1551   0.680   0.208   3.450
  389SOL     OW 1552   0.075   0.345   1.895
  389SOL    HW1 1553  -0.017   0.317   1.866
  389SOL    HW2 1554   0.106   0.422   1.839
  390SOL     OW 1555   1.440   0.856   3.260
  390SOL    HW1 1556   1.383   0.908   3.197
  390SOL    HW2 1557   1.536   0.868   3.236
  391SOL     OW 1558   0.072   0.166   2.180
  391SOL    HW1 1559   0.055   0.249   2.126
  391SOL    HW2 1560   0.162   0.129   2.158
  392SOL     OW 1561   1.183   1.335   1.981
  392SOL    HW1 1562   1.084   1.324   1.983
  392SOL    HW2 1563   1.217   1.350   2.074
  393SOL     OW 1564   0.613   0.842   3.293
  393SOL    HW1 1565   0.669   0.923   3.276
  393SOL    HW2 1566   0.672   0.762   3.296
  394SOL     OW 1567   1.493   1.767   2.821
  394SOL    HW1 1568   1.526   1.831   2.752
  394SOL    HW2 1569   1.559   1.761   2.896
  395SOL     OW 1570   0.716   0.565   3.570
  395SOL    HW1 1571   0.735   0.630   3.644
  395SOL    HW2 1572   0.776   0.485   3.579
  396SOL     OW 1573   1.450   1.220   3.495
  396SOL    HW1 1574   1.441   1.210   3.594
  396SOL    HW2 1575   1.546   1.213   3.469
  397SOL     OW 1576   0.390   1.741   3.422
  397SOL    HW1 1577   0.299   1.782   3.420
  397SOL    HW2 1578   0.383   1.647   3.454
  398SOL     OW 1579   1.674   0.883   3.116
  398SOL    HW1 1580   1.647   0.794   3.079
  398SOL    HW2 1581   1.675   0.951   3.043
  399SOL     OW 1582   1.225   0.325   2.311
  399SOL    HW1 1583   1.290   0.251   2.300
  399SOL    HW2 1584   1.245   0.375   2.395
  400SOL     OW 1585   0.594   0.745   2.514
  400SOL    HW1 1586   0.644   0.830   2.495
  400SOL    HW2 1587   0.506   0.747   2.466
  401SOL     OW 1588   1.777   0.342   3.504
  401SOL    HW1 1589   1.760   0.373   3.410
  401SOL    HW2 1590   1.693   0.305   3.542
  402SOL     OW 1591   1.730   0.934   3.379
  402SOL    HW1 1592   1.768   1.025   3.394
  402SOL    HW2 1593   1.722   0.917   3.280
  403SOL     OW 1594   0.859   1.374   1.878
  403SOL    HW1 1595   0.813   1.389   1.966
  403SOL    HW2 1596   0.903   1.459   1.848
  404SOL     OW 1597   0.661   1.790   2.815
  404SOL    HW1 1598   0.615   1.878   2.802
  404SOL    HW2 1599   0.760   1.802   2.808
  405SOL     OW 1600   0.859   0.956   2.723
  405SOL    HW1 1601   0.913   0.887   2.771
  405SOL    HW2 1602   0.827   1.025   2.789
  406SOL     OW 1603   1.083   0.984   1.949
  406SOL    HW1 1604   1.060   1.037   1.867
  406SOL    HW2 1605   1.164   0.928   1.930
  407SOL     OW 1606   1.861   1.569   2.713
  407SOL    HW1 1607   1.790   1.557   2.643
  407SOL    HW2 1608   1.862   1.490   2.773
  408SOL     OW 1609   0.221   1.314   3.706
  408SOL    HW1 1610   0.156   1.241   3.685
  408SOL    HW2 1611   0.225   1.328   3.804
  409SOL     OW 1612   0.079   1.240   2.515
  409SOL    HW1 1613   0.078   1.193   2.603
  409SOL    HW2 1614   0.161   1.212   2.464
  410SOL     OW 1615   0.672   1.391   3.486
  410SOL    HW1 1616   0.594   1.341   3.524
  410SOL    HW2 1617   0.669   1.486   3.517
  411SOL     OW 1618   1.824   0.192   3.089
  411SOL    HW1 1619   1.820   0.102   3.133
  411SOL    HW2 1620   1.827   0.181   2.990
  412SOL     OW 1621   0.428   0.424   2.382
  412SOL    HW1 1622   0.458   0.352   2.320
  412SOL    HW2 1623   0.389   0.384   2.465
  413SOL     OW 1624   1.705   1.487   2.966
  413SOL    HW1 1625   1.612   1.462   2.939
  413SOL    HW2 1626   1.731   1.437   3.048
  414SOL     OW 1627   0.317   0.547   3.142
  414SOL    HW1 1628   0.355   0.488   3.214
  414SOL    HW2 1629   0.357   0.521   3.054
  415SOL     OW 1630   0.812   1.586   2.549
  415SOL    HW1 1631   0.844   1.596   2.455
  415SOL    HW2 1632   0.733   1.524   2.551
  416SOL     OW 1633   1.424   0.214   2.974
  416SOL    HW1 1634   1.476   0.149   3.029
  416SOL    HW2 1635   1.375   0.277   3.035
  417SOL     OW 1636   1.001   0.034   3.016
  417SOL    HW1 1637   0.938  -0.038   2.985
  417SOL    HW2 1638   1.094  -0.002   3.016
  418SOL     OW 1639   0.770   1.330   2.163
  418SOL    HW1 1640   0.724   1.243   2.180
  418SOL    HW2 1641   0.861   1.327   2.204
  419SOL     OW 1642   0.618   1.567   3.146
  419SOL    HW1 1643   0.613   1.649   3.203
  419SOL    HW2 1644   0.707   1.564   3.101
  420SOL     OW 1645   1.352   0.052   2.030
  420SOL    HW1 1646   1.387   0.011   1.946
  420SOL    HW2 1647   1.262   0.014   2.050
  421SOL     OW 1648   1.300   0.453   2.553
  421SOL    HW1 1649   1.241   0.533   2.557
  421SOL    HW2 1650   1.315   0.418   2.646
  422SOL     OW 1651   1.593   0.221   2.744
  422SOL    HW1 1652   1.509   0.220   2.798
  422SOL    HW2 1653   1.595   0.304   2.688
  423SOL     OW 1654   0.039   1.077   2.162
  423SOL    HW1 1655   0.138   1.066   2.153
  423SOL    HW2 1656  -0.001   0.991   2.194
  424SOL     OW 1657   0.875   1.646   2.199
  424SOL    HW1 1658   0.798   1.611   2.145
  424SOL    HW2 1659   0.843   1.717   2.261
  425SOL     OW 1660   0.230   0.628   3.837
  425SOL    HW1 1661   0.137   0.626   3.874
  425SOL    HW2 1662   0.231   0.589   3.745
  426SOL     OW 1663   0.225   0.275   4.720
  426SOL    HW1 1664   0.260   0.258   4.812
  426SOL    HW2 1665   0.137   0.230   4.708
  427SOL     OW 1666   0.019   0.368   4.371
  427SOL    HW1 1667  -0.063   0.411   4.410
  427SOL    HW2 1668  -0.009   0.295   4.308
  428SOL     OW 1669   0.569   1.275   4.889
  428SOL    HW1 1670   0.476   1.268   4.852
  428SOL    HW2 1671   0.580   1.364   4.933
  429SOL     OW 1672   1.555   1.511   4.427
  429SOL    HW1 1673   1.498   1.495   4.508
  429SOL    HW2 1674   1.496   1.521   4.347
  430SOL     OW 1675   1.135   0.703   4.441
  430SOL    HW1 1676   1.192   0.781   4.416
  430SOL    HW2 1677   1.075   0.729   4.517
  431SOL     OW 1678   1.755   0.607   3.955
  431SOL    HW1 1679   1.743   0.594   3.856
  431SOL    HW2 1680   1.725   0.526   4.004
  432SOL     OW 1681   0.768   1.144   4.747
  432SOL    HW1 1682   0.690   1.161   4.807
  432SOL    HW2 1683   0.802   1.231   4.711
  433SOL     OW 1684   0.850   0.798   5.547
  433SOL    HW1 1685   0.846   0.874   5.612
  433SOL    HW2 1686   0.872   0.834   5.456
  434SOL     OW 1687   0.685   1.012   4.389
  434SOL    HW1 1688   0.754   0.996   4.459
  434SOL    HW2 1689   0.612   1.069   4.427
  435SOL     OW 1690   0.686   1.161   5.527
  435SOL    HW1 1691   0.746   1.240   5.541
  435SOL    HW2 1692   0.600   1.192   5.486
  436SOL     OW 1693   0.335   1.435   4.785
  436SOL    HW1 1694   0.257   1.404   4.732
  436SOL    HW2 1695   0.393   1.493   4.728
  437SOL     OW 1696   1.460   1.505   5.063
  437SOL    HW1 1697   1.484   1.599   5.089
  437SOL    HW2 1698   1.444   1.451   5.145
  438SOL     OW 1699   0.438   0.392   5.223
  438SOL    HW1 1700   0.520   0.336   5.232
  438SOL    HW2 1701   0.357   0.334   5.227
  439SOL     OW 1702   1.603   0.447   4.461
  439SOL    HW1 1703   1.529   0.493   4.411
  439SOL    HW2 1704   1.654   0.515   4.514
  440SOL     OW 1705   0.231   1.713   4.207
  440SOL    HW1 1706   0.265   1.790   4.261
  440SOL    HW2 1707   0.275   1.713   4.117
  441SOL     OW 1708   1.127   1.341   5.414
  441SOL    HW1 1709   1.174   1.341   5.502
  441SOL    HW2 1710   1.079   1.254   5.403
  442SOL     OW 1711   0.230   1.434   4.262
  442SOL    HW1 1712   0.204   1.530   4.262
  442SOL    HW2 1713   0.159   1.380   4.307
  443SOL     OW 1714   0.240   1.091   4.610
  443SOL    HW1 1715   0.254   1.007   4.662
  443SOL    HW2 1716   0.185   1.155   4.665
  444SOL     OW 1717   0.620   1.786   5.163
  444SOL    HW1 1718   0.528   1.769   5.198
  444SOL    HW2 1719   0.648   1.878   5.189
  445SOL     OW 1720   0.606   0.964   3.847
  445SOL    HW1 1721   0.613   1.048   3.793
  445SOL    HW2 1722   0.652   0.977   3.935
  446SOL     OW 1723   1.594   0.114   5.204
  446SOL    HW1 1724   1.576   0.181   5.132
  446SOL    HW2 1725   1.591   0.160   5.293
  447SOL     OW 1726   0.122   0.643   4.287
  447SOL    HW1 1727   0.077   0.555   4.304
  447SOL    HW2 1728   0.121   0.697   4.371
  448SOL     OW 1729   0.027   1.596   3.841
  448SOL    HW1 1730   0.008   1.500   3.862
  448SOL    HW2 1731  -0.006   1.654   3.916
  449SOL     OW 1732   1.689   0.922   4.336
  449SOL    HW1 1733   1.784   0.893   4.344
  449SOL    HW2 1734   1.681   0.987   4.261
  450SOL     OW 1735   1.641   1.108   4.156
  450SOL    HW1 1736   1.727   1.110   4.104
  450SOL    HW2 1737   1.655   1.155   4.244
  451SOL     OW 1738   0.113   0.737   5.321
  451SOL    HW1 1739   0.201   0.724   5.366
  451SOL    HW2 1740   0.100   0.834   5.299
  452SOL     OW 1741   0.613   1.365   4.450
  452SOL    HW1 1742   0.564   1.278   4.459
  452SOL    HW2 1743   0.590   1.408   4.363
  453SOL     OW 1744   1.293   1.228   5.147
  453SOL    HW1 1745   1.330   1.155   5.089
  453SOL    HW2 1746   1.345   1.233   5.232
  454SOL     OW 1747   0.809   0.004   4.226
  454SOL    HW1 1748   0.849   0.095   4.217
  454SOL    HW2 1749   0.709   0.012   4.232
  455SOL     OW 1750   0.197   0.976   4.988
  455SOL    HW1 1751   0.286   0.931   4.974
  455SOL    HW2 1752   0.124   0.911   4.969
  456SOL     OW 1753   1.525   0.999   3.914
  456SOL    HW1 1754   1.462   0.923   3.927
  456SOL    HW2 1755   1.573   1.017   4.000
  457SOL     OW 1756   1.187   1.792   5.340
  457SOL    HW1 1757   1.211   1.852   5.264
  457SOL    HW2 1758   1.194   1.697   5.310
  458SOL     OW 1759   0.317   0.251   5.525
  458SOL    HW1 1760   0.388   0.322   5.531
  458SOL    HW2 1761   0.229   0.290   5.553
  459SOL     OW 1762   1.466   1.417   4.677
  459SOL    HW1 1763   1.407   1.423   4.757
  459SOL    HW2 1764   1.451   1.329   4.631
  460SOL     OW 1765   1.667   1.714   4.296
  460SOL    HW1 1766   1.626   1.691   4.208
  460SOL    HW2 1767   1.649   1.640   4.361
  461SOL     OW 1768   0.598   0.729   3.994
  461SOL    HW1 1769   0.622   0.798   3.926
  461SOL    HW2 1770   0.520   0.762   4.048
  462SOL     OW 1771   1.281   0.345   4.668
  462SOL    HW1 1772   1.195   0.295   4.655
  462SOL    HW2 1773   1.343   0.291   4.724
  463SOL     OW 1774   1.576   1.662   4.031
  463SOL    HW1 1775   1.665   1.708   4.034
  463SOL    HW2 1776   1.555   1.638   3.936
  464SOL     OW 1777   0.807   0.605   5.189
  464SOL    HW1 1778   0.760   0.602   5.278
  464SOL    HW2 1779   0.756   0.550   5.123
  465SOL     OW 1780   1.394   0.469   5.398
  465SOL    HW1 1781   1.374   0.512   5.486
  465SOL    HW2 1782   1.472   0.407   5.407
  466SOL     OW 1783   0.973   0.890   5.296
  466SOL    HW1 1784   1.019   0.806   5.267
  466SOL    HW2 1785   0.917   0.924   5.221
  467SOL     OW 1786   0.991   0.410   4.966
  467SOL    HW1 1787   0.914   0.444   5.020
  467SOL    HW2 1788   0.957   0.359   4.887
  468SOL     OW 1789   1.041   0.701   4.153
  468SOL    HW1 1790   1.067   0.697   4.249
  468SOL    HW2 1791   0.956   0.650   4.139
  469SOL     OW 1792   0.076   0.811   4.513
  469SOL    HW1 1793   0.175   0.799   4.522
  469SOL    HW2 1794   0.052   0.906   4.534
  470SOL     OW 1795   0.130   1.821   5.295
  470SOL    HW1 1796   0.120   1.806   5.394
  470SOL    HW2 1797   0.044   1.857   5.259
  471SOL     OW 1798   0.865   0.348   3.919
  471SOL    HW1 1799   0.924   0.411   3.870
  471SOL    HW2 1800   0.884   0.254   3.890
  472SOL     OW 1801   1.719   0.585   5.555
  472SOL    HW1 1802   1.693   0.674   5.519
  472SOL    HW2 1803   1.717   0.517   5.482
  473SOL     OW 1804   1.362   1.144   4.269
  473SOL    HW1 1805   1.445   1.115   4.221
  473SOL    HW2 1806   1.313   1.211   4.213
  474SOL     OW 1807   0.550   0.196   4.609
  474SOL    HW1 1808   0.545   0.191   4.709
  474SOL    HW2 1809   0.552   0.292   4.580
  475SOL     OW 1810   1.008   1.456   4.201
  475SOL    HW1 1811   0.962   1.528   4.149
  475SOL    HW2 1812   1.004   1.476   4.299
  476SOL     OW 1813   0.351   1.801   4.577
  476SOL    HW1 1814   0.401   1.715   4.583
  476SOL    HW2 1815   0.416   1.878   4.574
  477SOL     OW 1816   1.795   1.066   4.597
  477SOL    HW1 1817   1.733   1.051   4.521
  477SOL    HW2 1818   1.743   1.077   4.682
  478SOL     OW 1819   1.227   1.550   5.230
  478SOL    HW1 1820   1.233   1.473   5.294
  478SOL    HW2 1821   1.175   1.524   5.150
  479SOL     OW 1822   0.321   0.943   3.966
  479SOL    HW1 1823   0.403   0.982   3.924
  479SOL    HW2 1824   0.294   0.861   3.917
  480SOL     OW 1825   1.458   0.735   4.452
  480SOL    HW1 1826   1.453   0.670   4.527
  480SOL    HW2 1827   1.538   0.794   4.465
  481SOL     OW 1828   0.461   1.266   5.451
  481SOL    HW1 1829   0.411   1.267   5.365
  481SOL    HW2 1830   0.398   1.248   5.527
  482SOL     OW 1831   1.111   1.776   3.961
  482SOL    HW1 1832   1.051   1.714   4.011
  482SOL    HW2 1833   1.142   1.732   3.876
  483SOL     OW 1834   0.202   0.285   5.222
  483SOL    HW1 1835   0.122   0.345   5.209
  483SOL    HW2 1836   0.192   0.236   5.308
  484SOL     OW 1837   1.632   1.377   3.805
  484SOL    HW1 1838   1.600   1.471   3.795
  484SOL    HW2 1839   1.556   1.314   3.793
  485SOL     OW 1840   0.464   1.743   4.047
  485SOL    HW1 1841   0.497   1.782   4.133
  485SOL    HW2 1842   0.540   1.736   3.982
  486SOL     OW 1843   1.400   0.107   4.150
  486SOL    HW1 1844   1.376   0.070   4.060
  486SOL    HW2 1845   1.499   0.123   4.154
  487SOL     OW 1846   0.249   1.785   4.965
  487SOL    HW1 1847   0.306   1.720   5.015
  487SOL    HW2 1848   0.233   1.752   4.872
  488SOL     OW 1849   0.940   1.698   4.628
  488SOL    HW1 1850   1.020   1.641   4.649
  488SOL    HW2 1851   0.891   1.658   4.551
  489SOL     OW 1852   0.382   0.700   4.204
  489SOL    HW1 1853   0.427   0.610   4.201
  489SOL    HW2 1854   0.288   0.689   4.237
  490SOL     OW 1855   1.547   0.222   5.453
  490SOL    HW1 1856   1.542   0.259   5.545
  490SOL    HW2 1857   1.475   0.153   5.441
  491SOL     OW 1858   0.614   0.122   3.841
  491SOL    HW1 1859   0.712   0.100   3.848
  491SOL    HW2 1860   0.583   0.105   3.748
  492SOL     OW 1861   0.781   0.264   5.473
  492SOL    HW1 1862   0.848   0.203   5.516
  492SOL    HW2 1863   0.708   0.283   5.538
  493SOL     OW 1864   0.888   1.514   4.919
  493SOL    HW1 1865   0.865   1.489   4.825
  493SOL    HW2 1866   0.949   1.445   4.958
  494SOL     OW 1867   1.351   0.590   5.157
  494SOL    HW1 1868   1.379   0.547   5.242
  494SOL    HW2 1869   1.376   0.686   5.158
  495SOL     OW 1870   0.803   1.402   4.648
  495SOL    HW1 1871   0.893   1.416   4.606
  495SOL    HW2 1872   0.732   1.404   4.577
  496SOL     OW 1873   0.922   0.503   4.623
  496SOL    HW1 1874   0.897   0.494   4.527
  496SOL    HW2 1875   0.970   0.421   4.654
  497SOL     OW 1876   0.539   0.064   4.236
  497SOL    HW1 1877   0.458   0.065   4.294
  497SOL    HW2 1878   0.542   0.147   4.181
  498SOL     OW 1879   1.434   1.188   3.765
  498SOL    HW1 1880   1.466   1.112   3.822
  498SOL    HW2 1881   1.342   1.215   3.795
  499SOL     OW 1882   0.297   0.035   3.895
  499SOL    HW1 1883   0.346   0.119   3.874
  499SOL    HW2 1884   0.359  -0.030   3.940
  500SOL     OW 1885   0.935   0.236   4.204
  500SOL    HW1 1886   0.887   0.277   4.126
  500SOL    HW2 1887   1.034   0.234   4.185
  501SOL     OW 1888   1.076   0.683   5.188
  501SOL    HW1 1889   0.996   0.622   5.191
  501SOL    HW2 1890   1.157   0.630   5.164
  502SOL     OW 1891   1.227   1.570   4.517
  502SOL    HW1 1892   1.248   1.644   4.452
  502SOL    HW2 1893   1.295   1.570   4.590
  503SOL     OW 1894   0.459   1.152   4.465
  503SOL    HW1 1895   0.388   1.125   4.530
  503SOL    HW2 1896   0.433   1.124   4.372
  504SOL     OW 1897   1.271   1.797   4.315
  504SOL    HW1 1898   1.315   1.861   4.251
  504SOL    HW2 1899   1.221   1.849   4.385
  505SOL     OW 1900   1.032   0.549   3.740
  505SOL    HW1 1901   0.991   0.631   3.701
  505SOL    HW2 1902   1.096   0.575   3.813
  506SOL     OW 1903   0.078   0.556   5.110
  506SOL    HW1 1904   0.170   0.555   5.069
  506SOL    HW2 1905   0.072   0.630   5.177
  507SOL     OW 1906   0.561   0.222   4.871
  507SOL    HW1 1907   0.599   0.138   4.908
  507SOL    HW2 1908   0.473   0.241   4.915
  508SOL     OW 1909   0.866   0.454   4.366
  508SOL    HW1 1910   0.834   0.526   4.304
  508SOL    HW2 1911   0.890   0.373   4.313
  509SOL     OW 1912   1.017   0.039   4.477
  509SOL    HW1 1913   0.945   0.044   4.408
  509SOL    HW2 1914   0.993  -0.030   4.546
  510SOL     OW 1915   1.429   1.173   4.591
  510SOL    HW1 1916   1.374   1.089   4.584
  510SOL    HW2 1917   1.455   1.202   4.499
  511SOL     OW 1918   1.466   0.590   4.716
  511SOL    HW1 1919   1.436   0.495   4.723
  511SOL    HW2 1920   1.539   0.606   4.782
  512SOL     OW 1921   1.857   0.833   4.101
  512SOL    HW1 1922   1.899   0.769   4.165
  512SOL    HW2 1923   1.819   0.782   4.023
  513SOL     OW 1924   0.488   1.385   3.898
  513SOL    HW1 1925   0.401   1.370   3.945
  513SOL    HW2 1926   0.471   1.411   3.803
  514SOL     OW 1927   1.664   1.280   4.381
  514SOL    HW1 1928   1.763   1.288   4.395
  514SOL    HW2 1929   1.619   1.364   4.412
  515SOL     OW 1930   1.390   0.575   3.802
  515SOL    HW1 1931   1.336   0.554   3.883
  515SOL    HW2 1932   1.481   0.534   3.811
  516SOL     OW 1933   0.527   0.256   4.052
  516SOL    HW1 1934   0.554   0.197   3.977
  516SOL    HW2 1935   0.527   0.351   4.021
  517SOL     OW 1936   1.754   1.223   5.312
  517SOL    HW1 1937   1.845   1.184   5.299
  517SOL    HW2 1938   1.762   1.319   5.336
  518SOL     OW 1939   1.064   1.347   5.064
  518SOL    HW1 1940   0.984   1.324   5.119
  518SOL    HW2 1941   1.147   1.321   5.113
  519SOL     OW 1942   1.592   1.629   5.349
  519SOL    HW1 1943   1.619   1.663   5.259
  519SOL    HW2 1944   1.671   1.591   5.395
  520SOL     OW 1945   1.111   1.195   4.824
  520SOL    HW1 1946   1.071   1.239   4.905
  520SOL    HW2 1947   1.070   1.232   4.741
  521SOL     OW 1948   1.638   1.099   4.803
  521SOL    HW1 1949   1.643   1.180   4.862
  521SOL    HW2 1950   1.552   1.101   4.752
  522SOL     OW 1951   0.915   0.089   5.126
  522SOL    HW1 1952   0.940   0.069   5.031
  522SOL    HW2 1953   0.987   0.145   5.168
  523SOL     OW 1954   0.980   1.116   5.443
  523SOL    HW1 1955   0.881   1.122   5.453
  523SOL    HW2 1956   1.003   1.036   5.387
  524SOL     OW 1957   0.705   1.050   4.092
  524SOL    HW1 1958   0.691   1.057   4.191
  524SOL    HW2 1959   0.789   0.999   4.074
  525SOL     OW 1960   0.410   0.813   4.975
  525SOL    HW1 1961   0.496   0.825   5.025
  525SOL    HW2 1962   0.368   0.726   5.002
  526SOL     OW 1963   1.274   0.386   4.986
  526SOL    HW1 1964   1.295   0.460   5.050
  526SOL    HW2 1965   1.185   0.403   4.943
  527SOL     OW 1966   0.064   1.564   5.055
  527SOL    HW1 1967   0.018   1.646   5.021
  527SOL    HW2 1968   0.162   1.583   5.064
  528SOL     OW 1969   0.367   1.100   4.225
  528SOL    HW1 1970   0.360   1.183   4.169
  528SOL    HW2 1971   0.371   1.020   4.165
  529SOL     OW 1972   0.566   0.537   4.589
  529SOL    HW1 1973   0.578   0.603   4.515
  529SOL    HW2 1974   0.612   0.571   4.672
  530SOL     OW 1975   1.252   1.348   4.112
  530SOL    HW1 1976   1.302   1.425   4.152
  530SOL    HW2 1977   1.157   1.350   4.144
  531SOL     OW 1978   1.272   1.445   4.866
  531SOL    HW1 1979   1.319   1.458   4.953
  531SOL    HW2 1980   1.206   1.371   4.875
  532SOL     OW 1981   1.582   0.639   4.196
  532SOL    HW1 1982   1.551   0.700   4.269
  532SOL    HW2 1983   1.632   0.691   4.127
  533SOL     OW 1984   0.354   1.510   5.053
  533SOL    HW1 1985   0.333   1.466   4.966
  533SOL    HW2 1986   0.451   1.536   5.056
  534SOL     OW 1987   0.402   0.751   5.322
  534SOL    HW1 1988   0.470   0.806   5.275
  534SOL    HW2 1989   0.442   0.663   5.349
  535SOL     OW 1990   1.587   0.779   5.394
  535SOL    HW1 1991   1.495   0.817   5.389
  535SOL    HW2 1992   1.647   0.826   5.329
  536SOL     OW 1993   1.013   0.105   5.494
  536SOL    HW1 1994   1.019   0.190   5.442
  536SOL    HW2 1995   1.045   0.029   5.437
  537SOL     OW 1996   0.504   0.050   5.464
  537SOL    HW1 1997   0.462  -0.007   5.394
  537SOL    HW2 1998   0.438   0.119   5.496
  538SOL     OW 1999   0.573   0.870   4.753
  538SOL    HW1 2000   0.617   0.959   4.744
  538SOL    HW2 2001   0.510   0.870   4.830
  539SOL     OW 2002   1.360   0.862   4.769
  539SOL    HW1 2003   1.285   0.862   4.703
  539SOL    HW2 2004   1.397   0.770   4.778
  540SOL     OW 2005   1.209   0.525   3.999
  540SOL    HW1 2006   1.222   0.441   4.053
  540SOL    HW2 2007   1.180   0.599   4.059
  541SOL     OW 2008   0.307   0.213   4.955
  541SOL    HW1 2009   0.284   0.250   5.045
  541SOL    HW2 2010   0.277   0.118   4.949
  542SOL     OW 2011   0.037   1.310   5.006
  542SOL    HW1 2012   0.090   1.261   5.074
  542SOL    HW2 2013   0.059   1.408   5.011
  543SOL     OW 2014   0.732   0.634   4.788
  543SOL    HW1 2015   0.791   0.608   4.712
  543SOL    HW2 2016   0.704   0.730   4.777
  544SOL     OW 2017   1.728   0.935   5.578
  544SOL    HW1 2018   1.682   0.928   5.489
  544SOL    HW2 2019   1.666   0.979   5.644
  545SOL     OW 2020   0.307   0.063   4.342
  545SOL    HW1 2021   0.296   0.157   4.375
  545SOL    HW2 2022   0.302   0.000   4.419
  546SOL     OW 2023   1.622   0.367   4.098
  546SOL    HW1 2024   1.624   0.291   4.162
  546SOL    HW2 2025   1.574   0.444   4.138
  547SOL     OW 2026   1.023   0.766   4.690
  547SOL    HW1 2027   1.038   0.787   4.786
  547SOL    HW2 2028   0.993   0.671   4.681
  548SOL     OW 2029   0.980   1.573   5.424
  548SOL    HW1 2030   0.960   1.617   5.336
  548SOL    HW2 2031   1.019   1.482   5.408
  549SOL     OW 2032   1.859   1.518   5.329
  549SOL    HW1 2033   1.873   1.545   5.234
  549SOL    HW2 2034   1.942   1.540   5.382
  550SOL     OW 2035   0.350   0.898   5.528
  550SOL    HW1 2036   0.426   0.942   5.576
  550SOL    HW2 2037   0.385   0.851   5.446
  551SOL     OW 2038   1.540   0.274   3.849
  551SOL    HW1 2039   1.479   0.199   3.872
  551SOL    HW2 2040   1.562   0.326   3.932
  552SOL     OW 2041   1.303   0.838   3.766
  552SOL    HW1 2042   1.337   0.745   3.781
  552SOL    HW2 2043   1.321   0.865   3.671
  553SOL     OW 2044   1.068   1.333   4.573
  553SOL    HW1 2045   1.075   1.249   4.518
  553SOL    HW2 2046   1.130   1.402   4.537
  554SOL     OW 2047   0.319   0.810   4.673
  554SOL    HW1 2048   0.412   0.846   4.678
  554SOL    HW2 2049   0.313   0.725   4.725
  555SOL     OW 2050   0.339   0.509   4.730
  555SOL    HW1 2051   0.287   0.426   4.713
  555SOL    HW2 2052   0.416   0.514   4.666
  556SOL     OW 2053   1.138   0.380   5.402
  556SOL    HW1 2054   1.093   0.443   5.466
  556SOL    HW2 2055   1.231   0.411   5.385
  557SOL     OW 2056   1.160   0.207   5.201
  557SOL    HW1 2057   1.160   0.271   5.278
  557SOL    HW2 2058   1.188   0.255   5.118
  558SOL     OW 2059   0.008   1.326   3.924
  558SOL    HW1 2060  -0.085   1.347   3.893
  558SOL    HW2 2061   0.018   1.227   3.937
  559SOL     OW 2062   0.088   1.801   4.651
  559SOL    HW1 2063   0.046   1.715   4.624
  559SOL    HW2 2064   0.182   1.804   4.617
  560SOL     OW 2065   0.504   1.568   4.634
  560SOL    HW1 2066   0.570   1.642   4.643
  560SOL    HW2 2067   0.548   1.489   4.592
  561SOL     OW 2068   1.002   0.796   4.962
  561SOL    HW1 2069   1.043   0.764   5.048
  561SOL    HW2 2070   0.906   0.769   4.959
  562SOL     OW 2071   0.040   0.544   4.838
  562SOL    HW1 2072   0.125   0.511   4.797
  562SOL    HW2 2073   0.053   0.559   4.936
  563SOL     OW 2074   0.189   0.520   5.446
  563SOL    HW1 2075   0.248   0.480   5.376
  563SOL    HW2 2076   0.131   0.591   5.405
  564SOL     OW 2077   1.369   0.950   5.384
  564SOL    HW1 2078   1.408   1.039   5.404
  564SOL    HW2 2079   1.379   0.930   5.287
  565SOL     OW 2080   0.815   0.572   4.049
  565SOL    HW1 2081   0.822   0.483   4.003
  565SOL    HW2 2082   0.721   0.606   4.041
  566SOL     OW 2083   1.657   0.604   4.930
  566SOL    HW1 2084   1.619   0.535   4.992
  566SOL    HW2 2085   1.739   0.568   4.886
  567SOL     OW 2086   0.252   1.564   5.468
  567SOL    HW1 2087   0.222   1.621   5.544
  567SOL    HW2 2088   0.245   1.467   5.494
  568SOL     OW 2089   0.671   0.464   4.993
  568SOL    HW1 2090   0.637   0.375   4.963
  568SOL    HW2 2091   0.697   0.518   4.913
  569SOL     OW 2092   0.930   1.678   5.189
  569SOL    HW1 2093   0.906   1.660   5.094
  569SOL    HW2 2094   0.960   1.772   5.199
  570SOL     OW 2095   0.473   0.500   3.915
  570SOL    HW1 2096   0.534   0.580   3.919
  570SOL    HW2 2097   0.378   0.531   3.922
  571SOL     OW 2098   0.159   1.137   5.190
  571SOL    HW1 2099   0.181   1.076   5.266
  571SOL    HW2 2100   0.169   1.088   5.104
  572SOL     OW 2101   1.347   1.059   4.958
  572SOL    HW1 2102   1.371   0.996   4.884
  572SOL    HW2 2103   1.257   1.099   4.940
  573SOL     OW 2104   1.302   0.855   4.033
  573SOL    HW1 2105   1.216   0.824   4.075
  573SOL    HW2 2106   1.298   0.841   3.934
  574SOL     OW 2107   1.759   1.747   4.878
  574SOL    HW1 2108   1.820   1.777   4.805
  574SOL    HW2 2109   1.721   1.658   4.856
  575SOL     OW 2110   1.252   1.731   4.852
  575SOL    HW1 2111   1.336   1.736   4.798
  575SOL    HW2 2112   1.229   1.635   4.870
  576SOL     OW 2113   0.083   1.258   4.746
  576SOL    HW1 2114   0.078   1.257   4.846
  576SOL    HW2 2115   0.000   1.217   4.708
  577SOL     OW 2116   0.688   1.662   5.440
  577SOL    HW1 2117   0.632   1.743   5.449
  577SOL    HW2 2118   0.740   1.666   5.354
  578SOL     OW 2119   1.726   0.135   4.247
  578SOL    HW1 2120   1.799   0.118   4.180
  578SOL    HW2 2121   1.695   0.048   4.285
  579SOL     OW 2122   1.388   1.573   4.201
  579SOL    HW1 2123   1.455   1.585   4.127
  579SOL    HW2 2124   1.348   1.662   4.224
  580SOL     OW 2125   0.130   1.794   5.575
  580SOL    HW1 2126   0.089   1.720   5.628
  580SOL    HW2 2127   0.194   1.845   5.633
  581SOL     OW 2128   1.280   0.927   4.396
  581SOL    HW1 2129   1.340   0.846   4.398
  581SOL    HW2 2130   1.320   0.996   4.336
  582SOL     OW 2131   0.830   1.273   5.146
  582SOL    HW1 2132   0.825   1.306   5.241
  582SOL    HW2 2133   0.744   1.292   5.100
  583SOL     OW 2134   0.672   1.616   3.878
  583SOL    HW1 2135   0.681   1.626   3.779
  583SOL    HW2 2136   0.632   1.527   3.899
  584SOL     OW 2137   1.650   1.720   5.118
  584SOL    HW1 2138   1.703   1.730   5.034
  584SOL    HW2 2139   1.623   1.810   5.152
  585SOL     OW 2140   1.841   0.175   4.687
  585SOL    HW1 2141   1.880   0.090   4.651
  585SOL    HW2 2142   1.743   0.177   4.668
  586SOL     OW 2143   0.263   0.326   4.444
  586SOL    HW1 2144   0.184   0.377   4.410
  586SOL    HW2 2145   0.254   0.311   4.542
  587SOL     OW 2146   1.194   1.612   3.755
  587SOL    HW1 2147   1.200   1.519   3.792
  587SOL    HW2 2148   1.135   1.612   3.675
  588SOL     OW 2149   0.822   1.002   5.096
  588SOL    HW1 2150   0.862   1.001   5.004
  588SOL    HW2 2151   0.832   1.094   5.136
  589SOL     OW 2152   0.916   0.910   4.015
  589SOL    HW1 2153   0.979   0.948   3.947
  589SOL    HW2 2154   0.956   0.827   4.054
  590SOL     OW 2155   1.504   1.607   3.768
  590SOL    HW1 2156   1.412   1.644   3.775
  590SOL    HW2 2157   1.542   1.627   3.678
  591SOL     OW 2158   0.372   1.288   5.214
  591SOL    HW1 2159   0.359   1.381   5.180
  591SOL    HW2 2160   0.288   1.236   5.201
  592SOL     OW 2161   1.614   1.292   5.013
  592SOL    HW1 2162   1.674   1.295   5.093
  592SOL    HW2 2163   1.539   1.356   5.026
  593SOL     OW 2164   1.039   1.098   4.420
  593SOL    HW1 2165   0.969   1.051   4.474
  593SOL    HW2 2166   1.098   1.030   4.377
  594SOL     OW 2167   1.014   0.236   4.695
  594SOL    HW1 2168   1.006   0.200   4.602
  594SOL    HW2 2169   1.012   0.160   4.760
  595SOL     OW 2170   0.590   1.487   4.215
  595SOL    HW1 2171   0.632   1.429   4.145
  595SOL    HW2 2172   0.546   1.566   4.171
  596SOL     OW 2173   1.709   0.385   5.105
  596SOL    HW1 2174   1.782   0.454   5.109
  596SOL    HW2 2175   1.737   0.310   5.046
  597SOL     OW 2176   0.255   1.348   4.014
  597SOL    HW1 2177   0.159   1.349   3.987
  597SOL    HW2 2178   0.267   1.401   4.098
  598SOL     OW 2179   0.105   1.013   5.450
  598SOL    HW1 2180   0.028   0.980   5.504
  598SOL    HW2 2181   0.190   0.983   5.492
  599SOL     OW 2182   0.672   0.203   5.213
  599SOL    HW1 2183   0.762   0.187   5.173
  599SOL    HW2 2184   0.680   0.208   5.312
  600SOL     OW 2185   0.075   0.345   3.757
  600SOL    HW1 2186  -0.017   0.317   3.728
  600SOL    HW2 2187   0.106   0.422   3.701
  601SOL     OW 2188   1.440   0.856   5.122
  601SOL    HW1 2189   1.383   0.908   5.059
  601SOL    HW2 2190   1.536   0.868   5.098
  602SOL     OW 2191   0.072   0.166   4.042
  602SOL    HW1 2192   0.055   0.249   3.988
  602SOL    HW2 2193   0.162   0.129   4.020
  603SOL     OW 2194   1.183   1.335   3.843
  603SOL    HW1 2195   1.084   1.324   3.845
  603SOL    HW2 2196   1.217   1.350   3.936
  604SOL     OW 2197   0.613   0.842   5.155
  604SOL    HW1 2198   0.669   0.923   5.138
  604SOL    HW2 2199   0.672   0.762   5.158
  605SOL     OW 2200   1.493   1.767   4.683
  605SOL    HW1 2201   1.526   1.831   4.614
  605SOL    HW2 2202   1.559   1.761   4.758
  606SOL     OW 2203   0.716   0.565   5.432
  606SOL    HW1 2204   0.735   0.630   5.506
  606SOL    HW2 2205   0.776   0.485   5.441
  607SOL     OW 2206   1.450   1.220   5.357
  607SOL    HW1 2207   1.441   1.210   5.456
  607SOL    HW2 2208   1.546   1.213   5.331
  608SOL     OW 2209   0.390   1.741   5.284
  608SOL    HW1 2210   0.299   1.782   5.282
  608SOL    HW2 2211   0.383   1.647   5.316
  609SOL     OW 2212   1.674   0.883   4.978
  609SOL    HW1 2213   1.647   0.794   4.941
  609SOL    HW2 2214   1.675   0.951   4.905
  610SOL     OW 2215   1.225   0.325   4.173
  610SOL    HW1 2216   1.290   0.251   4.162
  610SOL    HW2 2217   1.245   0.375   4.257
  611SOL     OW 2218   0.594   0.745   4.376
  611SOL    HW1 2219   0.644   0.830   4.357
  611SOL    HW2 2220   0.506   0.747   4.328
  612SOL     OW 2221   1.777   0.342   5.366
  612SOL    HW1 2222   1.760   0.373   5.272
  612SOL    HW2 2223   1.693   0.305   5.404
  613SOL     OW 2224   1.730   0.934   5.241
  613SOL    HW1 2225   1.768   1.025   5.256
  613SOL    HW2 2226   1.722   0.917   5.142
  614SOL     OW 2227   0.859   1.374   3.740
  614SOL    HW1 2228   0.813   1.389   3.828
  614SOL    HW2 2229   0.903   1.459   3.710
  615SOL     OW 2230   0.661   1.790   4.677
  615SOL    HW1 2231   0.615   1.878   4.664
  615SOL    HW2 2232   0.760   1.802   4.670
  616SOL     OW 2233   0.859   0.956   4.585
  616SOL    HW1 2234   0.913   0.887   4.633
  616SOL    HW2 2235   0.827   1.025   4.651
  617SOL     OW 2236   1.083   0.984   3.811
  617SOL    HW1 2237   1.060   1.037   3.729
  617SOL    HW2 2238   1.164   0.928   3.792
  618SOL     OW 2239   1.861   1.569   4.575
  618SOL    HW1 2240   1.790   1.557   4.505
  618SOL    HW2 2241   1.862   1.490   4.635
  619SOL     OW 2242   0.221   1.314   5.568
  619SOL    HW1 2243   0.156   1.241   5.547
  619SOL    HW2 2244   0.225   1.328   5.666
  620SOL     OW 2245   0.079   1.240   4.377
  620SOL    HW1 2246   0.078   1.193   4.465
  620SOL    HW2 2247   0.161   1.212   4.326
  621SOL     OW 2248   0.672   1.391   5.348
  621SOL    HW1 2249   0.594   1.341   5.386
  621SOL    HW2 2250   0.669   1.486   5.379
  622SOL     OW 2251   1.824   0.192   4.951
  622SOL    HW1 2252   1.820   0.102   4.995
  622SOL    HW2 2253   1.827   0.181   4.852
  623SOL     OW 2254   0.428   0.424   4.244
  623SOL    HW1 2255   0.458   0.352   4.182
  623SOL    HW2 2256   0.389   0.384   4.327
  624SOL     OW 2257   1.705   1.487   4.828
  624SOL    HW1 2258   1.612   1.462   4.801
  624SOL    HW2 2259   1.731   1.437   4.910
  625SOL     OW 2260   0.317   0.547   5.004
  625SOL    HW1 2261   0.355   0.488   5.076
  625SOL    HW2 2262   0.357   0.521   4.916
  626SOL     OW 2263   0.812   1.586   4.411
  626SOL    HW1 2264   0.844   1.596   4.317
  626SOL    HW2 2265   0.733   1.524   4.413
  627SOL     OW 2266   1.424   0.214   4.836
  627SOL    HW1 2267   1.476   0.149   4.891
  627SOL    HW2 2268   1.375   0.277   4.897
  628SOL     OW 2269   1.001   0.034   4.878
  628SOL    HW1 2270   0.938  -0.038   4.847
  628SOL    HW2 2271   1.094  -0.002   4.878
  629SOL     OW 2272   0.770   1.330   4.025
  629SOL    HW1 2273   0.724   1.243   4.042
  629SOL    HW2 2274   0.861   1.327   4.066
  630SOL     OW 2275   0.618   1.567   5.008
  630SOL    HW1 2276   0.613   1.649   5.065
  630SOL    HW2 2277   0.707   1.564   4.963
  631SOL     OW 2278   1.352   0.052   3.892
  631SOL    HW1 2279   1.387   0.011   3.808
  631SOL    HW2 2280   1.262   0.014   3.912
  632SOL     OW 2281   1.300   0.453   4.415
  632SOL    HW1 2282   1.241   0.533   4.419
  632SOL    HW2 2283   1.315   0.418   4.508
  633SOL     OW 2284   1.593   0.221   4.606
  633SOL    HW1 2285   1.509   0.220   4.660
  633SOL    HW2 2286   1.595   0.304   4.550
  634SOL     OW 2287   0.039   1.077   4.024
  634SOL    HW1 2288   0.138   1.066   4.015
  634SOL    HW2 2289  -0.001   0.991   4.056
  635SOL     OW 2290   0.875   1.646   4.061
  635SOL    HW1 2291   0.798   1.611   4.007
  635SOL    HW2 2292   0.843   1.717   4.123
  636SOL     OW 2293   0.230   0.628   5.699
  636SOL    HW1 2294   0.137   0.626   5.736
  636SOL    HW2 2295   0.231   0.589   5.607
  637SOL     OW 2296   0.225   0.275   6.582
  637SOL    HW1 2297   0.260   0.258   6.674
  637SOL    HW2 2298   0.137   0.230   6.570
  638SOL     OW 2299   0.019   0.368   6.233
  638SOL    HW1 2300  -0.063   0.411   6.272
  638SOL    HW2 2301  -0.009   0.295   6.170
  639SOL     OW 2302   0.569   1.275   6.751
  639SOL    HW1 2303   0.476   1.268   6.714
  639SOL    HW2 2304   0.580   1.364   6.795
  640SOL     OW 2305   1.555   1.511   6.289
  640SOL    HW1 2306   1.498   1.495   6.370
  640SOL    HW2 2307   1.496   1.521   6.209
  641SOL     OW 2308   1.135   0.703   6.303
  641SOL    HW1 2309   1.192   0.781   6.278
  641SOL    HW2 2310   1.075   0.729   6.379
  642SOL     OW 2311   1.755   0.607   5.817
  642SOL    HW1 2312   1.743   0.594   5.718
  642SOL    HW2 2313   1.725   0.526   5.866
  643SOL     OW 2314   0.768   1.144   6.609
  643SOL    HW1 2315   0.690   1.161   6.669
  643SOL    HW2 2316   0.802   1.231   6.573
  644SOL     OW 2317   0.850   0.798   7.409
  644SOL    HW1 2318   0.846   0.874   7.474
  644SOL    HW2 2319   0.872   0.834   7.318
  645SOL     OW 2320   0.685   1.012   6.251
  645SOL    HW1 2321   0.754   0.996   6.321
  645SOL    HW2 2322   0.612   1.069   6.289
  646SOL     OW 2323   0.686   1.161   7.389
  646SOL    HW1 2324   0.746   1.240   7.403
  646SOL    HW2 2325   0.600   1.192   7.348
  647SOL     OW 2326   0.335   1.435   6.647
  647SOL    HW1 2327   0.257   1.404   6.594
  647SOL    HW2 2328   0.393   1.493   6.590
  648SOL     OW 2329   0.438   0.392   7.085
  648SOL    HW1 2330   0.520   0.336   7.094
  648SOL    HW2 2331   0.357   0.334   7.089
  649SOL     OW 2332   1.603   0.447   6.323
  649SOL    HW1 2333   1.529   0.493   6.273
  649SOL    HW2 2334   1.654   0.515   6.376
  650SOL     OW 2335   0.231   1.713   6.069
  650SOL    HW1 2336   0.265   1.790   6.123
  650SOL    HW2 2337   0.275   1.713   5.979
  651SOL     OW 2338   1.127   1.341   7.276
  651SOL    HW1 2339   1.174   1.341   7.364
  651SOL    HW2 2340   1.079   1.254   7.265
  652SOL     OW 2341   0.230   1.434   6.124
  652SOL    HW1 2342   0.204   1.530   6.124
  652SOL    HW2 2343   0.159   1.380   6.169
  653SOL     OW 2344   0.240   1.091   6.472
  653SOL    HW1 2345   0.254   1.007   6.524
  653SOL    HW2 2346   0.185   1.155   6.527
  654SOL     OW 2347   0.620   1.786   7.025
  654SOL    HW1 2348   0.528   1.769   7.060
  654SOL    HW2 2349   0.648   1.878   7.051
  655SOL     OW 2350   0.606   0.964   5.709
  655SOL    HW1 2351   0.613   1.048   5.655
  655SOL    HW2 2352   0.652   0.977   5.797
  656SOL     OW 2353   1.594   0.114   7.066
  656SOL    HW1 2354   1.576   0.181   6.994
  656SOL    HW2 2355   1.591   0.160   7.155
  657SOL     OW 2356   0.122   0.643   6.149
  657SOL    HW1 2357   0.077   0.555   6.166
  657SOL    HW2 2358   0.121   0.697   6.233
  658SOL     OW 2359   0.027   1.596   5.703
  658SOL    HW1 2360   0.008   1.500   5.724
  658SOL    HW2 2361  -0.006   1.654   5.778
  659SOL     OW 2362   1.689   0.922   6.198
  659SOL    HW1 2363   1.784   0.893   6.206
  659SOL    HW2 2364   1.681   0.987   6.123
  660SOL     OW 2365   1.641   1.108   6.018
  660SOL    HW1 2366   1.727   1.110   5.966
  660SOL    HW2 2367   1.655   1.155   6.106
  661SOL     OW 2368   0.113   0.737   7.183
  661SOL    HW1 2369   0.201   0.724   7.228
  661SOL    HW2 2370   0.100   0.834   7.161
  662SOL     OW 2371   0.613   1.365   6.312
  662SOL    HW1 2372   0.564   1.278   6.321
  662SOL    HW2 2373   0.590   1.408   6.225
  663SOL     OW 2374   1.293   1.228   7.009
  663SOL    HW1 2375   1.330   1.155   6.951
  663SOL    HW2 2376   1.345   1.233   7.094
  664SOL     OW 2377   0.809   0.004   6.088
  664SOL    HW1 2378   0.849   0.095   6.079
  664SOL    HW2 2379   0.709   0.012   6.094
  665SOL     OW 2380   0.197   0.976   6.850
  665SOL    HW1 2381   0.286   0.931   6.836
  665SOL    HW2 2382   0.124   0.911   6.831
  666SOL     OW 2383   1.525   0.999   5.776
  666SOL    HW1 2384   1.462   0.923   5.789
  666SOL    HW2 2385   1.573   1.017   5.862
  667SOL     OW 2386   1.187   1.792   7.202
  667SOL    HW1 2387   1.211   1.852   7.126
  667SOL    HW2 2388   1.194   1.697   7.172
  668SOL     OW 2389   0.317   0.251   7.387
  668SOL    HW1 2390   0.388   0.322   7.393
  668SOL    HW2 2391   0.229   0.290   7.415
  669SOL     OW 2392   1.667   1.714   6.158
  669SOL    HW1 2393   1.626   1.691   6.070
  669SOL    HW2 2394   1.649   1.640   6.223
  670SOL     OW 2395   0.598   0.729   5.856
  670SOL    HW1 2396   0.622   0.798   5.788
  670SOL    HW2 2397   0.520   0.762   5.910
  671SOL     OW 2398   1.281   0.345   6.530
  671SOL    HW1 2399   1.195   0.295   6.517
  671SOL    HW2 2400   1.343   0.291   6.586
  672SOL     OW 2401   1.576   1.662   5.893
  672SOL    HW1 2402   1.665   1.708   5.896
  672SOL    HW2 2403   1.555   1.638   5.798
  673SOL     OW 2404   0.807   0.605   7.051
  673SOL    HW1 2405   0.760   0.602   7.140
  673SOL    HW2 2406   0.756   0.550   6.985
  674SOL     OW 2407   1.394   0.469   7.260
  674SOL    HW1 2408   1.374   0.512   7.348
  674SOL    HW2 2409   1.472   0.407   7.269
  675SOL     OW 2410   0.973   0.890   7.158
  675SOL    HW1 2411   1.019   0.806   7.129
  675SOL    HW2 2412   0.917   0.924   7.083
  676SOL     OW 2413   0.991   0.410   6.828
  676SOL    HW1 2414   0.914   0.444   6.882
  676SOL    HW2 2415   0.957   0.359   6.749
  677SOL     OW 2416   1.041   0.701   6.015
  677SOL    HW1 2417   1.067   0.697   6.111
  677SOL    HW2 2418   0.956   0.650   6.001
  678SOL     OW 2419   0.076   0.811   6.375
  678SOL    HW1 2420   0.175   0.799   6.384
  678SOL    HW2 2421   0.052   0.906   6.396
  679SOL     OW 2422   0.130   1.821   7.157
  679SOL    HW1 2423   0.120   1.806   7.256
  679SOL    HW2 2424   0.044   1.857   7.121
  680SOL     OW 2425   0.865   0.348   5.781
  680SOL    HW1 2426   0.924   0.411   5.732
  680SOL    HW2 2427   0.884   0.254   5.752
  681SOL     OW 2428   1.719   0.585   7.417
  681SOL    HW1 2429   1.693   0.674   7.381
  681SOL    HW2 2430   1.717   0.517   7.344
  682SOL     OW 2431   1.362   1.144   6.131
  682SOL    HW1 2432   1.445   1.115   6.083
  682SOL    HW2 2433   1.313   1.211   6.075
  683SOL     OW 2434   0.550   0.196   6.471
  683SOL    HW1 2435   0.545   0.191   6.571
  683SOL    HW2 2436   0.552   0.292   6.442
  684SOL     OW 2437   1.008   1.456   6.063
  684SOL    HW1 2438   0.962   1.528   6.011
  684SOL    HW2 2439   1.004   1.476   6.161
  685SOL     OW 2440   0.351   1.801   6.439
  685SOL    HW1 2441   0.401   1.715   6.445
  685SOL    HW2 2442   0.416   1.878   6.436
  686SOL     OW 2443   1.795   1.066   6.459
  686SOL    HW1 2444   1.733   1.051   6.383
  686SOL    HW2 2445   1.743   1.077   6.544
  687SOL     OW 2446   1.227   1.550   7.092
  687SOL    HW1 2447   1.233   1.473   7.156
  687SOL    HW2 2448   1.175   1.524   7.012
  688SOL     OW 2449   0.321   0.943   5.828
  688SOL    HW1 2450   0.403   0.982   5.786
  688SOL    HW2 2451   0.294   0.861   5.779
  689SOL     OW 2452   1.458   0.735   6.314
  689SOL    HW1 2453   1.453   0.670   6.389
  689SOL    HW2 2454   1.538   0.794   6.327
  690SOL     OW 2455   0.461   1.266   7.313
  690SOL    HW1 2456   0.411   1.267   7.227
  690SOL    HW2 2457   0.398   1.248   7.389
  691SOL     OW 2458   1.111   1.776   5.823
  691SOL    HW1 2459   1.051   1.714   5.873
  691SOL    HW2 2460   1.142   1.732   5.738
  692SOL     OW 2461   0.202   0.285   7.084
  692SOL    HW1 2462   0.122   0.345   7.071
  692SOL    HW2 2463   0.192   0.236   7.170
  693SOL     OW 2464   1.632   1.377   5.667
  693SOL    HW1 2465   1.600   1.471   5.657
  693SOL    HW2 2466   1.556   1.314   5.655
  694SOL     OW 2467   0.464   1.743   5.909
  694SOL    HW1 2468   0.497   1.782   5.995
  694SOL    HW2 2469   0.540   1.736   5.844
  695SOL     OW 2470   1.400   0.107   6.012
  695SOL    HW1 2471   1.376   0.070   5.922
  695SOL    HW2 2472   1.499   0.123   6.016
  696SOL     OW 2473   0.249   1.785   6.827
  696SOL    HW1 2474   0.306   1.720   6.877
  696SOL    HW2 2475   0.233   1.752   6.734
  697SOL     OW 2476   0.940   1.698   6.490
  697SOL    HW1 2477   1.020   1.641   6.511
  697SOL    HW2 2478   0.891   1.658   6.413
  698SOL     OW 2479   0.382   0.700   6.066
  698SOL    HW1 2480   0.427   0.610   6.063
  698SOL    HW2 2481   0.288   0.689   6.099
  699SOL     OW 2482   1.547   0.222   7.315
  699SOL    HW1 2483   1.542   0.259   7.407
  699SOL    HW2 2484   1.475   0.153   7.303
  700SOL     OW 2485   0.614   0.122   5.703
  700SOL    HW1 2486   0.712   0.100   5.710
  700SOL    HW2 2487   0.583   0.105   5.610
  701SOL     OW 2488   0.781   0.264   7.335
  701SOL    HW1 2489   0.848   0.203   7.378
  701SOL    HW2 2490   0.708   0.283   7.400
  702SOL     OW 2491   0.888   1.514   6.781
  702SOL    HW1 2492   0.865   1.489   6.687
  702SOL    HW2 2493   0.949   1.445   6.820
  703SOL     OW 2494   1.351   0.590   7.019
  703SOL    HW1 2495   1.379   0.547   7.104
  703SOL    HW2 2496   1.376   0.686   7.020
  704SOL     OW 2497   0.803   1.402   6.510
  704SOL    HW1 2498   0.893   1.416   6.468
  704SOL    HW2 2499   0.732   1.404   6.439
  705SOL     OW 2500   0.922   0.503   6.485
  705SOL    HW1 2501   0.897   0.494   6.389
  705SOL    HW2 2502   0.970   0.421   6.516
  706SOL     OW 2503   0.539   0.064   6.098
  706SOL    HW1 2504   0.458   0.065   6.156
  706SOL    HW2 2505   0.542   0.147   6.043
  707SOL     OW 2506   1.434   1.188   5.627
  707SOL    HW1 2507   1.466   1.112   5.684
  707SOL    HW2 2508   1.342   1.215   5.657
  708SOL     OW 2509   0.297   0.035   5.757
  708SOL    HW1 2510   0.346   0.119   5.736
  708SOL    HW2 2511   0.359  -0.030   5.802
  709SOL     OW 2512   0.935   0.236   6.066
  709SOL    HW1 2513   0.887   0.277   5.988
  709SOL    HW2 2514   1.034   0.234   6.047
  710SOL     OW 2515   1.076   0.683   7.050
  710SOL    HW1 2516   0.996   0.622   7.053
  710SOL    HW2 2517   1.157   0.630   7.026
  711SOL     OW 2518   1.227   1.570   6.379
  711SOL    HW1 2519   1.248   1.644   6.314
  711SOL    HW2 2520   1.295   1.570   6.452
  712SOL     OW 2521   0.459   1.152   6.327
  712SOL    HW1 2522   0.388   1.125   6.392
  712SOL    HW2 2523   0.433   1.124   6.234
  713SOL     OW 2524   1.271   1.797   6.177
  713SOL    HW1 2525   1.315   1.861   6.113
  713SOL    HW2 2526   1.221   1.849   6.247
  714SOL     OW 2527   1.032   0.549   5.602
  714SOL    HW1 2528   0.991   0.631   5.563
  714SOL    HW2 2529   1.096   0.575   5.675
  715SOL     OW 2530   0.078   0.556   6.972
  715SOL    HW1 2531   0.170   0.555   6.931
  715SOL    HW2 2532   0.072   0.630   7.039
  716SOL     OW 2533   0.561   0.222   6.733
  716SOL    HW1 2534   0.599   0.138   6.770
  716SOL    HW2 2535   0.473   0.241   6.777
  717SOL     OW 2536   0.866   0.454   6.228
  717SOL    HW1 2537   0.834   0.526   6.166
  717SOL    HW2 2538   0.890   0.373   6.175
  718SOL     OW 2539   1.017   0.039   6.339
  718SOL    HW1 2540   0.945   0.044   6.270
  718SOL    HW2 2541   0.993  -0.030   6.408
  719SOL     OW 2542   1.429   1.173   6.453
  719SOL    HW1 2543   1.374   1.089   6.446
  719SOL    HW2 2544   1.455   1.202   6.361
  720SOL     OW 2545   1.466   0.590   6.578
  720SOL    HW1 2546   1.436   0.495   6.585
  720SOL    HW2 2547   1.539   0.606   6.644
  721SOL     OW 2548   1.857   0.833   5.963
  721SOL    HW1 2549   1.899   0.769   6.027
  721SOL    HW2 2550   1.819   0.782   5.885
  722SOL     OW 2551   0.488   1.385   5.760
  722SOL    HW1 2552   0.401   1.370   5.807
  722SOL    HW2 2553   0.471   1.411   5.665
  723SOL     OW 2554   1.664   1.280   6.243
  723SOL    HW1 2555   1.763   1.288   6.257
  723SOL    HW2 2556   1.619   1.364   6.274
  724SOL     OW 2557   1.390   0.575   5.664
  724SOL    HW1 2558   1.336   0.554   5.745
  724SOL    HW2 2559   1.481   0.534   5.673
  725SOL     OW 2560   0.527   0.256   5.914
  725SOL    HW1 2561   0.554   0.197   5.839
  725SOL    HW2 2562   0.527   0.351   5.883
  726SOL     OW 2563   1.754   1.223   7.174
  726SOL    HW1 2564   1.845   1.184   7.161
  726SOL    HW2 2565   1.762   1.319   7.198
  727SOL     OW 2566   1.064   1.347   6.926
  727SOL    HW1 2567   0.984   1.324   6.981
  727SOL    HW2 2568   1.147   1.321   6.975
  728SOL     OW 2569   1.111   1.195   6.686
  728SOL    HW1 2570   1.071   1.239   6.767
  728SOL    HW2 2571   1.070   1.232   6.603
  729SOL     OW 2572   1.638   1.099   6.665
  729SOL    HW1 2573   1.643   1.180   6.724
  729SOL    HW2 2574   1.552   1.101   6.614
  730SOL     OW 2575   0.915   0.089   6.988
  730SOL    HW1 2576   0.940   0.069   6.893
  730SOL    HW2 2577   0.987   0.145   7.030
  731SOL     OW 2578   0.980   1.116   7.305
  731SOL    HW1 2579   0.881   1.122   7.315
  731SOL    HW2 2580   1.003   1.036   7.249
  732SOL     OW 2581   0.705   1.050   5.954
  732SOL    HW1 2582   0.691   1.057   6.053
  732SOL    HW2 2583   0.789   0.999   5.936
  733SOL     OW 2584   0.410   0.813   6.837
  733SOL    HW1 2585   0.496   0.825   6.887
  733SOL    HW2 2586   0.368   0.726   6.864
  734SOL     OW 2587   1.274   0.386   6.848
  734SOL    HW1 2588   1.295   0.460   6.912
  734SOL    HW2 2589   1.185   0.403   6.805
  735SOL     OW 2590   0.064   1.564   6.917
  735SOL    HW1 2591   0.018   1.646   6.883
  735SOL    HW2 2592   0.162   1.583   6.926
  736SOL     OW 2593   0.367   1.100   6.087
  736SOL    HW1 2594   0.360   1.183   6.031
  736SOL    HW2 2595   0.371   1.020   6.027
  737SOL     OW 2596   0.566   0.537   6.451
  737SOL    HW1 2597   0.578   0.603   6.377
  737SOL    HW2 2598   0.612   0.571   6.534
  738SOL     OW 2599   1.252   1.348   5.974
  738SOL    HW1 2600   1.302   1.425   6.014
  738SOL    HW2 2601   1.157   1.350   6.006
  739SOL     OW 2602   1.272   1.445   6.728
  739SOL    HW1 2603   1.319   1.458   6.815
  739SOL    HW2 2604   1.206   1.371   6.737
  740SOL     OW 2605   1.582   0.639   6.058
  740SOL    HW1 2606   1.551   0.700   6.131
  740SOL    HW2 2607   1.632   0.691   5.989
  741SOL     OW 2608   0.354   1.510   6.915
  741SOL    HW1 2609   0.333   1.466   6.828
  741SOL    HW2 2610   0.451   1.536   6.918
  742SOL     OW 2611   0.402   0.751   7.184
  742SOL    HW1 2612   0.470   0.806   7.137
  742SOL    HW2 2613   0.442   0.663   7.211
  743SOL     OW 2614   1.587   0.779   7.256
  743SOL    HW1 2615   1.495   0.817   7.251
  743SOL    HW2 2616   1.647   0.826   7.191
  744SOL     OW 2617   1.013   0.105   7.356
  744SOL    HW1 2618   1.019   0.190   7.304
  744SOL    HW2 2619   1.045   0.029   7.299
  745SOL     OW 2620   0.504   0.050   7.326
  745SOL    HW1 2621   0.462  -0.007   7.256
  745SOL    HW2 2622   0.438   0.119   7.358
  746SOL     OW 2623   0.573   0.870   6.615
  746SOL    HW1 2624   0.617   0.959   6.606
  746SOL    HW2 2625   0.510   0.870   6.692
  747SOL     OW 2626   1.360   0.862   6.631
  747SOL    HW1 2627   1.285   0.862   6.565
  747SOL    HW2 2628   1.397   0.770   6.640
  748SOL     OW 2629   1.209   0.525   5.861
  748SOL    HW1 2630   1.222   0.441   5.915
  748SOL    HW2 2631   1.180   0.599   5.921
  749SOL     OW 2632   0.307   0.213   6.817
  749SOL    HW1 2633   0.284   0.250   6.907
  749SOL    HW2 2634   0.277   0.118   6.811
  750SOL     OW 2635   0.037   1.310   6.868
  750SOL    HW1 2636   0.090   1.261   6.936
  750SOL    HW2 2637   0.059   1.408   6.873
  751SOL     OW 2638   0.732   0.634   6.650
  751SOL    HW1 2639   0.791   0.608   6.574
  751SOL    HW2 2640   0.704   0.730   6.639
  752SOL     OW 2641   1.728   0.935   7.440
  752SOL    HW1 2642   1.682   0.928   7.351
  752SOL    HW2 2643   1.666   0.979   7.506
  753SOL     OW 2644   0.307   0.063   6.204
  753SOL    HW1 2645   0.296   0.157   6.237
  753SOL    HW2 2646   0.302   0.000   6.281
  754SOL     OW 2647   1.622   0.367   5.960
  754SOL    HW1 2648   1.624   0.291   6.024
  754SOL    HW2 2649   1.574   0.444   6.000
  755SOL     OW 2650   1.023   0.766   6.552
  755SOL    HW1 2651   1.038   0.787   6.648
  755SOL    HW2 2652   0.993   0.671   6.543
  756SOL     OW 2653   0.980   1.573   7.286
  756SOL    HW1 2654   0.960   1.617   7.198
  756SOL    HW2 2655   1.019   1.482   7.270
  757SOL     OW 2656   0.350   0.898   7.390
  757SOL    HW1 2657   0.426   0.942   7.438
  757SOL    HW2 2658   0.385   0.851   7.308
  758SOL     OW 2659   1.540   0.274   5.711
  758SOL    HW1 2660   1.479   0.199   5.734
  758SOL    HW2 2661   1.562   0.326   5.794
  759SOL     OW 2662   1.303   0.838   5.628
  759SOL    HW1 2663   1.337   0.745   5.643
  759SOL    HW2 2664   1.321   0.865   5.533
  760SOL     OW 2665   1.068   1.333   6.435
  760SOL    HW1 2666   1.075   1.249   6.380
  760SOL    HW2 2667   1.130   1.402   6.399
  761SOL     OW 2668   0.319   0.810   6.535
  761SOL    HW1 2669   0.412   0.846   6.540
  761SOL    HW2 2670   0.313   0.725   6.587
  762SOL     OW 2671   0.339   0.509   6.592
  762SOL    HW1 2672   0.287   0.426   6.575
  762SOL    HW2 2673   0.416   0.514   6.528
  763SOL     OW 2674   1.138   0.380   7.264
  763SOL    HW1 2675   1.093   0.443   7.328
  763SOL    HW2 2676   1.231   0.411   7.247
  764SOL     OW 2677   1.160   0.207   7.063
  764SOL    HW1 2678   1.160   0.271   7.140
  764SOL    HW2 2679   1.188   0.255   6.980
  765SOL     OW 2680   0.008   1.326   5.786
  765SOL    HW1 2681  -0.085   1.347   5.755
  765SOL    HW2 2682   0.018   1.227   5.799
  766SOL     OW 2683   0.088   1.801   6.513
  766SOL    HW1 2684   0.046   1.715   6.486
  766SOL    HW2 2685   0.182   1.804   6.479
  767SOL     OW 2686   0.504   1.568   6.496
  767SOL    HW1 2687   0.570   1.642   6.505
  767SOL    HW2 2688   0.548   1.489   6.454
  768SOL     OW 2689   1.002   0.796   6.824
  768SOL    HW1 2690   1.043   0.764   6.910
  768SOL    HW2 2691   0.906   0.769   6.821
  769SOL     OW 2692   0.040   0.544   6.700
  769SOL    HW1 2693   0.125   0.511   6.659
  769SOL    HW2 2694   0.053   0.559   6.798
  770SOL     OW 2695   0.189   0.520   7.308
  770SOL    HW1 2696   0.248   0.480   7.238
  770SOL    HW2 2697   0.131   0.591   7.267
  771SOL     OW 2698   1.369   0.950   7.246
  771SOL    HW1 2699   1.408   1.039   7.266
  771SOL    HW2 2700   1.379   0.930   7.149
  772SOL     OW 2701   0.815   0.572   5.911
  772SOL    HW1 2702   0.822   0.483   5.865
  772SOL    HW2 2703   0.721   0.606   5.903
  773SOL     OW 2704   1.657   0.604   6.792
  773SOL    HW1 2705   1.619   0.535   6.854
  773SOL    HW2 2706   1.739   0.568   6.748
  774SOL     OW 2707   0.252   1.564   7.330
  774SOL    HW1 2708   0.222   1.621   7.406
  774SOL    HW2 2709   0.245   1.467   7.356
  775SOL     OW 2710   0.671   0.464   6.855
  775SOL    HW1 2711   0.637   0.375   6.825
  775SOL    HW2 2712   0.697   0.518   6.775
  776SOL     OW 2713   0.930   1.678   7.051
  776SOL    HW1 2714   0.906   1.660   6.956
  776SOL    HW2 2715   0.960   1.772   7.061
  777SOL     OW 2716   0.473   0.500   5.777
  777SOL    HW1 2717   0.534   0.580   5.781
  777SOL    HW2 2718   0.378   0.531   5.784
  778SOL     OW 2719   0.159   1.137   7.052
  778SOL    HW1 2720   0.181   1.076   7.128
  778SOL    HW2 2721   0.169   1.088   6.966
  779SOL     OW 2722   1.347   1.059   6.820
  779SOL    HW1 2723   1.371   0.996   6.746
  779SOL    HW2 2724   1.257   1.099   6.802
  780SOL     OW 2725   1.302   0.855   5.895
  780SOL    HW1 2726   1.216   0.824   5.937
  780SOL    HW2 2727   1.298   0.841   5.796
  781SOL     OW 2728   1.252   1.731   6.714
  781SOL    HW1 2729   1.336   1.736   6.660
  781SOL    HW2 2730   1.229   1.635   6.732
  782SOL     OW 2731   0.083   1.258   6.608
  782SOL    HW1 2732   0.078   1.257   6.708
  782SOL    HW2 2733   0.000   1.217   6.570
  783SOL     OW 2734   0.688   1.662   7.302
  783SOL    HW1 2735   0.632   1.743   7.311
  783SOL    HW2 2736   0.740   1.666   7.216
  784SOL     OW 2737   1.726   0.135   6.109
  784SOL    HW1 2738   1.799   0.118   6.042
  784SOL    HW2 2739   1.695   0.048   6.147
  785SOL     OW 2740   1.388   1.573   6.063
  785SOL    HW1 2741   1.455   1.585   5.989
  785SOL    HW2 2742   1.348   1.662   6.086
  786SOL     OW 2743   0.130   1.794   7.437
  786SOL    HW1 2744   0.089   1.720   7.490
  786SOL    HW2 2745   0.194   1.845   7.495
  787SOL     OW 2746   1.280   0.927   6.258
  787SOL    HW1 2747   1.340   0.846   6.260
  787SOL    HW2 2748   1.320   0.996   6.198
  788SOL     OW 2749   0.830   1.273   7.008
  788SOL    HW1 2750   0.825   1.306   7.103
  788SOL    HW2 2751   0.744   1.292   6.962
  789SOL     OW 2752   0.672   1.616   5.740
  789SOL    HW1 2753   0.681   1.626   5.641
  789SOL    HW2 2754   0.632   1.527   5.761
  790SOL     OW 2755   1.841   0.175   6.549
  790SOL    HW1 2756   1.880   0.090   6.513
  790SOL    HW2 2757   1.743   0.177   6.530
  791SOL     OW 2758   0.263   0.326   6.306
  791SOL    HW1 2759   0.184   0.377   6.272
  791SOL    HW2 2760   0.254   0.311   6.404
  792SOL     OW 2761   1.194   1.612   5.617
  792SOL    HW1 2762   1.200   1.519   5.654
  792SOL    HW2 2763   1.135   1.612   5.537
  793SOL     OW 2764   0.822   1.002   6.958
  793SOL    HW1 2765   0.862   1.001   6.866
  793SOL    HW2 2766   0.832   1.094   6.998
  794SOL     OW 2767   0.916   0.910   5.877
  794SOL    HW1 2768   0.979   0.948   5.809
  794SOL    HW2 2769   0.956   0.827   5.916
  795SOL     OW 2770   1.504   1.607   5.630
  795SOL    HW1 2771   1.412   1.644   5.637
  795SOL    HW2 2772   1.542   1.627   5.540
  796SOL     OW 2773   0.372   1.288   7.076
  796SOL    HW1 2774   0.359   1.381   7.042
  796SOL    HW2 2775   0.288   1.236   7.063
  797SOL     OW 2776   1.039   1.098   6.282
  797SOL    HW1 2777   0.969   1.051   6.336
  797SOL    HW2 2778   1.098   1.030   6.239
  798SOL     OW 2779   1.014   0.236   6.557
  798SOL    HW1 2780   1.006   0.200   6.464
  798SOL    HW2 2781   1.012   0.160   6.622
  799SOL     OW 2782   0.590   1.487   6.077
  799SOL    HW1 2783   0.632   1.429   6.007
  799SOL    HW2 2784   0.546   1.566   6.033
  800SOL     OW 2785   1.709   0.385   6.967
  800SOL    HW1 2786   1.782   0.454   6.971
  800SOL    HW2 2787   1.737   0.310   6.908
  801SOL     OW 2788   0.255   1.348   5.876
  801SOL    HW1 2789   0.159   1.349   5.849
  801SOL    HW2 2790   0.267   1.401   5.960
  802SOL     OW 2791   0.105   1.013   7.312
  802SOL    HW1 2792   0.028   0.980   7.366
  802SOL    HW2 2793   0.190   0.983   7.354
  803SOL     OW 2794   0.672   0.203   7.075
  803SOL    HW1 2795   0.762   0.187   7.035
  803SOL    HW2 2796   0.680   0.208   7.174
  804SOL     OW 2797   0.075   0.345   5.619
  804SOL    HW1 2798  -0.017   0.317   5.590
  804SOL    HW2 2799   0.106   0.422   5.563
  805SOL     OW 2800   1.440   0.856   6.984
  805SOL    HW1 2801   1.383   0.908   6.921
  805SOL    HW2 2802   1.536   0.868   6.960
  806SOL     OW 2803   0.072   0.166   5.904
  806SOL    HW1 2804   0.055   0.249   5.850
  806SOL    HW2 2805   0.162   0.129   5.882
  807SOL     OW 2806   1.183   1.335   5.705
  807SOL    HW1 2807   1.084   1.324   5.707
  807SOL    HW2 2808   1.217   1.350   5.798
  808SOL     OW 2809   0.613   0.842   7.017
  808SOL    HW1 2810   0.669   0.923   7.000
  808SOL    HW2 2811   0.672   0.762   7.020
  809SOL     OW 2812   0.716   0.565   7.294
  809SOL    HW1 2813   0.735   0.630   7.368
  809SOL    HW2 2814   0.776   0.485   7.303
  810SOL     OW 2815   1.450   1.220   7.219
  810SOL    HW1 2816   1.441   1.210   7.318
  810SOL    HW2 2817   1.546   1.213   7.193
  811SOL     OW 2818   0.390   1.741   7.146
  811SOL    HW1 2819   0.299   1.782   7.144
  811SOL    HW2 2820   0.383   1.647   7.178
  812SOL     OW 2821   1.674   0.883   6.840
  812SOL    HW1 2822   1.647   0.794   6.803
  812SOL    HW2 2823   1.675   0.951   6.767
  813SOL     OW 2824   1.225   0.325   6.035
  813SOL    HW1 2825   1.290   0.251   6.024
  813SOL    HW2 2826   1.245   0.375   6.119
  814SOL     OW 2827   0.594   0.745   6.238
  814SOL    HW1 2828   0.644   0.830   6.219
  814SOL    HW2 2829   0.506   0.747   6.190
  815SOL     OW 2830   1.777   0.342   7.228
  815SOL    HW1 2831   1.760   0.373   7.134
  815SOL    HW2 2832   1.693   0.305   7.266
  816SOL     OW 2833   1.730   0.934   7.103
  816SOL    HW1 2834   1.768   1.025   7.118
  816SOL    HW2 2835   1.722   0.917   7.004
  817SOL     OW 2836   0.859   1.374   5.602
  817SOL    HW1 2837   0.813   1.389   5.690
  817SOL    HW2 2838   0.903   1.459   5.572
  818SOL     OW 2839   0.661   1.790   6.539
  818SOL    HW1 2840   0.615   1.878   6.526
  818SOL    HW2 2841   0.760   1.802   6.532
  819SOL     OW 2842   0.859   0.956   6.447
  819SOL    HW1 2843   0.913   0.887   6.495
  819SOL    HW2 2844   0.827   1.025   6.513
  820SOL     OW 2845   1.083   0.984   5.673
  820SOL    HW1 2846   1.060   1.037   5.591
  820SOL    HW2 2847   1.164   0.928   5.654
  821SOL     OW 2848   0.221   1.314   7.430
  821SOL    HW1 2849   0.156   1.241   7.409
  821SOL    HW2 2850   0.225   1.328   7.528
  822SOL     OW 2851   0.079   1.240   6.239
  822SOL    HW1 2852   0.078   1.193   6.327
  822SOL    HW2 2853   0.161   1.212   6.188
  823SOL     OW 2854   0.672   1.391   7.210
  823SOL    HW1 2855   0.594   1.341   7.248
  823SOL    HW2 2856   0.669   1.486   7.241
  824SOL     OW 2857   1.824   0.192   6.813
  824SOL    HW1 2858   1.820   0.102   6.857
  824SOL    HW2 2859   1.827   0.181   6.714
  825SOL     OW 2860   0.428   0.424   6.106
  825SOL    HW1 2861   0.458   0.352   6.044
  825SOL    HW2 2862   0.389   0.384   6.189
  826SOL     OW 2863   0.317   0.547   6.866
  826SOL    HW1 2864   0.355   0.488   6.938
  826SOL    HW2 2865   0.357   0.521   6.778
  827SOL     OW 2866   0.812   1.586   6.273
  827SOL    HW1 2867   0.844   1.596   6.179
  827SOL    HW2 2868   0.733   1.524   6.275
  828SOL     OW 2869   1.424   0.214   6.698
  828SOL    HW1 2870   1.476   0.149   6.753
  828SOL    HW2 2871   1.375   0.277   6.759
  829SOL     OW 2872   1.001   0.034   6.740
  829SOL    HW1 2873   0.938  -0.038   6.709
  829SOL    HW2 2874   1.094  -0.002   6.740
  830SOL     OW 2875   0.770   1.330   5.887
  830SOL    HW1 2876   0.724   1.243   5.904
  830SOL    HW2 2877   0.861   1.327   5.928
  831SOL     OW 2878   0.618   1.567   6.870
  831SOL    HW1 2879   0.613   1.649   6.927
  831SOL    HW2 2880   0.707   1.564   6.825
  832SOL     OW 2881   1.352   0.052   5.754
  832SOL    HW1 2882   1.387   0.011   5.670
  832SOL    HW2 2883   1.262   0.014   5.774
  833SOL     OW 2884   1.300   0.453   6.277
  833SOL    HW1 2885   1.241   0.533   6.281
  833SOL    HW2 2886   1.315   0.418   6.370
  834SOL     OW 2887   1.593   0.221   6.468
  834SOL    HW1 2888   1.509   0.220   6.522
  834SOL    HW2 2889   1.595   0.304   6.412
  835SOL     OW 2890   0.039   1.077   5.886
  835SOL    HW1 2891   0.138   1.066   5.877
  835SOL    HW2 2892  -0.001   0.991   5.918
  836SOL     OW 2893   0.875   1.646   5.923
  836SOL    HW1 2894   0.798   1.611   5.869
  836SOL    HW2 2895   0.843   1.717   5.985
  837SOL     OW 2896   0.230   0.628   7.561
  837SOL    HW1 2897   0.137   0.626   7.598
  837SOL    HW2 2898   0.231   0.589   7.469
  838SOL     OW 2899   0.225   0.275   8.444
  838SOL    HW1 2900   0.260   0.258   8.536
  838SOL    HW2 2901   0.137   0.230   8.432
  839SOL     OW 2902   0.019   0.368   8.095
  839SOL    HW1 2903  -0.063   0.411   8.134
  839SOL    HW2 2904  -0.009   0.295   8.032
  840SOL     OW 2905   0.569   1.275   8.613
  840SOL    HW1 2906   0.476   1.268   8.576
  840SOL    HW2 2907   0.580   1.364   8.657
  841SOL     OW 2908   1.555   1.511   8.151
  841SOL    HW1 2909   1.498   1.495   8.232
  841SOL    HW2 2910   1.496   1.521   8.071
  842SOL     OW 2911   1.135   0.703   8.165
  842SOL    HW1 2912   1.192   0.781   8.140
  842SOL    HW2 2913   1.075   0.729   8.241
  843SOL     OW 2914   1.755   0.607   7.679
  843SOL    HW1 2915   1.743   0.594   7.580
  843SOL    HW2 2916   1.725   0.526   7.728
  844SOL     OW 2917   0.768   1.144   8.471
  844SOL    HW1 2918   0.690   1.161   8.531
  844SOL    HW2 2919   0.802   1.231   8.435
  845SOL     OW 2920   0.850   0.798   9.271
  845SOL    HW1 2921   0.846   0.874   9.336
  845SOL    HW2 2922   0.872   0.834   9.180
  846SOL     OW 2923   0.685   1.012   8.113
  846SOL    HW1 2924   0.754   0.996   8.183
  846SOL    HW2 2925   0.612   1.069   8.151
  847SOL     OW 2926   0.686   1.161   9.251
  847SOL    HW1 2927   0.746   1.240   9.265
  847SOL    HW2 2928   0.600   1.192   9.210
  848SOL     OW 2929   0.335   1.435   8.509
  848SOL    HW1 2930   0.257   1.404   8.456
  848SOL    HW2 2931   0.393   1.493   8.452
  849SOL     OW 2932   1.460   1.505   8.787
  849SOL    HW1 2933   1.484   1.599   8.813
  849SOL    HW2 2934   1.444   1.451   8.869
  850SOL     OW 2935   0.438   0.392   8.947
  850SOL    HW1 2936   0.520   0.336   8.956
  850SOL    HW2 2937   0.357   0.334   8.951
  851SOL     OW 2938   1.603   0.447   8.185
  851SOL    HW1 2939   1.529   0.493   8.135
  851SOL    HW2 2940   1.654   0.515   8.238
  852SOL     OW 2941   0.231   1.713   7.931
  852SOL    HW1 2942   0.265   1.790   7.985
  852SOL    HW2 2943   0.275   1.713   7.841
  853SOL     OW 2944   1.127   1.341   9.138
  853SOL    HW1 2945   1.174   1.341   9.226
  853SOL    HW2 2946   1.079   1.254   9.127
  854SOL     OW 2947   0.230   1.434   7.986
  854SOL    HW1 2948   0.204   1.530   7.986
  854SOL    HW2 2949   0.159   1.380   8.031
  855SOL     OW 2950   0.240   1.091   8.334
  855SOL    HW1 2951   0.254   1.007   8.386
  855SOL    HW2 2952   0.185   1.155   8.389
  856SOL     OW 2953   0.620   1.786   8.887
  856SOL    HW1 2954   0.528   1.769   8.922
  856SOL    HW2 2955   0.648   1.878   8.913
  857SOL     OW 2956   0.606   0.964   7.571
  857SOL    HW1 2957   0.613   1.048   7.517
  857SOL    HW2 2958   0.652   0.977   7.659
  858SOL     OW 2959   1.594   0.114   8.928
  858SOL    HW1 2960   1.576   0.181   8.856
  858SOL    HW2 2961   1.591   0.160   9.017
  859SOL     OW 2962   0.122   0.643   8.011
  859SOL    HW1 2963   0.077   0.555   8.028
  859SOL    HW2 2964   0.121   0.697   8.095
  860SOL     OW 2965   0.027   1.596   7.565
  860SOL    HW1 2966   0.008   1.500   7.586
  860SOL    HW2 2967  -0.006   1.654   7.640
  861SOL     OW 2968   1.689   0.922   8.060
  861SOL    HW1 2969   1.784   0.893   8.068
  861SOL    HW2 2970   1.681   0.987   7.985
  862SOL     OW 2971   1.641   1.108   7.880
  862SOL    HW1 2972   1.727   1.110   7.828
  862SOL    HW2 2973   1.655   1.155   7.968
  863SOL     OW 2974   0.113   0.737   9.045
  863SOL    HW1 2975   0.201   0.724   9.090
  863SOL    HW2 2976   0.100   0.834   9.023
  864SOL     OW 2977   0.613   1.365   8.174
  864SOL    HW1 2978   0.564   1.278   8.183
  864SOL    HW2 2979   0.590   1.408   8.087
  865SOL     OW 2980   1.293   1.228   8.871
  865SOL    HW1 2981   1.330   1.155   8.813
  865SOL    HW2 2982   1.345   1.233   8.956
  866SOL     OW 2983   0.809   0.004   7.950
  866SOL    HW1 2984   0.849   0.095   7.941
  866SOL    HW2 2985   0.709   0.012   7.956
  867SOL     OW 2986   0.197   0.976   8.712
  867SOL    HW1 2987   0.286   0.931   8.698
  867SOL    HW2 2988   0.124   0.911   8.693
  868SOL     OW 2989   1.525   0.999   7.638
  868SOL    HW1 2990   1.462   0.923   7.651
  868SOL    HW2 2991   1.573   1.017   7.724
  869SOL     OW 2992   1.187   1.792   9.064
  869SOL    HW1 2993   1.211   1.852   8.988
  869SOL    HW2 2994   1.194   1.697   9.034
  870SOL     OW 2995   0.317   0.251   9.249
  870SOL    HW1 2996   0.388   0.322   9.255
  870SOL    HW2 2997   0.229   0.290   9.277
  871SOL     OW 2998   1.466   1.417   8.401
  871SOL    HW1 2999   1.407   1.423   8.481
  871SOL    HW2 3000   1.451   1.329   8.355
  872SOL     OW 3001   1.667   1.714   8.020
  872SOL    HW1 3002   1.626   1.691   7.932
  872SOL    HW2 3003   1.649   1.640   8.085
  873SOL     OW 3004   0.598   0.729   7.718
  873SOL    HW1 3005   0.622   0.798   7.650
  873SOL    HW2 3006   0.520   0.762   7.772
  874SOL     OW 3007   1.281   0.345   8.392
  874SOL    HW1 3008   1.195   0.295   8.379
  874SOL    HW2 3009   1.343   0.291   8.448
  875SOL     OW 3010   1.576   1.662   7.755
  875SOL    HW1 3011   1.665   1.708   7.758
  875SOL    HW2 3012   1.555   1.638   7.660
  876SOL     OW 3013   0.807   0.605   8.913
  876SOL    HW1 3014   0.760   0.602   9.002
  876SOL    HW2 3015   0.756   0.550   8.847
  877SOL     OW 3016   1.394   0.469   9.122
  877SOL    HW1 3017   1.374   0.512   9.210
  877SOL    HW2 3018   1.472   0.407   9.131
  878SOL     OW 3019   0.973   0.890   9.020
  878SOL    HW1 3020   1.019   0.806   8.991
  878SOL    HW2 3021   0.917   0.924   8.945
  879SOL     OW 3022   0.991   0.410   8.690
  879SOL    HW1 3023   0.914   0.444   8.744
  879SOL    HW2 3024   0.957   0.359   8.611
  880SOL     OW 3025   1.041   0.701   7.877
  880SOL    HW1 3026   1.067   0.697   7.973
  880SOL    HW2 3027   0.956   0.650   7.863
  881SOL     OW 3028   0.076   0.811   8.237
  881SOL    HW1 3029   0.175   0.799   8.246
  881SOL    HW2 3030   0.052   0.906   8.258
  882SOL     OW 3031   0.130   1.821   9.019
  882SOL    HW1 3032   0.120   1.806   9.118
  882SOL    HW2 3033   0.044   1.857   8.983
  883SOL     OW 3034   0.865   0.348   7.643
  883SOL    HW1 3035   0.924   0.411   7.594
  883SOL    HW2 3036   0.884   0.254   7.614
  884SOL     OW 3037   1.719   0.585   9.279
  884SOL    HW1 3038   1.693   0.674   9.243
  884SOL    HW2 3039   1.717   0.517   9.206
  885SOL     OW 3040   1.362   1.144   7.993
  885SOL    HW1 3041   1.445   1.115   7.945
  885SOL    HW2 3042   1.313   1.211   7.937
  886SOL     OW 3043   0.550   0.196   8.333
  886SOL    HW1 3044   0.545   0.191   8.433
  886SOL    HW2 3045   0.552   0.292   8.304
  887SOL     OW 3046   1.008   1.456   7.925
  887SOL    HW1 3047   0.962   1.528   7.873
  887SOL    HW2 3048   1.004   1.476   8.023
  888SOL     OW 3049   0.351   1.801   8.301
  888SOL    HW1 3050   0.401   1.715   8.307
  888SOL    HW2 3051   0.416   1.878   8.298
  889SOL     OW 3052   1.795   1.066   8.321
  889SOL    HW1 3053   1.733   1.051   8.245
  889SOL    HW2 3054   1.743   1.077   8.406
  890SOL     OW 3055   1.227   1.550   8.954
  890SOL    HW1 3056   1.233   1.473   9.018
  890SOL    HW2 3057   1.175   1.524   8.874
  891SOL     OW 3058   0.321   0.943   7.690
  891SOL    HW1 3059   0.403   0.982   7.648
  891SOL    HW2 3060   0.294   0.861   7.641
  892SOL     OW 3061   1.458   0.735   8.176
  892SOL    HW1 3062   1.453   0.670   8.251
  892SOL    HW2 3063   1.538   0.794   8.189
  893SOL     OW 3064   0.461   1.266   9.175
  893SOL    HW1 3065   0.411   1.267   9.089
  893SOL    HW2 3066   0.398   1.248   9.251
  894SOL     OW 3067   1.111   1.776   7.685
  894SOL    HW1 3068   1.051   1.714   7.735
  894SOL    HW2 3069   1.142   1.732   7.600
  895SOL     OW 3070   0.202   0.285   8.946
  895SOL    HW1 3071   0.122   0.345   8.933
  895SOL    HW2 3072   0.192   0.236   9.032
  896SOL     OW 3073   1.632   1.377   7.529
  896SOL    HW1 3074   1.600   1.471   7.519
  896SOL    HW2 3075   1.556   1.314   7.517
  897SOL     OW 3076   0.464   1.743   7.771
  897SOL    HW1 3077   0.497   1.782   7.857
  897SOL    HW2 3078   0.540   1.736   7.706
  898SOL     OW 3079   1.400   0.107   7.874
  898SOL    HW1 3080   1.376   0.070   7.784
  898SOL    HW2 3081   1.499   0.123   7.878
  899SOL     OW 3082   0.249   1.785   8.689
  899SOL    HW1 3083   0.306   1.720   8.739
  899SOL    HW2 3084   0.233   1.752   8.596
  900SOL     OW 3085   0.940   1.698   8.352
  900SOL    HW1 3086   1.020   1.641   8.373
  900SOL    HW2 3087   0.891   1.658   8.275
  901SOL     OW 3088   0.382   0.700   7.928
  901SOL    HW1 3089   0.427   0.610   7.925
  901SOL    HW2 3090   0.288   0.689   7.961
  902SOL     OW 3091   1.547   0.222   9.177
  902SOL    HW1 3092   1.542   0.259   9.269
  902SOL    HW2 3093   1.475   0.153   9.165
  903SOL     OW 3094   0.614   0.122   7.565
  903SOL    HW1 3095   0.712   0.100   7.572
  903SOL    HW2 3096   0.583   0.105   7.472
  904SOL     OW 3097   0.781   0.264   9.197
  904SOL    HW1 3098   0.848   0.203   9.240
  904SOL    HW2 3099   0.708   0.283   9.262
  905SOL     OW 3100   0.888   1.514   8.643
  905SOL    HW1 3101   0.865   1.489   8.549
  905SOL    HW2 3102   0.949   1.445   8.682
  906SOL     OW 3103   1.351   0.590   8.881
  906SOL    HW1 3104   1.379   0.547   8.966
  906SOL    HW2 3105   1.376   0.686   8.882
  907SOL     OW 3106   0.803   1.402   8.372
  907SOL    HW1 3107   0.893   1.416   8.330
  907SOL    HW2 3108   0.732   1.404   8.301
  908SOL     OW 3109   0.922   0.503   8.347
  908SOL    HW1 3110   0.897   0.494   8.251
  908SOL    HW2 3111   0.970   0.421   8.378
  909SOL     OW 3112   0.539   0.064   7.960
  909SOL    HW1 3113   0.458   0.065   8.018
  909SOL    HW2 3114   0.542   0.147   7.905
  910SOL     OW 3115   1.434   1.188   7.489
  910SOL    HW1 3116   1.466   1.112   7.546
  910SOL    HW2 3117   1.342   1.215   7.519
  911SOL     OW 3118   0.297   0.035   7.619
  911SOL    HW1 3119   0.346   0.119   7.598
  911SOL    HW2 3120   0.359  -0.030   7.664
  912SOL     OW 3121   0.935   0.236   7.928
  912SOL    HW1 3122   0.887   0.277   7.850
  912SOL    HW2 3123   1.034   0.234   7.909
  913SOL     OW 3124   1.076   0.683   8.912
  913SOL    HW1 3125   0.996   0.622   8.915
  913SOL    HW2 3126   1.157   0.630   8.888
  914SOL     OW 3127   1.227   1.570   8.241
  914SOL    HW1 3128   1.248   1.644   8.176
  914SOL    HW2 3129   1.295   1.570   8.314
  915SOL     OW 3130   0.459   1.152   8.189
  915SOL    HW1 3131   0.388   1.125   8.254
  915SOL    HW2 3132   0.433   1.124   8.096
  916SOL     OW 3133   1.271   1.797   8.039
  916SOL    HW1 3134   1.315   1.861   7.975
  916SOL    HW2 3135   1.221   1.849   8.109
  917SOL     OW 3136   1.032   0.549   7.464
  917SOL    HW1 3137   0.991   0.631   7.425
  917SOL    HW2 3138   1.096   0.575   7.537
  918SOL     OW 3139   0.078   0.556   8.834
  918SOL    HW1 3140   0.170   0.555   8.793
  918SOL    HW2 3141   0.072   0.630   8.901
  919SOL     OW 3142   0.561   0.222   8.595
  919SOL    HW1 3143   0.599   0.138   8.632
  919SOL    HW2 3144   0.473   0.241   8.639
  920SOL     OW 3145   0.866   0.454   8.090
  920SOL    HW1 3146   0.834   0.526   8.028
  920SOL    HW2 3147   0.890   0.373   8.037
  921SOL     OW 3148   1.017   0.039   8.201
  921SOL    HW1 3149   0.945   0.044   8.132
  921SOL    HW2 3150   0.993  -0.030   8.270
  922SOL     OW 3151   1.429   1.173   8.315
  922SOL    HW1 3152   1.374   1.089   8.308
  922SOL    HW2 3153   1.455   1.202   8.223
  923SOL     OW 3154   1.466   0.590   8.440
  923SOL    HW1 3155   1.436   0.495   8.447
  923SOL    HW2 3156   1.539   0.606   8.506
  924SOL     OW 3157   1.857   0.833   7.825
  924SOL    HW1 3158   1.899   0.769   7.889
  924SOL    HW2 3159   1.819   0.782   7.747
  925SOL     OW 3160   0.488   1.385   7.622
  925SOL    HW1 3161   0.401   1.370   7.669
  925SOL    HW2 3162   0.471   1.411   7.527
  926SOL     OW 3163   1.664   1.280   8.105
  926SOL    HW1 3164   1.763   1.288   8.119
  926SOL    HW2 3165   1.619   1.364   8.136
  927SOL     OW 3166   1.390   0.575   7.526
  927SOL    HW1 3167   1.336   0.554   7.607
  927SOL    HW2 3168   1.481   0.534   7.535
  928SOL     OW 3169   0.527   0.256   7.776
  928SOL    HW1 3170   0.554   0.197   7.701
  928SOL    HW2 3171   0.527   0.351   7.745
  929SOL     OW 3172   1.754   1.223   9.036
  929SOL    HW1 3173   1.845   1.184   9.023
  929SOL    HW2 3174   1.762   1.319   9.060
  930SOL     OW 3175   1.064   1.347   8.788
  930SOL    HW1 3176   0.984   1.324   8.843
  930SOL    HW2 3177   1.147   1.321   8.837
  931SOL     OW 3178   1.592   1.629   9.073
  931SOL    HW1 3179   1.619   1.663   8.983
  931SOL    HW2 3180   1.671   1.591   9.119
  932SOL     OW 3181   1.111   1.195   8.548
  932SOL    HW1 3182   1.071   1.239   8.629
  932SOL    HW2 3183   1.070   1.232   8.465
  933SOL     OW 3184   1.638   1.099   8.527
  933SOL    HW1 3185   1.643   1.180   8.586
  933SOL    HW2 3186   1.552   1.101   8.476
  934SOL     OW 3187   0.915   0.089   8.850
  934SOL    HW1 3188   0.940   0.069   8.755
  934SOL    HW2 3189   0.987   0.145   8.892
  935SOL     OW 3190   0.980   1.116   9.167
  935SOL    HW1 3191   0.881   1.122   9.177
  935SOL    HW2 3192   1.003   1.036   9.111
  936SOL     OW 3193   0.705   1.050   7.816
  936SOL    HW1 3194   0.691   1.057   7.915
  936SOL    HW2 3195   0.789   0.999   7.798
  937SOL     OW 3196   0.410   0.813   8.699
  937SOL    HW1 3197   0.496   0.825   8.749
  937SOL    HW2 3198   0.368   0.726   8.726
  938SOL     OW 3199   1.274   0.386   8.710
  938SOL    HW1 3200   1.295   0.460   8.774
  938SOL    HW2 3201   1.185   0.403   8.667
  939SOL     OW 3202   0.064   1.564   8.779
  939SOL    HW1 3203   0.018   1.646   8.745
  939SOL    HW2 3204   0.162   1.583   8.788
  940SOL     OW 3205   0.367   1.100   7.949
  940SOL    HW1 3206   0.360   1.183   7.893
  940SOL    HW2 3207   0.371   1.020   7.889
  941SOL     OW 3208   0.566   0.537   8.313
  941SOL    HW1 3209   0.578   0.603   8.239
  941SOL    HW2 3210   0.612   0.571   8.396
  942SOL     OW 3211   1.252   1.348   7.836
  942SOL    HW1 3212   1.302   1.425   7.876
  942SOL    HW2 3213   1.157   1.350   7.868
  943SOL     OW 3214   1.272   1.445   8.590
  943SOL    HW1 3215   1.319   1.458   8.677
  943SOL    HW2 3216   1.206   1.371   8.599
  944SOL     OW 3217   1.582   0.639   7.920
  944SOL    HW1 3218   1.551   0.700   7.993
  944SOL    HW2 3219   1.632   0.691   7.851
  945SOL     OW 3220   0.354   1.510   8.777
  945SOL    HW1 3221   0.333   1.466   8.690
  945SOL    HW2 3222   0.451   1.536   8.780
  946SOL     OW 3223   0.402   0.751   9.046
  946SOL    HW1 3224   0.470   0.806   8.999
  946SOL    HW2 3225   0.442   0.663   9.073
  947SOL     OW 3226   1.587   0.779   9.118
  947SOL    HW1 3227   1.495   0.817   9.113
  947SOL    HW2 3228   1.647   0.826   9.053
  948SOL     OW 3229   1.013   0.105   9.218
  948SOL    HW1 3230   1.019   0.190   9.166
  948SOL    HW2 3231   1.045   0.029   9.161
  949SOL     OW 3232   0.504   0.050   9.188
  949SOL    HW1 3233   0.462  -0.007   9.118
  949SOL    HW2 3234   0.438   0.119   9.220
  950SOL     OW 3235   0.573   0.870   8.477
  950SOL    HW1 3236   0.617   0.959   8.468
  950SOL    HW2 3237   0.510   0.870   8.554
  951SOL     OW 3238   1.360   0.862   8.493
  951SOL    HW1 3239   1.285   0.862   8.427
  951SOL    HW2 3240   1.397   0.770   8.502
  952SOL     OW 3241   1.209   0.525   7.723
  952SOL    HW1 3242   1.222   0.441   7.777
  952SOL    HW2 3243   1.180   0.599   7.783
  953SOL     OW 3244   0.307   0.213   8.679
  953SOL    HW1 3245   0.284   0.250   8.769
  953SOL    HW2 3246   0.277   0.118   8.673
  954SOL     OW 3247   0.037   1.310   8.730
  954SOL    HW1 3248   0.090   1.261   8.798
  954SOL    HW2 3249   0.059   1.408   8.735
  955SOL     OW 3250   0.732   0.634   8.512
  955SOL    HW1 3251   0.791   0.608   8.436
  955SOL    HW2 3252   0.704   0.730   8.501
  956SOL     OW 3253   1.728   0.935   9.302
  956SOL    HW1 3254   1.682   0.928   9.213
  956SOL    HW2 3255   1.666   0.979   9.368
  957SOL     OW 3256   0.307   0.063   8.066
  957SOL    HW1 3257   0.296   0.157   8.099
  957SOL    HW2 3258   0.302   0.000   8.143
  958SOL     OW 3259   1.622   0.367   7.822
  958SOL    HW1 3260   1.624   0.291   7.886
  958SOL    HW2 3261   1.574   0.444   7.862
  959SOL     OW 3262   1.023   0.766   8.414
  959SOL    HW1 3263   1.038   0.787   8.510
  959SOL    HW2 3264   0.993   0.671   8.405
  960SOL     OW 3265   0.980   1.573   9.148
  960SOL    HW1 3266   0.960   1.617   9.060
  960SOL    HW2 3267   1.019   1.482   9.132
  961SOL     OW 3268   1.859   1.518   9.053
  961SOL    HW1 3269   1.873   1.545   8.958
  961SOL    HW2 3270   1.942   1.540   9.106
  962SOL     OW 3271   0.350   0.898   9.252
  962SOL    HW1 3272   0.426   0.942   9.300
  962SOL    HW2 3273   0.385   0.851   9.170
  963SOL     OW 3274   1.540   0.274   7.573
  963SOL    HW1 3275   1.479   0.199   7.596
  963SOL    HW2 3276   1.562   0.326   7.656
  964SOL     OW 3277   1.303   0.838   7.490
  964SOL    HW1 3278   1.337   0.745   7.505
  964SOL    HW2 3279   1.321   0.865   7.395
  965SOL     OW 3280   1.068   1.333   8.297
  965SOL    HW1 3281   1.075   1.249   8.242
  965SOL    HW2 3282   1.130   1.402   8.261
  966SOL     OW 3283   0.319   0.810   8.397
  966SOL    HW1 3284   0.412   0.846   8.402
  966SOL    HW2 3285   0.313   0.725   8.449
  967SOL     OW 3286   0.339   0.509   8.454
  967SOL    HW1 3287   0.287   0.426   8.437
  967SOL    HW2 3288   0.416   0.514   8.390
  968SOL     OW 3289   1.138   0.380   9.126
  968SOL    HW1 3290   1.093   0.443   9.190
  968SOL    HW2 3291   1.231   0.411   9.109
  969SOL     OW 3292   1.160   0.207   8.925
  969SOL    HW1 3293   1.160   0.271   9.002
  969SOL    HW2 3294   1.188   0.255   8.842
  970SOL     OW 3295   0.008   1.326   7.648
  970SOL    HW1 3296  -0.085   1.347   7.617
  970SOL    HW2 3297   0.018   1.227   7.661
  971SOL     OW 3298   0.088   1.801   8.375
  971SOL    HW1 3299   0.046   1.715   8.348
  971SOL    HW2 3300   0.182   1.804   8.341
  972SOL     OW 3301   0.504   1.568   8.358
  972SOL    HW1 3302   0.570   1.642   8.367
  972SOL    HW2 3303   0.548   1.489   8.316
  973SOL     OW 3304   1.002   0.796   8.686
  973SOL    HW1 3305   1.043   0.764   8.772
  973SOL    HW2 3306   0.906   0.769   8.683
  974SOL     OW 3307   0.040   0.544   8.562
  974SOL    HW1 3308   0.125   0.511   8.521
  974SOL    HW2 3309   0.053   0.559   8.660
  975SOL     OW 3310   0.189   0.520   9.170
  975SOL    HW1 3311   0.248   0.480   9.100
  975SOL    HW2 3312   0.131   0.591   9.129
  976SOL     OW 3313   1.369   0.950   9.108
  976SOL    HW1 3314   1.408   1.039   9.128
  976SOL    HW2 3315   1.379   0.930   9.011
  977SOL     OW 3316   0.815   0.572   7.773
  977SOL    HW1 3317   0.822   0.483   7.727
  977SOL    HW2 3318   0.721   0.606   7.765
  978SOL     OW 3319   1.657   0.604   8.654
  978SOL    HW1 3320   1.619   0.535   8.716
  978SOL    HW2 3321   1.739   0.568   8.610
  979SOL     OW 3322   0.252   1.564   9.192
  979SOL    HW1 3323   0.222   1.621   9.268
  979SOL    HW2 3324   0.245   1.467   9.218
  980SOL     OW 3325   0.671   0.464   8.717
  980SOL    HW1 3326   0.637   0.375   8.687
  980SOL    HW2 3327   0.697   0.518   8.637
  981SOL     OW 3328   0.930   1.678   8.913
  981SOL    HW1 3329   0.906   1.660   8.818
  981SOL    HW2 3330   0.960   1.772   8.923
  982SOL     OW 3331   0.473   0.500   7.639
  982SOL    HW1 3332   0.534   0.580   7.643
  982SOL    HW2 3333   0.378   0.531   7.646
  983SOL     OW 3334   0.159   1.137   8.914
  983SOL    HW1 3335   0.181   1.076   8.990
  983SOL    HW2 3336   0.169   1.088   8.828
  984SOL     OW 3337   1.347   1.059   8.682
  984SOL    HW1 3338   1.371   0.996   8.608
  984SOL    HW2 3339   1.257   1.099   8.664
  985SOL     OW 3340   1.302   0.855   7.757
  985SOL    HW1 3341   1.216   0.824   7.799
  985SOL    HW2 3342   1.298   0.841   7.658
  986SOL     OW 3343   1.759   1.747   8.602
  986SOL    HW1 3344   1.820   1.777   8.529
  986SOL    HW2 3345   1.721   1.658   8.580
  987SOL     OW 3346   1.252   1.731   8.576
  987SOL    HW1 3347   1.336   1.736   8.522
  987SOL    HW2 3348   1.229   1.635   8.594
  988SOL     OW 3349   0.083   1.258   8.470
  988SOL    HW1 3350   0.078   1.257   8.570
  988SOL    HW2 3351   0.000   1.217   8.432
  989SOL     OW 3352   0.688   1.662   9.164
  989SOL    HW1 3353   0.632   1.743   9.173
  989SOL    HW2 3354   0.740   1.666   9.078
  990SOL     OW 3355   1.726   0.135   7.971
  990SOL    HW1 3356   1.799   0.118   7.904
  990SOL    HW2 3357   1.695   0.048   8.009
  991SOL     OW 3358   1.388   1.573   7.925
  991SOL    HW1 3359   1.455   1.585   7.851
  991SOL    HW2 3360   1.348   1.662   7.948
  992SOL     OW 3361   0.130   1.794   9.299
  992SOL    HW1 3362   0.089   1.720   9.352
  992SOL    HW2 3363   0.194   1.845   9.357
  993SOL     OW 3364   1.280   0.927   8.120
  993SOL    HW1 3365   1.340   0.846   8.122
  993SOL    HW2 3366   1.320   0.996   8.060
  994SOL     OW 3367   0.830   1.273   8.870
  994SOL    HW1 3368   0.825   1.306   8.965
  994SOL    HW2 3369   0.744   1.292   8.824
  995SOL     OW 3370   0.672   1.616   7.602
  995SOL    HW1 3371   0.681   1.626   7.503
  995SOL    HW2 3372   0.632   1.527   7.623
  996SOL     OW 3373   1.650   1.720   8.842
  996SOL    HW1 3374   1.703   1.730   8.758
  996SOL    HW2 3375   1.623   1.810   8.876
  997SOL     OW 3376   1.841   0.175   8.411
  997SOL    HW1 3377   1.880   0.090   8.375
  997SOL    HW2 3378   1.743   0.177   8.392
  998SOL     OW 3379   0.263   0.326   8.168
  998SOL    HW1 3380   0.184   0.377   8.134
  998SOL    HW2 3381   0.254   0.311   8.266
  999SOL     OW 3382   1.194   1.612   7.479
  999SOL    HW1 3383   1.200   1.519   7.516
  999SOL    HW2 3384   1.135   1.612   7.399
 1000SOL     OW 3385   0.822   1.002   8.820
 1000SOL    HW1 3386   0.862   1.001   8.728
 1000SOL    HW2 3387   0.832   1.094   8.860
 1001SOL     OW 3388   0.916   0.910   7.739
 1001SOL    HW1 3389   0.979   0.948   7.671
 1001SOL    HW2 3390   0.956   0.827   7.778
 1002SOL     OW 3391   1.504   1.607   7.492
 1002SOL    HW1 3392   1.412   1.644   7.499
 1002SOL    HW2 3393   1.542   1.627   7.402
 1003SOL     OW 3394   0.372   1.288   8.938
 1003SOL    HW1 3395   0.359   1.381   8.904
 1003SOL    HW2 3396   0.288   1.236   8.925
 1004SOL     OW 3397   1.614   1.292   8.737
 1004SOL    HW1 3398   1.674   1.295   8.817
 1004SOL    HW2 3399   1.539   1.356   8.750
 1005SOL     OW 3400   1.039   1.098   8.144
 1005SOL    HW1 3401   0.969   1.051   8.198
 1005SOL    HW2 3402   1.098   1.030   8.101
 1006SOL     OW 3403   1.014   0.236   8.419
 1006SOL    HW1 3404   1.006   0.200   8.326
 1006SOL    HW2 3405   1.012   0.160   8.484
 1007SOL     OW 3406   0.590   1.487   7.939
 1007SOL    HW1 3407   0.632   1.429   7.869
 1007SOL    HW2 3408   0.546   1.566   7.895
 1008SOL     OW 3409   1.709   0.385   8.829
 1008SOL    HW1 3410   1.782   0.454   8.833
 1008SOL    HW2 3411   1.737   0.310   8.770
 1009SOL     OW 3412   0.255   1.348   7.738
 1009SOL    HW1 3413   0.159   1.349   7.711
 1009SOL    HW2 3414   0.267   1.401   7.822
 1010SOL     OW 3415   0.105   1.013   9.174
 1010SOL    HW1 3416   0.028   0.980   9.228
 1010SOL    HW2 3417   0.190   0.983   9.216
 1011SOL     OW 3418   0.672   0.203   8.937
 1011SOL    HW1 3419   0.762   0.187   8.897
 1011SOL    HW2 3420   0.680   0.208   9.036
 1012SOL     OW 3421   0.075   0.345   7.481
 1012SOL    HW1 3422  -0.017   0.317   7.452
 1012SOL    HW2 3423   0.106   0.422   7.425
 1013SOL     OW 3424   1.440   0.856   8.846
 1013SOL    HW1 3425   1.383   0.908   8.783
 1013SOL    HW2 3426   1.536   0.868   8.822
 1014SOL     OW 3427   0.072   0.166   7.766
 1014SOL    HW1 3428   0.055   0.249   7.712
 1014SOL    HW2 3429   0.162   0.129   7.744
 1015SOL     OW 3430   1.183   1.335   7.567
 1015SOL    HW1 3431   1.084   1.324   7.569
 1015SOL    HW2 3432   1.217   1.350   7.660
 1016SOL     OW 3433   0.613   0.842   8.879
 1016SOL    HW1 3434   0.669   0.923   8.862
 1016SOL    HW2 3435   0.672   0.762   8.882
 1017SOL     OW 3436   1.493   1.767   8.407
 1017SOL    HW1 3437   1.526   1.831   8.338
 1017SOL    HW2 3438   1.559   1.761   8.482
 1018SOL     OW 3439   0.716   0.565   9.156
 1018SOL    HW1 3440   0.735   0.630   9.230
 1018SOL    HW2 3441   0.776   0.485   9.165
 1019SOL     OW 3442   1.450   1.220   9.081
 1019SOL    HW1 3443   1.441   1.210   9.180
 1019SOL    HW2 3444   1.546   1.213   9.055
 1020SOL     OW 3445   0.390   1.741   9.008
 1020SOL    HW1 3446   0.299   1.782   9.006
 1020SOL    HW2 3447   0.383   1.647   9.040
 1021SOL     OW 3448   1.674   0.883   8.702
 1021SOL    HW1 3449   1.647   0.794   8.665
 1021SOL    HW2 3450   1.675   0.951   8.629
 1022SOL     OW 3451   1.225   0.325   7.897
 1022SOL    HW1 3452   1.290   0.251   7.886
 1022SOL    HW2 3453   1.245   0.375   7.981
 1023SOL     OW 3454   0.594   0.745   8.100
 1023SOL    HW1 3455   0.644   0.830   8.081
 1023SOL    HW2 3456   0.506   0.747   8.052
 1024SOL     OW 3457   1.777   0.342   9.090
 1024SOL    HW1 3458   1.760   0.373   8.996
 1024SOL    HW2 3459   1.693   0.305   9.128
 1025SOL     OW 3460   1.730   0.934   8.965
 1025SOL    HW1 3461   1.768   1.025   8.980
 1025SOL    HW2 3462   1.722   0.917   8.866
 1026SOL     OW 3463   0.859   1.374   7.464
 1026SOL    HW1 3464   0.813   1.389   7.552
 1026SOL    HW2 3465   0.903   1.459   7.434
 1027SOL     OW 3466   0.661   1.790   8.401
 1027SOL    HW1 3467   0.615   1.878   8.388
 1027SOL    HW2 3468   0.760   1.802   8.394
 1028SOL     OW 3469   0.859   0.956   8.309
 1028SOL    HW1 3470   0.913   0.887   8.357
 1028SOL    HW2 3471   0.827   1.025   8.375
 1029SOL     OW 3472   1.083   0.984   7.535
 1029SOL    HW1 3473   1.060   1.037   7.453
 1029SOL    HW2 3474   1.164   0.928   7.516
 1030SOL     OW 3475   1.861   1.569   8.299
 1030SOL    HW1 3476   1.790   1.557   8.229
 1030SOL    HW2 3477   1.862   1.490   8.359
 1031SOL     OW 3478   0.221   1.314   9.292
 1031SOL    HW1 3479   0.156   1.241   9.271
 1031SOL    HW2 3480   0.225   1.328   9.390
 1032SOL     OW 3481   0.079   1.240   8.101
 1032SOL    HW1 3482   0.078   1.193   8.189
 1032SOL    HW2 3483   0.161   1.212   8.050
 1033SOL     OW 3484   0.672   1.391   9.072
 1033SOL    HW1 3485   0.594   1.341   9.110
 1033SOL    HW2 3486   0.669   1.486   9.103
 1034SOL     OW 3487   1.824   0.192   8.675
 1034SOL    HW1 3488   1.820   0.102   8.719
 1034SOL    HW2 3489   1.827   0.181   8.576
 1035SOL     OW 3490   0.428   0.424   7.968
 1035SOL    HW1 3491   0.458   0.352   7.906
 1035SOL    HW2 3492   0.389   0.384   8.051
 1036SOL     OW 3493   1.705   1.487   8.552
 1036SOL    HW1 3494   1.612   1.462   8.525
 1036SOL    HW2 3495   1.731   1.437   8.634
 1037SOL     OW 3496   0.317   0.547   8.728
 1037SOL    HW1 3497   0.355   0.488   8.800
 1037SOL    HW2 3498   0.357   0.521   8.640
 1038SOL     OW 3499   0.812   1.586   8.135
 1038SOL    HW1 3500   0.844   1.596   8.041
 1038SOL    HW2 3501   0.733   1.524   8.137
 1039SOL     OW 3502   1.424   0.214   8.560
 1039SOL    HW1 3503   1.476   0.149   8.615
 1039SOL    HW2 3504   1.375   0.277   8.621
 1040SOL     OW 3505   1.001   0.034   8.602
 1040SOL    HW1 3506   0.938  -0.038   8.571
 1040SOL    HW2 3507   1.094  -0.002   8.602
 1041SOL     OW 3508   0.770   1.330   7.749
 1041SOL    HW1 3509   0.724   1.243   7.766
 1041SOL    HW2 3510   0.861   1.327   7.790
 1042SOL     OW 3511   0.618   1.567   8.732
 1042SOL    HW1 3512   0.613   1.649   8.789
 1042SOL    HW2 3513   0.707   1.564   8.687
 1043SOL     OW 3514   1.352   0.052   7.616
 1043SOL    HW1 3515   1.387   0.011   7.532
 1043SOL    HW2 3516   1.262   0.014   7.636
 1044SOL     OW 3517   1.300   0.453   8.139
 1044SOL    HW1 3518   1.241   0.533   8.143
 1044SOL    HW2 3519   1.315   0.418   8.232
 1045SOL     OW 3520   1.593   0.221   8.330
 1045SOL    HW1 3521   1.509   0.220   8.384
 1045SOL    HW2 3522   1.595   0.304   8.274
 1046SOL     OW 3523   0.039   1.077   7.748
 1046SOL    HW1 3524   0.138   1.066   7.739
 1046SOL    HW2 3525  -0.001   0.991   7.780
 1047SOL     OW 3526   0.875   1.646   7.785
 1047SOL    HW1 3527   0.798   1.611   7.731
 1047SOL    HW2 3528   0.843   1.717   7.847
 1048SOL     OW 3529   0.230   0.628   9.423
 1048SOL    HW1 3530   0.137   0.626   9.460
 1048SOL    HW2 3531   0.231   0.589   9.331
 1049SOL     OW 3532   0.225   0.275  10.306
 1049SOL    HW1 3533   0.260   0.258  10.398
 1049SOL    HW2 3534   0.137   0.230  10.294
 1050SOL     OW 3535   0.019   0.368   9.957
 1050SOL    HW1 3536  -0.063   0.411   9.996
 1050SOL    HW2 3537  -0.009   0.295   9.894
 1051SOL     OW 3538   0.569   1.275  10.475
 1051SOL    HW1 3539   0.476   1.268  10.438
 1051SOL    HW2 3540   0.580   1.364  10.519
 1052SOL     OW 3541   1.555   1.511  10.013
 1052SOL    HW1 3542   1.498   1.495  10.094
 1052SOL    HW2 3543   1.496   1.521   9.933
 1053SOL     OW 3544   1.135   0.703  10.027
 1053SOL    HW1 3545   1.192   0.781  10.002
 1053SOL    HW2 3546   1.075   0.729  10.103
 1054SOL     OW 3547   1.755   0.607   9.541
 1054SOL    HW1 3548   1.743   0.594   9.442
 1054SOL    HW2 3549   1.725   0.526   9.590
 1055SOL     OW 3550   0.768   1.144  10.333
 1055SOL    HW1 3551   0.690   1.161  10.393
 1055SOL    HW2 3552   0.802   1.231  10.297
 1056SOL     OW 3553   0.850   0.798  11.133
 1056SOL    HW1 3554   0.846   0.874  11.198
 1056SOL    HW2 3555   0.872   0.834  11.042
 1057SOL     OW 3556   0.685   1.012   9.975
 1057SOL    HW1 3557   0.754   0.996  10.045
 1057SOL    HW2 3558   0.612   1.069  10.013
 1058SOL     OW 3559   0.686   1.161  11.113
 1058SOL    HW1 3560   0.746   1.240  11.127
 1058SOL    HW2 3561   0.600   1.192  11.072
 1059SOL     OW 3562   0.335   1.435  10.371
 1059SOL    HW1 3563   0.257   1.404  10.318
 1059SOL    HW2 3564   0.393   1.493  10.314
 1060SOL     OW 3565   1.460   1.505  10.649
 1060SOL    HW1 3566   1.484   1.599  10.675
 1060SOL    HW2 3567   1.444   1.451  10.731
 1061SOL     OW 3568   0.438   0.392  10.809
 1061SOL    HW1 3569   0.520   0.336  10.818
 1061SOL    HW2 3570   0.357   0.334  10.813
 1062SOL     OW 3571   1.603   0.447  10.047
 1062SOL    HW1 3572   1.529   0.493   9.997
 1062SOL    HW2 3573   1.654   0.515  10.100
 1063SOL     OW 3574   0.231   1.713   9.793
 1063SOL    HW1 3575   0.265   1.790   9.847
 1063SOL    HW2 3576   0.275   1.713   9.703
 1064SOL     OW 3577   1.127   1.341  11.000
 1064SOL    HW1 3578   1.174   1.341  11.088
 1064SOL    HW2 3579   1.079   1.254  10.989
 1065SOL     OW 3580   0.230   1.434   9.848
 1065SOL    HW1 3581   0.204   1.530   9.848
 1065SOL    HW2 3582   0.159   1.380   9.893
 1066SOL     OW 3583   0.240   1.091  10.196
 1066SOL    HW1 3584   0.254   1.007  10.248
 1066SOL    HW2 3585   0.185   1.155  10.251
 1067SOL     OW 3586   0.620   1.786  10.749
 1067SOL    HW1 3587   0.528   1.769  10.784
 1067SOL    HW2 3588   0.648   1.878  10.775
 1068SOL     OW 3589   0.606   0.964   9.433
 1068SOL    HW1 3590   0.613   1.048   9.379
 1068SOL    HW2 3591   0.652   0.977   9.521
 1069SOL     OW 3592   1.594   0.114  10.790
 1069SOL    HW1 3593   1.576   0.181  10.718
 1069SOL    HW2 3594   1.591   0.160  10.879
 1070SOL     OW 3595   0.122   0.643   9.873
 1070SOL    HW1 3596   0.077   0.555   9.890
 1070SOL    HW2 3597   0.121   0.697   9.957
 1071SOL     OW 3598   0.027   1.596   9.427
 1071SOL    HW1 3599   0.008   1.500   9.448
 1071SOL    HW2 3600  -0.006   1.654   9.502
 1072SOL     OW 3601   1.689   0.922   9.922
 1072SOL    HW1 3602   1.784   0.893   9.930
 1072SOL    HW2 3603   1.681   0.987   9.847
 1073SOL     OW 3604   1.641   1.108   9.742
 1073SOL    HW1 3605   1.727   1.110   9.690
 1073SOL    HW2 3606   1.655   1.155   9.830
 1074SOL     OW 3607   0.113   0.737  10.907
 1074SOL    HW1 3608   0.201   0.724  10.952
 1074SOL    HW2 3609   0.100   0.834  10.885
 1075SOL     OW 3610   0.613   1.365  10.036
 1075SOL    HW1 3611   0.564   1.278  10.045
 1075SOL    HW2 3612   0.590   1.408   9.949
 1076SOL     OW 3613   1.293   1.228  10.733
 1076SOL    HW1 3614   1.330   1.155  10.675
 1076SOL    HW2 3615   1.345   1.233  10.818
 1077SOL     OW 3616   0.809   0.004   9.812
 1077SOL    HW1 3617   0.849   0.095   9.803
 1077SOL    HW2 3618   0.709   0.012   9.818
 1078SOL     OW 3619   0.197   0.976  10.574
 1078SOL    HW1 3620   0.286   0.931  10.560
 1078SOL    HW2 3621   0.124   0.911  10.555
 1079SOL     OW 3622   1.525   0.999   9.500
 1079SOL    HW1 3623   1.462   0.923   9.513
 1079SOL    HW2 3624   1.573   1.017   9.586
 1080SOL     OW 3625   1.187   1.792  10.926
 1080SOL    HW1 3626   1.211   1.852  10.850
 1080SOL    HW2 3627   1.194   1.697  10.896
 1081SOL     OW 3628   0.317   0.251  11.111
 1081SOL    HW1 3629   0.388   0.322  11.117
 1081SOL    HW2 3630   0.229   0.290  11.139
 1082SOL     OW 3631   1.466   1.417  10.263
 1082SOL    HW1 3632   1.407   1.423  10.343
 1082SOL    HW2 3633   1.451   1.329  10.217
 1083SOL     OW 3634   1.667   1.714   9.882
 1083SOL    HW1 3635   1.626   1.691   9.794
 1083SOL    HW2 3636   1.649   1.640   9.947
 1084SOL     OW 3637   0.598   0.729   9.580
 1084SOL    HW1 3638   0.622   0.798   9.512
 1084SOL    HW2 3639   0.520   0.762   9.634
 1085SOL     OW 3640   1.281   0.345  10.254
 1085SOL    HW1 3641   1.195   0.295  10.241
 1085SOL    HW2 3642   1.343   0.291  10.310
 1086SOL     OW 3643   1.576   1.662   9.617
 1086SOL    HW1 3644   1.665   1.708   9.620
 1086SOL    HW2 3645   1.555   1.638   9.522
 1087SOL     OW 3646   0.807   0.605  10.775
 1087SOL    HW1 3647   0.760   0.602  10.864
 1087SOL    HW2 3648   0.756   0.550  10.709
 1088SOL     OW 3649   1.394   0.469  10.984
 1088SOL    HW1 3650   1.374   0.512  11.072
 1088SOL    HW2 3651   1.472   0.407  10.993
 1089SOL     OW 3652   0.973   0.890  10.882
 1089SOL    HW1 3653   1.019   0.806  10.853
 1089SOL    HW2 3654   0.917   0.924  10.807
 1090SOL     OW 3655   0.991   0.410  10.552
 1090SOL    HW1 3656   0.914   0.444  10.606
 1090SOL    HW2 3657   0.957   0.359  10.473
 1091SOL     OW 3658   1.041   0.701   9.739
 1091SOL    HW1 3659   1.067   0.697   9.835
 1091SOL    HW2 3660   0.956   0.650   9.725
 1092SOL     OW 3661   0.076   0.811  10.099
 1092SOL    HW1 3662   0.175   0.799  10.108
 1092SOL    HW2 3663   0.052   0.906  10.120
 1093SOL     OW 3664   0.130   1.821  10.881
 1093SOL    HW1 3665   0.120   1.806  10.980
 1093SOL    HW2 3666   0.044   1.857  10.845
 1094SOL     OW 3667   0.865   0.348   9.505
 1094SOL    HW1 3668   0.924   0.411   9.456
 1094SOL    HW2 3669   0.884   0.254   9.476
 1095SOL     OW 3670   1.719   0.585  11.141
 1095SOL    HW1 3671   1.693   0.674  11.105
 1095SOL    HW2 3672   1.717   0.517  11.068
 1096SOL     OW 3673   1.362   1.144   9.855
 1096SOL    HW1 3674   1.445   1.115   9.807
 1096SOL    HW2 3675   1.313   1.211   9.799
 1097SOL     OW 3676   0.550   0.196  10.195
 1097SOL    HW1 3677   0.545   0.191  10.295
 1097SOL    HW2 3678   0.552   0.292  10.166
 1098SOL     OW 3679   1.008   1.456   9.787
 1098SOL    HW1 3680   0.962   1.528   9.735
 1098SOL    HW2 3681   1.004   1.476   9.885
 1099SOL     OW 3682   0.351   1.801  10.163
 1099SOL    HW1 3683   0.401   1.715  10.169
 1099SOL    HW2 3684   0.416   1.878  10.160
 1100SOL     OW 3685   1.795   1.066  10.183
 1100SOL    HW1 3686   1.733   1.051  10.107
 1100SOL    HW2 3687   1.743   1.077  10.268
 1101SOL     OW 3688   1.227   1.550  10.816
 1101SOL    HW1 3689   1.233   1.473  10.880
 1101SOL    HW2 3690   1.175   1.524  10.736
 1102SOL     OW 3691   0.321   0.943   9.552
 1102SOL    HW1 3692   0.403   0.982   9.510
 1102SOL    HW2 3693   0.294   0.861   9.503
 1103SOL     OW 3694   1.458   0.735  10.038
 1103SOL    HW1 3695   1.453   0.670  10.113
 1103SOL    HW2 3696   1.538   0.794  10.051
 1104SOL     OW 3697   0.461   1.266  11.037
 1104SOL    HW1 3698   0.411   1.267  10.951
 1104SOL    HW2 3699   0.398   1.248  11.113
 1105SOL     OW 3700   1.111   1.776   9.547
 1105SOL    HW1 3701   1.051   1.714   9.597
 1105SOL    HW2 3702   1.142   1.732   9.462
 1106SOL     OW 3703   0.202   0.285  10.808
 1106SOL    HW1 3704   0.122   0.345  10.795
 1106SOL    HW2 3705   0.192   0.236  10.894
 1107SOL     OW 3706   1.632   1.377   9.391
 1107SOL    HW1 3707   1.600   1.471   9.381
 1107SOL    HW2 3708   1.556   1.314   9.379
 1108SOL     OW 3709   0.464   1.743   9.633
 1108SOL    HW1 3710   0.497   1.782   9.719
 1108SOL    HW2 3711   0.540   1.736   9.568
 1109SOL     OW 3712   1.400   0.107   9.736
 1109SOL    HW1 3713   1.376   0.070   9.646
 1109SOL    HW2 3714   1.499   0.123   9.740
 1110SOL     OW 3715   0.249   1.785  10.551
 1110SOL    HW1 3716   0.306   1.720  10.601
 1110SOL    HW2 3717   0.233   1.752  10.458
 1111SOL     OW 3718   0.940   1.698  10.214
 1111SOL    HW1 3719   1.020   1.641  10.235
 1111SOL    HW2 3720   0.891   1.658  10.137
 1112SOL     OW 3721   0.382   0.700   9.790
 1112SOL    HW1 3722   0.427   0.610   9.787
 1112SOL    HW2 3723   0.288   0.689   9.823
 1113SOL     OW 3724   1.547   0.222  11.039
 1113SOL    HW1 3725   1.542   0.259  11.131
 1113SOL    HW2 3726   1.475   0.153  11.027
 1114SOL     OW 3727   0.614   0.122   9.427
 1114SOL    HW1 3728   0.712   0.100   9.434
 1114SOL    HW2 3729   0.583   0.105   9.334
 1115SOL     OW 3730   0.781   0.264  11.059
 1115SOL    HW1 3731   0.848   0.203  11.102
 1115SOL    HW2 3732   0.708   0.283  11.124
 1116SOL     OW 3733   0.888   1.514  10.505
 1116SOL    HW1 3734   0.865   1.489  10.411
 1116SOL    HW2 3735   0.949   1.445  10.544
 1117SOL     OW 3736   1.351   0.590  10.743
 1117SOL    HW1 3737   1.379   0.547  10.828
 1117SOL    HW2 3738   1.376   0.686  10.744
 1118SOL     OW 3739   0.803   1.402  10.234
 1118SOL    HW1 3740   0.893   1.416  10.192
 1118SOL    HW2 3741   0.732   1.404  10.163
 1119SOL     OW 3742   0.922   0.503  10.209
 1119SOL    HW1 3743   0.897   0.494  10.113
 1119SOL    HW2 3744   0.970   0.421  10.240
 1120SOL     OW 3745   0.539   0.064   9.822
 1120SOL    HW1 3746   0.458   0.065   9.880
 1120SOL    HW2 3747   0.542   0.147   9.767
 1121SOL     OW 3748   1.434   1.188   9.351
 1121SOL    HW1 3749   1.466   1.112   9.408
 1121SOL    HW2 3750   1.342   1.215   9.381
 1122SOL     OW 3751   0.297   0.035   9.481
 1122SOL    HW1 3752   0.346   0.119   9.460
 1122SOL    HW2 3753   0.359  -0.030   9.526
 1123SOL     OW 3754   0.935   0.236   9.790
 1123SOL    HW1 3755   0.887   0.277   9.712
 1123SOL    HW2 3756   1.034   0.234   9.771
 1124SOL     OW 3757   1.076   0.683  10.774
 1124SOL    HW1 3758   0.996   0.622  10.777
 1124SOL    HW2 3759   1.157   0.630  10.750
 1125SOL     OW 3760   1.227   1.570  10.103
 1125SOL    HW1 3761   1.248   1.644  10.038
 1125SOL    HW2 3762   1.295   1.570  10.176
 1126SOL     OW 3763   0.459   1.152  10.051
 1126SOL    HW1 3764   0.388   1.125  10.116
 1126SOL    HW2 3765   0.433   1.124   9.958
 1127SOL     OW 3766   1.271   1.797   9.901
 1127SOL    HW1 3767   1.315   1.861   9.837
 1127SOL    HW2 3768   1.221   1.849   9.971
 1128SOL     OW 3769   1.032   0.549   9.326
 1128SOL    HW1 3770   0.991   0.631   9.287
 1128SOL    HW2 3771   1.096   0.575   9.399
 1129SOL     OW 3772   0.078   0.556  10.696
 1129SOL    HW1 3773   0.170   0.555  10.655
 1129SOL    HW2 3774   0.072   0.630  10.763
 1130SOL     OW 3775   0.561   0.222  10.457
 1130SOL    HW1 3776   0.599   0.138  10.494
 1130SOL    HW2 3777   0.473   0.241  10.501
 1131SOL     OW 3778   0.866   0.454   9.952
 1131SOL    HW1 3779   0.834   0.526   9.890
 1131SOL    HW2 3780   0.890   0.373   9.899
 1132SOL     OW 3781   1.017   0.039  10.063
 1132SOL    HW1 3782   0.945   0.044   9.994
 1132SOL    HW2 3783   0.993  -0.030  10.132
 1133SOL     OW 3784   1.429   1.173  10.177
 1133SOL    HW1 3785   1.374   1.089  10.170
 1133SOL    HW2 3786   1.455   1.202  10.085
 1134SOL     OW 3787   1.466   0.590  10.302
 1134SOL    HW1 3788   1.436   0.495  10.309
 1134SOL    HW2 3789   1.539   0.606  10.368
 1135SOL     OW 3790   1.857   0.833   9.687
 1135SOL    HW1 3791   1.899   0.769   9.751
 1135SOL    HW2 3792   1.819   0.782   9.609
 1136SOL     OW 3793   0.488   1.385   9.484
 1136SOL    HW1 3794   0.401   1.370   9.531
 1136SOL    HW2 3795   0.471   1.411   9.389
 1137SOL     OW 3796   1.664   1.280   9.967
 1137SOL    HW1 3797   1.763   1.288   9.981
 1137SOL    HW2 3798   1.619   1.364   9.998
 1138SOL     OW 3799   1.390   0.575   9.388
 1138SOL    HW1 3800   1.336   0.554   9.469
 1138SOL    HW2 3801   1.481   0.534   9.397
 1139SOL     OW 3802   0.527   0.256   9.638
 1139SOL    HW1 3803   0.554   0.197   9.563
 1139SOL    HW2 3804   0.527   0.351   9.607
 1140SOL     OW 3805   1.754   1.223  10.898
 1140SOL    HW1 3806   1.845   1.184  10.885
 1140SOL    HW2 3807   1.762   1.319  10.922
 1141SOL     OW 3808   1.064   1.347  10.650
 1141SOL    HW1 3809   0.984   1.324  10.705
 1141SOL    HW2 3810   1.147   1.321  10.699
 1142SOL     OW 3811   1.592   1.629  10.935
 1142SOL    HW1 3812   1.619   1.663  10.845
 1142SOL    HW2 3813   1.671   1.591  10.981
 1143SOL     OW 3814   1.111   1.195  10.410
 1143SOL    HW1 3815   1.071   1.239  10.491
 1143SOL    HW2 3816   1.070   1.232  10.327
 1144SOL     OW 3817   1.638   1.099  10.389
 1144SOL    HW1 3818   1.643   1.180  10.448
 1144SOL    HW2 3819   1.552   1.101  10.338
 1145SOL     OW 3820   0.915   0.089  10.712
 1145SOL    HW1 3821   0.940   0.069  10.617
 1145SOL    HW2 3822   0.987   0.145  10.754
 1146SOL     OW 3823   0.980   1.116  11.029
 1146SOL    HW1 3824   0.881   1.122  11.039
 1146SOL    HW2 3825   1.003   1.036  10.973
 1147SOL     OW 3826   0.705   1.050   9.678
 1147SOL    HW1 3827   0.691   1.057   9.777
 1147SOL    HW2 3828   0.789   0.999   9.660
 1148SOL     OW 3829   0.410   0.813  10.561
 1148SOL    HW1 3830   0.496   0.825  10.611
 1148SOL    HW2 3831   0.368   0.726  10.588
 1149SOL     OW 3832   1.274   0.386  10.572
 1149SOL    HW1 3833   1.295   0.460  10.636
 1149SOL    HW2 3834   1.185   0.403  10.529
 1150SOL     OW 3835   0.064   1.564  10.641
 1150SOL    HW1 3836   0.018   1.646  10.607
 1150SOL    HW2 3837   0.162   1.583  10.650
 1151SOL     OW 3838   0.367   1.100   9.811
 1151SOL    HW1 3839   0.360   1.183   9.755
 1151SOL    HW2 3840   0.371   1.020   9.751
 1152SOL     OW 3841   0.566   0.537  10.175
 1152SOL    HW1 3842   0.578   0.603  10.101
 1152SOL    HW2 3843   0.612   0.571  10.258
 1153SOL     OW 3844   1.252   1.348   9.698
 1153SOL    HW1 3845   1.302   1.425   9.738
 1153SOL    HW2 3846   1.157   1.350   9.730
 1154SOL     OW 3847   1.272   1.445  10.452
 1154SOL    HW1 3848   1.319   1.458  10.539
 1154SOL    HW2 3849   1.206   1.371  10.461
 1155SOL     OW 3850   1.582   0.639   9.782
 1155SOL    HW1 3851   1.551   0.700   9.855
 1155SOL    HW2 3852   1.632   0.691   9.713
 1156SOL     OW 3853   0.354   1.510  10.639
 1156SOL    HW1 3854   0.333   1.466  10.552
 1156SOL    HW2 3855   0.451   1.536  10.642
 1157SOL     OW 3856   0.402   0.751  10.908
 1157SOL    HW1 3857   0.470   0.806  10.861
 1157SOL    HW2 3858   0.442   0.663  10.935
 1158SOL     OW 3859   1.587   0.779  10.980
 1158SOL    HW1 3860   1.495   0.817  10.975
 1158SOL    HW2 3861   1.647   0.826  10.915
 1159SOL     OW 3862   1.013   0.105  11.080
 1159SOL    HW1 3863   1.019   0.190  11.028
 1159SOL    HW2 3864   1.045   0.029  11.023
 1160SOL     OW 3865   0.504   0.050  11.050
 1160SOL    HW1 3866   0.462  -0.007  10.980
 1160SOL    HW2 3867   0.438   0.119  11.082
 1161SOL     OW 3868   0.573   0.870  10.339
 1161SOL    HW1 3869   0.617   0.959  10.330
 1161SOL    HW2 3870   0.510   0.870  10.416
 1162SOL     OW 3871   1.360   0.862  10.355
 1162SOL    HW1 3872   1.285   0.862  10.289
 1162SOL    HW2 3873   1.397   0.770  10.364
 1163SOL     OW 3874   1.209   0.525   9.585
 1163SOL    HW1 3875   1.222   0.441   9.639
 1163SOL    HW2 3876   1.180   0.599   9.645
 1164SOL     OW 3877   0.307   0.213  10.541
 1164SOL    HW1 3878   0.284   0.250  10.631
 1164SOL    HW2 3879   0.277   0.118  10.535
 1165SOL     OW 3880   0.037   1.310  10.592
 1165SOL    HW1 3881   0.090   1.261  10.660
 1165SOL    HW2 3882   0.059   1.408  10.597
 1166SOL     OW 3883   0.732   0.634  10.374
 1166SOL    HW1 3884   0.791   0.608  10.298
 1166SOL    HW2 3885   0.704   0.730  10.363
 1167SOL     OW 3886   1.728   0.935  11.164
 1167SOL    HW1 3887   1.682   0.928  11.075
 1167SOL    HW2 3888   1.666   0.979  11.230
 1168SOL     OW 3889   0.307   0.063   9.928
 1168SOL    HW1 3890   0.296   0.157   9.961
 1168SOL    HW2 3891   0.302   0.000  10.005
 1169SOL     OW 3892   1.622   0.367   9.684
 1169SOL    HW1 3893   1.624   0.291   9.748
 1169SOL    HW2 3894   1.574   0.444   9.724
 1170SOL     OW 3895   1.023   0.766  10.276
 1170SOL    HW1 3896   1.038   0.787  10.372
 1170SOL    HW2 3897   0.993   0.671  10.267
 1171SOL     OW 3898   0.980   1.573  11.010
 1171SOL    HW1 3899   0.960   1.617  10.922
 1171SOL    HW2 3900   1.019   1.482  10.994
 1172SOL     OW 3901   1.859   1.518  10.915
 1172SOL    HW1 3902   1.873   1.545  10.820
 1172SOL    HW2 3903   1.942   1.540  10.968
 1173SOL     OW 3904   0.350   0.898  11.114
 1173SOL    HW1 3905   0.426   0.942  11.162
 1173SOL    HW2 3906   0.385   0.851  11.032
 1174SOL     OW 3907   1.540   0.274   9.435
 1174SOL    HW1 3908   1.479   0.199   9.458
 1174SOL    HW2 3909   1.562   0.326   9.518
 1175SOL     OW 3910   1.303   0.838   9.352
 1175SOL    HW1 3911   1.337   0.745   9.367
 1175SOL    HW2 3912   1.321   0.865   9.257
 1176SOL     OW 3913   1.068   1.333  10.159
 1176SOL    HW1 3914   1.075   1.249  10.104
 1176SOL    HW2 3915   1.130   1.402  10.123
 1177SOL     OW 3916   0.319   0.810  10.259
 1177SOL    HW1 3917   0.412   0.846  10.264
 1177SOL    HW2 3918   0.313   0.725  10.311
 1178SOL     OW 3919   0.339   0.509  10.316
 1178SOL    HW1 3920   0.287   0.426  10.299
 1178SOL    HW2 3921   0.416   0.514  10.252
 1179SOL     OW 3922   1.138   0.380  10.988
 1179SOL    HW1 3923   1.093   0.443  11.052
 1179SOL    HW2 3924   1.231   0.411  10.971
 1180SOL     OW 3925   1.160   0.207  10.787
 1180SOL    HW1 3926   1.160   0.271  10.864
 1180SOL    HW2 3927   1.188   0.255  10.704
 1181SOL     OW 3928   0.008   1.326   9.510
 1181SOL    HW1 3929  -0.085   1.347   9.479
 1181SOL    HW2 3930   0.018   1.227   9.523
 1182SOL     OW 3931   0.088   1.801  10.237
 1182SOL    HW1 3932   0.046   1.715  10.210
 1182SOL    HW2 3933   0.182   1.804  10.203
 1183SOL     OW 3934   0.504   1.568  10.220
 1183SOL    HW1 3935   0.570   1.642  10.229
 1183SOL    HW2 3936   0.548   1.489  10.178
 1184SOL     OW 3937   1.002   0.796  10.548
 1184SOL    HW1 3938   1.043   0.764  10.634
 1184SOL    HW2 3939   0.906   0.769  10.545
 1185SOL     OW 3940   0.040   0.544  10.424
 1185SOL    HW1 3941   0.125   0.511  10.383
 1185SOL    HW2 3942   0.053   0.559  10.522
 1186SOL     OW 3943   0.189   0.520  11.032
 1186SOL    HW1 3944   0.248   0.480  10.962
 1186SOL    HW2 3945   0.131   0.591  10.991
 1187SOL     OW 3946   1.369   0.950  10.970
 1187SOL    HW1 3947   1.408   1.039  10.990
 1187SOL    HW2 3948   1.379   0.930  10.873
 1188SOL     OW 3949   0.815   0.572   9.635
 1188SOL    HW1 3950   0.822   0.483   9.589
 1188SOL    HW2 3951   0.721   0.606   9.627
 1189SOL     OW 3952   1.657   0.604  10.516
 1189SOL    HW1 3953   1.619   0.535  10.578
 1189SOL    HW2 3954   1.739   0.568  10.472
 1190SOL     OW 3955   0.252   1.564  11.054
 1190SOL    HW1 3956   0.222   1.621  11.130
 1190SOL    HW2 3957   0.245   1.467  11.080
 1191SOL     OW 3958   0.671   0.464  10.579
 1191SOL    HW1 3959   0.637   0.375  10.549
 1191SOL    HW2 3960   0.697   0.518  10.499
 1192SOL     OW 3961   0.930   1.678  10.775
 1192SOL    HW1 3962   0.906   1.660  10.680
 1192SOL    HW2 3963   0.960   1.772  10.785
 1193SOL     OW 3964   0.473   0.500   9.501
 1193SOL    HW1 3965   0.534   0.580   9.505
 1193SOL    HW2 3966   0.378   0.531   9.508
 1194SOL     OW 3967   0.159   1.137  10.776
 1194SOL    HW1 3968   0.181   1.076  10.852
 1194SOL    HW2 3969   0.169   1.088  10.690
 1195SOL     OW 3970   1.347   1.059  10.544
 1195SOL    HW1 3971   1.371   0.996  10.470
 1195SOL    HW2 3972   1.257   1.099  10.526
 1196SOL     OW 3973   1.302   0.855   9.619
 1196SOL    HW1 3974   1.216   0.824   9.661
 1196SOL    HW2 3975   1.298   0.841   9.520
 1197SOL     OW 3976   1.759   1.747  10.464
 1197SOL    HW1 3977   1.820   1.777  10.391
 1197SOL    HW2 3978   1.721   1.658  10.442
 1198SOL     OW 3979   1.252   1.731  10.438
 1198SOL    HW1 3980   1.336   1.736  10.384
 1198SOL    HW2 3981   1.229   1.635  10.456
 1199SOL     OW 3982   0.083   1.258  10.332
 1199SOL    HW1 3983   0.078   1.257  10.432
 1199SOL    HW2 3984   0.000   1.217  10.294
 1200SOL     OW 3985   0.688   1.662  11.026
 1200SOL    HW1 3986   0.632   1.743  11.035
 1200SOL    HW2 3987   0.740   1.666  10.940
 1201SOL     OW 3988   1.726   0.135   9.833
 1201SOL    HW1 3989   1.799   0.118   9.766
 1201SOL    HW2 3990   1.695   0.048   9.871
 1202SOL     OW 3991   1.388   1.573   9.787
 1202SOL    HW1 3992   1.455   1.585   9.713
 1202SOL    HW2 3993   1.348   1.662   9.810
 1203SOL     OW 3994   0.130   1.794  11.161
 1203SOL    HW1 3995   0.089   1.720  11.214
 1203SOL    HW2 3996   0.194   1.845  11.219
 1204SOL     OW 3997   1.280   0.927   9.982
 1204SOL    HW1 3998   1.340   0.846   9.984
 1204SOL    HW2 3999   1.320   0.996   9.922
 1205SOL     OW 4000   0.830   1.273  10.732
 1205SOL    HW1 4001   0.825   1.306  10.827
 1205SOL    HW2 4002   0.744   1.292  10.686
 1206SOL     OW 4003   0.672   1.616   9.464
 1206SOL    HW1 4004   0.681   1.626   9.365
 1206SOL    HW2 4005   0.632   1.527   9.485
 1207SOL     OW 4006   1.650   1.720  10.704
 1207SOL    HW1 4007   1.703   1.730  10.620
 1207SOL    HW2 4008   1.623   1.810  10.738
 1208SOL     OW 4009   1.841   0.175  10.273
 1208SOL    HW1 4010   1.880   0.090  10.237
 1208SOL    HW2 4011   1.743   0.177  10.254
 1209SOL     OW 4012   0.263   0.326  10.030
 1209SOL    HW1 4013   0.184   0.377   9.996
 1209SOL    HW2 4014   0.254   0.311  10.128
 1210SOL     OW 4015   1.194   1.612   9.341
 1210SOL    HW1 4016   1.200   1.519   9.378
 1210SOL    HW2 4017   1.135   1.612   9.261
 1211SOL     OW 4018   0.822   1.002  10.682
 1211SOL    HW1 4019   0.862   1.001  10.590
 1211SOL    HW2 4020   0.832   1.094  10.722
 1212SOL     OW 4021   0.916   0.910   9.601
 1212SOL    HW1 4022   0.979   0.948   9.533
 1212SOL    HW2 4023   0.956   0.827   9.640
 1213SOL     OW 4024   1.504   1.607   9.354
 1213SOL    HW1 4025   1.412   1.644   9.361
 1213SOL    HW2 4026   1.542   1.627   9.264
 1214SOL     OW 4027   0.372   1.288  10.800
 1214SOL    HW1 4028   0.359   1.381  10.766
 1214SOL    HW2 4029   0.288   1.236  10.787
 1215SOL     OW 4030   1.614   1.292  10.599
 1215SOL    HW1 4031   1.674   1.295  10.679
 1215SOL    HW2 4032   1.539   1.356  10.612
 1216SOL     OW 4033   1.039   1.098  10.006
 1216SOL    HW1 4034   0.969   1.051  10.060
 1216SOL    HW2 4035   1.098   1.030   9.963
 1217SOL     OW 4036   1.014   0.236  10.281
 1217SOL    HW1 4037   1.006   0.200  10.188
 1217SOL    HW2 4038   1.012   0.160  10.346
 1218SOL     OW 4039   0.590   1.487   9.801
 1218SOL    HW1 4040   0.632   1.429   9.731
 1218SOL    HW2 4041   0.546   1.566   9.757
 1219SOL     OW 4042   1.709   0.385  10.691
 1219SOL    HW1 4043   1.782   0.454  10.695
 1219SOL    HW2 4044   1.737   0.310  10.632
 1220SOL     OW 4045   0.255   1.348   9.600
 1220SOL    HW1 4046   0.159   1.349   9.573
 1220SOL    HW2 4047   0.267   1.401   9.684
 1221SOL     OW 4048   0.105   1.013  11.036
 1221SOL    HW1 4049   0.028   0.980  11.090
 1221SOL    HW2 4050   0.190   0.983  11.078
 1222SOL     OW 4051   0.672   0.203  10.799
 1222SOL    HW1 4052   0.762   0.187  10.759
 1222SOL    HW2 4053   0.680   0.208  10.898
 1223SOL     OW 4054   0.075   0.345   9.343
 1223SOL    HW1 4055  -0.017   0.317   9.314
 1223SOL    HW2 4056   0.106   0.422   9.287
 1224SOL     OW 4057   1.440   0.856  10.708
 1224SOL    HW1 4058   1.383   0.908  10.645
 1224SOL    HW2 4059   1.536   0.868  10.684
 1225SOL     OW 4060   0.072   0.166   9.628
 1225SOL    HW1 4061   0.055   0.249   9.574
 1225SOL    HW2 4062   0.162   0.129   9.606
 1226SOL     OW 4063   1.183   1.335   9.429
 1226SOL    HW1 4064   1.084   1.324   9.431
 1226SOL    HW2 4065   1.217   1.350   9.522
 1227SOL     OW 4066   0.613   0.842  10.741
 1227SOL    HW1 4067   0.669   0.923  10.724
 1227SOL    HW2 4068   0.672   0.762  10.744
 1228SOL     OW 4069   1.493   1.767  10.269
 1228SOL    HW1 4070   1.526   1.831  10.200
 1228SOL    HW2 4071   1.559   1.761  10.344
 1229SOL     OW 4072   0.716   0.565  11.018
 1229SOL    HW1 4073   0.735   0.630  11.092
 1229SOL    HW2 4074   0.776   0.485  11.027
 1230SOL     OW 4075   1.450   1.220  10.943
 1230SOL    HW1 4076   1.441   1.210  11.042
 1230SOL    HW2 4077   1.546   1.213  10.917
 1231SOL     OW 4078   0.390   1.741  10.870
 1231SOL    HW1 4079   0.299   1.782  10.868
 1231SOL    HW2 4080   0.383   1.647  10.902
 1232SOL     OW 4081   1.674   0.883  10.564
 1232SOL    HW1 4082   1.647   0.794  10.527
 1232SOL    HW2 4083   1.675   0.951  10.491
 1233SOL     OW 4084   1.225   0.325   9.759
 1233SOL    HW1 4085   1.290   0.251   9.748
 1233SOL    HW2 4086   1.245   0.375   9.843
 1234SOL     OW 4087   0.594   0.745   9.962
 1234SOL    HW1 4088   0.644   0.830   9.943
 1234SOL    HW2 4089   0.506   0.747   9.914
 1235SOL     OW 4090   1.777   0.342  10.952
 1235SOL    HW1 4091   1.760   0.373  10.858
 1235SOL    HW2 4092   1.693   0.305  10.990
 1236SOL     OW 4093   1.730   0.934  10.827
 1236SOL    HW1 4094   1.768   1.025  10.842
 1236SOL    HW2 4095   1.722   0.917  10.728
 1237SOL     OW 4096   0.859   1.374   9.326
 1237SOL    HW1 4097   0.813   1.389   9.414
 1237SOL    HW2 4098   0.903   1.459   9.296
 1238SOL     OW 4099   0.661   1.790  10.263
 1238SOL    HW1 4100   0.615   1.878  10.250
 1238SOL    HW2 4101   0.760   1.802  10.256
 1239SOL     OW 4102   0.859   0.956  10.171
 1239SOL    HW1 4103   0.913   0.887  10.219
 1239SOL    HW2 4104   0.827   1.025  10.237
 1240SOL     OW 4105   1.083   0.984   9.397
 1240SOL    HW1 4106   1.060   1.037   9.315
 1240SOL    HW2 4107   1.164   0.928   9.378
 1241SOL     OW 4108   1.861   1.569  10.161
 1241SOL    HW1 4109   1.790   1.557  10.091
 1241SOL    HW2 4110   1.862   1.490  10.221
 1242SOL     OW 4111   0.221   1.314  11.154
 1242SOL    HW1 4112   0.156   1.241  11.133
 1242SOL    HW2 4113   0.225   1.328  11.252
 1243SOL     OW 4114   0.079   1.240   9.963
 1243SOL    HW1 4115   0.078   1.193  10.051
 1243SOL    HW2 4116   0.161   1.212   9.912
 1244SOL     OW 4117   0.672   1.391  10.934
 1244SOL    HW1 4118   0.594   1.341  10.972
 1244SOL    HW2 4119   0.669   1.486  10.965
 1245SOL     OW 4120   1.824   0.192  10.537
 1245SOL    HW1 4121   1.820   0.102  10.581
 1245SOL    HW2 4122   1.827   0.181  10.438
 1246SOL     OW 4123   0.428   0.424   9.830
 1246SOL    HW1 4124   0.458   0.352   9.768
 1246SOL    HW2 4125   0.389   0.384   9.913
 1247SOL     OW 4126   1.705   1.487  10.414
 1247SOL    HW1 4127   1.612   1.462  10.387
 1247SOL    HW2 4128   1.731   1.437  10.496
 1248SOL     OW 4129   0.317   0.547  10.590
 1248SOL    HW1 4130   0.355   0.488  10.662
 1248SOL    HW2 4131   0.357   0.521  10.502
 1249SOL     OW 4132   0.812   1.586   9.997
 1249SOL    HW1 4133   0.844   1.596   9.903
 1249SOL    HW2 4134   0.733   1.524   9.999
 1250SOL     OW 4135   1.424   0.214  10.422
 1250SOL    HW1 4136   1.476   0.149  10.477
 1250SOL    HW2 4137   1.375   0.277  10.483
 1251SOL     OW 4138   1.001   0.034  10.464
 1251SOL    HW1 4139   0.938  -0.038  10.433
 1251SOL    HW2 4140   1.094  -0.002  10.464
 1252SOL     OW 4141   0.770   1.330   9.611
 1252SOL    HW1 4142   0.724   1.243   9.628
 1252SOL    HW2 4143   0.861   1.327   9.652
 1253SOL     OW 4144   0.618   1.567  10.594
 1253SOL    HW1 4145   0.613   1.649  10.651
 1253SOL    HW2 4146   0.707   1.564  10.549
 1254SOL     OW 4147   1.352   0.052   9.478
 1254SOL    HW1 4148   1.387   0.011   9.394
 1254SOL    HW2 4149   1.262   0.014   9.498
 1255SOL     OW 4150   1.300   0.453  10.001
 1255SOL    HW1 4151   1.241   0.533  10.005
 1255SOL    HW2 4152   1.315   0.418  10.094
 1256SOL     OW 4153   1.593   0.221  10.192
 1256SOL    HW1 4154   1.509   0.220  10.246
 1256SOL    HW2 4155   1.595   0.304  10.136
 1257SOL     OW 4156   0.039   1.077   9.610
 1257SOL    HW1 4157   0.138   1.066   9.601
 1257SOL    HW2 4158  -0.001   0.991   9.642
 1258SOL     OW 4159   0.875   1.646   9.647
 1258SOL    HW1 4160   0.798   1.611   9.593
 1258SOL    HW2 4161   0.843   1.717   9.709
 1259SOL     OW 4162   0.230   0.628  11.285
 1259SOL    HW1 4163   0.137   0.626  11.322
 1259SOL    HW2 4164   0.231   0.589  11.193
 1260SOL     OW 4165   0.225   0.275  12.168
 1260SOL    HW1 4166   0.260   0.258  12.260
 1260SOL    HW2 4167   0.137   0.230  12.156
 1261SOL     OW 4168   0.019   0.368  11.819
 1261SOL    HW1 4169  -0.063   0.411  11.858
 1261SOL    HW2 4170  -0.009   0.295  11.756
 1262SOL     OW 4171   0.569   1.275  12.337
 1262SOL    HW1 4172   0.476   1.268  12.300
 1262SOL    HW2 4173   0.580   1.364  12.381
 1263SOL     OW 4174   1.555   1.511  11.875
 1263SOL    HW1 4175   1.498   1.495  11.956
 1263SOL    HW2 4176   1.496   1.521  11.795
 1264SOL     OW 4177   1.135   0.703  11.889
 1264SOL    HW1 4178   1.192   0.781  11.864
 1264SOL    HW2 4179   1.075   0.729  11.965
 1265SOL     OW 4180   1.755   0.607  11.403
 1265SOL    HW1 4181   1.743   0.594  11.304
 1265SOL    HW2 4182   1.725   0.526  11.452
 1266SOL     OW 4183   0.768   1.144  12.195
 1266SOL    HW1 4184   0.690   1.161  12.255
 1266SOL    HW2 4185   0.802   1.231  12.159
 1267SOL     OW 4186   0.850   0.798  12.995
 1267SOL    HW1 4187   0.846   0.874  13.060
 1267SOL    HW2 4188   0.872   0.834  12.904
 1268SOL     OW 4189   0.685   1.012  11.837
 1268SOL    HW1 4190   0.754   0.996  11.907
 1268SOL    HW2 4191   0.612   1.069  11.875
 1269SOL     OW 4192   0.686   1.161  12.975
 1269SOL    HW1 4193   0.746   1.240  12.989
 1269SOL    HW2 4194   0.600   1.192  12.934
 1270SOL     OW 4195   0.335   1.435  12.233
 1270SOL    HW1 4196   0.257   1.404  12.180
 1270SOL    HW2 4197   0.393   1.493  12.176
 1271SOL     OW 4198   1.460   1.505  12.511
 1271SOL    HW1 4199   1.484   1.599  12.537
 1271SOL    HW2 4200   1.444   1.451  12.593
 1272SOL     OW 4201   0.438   0.392  12.671
 1272SOL    HW1 4202   0.520   0.336  12.680
 1272SOL    HW2 4203   0.357   0.334  12.675
 1273SOL     OW 4204   1.603   0.447  11.909
 1273SOL    HW1 4205   1.529   0.493  11.859
 1273SOL    HW2 4206   1.654   0.515  11.962
 1274SOL     OW 4207   0.231   1.713  11.655
 1274SOL    HW1 4208   0.265   1.790  11.709
 1274SOL    HW2 4209   0.275   1.713  11.565
 1275SOL     OW 4210   1.127   1.341  12.862
 1275SOL    HW1 4211   1.174   1.341  12.950
 1275SOL    HW2 4212   1.079   1.254  12.851
 1276SOL     OW 4213   0.230   1.434  11.710
 1276SOL    HW1 4214   0.204   1.530  11.710
 1276SOL    HW2 4215   0.159   1.380  11.755
 1277SOL     OW 4216   0.240   1.091  12.058
 1277SOL    HW1 4217   0.254   1.007  12.110
 1277SOL    HW2 4218   0.185   1.155  12.113
 1278SOL     OW 4219   0.620   1.786  12.611
 1278SOL    HW1 4220   0.528   1.769  12.646
 1278SOL    HW2 4221   0.648   1.878  12.637
 1279SOL     OW 4222   0.606   0.964  11.295
 1279SOL    HW1 4223   0.613   1.048  11.241
 1279SOL    HW2 4224   0.652   0.977  11.383
 1280SOL     OW 4225   1.594   0.114  12.652
 1280SOL    HW1 4226   1.576   0.181  12.580
 1280SOL    HW2 4227   1.591   0.160  12.741
 1281SOL     OW 4228   0.122   0.643  11.735
 1281SOL    HW1 4229   0.077   0.555  11.752
 1281SOL    HW2 4230   0.121   0.697  11.819
 1282SOL     OW 4231   0.027   1.596  11.289
 1282SOL    HW1 4232   0.008   1.500  11.310
 1282SOL    HW2 4233  -0.006   1.654  11.364
 1283SOL     OW 4234   1.689   0.922  11.784
 1283SOL    HW1 4235   1.784   0.893  11.792
 1283SOL    HW2 4236   1.681   0.987  11.709
 1284SOL     OW 4237   1.641   1.108  11.604
 1284SOL    HW1 4238   1.727   1.110  11.552
 1284SOL    HW2 4239   1.655   1.155  11.692
 1285SOL     OW 4240   0.113   0.737  12.769
 1285SOL    HW1 4241   0.201   0.724  12.814
 1285SOL    HW2 4242   0.100   0.834  12.747
 1286SOL     OW 4243   0.613   1.365  11.898
 1286SOL    HW1 4244   0.564   1.278  11.907
 1286SOL    HW2 4245   0.590   1.408  11.811
 1287SOL     OW 4246   1.293   1.228  12.595
 1287SOL    HW1 4247   1.330   1.155  12.537
 1287SOL    HW2 4248   1.345   1.233  12.680
 1288SOL     OW 4249   0.809   0.004  11.674
 1288SOL    HW1 4250   0.849   0.095  11.665
 1288SOL    HW2 4251   0.709   0.012  11.680
 1289SOL     OW 4252   0.197   0.976  12.436
 1289SOL    HW1 4253   0.286   0.931  12.422
 1289SOL    HW2 4254   0.124   0.911  12.417
 1290SOL     OW 4255   1.525   0.999  11.362
 1290SOL    HW1 4256   1.462   0.923  11.375
 1290SOL    HW2 4257   1.573   1.017  11.448
 1291SOL     OW 4258   1.187   1.792  12.788
 1291SOL    HW1 4259   1.211   1.852  12.712
 1291SOL    HW2 4260   1.194   1.697  12.758
 1292SOL     OW 4261   0.317   0.251  12.973
 1292SOL    HW1 4262   0.388   0.322  12.979
 1292SOL    HW2 4263   0.229   0.290  13.001
 1293SOL     OW 4264   1.466   1.417  12.125
 1293SOL    HW1 4265   1.407   1.423  12.205
 1293SOL    HW2 4266   1.451   1.329  12.079
 1294SOL     OW 4267   1.667   1.714  11.744
 1294SOL    HW1 4268   1.626   1.691  11.656
 1294SOL    HW2 4269   1.649   1.640  11.809
 1295SOL     OW 4270   0.598   0.729  11.442
 1295SOL    HW1 4271   0.622   0.798  11.374
 1295SOL    HW2 4272   0.520   0.762  11.496
 1296SOL     OW 4273   1.281   0.345  12.116
 1296SOL    HW1 4274   1.195   0.295  12.103
 1296SOL    HW2 4275   1.343   0.291  12.172
 1297SOL     OW 4276   1.576   1.662  11.479
 1297SOL    HW1 4277   1.665   1.708  11.482
 1297SOL    HW2 4278   1.555   1.638  11.384
 1298SOL     OW 4279   0.807   0.605  12.637
 1298SOL    HW1 4280   0.760   0.602  12.726
 1298SOL    HW2 4281   0.756   0.550  12.571
 1299SOL     OW 4282   1.394   0.469  12.846
 1299SOL    HW1 4283   1.374   0.512  12.934
 1299SOL    HW2 4284   1.472   0.407  12.855
 1300SOL     OW 4285   0.973   0.890  12.744
 1300SOL    HW1 4286   1.019   0.806  12.715
 1300SOL    HW2 4287   0.917   0.924  12.669
 1301SOL     OW 4288   0.991   0.410  12.414
 1301SOL    HW1 4289   0.914   0.444  12.468
 1301SOL    HW2 4290   0.957   0.359  12.335
 1302SOL     OW 4291   1.041   0.701  11.601
 1302SOL    HW1 4292   1.067   0.697  11.697
 1302SOL    HW2 4293   0.956   0.650  11.587
 1303SOL     OW 4294   0.076   0.811  11.961
 1303SOL    HW1 4295   0.175   0.799  11.970
 1303SOL    HW2 4296   0.052   0.906  11.982
 1304SOL     OW 4297   0.130   1.821  12.743
 1304SOL    HW1 4298   0.120   1.806  12.842
 1304SOL    HW2 4299   0.044   1.857  12.707
 1305SOL     OW 4300   0.865   0.348  11.367
 1305SOL    HW1 4301   0.924   0.411  11.318
 1305SOL    HW2 4302   0.884   0.254  11.338
 1306SOL     OW 4303   1.719   0.585  13.003
 1306SOL    HW1 4304   1.693   0.674  12.967
 1306SOL    HW2 4305   1.717   0.517  12.930
 1307SOL     OW 4306   1.362   1.144  11.717
 1307SOL    HW1 4307   1.445   1.115  11.669
 1307SOL    HW2 4308   1.313   1.211  11.661
 1308SOL     OW 4309   0.550   0.196  12.057
 1308SOL    HW1 4310   0.545   0.191  12.157
 1308SOL    HW2 4311   0.552   0.292  12.028
 1309SOL     OW 4312   1.008   1.456  11.649
 1309SOL    HW1 4313   0.962   1.528  11.597
 1309SOL    HW2 4314   1.004   1.476  11.747
 1310SOL     OW 4315   0.351   1.801  12.025
 1310SOL    HW1 4316   0.401   1.715  12.031
 1310SOL    HW2 4317   0.416   1.878  12.022
 1311SOL     OW 4318   1.795   1.066  12.045
 1311SOL    HW1 4319   1.733   1.051  11.969
 1311SOL    HW2 4320   1.743   1.077  12.130
 1312SOL     OW 4321   1.227   1.550  12.678
 1312SOL    HW1 4322   1.233   1.473  12.742
 1312SOL    HW2 4323   1.175   1.524  12.598
 1313SOL     OW 4324   0.321   0.943  11.414
 1313SOL    HW1 4325   0.403   0.982  11.372
 1313SOL    HW2 4326   0.294   0.861  11.365
 1314SOL     OW 4327   1.458   0.735  11.900
 1314SOL    HW1 4328   1.453   0.670  11.975
 1314SOL    HW2 4329   1.538   0.794  11.913
 1315SOL     OW 4330   0.461   1.266  12.899
 1315SOL    HW1 4331   0.411   1.267  12.813
 1315SOL    HW2 4332   0.398   1.248  12.975
 1316SOL     OW 4333   1.111   1.776  11.409
 1316SOL    HW1 4334   1.051   1.714  11.459
 1316SOL    HW2 4335   1.142   1.732  11.324
 1317SOL     OW 4336   0.202   0.285  12.670
 1317SOL    HW1 4337   0.122   0.345  12.657
 1317SOL    HW2 4338   0.192   0.236  12.756
 1318SOL     OW 4339   1.632   1.377  11.253
 1318SOL    HW1 4340   1.600   1.471  11.243
 1318SOL    HW2 4341   1.556   1.314  11.241
 1319SOL     OW 4342   0.464   1.743  11.495
 1319SOL    HW1 4343   0.497   1.782  11.581
 1319SOL    HW2 4344   0.540   1.736  11.430
 1320SOL     OW 4345   1.400   0.107  11.598
 1320SOL    HW1 4346   1.376   0.070  11.508
 1320SOL    HW2 4347   1.499   0.123  11.602
 1321SOL     OW 4348   0.249   1.785  12.413
 1321SOL    HW1 4349   0.306   1.720  12.463
 1321SOL    HW2 4350   0.233   1.752  12.320
 1322SOL     OW 4351   0.940   1.698  12.076
 1322SOL    HW1 4352   1.020   1.641  12.097
 1322SOL    HW2 4353   0.891   1.658  11.999
 1323SOL     OW 4354   0.382   0.700  11.652
 1323SOL    HW1 4355   0.427   0.610  11.649
 1323SOL    HW2 4356   0.288   0.689  11.685
 1324SOL     OW 4357   1.547   0.222  12.901
 1324SOL    HW1 4358   1.542   0.259  12.993
 1324SOL    HW2 4359   1.475   0.153  12.889
 1325SOL     OW 4360   0.614   0.122  11.289
 1325SOL    HW1 4361   0.712   0.100  11.296
 1325SOL    HW2 4362   0.583   0.105  11.196
 1326SOL     OW 4363   0.781   0.264  12.921
 1326SOL    HW1 4364   0.848   0.203  12.964
 1326SOL    HW2 4365   0.708   0.283  12.986
 1327SOL     OW 4366   0.888   1.514  12.367
 1327SOL    HW1 4367   0.865   1.489  12.273
 1327SOL    HW2 4368   0.949   1.445  12.406
 1328SOL     OW 4369   1.351   0.590  12.605
 1328SOL    HW1 4370   1.379   0.547  12.690
 1328SOL    HW2 4371   1.376   0.686  12.606
 1329SOL     OW 4372   0.803   1.402  12.096
 1329SOL    HW1 4373   0.893   1.416  12.054
 1329SOL    HW2 4374   0.732   1.404  12.025
 1330SOL     OW 4375   0.922   0.503  12.071
 1330SOL    HW1 4376   0.897   0.494  11.975
 1330SOL    HW2 4377   0.970   0.421  12.102
 1331SOL     OW 4378   0.539   0.064  11.684
 1331SOL    HW1 4379   0.458   0.065  11.742
 1331SOL    HW2 4380   0.542   0.147  11.629
 1332SOL     OW 4381   1.434   1.188  11.213
 1332SOL    HW1 4382   1.466   1.112  11.270
 1332SOL    HW2 4383   1.342   1.215  11.243
 1333SOL     OW 4384   0.297   0.035  11.343
 1333SOL    HW1 4385   0.346   0.119  11.322
 1333SOL    HW2 4386   0.359  -0.030  11.388
 1334SOL     OW 4387   0.935   0.236  11.652
 1334SOL    HW1 4388   0.887   0.277  11.574
 1334SOL    HW2 4389   1.034   0.234  11.633
 1335SOL     OW 4390   1.076   0.683  12.636
 1335SOL    HW1 4391   0.996   0.622  12.639
 1335SOL    HW2 4392   1.157   0.630  12.612
 1336SOL     OW 4393   1.227   1.570  11.965
 1336SOL    HW1 4394   1.248   1.644  11.900
 1336SOL    HW2 4395   1.295   1.570  12.038
 1337SOL     OW 4396   0.459   1.152  11.913
 1337SOL    HW1 4397   0.388   1.125  11.978
 1337SOL    HW2 4398   0.433   1.124  11.820
 1338SOL     OW 4399   1.271   1.797  11.763
 1338SOL    HW1 4400   1.315   1.861  11.699
 1338SOL    HW2 4401   1.221   1.849  11.833
 1339SOL     OW 4402   1.032   0.549  11.188
 1339SOL    HW1 4403   0.991   0.631  11.149
 1339SOL    HW2 4404   1.096   0.575  11.261
 1340SOL     OW 4405   0.078   0.556  12.558
 1340SOL    HW1 4406   0.170   0.555  12.517
 1340SOL    HW2 4407   0.072   0.630  12.625
 1341SOL     OW 4408   0.561   0.222  12.319
 1341SOL    HW1 4409   0.599   0.138  12.356
 1341SOL    HW2 4410   0.473   0.241  12.363
 1342SOL     OW 4411   0.866   0.454  11.814
 1342SOL    HW1 4412   0.834   0.526  11.752
 1342SOL    HW2 4413   0.890   0.373  11.761
 1343SOL     OW 4414   1.017   0.039  11.925
 1343SOL    HW1 4415   0.945   0.044  11.856
 1343SOL    HW2 4416   0.993  -0.030  11.994
 1344SOL     OW 4417   1.429   1.173  12.039
 1344SOL    HW1 4418   1.374   1.089  12.032
 1344SOL    HW2 4419   1.455   1.202  11.947
 1345SOL     OW 4420   1.466   0.590  12.164
 1345SOL    HW1 4421   1.436   0.495  12.171
 1345SOL    HW2 4422   1.539   0.606  12.230
 1346SOL     OW 4423   1.857   0.833  11.549
 1346SOL    HW1 4424   1.899   0.769  11.613
 1346SOL    HW2 4425   1.819   0.782  11.471
 1347SOL     OW 4426   0.488   1.385  11.346
 1347SOL    HW1 4427   0.401   1.370  11.393
 1347SOL    HW2 4428   0.471   1.411  11.251
 1348SOL     OW 4429   1.664   1.280  11.829
 1348SOL    HW1 4430   1.763   1.288  11.843
 1348SOL    HW2 4431   1.619   1.364  11.860
 1349SOL     OW 4432   1.390   0.575  11.250
 1349SOL    HW1 4433   1.336   0.554  11.331
 1349SOL    HW2 4434   1.481   0.534  11.259
 1350SOL     OW 4435   0.527   0.256  11.500
 1350SOL    HW1 4436   0.554   0.197  11.425
 1350SOL    HW2 4437   0.527   0.351  11.469
 1351SOL     OW 4438   1.754   1.223  12.760
 1351SOL    HW1 4439   1.845   1.184  12.747
 1351SOL    HW2 4440   1.762   1.319  12.784
 1352SOL     OW 4441   1.064   1.347  12.512
 1352SOL    HW1 4442   0.984   1.324  12.567
 1352SOL    HW2 4443   1.147   1.321  12.561
 1353SOL     OW 4444   1.592   1.629  12.797
 1353SOL    HW1 4445   1.619   1.663  12.707
 1353SOL    HW2 4446   1.671   1.591  12.843
 1354SOL     OW 4447   1.111   1.195  12.272
 1354SOL    HW1 4448   1.071   1.239  12.353
 1354SOL    HW2 4449   1.070   1.232  12.189
 1355SOL     OW 4450   1.638   1.099  12.251
 1355SOL    HW1 4451   1.643   1.180  12.310
 1355SOL    HW2 4452   1.552   1.101  12.200
 1356SOL     OW 4453   0.915   0.089  12.574
 1356SOL    HW1 4454   0.940   0.069  12.479
 1356SOL    HW2 4455   0.987   0.145  12.616
 1357SOL     OW 4456   0.980   1.116  12.891
 1357SOL    HW1 4457   0.881   1.122  12.901
 1357SOL    HW2 4458   1.003   1.036  12.835
 1358SOL     OW 4459   0.705   1.050  11.540
 1358SOL    HW1 4460   0.691   1.057  11.639
 1358SOL    HW2 4461   0.789   0.999  11.522
 1359SOL     OW 4462   0.410   0.813  12.423
 1359SOL    HW1 4463   0.496   0.825  12.473
 1359SOL    HW2 4464   0.368   0.726  12.450
 1360SOL     OW 4465   1.274   0.386  12.434
 1360SOL    HW1 4466   1.295   0.460  12.498
 1360SOL    HW2 4467   1.185   0.403  12.391
 1361SOL     OW 4468   0.064   1.564  12.503
 1361SOL    HW1 4469   0.018   1.646  12.469
 1361SOL    HW2 4470   0.162   1.583  12.512
 1362SOL     OW 4471   0.367   1.100  11.673
 1362SOL    HW1 4472   0.360   1.183  11.617
 1362SOL    HW2 4473   0.371   1.020  11.613
 1363SOL     OW 4474   0.566   0.537  12.037
 1363SOL    HW1 4475   0.578   0.603  11.963
 1363SOL    HW2 4476   0.612   0.571  12.120
 1364SOL     OW 4477   1.252   1.348  11.560
 1364SOL    HW1 4478   1.302   1.425  11.600
 1364SOL    HW2 4479   1.157   1.350  11.592
 1365SOL     OW 4480   1.272   1.445  12.314
 1365SOL    HW1 4481   1.319   1.458  12.401
 1365SOL    HW2 4482   1.206   1.371  12.323
 1366SOL     OW 4483   1.582   0.639  11.644
 1366SOL    HW1 4484   1.551   0.700  11.717
 1366SOL    HW2 4485   1.632   0.691  11.575
 1367SOL     OW 4486   0.354   1.510  12.501
 1367SOL    HW1 4487   0.333   1.466  12.414
 1367SOL    HW2 4488   0.451   1.536  12.504
 1368SOL     OW 4489   0.402   0.751  12.770
 1368SOL    HW1 4490   0.470   0.806  12.723
 1368SOL    HW2 4491   0.442   0.663  12.797
 1369SOL     OW 4492   1.587   0.779  12.842
 1369SOL    HW1 4493   1.495   0.817  12.837
 1369SOL    HW2 4494   1.647   0.826  12.777
 1370SOL     OW 4495   1.013   0.105  12.942
 1370SOL    HW1 4496   1.019   0.190  12.890
 1370SOL    HW2 4497   1.045   0.029  12.885
 1371SOL     OW 4498   0.504   0.050  12.912
 1371SOL    HW1 4499   0.462  -0.007  12.842
 1371SOL    HW2 4500   0.438   0.119  12.944
 1372SOL     OW 4501   0.573   0.870  12.201
 1372SOL    HW1 4502   0.617   0.959  12.192
 1372SOL    HW2 4503   0.510   0.870  12.278
 1373SOL     OW 4504   1.360   0.862  12.217
 1373SOL    HW1 4505   1.285   0.862  12.151
 1373SOL    HW2 4506   1.397   0.770  12.226
 1374SOL     OW 4507   1.209   0.525  11.447
 1374SOL    HW1 4508   1.222   0.441  11.501
 1374SOL    HW2 4509   1.180   0.599  11.507
 1375SOL     OW 4510   0.307   0.213  12.403
 1375SOL    HW1 4511   0.284   0.250  12.493
 1375SOL    HW2 4512   0.277   0.118  12.397
 1376SOL     OW 4513   0.037   1.310  12.454
 1376SOL    HW1 4514   0.090   1.261  12.522
 1376SOL    HW2 4515   0.059   1.408  12.459
 1377SOL     OW 4516   0.732   0.634  12.236
 1377SOL    HW1 4517   0.791   0.608  12.160
 1377SOL    HW2 4518   0.704   0.730  12.225
 1378SOL     OW 4519   1.728   0.935  13.026
 1378SOL    HW1 4520   1.682   0.928  12.937
 1378SOL    HW2 4521   1.666   0.979  13.092
 1379SOL     OW 4522   0.307   0.063  11.790
 1379SOL    HW1 4523   0.296   0.157  11.823
 1379SOL    HW2 4524   0.302   0.000  11.867
 1380SOL     OW 4525   1.622   0.367  11.546
 1380SOL    HW1 4526   1.624   0.291  11.610
 1380SOL    HW2 4527   1.574   0.444  11.586
 1381SOL     OW 4528   1.023   0.766  12.138
 1381SOL    HW1 4529   1.038   0.787  12.234
 1381SOL    HW2 4530   0.993   0.671  12.129
 1382SOL     OW 4531   0.980   1.573  12.872
 1382SOL    HW1 4532   0.960   1.617  12.784
 1382SOL    HW2 4533   1.019   1.482  12.856
 1383SOL     OW 4534   1.859   1.518  12.777
 1383SOL    HW1 4535   1.873   1.545  12.682
 1383SOL    HW2 4536   1.942   1.540  12.830
 1384SOL     OW 4537   0.350   0.898  12.976
 1384SOL    HW1 4538   0.426   0.942  13.024
 1384SOL    HW2 4539   0.385   0.851  12.894
 1385SOL     OW 4540   1.540   0.274  11.297
 1385SOL    HW1 4541   1.479   0.199  11.320
 1385SOL    HW2 4542   1.562   0.326  11.380
 1386SOL     OW 4543   1.303   0.838  11.214
 1386SOL    HW1 4544   1.337   0.745  11.229
 1386SOL    HW2 4545   1.321   0.865  11.119
 1387SOL     OW 4546   1.068   1.333  12.021
 1387SOL    HW1 4547   1.075   1.249  11.966
 1387SOL    HW2 4548   1.130   1.402  11.985
 1388SOL     OW 4549   0.319   0.810  12.121
 1388SOL    HW1 4550   0.412   0.846  12.126
 1388SOL    HW2 4551   0.313   0.725  12.173
 1389SOL     OW 4552   0.339   0.509  12.178
 1389SOL    HW1 4553   0.287   0.426  12.161
 1389SOL    HW2 4554   0.416   0.514  12.114
 1390SOL     OW 4555   1.138   0.380  12.850
 1390SOL    HW1 4556   1.093   0.443  12.914
 1390SOL    HW2 4557   1.231   0.411  12.833
 1391SOL     OW 4558   1.160   0.207  12.649
 1391SOL    HW1 4559   1.160   0.271  12.726
 1391SOL    HW2 4560   1.188   0.255  12.566
 1392SOL     OW 4561   0.008   1.326  11.372
 1392SOL    HW1 4562  -0.085   1.347  11.341
 1392SOL    HW2 4563   0.018   1.227  11.385
 1393SOL     OW 4564   0.088   1.801  12.099
 1393SOL    HW1 4565   0.046   1.715  12.072
 1393SOL    HW2 4566   0.182   1.804  12.065
 1394SOL     OW 4567   0.504   1.568  12.082
 1394SOL    HW1 4568   0.570   1.642  12.091
 1394SOL    HW2 4569   0.548   1.489  12.040
 1395SOL     OW 4570   1.002   0.796  12.410
 1395SOL    HW1 4571   1.043   0.764  12.496
 1395SOL    HW2 4572   0.906   0.769  12.407
 1396SOL     OW 4573   0.040   0.544  12.286
 1396SOL    HW1 4574   0.125   0.511  12.245
 1396SOL    HW2 4575   0.053   0.559  12.384
 1397SOL     OW 4576   0.189   0.520  12.894
 1397SOL    HW1 4577   0.248   0.480  12.824
 1397SOL    HW2 4578   0.131   0.591  12.853
 1398SOL     OW 4579   1.369   0.950  12.832
 1398SOL    HW1 4580   1.408   1.039  12.852
 1398SOL    HW2 4581   1.379   0.930  12.735
 1399SOL     OW 4582   0.815   0.572  11.497
 1399SOL    HW1 4583   0.822   0.483  11.451
 1399SOL    HW2 4584   0.721   0.606  11.489
 1400SOL     OW 4585   1.657   0.604  12.378
 1400SOL    HW1 4586   1.619   0.535  12.440
 1400SOL    HW2 4587   1.739   0.568  12.334
 1401SOL     OW 4588   0.252   1.564  12.916
 1401SOL    HW1 4589   0.222   1.621  12.992
 1401SOL    HW2 4590   0.245   1.467  12.942
 1402SOL     OW 4591   0.671   0.464  12.441
 1402SOL    HW1 4592   0.637   0.375  12.411
 1402SOL    HW2 4593   0.697   0.518  12.361
 1403SOL     OW 4594   0.930   1.678  12.637
 1403SOL    HW1 4595   0.906   1.660  12.542
 1403SOL    HW2 4596   0.960   1.772  12.647
 1404SOL     OW 4597   0.473   0.500  11.363
 1404SOL    HW1 4598   0.534   0.580  11.367
 1404SOL    HW2 4599   0.378   0.531  11.370
 1405SOL     OW 4600   0.159   1.137  12.638
 1405SOL    HW1 4601   0.181   1.076  12.714
 1405SOL    HW2 4602   0.169   1.088  12.552
 1406SOL     OW 4603   1.347   1.059  12.406
 1406SOL    HW1 4604   1.371   0.996  12.332
 1406SOL    HW2 4605   1.257   1.099  12.388
 1407SOL     OW 4606   1.302   0.855  11.481
 1407SOL    HW1 4607   1.216   0.824  11.523
 1407SOL    HW2 4608   1.298   0.841  11.382
 1408SOL     OW 4609   1.759   1.747  12.326
 1408SOL    HW1 4610   1.820   1.777  12.253
 1408SOL    HW2 4611   1.721   1.658  12.304
 1409SOL     OW 4612   1.252   1.731  12.300
 1409SOL    HW1 4613   1.336   1.736  12.246
 1409SOL    HW2 4614   1.229   1.635  12.318
 1410SOL     OW 4615   0.083   1.258  12.194
 1410SOL    HW1 4616   0.078   1.257  12.294
 1410SOL    HW2 4617   0.000   1.217  12.156
 1411SOL     OW 4618   0.688   1.662  12.888
 1411SOL    HW1 4619   0.632   1.743  12.897
 1411SOL    HW2 4620   0.740   1.666  12.802
 1412SOL     OW 4621   1.726   0.135  11.695
 1412SOL    HW1 4622   1.799   0.118  11.628
 1412SOL    HW2 4623   1.695   0.048  11.733
 1413SOL     OW 4624   1.388   1.573  11.649
 1413SOL    HW1 4625   1.455   1.585  11.575
 1413SOL    HW2 4626   1.348   1.662  11.672
 1414SOL     OW 4627   0.130   1.794  13.023
 1414SOL    HW1 4628   0.089   1.720  13.076
 1414SOL    HW2 4629   0.194   1.845  13.081
 1415SOL     OW 4630   1.280   0.927  11.844
 1415SOL    HW1 4631   1.340   0.846  11.846
 1415SOL    HW2 4632   1.320   0.996  11.784
 1416SOL     OW 4633   0.830   1.273  12.594
 1416SOL    HW1 4634   0.825   1.306  12.689
 1416SOL    HW2 4635   0.744   1.292  12.548
 1417SOL     OW 4636   0.672   1.616  11.326
 1417SOL    HW1 4637   0.681   1.626  11.227
 1417SOL    HW2 4638   0.632   1.527  11.347
 1418SOL     OW 4639   1.650   1.720  12.566
 1418SOL    HW1 4640   1.703   1.730  12.482
 1418SOL    HW2 4641   1.623   1.810  12.600
 1419SOL     OW 4642   1.841   0.175  12.135
 1419SOL    HW1 4643   1.880   0.090  12.099
 1419SOL    HW2 4644   1.743   0.177  12.116
 1420SOL     OW 4645   0.263   0.326  11.892
 1420SOL    HW1 4646   0.184   0.377  11.858
 1420SOL    HW2 4647   0.254   0.311  11.990
 1421SOL     OW 4648   1.194   1.612  11.203
 1421SOL    HW1 4649   1.200   1.519  11.240
 1421SOL    HW2 4650   1.135   1.612  11.123
 1422SOL     OW 4651   0.822   1.002  12.544
 1422SOL    HW1 4652   0.862   1.001  12.452
 1422SOL    HW2 4653   0.832   1.094  12.584
 1423SOL     OW 4654   0.916   0.910  11.463
 1423SOL    HW1 4655   0.979   0.948  11.395
 1423SOL    HW2 4656   0.956   0.827  11.502
 1424SOL     OW 4657   1.504   1.607  11.216
 1424SOL    HW1 4658   1.412   1.644  11.223
 1424SOL    HW2 4659   1.542   1.627  11.126
 1425SOL     OW 4660   0.372   1.288  12.662
 1425SOL    HW1 4661   0.359   1.381  12.628
 1425SOL    HW2 4662   0.288   1.236  12.649
 1426SOL     OW 4663   1.614   1.292  12.461
 1426SOL    HW1 4664   1.674   1.295  12.541
 1426SOL    HW2 4665   1.539   1.356  12.474
 1427SOL     OW 4666   1.039   1.098  11.868
 1427SOL    HW1 4667   0.969   1.051  11.922
 1427SOL    HW2 4668   1.098   1.030  11.825
 1428SOL     OW 4669   1.014   0.236  12.143
 1428SOL    HW1 4670   1.006   0.200  12.050
 1428SOL    HW2 4671   1.012   0.160  12.208
 1429SOL     OW 4672   0.590   1.487  11.663
 1429SOL    HW1 4673   0.632   1.429  11.593
 1429SOL    HW2 4674   0.546   1.566  11.619
 1430SOL     OW 4675   1.709   0.385  12.553
 1430SOL    HW1 4676   1.782   0.454  12.557
 1430SOL    HW2 4677   1.737   0.310  12.494
 1431SOL     OW 4678   0.255   1.348  11.462
 1431SOL    HW1 4679   0.159   1.349  11.435
 1431SOL    HW2 4680   0.267   1.401  11.546
 1432SOL     OW 4681   0.105   1.013  12.898
 1432SOL    HW1 4682   0.028   0.980  12.952
 1432SOL    HW2 4683   0.190   0.983  12.940
 1433SOL     OW 4684   0.672   0.203  12.661
 1433SOL    HW1 4685   0.762   0.187  12.621
 1433SOL    HW2 4686   0.680   0.208  12.760
 1434SOL     OW 4687   0.075   0.345  11.205
 1434SOL    HW1 4688  -0.017   0.317  11.176
 1434SOL    HW2 4689   0.106   0.422  11.149
 1435SOL     OW 4690   1.440   0.856  12.570
 1435SOL    HW1 4691   1.383   0.908  12.507
 1435SOL    HW2 4692   1.536   0.868  12.546
 1436SOL     OW 4693   0.072   0.166  11.490
 1436SOL    HW1 4694   0.055   0.249  11.436
 1436SOL    HW2 4695   0.162   0.129  11.468
 1437SOL     OW 4696   1.183   1.335  11.291
 1437SOL    HW1 4697   1.084   1.324  11.293
 1437SOL    HW2 4698   1.217   1.350  11.384
 1438SOL     OW 4699   0.613   0.842  12.603
 1438SOL    HW1 4700   0.669   0.923  12.586
 1438SOL    HW2 4701   0.672   0.762  12.606
 1439SOL     OW 4702   1.493   1.767  12.131
 1439SOL    HW1 4703   1.526   1.831  12.062
 1439SOL    HW2 4704   1.559   1.761  12.206
 1440SOL     OW 4705   0.716   0.565  12.880
 1440SOL    HW1 4706   0.735   0.630  12.954
 1440SOL    HW2 4707   0.776   0.485  12.889
 1441SOL     OW 4708   1.450   1.220  12.805
 1441SOL    HW1 4709   1.441   1.210  12.904
 1441SOL    HW2 4710   1.546   1.213  12.779
 1442SOL     OW 4711   0.390   1.741  12.732
 1442SOL    HW1 4712   0.299   1.782  12.730
 1442SOL    HW2 4713   0.383   1.647  12.764
 1443SOL     OW 4714   1.674   0.883  12.426
 1443SOL    HW1 4715   1.647   0.794  12.389
 1443SOL    HW2 4716   1.675   0.951  12.353
 1444SOL     OW 4717   1.225   0.325  11.621
 1444SOL    HW1 4718   1.290   0.251  11.610
 1444SOL    HW2 4719   1.245   0.375  11.705
 1445SOL     OW 4720   0.594   0.745  11.824
 1445SOL    HW1 4721   0.644   0.830  11.805
 1445SOL    HW2 4722   0.506   0.747  11.776
 1446SOL     OW 4723   1.777   0.342  12.814
 1446SOL    HW1 4724   1.760   0.373  12.720
 1446SOL    HW2 4725   1.693   0.305  12.852
 1447SOL     OW 4726   1.730   0.934  12.689
 1447SOL    HW1 4727   1.768   1.025  12.704
 1447SOL    HW2 4728   1.722   0.917  12.590
 1448SOL     OW 4729   0.859   1.374  11.188
 1448SOL    HW1 4730   0.813   1.389  11.276
 1448SOL    HW2 4731   0.903   1.459  11.158
 1449SOL     OW 4732   0.661   1.790  12.125
 1449SOL    HW1 4733   0.615   1.878  12.112
 1449SOL    HW2 4734   0.760   1.802  12.118
 1450SOL     OW 4735   0.859   0.956  12.033
 1450SOL    HW1 4736   0.913   0.887  12.081
 1450SOL    HW2 4737   0.827   1.025  12.099
 1451SOL     OW 4738   1.083   0.984  11.259
 1451SOL    HW1 4739   1.060   1.037  11.177
 1451SOL    HW2 4740   1.164   0.928  11.240
 1452SOL     OW 4741   1.861   1.569  12.023
 1452SOL    HW1 4742   1.790   1.557  11.953
 1452SOL    HW2 4743   1.862   1.490  12.083
 1453SOL     OW 4744   0.221   1.314  13.016
 1453SOL    HW1 4745   0.156   1.241  12.995
 1453SOL    HW2 4746   0.225   1.328  13.114
 1454SOL     OW 4747   0.079   1.240  11.825
 1454SOL    HW1 4748   0.078   1.193  11.913
 1454SOL    HW2 4749   0.161   1.212  11.774
 1455SOL     OW 4750   0.672   1.391  12.796
 1455SOL    HW1 4751   0.594   1.341  12.834
 1455SOL    HW2 4752   0.669   1.486  12.827
 1456SOL     OW 4753   1.824   0.192  12.399
 1456SOL    HW1 4754   1.820   0.102  12.443
 1456SOL    HW2 4755   1.827   0.181  12.300
 1457SOL     OW 4756   0.428   0.424  11.692
 1457SOL    HW1 4757   0.458   0.352  11.630
 1457SOL    HW2 4758   0.389   0.384  11.775
 1458SOL     OW 4759   1.705   1.487  12.276
 1458SOL    HW1 4760   1.612   1.462  12.249
 1458SOL    HW2 4761   1.731   1.437  12.358
 1459SOL     OW 4762   0.317   0.547  12.452
 1459SOL    HW1 4763   0.355   0.488  12.524
 1459SOL    HW2 4764   0.357   0.521  12.364
 1460SOL     OW 4765   0.812   1.586  11.859
 1460SOL    HW1 4766   0.844   1.596  11.765
 1460SOL    HW2 4767   0.733   1.524  11.861
 1461SOL     OW 4768   1.424   0.214  12.284
 1461SOL    HW1 4769   1.476   0.149  12.339
 1461SOL    HW2 4770   1.375   0.277  12.345
 1462SOL     OW 4771   1.001   0.034  12.326
 1462SOL    HW1 4772   0.938  -0.038  12.295
 1462SOL    HW2 4773   1.094  -0.002  12.326
 1463SOL     OW 4774   0.770   1.330  11.473
 1463SOL    HW1 4775   0.724   1.243  11.490
 1463SOL    HW2 4776   0.861   1.327  11.514
 1464SOL     OW 4777   0.618   1.567  12.456
 1464SOL    HW1 4778   0.613   1.649  12.513
 1464SOL    HW2 4779   0.707   1.564  12.411
 1465SOL     OW 4780   1.352   0.052  11.340
 1465SOL    HW1 4781   1.387   0.011  11.256
 1465SOL    HW2 4782   1.262   0.014  11.360
 1466SOL     OW 4783   1.300   0.453  11.863
 1466SOL    HW1 4784   1.241   0.533  11.867
 1466SOL    HW2 4785   1.315   0.418  11.956
 1467SOL     OW 4786   1.593   0.221  12.054
 1467SOL    HW1 4787   1.509   0.220  12.108
 1467SOL    HW2 4788   1.595   0.304  11.998
 1468SOL     OW 4789   0.039   1.077  11.472
 1468SOL    HW1 4790   0.138   1.066  11.463
 1468SOL    HW2 4791  -0.001   0.991  11.504
 1469SOL     OW 4792   0.875   1.646  11.509
 1469SOL    HW1 4793   0.798   1.611  11.455
 1469SOL    HW2 4794   0.843   1.717  11.571
 1470SOL     OW 4795   0.230   0.628  13.147
 1470SOL    HW1 4796   0.137   0.626  13.184
 1470SOL    HW2 4797   0.231   0.589  13.055
 1471SOL     OW 4798   0.225   0.275  14.030
 1471SOL    HW1 4799   0.260   0.258  14.122
 1471SOL    HW2 4800   0.137   0.230  14.018
 1472SOL     OW 4801   0.019   0.368  13.681
 1472SOL    HW1 4802  -0.063   0.411  13.720
 1472SOL    HW2 4803  -0.009   0.295  13.618
 1473SOL     OW 4804   1.555   1.511  13.737
 1473SOL    HW1 4805   1.498   1.495  13.818
 1473SOL    HW2 4806   1.496   1.521  13.657
 1474SOL     OW 4807   1.135   0.703  13.751
 1474SOL    HW1 4808   1.192   0.781  13.726
 1474SOL    HW2 4809   1.075   0.729  13.827
 1475SOL     OW 4810   1.755   0.607  13.265
 1475SOL    HW1 4811   1.743   0.594  13.166
 1475SOL    HW2 4812   1.725   0.526  13.314
 1476SOL     OW 4813   0.685   1.012  13.699
 1476SOL    HW1 4814   0.754   0.996  13.769
 1476SOL    HW2 4815   0.612   1.069  13.737
 1477SOL     OW 4816   1.603   0.447  13.771
 1477SOL    HW1 4817   1.529   0.493  13.721
 1477SOL    HW2 4818   1.654   0.515  13.824
 1478SOL     OW 4819   0.231   1.713  13.517
 1478SOL    HW1 4820   0.265   1.790  13.571
 1478SOL    HW2 4821   0.275   1.713  13.427
 1479SOL     OW 4822   0.230   1.434  13.572
 1479SOL    HW1 4823   0.204   1.530  13.572
 1479SOL    HW2 4824   0.159   1.380  13.617
 1480SOL     OW 4825   0.240   1.091  13.920
 1480SOL    HW1 4826   0.254   1.007  13.972
 1480SOL    HW2 4827   0.185   1.155  13.975
 1481SOL     OW 4828   0.606   0.964  13.157
 1481SOL    HW1 4829   0.613   1.048  13.103
 1481SOL    HW2 4830   0.652   0.977  13.245
 1482SOL     OW 4831   0.122   0.643  13.597
 1482SOL    HW1 4832   0.077   0.555  13.614
 1482SOL    HW2 4833   0.121   0.697  13.681
 1483SOL     OW 4834   0.027   1.596  13.151
 1483SOL    HW1 4835   0.008   1.500  13.172
 1483SOL    HW2 4836  -0.006   1.654  13.226
 1484SOL     OW 4837   1.689   0.922  13.646
 1484SOL    HW1 4838   1.784   0.893  13.654
 1484SOL    HW2 4839   1.681   0.987  13.571
 1485SOL     OW 4840   1.641   1.108  13.466
 1485SOL    HW1 4841   1.727   1.110  13.414
 1485SOL    HW2 4842   1.655   1.155  13.554
 1486SOL     OW 4843   0.613   1.365  13.760
 1486SOL    HW1 4844   0.564   1.278  13.769
 1486SOL    HW2 4845   0.590   1.408  13.673
 1487SOL     OW 4846   0.809   0.004  13.536
 1487SOL    HW1 4847   0.849   0.095  13.527
 1487SOL    HW2 4848   0.709   0.012  13.542
 1488SOL     OW 4849   1.525   0.999  13.224
 1488SOL    HW1 4850   1.462   0.923  13.237
 1488SOL    HW2 4851   1.573   1.017  13.310
 1489SOL     OW 4852   1.667   1.714  13.606
 1489SOL    HW1 4853   1.626   1.691  13.518
 1489SOL    HW2 4854   1.649   1.640  13.671
 1490SOL     OW 4855   0.598   0.729  13.304
 1490SOL    HW1 4856   0.622   0.798  13.236
 1490SOL    HW2 4857   0.520   0.762  13.358
 1491SOL     OW 4858   1.281   0.345  13.978
 1491SOL    HW1 4859   1.195   0.295  13.965
 1491SOL    HW2 4860   1.343   0.291  14.034
 1492SOL     OW 4861   1.576   1.662  13.341
 1492SOL    HW1 4862   1.665   1.708  13.344
 1492SOL    HW2 4863   1.555   1.638  13.246
 1493SOL     OW 4864   1.041   0.701  13.463
 1493SOL    HW1 4865   1.067   0.697  13.559
 1493SOL    HW2 4866   0.956   0.650  13.449
 1494SOL     OW 4867   0.076   0.811  13.823
 1494SOL    HW1 4868   0.175   0.799  13.832
 1494SOL    HW2 4869   0.052   0.906  13.844
 1495SOL     OW 4870   0.865   0.348  13.229
 1495SOL    HW1 4871   0.924   0.411  13.180
 1495SOL    HW2 4872   0.884   0.254  13.200
 1496SOL     OW 4873   1.362   1.144  13.579
 1496SOL    HW1 4874   1.445   1.115  13.531
 1496SOL    HW2 4875   1.313   1.211  13.523
 1497SOL     OW 4876   1.008   1.456  13.511
 1497SOL    HW1 4877   0.962   1.528  13.459
 1497SOL    HW2 4878   1.004   1.476  13.609
 1498SOL     OW 4879   0.351   1.801  13.887
 1498SOL    HW1 4880   0.401   1.715  13.893
 1498SOL    HW2 4881   0.416   1.878  13.884
 1499SOL     OW 4882   1.795   1.066  13.907
 1499SOL    HW1 4883   1.733   1.051  13.831
 1499SOL    HW2 4884   1.743   1.077  13.992
 1500SOL     OW 4885   0.321   0.943  13.276
 1500SOL    HW1 4886   0.403   0.982  13.234
 1500SOL    HW2 4887   0.294   0.861  13.227
 1501SOL     OW 4888   1.458   0.735  13.762
 1501SOL    HW1 4889   1.453   0.670  13.837
 1501SOL    HW2 4890   1.538   0.794  13.775
 1502SOL     OW 4891   1.111   1.776  13.271
 1502SOL    HW1 4892   1.051   1.714  13.321
 1502SOL    HW2 4893   1.142   1.732  13.186
 1503SOL     OW 4894   1.632   1.377  13.115
 1503SOL    HW1 4895   1.600   1.471  13.105
 1503SOL    HW2 4896   1.556   1.314  13.103
 1504SOL     OW 4897   0.464   1.743  13.357
 1504SOL    HW1 4898   0.497   1.782  13.443
 1504SOL    HW2 4899   0.540   1.736  13.292
 1505SOL     OW 4900   1.400   0.107  13.460
 1505SOL    HW1 4901   1.376   0.070  13.370
 1505SOL    HW2 4902   1.499   0.123  13.464
 1506SOL     OW 4903   0.940   1.698  13.938
 1506SOL    HW1 4904   1.020   1.641  13.959
 1506SOL    HW2 4905   0.891   1.658  13.861
 1507SOL     OW 4906   0.382   0.700  13.514
 1507SOL    HW1 4907   0.427   0.610  13.511
 1507SOL    HW2 4908   0.288   0.689  13.547
 1508SOL     OW 4909   0.614   0.122  13.151
 1508SOL    HW1 4910   0.712   0.100  13.158
 1508SOL    HW2 4911   0.583   0.105  13.058
 1509SOL     OW 4912   0.539   0.064  13.546
 1509SOL    HW1 4913   0.458   0.065  13.604
 1509SOL    HW2 4914   0.542   0.147  13.491
 1510SOL     OW 4915   1.434   1.188  13.075
 1510SOL    HW1 4916   1.466   1.112  13.132
 1510SOL    HW2 4917   1.342   1.215  13.105
 1511SOL     OW 4918   0.297   0.035  13.205
 1511SOL    HW1 4919   0.346   0.119  13.184
 1511SOL    HW2 4920   0.359  -0.030  13.250
 1512SOL     OW 4921   0.935   0.236  13.514
 1512SOL    HW1 4922   0.887   0.277  13.436
 1512SOL    HW2 4923   1.034   0.234  13.495
 1513SOL     OW 4924   0.459   1.152  13.775
 1513SOL    HW1 4925   0.388   1.125  13.840
 1513SOL    HW2 4926   0.433   1.124  13.682
 1514SOL     OW 4927   1.271   1.797  13.625
 1514SOL    HW1 4928   1.315   1.861  13.561
 1514SOL    HW2 4929   1.221   1.849  13.695
 1515SOL     OW 4930   1.032   0.549  13.050
 1515SOL    HW1 4931   0.991   0.631  13.011
 1515SOL    HW2 4932   1.096   0.575  13.123
 1516SOL     OW 4933   0.866   0.454  13.676
 1516SOL    HW1 4934   0.834   0.526  13.614
 1516SOL    HW2 4935   0.890   0.373  13.623
 1517SOL     OW 4936   1.017   0.039  13.787
 1517SOL    HW1 4937   0.945   0.044  13.718
 1517SOL    HW2 4938   0.993  -0.030  13.856
 1518SOL     OW 4939   1.857   0.833  13.411
 1518SOL    HW1 4940   1.899   0.769  13.475
 1518SOL    HW2 4941   1.819   0.782  13.333
 1519SOL     OW 4942   0.488   1.385  13.208
 1519SOL    HW1 4943   0.401   1.370  13.255
 1519SOL    HW2 4944   0.471   1.411  13.113
 1520SOL     OW 4945   1.664   1.280  13.691
 1520SOL    HW1 4946   1.763   1.288  13.705
 1520SOL    HW2 4947   1.619   1.364  13.722
 1521SOL     OW 4948   1.390   0.575  13.112
 1521SOL    HW1 4949   1.336   0.554  13.193
 1521SOL    HW2 4950   1.481   0.534  13.121
 1522SOL     OW 4951   0.527   0.256  13.362
 1522SOL    HW1 4952   0.554   0.197  13.287
 1522SOL    HW2 4953   0.527   0.351  13.331
 1523SOL     OW 4954   0.705   1.050  13.402
 1523SOL    HW1 4955   0.691   1.057  13.501
 1523SOL    HW2 4956   0.789   0.999  13.384
 1524SOL     OW 4957   0.367   1.100  13.535
 1524SOL    HW1 4958   0.360   1.183  13.479
 1524SOL    HW2 4959   0.371   1.020  13.475
 1525SOL     OW 4960   0.566   0.537  13.899
 1525SOL    HW1 4961   0.578   0.603  13.825
 1525SOL    HW2 4962   0.612   0.571  13.982
 1526SOL     OW 4963   1.252   1.348  13.422
 1526SOL    HW1 4964   1.302   1.425  13.462
 1526SOL    HW2 4965   1.157   1.350  13.454
 1527SOL     OW 4966   1.582   0.639  13.506
 1527SOL    HW1 4967   1.551   0.700  13.579
 1527SOL    HW2 4968   1.632   0.691  13.437
 1528SOL     OW 4969   1.209   0.525  13.309
 1528SOL    HW1 4970   1.222   0.441  13.363
 1528SOL    HW2 4971   1.180   0.599  13.369
 1529SOL     OW 4972   0.307   0.063  13.652
 1529SOL    HW1 4973   0.296   0.157  13.685
 1529SOL    HW2 4974   0.302   0.000  13.729
 1530SOL     OW 4975   1.622   0.367  13.408
 1530SOL    HW1 4976   1.624   0.291  13.472
 1530SOL    HW2 4977   1.574   0.444  13.448
 1531SOL     OW 4978   1.540   0.274  13.159
 1531SOL    HW1 4979   1.479   0.199  13.182
 1531SOL    HW2 4980   1.562   0.326  13.242
 1532SOL     OW 4981   1.303   0.838  13.076
 1532SOL    HW1 4982   1.337   0.745  13.091
 1532SOL    HW2 4983   1.321   0.865  12.981
 1533SOL     OW 4984   0.008   1.326  13.234
 1533SOL    HW1 4985  -0.085   1.347  13.203
 1533SOL    HW2 4986   0.018   1.227  13.247
 1534SOL     OW 4987   0.815   0.572  13.359
 1534SOL    HW1 4988   0.822   0.483  13.313
 1534SOL    HW2 4989   0.721   0.606  13.351
 1535SOL     OW 4990   0.473   0.500  13.225
 1535SOL    HW1 4991   0.534   0.580  13.229
 1535SOL    HW2 4992   0.378   0.531  13.232
 1536SOL     OW 4993   1.302   0.855  13.343
 1536SOL    HW1 4994   1.216   0.824  13.385
 1536SOL    HW2 4995   1.298   0.841  13.244
 1537SOL     OW 4996   1.726   0.135  13.557
 1537SOL    HW1 4997   1.799   0.118  13.490
 1537SOL    HW2 4998   1.695   0.048  13.595
 1538SOL     OW 4999   1.388   1.573  13.511
 1538SOL    HW1 5000   1.455   1.585  13.437
 1538SOL    HW2 5001   1.348   1.662  13.534
 1539SOL     OW 5002   1.280   0.927  13.706
 1539SOL    HW1 5003   1.340   0.846  13.708
 1539SOL    HW2 5004   1.320   0.996  13.646
 1540SOL     OW 5005   0.672   1.616  13.188
 1540SOL    HW1 5006   0.681   1.626  13.089
 1540SOL    HW2 5007   0.632   1.527  13.209
 1541SOL     OW 5008   1.841   0.175  13.997
 1541SOL    HW1 5009   1.880   0.090  13.961
 1541SOL    HW2 5010   1.743   0.177  13.978
 1542SOL     OW 5011   0.263   0.326  13.754
 1542SOL    HW1 5012   0.184   0.377  13.720
 1542SOL    HW2 5013   0.254   0.311  13.852
 1543SOL     OW 5014   1.194   1.612  13.065
 1543SOL    HW1 5015   1.200   1.519  13.102
 1543SOL    HW2 5016   1.135   1.612  12.985
 1544SOL     OW 5017   0.916   0.910  13.325
 1544SOL    HW1 5018   0.979   0.948  13.257
 1544SOL    HW2 5019   0.956   0.827  13.364
 1545SOL     OW 5020   1.504   1.607  13.078
 1545SOL    HW1 5021   1.412   1.644  13.085
 1545SOL    HW2 5022   1.542   1.627  12.988
 1546SOL     OW 5023   1.039   1.098  13.730
 1546SOL    HW1 5024   0.969   1.051  13.784
 1546SOL    HW2 5025   1.098   1.030  13.687
 1547SOL     OW 5026   0.590   1.487  13.525
 1547SOL    HW1 5027   0.632   1.429  13.455
 1547SOL    HW2 5028   0.546   1.566  13.481
 1548SOL     OW 5029   0.255   1.348  13.324
 1548SOL    HW1 5030   0.159   1.349  13.297
 1548SOL    HW2 5031   0.267   1.401  13.408
 1549SOL     OW 5032   0.075   0.345  13.067
 1549SOL    HW1 5033  -0.017   0.317  13.038
 1549SOL    HW2 5034   0.106   0.422  13.011
 1550SOL     OW 5035   0.072   0.166  13.352
 1550SOL    HW1 5036   0.055   0.249  13.298
 1550SOL    HW2 5037   0.162   0.129  13.330
 1551SOL     OW 5038   1.183   1.335  13.153
 1551SOL    HW1 5039   1.084   1.324  13.155
 1551SOL    HW2 5040   1.217   1.350  13.246
 1552SOL     OW 5041   1.225   0.325  13.483
 1552SOL    HW1 5042   1.290   0.251  13.472
 1552SOL    HW2 5043   1.245   0.375  13.567
 1553SOL     OW 5044   0.594   0.745  13.686
 1553SOL    HW1 5045   0.644   0.830  13.667
 1553SOL    HW2 5046   0.506   0.747  13.638
 1554SOL     OW 5047   0.859   1.374  13.050
 1554SOL    HW1 5048   0.813   1.389  13.138
 1554SOL    HW2 5049   0.903   1.459  13.020
 1555SOL     OW 5050   0.661   1.790  13.987
 1555SOL    HW1 5051   0.615   1.878  13.974
 1555SOL    HW2 5052   0.760   1.802  13.980
 1556SOL     OW 5053   0.859   0.956  13.895
 1556SOL    HW1 5054   0.913   0.887  13.943
 1556SOL    HW2 5055   0.827   1.025  13.961
 1557SOL     OW 5056   1.083   0.984  13.121
 1557SOL    HW1 5057   1.060   1.037  13.039
 1557SOL    HW2 5058   1.164   0.928  13.102
 1558SOL     OW 5059   0.079   1.240  13.687
 1558SOL    HW1 5060   0.078   1.193  13.775
 1558SOL    HW2 5061   0.161   1.212  13.636
 1559SOL     OW 5062   0.428   0.424  13.554
 1559SOL    HW1 5063   0.458   0.352  13.492
 1559SOL    HW2 5064   0.389   0.384  13.637
 1560SOL     OW 5065   1.705   1.487  14.138
 1560SOL    HW1 5066   1.612   1.462  14.111
 1560SOL    HW2 5067   1.731   1.437  14.220
 1561SOL     OW 5068   0.812   1.586  13.721
 1561SOL    HW1 5069   0.844   1.596  13.627
 1561SOL    HW2 5070   0.733   1.524  13.723
 1562SOL     OW 5071   0.770   1.330  13.335
 1562SOL    HW1 5072   0.724   1.243  13.352
 1562SOL    HW2 5073   0.861   1.327  13.376
 1563SOL     OW 5074   1.352   0.052  13.202
 1563SOL    HW1 5075   1.387   0.011  13.118
 1563SOL    HW2 5076   1.262   0.014  13.222
 1564SOL     OW 5077   1.300   0.453  13.725
 1564SOL    HW1 5078   1.241   0.533  13.729
 1564SOL    HW2 5079   1.315   0.418  13.818
 1565SOL     OW 5080   0.039   1.077  13.334
 1565SOL    HW1 5081   0.138   1.066  13.325
 1565SOL    HW2 5082  -0.001   0.991  13.366
 1566SOL     OW 5083   0.875   1.646  13.371
 1566SOL    HW1 5084   0.798   1.611  13.317
 1566SOL    HW2 5085   0.843   1.717  13.433
 1567SOL     OW 5086   0.230   2.490   0.113
 1567SOL    HW1 5087   0.137   2.488   0.150
 1567SOL    HW2 5088   0.231   2.451   0.021
 1568SOL     OW 5089   0.225   2.137   0.996
 1568SOL    HW1 5090   0.260   2.120   1.088
 1568SOL    HW2 5091   0.137   2.092   0.984
 1569SOL     OW 5092   0.019   2.230   0.647
 1569SOL    HW1 5093  -0.063   2.273   0.686
 1569SOL    HW2 5094  -0.009   2.157   0.584
 1570SOL     OW 5095   0.569   3.137   1.165
 1570SOL    HW1 5096   0.476   3.130   1.128
 1570SOL    HW2 5097   0.580   3.226   1.209
 1571SOL     OW 5098   1.555   3.373   0.703
 1571SOL    HW1 5099   1.498   3.357   0.784
 1571SOL    HW2 5100   1.496   3.383   0.623
 1572SOL     OW 5101   1.135   2.565   0.717
 1572SOL    HW1 5102   1.192   2.643   0.692
 1572SOL    HW2 5103   1.075   2.591   0.793
 1573SOL     OW 5104   1.755   2.469   0.231
 1573SOL    HW1 5105   1.743   2.456   0.132
 1573SOL    HW2 5106   1.725   2.388   0.280
 1574SOL     OW 5107   0.768   3.006   1.023
 1574SOL    HW1 5108   0.690   3.023   1.083
 1574SOL    HW2 5109   0.802   3.093   0.987
 1575SOL     OW 5110   0.850   2.660   1.823
 1575SOL    HW1 5111   0.846   2.736   1.888
 1575SOL    HW2 5112   0.872   2.696   1.732
 1576SOL     OW 5113   0.685   2.874   0.665
 1576SOL    HW1 5114   0.754   2.858   0.735
 1576SOL    HW2 5115   0.612   2.931   0.703
 1577SOL     OW 5116   0.686   3.023   1.803
 1577SOL    HW1 5117   0.746   3.102   1.817
 1577SOL    HW2 5118   0.600   3.054   1.762
 1578SOL     OW 5119   0.335   3.297   1.061
 1578SOL    HW1 5120   0.257   3.266   1.008
 1578SOL    HW2 5121   0.393   3.355   1.004
 1579SOL     OW 5122   1.460   3.367   1.339
 1579SOL    HW1 5123   1.484   3.461   1.365
 1579SOL    HW2 5124   1.444   3.313   1.421
 1580SOL     OW 5125   0.438   2.254   1.499
 1580SOL    HW1 5126   0.520   2.198   1.508
 1580SOL    HW2 5127   0.357   2.196   1.503
 1581SOL     OW 5128   1.603   2.309   0.737
 1581SOL    HW1 5129   1.529   2.355   0.687
 1581SOL    HW2 5130   1.654   2.377   0.790
 1582SOL     OW 5131   0.231   3.575   0.483
 1582SOL    HW1 5132   0.265   3.652   0.537
 1582SOL    HW2 5133   0.275   3.575   0.393
 1583SOL     OW 5134   1.127   3.203   1.690
 1583SOL    HW1 5135   1.174   3.203   1.778
 1583SOL    HW2 5136   1.079   3.116   1.679
 1584SOL     OW 5137   0.230   3.296   0.538
 1584SOL    HW1 5138   0.204   3.392   0.538
 1584SOL    HW2 5139   0.159   3.242   0.583
 1585SOL     OW 5140   0.240   2.953   0.886
 1585SOL    HW1 5141   0.254   2.869   0.938
 1585SOL    HW2 5142   0.185   3.017   0.941
 1586SOL     OW 5143   0.620   3.648   1.439
 1586SOL    HW1 5144   0.528   3.631   1.474
 1586SOL    HW2 5145   0.648   3.740   1.465
 1587SOL     OW 5146   0.606   2.826   0.123
 1587SOL    HW1 5147   0.613   2.910   0.069
 1587SOL    HW2 5148   0.652   2.839   0.211
 1588SOL     OW 5149   1.594   1.976   1.480
 1588SOL    HW1 5150   1.576   2.043   1.408
 1588SOL    HW2 5151   1.591   2.022   1.569
 1589SOL     OW 5152   0.122   2.505   0.563
 1589SOL    HW1 5153   0.077   2.417   0.580
 1589SOL    HW2 5154   0.121   2.559   0.647
 1590SOL     OW 5155   1.842   3.629   0.359
 1590SOL    HW1 5156   1.896   3.600   0.439
 1590SOL    HW2 5157   1.872   3.719   0.330
 1591SOL     OW 5158   0.027   3.458   0.117
 1591SOL    HW1 5159   0.008   3.362   0.138
 1591SOL    HW2 5160  -0.006   3.516   0.192
 1592SOL     OW 5161   1.689   2.784   0.612
 1592SOL    HW1 5162   1.784   2.755   0.620
 1592SOL    HW2 5163   1.681   2.849   0.537
 1593SOL     OW 5164   1.641   2.970   0.432
 1593SOL    HW1 5165   1.727   2.972   0.380
 1593SOL    HW2 5166   1.655   3.017   0.520
 1594SOL     OW 5167   0.113   2.599   1.597
 1594SOL    HW1 5168   0.201   2.586   1.642
 1594SOL    HW2 5169   0.100   2.696   1.575
 1595SOL     OW 5170   0.613   3.227   0.726
 1595SOL    HW1 5171   0.564   3.140   0.735
 1595SOL    HW2 5172   0.590   3.270   0.639
 1596SOL     OW 5173   1.293   3.090   1.423
 1596SOL    HW1 5174   1.330   3.017   1.365
 1596SOL    HW2 5175   1.345   3.095   1.508
 1597SOL     OW 5176   0.809   1.866   0.502
 1597SOL    HW1 5177   0.849   1.957   0.493
 1597SOL    HW2 5178   0.709   1.874   0.508
 1598SOL     OW 5179   0.197   2.838   1.264
 1598SOL    HW1 5180   0.286   2.793   1.250
 1598SOL    HW2 5181   0.124   2.773   1.245
 1599SOL     OW 5182   1.525   2.861   0.190
 1599SOL    HW1 5183   1.462   2.785   0.203
 1599SOL    HW2 5184   1.573   2.879   0.276
 1600SOL     OW 5185   1.187   3.654   1.616
 1600SOL    HW1 5186   1.211   3.714   1.540
 1600SOL    HW2 5187   1.194   3.559   1.586
 1601SOL     OW 5188   0.317   2.113   1.801
 1601SOL    HW1 5189   0.388   2.184   1.807
 1601SOL    HW2 5190   0.229   2.152   1.829
 1602SOL     OW 5191   1.466   3.279   0.953
 1602SOL    HW1 5192   1.407   3.285   1.033
 1602SOL    HW2 5193   1.451   3.191   0.907
 1603SOL     OW 5194   1.667   3.576   0.572
 1603SOL    HW1 5195   1.626   3.553   0.484
 1603SOL    HW2 5196   1.649   3.502   0.637
 1604SOL     OW 5197   0.598   2.591   0.270
 1604SOL    HW1 5198   0.622   2.660   0.202
 1604SOL    HW2 5199   0.520   2.624   0.324
 1605SOL     OW 5200   1.281   2.207   0.944
 1605SOL    HW1 5201   1.195   2.157   0.931
 1605SOL    HW2 5202   1.343   2.153   1.000
 1606SOL     OW 5203   1.576   3.524   0.307
 1606SOL    HW1 5204   1.665   3.570   0.310
 1606SOL    HW2 5205   1.555   3.500   0.212
 1607SOL     OW 5206   0.807   2.467   1.465
 1607SOL    HW1 5207   0.760   2.464   1.554
 1607SOL    HW2 5208   0.756   2.412   1.399
 1608SOL     OW 5209   1.394   2.331   1.674
 1608SOL    HW1 5210   1.374   2.374   1.762
 1608SOL    HW2 5211   1.472   2.269   1.683
 1609SOL     OW 5212   0.973   2.752   1.572
 1609SOL    HW1 5213   1.019   2.668   1.543
 1609SOL    HW2 5214   0.917   2.786   1.497
 1610SOL     OW 5215   0.991   2.272   1.242
 1610SOL    HW1 5216   0.914   2.306   1.296
 1610SOL    HW2 5217   0.957   2.221   1.163
 1611SOL     OW 5218   1.041   2.563   0.429
 1611SOL    HW1 5219   1.067   2.559   0.525
 1611SOL    HW2 5220   0.956   2.512   0.415
 1612SOL     OW 5221   0.076   2.673   0.789
 1612SOL    HW1 5222   0.175   2.661   0.798
 1612SOL    HW2 5223   0.052   2.768   0.810
 1613SOL     OW 5224   0.130   3.683   1.571
 1613SOL    HW1 5225   0.120   3.668   1.670
 1613SOL    HW2 5226   0.044   3.719   1.535
 1614SOL     OW 5227   0.865   2.210   0.195
 1614SOL    HW1 5228   0.924   2.273   0.146
 1614SOL    HW2 5229   0.884   2.116   0.166
 1615SOL     OW 5230   1.719   2.447   1.831
 1615SOL    HW1 5231   1.693   2.536   1.795
 1615SOL    HW2 5232   1.717   2.379   1.758
 1616SOL     OW 5233   1.362   3.006   0.545
 1616SOL    HW1 5234   1.445   2.977   0.497
 1616SOL    HW2 5235   1.313   3.073   0.489
 1617SOL     OW 5236   0.550   2.058   0.885
 1617SOL    HW1 5237   0.545   2.053   0.985
 1617SOL    HW2 5238   0.552   2.154   0.856
 1618SOL     OW 5239   1.008   3.318   0.477
 1618SOL    HW1 5240   0.962   3.390   0.425
 1618SOL    HW2 5241   1.004   3.338   0.575
 1619SOL     OW 5242   0.351   3.663   0.853
 1619SOL    HW1 5243   0.401   3.577   0.859
 1619SOL    HW2 5244   0.416   3.740   0.850
 1620SOL     OW 5245   1.795   2.928   0.873
 1620SOL    HW1 5246   1.733   2.913   0.797
 1620SOL    HW2 5247   1.743   2.939   0.958
 1621SOL     OW 5248   1.227   3.412   1.506
 1621SOL    HW1 5249   1.233   3.335   1.570
 1621SOL    HW2 5250   1.175   3.386   1.426
 1622SOL     OW 5251   0.321   2.805   0.242
 1622SOL    HW1 5252   0.403   2.844   0.200
 1622SOL    HW2 5253   0.294   2.723   0.193
 1623SOL     OW 5254   1.458   2.597   0.728
 1623SOL    HW1 5255   1.453   2.532   0.803
 1623SOL    HW2 5256   1.538   2.656   0.741
 1624SOL     OW 5257   0.461   3.128   1.727
 1624SOL    HW1 5258   0.411   3.129   1.641
 1624SOL    HW2 5259   0.398   3.110   1.803
 1625SOL     OW 5260   1.111   3.638   0.237
 1625SOL    HW1 5261   1.051   3.576   0.287
 1625SOL    HW2 5262   1.142   3.594   0.152
 1626SOL     OW 5263   0.202   2.147   1.498
 1626SOL    HW1 5264   0.122   2.207   1.485
 1626SOL    HW2 5265   0.192   2.098   1.584
 1627SOL     OW 5266   1.632   3.239   0.081
 1627SOL    HW1 5267   1.600   3.333   0.071
 1627SOL    HW2 5268   1.556   3.176   0.069
 1628SOL     OW 5269   0.464   3.605   0.323
 1628SOL    HW1 5270   0.497   3.644   0.409
 1628SOL    HW2 5271   0.540   3.598   0.258
 1629SOL     OW 5272   1.400   1.969   0.426
 1629SOL    HW1 5273   1.376   1.932   0.336
 1629SOL    HW2 5274   1.499   1.985   0.430
 1630SOL     OW 5275   0.249   3.647   1.241
 1630SOL    HW1 5276   0.306   3.582   1.291
 1630SOL    HW2 5277   0.233   3.614   1.148
 1631SOL     OW 5278   0.940   3.560   0.904
 1631SOL    HW1 5279   1.020   3.503   0.925
 1631SOL    HW2 5280   0.891   3.520   0.827
 1632SOL     OW 5281   0.382   2.562   0.480
 1632SOL    HW1 5282   0.427   2.472   0.477
 1632SOL    HW2 5283   0.288   2.551   0.513
 1633SOL     OW 5284   1.547   2.084   1.729
 1633SOL    HW1 5285   1.542   2.121   1.821
 1633SOL    HW2 5286   1.475   2.015   1.717
 1634SOL     OW 5287   0.781   2.126   1.749
 1634SOL    HW1 5288   0.848   2.065   1.792
 1634SOL    HW2 5289   0.708   2.145   1.814
 1635SOL     OW 5290   0.888   3.376   1.195
 1635SOL    HW1 5291   0.865   3.351   1.101
 1635SOL    HW2 5292   0.949   3.307   1.234
 1636SOL     OW 5293   1.351   2.452   1.433
 1636SOL    HW1 5294   1.379   2.409   1.518
 1636SOL    HW2 5295   1.376   2.548   1.434
 1637SOL     OW 5296   0.803   3.264   0.924
 1637SOL    HW1 5297   0.893   3.278   0.882
 1637SOL    HW2 5298   0.732   3.266   0.853
 1638SOL     OW 5299   0.922   2.365   0.899
 1638SOL    HW1 5300   0.897   2.356   0.803
 1638SOL    HW2 5301   0.970   2.283   0.930
 1639SOL     OW 5302   0.539   1.926   0.512
 1639SOL    HW1 5303   0.458   1.927   0.570
 1639SOL    HW2 5304   0.542   2.009   0.457
 1640SOL     OW 5305   1.434   3.050   0.041
 1640SOL    HW1 5306   1.466   2.974   0.098
 1640SOL    HW2 5307   1.342   3.077   0.071
 1641SOL     OW 5308   0.297   1.897   0.171
 1641SOL    HW1 5309   0.346   1.981   0.150
 1641SOL    HW2 5310   0.359   1.832   0.216
 1642SOL     OW 5311   0.935   2.098   0.480
 1642SOL    HW1 5312   0.887   2.139   0.402
 1642SOL    HW2 5313   1.034   2.096   0.461
 1643SOL     OW 5314   1.076   2.545   1.464
 1643SOL    HW1 5315   0.996   2.484   1.467
 1643SOL    HW2 5316   1.157   2.492   1.440
 1644SOL     OW 5317   1.227   3.432   0.793
 1644SOL    HW1 5318   1.248   3.506   0.728
 1644SOL    HW2 5319   1.295   3.432   0.866
 1645SOL     OW 5320   0.459   3.014   0.741
 1645SOL    HW1 5321   0.388   2.987   0.806
 1645SOL    HW2 5322   0.433   2.986   0.648
 1646SOL     OW 5323   1.271   3.659   0.591
 1646SOL    HW1 5324   1.315   3.723   0.527
 1646SOL    HW2 5325   1.221   3.711   0.661
 1647SOL     OW 5326   1.032   2.411   0.016
 1647SOL    HW1 5327   0.991   2.493  -0.023
 1647SOL    HW2 5328   1.096   2.437   0.089
 1648SOL     OW 5329   0.078   2.418   1.386
 1648SOL    HW1 5330   0.170   2.417   1.345
 1648SOL    HW2 5331   0.072   2.492   1.453
 1649SOL     OW 5332   0.561   2.084   1.147
 1649SOL    HW1 5333   0.599   2.000   1.184
 1649SOL    HW2 5334   0.473   2.103   1.191
 1650SOL     OW 5335   0.866   2.316   0.642
 1650SOL    HW1 5336   0.834   2.388   0.580
 1650SOL    HW2 5337   0.890   2.235   0.589
 1651SOL     OW 5338   1.017   1.901   0.753
 1651SOL    HW1 5339   0.945   1.906   0.684
 1651SOL    HW2 5340   0.993   1.832   0.822
 1652SOL     OW 5341   1.429   3.035   0.867
 1652SOL    HW1 5342   1.374   2.951   0.860
 1652SOL    HW2 5343   1.455   3.064   0.775
 1653SOL     OW 5344   1.466   2.452   0.992
 1653SOL    HW1 5345   1.436   2.357   0.999
 1653SOL    HW2 5346   1.539   2.468   1.058
 1654SOL     OW 5347   1.857   2.695   0.377
 1654SOL    HW1 5348   1.899   2.631   0.441
 1654SOL    HW2 5349   1.819   2.644   0.299
 1655SOL     OW 5350   0.488   3.247   0.174
 1655SOL    HW1 5351   0.401   3.232   0.221
 1655SOL    HW2 5352   0.471   3.273   0.079
 1656SOL     OW 5353   1.664   3.142   0.657
 1656SOL    HW1 5354   1.763   3.150   0.671
 1656SOL    HW2 5355   1.619   3.226   0.688
 1657SOL     OW 5356   1.390   2.437   0.078
 1657SOL    HW1 5357   1.336   2.416   0.159
 1657SOL    HW2 5358   1.481   2.396   0.087
 1658SOL     OW 5359   0.527   2.118   0.328
 1658SOL    HW1 5360   0.554   2.059   0.253
 1658SOL    HW2 5361   0.527   2.213   0.297
 1659SOL     OW 5362   1.754   3.085   1.588
 1659SOL    HW1 5363   1.845   3.046   1.575
 1659SOL    HW2 5364   1.762   3.181   1.612
 1660SOL     OW 5365   1.064   3.209   1.340
 1660SOL    HW1 5366   0.984   3.186   1.395
 1660SOL    HW2 5367   1.147   3.183   1.389
 1661SOL     OW 5368   1.592   3.491   1.625
 1661SOL    HW1 5369   1.619   3.525   1.535
 1661SOL    HW2 5370   1.671   3.453   1.671
 1662SOL     OW 5371   1.111   3.057   1.100
 1662SOL    HW1 5372   1.071   3.101   1.181
 1662SOL    HW2 5373   1.070   3.094   1.017
 1663SOL     OW 5374   1.638   2.961   1.079
 1663SOL    HW1 5375   1.643   3.042   1.138
 1663SOL    HW2 5376   1.552   2.963   1.028
 1664SOL     OW 5377   0.915   1.951   1.402
 1664SOL    HW1 5378   0.940   1.931   1.307
 1664SOL    HW2 5379   0.987   2.007   1.444
 1665SOL     OW 5380   0.980   2.978   1.719
 1665SOL    HW1 5381   0.881   2.984   1.729
 1665SOL    HW2 5382   1.003   2.898   1.663
 1666SOL     OW 5383   0.705   2.912   0.368
 1666SOL    HW1 5384   0.691   2.919   0.467
 1666SOL    HW2 5385   0.789   2.861   0.350
 1667SOL     OW 5386   0.410   2.675   1.251
 1667SOL    HW1 5387   0.496   2.687   1.301
 1667SOL    HW2 5388   0.368   2.588   1.278
 1668SOL     OW 5389   1.274   2.248   1.262
 1668SOL    HW1 5390   1.295   2.322   1.326
 1668SOL    HW2 5391   1.185   2.265   1.219
 1669SOL     OW 5392   0.064   3.426   1.331
 1669SOL    HW1 5393   0.018   3.508   1.297
 1669SOL    HW2 5394   0.162   3.445   1.340
 1670SOL     OW 5395   0.367   2.962   0.501
 1670SOL    HW1 5396   0.360   3.045   0.445
 1670SOL    HW2 5397   0.371   2.882   0.441
 1671SOL     OW 5398   0.566   2.399   0.865
 1671SOL    HW1 5399   0.578   2.465   0.791
 1671SOL    HW2 5400   0.612   2.433   0.948
 1672SOL     OW 5401   1.252   3.210   0.388
 1672SOL    HW1 5402   1.302   3.287   0.428
 1672SOL    HW2 5403   1.157   3.212   0.420
 1673SOL     OW 5404   1.272   3.307   1.142
 1673SOL    HW1 5405   1.319   3.320   1.229
 1673SOL    HW2 5406   1.206   3.233   1.151
 1674SOL     OW 5407   1.582   2.501   0.472
 1674SOL    HW1 5408   1.551   2.562   0.545
 1674SOL    HW2 5409   1.632   2.553   0.403
 1675SOL     OW 5410   0.354   3.372   1.329
 1675SOL    HW1 5411   0.333   3.328   1.242
 1675SOL    HW2 5412   0.451   3.398   1.332
 1676SOL     OW 5413   0.402   2.613   1.598
 1676SOL    HW1 5414   0.470   2.668   1.551
 1676SOL    HW2 5415   0.442   2.525   1.625
 1677SOL     OW 5416   1.587   2.641   1.670
 1677SOL    HW1 5417   1.495   2.679   1.665
 1677SOL    HW2 5418   1.647   2.688   1.605
 1678SOL     OW 5419   1.013   1.967   1.770
 1678SOL    HW1 5420   1.019   2.052   1.718
 1678SOL    HW2 5421   1.045   1.891   1.713
 1679SOL     OW 5422   0.504   1.912   1.740
 1679SOL    HW1 5423   0.462   1.855   1.670
 1679SOL    HW2 5424   0.438   1.981   1.772
 1680SOL     OW 5425   0.573   2.732   1.029
 1680SOL    HW1 5426   0.617   2.821   1.020
 1680SOL    HW2 5427   0.510   2.732   1.106
 1681SOL     OW 5428   1.360   2.724   1.045
 1681SOL    HW1 5429   1.285   2.724   0.979
 1681SOL    HW2 5430   1.397   2.632   1.054
 1682SOL     OW 5431   1.209   2.387   0.275
 1682SOL    HW1 5432   1.222   2.303   0.329
 1682SOL    HW2 5433   1.180   2.461   0.335
 1683SOL     OW 5434   0.307   2.075   1.231
 1683SOL    HW1 5435   0.284   2.112   1.321
 1683SOL    HW2 5436   0.277   1.980   1.225
 1684SOL     OW 5437   0.037   3.172   1.282
 1684SOL    HW1 5438   0.090   3.123   1.350
 1684SOL    HW2 5439   0.059   3.270   1.287
 1685SOL     OW 5440   0.732   2.496   1.064
 1685SOL    HW1 5441   0.791   2.470   0.988
 1685SOL    HW2 5442   0.704   2.592   1.053
 1686SOL     OW 5443   1.728   2.797   1.854
 1686SOL    HW1 5444   1.682   2.790   1.765
 1686SOL    HW2 5445   1.666   2.841   1.920
 1687SOL     OW 5446   0.307   1.925   0.618
 1687SOL    HW1 5447   0.296   2.019   0.651
 1687SOL    HW2 5448   0.302   1.862   0.695
 1688SOL     OW 5449   1.622   2.229   0.374
 1688SOL    HW1 5450   1.624   2.153   0.438
 1688SOL    HW2 5451   1.574   2.306   0.414
 1689SOL     OW 5452   1.023   2.628   0.966
 1689SOL    HW1 5453   1.038   2.649   1.062
 1689SOL    HW2 5454   0.993   2.533   0.957
 1690SOL     OW 5455   0.980   3.435   1.700
 1690SOL    HW1 5456   0.960   3.479   1.612
 1690SOL    HW2 5457   1.019   3.344   1.684
 1691SOL     OW 5458   1.859   3.380   1.605
 1691SOL    HW1 5459   1.873   3.407   1.510
 1691SOL    HW2 5460   1.942   3.402   1.658
 1692SOL     OW 5461   0.350   2.760   1.804
 1692SOL    HW1 5462   0.426   2.804   1.852
 1692SOL    HW2 5463   0.385   2.713   1.722
 1693SOL     OW 5464   1.540   2.136   0.125
 1693SOL    HW1 5465   1.479   2.061   0.148
 1693SOL    HW2 5466   1.562   2.188   0.208
 1694SOL     OW 5467   1.303   2.700   0.042
 1694SOL    HW1 5468   1.337   2.607   0.057
 1694SOL    HW2 5469   1.321   2.727  -0.053
 1695SOL     OW 5470   1.068   3.195   0.849
 1695SOL    HW1 5471   1.075   3.111   0.794
 1695SOL    HW2 5472   1.130   3.264   0.813
 1696SOL     OW 5473   0.319   2.672   0.949
 1696SOL    HW1 5474   0.412   2.708   0.954
 1696SOL    HW2 5475   0.313   2.587   1.001
 1697SOL     OW 5476   0.339   2.371   1.006
 1697SOL    HW1 5477   0.287   2.288   0.989
 1697SOL    HW2 5478   0.416   2.376   0.942
 1698SOL     OW 5479   1.138   2.242   1.678
 1698SOL    HW1 5480   1.093   2.305   1.742
 1698SOL    HW2 5481   1.231   2.273   1.661
 1699SOL     OW 5482   1.160   2.069   1.477
 1699SOL    HW1 5483   1.160   2.133   1.554
 1699SOL    HW2 5484   1.188   2.117   1.394
 1700SOL     OW 5485   0.008   3.188   0.200
 1700SOL    HW1 5486  -0.085   3.209   0.169
 1700SOL    HW2 5487   0.018   3.089   0.213
 1701SOL     OW 5488   0.088   3.663   0.927
 1701SOL    HW1 5489   0.046   3.577   0.900
 1701SOL    HW2 5490   0.182   3.666   0.893
 1702SOL     OW 5491   0.504   3.430   0.910
 1702SOL    HW1 5492   0.570   3.504   0.919
 1702SOL    HW2 5493   0.548   3.351   0.868
 1703SOL     OW 5494   1.002   2.658   1.238
 1703SOL    HW1 5495   1.043   2.626   1.324
 1703SOL    HW2 5496   0.906   2.631   1.235
 1704SOL     OW 5497   0.040   2.406   1.114
 1704SOL    HW1 5498   0.125   2.373   1.073
 1704SOL    HW2 5499   0.053   2.421   1.212
 1705SOL     OW 5500   0.189   2.382   1.722
 1705SOL    HW1 5501   0.248   2.342   1.652
 1705SOL    HW2 5502   0.131   2.453   1.681
 1706SOL     OW 5503   1.369   2.812   1.660
 1706SOL    HW1 5504   1.408   2.901   1.680
 1706SOL    HW2 5505   1.379   2.792   1.563
 1707SOL     OW 5506   0.815   2.434   0.325
 1707SOL    HW1 5507   0.822   2.345   0.279
 1707SOL    HW2 5508   0.721   2.468   0.317
 1708SOL     OW 5509   1.657   2.466   1.206
 1708SOL    HW1 5510   1.619   2.397   1.268
 1708SOL    HW2 5511   1.739   2.430   1.162
 1709SOL     OW 5512   0.252   3.426   1.744
 1709SOL    HW1 5513   0.222   3.483   1.820
 1709SOL    HW2 5514   0.245   3.329   1.770
 1710SOL     OW 5515   0.671   2.326   1.269
 1710SOL    HW1 5516   0.637   2.237   1.239
 1710SOL    HW2 5517   0.697   2.380   1.189
 1711SOL     OW 5518   0.930   3.540   1.465
 1711SOL    HW1 5519   0.906   3.522   1.370
 1711SOL    HW2 5520   0.960   3.634   1.475
 1712SOL     OW 5521   0.473   2.362   0.191
 1712SOL    HW1 5522   0.534   2.442   0.195
 1712SOL    HW2 5523   0.378   2.393   0.198
 1713SOL     OW 5524   0.159   2.999   1.466
 1713SOL    HW1 5525   0.181   2.938   1.542
 1713SOL    HW2 5526   0.169   2.950   1.380
 1714SOL     OW 5527   1.347   2.921   1.234
 1714SOL    HW1 5528   1.371   2.858   1.160
 1714SOL    HW2 5529   1.257   2.961   1.216
 1715SOL     OW 5530   1.302   2.717   0.309
 1715SOL    HW1 5531   1.216   2.686   0.351
 1715SOL    HW2 5532   1.298   2.703   0.210
 1716SOL     OW 5533   1.759   3.609   1.154
 1716SOL    HW1 5534   1.820   3.639   1.081
 1716SOL    HW2 5535   1.721   3.520   1.132
 1717SOL     OW 5536   1.252   3.593   1.128
 1717SOL    HW1 5537   1.336   3.598   1.074
 1717SOL    HW2 5538   1.229   3.497   1.146
 1718SOL     OW 5539   0.083   3.120   1.022
 1718SOL    HW1 5540   0.078   3.119   1.122
 1718SOL    HW2 5541   0.000   3.079   0.984
 1719SOL     OW 5542   0.688   3.524   1.716
 1719SOL    HW1 5543   0.632   3.605   1.725
 1719SOL    HW2 5544   0.740   3.528   1.630
 1720SOL     OW 5545   0.903   1.948   0.133
 1720SOL    HW1 5546   0.954   1.949   0.047
 1720SOL    HW2 5547   0.959   1.906   0.204
 1721SOL     OW 5548   1.388   3.435   0.477
 1721SOL    HW1 5549   1.455   3.447   0.403
 1721SOL    HW2 5550   1.348   3.524   0.500
 1722SOL     OW 5551   0.130   3.656   1.851
 1722SOL    HW1 5552   0.089   3.582   1.904
 1722SOL    HW2 5553   0.194   3.707   1.909
 1723SOL     OW 5554   1.280   2.789   0.672
 1723SOL    HW1 5555   1.340   2.708   0.674
 1723SOL    HW2 5556   1.320   2.858   0.612
 1724SOL     OW 5557   0.830   3.135   1.422
 1724SOL    HW1 5558   0.825   3.168   1.517
 1724SOL    HW2 5559   0.744   3.154   1.376
 1725SOL     OW 5560   0.672   3.478   0.154
 1725SOL    HW1 5561   0.681   3.488   0.055
 1725SOL    HW2 5562   0.632   3.389   0.175
 1726SOL     OW 5563   1.650   3.582   1.394
 1726SOL    HW1 5564   1.703   3.592   1.310
 1726SOL    HW2 5565   1.623   3.672   1.428
 1727SOL     OW 5566   0.263   2.188   0.720
 1727SOL    HW1 5567   0.184   2.239   0.686
 1727SOL    HW2 5568   0.254   2.173   0.818
 1728SOL     OW 5569   1.194   3.474   0.031
 1728SOL    HW1 5570   1.200   3.381   0.068
 1728SOL    HW2 5571   1.135   3.474  -0.049
 1729SOL     OW 5572   0.822   2.864   1.372
 1729SOL    HW1 5573   0.862   2.863   1.280
 1729SOL    HW2 5574   0.832   2.956   1.412
 1730SOL     OW 5575   0.916   2.772   0.291
 1730SOL    HW1 5576   0.979   2.810   0.223
 1730SOL    HW2 5577   0.956   2.689   0.330
 1731SOL     OW 5578   1.504   3.469   0.044
 1731SOL    HW1 5579   1.412   3.506   0.051
 1731SOL    HW2 5580   1.542   3.489  -0.046
 1732SOL     OW 5581   0.372   3.150   1.490
 1732SOL    HW1 5582   0.359   3.243   1.456
 1732SOL    HW2 5583   0.288   3.098   1.477
 1733SOL     OW 5584   1.614   3.154   1.289
 1733SOL    HW1 5585   1.674   3.157   1.369
 1733SOL    HW2 5586   1.539   3.218   1.302
 1734SOL     OW 5587   1.039   2.960   0.696
 1734SOL    HW1 5588   0.969   2.913   0.750
 1734SOL    HW2 5589   1.098   2.892   0.653
 1735SOL     OW 5590   1.014   2.098   0.971
 1735SOL    HW1 5591   1.006   2.062   0.878
 1735SOL    HW2 5592   1.012   2.022   1.036
 1736SOL     OW 5593   0.590   3.349   0.491
 1736SOL    HW1 5594   0.632   3.291   0.421
 1736SOL    HW2 5595   0.546   3.428   0.447
 1737SOL     OW 5596   1.709   2.247   1.381
 1737SOL    HW1 5597   1.782   2.316   1.385
 1737SOL    HW2 5598   1.737   2.172   1.322
 1738SOL     OW 5599   0.255   3.210   0.290
 1738SOL    HW1 5600   0.159   3.211   0.263
 1738SOL    HW2 5601   0.267   3.263   0.374
 1739SOL     OW 5602   0.105   2.875   1.726
 1739SOL    HW1 5603   0.028   2.842   1.780
 1739SOL    HW2 5604   0.190   2.845   1.768
 1740SOL     OW 5605   0.672   2.065   1.489
 1740SOL    HW1 5606   0.762   2.049   1.449
 1740SOL    HW2 5607   0.680   2.070   1.588
 1741SOL     OW 5608   0.075   2.207   0.033
 1741SOL    HW1 5609  -0.017   2.179   0.004
 1741SOL    HW2 5610   0.106   2.284  -0.023
 1742SOL     OW 5611   1.440   2.718   1.398
 1742SOL    HW1 5612   1.383   2.770   1.335
 1742SOL    HW2 5613   1.536   2.730   1.374
 1743SOL     OW 5614   0.072   2.028   0.318
 1743SOL    HW1 5615   0.055   2.111   0.264
 1743SOL    HW2 5616   0.162   1.991   0.296
 1744SOL     OW 5617   1.183   3.197   0.119
 1744SOL    HW1 5618   1.084   3.186   0.121
 1744SOL    HW2 5619   1.217   3.212   0.212
 1745SOL     OW 5620   0.613   2.704   1.431
 1745SOL    HW1 5621   0.669   2.785   1.414
 1745SOL    HW2 5622   0.672   2.624   1.434
 1746SOL     OW 5623   1.493   3.629   0.959
 1746SOL    HW1 5624   1.526   3.693   0.890
 1746SOL    HW2 5625   1.559   3.623   1.034
 1747SOL     OW 5626   0.716   2.427   1.708
 1747SOL    HW1 5627   0.735   2.492   1.782
 1747SOL    HW2 5628   0.776   2.347   1.717
 1748SOL     OW 5629   1.450   3.082   1.633
 1748SOL    HW1 5630   1.441   3.072   1.732
 1748SOL    HW2 5631   1.546   3.075   1.607
 1749SOL     OW 5632   0.390   3.603   1.560
 1749SOL    HW1 5633   0.299   3.644   1.558
 1749SOL    HW2 5634   0.383   3.509   1.592
 1750SOL     OW 5635   1.674   2.745   1.254
 1750SOL    HW1 5636   1.647   2.656   1.217
 1750SOL    HW2 5637   1.675   2.813   1.181
 1751SOL     OW 5638   1.225   2.187   0.449
 1751SOL    HW1 5639   1.290   2.113   0.438
 1751SOL    HW2 5640   1.245   2.237   0.533
 1752SOL     OW 5641   0.594   2.607   0.652
 1752SOL    HW1 5642   0.644   2.692   0.633
 1752SOL    HW2 5643   0.506   2.609   0.604
 1753SOL     OW 5644   1.777   2.204   1.642
 1753SOL    HW1 5645   1.760   2.235   1.548
 1753SOL    HW2 5646   1.693   2.167   1.680
 1754SOL     OW 5647   1.730   2.796   1.517
 1754SOL    HW1 5648   1.768   2.887   1.532
 1754SOL    HW2 5649   1.722   2.779   1.418
 1755SOL     OW 5650   0.859   3.236   0.016
 1755SOL    HW1 5651   0.813   3.251   0.104
 1755SOL    HW2 5652   0.903   3.321  -0.014
 1756SOL     OW 5653   0.661   3.652   0.953
 1756SOL    HW1 5654   0.615   3.740   0.940
 1756SOL    HW2 5655   0.760   3.664   0.946
 1757SOL     OW 5656   0.859   2.818   0.861
 1757SOL    HW1 5657   0.913   2.749   0.909
 1757SOL    HW2 5658   0.827   2.887   0.927
 1758SOL     OW 5659   1.083   2.846   0.087
 1758SOL    HW1 5660   1.060   2.899   0.005
 1758SOL    HW2 5661   1.164   2.790   0.068
 1759SOL     OW 5662   1.861   3.431   0.851
 1759SOL    HW1 5663   1.790   3.419   0.781
 1759SOL    HW2 5664   1.862   3.352   0.911
 1760SOL     OW 5665   0.221   3.176   1.844
 1760SOL    HW1 5666   0.156   3.103   1.823
 1760SOL    HW2 5667   0.225   3.190   1.942
 1761SOL     OW 5668   0.079   3.102   0.653
 1761SOL    HW1 5669   0.078   3.055   0.741
 1761SOL    HW2 5670   0.161   3.074   0.602
 1762SOL     OW 5671   0.672   3.253   1.624
 1762SOL    HW1 5672   0.594   3.203   1.662
 1762SOL    HW2 5673   0.669   3.348   1.655
 1763SOL     OW 5674   0.428   2.286   0.520
 1763SOL    HW1 5675   0.458   2.214   0.458
 1763SOL    HW2 5676   0.389   2.246   0.603
 1764SOL     OW 5677   1.705   3.349   1.104
 1764SOL    HW1 5678   1.612   3.324   1.077
 1764SOL    HW2 5679   1.731   3.299   1.186
 1765SOL     OW 5680   0.317   2.409   1.280
 1765SOL    HW1 5681   0.355   2.350   1.352
 1765SOL    HW2 5682   0.357   2.383   1.192
 1766SOL     OW 5683   0.812   3.448   0.687
 1766SOL    HW1 5684   0.844   3.458   0.593
 1766SOL    HW2 5685   0.733   3.386   0.689
 1767SOL     OW 5686   1.424   2.076   1.112
 1767SOL    HW1 5687   1.476   2.011   1.167
 1767SOL    HW2 5688   1.375   2.139   1.173
 1768SOL     OW 5689   1.001   1.896   1.154
 1768SOL    HW1 5690   0.938   1.824   1.123
 1768SOL    HW2 5691   1.094   1.860   1.154
 1769SOL     OW 5692   0.770   3.192   0.301
 1769SOL    HW1 5693   0.724   3.105   0.318
 1769SOL    HW2 5694   0.861   3.189   0.342
 1770SOL     OW 5695   0.618   3.429   1.284
 1770SOL    HW1 5696   0.613   3.511   1.341
 1770SOL    HW2 5697   0.707   3.426   1.239
 1771SOL     OW 5698   1.352   1.914   0.168
 1771SOL    HW1 5699   1.387   1.873   0.084
 1771SOL    HW2 5700   1.262   1.876   0.188
 1772SOL     OW 5701   1.300   2.315   0.691
 1772SOL    HW1 5702   1.241   2.395   0.695
 1772SOL    HW2 5703   1.315   2.280   0.784
 1773SOL     OW 5704   1.593   2.083   0.882
 1773SOL    HW1 5705   1.509   2.082   0.936
 1773SOL    HW2 5706   1.595   2.166   0.826
 1774SOL     OW 5707   0.039   2.939   0.300
 1774SOL    HW1 5708   0.138   2.928   0.291
 1774SOL    HW2 5709  -0.001   2.853   0.332
 1775SOL     OW 5710   0.875   3.508   0.337
 1775SOL    HW1 5711   0.798   3.473   0.283
 1775SOL    HW2 5712   0.843   3.579   0.399
 1776SOL     OW 5713   0.230   2.490   1.975
 1776SOL    HW1 5714   0.137   2.488   2.012
 1776SOL    HW2 5715   0.231   2.451   1.883
 1777SOL     OW 5716   0.225   2.137   2.858
 1777SOL    HW1 5717   0.260   2.120   2.950
 1777SOL    HW2 5718   0.137   2.092   2.846
 1778SOL     OW 5719   0.019   2.230   2.509
 1778SOL    HW1 5720  -0.063   2.273   2.548
 1778SOL    HW2 5721  -0.009   2.157   2.446
 1779SOL     OW 5722   0.569   3.137   3.027
 1779SOL    HW1 5723   0.476   3.130   2.990
 1779SOL    HW2 5724   0.580   3.226   3.071
 1780SOL     OW 5725   1.555   3.373   2.565
 1780SOL    HW1 5726   1.498   3.357   2.646
 1780SOL    HW2 5727   1.496   3.383   2.485
 1781SOL     OW 5728   1.135   2.565   2.579
 1781SOL    HW1 5729   1.192   2.643   2.554
 1781SOL    HW2 5730   1.075   2.591   2.655
 1782SOL     OW 5731   1.755   2.469   2.093
 1782SOL    HW1 5732   1.743   2.456   1.994
 1782SOL    HW2 5733   1.725   2.388   2.142
 1783SOL     OW 5734   0.768   3.006   2.885
 1783SOL    HW1 5735   0.690   3.023   2.945
 1783SOL    HW2 5736   0.802   3.093   2.849
 1784SOL     OW 5737   0.850   2.660   3.685
 1784SOL    HW1 5738   0.846   2.736   3.750
 1784SOL    HW2 5739   0.872   2.696   3.594
 1785SOL     OW 5740   0.685   2.874   2.527
 1785SOL    HW1 5741   0.754   2.858   2.597
 1785SOL    HW2 5742   0.612   2.931   2.565
 1786SOL     OW 5743   0.686   3.023   3.665
 1786SOL    HW1 5744   0.746   3.102   3.679
 1786SOL    HW2 5745   0.600   3.054   3.624
 1787SOL     OW 5746   0.335   3.297   2.923
 1787SOL    HW1 5747   0.257   3.266   2.870
 1787SOL    HW2 5748   0.393   3.355   2.866
 1788SOL     OW 5749   1.460   3.367   3.201
 1788SOL    HW1 5750   1.484   3.461   3.227
 1788SOL    HW2 5751   1.444   3.313   3.283
 1789SOL     OW 5752   0.438   2.254   3.361
 1789SOL    HW1 5753   0.520   2.198   3.370
 1789SOL    HW2 5754   0.357   2.196   3.365
 1790SOL     OW 5755   1.603   2.309   2.599
 1790SOL    HW1 5756   1.529   2.355   2.549
 1790SOL    HW2 5757   1.654   2.377   2.652
 1791SOL     OW 5758   0.231   3.575   2.345
 1791SOL    HW1 5759   0.265   3.652   2.399
 1791SOL    HW2 5760   0.275   3.575   2.255
 1792SOL     OW 5761   1.127   3.203   3.552
 1792SOL    HW1 5762   1.174   3.203   3.640
 1792SOL    HW2 5763   1.079   3.116   3.541
 1793SOL     OW 5764   0.230   3.296   2.400
 1793SOL    HW1 5765   0.204   3.392   2.400
 1793SOL    HW2 5766   0.159   3.242   2.445
 1794SOL     OW 5767   0.240   2.953   2.748
 1794SOL    HW1 5768   0.254   2.869   2.800
 1794SOL    HW2 5769   0.185   3.017   2.803
 1795SOL     OW 5770   0.620   3.648   3.301
 1795SOL    HW1 5771   0.528   3.631   3.336
 1795SOL    HW2 5772   0.648   3.740   3.327
 1796SOL     OW 5773   0.606   2.826   1.985
 1796SOL    HW1 5774   0.613   2.910   1.931
 1796SOL    HW2 5775   0.652   2.839   2.073
 1797SOL     OW 5776   1.594   1.976   3.342
 1797SOL    HW1 5777   1.576   2.043   3.270
 1797SOL    HW2 5778   1.591   2.022   3.431
 1798SOL     OW 5779   0.122   2.505   2.425
 1798SOL    HW1 5780   0.077   2.417   2.442
 1798SOL    HW2 5781   0.121   2.559   2.509
 1799SOL     OW 5782   1.842   3.629   2.221
 1799SOL    HW1 5783   1.896   3.600   2.301
 1799SOL    HW2 5784   1.872   3.719   2.192
 1800SOL     OW 5785   0.027   3.458   1.979
 1800SOL    HW1 5786   0.008   3.362   2.000
 1800SOL    HW2 5787  -0.006   3.516   2.054
 1801SOL     OW 5788   1.689   2.784   2.474
 1801SOL    HW1 5789   1.784   2.755   2.482
 1801SOL    HW2 5790   1.681   2.849   2.399
 1802SOL     OW 5791   1.641   2.970   2.294
 1802SOL    HW1 5792   1.727   2.972   2.242
 1802SOL    HW2 5793   1.655   3.017   2.382
 1803SOL     OW 5794   0.113   2.599   3.459
 1803SOL    HW1 5795   0.201   2.586   3.504
 1803SOL    HW2 5796   0.100   2.696   3.437
 1804SOL     OW 5797   0.613   3.227   2.588
 1804SOL    HW1 5798   0.564   3.140   2.597
 1804SOL    HW2 5799   0.590   3.270   2.501
 1805SOL     OW 5800   1.293   3.090   3.285
 1805SOL    HW1 5801   1.330   3.017   3.227
 1805SOL    HW2 5802   1.345   3.095   3.370
 1806SOL     OW 5803   0.809   1.866   2.364
 1806SOL    HW1 5804   0.849   1.957   2.355
 1806SOL    HW2 5805   0.709   1.874   2.370
 1807SOL     OW 5806   0.197   2.838   3.126
 1807SOL    HW1 5807   0.286   2.793   3.112
 1807SOL    HW2 5808   0.124   2.773   3.107
 1808SOL     OW 5809   1.525   2.861   2.052
 1808SOL    HW1 5810   1.462   2.785   2.065
 1808SOL    HW2 5811   1.573   2.879   2.138
 1809SOL     OW 5812   1.187   3.654   3.478
 1809SOL    HW1 5813   1.211   3.714   3.402
 1809SOL    HW2 5814   1.194   3.559   3.448
 1810SOL     OW 5815   0.317   2.113   3.663
 1810SOL    HW1 5816   0.388   2.184   3.669
 1810SOL    HW2 5817   0.229   2.152   3.691
 1811SOL     OW 5818   1.466   3.279   2.815
 1811SOL    HW1 5819   1.407   3.285   2.895
 1811SOL    HW2 5820   1.451   3.191   2.769
 1812SOL     OW 5821   1.667   3.576   2.434
 1812SOL    HW1 5822   1.626   3.553   2.346
 1812SOL    HW2 5823   1.649   3.502   2.499
 1813SOL     OW 5824   0.598   2.591   2.132
 1813SOL    HW1 5825   0.622   2.660   2.064
 1813SOL    HW2 5826   0.520   2.624   2.186
 1814SOL     OW 5827   1.281   2.207   2.806
 1814SOL    HW1 5828   1.195   2.157   2.793
 1814SOL    HW2 5829   1.343   2.153   2.862
 1815SOL     OW 5830   1.576   3.524   2.169
 1815SOL    HW1 5831   1.665   3.570   2.172
 1815SOL    HW2 5832   1.555   3.500   2.074
 1816SOL     OW 5833   0.807   2.467   3.327
 1816SOL    HW1 5834   0.760   2.464   3.416
 1816SOL    HW2 5835   0.756   2.412   3.261
 1817SOL     OW 5836   1.394   2.331   3.536
 1817SOL    HW1 5837   1.374   2.374   3.624
 1817SOL    HW2 5838   1.472   2.269   3.545
 1818SOL     OW 5839   0.973   2.752   3.434
 1818SOL    HW1 5840   1.019   2.668   3.405
 1818SOL    HW2 5841   0.917   2.786   3.359
 1819SOL     OW 5842   0.991   2.272   3.104
 1819SOL    HW1 5843   0.914   2.306   3.158
 1819SOL    HW2 5844   0.957   2.221   3.025
 1820SOL     OW 5845   1.041   2.563   2.291
 1820SOL    HW1 5846   1.067   2.559   2.387
 1820SOL    HW2 5847   0.956   2.512   2.277
 1821SOL     OW 5848   0.076   2.673   2.651
 1821SOL    HW1 5849   0.175   2.661   2.660
 1821SOL    HW2 5850   0.052   2.768   2.672
 1822SOL     OW 5851   0.130   3.683   3.433
 1822SOL    HW1 5852   0.120   3.668   3.532
 1822SOL    HW2 5853   0.044   3.719   3.397
 1823SOL     OW 5854   0.865   2.210   2.057
 1823SOL    HW1 5855   0.924   2.273   2.008
 1823SOL    HW2 5856   0.884   2.116   2.028
 1824SOL     OW 5857   1.719   2.447   3.693
 1824SOL    HW1 5858   1.693   2.536   3.657
 1824SOL    HW2 5859   1.717   2.379   3.620
 1825SOL     OW 5860   1.362   3.006   2.407
 1825SOL    HW1 5861   1.445   2.977   2.359
 1825SOL    HW2 5862   1.313   3.073   2.351
 1826SOL     OW 5863   0.550   2.058   2.747
 1826SOL    HW1 5864   0.545   2.053   2.847
 1826SOL    HW2 5865   0.552   2.154   2.718
 1827SOL     OW 5866   1.008   3.318   2.339
 1827SOL    HW1 5867   0.962   3.390   2.287
 1827SOL    HW2 5868   1.004   3.338   2.437
 1828SOL     OW 5869   0.351   3.663   2.715
 1828SOL    HW1 5870   0.401   3.577   2.721
 1828SOL    HW2 5871   0.416   3.740   2.712
 1829SOL     OW 5872   1.795   2.928   2.735
 1829SOL    HW1 5873   1.733   2.913   2.659
 1829SOL    HW2 5874   1.743   2.939   2.820
 1830SOL     OW 5875   1.227   3.412   3.368
 1830SOL    HW1 5876   1.233   3.335   3.432
 1830SOL    HW2 5877   1.175   3.386   3.288
 1831SOL     OW 5878   0.321   2.805   2.104
 1831SOL    HW1 5879   0.403   2.844   2.062
 1831SOL    HW2 5880   0.294   2.723   2.055
 1832SOL     OW 5881   1.458   2.597   2.590
 1832SOL    HW1 5882   1.453   2.532   2.665
 1832SOL    HW2 5883   1.538   2.656   2.603
 1833SOL     OW 5884   0.461   3.128   3.589
 1833SOL    HW1 5885   0.411   3.129   3.503
 1833SOL    HW2 5886   0.398   3.110   3.665
 1834SOL     OW 5887   1.111   3.638   2.099
 1834SOL    HW1 5888   1.051   3.576   2.149
 1834SOL    HW2 5889   1.142   3.594   2.014
 1835SOL     OW 5890   0.202   2.147   3.360
 1835SOL    HW1 5891   0.122   2.207   3.347
 1835SOL    HW2 5892   0.192   2.098   3.446
 1836SOL     OW 5893   1.632   3.239   1.943
 1836SOL    HW1 5894   1.600   3.333   1.933
 1836SOL    HW2 5895   1.556   3.176   1.931
 1837SOL     OW 5896   0.464   3.605   2.185
 1837SOL    HW1 5897   0.497   3.644   2.271
 1837SOL    HW2 5898   0.540   3.598   2.120
 1838SOL     OW 5899   1.400   1.969   2.288
 1838SOL    HW1 5900   1.376   1.932   2.198
 1838SOL    HW2 5901   1.499   1.985   2.292
 1839SOL     OW 5902   0.249   3.647   3.103
 1839SOL    HW1 5903   0.306   3.582   3.153
 1839SOL    HW2 5904   0.233   3.614   3.010
 1840SOL     OW 5905   0.940   3.560   2.766
 1840SOL    HW1 5906   1.020   3.503   2.787
 1840SOL    HW2 5907   0.891   3.520   2.689
 1841SOL     OW 5908   0.382   2.562   2.342
 1841SOL    HW1 5909   0.427   2.472   2.339
 1841SOL    HW2 5910   0.288   2.551   2.375
 1842SOL     OW 5911   1.547   2.084   3.591
 1842SOL    HW1 5912   1.542   2.121   3.683
 1842SOL    HW2 5913   1.475   2.015   3.579
 1843SOL     OW 5914   0.614   1.984   1.979
 1843SOL    HW1 5915   0.712   1.962   1.986
 1843SOL    HW2 5916   0.583   1.967   1.886
 1844SOL     OW 5917   0.781   2.126   3.611
 1844SOL    HW1 5918   0.848   2.065   3.654
 1844SOL    HW2 5919   0.708   2.145   3.676
 1845SOL     OW 5920   0.888   3.376   3.057
 1845SOL    HW1 5921   0.865   3.351   2.963
 1845SOL    HW2 5922   0.949   3.307   3.096
 1846SOL     OW 5923   1.351   2.452   3.295
 1846SOL    HW1 5924   1.379   2.409   3.380
 1846SOL    HW2 5925   1.376   2.548   3.296
 1847SOL     OW 5926   0.803   3.264   2.786
 1847SOL    HW1 5927   0.893   3.278   2.744
 1847SOL    HW2 5928   0.732   3.266   2.715
 1848SOL     OW 5929   0.922   2.365   2.761
 1848SOL    HW1 5930   0.897   2.356   2.665
 1848SOL    HW2 5931   0.970   2.283   2.792
 1849SOL     OW 5932   0.539   1.926   2.374
 1849SOL    HW1 5933   0.458   1.927   2.432
 1849SOL    HW2 5934   0.542   2.009   2.319
 1850SOL     OW 5935   1.434   3.050   1.903
 1850SOL    HW1 5936   1.466   2.974   1.960
 1850SOL    HW2 5937   1.342   3.077   1.933
 1851SOL     OW 5938   0.297   1.897   2.033
 1851SOL    HW1 5939   0.346   1.981   2.012
 1851SOL    HW2 5940   0.359   1.832   2.078
 1852SOL     OW 5941   0.935   2.098   2.342
 1852SOL    HW1 5942   0.887   2.139   2.264
 1852SOL    HW2 5943   1.034   2.096   2.323
 1853SOL     OW 5944   1.076   2.545   3.326
 1853SOL    HW1 5945   0.996   2.484   3.329
 1853SOL    HW2 5946   1.157   2.492   3.302
 1854SOL     OW 5947   1.227   3.432   2.655
 1854SOL    HW1 5948   1.248   3.506   2.590
 1854SOL    HW2 5949   1.295   3.432   2.728
 1855SOL     OW 5950   0.459   3.014   2.603
 1855SOL    HW1 5951   0.388   2.987   2.668
 1855SOL    HW2 5952   0.433   2.986   2.510
 1856SOL     OW 5953   1.271   3.659   2.453
 1856SOL    HW1 5954   1.315   3.723   2.389
 1856SOL    HW2 5955   1.221   3.711   2.523
 1857SOL     OW 5956   1.032   2.411   1.878
 1857SOL    HW1 5957   0.991   2.493   1.839
 1857SOL    HW2 5958   1.096   2.437   1.951
 1858SOL     OW 5959   0.078   2.418   3.248
 1858SOL    HW1 5960   0.170   2.417   3.207
 1858SOL    HW2 5961   0.072   2.492   3.315
 1859SOL     OW 5962   0.561   2.084   3.009
 1859SOL    HW1 5963   0.599   2.000   3.046
 1859SOL    HW2 5964   0.473   2.103   3.053
 1860SOL     OW 5965   0.866   2.316   2.504
 1860SOL    HW1 5966   0.834   2.388   2.442
 1860SOL    HW2 5967   0.890   2.235   2.451
 1861SOL     OW 5968   1.017   1.901   2.615
 1861SOL    HW1 5969   0.945   1.906   2.546
 1861SOL    HW2 5970   0.993   1.832   2.684
 1862SOL     OW 5971   1.429   3.035   2.729
 1862SOL    HW1 5972   1.374   2.951   2.722
 1862SOL    HW2 5973   1.455   3.064   2.637
 1863SOL     OW 5974   1.466   2.452   2.854
 1863SOL    HW1 5975   1.436   2.357   2.861
 1863SOL    HW2 5976   1.539   2.468   2.920
 1864SOL     OW 5977   1.857   2.695   2.239
 1864SOL    HW1 5978   1.899   2.631   2.303
 1864SOL    HW2 5979   1.819   2.644   2.161
 1865SOL     OW 5980   0.488   3.247   2.036
 1865SOL    HW1 5981   0.401   3.232   2.083
 1865SOL    HW2 5982   0.471   3.273   1.941
 1866SOL     OW 5983   1.664   3.142   2.519
 1866SOL    HW1 5984   1.763   3.150   2.533
 1866SOL    HW2 5985   1.619   3.226   2.550
 1867SOL     OW 5986   1.390   2.437   1.940
 1867SOL    HW1 5987   1.336   2.416   2.021
 1867SOL    HW2 5988   1.481   2.396   1.949
 1868SOL     OW 5989   0.527   2.118   2.190
 1868SOL    HW1 5990   0.554   2.059   2.115
 1868SOL    HW2 5991   0.527   2.213   2.159
 1869SOL     OW 5992   1.754   3.085   3.450
 1869SOL    HW1 5993   1.845   3.046   3.437
 1869SOL    HW2 5994   1.762   3.181   3.474
 1870SOL     OW 5995   1.064   3.209   3.202
 1870SOL    HW1 5996   0.984   3.186   3.257
 1870SOL    HW2 5997   1.147   3.183   3.251
 1871SOL     OW 5998   1.592   3.491   3.487
 1871SOL    HW1 5999   1.619   3.525   3.397
 1871SOL    HW2 6000   1.671   3.453   3.533
 1872SOL     OW 6001   1.111   3.057   2.962
 1872SOL    HW1 6002   1.071   3.101   3.043
 1872SOL    HW2 6003   1.070   3.094   2.879
 1873SOL     OW 6004   1.638   2.961   2.941
 1873SOL    HW1 6005   1.643   3.042   3.000
 1873SOL    HW2 6006   1.552   2.963   2.890
 1874SOL     OW 6007   0.915   1.951   3.264
 1874SOL    HW1 6008   0.940   1.931   3.169
 1874SOL    HW2 6009   0.987   2.007   3.306
 1875SOL     OW 6010   0.980   2.978   3.581
 1875SOL    HW1 6011   0.881   2.984   3.591
 1875SOL    HW2 6012   1.003   2.898   3.525
 1876SOL     OW 6013   0.705   2.912   2.230
 1876SOL    HW1 6014   0.691   2.919   2.329
 1876SOL    HW2 6015   0.789   2.861   2.212
 1877SOL     OW 6016   0.410   2.675   3.113
 1877SOL    HW1 6017   0.496   2.687   3.163
 1877SOL    HW2 6018   0.368   2.588   3.140
 1878SOL     OW 6019   1.274   2.248   3.124
 1878SOL    HW1 6020   1.295   2.322   3.188
 1878SOL    HW2 6021   1.185   2.265   3.081
 1879SOL     OW 6022   0.064   3.426   3.193
 1879SOL    HW1 6023   0.018   3.508   3.159
 1879SOL    HW2 6024   0.162   3.445   3.202
 1880SOL     OW 6025   0.367   2.962   2.363
 1880SOL    HW1 6026   0.360   3.045   2.307
 1880SOL    HW2 6027   0.371   2.882   2.303
 1881SOL     OW 6028   0.566   2.399   2.727
 1881SOL    HW1 6029   0.578   2.465   2.653
 1881SOL    HW2 6030   0.612   2.433   2.810
 1882SOL     OW 6031   1.252   3.210   2.250
 1882SOL    HW1 6032   1.302   3.287   2.290
 1882SOL    HW2 6033   1.157   3.212   2.282
 1883SOL     OW 6034   1.272   3.307   3.004
 1883SOL    HW1 6035   1.319   3.320   3.091
 1883SOL    HW2 6036   1.206   3.233   3.013
 1884SOL     OW 6037   1.582   2.501   2.334
 1884SOL    HW1 6038   1.551   2.562   2.407
 1884SOL    HW2 6039   1.632   2.553   2.265
 1885SOL     OW 6040   0.354   3.372   3.191
 1885SOL    HW1 6041   0.333   3.328   3.104
 1885SOL    HW2 6042   0.451   3.398   3.194
 1886SOL     OW 6043   0.402   2.613   3.460
 1886SOL    HW1 6044   0.470   2.668   3.413
 1886SOL    HW2 6045   0.442   2.525   3.487
 1887SOL     OW 6046   1.587   2.641   3.532
 1887SOL    HW1 6047   1.495   2.679   3.527
 1887SOL    HW2 6048   1.647   2.688   3.467
 1888SOL     OW 6049   1.013   1.967   3.632
 1888SOL    HW1 6050   1.019   2.052   3.580
 1888SOL    HW2 6051   1.045   1.891   3.575
 1889SOL     OW 6052   0.504   1.912   3.602
 1889SOL    HW1 6053   0.462   1.855   3.532
 1889SOL    HW2 6054   0.438   1.981   3.634
 1890SOL     OW 6055   0.573   2.732   2.891
 1890SOL    HW1 6056   0.617   2.821   2.882
 1890SOL    HW2 6057   0.510   2.732   2.968
 1891SOL     OW 6058   1.360   2.724   2.907
 1891SOL    HW1 6059   1.285   2.724   2.841
 1891SOL    HW2 6060   1.397   2.632   2.916
 1892SOL     OW 6061   1.209   2.387   2.137
 1892SOL    HW1 6062   1.222   2.303   2.191
 1892SOL    HW2 6063   1.180   2.461   2.197
 1893SOL     OW 6064   0.307   2.075   3.093
 1893SOL    HW1 6065   0.284   2.112   3.183
 1893SOL    HW2 6066   0.277   1.980   3.087
 1894SOL     OW 6067   0.037   3.172   3.144
 1894SOL    HW1 6068   0.090   3.123   3.212
 1894SOL    HW2 6069   0.059   3.270   3.149
 1895SOL     OW 6070   0.732   2.496   2.926
 1895SOL    HW1 6071   0.791   2.470   2.850
 1895SOL    HW2 6072   0.704   2.592   2.915
 1896SOL     OW 6073   1.728   2.797   3.716
 1896SOL    HW1 6074   1.682   2.790   3.627
 1896SOL    HW2 6075   1.666   2.841   3.782
 1897SOL     OW 6076   0.307   1.925   2.480
 1897SOL    HW1 6077   0.296   2.019   2.513
 1897SOL    HW2 6078   0.302   1.862   2.557
 1898SOL     OW 6079   1.622   2.229   2.236
 1898SOL    HW1 6080   1.624   2.153   2.300
 1898SOL    HW2 6081   1.574   2.306   2.276
 1899SOL     OW 6082   1.023   2.628   2.828
 1899SOL    HW1 6083   1.038   2.649   2.924
 1899SOL    HW2 6084   0.993   2.533   2.819
 1900SOL     OW 6085   0.980   3.435   3.562
 1900SOL    HW1 6086   0.960   3.479   3.474
 1900SOL    HW2 6087   1.019   3.344   3.546
 1901SOL     OW 6088   1.859   3.380   3.467
 1901SOL    HW1 6089   1.873   3.407   3.372
 1901SOL    HW2 6090   1.942   3.402   3.520
 1902SOL     OW 6091   0.350   2.760   3.666
 1902SOL    HW1 6092   0.426   2.804   3.714
 1902SOL    HW2 6093   0.385   2.713   3.584
 1903SOL     OW 6094   1.540   2.136   1.987
 1903SOL    HW1 6095   1.479   2.061   2.010
 1903SOL    HW2 6096   1.562   2.188   2.070
 1904SOL     OW 6097   1.303   2.700   1.904
 1904SOL    HW1 6098   1.337   2.607   1.919
 1904SOL    HW2 6099   1.321   2.727   1.809
 1905SOL     OW 6100   1.068   3.195   2.711
 1905SOL    HW1 6101   1.075   3.111   2.656
 1905SOL    HW2 6102   1.130   3.264   2.675
 1906SOL     OW 6103   0.319   2.672   2.811
 1906SOL    HW1 6104   0.412   2.708   2.816
 1906SOL    HW2 6105   0.313   2.587   2.863
 1907SOL     OW 6106   0.339   2.371   2.868
 1907SOL    HW1 6107   0.287   2.288   2.851
 1907SOL    HW2 6108   0.416   2.376   2.804
 1908SOL     OW 6109   1.138   2.242   3.540
 1908SOL    HW1 6110   1.093   2.305   3.604
 1908SOL    HW2 6111   1.231   2.273   3.523
 1909SOL     OW 6112   1.160   2.069   3.339
 1909SOL    HW1 6113   1.160   2.133   3.416
 1909SOL    HW2 6114   1.188   2.117   3.256
 1910SOL     OW 6115   0.008   3.188   2.062
 1910SOL    HW1 6116  -0.085   3.209   2.031
 1910SOL    HW2 6117   0.018   3.089   2.075
 1911SOL     OW 6118   0.088   3.663   2.789
 1911SOL    HW1 6119   0.046   3.577   2.762
 1911SOL    HW2 6120   0.182   3.666   2.755
 1912SOL     OW 6121   0.504   3.430   2.772
 1912SOL    HW1 6122   0.570   3.504   2.781
 1912SOL    HW2 6123   0.548   3.351   2.730
 1913SOL     OW 6124   1.002   2.658   3.100
 1913SOL    HW1 6125   1.043   2.626   3.186
 1913SOL    HW2 6126   0.906   2.631   3.097
 1914SOL     OW 6127   0.040   2.406   2.976
 1914SOL    HW1 6128   0.125   2.373   2.935
 1914SOL    HW2 6129   0.053   2.421   3.074
 1915SOL     OW 6130   0.189   2.382   3.584
 1915SOL    HW1 6131   0.248   2.342   3.514
 1915SOL    HW2 6132   0.131   2.453   3.543
 1916SOL     OW 6133   1.369   2.812   3.522
 1916SOL    HW1 6134   1.408   2.901   3.542
 1916SOL    HW2 6135   1.379   2.792   3.425
 1917SOL     OW 6136   0.815   2.434   2.187
 1917SOL    HW1 6137   0.822   2.345   2.141
 1917SOL    HW2 6138   0.721   2.468   2.179
 1918SOL     OW 6139   1.657   2.466   3.068
 1918SOL    HW1 6140   1.619   2.397   3.130
 1918SOL    HW2 6141   1.739   2.430   3.024
 1919SOL     OW 6142   0.252   3.426   3.606
 1919SOL    HW1 6143   0.222   3.483   3.682
 1919SOL    HW2 6144   0.245   3.329   3.632
 1920SOL     OW 6145   0.671   2.326   3.131
 1920SOL    HW1 6146   0.637   2.237   3.101
 1920SOL    HW2 6147   0.697   2.380   3.051
 1921SOL     OW 6148   0.930   3.540   3.327
 1921SOL    HW1 6149   0.906   3.522   3.232
 1921SOL    HW2 6150   0.960   3.634   3.337
 1922SOL     OW 6151   0.473   2.362   2.053
 1922SOL    HW1 6152   0.534   2.442   2.057
 1922SOL    HW2 6153   0.378   2.393   2.060
 1923SOL     OW 6154   0.159   2.999   3.328
 1923SOL    HW1 6155   0.181   2.938   3.404
 1923SOL    HW2 6156   0.169   2.950   3.242
 1924SOL     OW 6157   1.347   2.921   3.096
 1924SOL    HW1 6158   1.371   2.858   3.022
 1924SOL    HW2 6159   1.257   2.961   3.078
 1925SOL     OW 6160   1.302   2.717   2.171
 1925SOL    HW1 6161   1.216   2.686   2.213
 1925SOL    HW2 6162   1.298   2.703   2.072
 1926SOL     OW 6163   1.759   3.609   3.016
 1926SOL    HW1 6164   1.820   3.639   2.943
 1926SOL    HW2 6165   1.721   3.520   2.994
 1927SOL     OW 6166   1.252   3.593   2.990
 1927SOL    HW1 6167   1.336   3.598   2.936
 1927SOL    HW2 6168   1.229   3.497   3.008
 1928SOL     OW 6169   0.083   3.120   2.884
 1928SOL    HW1 6170   0.078   3.119   2.984
 1928SOL    HW2 6171   0.000   3.079   2.846
 1929SOL     OW 6172   0.688   3.524   3.578
 1929SOL    HW1 6173   0.632   3.605   3.587
 1929SOL    HW2 6174   0.740   3.528   3.492
 1930SOL     OW 6175   1.388   3.435   2.339
 1930SOL    HW1 6176   1.455   3.447   2.265
 1930SOL    HW2 6177   1.348   3.524   2.362
 1931SOL     OW 6178   0.130   3.656   3.713
 1931SOL    HW1 6179   0.089   3.582   3.766
 1931SOL    HW2 6180   0.194   3.707   3.771
 1932SOL     OW 6181   1.280   2.789   2.534
 1932SOL    HW1 6182   1.340   2.708   2.536
 1932SOL    HW2 6183   1.320   2.858   2.474
 1933SOL     OW 6184   0.830   3.135   3.284
 1933SOL    HW1 6185   0.825   3.168   3.379
 1933SOL    HW2 6186   0.744   3.154   3.238
 1934SOL     OW 6187   0.672   3.478   2.016
 1934SOL    HW1 6188   0.681   3.488   1.917
 1934SOL    HW2 6189   0.632   3.389   2.037
 1935SOL     OW 6190   1.650   3.582   3.256
 1935SOL    HW1 6191   1.703   3.592   3.172
 1935SOL    HW2 6192   1.623   3.672   3.290
 1936SOL     OW 6193   0.263   2.188   2.582
 1936SOL    HW1 6194   0.184   2.239   2.548
 1936SOL    HW2 6195   0.254   2.173   2.680
 1937SOL     OW 6196   1.194   3.474   1.893
 1937SOL    HW1 6197   1.200   3.381   1.930
 1937SOL    HW2 6198   1.135   3.474   1.813
 1938SOL     OW 6199   0.822   2.864   3.234
 1938SOL    HW1 6200   0.862   2.863   3.142
 1938SOL    HW2 6201   0.832   2.956   3.274
 1939SOL     OW 6202   0.916   2.772   2.153
 1939SOL    HW1 6203   0.979   2.810   2.085
 1939SOL    HW2 6204   0.956   2.689   2.192
 1940SOL     OW 6205   1.504   3.469   1.906
 1940SOL    HW1 6206   1.412   3.506   1.913
 1940SOL    HW2 6207   1.542   3.489   1.816
 1941SOL     OW 6208   0.372   3.150   3.352
 1941SOL    HW1 6209   0.359   3.243   3.318
 1941SOL    HW2 6210   0.288   3.098   3.339
 1942SOL     OW 6211   1.614   3.154   3.151
 1942SOL    HW1 6212   1.674   3.157   3.231
 1942SOL    HW2 6213   1.539   3.218   3.164
 1943SOL     OW 6214   1.039   2.960   2.558
 1943SOL    HW1 6215   0.969   2.913   2.612
 1943SOL    HW2 6216   1.098   2.892   2.515
 1944SOL     OW 6217   1.014   2.098   2.833
 1944SOL    HW1 6218   1.006   2.062   2.740
 1944SOL    HW2 6219   1.012   2.022   2.898
 1945SOL     OW 6220   0.590   3.349   2.353
 1945SOL    HW1 6221   0.632   3.291   2.283
 1945SOL    HW2 6222   0.546   3.428   2.309
 1946SOL     OW 6223   1.709   2.247   3.243
 1946SOL    HW1 6224   1.782   2.316   3.247
 1946SOL    HW2 6225   1.737   2.172   3.184
 1947SOL     OW 6226   0.255   3.210   2.152
 1947SOL    HW1 6227   0.159   3.211   2.125
 1947SOL    HW2 6228   0.267   3.263   2.236
 1948SOL     OW 6229   0.105   2.875   3.588
 1948SOL    HW1 6230   0.028   2.842   3.642
 1948SOL    HW2 6231   0.190   2.845   3.630
 1949SOL     OW 6232   0.672   2.065   3.351
 1949SOL    HW1 6233   0.762   2.049   3.311
 1949SOL    HW2 6234   0.680   2.070   3.450
 1950SOL     OW 6235   0.075   2.207   1.895
 1950SOL    HW1 6236  -0.017   2.179   1.866
 1950SOL    HW2 6237   0.106   2.284   1.839
 1951SOL     OW 6238   1.440   2.718   3.260
 1951SOL    HW1 6239   1.383   2.770   3.197
 1951SOL    HW2 6240   1.536   2.730   3.236
 1952SOL     OW 6241   0.072   2.028   2.180
 1952SOL    HW1 6242   0.055   2.111   2.126
 1952SOL    HW2 6243   0.162   1.991   2.158
 1953SOL     OW 6244   1.183   3.197   1.981
 1953SOL    HW1 6245   1.084   3.186   1.983
 1953SOL    HW2 6246   1.217   3.212   2.074
 1954SOL     OW 6247   0.613   2.704   3.293
 1954SOL    HW1 6248   0.669   2.785   3.276
 1954SOL    HW2 6249   0.672   2.624   3.296
 1955SOL     OW 6250   1.493   3.629   2.821
 1955SOL    HW1 6251   1.526   3.693   2.752
 1955SOL    HW2 6252   1.559   3.623   2.896
 1956SOL     OW 6253   0.716   2.427   3.570
 1956SOL    HW1 6254   0.735   2.492   3.644
 1956SOL    HW2 6255   0.776   2.347   3.579
 1957SOL     OW 6256   1.450   3.082   3.495
 1957SOL    HW1 6257   1.441   3.072   3.594
 1957SOL    HW2 6258   1.546   3.075   3.469
 1958SOL     OW 6259   0.390   3.603   3.422
 1958SOL    HW1 6260   0.299   3.644   3.420
 1958SOL    HW2 6261   0.383   3.509   3.454
 1959SOL     OW 6262   1.674   2.745   3.116
 1959SOL    HW1 6263   1.647   2.656   3.079
 1959SOL    HW2 6264   1.675   2.813   3.043
 1960SOL     OW 6265   1.225   2.187   2.311
 1960SOL    HW1 6266   1.290   2.113   2.300
 1960SOL    HW2 6267   1.245   2.237   2.395
 1961SOL     OW 6268   0.594   2.607   2.514
 1961SOL    HW1 6269   0.644   2.692   2.495
 1961SOL    HW2 6270   0.506   2.609   2.466
 1962SOL     OW 6271   1.777   2.204   3.504
 1962SOL    HW1 6272   1.760   2.235   3.410
 1962SOL    HW2 6273   1.693   2.167   3.542
 1963SOL     OW 6274   1.730   2.796   3.379
 1963SOL    HW1 6275   1.768   2.887   3.394
 1963SOL    HW2 6276   1.722   2.779   3.280
 1964SOL     OW 6277   0.859   3.236   1.878
 1964SOL    HW1 6278   0.813   3.251   1.966
 1964SOL    HW2 6279   0.903   3.321   1.848
 1965SOL     OW 6280   0.661   3.652   2.815
 1965SOL    HW1 6281   0.615   3.740   2.802
 1965SOL    HW2 6282   0.760   3.664   2.808
 1966SOL     OW 6283   0.859   2.818   2.723
 1966SOL    HW1 6284   0.913   2.749   2.771
 1966SOL    HW2 6285   0.827   2.887   2.789
 1967SOL     OW 6286   1.083   2.846   1.949
 1967SOL    HW1 6287   1.060   2.899   1.867
 1967SOL    HW2 6288   1.164   2.790   1.930
 1968SOL     OW 6289   1.861   3.431   2.713
 1968SOL    HW1 6290   1.790   3.419   2.643
 1968SOL    HW2 6291   1.862   3.352   2.773
 1969SOL     OW 6292   0.221   3.176   3.706
 1969SOL    HW1 6293   0.156   3.103   3.685
 1969SOL    HW2 6294   0.225   3.190   3.804
 1970SOL     OW 6295   0.079   3.102   2.515
 1970SOL    HW1 6296   0.078   3.055   2.603
 1970SOL    HW2 6297   0.161   3.074   2.464
 1971SOL     OW 6298   0.672   3.253   3.486
 1971SOL    HW1 6299   0.594   3.203   3.524
 1971SOL    HW2 6300   0.669   3.348   3.517
 1972SOL     OW 6301   0.428   2.286   2.382
 1972SOL    HW1 6302   0.458   2.214   2.320
 1972SOL    HW2 6303   0.389   2.246   2.465
 1973SOL     OW 6304   1.705   3.349   2.966
 1973SOL    HW1 6305   1.612   3.324   2.939
 1973SOL    HW2 6306   1.731   3.299   3.048
 1974SOL     OW 6307   0.317   2.409   3.142
 1974SOL    HW1 6308   0.355   2.350   3.214
 1974SOL    HW2 6309   0.357   2.383   3.054
 1975SOL     OW 6310   0.812   3.448   2.549
 1975SOL    HW1 6311   0.844   3.458   2.455
 1975SOL    HW2 6312   0.733   3.386   2.551
 1976SOL     OW 6313   1.424   2.076   2.974
 1976SOL    HW1 6314   1.476   2.011   3.029
 1976SOL    HW2 6315   1.375   2.139   3.035
 1977SOL     OW 6316   1.001   1.896   3.016
 1977SOL    HW1 6317   0.938   1.824   2.985
 1977SOL    HW2 6318   1.094   1.860   3.016
 1978SOL     OW 6319   0.770   3.192   2.163
 1978SOL    HW1 6320   0.724   3.105   2.180
 1978SOL    HW2 6321   0.861   3.189   2.204
 1979SOL     OW 6322   0.618   3.429   3.146
 1979SOL    HW1 6323   0.613   3.511   3.203
 1979SOL    HW2 6324   0.707   3.426   3.101
 1980SOL     OW 6325   1.352   1.914   2.030
 1980SOL    HW1 6326   1.387   1.873   1.946
 1980SOL    HW2 6327   1.262   1.876   2.050
 1981SOL     OW 6328   1.300   2.315   2.553
 1981SOL    HW1 6329   1.241   2.395   2.557
 1981SOL    HW2 6330   1.315   2.280   2.646
 1982SOL     OW 6331   1.593   2.083   2.744
 1982SOL    HW1 6332   1.509   2.082   2.798
 1982SOL    HW2 6333   1.595   2.166   2.688
 1983SOL     OW 6334   0.039   2.939   2.162
 1983SOL    HW1 6335   0.138   2.928   2.153
 1983SOL    HW2 6336  -0.001   2.853   2.194
 1984SOL     OW 6337   0.875   3.508   2.199
 1984SOL    HW1 6338   0.798   3.473   2.145
 1984SOL    HW2 6339   0.843   3.579   2.261
 1985SOL     OW 6340   0.230   2.490   3.837
 1985SOL    HW1 6341   0.137   2.488   3.874
 1985SOL    HW2 6342   0.231   2.451   3.745
 1986SOL     OW 6343   0.225   2.137   4.720
 1986SOL    HW1 6344   0.260   2.120   4.812
 1986SOL    HW2 6345   0.137   2.092   4.708
 1987SOL     OW 6346   0.019   2.230   4.371
 1987SOL    HW1 6347  -0.063   2.273   4.410
 1987SOL    HW2 6348  -0.009   2.157   4.308
 1988SOL     OW 6349   0.569   3.137   4.889
 1988SOL    HW1 6350   0.476   3.130   4.852
 1988SOL    HW2 6351   0.580   3.226   4.933
 1989SOL     OW 6352   1.555   3.373   4.427
 1989SOL    HW1 6353   1.498   3.357   4.508
 1989SOL    HW2 6354   1.496   3.383   4.347
 1990SOL     OW 6355   1.135   2.565   4.441
 1990SOL    HW1 6356   1.192   2.643   4.416
 1990SOL    HW2 6357   1.075   2.591   4.517
 1991SOL     OW 6358   1.755   2.469   3.955
 1991SOL    HW1 6359   1.743   2.456   3.856
 1991SOL    HW2 6360   1.725   2.388   4.004
 1992SOL     OW 6361   0.768   3.006   4.747
 1992SOL    HW1 6362   0.690   3.023   4.807
 1992SOL    HW2 6363   0.802   3.093   4.711
 1993SOL     OW 6364   0.850   2.660   5.547
 1993SOL    HW1 6365   0.846   2.736   5.612
 1993SOL    HW2 6366   0.872   2.696   5.456
 1994SOL     OW 6367   0.685   2.874   4.389
 1994SOL    HW1 6368   0.754   2.858   4.459
 1994SOL    HW2 6369   0.612   2.931   4.427
 1995SOL     OW 6370   0.686   3.023   5.527
 1995SOL    HW1 6371   0.746   3.102   5.541
 1995SOL    HW2 6372   0.600   3.054   5.486
 1996SOL     OW 6373   0.335   3.297   4.785
 1996SOL    HW1 6374   0.257   3.266   4.732
 1996SOL    HW2 6375   0.393   3.355   4.728
 1997SOL     OW 6376   1.460   3.367   5.063
 1997SOL    HW1 6377   1.484   3.461   5.089
 1997SOL    HW2 6378   1.444   3.313   5.145
 1998SOL     OW 6379   0.438   2.254   5.223
 1998SOL    HW1 6380   0.520   2.198   5.232
 1998SOL    HW2 6381   0.357   2.196   5.227
 1999SOL     OW 6382   1.603   2.309   4.461
 1999SOL    HW1 6383   1.529   2.355   4.411
 1999SOL    HW2 6384   1.654   2.377   4.514
 2000SOL     OW 6385   0.231   3.575   4.207
 2000SOL    HW1 6386   0.265   3.652   4.261
 2000SOL    HW2 6387   0.275   3.575   4.117
 2001SOL     OW 6388   1.127   3.203   5.414
 2001SOL    HW1 6389   1.174   3.203   5.502
 2001SOL    HW2 6390   1.079   3.116   5.403
 2002SOL     OW 6391   0.230   3.296   4.262
 2002SOL    HW1 6392   0.204   3.392   4.262
 2002SOL    HW2 6393   0.159   3.242   4.307
 2003SOL     OW 6394   0.240   2.953   4.610
 2003SOL    HW1 6395   0.254   2.869   4.662
 2003SOL    HW2 6396   0.185   3.017   4.665
 2004SOL     OW 6397   0.620   3.648   5.163
 2004SOL    HW1 6398   0.528   3.631   5.198
 2004SOL    HW2 6399   0.648   3.740   5.189
 2005SOL     OW 6400   0.606   2.826   3.847
 2005SOL    HW1 6401   0.613   2.910   3.793
 2005SOL    HW2 6402   0.652   2.839   3.935
 2006SOL     OW 6403   1.594   1.976   5.204
 2006SOL    HW1 6404   1.576   2.043   5.132
 2006SOL    HW2 6405   1.591   2.022   5.293
 2007SOL     OW 6406   0.122   2.505   4.287
 2007SOL    HW1 6407   0.077   2.417   4.304
 2007SOL    HW2 6408   0.121   2.559   4.371
 2008SOL     OW 6409   1.842   3.629   4.083
 2008SOL    HW1 6410   1.896   3.600   4.163
 2008SOL    HW2 6411   1.872   3.719   4.054
 2009SOL     OW 6412   0.027   3.458   3.841
 2009SOL    HW1 6413   0.008   3.362   3.862
 2009SOL    HW2 6414  -0.006   3.516   3.916
 2010SOL     OW 6415   1.689   2.784   4.336
 2010SOL    HW1 6416   1.784   2.755   4.344
 2010SOL    HW2 6417   1.681   2.849   4.261
 2011SOL     OW 6418   1.641   2.970   4.156
 2011SOL    HW1 6419   1.727   2.972   4.104
 2011SOL    HW2 6420   1.655   3.017   4.244
 2012SOL     OW 6421   0.113   2.599   5.321
 2012SOL    HW1 6422   0.201   2.586   5.366
 2012SOL    HW2 6423   0.100   2.696   5.299
 2013SOL     OW 6424   0.613   3.227   4.450
 2013SOL    HW1 6425   0.564   3.140   4.459
 2013SOL    HW2 6426   0.590   3.270   4.363
 2014SOL     OW 6427   1.293   3.090   5.147
 2014SOL    HW1 6428   1.330   3.017   5.089
 2014SOL    HW2 6429   1.345   3.095   5.232
 2015SOL     OW 6430   0.809   1.866   4.226
 2015SOL    HW1 6431   0.849   1.957   4.217
 2015SOL    HW2 6432   0.709   1.874   4.232
 2016SOL     OW 6433   0.197   2.838   4.988
 2016SOL    HW1 6434   0.286   2.793   4.974
 2016SOL    HW2 6435   0.124   2.773   4.969
 2017SOL     OW 6436   1.525   2.861   3.914
 2017SOL    HW1 6437   1.462   2.785   3.927
 2017SOL    HW2 6438   1.573   2.879   4.000
 2018SOL     OW 6439   1.187   3.654   5.340
 2018SOL    HW1 6440   1.211   3.714   5.264
 2018SOL    HW2 6441   1.194   3.559   5.310
 2019SOL     OW 6442   0.317   2.113   5.525
 2019SOL    HW1 6443   0.388   2.184   5.531
 2019SOL    HW2 6444   0.229   2.152   5.553
 2020SOL     OW 6445   1.466   3.279   4.677
 2020SOL    HW1 6446   1.407   3.285   4.757
 2020SOL    HW2 6447   1.451   3.191   4.631
 2021SOL     OW 6448   1.667   3.576   4.296
 2021SOL    HW1 6449   1.626   3.553   4.208
 2021SOL    HW2 6450   1.649   3.502   4.361
 2022SOL     OW 6451   0.598   2.591   3.994
 2022SOL    HW1 6452   0.622   2.660   3.926
 2022SOL    HW2 6453   0.520   2.624   4.048
 2023SOL     OW 6454   1.281   2.207   4.668
 2023SOL    HW1 6455   1.195   2.157   4.655
 2023SOL    HW2 6456   1.343   2.153   4.724
 2024SOL     OW 6457   1.576   3.524   4.031
 2024SOL    HW1 6458   1.665   3.570   4.034
 2024SOL    HW2 6459   1.555   3.500   3.936
 2025SOL     OW 6460   0.807   2.467   5.189
 2025SOL    HW1 6461   0.760   2.464   5.278
 2025SOL    HW2 6462   0.756   2.412   5.123
 2026SOL     OW 6463   1.394   2.331   5.398
 2026SOL    HW1 6464   1.374   2.374   5.486
 2026SOL    HW2 6465   1.472   2.269   5.407
 2027SOL     OW 6466   0.973   2.752   5.296
 2027SOL    HW1 6467   1.019   2.668   5.267
 2027SOL    HW2 6468   0.917   2.786   5.221
 2028SOL     OW 6469   0.991   2.272   4.966
 2028SOL    HW1 6470   0.914   2.306   5.020
 2028SOL    HW2 6471   0.957   2.221   4.887
 2029SOL     OW 6472   1.041   2.563   4.153
 2029SOL    HW1 6473   1.067   2.559   4.249
 2029SOL    HW2 6474   0.956   2.512   4.139
 2030SOL     OW 6475   0.076   2.673   4.513
 2030SOL    HW1 6476   0.175   2.661   4.522
 2030SOL    HW2 6477   0.052   2.768   4.534
 2031SOL     OW 6478   0.130   3.683   5.295
 2031SOL    HW1 6479   0.120   3.668   5.394
 2031SOL    HW2 6480   0.044   3.719   5.259
 2032SOL     OW 6481   0.865   2.210   3.919
 2032SOL    HW1 6482   0.924   2.273   3.870
 2032SOL    HW2 6483   0.884   2.116   3.890
 2033SOL     OW 6484   1.719   2.447   5.555
 2033SOL    HW1 6485   1.693   2.536   5.519
 2033SOL    HW2 6486   1.717   2.379   5.482
 2034SOL     OW 6487   1.362   3.006   4.269
 2034SOL    HW1 6488   1.445   2.977   4.221
 2034SOL    HW2 6489   1.313   3.073   4.213
 2035SOL     OW 6490   0.550   2.058   4.609
 2035SOL    HW1 6491   0.545   2.053   4.709
 2035SOL    HW2 6492   0.552   2.154   4.580
 2036SOL     OW 6493   1.008   3.318   4.201
 2036SOL    HW1 6494   0.962   3.390   4.149
 2036SOL    HW2 6495   1.004   3.338   4.299
 2037SOL     OW 6496   0.351   3.663   4.577
 2037SOL    HW1 6497   0.401   3.577   4.583
 2037SOL    HW2 6498   0.416   3.740   4.574
 2038SOL     OW 6499   1.795   2.928   4.597
 2038SOL    HW1 6500   1.733   2.913   4.521
 2038SOL    HW2 6501   1.743   2.939   4.682
 2039SOL     OW 6502   1.227   3.412   5.230
 2039SOL    HW1 6503   1.233   3.335   5.294
 2039SOL    HW2 6504   1.175   3.386   5.150
 2040SOL     OW 6505   0.321   2.805   3.966
 2040SOL    HW1 6506   0.403   2.844   3.924
 2040SOL    HW2 6507   0.294   2.723   3.917
 2041SOL     OW 6508   1.458   2.597   4.452
 2041SOL    HW1 6509   1.453   2.532   4.527
 2041SOL    HW2 6510   1.538   2.656   4.465
 2042SOL     OW 6511   0.461   3.128   5.451
 2042SOL    HW1 6512   0.411   3.129   5.365
 2042SOL    HW2 6513   0.398   3.110   5.527
 2043SOL     OW 6514   1.111   3.638   3.961
 2043SOL    HW1 6515   1.051   3.576   4.011
 2043SOL    HW2 6516   1.142   3.594   3.876
 2044SOL     OW 6517   0.202   2.147   5.222
 2044SOL    HW1 6518   0.122   2.207   5.209
 2044SOL    HW2 6519   0.192   2.098   5.308
 2045SOL     OW 6520   1.632   3.239   3.805
 2045SOL    HW1 6521   1.600   3.333   3.795
 2045SOL    HW2 6522   1.556   3.176   3.793
 2046SOL     OW 6523   0.464   3.605   4.047
 2046SOL    HW1 6524   0.497   3.644   4.133
 2046SOL    HW2 6525   0.540   3.598   3.982
 2047SOL     OW 6526   1.400   1.969   4.150
 2047SOL    HW1 6527   1.376   1.932   4.060
 2047SOL    HW2 6528   1.499   1.985   4.154
 2048SOL     OW 6529   0.249   3.647   4.965
 2048SOL    HW1 6530   0.306   3.582   5.015
 2048SOL    HW2 6531   0.233   3.614   4.872
 2049SOL     OW 6532   0.940   3.560   4.628
 2049SOL    HW1 6533   1.020   3.503   4.649
 2049SOL    HW2 6534   0.891   3.520   4.551
 2050SOL     OW 6535   0.382   2.562   4.204
 2050SOL    HW1 6536   0.427   2.472   4.201
 2050SOL    HW2 6537   0.288   2.551   4.237
 2051SOL     OW 6538   1.547   2.084   5.453
 2051SOL    HW1 6539   1.542   2.121   5.545
 2051SOL    HW2 6540   1.475   2.015   5.441
 2052SOL     OW 6541   0.614   1.984   3.841
 2052SOL    HW1 6542   0.712   1.962   3.848
 2052SOL    HW2 6543   0.583   1.967   3.748
 2053SOL     OW 6544   0.781   2.126   5.473
 2053SOL    HW1 6545   0.848   2.065   5.516
 2053SOL    HW2 6546   0.708   2.145   5.538
 2054SOL     OW 6547   0.888   3.376   4.919
 2054SOL    HW1 6548   0.865   3.351   4.825
 2054SOL    HW2 6549   0.949   3.307   4.958
 2055SOL     OW 6550   1.351   2.452   5.157
 2055SOL    HW1 6551   1.379   2.409   5.242
 2055SOL    HW2 6552   1.376   2.548   5.158
 2056SOL     OW 6553   0.803   3.264   4.648
 2056SOL    HW1 6554   0.893   3.278   4.606
 2056SOL    HW2 6555   0.732   3.266   4.577
 2057SOL     OW 6556   0.922   2.365   4.623
 2057SOL    HW1 6557   0.897   2.356   4.527
 2057SOL    HW2 6558   0.970   2.283   4.654
 2058SOL     OW 6559   0.539   1.926   4.236
 2058SOL    HW1 6560   0.458   1.927   4.294
 2058SOL    HW2 6561   0.542   2.009   4.181
 2059SOL     OW 6562   1.434   3.050   3.765
 2059SOL    HW1 6563   1.466   2.974   3.822
 2059SOL    HW2 6564   1.342   3.077   3.795
 2060SOL     OW 6565   0.297   1.897   3.895
 2060SOL    HW1 6566   0.346   1.981   3.874
 2060SOL    HW2 6567   0.359   1.832   3.940
 2061SOL     OW 6568   0.935   2.098   4.204
 2061SOL    HW1 6569   0.887   2.139   4.126
 2061SOL    HW2 6570   1.034   2.096   4.185
 2062SOL     OW 6571   1.076   2.545   5.188
 2062SOL    HW1 6572   0.996   2.484   5.191
 2062SOL    HW2 6573   1.157   2.492   5.164
 2063SOL     OW 6574   1.227   3.432   4.517
 2063SOL    HW1 6575   1.248   3.506   4.452
 2063SOL    HW2 6576   1.295   3.432   4.590
 2064SOL     OW 6577   0.459   3.014   4.465
 2064SOL    HW1 6578   0.388   2.987   4.530
 2064SOL    HW2 6579   0.433   2.986   4.372
 2065SOL     OW 6580   1.271   3.659   4.315
 2065SOL    HW1 6581   1.315   3.723   4.251
 2065SOL    HW2 6582   1.221   3.711   4.385
 2066SOL     OW 6583   1.032   2.411   3.740
 2066SOL    HW1 6584   0.991   2.493   3.701
 2066SOL    HW2 6585   1.096   2.437   3.813
 2067SOL     OW 6586   0.078   2.418   5.110
 2067SOL    HW1 6587   0.170   2.417   5.069
 2067SOL    HW2 6588   0.072   2.492   5.177
 2068SOL     OW 6589   0.561   2.084   4.871
 2068SOL    HW1 6590   0.599   2.000   4.908
 2068SOL    HW2 6591   0.473   2.103   4.915
 2069SOL     OW 6592   0.866   2.316   4.366
 2069SOL    HW1 6593   0.834   2.388   4.304
 2069SOL    HW2 6594   0.890   2.235   4.313
 2070SOL     OW 6595   1.017   1.901   4.477
 2070SOL    HW1 6596   0.945   1.906   4.408
 2070SOL    HW2 6597   0.993   1.832   4.546
 2071SOL     OW 6598   1.429   3.035   4.591
 2071SOL    HW1 6599   1.374   2.951   4.584
 2071SOL    HW2 6600   1.455   3.064   4.499
 2072SOL     OW 6601   1.466   2.452   4.716
 2072SOL    HW1 6602   1.436   2.357   4.723
 2072SOL    HW2 6603   1.539   2.468   4.782
 2073SOL     OW 6604   1.857   2.695   4.101
 2073SOL    HW1 6605   1.899   2.631   4.165
 2073SOL    HW2 6606   1.819   2.644   4.023
 2074SOL     OW 6607   0.488   3.247   3.898
 2074SOL    HW1 6608   0.401   3.232   3.945
 2074SOL    HW2 6609   0.471   3.273   3.803
 2075SOL     OW 6610   1.664   3.142   4.381
 2075SOL    HW1 6611   1.763   3.150   4.395
 2075SOL    HW2 6612   1.619   3.226   4.412
 2076SOL     OW 6613   1.390   2.437   3.802
 2076SOL    HW1 6614   1.336   2.416   3.883
 2076SOL    HW2 6615   1.481   2.396   3.811
 2077SOL     OW 6616   0.527   2.118   4.052
 2077SOL    HW1 6617   0.554   2.059   3.977
 2077SOL    HW2 6618   0.527   2.213   4.021
 2078SOL     OW 6619   1.754   3.085   5.312
 2078SOL    HW1 6620   1.845   3.046   5.299
 2078SOL    HW2 6621   1.762   3.181   5.336
 2079SOL     OW 6622   1.064   3.209   5.064
 2079SOL    HW1 6623   0.984   3.186   5.119
 2079SOL    HW2 6624   1.147   3.183   5.113
 2080SOL     OW 6625   1.592   3.491   5.349
 2080SOL    HW1 6626   1.619   3.525   5.259
 2080SOL    HW2 6627   1.671   3.453   5.395
 2081SOL     OW 6628   1.111   3.057   4.824
 2081SOL    HW1 6629   1.071   3.101   4.905
 2081SOL    HW2 6630   1.070   3.094   4.741
 2082SOL     OW 6631   1.638   2.961   4.803
 2082SOL    HW1 6632   1.643   3.042   4.862
 2082SOL    HW2 6633   1.552   2.963   4.752
 2083SOL     OW 6634   0.915   1.951   5.126
 2083SOL    HW1 6635   0.940   1.931   5.031
 2083SOL    HW2 6636   0.987   2.007   5.168
 2084SOL     OW 6637   0.980   2.978   5.443
 2084SOL    HW1 6638   0.881   2.984   5.453
 2084SOL    HW2 6639   1.003   2.898   5.387
 2085SOL     OW 6640   0.705   2.912   4.092
 2085SOL    HW1 6641   0.691   2.919   4.191
 2085SOL    HW2 6642   0.789   2.861   4.074
 2086SOL     OW 6643   0.410   2.675   4.975
 2086SOL    HW1 6644   0.496   2.687   5.025
 2086SOL    HW2 6645   0.368   2.588   5.002
 2087SOL     OW 6646   1.274   2.248   4.986
 2087SOL    HW1 6647   1.295   2.322   5.050
 2087SOL    HW2 6648   1.185   2.265   4.943
 2088SOL     OW 6649   0.064   3.426   5.055
 2088SOL    HW1 6650   0.018   3.508   5.021
 2088SOL    HW2 6651   0.162   3.445   5.064
 2089SOL     OW 6652   0.367   2.962   4.225
 2089SOL    HW1 6653   0.360   3.045   4.169
 2089SOL    HW2 6654   0.371   2.882   4.165
 2090SOL     OW 6655   0.566   2.399   4.589
 2090SOL    HW1 6656   0.578   2.465   4.515
 2090SOL    HW2 6657   0.612   2.433   4.672
 2091SOL     OW 6658   1.252   3.210   4.112
 2091SOL    HW1 6659   1.302   3.287   4.152
 2091SOL    HW2 6660   1.157   3.212   4.144
 2092SOL     OW 6661   1.272   3.307   4.866
 2092SOL    HW1 6662   1.319   3.320   4.953
 2092SOL    HW2 6663   1.206   3.233   4.875
 2093SOL     OW 6664   1.582   2.501   4.196
 2093SOL    HW1 6665   1.551   2.562   4.269
 2093SOL    HW2 6666   1.632   2.553   4.127
 2094SOL     OW 6667   0.354   3.372   5.053
 2094SOL    HW1 6668   0.333   3.328   4.966
 2094SOL    HW2 6669   0.451   3.398   5.056
 2095SOL     OW 6670   0.402   2.613   5.322
 2095SOL    HW1 6671   0.470   2.668   5.275
 2095SOL    HW2 6672   0.442   2.525   5.349
 2096SOL     OW 6673   1.587   2.641   5.394
 2096SOL    HW1 6674   1.495   2.679   5.389
 2096SOL    HW2 6675   1.647   2.688   5.329
 2097SOL     OW 6676   1.013   1.967   5.494
 2097SOL    HW1 6677   1.019   2.052   5.442
 2097SOL    HW2 6678   1.045   1.891   5.437
 2098SOL     OW 6679   0.504   1.912   5.464
 2098SOL    HW1 6680   0.462   1.855   5.394
 2098SOL    HW2 6681   0.438   1.981   5.496
 2099SOL     OW 6682   0.573   2.732   4.753
 2099SOL    HW1 6683   0.617   2.821   4.744
 2099SOL    HW2 6684   0.510   2.732   4.830
 2100SOL     OW 6685   1.360   2.724   4.769
 2100SOL    HW1 6686   1.285   2.724   4.703
 2100SOL    HW2 6687   1.397   2.632   4.778
 2101SOL     OW 6688   1.209   2.387   3.999
 2101SOL    HW1 6689   1.222   2.303   4.053
 2101SOL    HW2 6690   1.180   2.461   4.059
 2102SOL     OW 6691   0.307   2.075   4.955
 2102SOL    HW1 6692   0.284   2.112   5.045
 2102SOL    HW2 6693   0.277   1.980   4.949
 2103SOL     OW 6694   0.037   3.172   5.006
 2103SOL    HW1 6695   0.090   3.123   5.074
 2103SOL    HW2 6696   0.059   3.270   5.011
 2104SOL     OW 6697   0.732   2.496   4.788
 2104SOL    HW1 6698   0.791   2.470   4.712
 2104SOL    HW2 6699   0.704   2.592   4.777
 2105SOL     OW 6700   1.728   2.797   5.578
 2105SOL    HW1 6701   1.682   2.790   5.489
 2105SOL    HW2 6702   1.666   2.841   5.644
 2106SOL     OW 6703   0.307   1.925   4.342
 2106SOL    HW1 6704   0.296   2.019   4.375
 2106SOL    HW2 6705   0.302   1.862   4.419
 2107SOL     OW 6706   1.622   2.229   4.098
 2107SOL    HW1 6707   1.624   2.153   4.162
 2107SOL    HW2 6708   1.574   2.306   4.138
 2108SOL     OW 6709   1.023   2.628   4.690
 2108SOL    HW1 6710   1.038   2.649   4.786
 2108SOL    HW2 6711   0.993   2.533   4.681
 2109SOL     OW 6712   0.980   3.435   5.424
 2109SOL    HW1 6713   0.960   3.479   5.336
 2109SOL    HW2 6714   1.019   3.344   5.408
 2110SOL     OW 6715   1.859   3.380   5.329
 2110SOL    HW1 6716   1.873   3.407   5.234
 2110SOL    HW2 6717   1.942   3.402   5.382
 2111SOL     OW 6718   0.350   2.760   5.528
 2111SOL    HW1 6719   0.426   2.804   5.576
 2111SOL    HW2 6720   0.385   2.713   5.446
 2112SOL     OW 6721   1.540   2.136   3.849
 2112SOL    HW1 6722   1.479   2.061   3.872
 2112SOL    HW2 6723   1.562   2.188   3.932
 2113SOL     OW 6724   1.303   2.700   3.766
 2113SOL    HW1 6725   1.337   2.607   3.781
 2113SOL    HW2 6726   1.321   2.727   3.671
 2114SOL     OW 6727   1.068   3.195   4.573
 2114SOL    HW1 6728   1.075   3.111   4.518
 2114SOL    HW2 6729   1.130   3.264   4.537
 2115SOL     OW 6730   0.319   2.672   4.673
 2115SOL    HW1 6731   0.412   2.708   4.678
 2115SOL    HW2 6732   0.313   2.587   4.725
 2116SOL     OW 6733   0.339   2.371   4.730
 2116SOL    HW1 6734   0.287   2.288   4.713
 2116SOL    HW2 6735   0.416   2.376   4.666
 2117SOL     OW 6736   1.138   2.242   5.402
 2117SOL    HW1 6737   1.093   2.305   5.466
 2117SOL    HW2 6738   1.231   2.273   5.385
 2118SOL     OW 6739   1.160   2.069   5.201
 2118SOL    HW1 6740   1.160   2.133   5.278
 2118SOL    HW2 6741   1.188   2.117   5.118
 2119SOL     OW 6742   0.008   3.188   3.924
 2119SOL    HW1 6743  -0.085   3.209   3.893
 2119SOL    HW2 6744   0.018   3.089   3.937
 2120SOL     OW 6745   0.088   3.663   4.651
 2120SOL    HW1 6746   0.046   3.577   4.624
 2120SOL    HW2 6747   0.182   3.666   4.617
 2121SOL     OW 6748   0.504   3.430   4.634
 2121SOL    HW1 6749   0.570   3.504   4.643
 2121SOL    HW2 6750   0.548   3.351   4.592
 2122SOL     OW 6751   1.002   2.658   4.962
 2122SOL    HW1 6752   1.043   2.626   5.048
 2122SOL    HW2 6753   0.906   2.631   4.959
 2123SOL     OW 6754   0.040   2.406   4.838
 2123SOL    HW1 6755   0.125   2.373   4.797
 2123SOL    HW2 6756   0.053   2.421   4.936
 2124SOL     OW 6757   0.189   2.382   5.446
 2124SOL    HW1 6758   0.248   2.342   5.376
 2124SOL    HW2 6759   0.131   2.453   5.405
 2125SOL     OW 6760   1.369   2.812   5.384
 2125SOL    HW1 6761   1.408   2.901   5.404
 2125SOL    HW2 6762   1.379   2.792   5.287
 2126SOL     OW 6763   0.815   2.434   4.049
 2126SOL    HW1 6764   0.822   2.345   4.003
 2126SOL    HW2 6765   0.721   2.468   4.041
 2127SOL     OW 6766   1.657   2.466   4.930
 2127SOL    HW1 6767   1.619   2.397   4.992
 2127SOL    HW2 6768   1.739   2.430   4.886
 2128SOL     OW 6769   0.252   3.426   5.468
 2128SOL    HW1 6770   0.222   3.483   5.544
 2128SOL    HW2 6771   0.245   3.329   5.494
 2129SOL     OW 6772   0.671   2.326   4.993
 2129SOL    HW1 6773   0.637   2.237   4.963
 2129SOL    HW2 6774   0.697   2.380   4.913
 2130SOL     OW 6775   0.930   3.540   5.189
 2130SOL    HW1 6776   0.906   3.522   5.094
 2130SOL    HW2 6777   0.960   3.634   5.199
 2131SOL     OW 6778   0.473   2.362   3.915
 2131SOL    HW1 6779   0.534   2.442   3.919
 2131SOL    HW2 6780   0.378   2.393   3.922
 2132SOL     OW 6781   0.159   2.999   5.190
 2132SOL    HW1 6782   0.181   2.938   5.266
 2132SOL    HW2 6783   0.169   2.950   5.104
 2133SOL     OW 6784   1.347   2.921   4.958
 2133SOL    HW1 6785   1.371   2.858   4.884
 2133SOL    HW2 6786   1.257   2.961   4.940
 2134SOL     OW 6787   1.302   2.717   4.033
 2134SOL    HW1 6788   1.216   2.686   4.075
 2134SOL    HW2 6789   1.298   2.703   3.934
 2135SOL     OW 6790   1.759   3.609   4.878
 2135SOL    HW1 6791   1.820   3.639   4.805
 2135SOL    HW2 6792   1.721   3.520   4.856
 2136SOL     OW 6793   1.252   3.593   4.852
 2136SOL    HW1 6794   1.336   3.598   4.798
 2136SOL    HW2 6795   1.229   3.497   4.870
 2137SOL     OW 6796   0.083   3.120   4.746
 2137SOL    HW1 6797   0.078   3.119   4.846
 2137SOL    HW2 6798   0.000   3.079   4.708
 2138SOL     OW 6799   0.688   3.524   5.440
 2138SOL    HW1 6800   0.632   3.605   5.449
 2138SOL    HW2 6801   0.740   3.528   5.354
 2139SOL     OW 6802   1.388   3.435   4.201
 2139SOL    HW1 6803   1.455   3.447   4.127
 2139SOL    HW2 6804   1.348   3.524   4.224
 2140SOL     OW 6805   0.130   3.656   5.575
 2140SOL    HW1 6806   0.089   3.582   5.628
 2140SOL    HW2 6807   0.194   3.707   5.633
 2141SOL     OW 6808   1.280   2.789   4.396
 2141SOL    HW1 6809   1.340   2.708   4.398
 2141SOL    HW2 6810   1.320   2.858   4.336
 2142SOL     OW 6811   0.830   3.135   5.146
 2142SOL    HW1 6812   0.825   3.168   5.241
 2142SOL    HW2 6813   0.744   3.154   5.100
 2143SOL     OW 6814   0.672   3.478   3.878
 2143SOL    HW1 6815   0.681   3.488   3.779
 2143SOL    HW2 6816   0.632   3.389   3.899
 2144SOL     OW 6817   1.650   3.582   5.118
 2144SOL    HW1 6818   1.703   3.592   5.034
 2144SOL    HW2 6819   1.623   3.672   5.152
 2145SOL     OW 6820   0.263   2.188   4.444
 2145SOL    HW1 6821   0.184   2.239   4.410
 2145SOL    HW2 6822   0.254   2.173   4.542
 2146SOL     OW 6823   1.194   3.474   3.755
 2146SOL    HW1 6824   1.200   3.381   3.792
 2146SOL    HW2 6825   1.135   3.474   3.675
 2147SOL     OW 6826   0.822   2.864   5.096
 2147SOL    HW1 6827   0.862   2.863   5.004
 2147SOL    HW2 6828   0.832   2.956   5.136
 2148SOL     OW 6829   0.916   2.772   4.015
 2148SOL    HW1 6830   0.979   2.810   3.947
 2148SOL    HW2 6831   0.956   2.689   4.054
 2149SOL     OW 6832   1.504   3.469   3.768
 2149SOL    HW1 6833   1.412   3.506   3.775
 2149SOL    HW2 6834   1.542   3.489   3.678
 2150SOL     OW 6835   0.372   3.150   5.214
 2150SOL    HW1 6836   0.359   3.243   5.180
 2150SOL    HW2 6837   0.288   3.098   5.201
 2151SOL     OW 6838   1.614   3.154   5.013
 2151SOL    HW1 6839   1.674   3.157   5.093
 2151SOL    HW2 6840   1.539   3.218   5.026
 2152SOL     OW 6841   1.039   2.960   4.420
 2152SOL    HW1 6842   0.969   2.913   4.474
 2152SOL    HW2 6843   1.098   2.892   4.377
 2153SOL     OW 6844   1.014   2.098   4.695
 2153SOL    HW1 6845   1.006   2.062   4.602
 2153SOL    HW2 6846   1.012   2.022   4.760
 2154SOL     OW 6847   0.590   3.349   4.215
 2154SOL    HW1 6848   0.632   3.291   4.145
 2154SOL    HW2 6849   0.546   3.428   4.171
 2155SOL     OW 6850   1.709   2.247   5.105
 2155SOL    HW1 6851   1.782   2.316   5.109
 2155SOL    HW2 6852   1.737   2.172   5.046
 2156SOL     OW 6853   0.255   3.210   4.014
 2156SOL    HW1 6854   0.159   3.211   3.987
 2156SOL    HW2 6855   0.267   3.263   4.098
 2157SOL     OW 6856   0.105   2.875   5.450
 2157SOL    HW1 6857   0.028   2.842   5.504
 2157SOL    HW2 6858   0.190   2.845   5.492
 2158SOL     OW 6859   0.672   2.065   5.213
 2158SOL    HW1 6860   0.762   2.049   5.173
 2158SOL    HW2 6861   0.680   2.070   5.312
 2159SOL     OW 6862   0.075   2.207   3.757
 2159SOL    HW1 6863  -0.017   2.179   3.728
 2159SOL    HW2 6864   0.106   2.284   3.701
 2160SOL     OW 6865   1.440   2.718   5.122
 2160SOL    HW1 6866   1.383   2.770   5.059
 2160SOL    HW2 6867   1.536   2.730   5.098
 2161SOL     OW 6868   0.072   2.028   4.042
 2161SOL    HW1 6869   0.055   2.111   3.988
 2161SOL    HW2 6870   0.162   1.991   4.020
 2162SOL     OW 6871   1.183   3.197   3.843
 2162SOL    HW1 6872   1.084   3.186   3.845
 2162SOL    HW2 6873   1.217   3.212   3.936
 2163SOL     OW 6874   0.613   2.704   5.155
 2163SOL    HW1 6875   0.669   2.785   5.138
 2163SOL    HW2 6876   0.672   2.624   5.158
 2164SOL     OW 6877   1.493   3.629   4.683
 2164SOL    HW1 6878   1.526   3.693   4.614
 2164SOL    HW2 6879   1.559   3.623   4.758
 2165SOL     OW 6880   0.716   2.427   5.432
 2165SOL    HW1 6881   0.735   2.492   5.506
 2165SOL    HW2 6882   0.776   2.347   5.441
 2166SOL     OW 6883   1.450   3.082   5.357
 2166SOL    HW1 6884   1.441   3.072   5.456
 2166SOL    HW2 6885   1.546   3.075   5.331
 2167SOL     OW 6886   0.390   3.603   5.284
 2167SOL    HW1 6887   0.299   3.644   5.282
 2167SOL    HW2 6888   0.383   3.509   5.316
 2168SOL     OW 6889   1.674   2.745   4.978
 2168SOL    HW1 6890   1.647   2.656   4.941
 2168SOL    HW2 6891   1.675   2.813   4.905
 2169SOL     OW 6892   1.225   2.187   4.173
 2169SOL    HW1 6893   1.290   2.113   4.162
 2169SOL    HW2 6894   1.245   2.237   4.257
 2170SOL     OW 6895   0.594   2.607   4.376
 2170SOL    HW1 6896   0.644   2.692   4.357
 2170SOL    HW2 6897   0.506   2.609   4.328
 2171SOL     OW 6898   1.777   2.204   5.366
 2171SOL    HW1 6899   1.760   2.235   5.272
 2171SOL    HW2 6900   1.693   2.167   5.404
 2172SOL     OW 6901   1.730   2.796   5.241
 2172SOL    HW1 6902   1.768   2.887   5.256
 2172SOL    HW2 6903   1.722   2.779   5.142
 2173SOL     OW 6904   0.859   3.236   3.740
 2173SOL    HW1 6905   0.813   3.251   3.828
 2173SOL    HW2 6906   0.903   3.321   3.710
 2174SOL     OW 6907   0.661   3.652   4.677
 2174SOL    HW1 6908   0.615   3.740   4.664
 2174SOL    HW2 6909   0.760   3.664   4.670
 2175SOL     OW 6910   0.859   2.818   4.585
 2175SOL    HW1 6911   0.913   2.749   4.633
 2175SOL    HW2 6912   0.827   2.887   4.651
 2176SOL     OW 6913   1.083   2.846   3.811
 2176SOL    HW1 6914   1.060   2.899   3.729
 2176SOL    HW2 6915   1.164   2.790   3.792
 2177SOL     OW 6916   1.861   3.431   4.575
 2177SOL    HW1 6917   1.790   3.419   4.505
 2177SOL    HW2 6918   1.862   3.352   4.635
 2178SOL     OW 6919   0.221   3.176   5.568
 2178SOL    HW1 6920   0.156   3.103   5.547
 2178SOL    HW2 6921   0.225   3.190   5.666
 2179SOL     OW 6922   0.079   3.102   4.377
 2179SOL    HW1 6923   0.078   3.055   4.465
 2179SOL    HW2 6924   0.161   3.074   4.326
 2180SOL     OW 6925   0.672   3.253   5.348
 2180SOL    HW1 6926   0.594   3.203   5.386
 2180SOL    HW2 6927   0.669   3.348   5.379
 2181SOL     OW 6928   0.428   2.286   4.244
 2181SOL    HW1 6929   0.458   2.214   4.182
 2181SOL    HW2 6930   0.389   2.246   4.327
 2182SOL     OW 6931   1.705   3.349   4.828
 2182SOL    HW1 6932   1.612   3.324   4.801
 2182SOL    HW2 6933   1.731   3.299   4.910
 2183SOL     OW 6934   0.317   2.409   5.004
 2183SOL    HW1 6935   0.355   2.350   5.076
 2183SOL    HW2 6936   0.357   2.383   4.916
 2184SOL     OW 6937   0.812   3.448   4.411
 2184SOL    HW1 6938   0.844   3.458   4.317
 2184SOL    HW2 6939   0.733   3.386   4.413
 2185SOL     OW 6940   1.424   2.076   4.836
 2185SOL    HW1 6941   1.476   2.011   4.891
 2185SOL    HW2 6942   1.375   2.139   4.897
 2186SOL     OW 6943   1.001   1.896   4.878
 2186SOL    HW1 6944   0.938   1.824   4.847
 2186SOL    HW2 6945   1.094   1.860   4.878
 2187SOL     OW 6946   0.770   3.192   4.025
 2187SOL    HW1 6947   0.724   3.105   4.042
 2187SOL    HW2 6948   0.861   3.189   4.066
 2188SOL     OW 6949   0.618   3.429   5.008
 2188SOL    HW1 6950   0.613   3.511   5.065
 2188SOL    HW2 6951   0.707   3.426   4.963
 2189SOL     OW 6952   1.352   1.914   3.892
 2189SOL    HW1 6953   1.387   1.873   3.808
 2189SOL    HW2 6954   1.262   1.876   3.912
 2190SOL     OW 6955   1.300   2.315   4.415
 2190SOL    HW1 6956   1.241   2.395   4.419
 2190SOL    HW2 6957   1.315   2.280   4.508
 2191SOL     OW 6958   1.593   2.083   4.606
 2191SOL    HW1 6959   1.509   2.082   4.660
 2191SOL    HW2 6960   1.595   2.166   4.550
 2192SOL     OW 6961   0.039   2.939   4.024
 2192SOL    HW1 6962   0.138   2.928   4.015
 2192SOL    HW2 6963  -0.001   2.853   4.056
 2193SOL     OW 6964   0.875   3.508   4.061
 2193SOL    HW1 6965   0.798   3.473   4.007
 2193SOL    HW2 6966   0.843   3.579   4.123
 2194SOL     OW 6967   0.230   2.490   5.699
 2194SOL    HW1 6968   0.137   2.488   5.736
 2194SOL    HW2 6969   0.231   2.451   5.607
 2195SOL     OW 6970   0.225   2.137   6.582
 2195SOL    HW1 6971   0.260   2.120   6.674
 2195SOL    HW2 6972   0.137   2.092   6.570
 2196SOL     OW 6973   0.019   2.230   6.233
 2196SOL    HW1 6974  -0.063   2.273   6.272
 2196SOL    HW2 6975  -0.009   2.157   6.170
 2197SOL     OW 6976   0.569   3.137   6.751
 2197SOL    HW1 6977   0.476   3.130   6.714
 2197SOL    HW2 6978   0.580   3.226   6.795
 2198SOL     OW 6979   1.555   3.373   6.289
 2198SOL    HW1 6980   1.498   3.357   6.370
 2198SOL    HW2 6981   1.496   3.383   6.209
 2199SOL     OW 6982   1.135   2.565   6.303
 2199SOL    HW1 6983   1.192   2.643   6.278
 2199SOL    HW2 6984   1.075   2.591   6.379
 2200SOL     OW 6985   1.755   2.469   5.817
 2200SOL    HW1 6986   1.743   2.456   5.718
 2200SOL    HW2 6987   1.725   2.388   5.866
 2201SOL     OW 6988   0.768   3.006   6.609
 2201SOL    HW1 6989   0.690   3.023   6.669
 2201SOL    HW2 6990   0.802   3.093   6.573
 2202SOL     OW 6991   0.850   2.660   7.409
 2202SOL    HW1 6992   0.846   2.736   7.474
 2202SOL    HW2 6993   0.872   2.696   7.318
 2203SOL     OW 6994   0.685   2.874   6.251
 2203SOL    HW1 6995   0.754   2.858   6.321
 2203SOL    HW2 6996   0.612   2.931   6.289
 2204SOL     OW 6997   0.686   3.023   7.389
 2204SOL    HW1 6998   0.746   3.102   7.403
 2204SOL    HW2 6999   0.600   3.054   7.348
 2205SOL     OW 7000   0.335   3.297   6.647
 2205SOL    HW1 7001   0.257   3.266   6.594
 2205SOL    HW2 7002   0.393   3.355   6.590
 2206SOL     OW 7003   1.460   3.367   6.925
 2206SOL    HW1 7004   1.484   3.461   6.951
 2206SOL    HW2 7005   1.444   3.313   7.007
 2207SOL     OW 7006   0.438   2.254   7.085
 2207SOL    HW1 7007   0.520   2.198   7.094
 2207SOL    HW2 7008   0.357   2.196   7.089
 2208SOL     OW 7009   1.603   2.309   6.323
 2208SOL    HW1 7010   1.529   2.355   6.273
 2208SOL    HW2 7011   1.654   2.377   6.376
 2209SOL     OW 7012   0.231   3.575   6.069
 2209SOL    HW1 7013   0.265   3.652   6.123
 2209SOL    HW2 7014   0.275   3.575   5.979
 2210SOL     OW 7015   1.127   3.203   7.276
 2210SOL    HW1 7016   1.174   3.203   7.364
 2210SOL    HW2 7017   1.079   3.116   7.265
 2211SOL     OW 7018   0.230   3.296   6.124
 2211SOL    HW1 7019   0.204   3.392   6.124
 2211SOL    HW2 7020   0.159   3.242   6.169
 2212SOL     OW 7021   0.240   2.953   6.472
 2212SOL    HW1 7022   0.254   2.869   6.524
 2212SOL    HW2 7023   0.185   3.017   6.527
 2213SOL     OW 7024   0.620   3.648   7.025
 2213SOL    HW1 7025   0.528   3.631   7.060
 2213SOL    HW2 7026   0.648   3.740   7.051
 2214SOL     OW 7027   0.606   2.826   5.709
 2214SOL    HW1 7028   0.613   2.910   5.655
 2214SOL    HW2 7029   0.652   2.839   5.797
 2215SOL     OW 7030   0.122   2.505   6.149
 2215SOL    HW1 7031   0.077   2.417   6.166
 2215SOL    HW2 7032   0.121   2.559   6.233
 2216SOL     OW 7033   1.842   3.629   5.945
 2216SOL    HW1 7034   1.896   3.600   6.025
 2216SOL    HW2 7035   1.872   3.719   5.916
 2217SOL     OW 7036   0.027   3.458   5.703
 2217SOL    HW1 7037   0.008   3.362   5.724
 2217SOL    HW2 7038  -0.006   3.516   5.778
 2218SOL     OW 7039   1.689   2.784   6.198
 2218SOL    HW1 7040   1.784   2.755   6.206
 2218SOL    HW2 7041   1.681   2.849   6.123
 2219SOL     OW 7042   1.641   2.970   6.018
 2219SOL    HW1 7043   1.727   2.972   5.966
 2219SOL    HW2 7044   1.655   3.017   6.106
 2220SOL     OW 7045   0.113   2.599   7.183
 2220SOL    HW1 7046   0.201   2.586   7.228
 2220SOL    HW2 7047   0.100   2.696   7.161
 2221SOL     OW 7048   0.613   3.227   6.312
 2221SOL    HW1 7049   0.564   3.140   6.321
 2221SOL    HW2 7050   0.590   3.270   6.225
 2222SOL     OW 7051   1.293   3.090   7.009
 2222SOL    HW1 7052   1.330   3.017   6.951
 2222SOL    HW2 7053   1.345   3.095   7.094
 2223SOL     OW 7054   0.809   1.866   6.088
 2223SOL    HW1 7055   0.849   1.957   6.079
 2223SOL    HW2 7056   0.709   1.874   6.094
 2224SOL     OW 7057   0.197   2.838   6.850
 2224SOL    HW1 7058   0.286   2.793   6.836
 2224SOL    HW2 7059   0.124   2.773   6.831
 2225SOL     OW 7060   1.525   2.861   5.776
 2225SOL    HW1 7061   1.462   2.785   5.789
 2225SOL    HW2 7062   1.573   2.879   5.862
 2226SOL     OW 7063   1.187   3.654   7.202
 2226SOL    HW1 7064   1.211   3.714   7.126
 2226SOL    HW2 7065   1.194   3.559   7.172
 2227SOL     OW 7066   0.317   2.113   7.387
 2227SOL    HW1 7067   0.388   2.184   7.393
 2227SOL    HW2 7068   0.229   2.152   7.415
 2228SOL     OW 7069   1.466   3.279   6.539
 2228SOL    HW1 7070   1.407   3.285   6.619
 2228SOL    HW2 7071   1.451   3.191   6.493
 2229SOL     OW 7072   1.667   3.576   6.158
 2229SOL    HW1 7073   1.626   3.553   6.070
 2229SOL    HW2 7074   1.649   3.502   6.223
 2230SOL     OW 7075   0.598   2.591   5.856
 2230SOL    HW1 7076   0.622   2.660   5.788
 2230SOL    HW2 7077   0.520   2.624   5.910
 2231SOL     OW 7078   1.576   3.524   5.893
 2231SOL    HW1 7079   1.665   3.570   5.896
 2231SOL    HW2 7080   1.555   3.500   5.798
 2232SOL     OW 7081   0.807   2.467   7.051
 2232SOL    HW1 7082   0.760   2.464   7.140
 2232SOL    HW2 7083   0.756   2.412   6.985
 2233SOL     OW 7084   0.973   2.752   7.158
 2233SOL    HW1 7085   1.019   2.668   7.129
 2233SOL    HW2 7086   0.917   2.786   7.083
 2234SOL     OW 7087   0.991   2.272   6.828
 2234SOL    HW1 7088   0.914   2.306   6.882
 2234SOL    HW2 7089   0.957   2.221   6.749
 2235SOL     OW 7090   1.041   2.563   6.015
 2235SOL    HW1 7091   1.067   2.559   6.111
 2235SOL    HW2 7092   0.956   2.512   6.001
 2236SOL     OW 7093   0.076   2.673   6.375
 2236SOL    HW1 7094   0.175   2.661   6.384
 2236SOL    HW2 7095   0.052   2.768   6.396
 2237SOL     OW 7096   0.130   3.683   7.157
 2237SOL    HW1 7097   0.120   3.668   7.256
 2237SOL    HW2 7098   0.044   3.719   7.121
 2238SOL     OW 7099   0.865   2.210   5.781
 2238SOL    HW1 7100   0.924   2.273   5.732
 2238SOL    HW2 7101   0.884   2.116   5.752
 2239SOL     OW 7102   1.719   2.447   7.417
 2239SOL    HW1 7103   1.693   2.536   7.381
 2239SOL    HW2 7104   1.717   2.379   7.344
 2240SOL     OW 7105   1.362   3.006   6.131
 2240SOL    HW1 7106   1.445   2.977   6.083
 2240SOL    HW2 7107   1.313   3.073   6.075
 2241SOL     OW 7108   0.550   2.058   6.471
 2241SOL    HW1 7109   0.545   2.053   6.571
 2241SOL    HW2 7110   0.552   2.154   6.442
 2242SOL     OW 7111   1.008   3.318   6.063
 2242SOL    HW1 7112   0.962   3.390   6.011
 2242SOL    HW2 7113   1.004   3.338   6.161
 2243SOL     OW 7114   0.351   3.663   6.439
 2243SOL    HW1 7115   0.401   3.577   6.445
 2243SOL    HW2 7116   0.416   3.740   6.436
 2244SOL     OW 7117   1.795   2.928   6.459
 2244SOL    HW1 7118   1.733   2.913   6.383
 2244SOL    HW2 7119   1.743   2.939   6.544
 2245SOL     OW 7120   1.227   3.412   7.092
 2245SOL    HW1 7121   1.233   3.335   7.156
 2245SOL    HW2 7122   1.175   3.386   7.012
 2246SOL     OW 7123   0.321   2.805   5.828
 2246SOL    HW1 7124   0.403   2.844   5.786
 2246SOL    HW2 7125   0.294   2.723   5.779
 2247SOL     OW 7126   1.458   2.597   6.314
 2247SOL    HW1 7127   1.453   2.532   6.389
 2247SOL    HW2 7128   1.538   2.656   6.327
 2248SOL     OW 7129   0.461   3.128   7.313
 2248SOL    HW1 7130   0.411   3.129   7.227
 2248SOL    HW2 7131   0.398   3.110   7.389
 2249SOL     OW 7132   1.111   3.638   5.823
 2249SOL    HW1 7133   1.051   3.576   5.873
 2249SOL    HW2 7134   1.142   3.594   5.738
 2250SOL     OW 7135   0.202   2.147   7.084
 2250SOL    HW1 7136   0.122   2.207   7.071
 2250SOL    HW2 7137   0.192   2.098   7.170
 2251SOL     OW 7138   1.632   3.239   5.667
 2251SOL    HW1 7139   1.600   3.333   5.657
 2251SOL    HW2 7140   1.556   3.176   5.655
 2252SOL     OW 7141   0.464   3.605   5.909
 2252SOL    HW1 7142   0.497   3.644   5.995
 2252SOL    HW2 7143   0.540   3.598   5.844
 2253SOL     OW 7144   1.400   1.969   6.012
 2253SOL    HW1 7145   1.376   1.932   5.922
 2253SOL    HW2 7146   1.499   1.985   6.016
 2254SOL     OW 7147   0.249   3.647   6.827
 2254SOL    HW1 7148   0.306   3.582   6.877
 2254SOL    HW2 7149   0.233   3.614   6.734
 2255SOL     OW 7150   0.940   3.560   6.490
 2255SOL    HW1 7151   1.020   3.503   6.511
 2255SOL    HW2 7152   0.891   3.520   6.413
 2256SOL     OW 7153   0.382   2.562   6.066
 2256SOL    HW1 7154   0.427   2.472   6.063
 2256SOL    HW2 7155   0.288   2.551   6.099
 2257SOL     OW 7156   0.614   1.984   5.703
 2257SOL    HW1 7157   0.712   1.962   5.710
 2257SOL    HW2 7158   0.583   1.967   5.610
 2258SOL     OW 7159   0.781   2.126   7.335
 2258SOL    HW1 7160   0.848   2.065   7.378
 2258SOL    HW2 7161   0.708   2.145   7.400
 2259SOL     OW 7162   0.888   3.376   6.781
 2259SOL    HW1 7163   0.865   3.351   6.687
 2259SOL    HW2 7164   0.949   3.307   6.820
 2260SOL     OW 7165   1.351   2.452   7.019
 2260SOL    HW1 7166   1.379   2.409   7.104
 2260SOL    HW2 7167   1.376   2.548   7.020
 2261SOL     OW 7168   0.803   3.264   6.510
 2261SOL    HW1 7169   0.893   3.278   6.468
 2261SOL    HW2 7170   0.732   3.266   6.439
 2262SOL     OW 7171   0.922   2.365   6.485
 2262SOL    HW1 7172   0.897   2.356   6.389
 2262SOL    HW2 7173   0.970   2.283   6.516
 2263SOL     OW 7174   0.539   1.926   6.098
 2263SOL    HW1 7175   0.458   1.927   6.156
 2263SOL    HW2 7176   0.542   2.009   6.043
 2264SOL     OW 7177   1.434   3.050   5.627
 2264SOL    HW1 7178   1.466   2.974   5.684
 2264SOL    HW2 7179   1.342   3.077   5.657
 2265SOL     OW 7180   0.297   1.897   5.757
 2265SOL    HW1 7181   0.346   1.981   5.736
 2265SOL    HW2 7182   0.359   1.832   5.802
 2266SOL     OW 7183   0.935   2.098   6.066
 2266SOL    HW1 7184   0.887   2.139   5.988
 2266SOL    HW2 7185   1.034   2.096   6.047
 2267SOL     OW 7186   1.076   2.545   7.050
 2267SOL    HW1 7187   0.996   2.484   7.053
 2267SOL    HW2 7188   1.157   2.492   7.026
 2268SOL     OW 7189   1.227   3.432   6.379
 2268SOL    HW1 7190   1.248   3.506   6.314
 2268SOL    HW2 7191   1.295   3.432   6.452
 2269SOL     OW 7192   0.459   3.014   6.327
 2269SOL    HW1 7193   0.388   2.987   6.392
 2269SOL    HW2 7194   0.433   2.986   6.234
 2270SOL     OW 7195   1.271   3.659   6.177
 2270SOL    HW1 7196   1.315   3.723   6.113
 2270SOL    HW2 7197   1.221   3.711   6.247
 2271SOL     OW 7198   1.032   2.411   5.602
 2271SOL    HW1 7199   0.991   2.493   5.563
 2271SOL    HW2 7200   1.096   2.437   5.675
 2272SOL     OW 7201   0.078   2.418   6.972
 2272SOL    HW1 7202   0.170   2.417   6.931
 2272SOL    HW2 7203   0.072   2.492   7.039
 2273SOL     OW 7204   0.561   2.084   6.733
 2273SOL    HW1 7205   0.599   2.000   6.770
 2273SOL    HW2 7206   0.473   2.103   6.777
 2274SOL     OW 7207   0.866   2.316   6.228
 2274SOL    HW1 7208   0.834   2.388   6.166
 2274SOL    HW2 7209   0.890   2.235   6.175
 2275SOL     OW 7210   1.017   1.901   6.339
 2275SOL    HW1 7211   0.945   1.906   6.270
 2275SOL    HW2 7212   0.993   1.832   6.408
 2276SOL     OW 7213   1.429   3.035   6.453
 2276SOL    HW1 7214   1.374   2.951   6.446
 2276SOL    HW2 7215   1.455   3.064   6.361
 2277SOL     OW 7216   1.857   2.695   5.963
 2277SOL    HW1 7217   1.899   2.631   6.027
 2277SOL    HW2 7218   1.819   2.644   5.885
 2278SOL     OW 7219   0.488   3.247   5.760
 2278SOL    HW1 7220   0.401   3.232   5.807
 2278SOL    HW2 7221   0.471   3.273   5.665
 2279SOL     OW 7222   1.664   3.142   6.243
 2279SOL    HW1 7223   1.763   3.150   6.257
 2279SOL    HW2 7224   1.619   3.226   6.274
 2280SOL     OW 7225   1.390   2.437   5.664
 2280SOL    HW1 7226   1.336   2.416   5.745
 2280SOL    HW2 7227   1.481   2.396   5.673
 2281SOL     OW 7228   0.527   2.118   5.914
 2281SOL    HW1 7229   0.554   2.059   5.839
 2281SOL    HW2 7230   0.527   2.213   5.883
 2282SOL     OW 7231   1.754   3.085   7.174
 2282SOL    HW1 7232   1.845   3.046   7.161
 2282SOL    HW2 7233   1.762   3.181   7.198
 2283SOL     OW 7234   1.064   3.209   6.926
 2283SOL    HW1 7235   0.984   3.186   6.981
 2283SOL    HW2 7236   1.147   3.183   6.975
 2284SOL     OW 7237   1.592   3.491   7.211
 2284SOL    HW1 7238   1.619   3.525   7.121
 2284SOL    HW2 7239   1.671   3.453   7.257
 2285SOL     OW 7240   1.111   3.057   6.686
 2285SOL    HW1 7241   1.071   3.101   6.767
 2285SOL    HW2 7242   1.070   3.094   6.603
 2286SOL     OW 7243   1.638   2.961   6.665
 2286SOL    HW1 7244   1.643   3.042   6.724
 2286SOL    HW2 7245   1.552   2.963   6.614
 2287SOL     OW 7246   0.915   1.951   6.988
 2287SOL    HW1 7247   0.940   1.931   6.893
 2287SOL    HW2 7248   0.987   2.007   7.030
 2288SOL     OW 7249   0.980   2.978   7.305
 2288SOL    HW1 7250   0.881   2.984   7.315
 2288SOL    HW2 7251   1.003   2.898   7.249
 2289SOL     OW 7252   0.705   2.912   5.954
 2289SOL    HW1 7253   0.691   2.919   6.053
 2289SOL    HW2 7254   0.789   2.861   5.936
 2290SOL     OW 7255   0.410   2.675   6.837
 2290SOL    HW1 7256   0.496   2.687   6.887
 2290SOL    HW2 7257   0.368   2.588   6.864
 2291SOL     OW 7258   0.064   3.426   6.917
 2291SOL    HW1 7259   0.018   3.508   6.883
 2291SOL    HW2 7260   0.162   3.445   6.926
 2292SOL     OW 7261   0.367   2.962   6.087
 2292SOL    HW1 7262   0.360   3.045   6.031
 2292SOL    HW2 7263   0.371   2.882   6.027
 2293SOL     OW 7264   0.566   2.399   6.451
 2293SOL    HW1 7265   0.578   2.465   6.377
 2293SOL    HW2 7266   0.612   2.433   6.534
 2294SOL     OW 7267   1.252   3.210   5.974
 2294SOL    HW1 7268   1.302   3.287   6.014
 2294SOL    HW2 7269   1.157   3.212   6.006
 2295SOL     OW 7270   1.272   3.307   6.728
 2295SOL    HW1 7271   1.319   3.320   6.815
 2295SOL    HW2 7272   1.206   3.233   6.737
 2296SOL     OW 7273   1.582   2.501   6.058
 2296SOL    HW1 7274   1.551   2.562   6.131
 2296SOL    HW2 7275   1.632   2.553   5.989
 2297SOL     OW 7276   0.354   3.372   6.915
 2297SOL    HW1 7277   0.333   3.328   6.828
 2297SOL    HW2 7278   0.451   3.398   6.918
 2298SOL     OW 7279   0.402   2.613   7.184
 2298SOL    HW1 7280   0.470   2.668   7.137
 2298SOL    HW2 7281   0.442   2.525   7.211
 2299SOL     OW 7282   1.587   2.641   7.256
 2299SOL    HW1 7283   1.495   2.679   7.251
 2299SOL    HW2 7284   1.647   2.688   7.191
 2300SOL     OW 7285   1.013   1.967   7.356
 2300SOL    HW1 7286   1.019   2.052   7.304
 2300SOL    HW2 7287   1.045   1.891   7.299
 2301SOL     OW 7288   0.504   1.912   7.326
 2301SOL    HW1 7289   0.462   1.855   7.256
 2301SOL    HW2 7290   0.438   1.981   7.358
 2302SOL     OW 7291   0.573   2.732   6.615
 2302SOL    HW1 7292   0.617   2.821   6.606
 2302SOL    HW2 7293   0.510   2.732   6.692
 2303SOL     OW 7294   1.360   2.724   6.631
 2303SOL    HW1 7295   1.285   2.724   6.565
 2303SOL    HW2 7296   1.397   2.632   6.640
 2304SOL     OW 7297   1.209   2.387   5.861
 2304SOL    HW1 7298   1.222   2.303   5.915
 2304SOL    HW2 7299   1.180   2.461   5.921
 2305SOL     OW 7300   0.307   2.075   6.817
 2305SOL    HW1 7301   0.284   2.112   6.907
 2305SOL    HW2 7302   0.277   1.980   6.811
 2306SOL     OW 7303   0.037   3.172   6.868
 2306SOL    HW1 7304   0.090   3.123   6.936
 2306SOL    HW2 7305   0.059   3.270   6.873
 2307SOL     OW 7306   0.732   2.496   6.650
 2307SOL    HW1 7307   0.791   2.470   6.574
 2307SOL    HW2 7308   0.704   2.592   6.639
 2308SOL     OW 7309   1.728   2.797   7.440
 2308SOL    HW1 7310   1.682   2.790   7.351
 2308SOL    HW2 7311   1.666   2.841   7.506
 2309SOL     OW 7312   0.307   1.925   6.204
 2309SOL    HW1 7313   0.296   2.019   6.237
 2309SOL    HW2 7314   0.302   1.862   6.281
 2310SOL     OW 7315   1.622   2.229   5.960
 2310SOL    HW1 7316   1.624   2.153   6.024
 2310SOL    HW2 7317   1.574   2.306   6.000
 2311SOL     OW 7318   1.023   2.628   6.552
 2311SOL    HW1 7319   1.038   2.649   6.648
 2311SOL    HW2 7320   0.993   2.533   6.543
 2312SOL     OW 7321   0.980   3.435   7.286
 2312SOL    HW1 7322   0.960   3.479   7.198
 2312SOL    HW2 7323   1.019   3.344   7.270
 2313SOL     OW 7324   1.859   3.380   7.191
 2313SOL    HW1 7325   1.873   3.407   7.096
 2313SOL    HW2 7326   1.942   3.402   7.244
 2314SOL     OW 7327   0.350   2.760   7.390
 2314SOL    HW1 7328   0.426   2.804   7.438
 2314SOL    HW2 7329   0.385   2.713   7.308
 2315SOL     OW 7330   1.540   2.136   5.711
 2315SOL    HW1 7331   1.479   2.061   5.734
 2315SOL    HW2 7332   1.562   2.188   5.794
 2316SOL     OW 7333   1.303   2.700   5.628
 2316SOL    HW1 7334   1.337   2.607   5.643
 2316SOL    HW2 7335   1.321   2.727   5.533
 2317SOL     OW 7336   1.068   3.195   6.435
 2317SOL    HW1 7337   1.075   3.111   6.380
 2317SOL    HW2 7338   1.130   3.264   6.399
 2318SOL     OW 7339   0.319   2.672   6.535
 2318SOL    HW1 7340   0.412   2.708   6.540
 2318SOL    HW2 7341   0.313   2.587   6.587
 2319SOL     OW 7342   0.339   2.371   6.592
 2319SOL    HW1 7343   0.287   2.288   6.575
 2319SOL    HW2 7344   0.416   2.376   6.528
 2320SOL     OW 7345   1.138   2.242   7.264
 2320SOL    HW1 7346   1.093   2.305   7.328
 2320SOL    HW2 7347   1.231   2.273   7.247
 2321SOL     OW 7348   1.160   2.069   7.063
 2321SOL    HW1 7349   1.160   2.133   7.140
 2321SOL    HW2 7350   1.188   2.117   6.980
 2322SOL     OW 7351   0.008   3.188   5.786
 2322SOL    HW1 7352  -0.085   3.209   5.755
 2322SOL    HW2 7353   0.018   3.089   5.799
 2323SOL     OW 7354   0.088   3.663   6.513
 2323SOL    HW1 7355   0.046   3.577   6.486
 2323SOL    HW2 7356   0.182   3.666   6.479
 2324SOL     OW 7357   0.504   3.430   6.496
 2324SOL    HW1 7358   0.570   3.504   6.505
 2324SOL    HW2 7359   0.548   3.351   6.454
 2325SOL     OW 7360   1.002   2.658   6.824
 2325SOL    HW1 7361   1.043   2.626   6.910
 2325SOL    HW2 7362   0.906   2.631   6.821
 2326SOL     OW 7363   0.040   2.406   6.700
 2326SOL    HW1 7364   0.125   2.373   6.659
 2326SOL    HW2 7365   0.053   2.421   6.798
 2327SOL     OW 7366   0.189   2.382   7.308
 2327SOL    HW1 7367   0.248   2.342   7.238
 2327SOL    HW2 7368   0.131   2.453   7.267
 2328SOL     OW 7369   1.369   2.812   7.246
 2328SOL    HW1 7370   1.408   2.901   7.266
 2328SOL    HW2 7371   1.379   2.792   7.149
 2329SOL     OW 7372   0.815   2.434   5.911
 2329SOL    HW1 7373   0.822   2.345   5.865
 2329SOL    HW2 7374   0.721   2.468   5.903
 2330SOL     OW 7375   0.252   3.426   7.330
 2330SOL    HW1 7376   0.222   3.483   7.406
 2330SOL    HW2 7377   0.245   3.329   7.356
 2331SOL     OW 7378   0.671   2.326   6.855
 2331SOL    HW1 7379   0.637   2.237   6.825
 2331SOL    HW2 7380   0.697   2.380   6.775
 2332SOL     OW 7381   0.930   3.540   7.051
 2332SOL    HW1 7382   0.906   3.522   6.956
 2332SOL    HW2 7383   0.960   3.634   7.061
 2333SOL     OW 7384   0.473   2.362   5.777
 2333SOL    HW1 7385   0.534   2.442   5.781
 2333SOL    HW2 7386   0.378   2.393   5.784
 2334SOL     OW 7387   0.159   2.999   7.052
 2334SOL    HW1 7388   0.181   2.938   7.128
 2334SOL    HW2 7389   0.169   2.950   6.966
 2335SOL     OW 7390   1.347   2.921   6.820
 2335SOL    HW1 7391   1.371   2.858   6.746
 2335SOL    HW2 7392   1.257   2.961   6.802
 2336SOL     OW 7393   1.302   2.717   5.895
 2336SOL    HW1 7394   1.216   2.686   5.937
 2336SOL    HW2 7395   1.298   2.703   5.796
 2337SOL     OW 7396   1.759   3.609   6.740
 2337SOL    HW1 7397   1.820   3.639   6.667
 2337SOL    HW2 7398   1.721   3.520   6.718
 2338SOL     OW 7399   1.252   3.593   6.714
 2338SOL    HW1 7400   1.336   3.598   6.660
 2338SOL    HW2 7401   1.229   3.497   6.732
 2339SOL     OW 7402   0.083   3.120   6.608
 2339SOL    HW1 7403   0.078   3.119   6.708
 2339SOL    HW2 7404   0.000   3.079   6.570
 2340SOL     OW 7405   0.688   3.524   7.302
 2340SOL    HW1 7406   0.632   3.605   7.311
 2340SOL    HW2 7407   0.740   3.528   7.216
 2341SOL     OW 7408   1.726   1.997   6.109
 2341SOL    HW1 7409   1.799   1.980   6.042
 2341SOL    HW2 7410   1.695   1.910   6.147
 2342SOL     OW 7411   1.388   3.435   6.063
 2342SOL    HW1 7412   1.455   3.447   5.989
 2342SOL    HW2 7413   1.348   3.524   6.086
 2343SOL     OW 7414   0.130   3.656   7.437
 2343SOL    HW1 7415   0.089   3.582   7.490
 2343SOL    HW2 7416   0.194   3.707   7.495
 2344SOL     OW 7417   1.280   2.789   6.258
 2344SOL    HW1 7418   1.340   2.708   6.260
 2344SOL    HW2 7419   1.320   2.858   6.198
 2345SOL     OW 7420   0.830   3.135   7.008
 2345SOL    HW1 7421   0.825   3.168   7.103
 2345SOL    HW2 7422   0.744   3.154   6.962
 2346SOL     OW 7423   0.672   3.478   5.740
 2346SOL    HW1 7424   0.681   3.488   5.641
 2346SOL    HW2 7425   0.632   3.389   5.761
 2347SOL     OW 7426   1.650   3.582   6.980
 2347SOL    HW1 7427   1.703   3.592   6.896
 2347SOL    HW2 7428   1.623   3.672   7.014
 2348SOL     OW 7429   0.263   2.188   6.306
 2348SOL    HW1 7430   0.184   2.239   6.272
 2348SOL    HW2 7431   0.254   2.173   6.404
 2349SOL     OW 7432   1.194   3.474   5.617
 2349SOL    HW1 7433   1.200   3.381   5.654
 2349SOL    HW2 7434   1.135   3.474   5.537
 2350SOL     OW 7435   0.822   2.864   6.958
 2350SOL    HW1 7436   0.862   2.863   6.866
 2350SOL    HW2 7437   0.832   2.956   6.998
 2351SOL     OW 7438   0.916   2.772   5.877
 2351SOL    HW1 7439   0.979   2.810   5.809
 2351SOL    HW2 7440   0.956   2.689   5.916
 2352SOL     OW 7441   1.504   3.469   5.630
 2352SOL    HW1 7442   1.412   3.506   5.637
 2352SOL    HW2 7443   1.542   3.489   5.540
 2353SOL     OW 7444   0.372   3.150   7.076
 2353SOL    HW1 7445   0.359   3.243   7.042
 2353SOL    HW2 7446   0.288   3.098   7.063
 2354SOL     OW 7447   1.614   3.154   6.875
 2354SOL    HW1 7448   1.674   3.157   6.955
 2354SOL    HW2 7449   1.539   3.218   6.888
 2355SOL     OW 7450   1.039   2.960   6.282
 2355SOL    HW1 7451   0.969   2.913   6.336
 2355SOL    HW2 7452   1.098   2.892   6.239
 2356SOL     OW 7453   1.014   2.098   6.557
 2356SOL    HW1 7454   1.006   2.062   6.464
 2356SOL    HW2 7455   1.012   2.022   6.622
 2357SOL     OW 7456   0.590   3.349   6.077
 2357SOL    HW1 7457   0.632   3.291   6.007
 2357SOL    HW2 7458   0.546   3.428   6.033
 2358SOL     OW 7459   0.255   3.210   5.876
 2358SOL    HW1 7460   0.159   3.211   5.849
 2358SOL    HW2 7461   0.267   3.263   5.960
 2359SOL     OW 7462   0.105   2.875   7.312
 2359SOL    HW1 7463   0.028   2.842   7.366
 2359SOL    HW2 7464   0.190   2.845   7.354
 2360SOL     OW 7465   0.672   2.065   7.075
 2360SOL    HW1 7466   0.762   2.049   7.035
 2360SOL    HW2 7467   0.680   2.070   7.174
 2361SOL     OW 7468   0.075   2.207   5.619
 2361SOL    HW1 7469  -0.017   2.179   5.590
 2361SOL    HW2 7470   0.106   2.284   5.563
 2362SOL     OW 7471   1.440   2.718   6.984
 2362SOL    HW1 7472   1.383   2.770   6.921
 2362SOL    HW2 7473   1.536   2.730   6.960
 2363SOL     OW 7474   0.072   2.028   5.904
 2363SOL    HW1 7475   0.055   2.111   5.850
 2363SOL    HW2 7476   0.162   1.991   5.882
 2364SOL     OW 7477   1.183   3.197   5.705
 2364SOL    HW1 7478   1.084   3.186   5.707
 2364SOL    HW2 7479   1.217   3.212   5.798
 2365SOL     OW 7480   0.613   2.704   7.017
 2365SOL    HW1 7481   0.669   2.785   7.000
 2365SOL    HW2 7482   0.672   2.624   7.020
 2366SOL     OW 7483   1.493   3.629   6.545
 2366SOL    HW1 7484   1.526   3.693   6.476
 2366SOL    HW2 7485   1.559   3.623   6.620
 2367SOL     OW 7486   0.716   2.427   7.294
 2367SOL    HW1 7487   0.735   2.492   7.368
 2367SOL    HW2 7488   0.776   2.347   7.303
 2368SOL     OW 7489   1.450   3.082   7.219
 2368SOL    HW1 7490   1.441   3.072   7.318
 2368SOL    HW2 7491   1.546   3.075   7.193
 2369SOL     OW 7492   0.390   3.603   7.146
 2369SOL    HW1 7493   0.299   3.644   7.144
 2369SOL    HW2 7494   0.383   3.509   7.178
 2370SOL     OW 7495   1.225   2.187   6.035
 2370SOL    HW1 7496   1.290   2.113   6.024
 2370SOL    HW2 7497   1.245   2.237   6.119
 2371SOL     OW 7498   0.594   2.607   6.238
 2371SOL    HW1 7499   0.644   2.692   6.219
 2371SOL    HW2 7500   0.506   2.609   6.190
 2372SOL     OW 7501   1.730   2.796   7.103
 2372SOL    HW1 7502   1.768   2.887   7.118
 2372SOL    HW2 7503   1.722   2.779   7.004
 2373SOL     OW 7504   0.859   3.236   5.602
 2373SOL    HW1 7505   0.813   3.251   5.690
 2373SOL    HW2 7506   0.903   3.321   5.572
 2374SOL     OW 7507   0.661   3.652   6.539
 2374SOL    HW1 7508   0.615   3.740   6.526
 2374SOL    HW2 7509   0.760   3.664   6.532
 2375SOL     OW 7510   0.859   2.818   6.447
 2375SOL    HW1 7511   0.913   2.749   6.495
 2375SOL    HW2 7512   0.827   2.887   6.513
 2376SOL     OW 7513   1.083   2.846   5.673
 2376SOL    HW1 7514   1.060   2.899   5.591
 2376SOL    HW2 7515   1.164   2.790   5.654
 2377SOL     OW 7516   1.861   3.431   6.437
 2377SOL    HW1 7517   1.790   3.419   6.367
 2377SOL    HW2 7518   1.862   3.352   6.497
 2378SOL     OW 7519   0.221   3.176   7.430
 2378SOL    HW1 7520   0.156   3.103   7.409
 2378SOL    HW2 7521   0.225   3.190   7.528
 2379SOL     OW 7522   0.079   3.102   6.239
 2379SOL    HW1 7523   0.078   3.055   6.327
 2379SOL    HW2 7524   0.161   3.074   6.188
 2380SOL     OW 7525   0.672   3.253   7.210
 2380SOL    HW1 7526   0.594   3.203   7.248
 2380SOL    HW2 7527   0.669   3.348   7.241
 2381SOL     OW 7528   0.428   2.286   6.106
 2381SOL    HW1 7529   0.458   2.214   6.044
 2381SOL    HW2 7530   0.389   2.246   6.189
 2382SOL     OW 7531   1.705   3.349   6.690
 2382SOL    HW1 7532   1.612   3.324   6.663
 2382SOL    HW2 7533   1.731   3.299   6.772
 2383SOL     OW 7534   0.317   2.409   6.866
 2383SOL    HW1 7535   0.355   2.350   6.938
 2383SOL    HW2 7536   0.357   2.383   6.778
 2384SOL     OW 7537   0.812   3.448   6.273
 2384SOL    HW1 7538   0.844   3.458   6.179
 2384SOL    HW2 7539   0.733   3.386   6.275
 2385SOL     OW 7540   1.001   1.896   6.740
 2385SOL    HW1 7541   0.938   1.824   6.709
 2385SOL    HW2 7542   1.094   1.860   6.740
 2386SOL     OW 7543   0.770   3.192   5.887
 2386SOL    HW1 7544   0.724   3.105   5.904
 2386SOL    HW2 7545   0.861   3.189   5.928
 2387SOL     OW 7546   0.618   3.429   6.870
 2387SOL    HW1 7547   0.613   3.511   6.927
 2387SOL    HW2 7548   0.707   3.426   6.825
 2388SOL     OW 7549   1.352   1.914   5.754
 2388SOL    HW1 7550   1.387   1.873   5.670
 2388SOL    HW2 7551   1.262   1.876   5.774
 2389SOL     OW 7552   1.300   2.315   6.277
 2389SOL    HW1 7553   1.241   2.395   6.281
 2389SOL    HW2 7554   1.315   2.280   6.370
 2390SOL     OW 7555   1.593   2.083   6.468
 2390SOL    HW1 7556   1.509   2.082   6.522
 2390SOL    HW2 7557   1.595   2.166   6.412
 2391SOL     OW 7558   0.039   2.939   5.886
 2391SOL    HW1 7559   0.138   2.928   5.877
 2391SOL    HW2 7560  -0.001   2.853   5.918
 2392SOL     OW 7561   0.875   3.508   5.923
 2392SOL    HW1 7562   0.798   3.473   5.869
 2392SOL    HW2 7563   0.843   3.579   5.985
 2393SOL     OW 7564   0.230   2.490   7.561
 2393SOL    HW1 7565   0.137   2.488   7.598
 2393SOL    HW2 7566   0.231   2.451   7.469
 2394SOL     OW 7567   0.225   2.137   8.444
 2394SOL    HW1 7568   0.260   2.120   8.536
 2394SOL    HW2 7569   0.137   2.092   8.432
 2395SOL     OW 7570   0.019   2.230   8.095
 2395SOL    HW1 7571  -0.063   2.273   8.134
 2395SOL    HW2 7572  -0.009   2.157   8.032
 2396SOL     OW 7573   0.569   3.137   8.613
 2396SOL    HW1 7574   0.476   3.130   8.576
 2396SOL    HW2 7575   0.580   3.226   8.657
 2397SOL     OW 7576   1.555   3.373   8.151
 2397SOL    HW1 7577   1.498   3.357   8.232
 2397SOL    HW2 7578   1.496   3.383   8.071
 2398SOL     OW 7579   1.135   2.565   8.165
 2398SOL    HW1 7580   1.192   2.643   8.140
 2398SOL    HW2 7581   1.075   2.591   8.241
 2399SOL     OW 7582   1.755   2.469   7.679
 2399SOL    HW1 7583   1.743   2.456   7.580
 2399SOL    HW2 7584   1.725   2.388   7.728
 2400SOL     OW 7585   0.768   3.006   8.471
 2400SOL    HW1 7586   0.690   3.023   8.531
 2400SOL    HW2 7587   0.802   3.093   8.435
 2401SOL     OW 7588   0.850   2.660   9.271
 2401SOL    HW1 7589   0.846   2.736   9.336
 2401SOL    HW2 7590   0.872   2.696   9.180
 2402SOL     OW 7591   0.685   2.874   8.113
 2402SOL    HW1 7592   0.754   2.858   8.183
 2402SOL    HW2 7593   0.612   2.931   8.151
 2403SOL     OW 7594   0.686   3.023   9.251
 2403SOL    HW1 7595   0.746   3.102   9.265
 2403SOL    HW2 7596   0.600   3.054   9.210
 2404SOL     OW 7597   0.335   3.297   8.509
 2404SOL    HW1 7598   0.257   3.266   8.456
 2404SOL    HW2 7599   0.393   3.355   8.452
 2405SOL     OW 7600   1.460   3.367   8.787
 2405SOL    HW1 7601   1.484   3.461   8.813
 2405SOL    HW2 7602   1.444   3.313   8.869
 2406SOL     OW 7603   0.438   2.254   8.947
 2406SOL    HW1 7604   0.520   2.198   8.956
 2406SOL    HW2 7605   0.357   2.196   8.951
 2407SOL     OW 7606   1.603   2.309   8.185
 2407SOL    HW1 7607   1.529   2.355   8.135
 2407SOL    HW2 7608   1.654   2.377   8.238
 2408SOL     OW 7609   0.231   3.575   7.931
 2408SOL    HW1 7610   0.265   3.652   7.985
 2408SOL    HW2 7611   0.275   3.575   7.841
 2409SOL     OW 7612   1.127   3.203   9.138
 2409SOL    HW1 7613   1.174   3.203   9.226
 2409SOL    HW2 7614   1.079   3.116   9.127
 2410SOL     OW 7615   0.230   3.296   7.986
 2410SOL    HW1 7616   0.204   3.392   7.986
 2410SOL    HW2 7617   0.159   3.242   8.031
 2411SOL     OW 7618   0.240   2.953   8.334
 2411SOL    HW1 7619   0.254   2.869   8.386
 2411SOL    HW2 7620   0.185   3.017   8.389
 2412SOL     OW 7621   0.620   3.648   8.887
 2412SOL    HW1 7622   0.528   3.631   8.922
 2412SOL    HW2 7623   0.648   3.740   8.913
 2413SOL     OW 7624   0.606   2.826   7.571
 2413SOL    HW1 7625   0.613   2.910   7.517
 2413SOL    HW2 7626   0.652   2.839   7.659
 2414SOL     OW 7627   1.594   1.976   8.928
 2414SOL    HW1 7628   1.576   2.043   8.856
 2414SOL    HW2 7629   1.591   2.022   9.017
 2415SOL     OW 7630   0.122   2.505   8.011
 2415SOL    HW1 7631   0.077   2.417   8.028
 2415SOL    HW2 7632   0.121   2.559   8.095
 2416SOL     OW 7633   1.842   3.629   7.807
 2416SOL    HW1 7634   1.896   3.600   7.887
 2416SOL    HW2 7635   1.872   3.719   7.778
 2417SOL     OW 7636   0.027   3.458   7.565
 2417SOL    HW1 7637   0.008   3.362   7.586
 2417SOL    HW2 7638  -0.006   3.516   7.640
 2418SOL     OW 7639   1.689   2.784   8.060
 2418SOL    HW1 7640   1.784   2.755   8.068
 2418SOL    HW2 7641   1.681   2.849   7.985
 2419SOL     OW 7642   1.641   2.970   7.880
 2419SOL    HW1 7643   1.727   2.972   7.828
 2419SOL    HW2 7644   1.655   3.017   7.968
 2420SOL     OW 7645   0.113   2.599   9.045
 2420SOL    HW1 7646   0.201   2.586   9.090
 2420SOL    HW2 7647   0.100   2.696   9.023
 2421SOL     OW 7648   0.613   3.227   8.174
 2421SOL    HW1 7649   0.564   3.140   8.183
 2421SOL    HW2 7650   0.590   3.270   8.087
 2422SOL     OW 7651   1.293   3.090   8.871
 2422SOL    HW1 7652   1.330   3.017   8.813
 2422SOL    HW2 7653   1.345   3.095   8.956
 2423SOL     OW 7654   0.809   1.866   7.950
 2423SOL    HW1 7655   0.849   1.957   7.941
 2423SOL    HW2 7656   0.709   1.874   7.956
 2424SOL     OW 7657   0.197   2.838   8.712
 2424SOL    HW1 7658   0.286   2.793   8.698
 2424SOL    HW2 7659   0.124   2.773   8.693
 2425SOL     OW 7660   1.525   2.861   7.638
 2425SOL    HW1 7661   1.462   2.785   7.651
 2425SOL    HW2 7662   1.573   2.879   7.724
 2426SOL     OW 7663   1.187   3.654   9.064
 2426SOL    HW1 7664   1.211   3.714   8.988
 2426SOL    HW2 7665   1.194   3.559   9.034
 2427SOL     OW 7666   0.317   2.113   9.249
 2427SOL    HW1 7667   0.388   2.184   9.255
 2427SOL    HW2 7668   0.229   2.152   9.277
 2428SOL     OW 7669   1.466   3.279   8.401
 2428SOL    HW1 7670   1.407   3.285   8.481
 2428SOL    HW2 7671   1.451   3.191   8.355
 2429SOL     OW 7672   1.667   3.576   8.020
 2429SOL    HW1 7673   1.626   3.553   7.932
 2429SOL    HW2 7674   1.649   3.502   8.085
 2430SOL     OW 7675   0.598   2.591   7.718
 2430SOL    HW1 7676   0.622   2.660   7.650
 2430SOL    HW2 7677   0.520   2.624   7.772
 2431SOL     OW 7678   1.281   2.207   8.392
 2431SOL    HW1 7679   1.195   2.157   8.379
 2431SOL    HW2 7680   1.343   2.153   8.448
 2432SOL     OW 7681   1.576   3.524   7.755
 2432SOL    HW1 7682   1.665   3.570   7.758
 2432SOL    HW2 7683   1.555   3.500   7.660
 2433SOL     OW 7684   0.807   2.467   8.913
 2433SOL    HW1 7685   0.760   2.464   9.002
 2433SOL    HW2 7686   0.756   2.412   8.847
 2434SOL     OW 7687   1.394   2.331   9.122
 2434SOL    HW1 7688   1.374   2.374   9.210
 2434SOL    HW2 7689   1.472   2.269   9.131
 2435SOL     OW 7690   0.973   2.752   9.020
 2435SOL    HW1 7691   1.019   2.668   8.991
 2435SOL    HW2 7692   0.917   2.786   8.945
 2436SOL     OW 7693   0.991   2.272   8.690
 2436SOL    HW1 7694   0.914   2.306   8.744
 2436SOL    HW2 7695   0.957   2.221   8.611
 2437SOL     OW 7696   1.041   2.563   7.877
 2437SOL    HW1 7697   1.067   2.559   7.973
 2437SOL    HW2 7698   0.956   2.512   7.863
 2438SOL     OW 7699   0.076   2.673   8.237
 2438SOL    HW1 7700   0.175   2.661   8.246
 2438SOL    HW2 7701   0.052   2.768   8.258
 2439SOL     OW 7702   0.130   3.683   9.019
 2439SOL    HW1 7703   0.120   3.668   9.118
 2439SOL    HW2 7704   0.044   3.719   8.983
 2440SOL     OW 7705   0.865   2.210   7.643
 2440SOL    HW1 7706   0.924   2.273   7.594
 2440SOL    HW2 7707   0.884   2.116   7.614
 2441SOL     OW 7708   1.719   2.447   9.279
 2441SOL    HW1 7709   1.693   2.536   9.243
 2441SOL    HW2 7710   1.717   2.379   9.206
 2442SOL     OW 7711   1.362   3.006   7.993
 2442SOL    HW1 7712   1.445   2.977   7.945
 2442SOL    HW2 7713   1.313   3.073   7.937
 2443SOL     OW 7714   0.550   2.058   8.333
 2443SOL    HW1 7715   0.545   2.053   8.433
 2443SOL    HW2 7716   0.552   2.154   8.304
 2444SOL     OW 7717   1.008   3.318   7.925
 2444SOL    HW1 7718   0.962   3.390   7.873
 2444SOL    HW2 7719   1.004   3.338   8.023
 2445SOL     OW 7720   0.351   3.663   8.301
 2445SOL    HW1 7721   0.401   3.577   8.307
 2445SOL    HW2 7722   0.416   3.740   8.298
 2446SOL     OW 7723   1.795   2.928   8.321
 2446SOL    HW1 7724   1.733   2.913   8.245
 2446SOL    HW2 7725   1.743   2.939   8.406
 2447SOL     OW 7726   1.227   3.412   8.954
 2447SOL    HW1 7727   1.233   3.335   9.018
 2447SOL    HW2 7728   1.175   3.386   8.874
 2448SOL     OW 7729   0.321   2.805   7.690
 2448SOL    HW1 7730   0.403   2.844   7.648
 2448SOL    HW2 7731   0.294   2.723   7.641
 2449SOL     OW 7732   1.458   2.597   8.176
 2449SOL    HW1 7733   1.453   2.532   8.251
 2449SOL    HW2 7734   1.538   2.656   8.189
 2450SOL     OW 7735   0.461   3.128   9.175
 2450SOL    HW1 7736   0.411   3.129   9.089
 2450SOL    HW2 7737   0.398   3.110   9.251
 2451SOL     OW 7738   1.111   3.638   7.685
 2451SOL    HW1 7739   1.051   3.576   7.735
 2451SOL    HW2 7740   1.142   3.594   7.600
 2452SOL     OW 7741   0.202   2.147   8.946
 2452SOL    HW1 7742   0.122   2.207   8.933
 2452SOL    HW2 7743   0.192   2.098   9.032
 2453SOL     OW 7744   1.632   3.239   7.529
 2453SOL    HW1 7745   1.600   3.333   7.519
 2453SOL    HW2 7746   1.556   3.176   7.517
 2454SOL     OW 7747   0.464   3.605   7.771
 2454SOL    HW1 7748   0.497   3.644   7.857
 2454SOL    HW2 7749   0.540   3.598   7.706
 2455SOL     OW 7750   1.400   1.969   7.874
 2455SOL    HW1 7751   1.376   1.932   7.784
 2455SOL    HW2 7752   1.499   1.985   7.878
 2456SOL     OW 7753   0.249   3.647   8.689
 2456SOL    HW1 7754   0.306   3.582   8.739
 2456SOL    HW2 7755   0.233   3.614   8.596
 2457SOL     OW 7756   0.940   3.560   8.352
 2457SOL    HW1 7757   1.020   3.503   8.373
 2457SOL    HW2 7758   0.891   3.520   8.275
 2458SOL     OW 7759   0.382   2.562   7.928
 2458SOL    HW1 7760   0.427   2.472   7.925
 2458SOL    HW2 7761   0.288   2.551   7.961
 2459SOL     OW 7762   1.547   2.084   9.177
 2459SOL    HW1 7763   1.542   2.121   9.269
 2459SOL    HW2 7764   1.475   2.015   9.165
 2460SOL     OW 7765   0.614   1.984   7.565
 2460SOL    HW1 7766   0.712   1.962   7.572
 2460SOL    HW2 7767   0.583   1.967   7.472
 2461SOL     OW 7768   0.781   2.126   9.197
 2461SOL    HW1 7769   0.848   2.065   9.240
 2461SOL    HW2 7770   0.708   2.145   9.262
 2462SOL     OW 7771   0.888   3.376   8.643
 2462SOL    HW1 7772   0.865   3.351   8.549
 2462SOL    HW2 7773   0.949   3.307   8.682
 2463SOL     OW 7774   1.351   2.452   8.881
 2463SOL    HW1 7775   1.379   2.409   8.966
 2463SOL    HW2 7776   1.376   2.548   8.882
 2464SOL     OW 7777   0.803   3.264   8.372
 2464SOL    HW1 7778   0.893   3.278   8.330
 2464SOL    HW2 7779   0.732   3.266   8.301
 2465SOL     OW 7780   0.922   2.365   8.347
 2465SOL    HW1 7781   0.897   2.356   8.251
 2465SOL    HW2 7782   0.970   2.283   8.378
 2466SOL     OW 7783   0.539   1.926   7.960
 2466SOL    HW1 7784   0.458   1.927   8.018
 2466SOL    HW2 7785   0.542   2.009   7.905
 2467SOL     OW 7786   1.434   3.050   7.489
 2467SOL    HW1 7787   1.466   2.974   7.546
 2467SOL    HW2 7788   1.342   3.077   7.519
 2468SOL     OW 7789   0.297   1.897   7.619
 2468SOL    HW1 7790   0.346   1.981   7.598
 2468SOL    HW2 7791   0.359   1.832   7.664
 2469SOL     OW 7792   0.935   2.098   7.928
 2469SOL    HW1 7793   0.887   2.139   7.850
 2469SOL    HW2 7794   1.034   2.096   7.909
 2470SOL     OW 7795   1.076   2.545   8.912
 2470SOL    HW1 7796   0.996   2.484   8.915
 2470SOL    HW2 7797   1.157   2.492   8.888
 2471SOL     OW 7798   1.227   3.432   8.241
 2471SOL    HW1 7799   1.248   3.506   8.176
 2471SOL    HW2 7800   1.295   3.432   8.314
 2472SOL     OW 7801   0.459   3.014   8.189
 2472SOL    HW1 7802   0.388   2.987   8.254
 2472SOL    HW2 7803   0.433   2.986   8.096
 2473SOL     OW 7804   1.271   3.659   8.039
 2473SOL    HW1 7805   1.315   3.723   7.975
 2473SOL    HW2 7806   1.221   3.711   8.109
 2474SOL     OW 7807   1.032   2.411   7.464
 2474SOL    HW1 7808   0.991   2.493   7.425
 2474SOL    HW2 7809   1.096   2.437   7.537
 2475SOL     OW 7810   0.078   2.418   8.834
 2475SOL    HW1 7811   0.170   2.417   8.793
 2475SOL    HW2 7812   0.072   2.492   8.901
 2476SOL     OW 7813   0.561   2.084   8.595
 2476SOL    HW1 7814   0.599   2.000   8.632
 2476SOL    HW2 7815   0.473   2.103   8.639
 2477SOL     OW 7816   0.866   2.316   8.090
 2477SOL    HW1 7817   0.834   2.388   8.028
 2477SOL    HW2 7818   0.890   2.235   8.037
 2478SOL     OW 7819   1.017   1.901   8.201
 2478SOL    HW1 7820   0.945   1.906   8.132
 2478SOL    HW2 7821   0.993   1.832   8.270
 2479SOL     OW 7822   1.429   3.035   8.315
 2479SOL    HW1 7823   1.374   2.951   8.308
 2479SOL    HW2 7824   1.455   3.064   8.223
 2480SOL     OW 7825   1.466   2.452   8.440
 2480SOL    HW1 7826   1.436   2.357   8.447
 2480SOL    HW2 7827   1.539   2.468   8.506
 2481SOL     OW 7828   1.857   2.695   7.825
 2481SOL    HW1 7829   1.899   2.631   7.889
 2481SOL    HW2 7830   1.819   2.644   7.747
 2482SOL     OW 7831   0.488   3.247   7.622
 2482SOL    HW1 7832   0.401   3.232   7.669
 2482SOL    HW2 7833   0.471   3.273   7.527
 2483SOL     OW 7834   1.664   3.142   8.105
 2483SOL    HW1 7835   1.763   3.150   8.119
 2483SOL    HW2 7836   1.619   3.226   8.136
 2484SOL     OW 7837   1.390   2.437   7.526
 2484SOL    HW1 7838   1.336   2.416   7.607
 2484SOL    HW2 7839   1.481   2.396   7.535
 2485SOL     OW 7840   0.527   2.118   7.776
 2485SOL    HW1 7841   0.554   2.059   7.701
 2485SOL    HW2 7842   0.527   2.213   7.745
 2486SOL     OW 7843   1.754   3.085   9.036
 2486SOL    HW1 7844   1.845   3.046   9.023
 2486SOL    HW2 7845   1.762   3.181   9.060
 2487SOL     OW 7846   1.064   3.209   8.788
 2487SOL    HW1 7847   0.984   3.186   8.843
 2487SOL    HW2 7848   1.147   3.183   8.837
 2488SOL     OW 7849   1.592   3.491   9.073
 2488SOL    HW1 7850   1.619   3.525   8.983
 2488SOL    HW2 7851   1.671   3.453   9.119
 2489SOL     OW 7852   1.111   3.057   8.548
 2489SOL    HW1 7853   1.071   3.101   8.629
 2489SOL    HW2 7854   1.070   3.094   8.465
 2490SOL     OW 7855   1.638   2.961   8.527
 2490SOL    HW1 7856   1.643   3.042   8.586
 2490SOL    HW2 7857   1.552   2.963   8.476
 2491SOL     OW 7858   0.915   1.951   8.850
 2491SOL    HW1 7859   0.940   1.931   8.755
 2491SOL    HW2 7860   0.987   2.007   8.892
 2492SOL     OW 7861   0.980   2.978   9.167
 2492SOL    HW1 7862   0.881   2.984   9.177
 2492SOL    HW2 7863   1.003   2.898   9.111
 2493SOL     OW 7864   0.705   2.912   7.816
 2493SOL    HW1 7865   0.691   2.919   7.915
 2493SOL    HW2 7866   0.789   2.861   7.798
 2494SOL     OW 7867   0.410   2.675   8.699
 2494SOL    HW1 7868   0.496   2.687   8.749
 2494SOL    HW2 7869   0.368   2.588   8.726
 2495SOL     OW 7870   1.274   2.248   8.710
 2495SOL    HW1 7871   1.295   2.322   8.774
 2495SOL    HW2 7872   1.185   2.265   8.667
 2496SOL     OW 7873   0.064   3.426   8.779
 2496SOL    HW1 7874   0.018   3.508   8.745
 2496SOL    HW2 7875   0.162   3.445   8.788
 2497SOL     OW 7876   0.367   2.962   7.949
 2497SOL    HW1 7877   0.360   3.045   7.893
 2497SOL    HW2 7878   0.371   2.882   7.889
 2498SOL     OW 7879   0.566   2.399   8.313
 2498SOL    HW1 7880   0.578   2.465   8.239
 2498SOL    HW2 7881   0.612   2.433   8.396
 2499SOL     OW 7882   1.252   3.210   7.836
 2499SOL    HW1 7883   1.302   3.287   7.876
 2499SOL    HW2 7884   1.157   3.212   7.868
 2500SOL     OW 7885   1.272   3.307   8.590
 2500SOL    HW1 7886   1.319   3.320   8.677
 2500SOL    HW2 7887   1.206   3.233   8.599
 2501SOL     OW 7888   1.582   2.501   7.920
 2501SOL    HW1 7889   1.551   2.562   7.993
 2501SOL    HW2 7890   1.632   2.553   7.851
 2502SOL     OW 7891   0.354   3.372   8.777
 2502SOL    HW1 7892   0.333   3.328   8.690
 2502SOL    HW2 7893   0.451   3.398   8.780
 2503SOL     OW 7894   0.402   2.613   9.046
 2503SOL    HW1 7895   0.470   2.668   8.999
 2503SOL    HW2 7896   0.442   2.525   9.073
 2504SOL     OW 7897   1.587   2.641   9.118
 2504SOL    HW1 7898   1.495   2.679   9.113
 2504SOL    HW2 7899   1.647   2.688   9.053
 2505SOL     OW 7900   1.013   1.967   9.218
 2505SOL    HW1 7901   1.019   2.052   9.166
 2505SOL    HW2 7902   1.045   1.891   9.161
 2506SOL     OW 7903   0.504   1.912   9.188
 2506SOL    HW1 7904   0.462   1.855   9.118
 2506SOL    HW2 7905   0.438   1.981   9.220
 2507SOL     OW 7906   0.573   2.732   8.477
 2507SOL    HW1 7907   0.617   2.821   8.468
 2507SOL    HW2 7908   0.510   2.732   8.554
 2508SOL     OW 7909   1.360   2.724   8.493
 2508SOL    HW1 7910   1.285   2.724   8.427
 2508SOL    HW2 7911   1.397   2.632   8.502
 2509SOL     OW 7912   1.209   2.387   7.723
 2509SOL    HW1 7913   1.222   2.303   7.777
 2509SOL    HW2 7914   1.180   2.461   7.783
 2510SOL     OW 7915   0.307   2.075   8.679
 2510SOL    HW1 7916   0.284   2.112   8.769
 2510SOL    HW2 7917   0.277   1.980   8.673
 2511SOL     OW 7918   0.037   3.172   8.730
 2511SOL    HW1 7919   0.090   3.123   8.798
 2511SOL    HW2 7920   0.059   3.270   8.735
 2512SOL     OW 7921   0.732   2.496   8.512
 2512SOL    HW1 7922   0.791   2.470   8.436
 2512SOL    HW2 7923   0.704   2.592   8.501
 2513SOL     OW 7924   1.728   2.797   9.302
 2513SOL    HW1 7925   1.682   2.790   9.213
 2513SOL    HW2 7926   1.666   2.841   9.368
 2514SOL     OW 7927   0.307   1.925   8.066
 2514SOL    HW1 7928   0.296   2.019   8.099
 2514SOL    HW2 7929   0.302   1.862   8.143
 2515SOL     OW 7930   1.622   2.229   7.822
 2515SOL    HW1 7931   1.624   2.153   7.886
 2515SOL    HW2 7932   1.574   2.306   7.862
 2516SOL     OW 7933   1.023   2.628   8.414
 2516SOL    HW1 7934   1.038   2.649   8.510
 2516SOL    HW2 7935   0.993   2.533   8.405
 2517SOL     OW 7936   0.980   3.435   9.148
 2517SOL    HW1 7937   0.960   3.479   9.060
 2517SOL    HW2 7938   1.019   3.344   9.132
 2518SOL     OW 7939   1.859   3.380   9.053
 2518SOL    HW1 7940   1.873   3.407   8.958
 2518SOL    HW2 7941   1.942   3.402   9.106
 2519SOL     OW 7942   0.350   2.760   9.252
 2519SOL    HW1 7943   0.426   2.804   9.300
 2519SOL    HW2 7944   0.385   2.713   9.170
 2520SOL     OW 7945   1.540   2.136   7.573
 2520SOL    HW1 7946   1.479   2.061   7.596
 2520SOL    HW2 7947   1.562   2.188   7.656
 2521SOL     OW 7948   1.303   2.700   7.490
 2521SOL    HW1 7949   1.337   2.607   7.505
 2521SOL    HW2 7950   1.321   2.727   7.395
 2522SOL     OW 7951   1.068   3.195   8.297
 2522SOL    HW1 7952   1.075   3.111   8.242
 2522SOL    HW2 7953   1.130   3.264   8.261
 2523SOL     OW 7954   0.319   2.672   8.397
 2523SOL    HW1 7955   0.412   2.708   8.402
 2523SOL    HW2 7956   0.313   2.587   8.449
 2524SOL     OW 7957   0.339   2.371   8.454
 2524SOL    HW1 7958   0.287   2.288   8.437
 2524SOL    HW2 7959   0.416   2.376   8.390
 2525SOL     OW 7960   1.138   2.242   9.126
 2525SOL    HW1 7961   1.093   2.305   9.190
 2525SOL    HW2 7962   1.231   2.273   9.109
 2526SOL     OW 7963   1.160   2.069   8.925
 2526SOL    HW1 7964   1.160   2.133   9.002
 2526SOL    HW2 7965   1.188   2.117   8.842
 2527SOL     OW 7966   0.008   3.188   7.648
 2527SOL    HW1 7967  -0.085   3.209   7.617
 2527SOL    HW2 7968   0.018   3.089   7.661
 2528SOL     OW 7969   0.088   3.663   8.375
 2528SOL    HW1 7970   0.046   3.577   8.348
 2528SOL    HW2 7971   0.182   3.666   8.341
 2529SOL     OW 7972   0.504   3.430   8.358
 2529SOL    HW1 7973   0.570   3.504   8.367
 2529SOL    HW2 7974   0.548   3.351   8.316
 2530SOL     OW 7975   1.002   2.658   8.686
 2530SOL    HW1 7976   1.043   2.626   8.772
 2530SOL    HW2 7977   0.906   2.631   8.683
 2531SOL     OW 7978   0.040   2.406   8.562
 2531SOL    HW1 7979   0.125   2.373   8.521
 2531SOL    HW2 7980   0.053   2.421   8.660
 2532SOL     OW 7981   0.189   2.382   9.170
 2532SOL    HW1 7982   0.248   2.342   9.100
 2532SOL    HW2 7983   0.131   2.453   9.129
 2533SOL     OW 7984   1.369   2.812   9.108
 2533SOL    HW1 7985   1.408   2.901   9.128
 2533SOL    HW2 7986   1.379   2.792   9.011
 2534SOL     OW 7987   0.815   2.434   7.773
 2534SOL    HW1 7988   0.822   2.345   7.727
 2534SOL    HW2 7989   0.721   2.468   7.765
 2535SOL     OW 7990   1.657   2.466   8.654
 2535SOL    HW1 7991   1.619   2.397   8.716
 2535SOL    HW2 7992   1.739   2.430   8.610
 2536SOL     OW 7993   0.252   3.426   9.192
 2536SOL    HW1 7994   0.222   3.483   9.268
 2536SOL    HW2 7995   0.245   3.329   9.218
 2537SOL     OW 7996   0.671   2.326   8.717
 2537SOL    HW1 7997   0.637   2.237   8.687
 2537SOL    HW2 7998   0.697   2.380   8.637
 2538SOL     OW 7999   0.930   3.540   8.913
 2538SOL    HW1 8000   0.906   3.522   8.818
 2538SOL    HW2 8001   0.960   3.634   8.923
 2539SOL     OW 8002   0.473   2.362   7.639
 2539SOL    HW1 8003   0.534   2.442   7.643
 2539SOL    HW2 8004   0.378   2.393   7.646
 2540SOL     OW 8005   0.159   2.999   8.914
 2540SOL    HW1 8006   0.181   2.938   8.990
 2540SOL    HW2 8007   0.169   2.950   8.828
 2541SOL     OW 8008   1.347   2.921   8.682
 2541SOL    HW1 8009   1.371   2.858   8.608
 2541SOL    HW2 8010   1.257   2.961   8.664
 2542SOL     OW 8011   1.302   2.717   7.757
 2542SOL    HW1 8012   1.216   2.686   7.799
 2542SOL    HW2 8013   1.298   2.703   7.658
 2543SOL     OW 8014   1.759   3.609   8.602
 2543SOL    HW1 8015   1.820   3.639   8.529
 2543SOL    HW2 8016   1.721   3.520   8.580
 2544SOL     OW 8017   1.252   3.593   8.576
 2544SOL    HW1 8018   1.336   3.598   8.522
 2544SOL    HW2 8019   1.229   3.497   8.594
 2545SOL     OW 8020   0.083   3.120   8.470
 2545SOL    HW1 8021   0.078   3.119   8.570
 2545SOL    HW2 8022   0.000   3.079   8.432
 2546SOL     OW 8023   0.688   3.524   9.164
 2546SOL    HW1 8024   0.632   3.605   9.173
 2546SOL    HW2 8025   0.740   3.528   9.078
 2547SOL     OW 8026   1.726   1.997   7.971
 2547SOL    HW1 8027   1.799   1.980   7.904
 2547SOL    HW2 8028   1.695   1.910   8.009
 2548SOL     OW 8029   1.388   3.435   7.925
 2548SOL    HW1 8030   1.455   3.447   7.851
 2548SOL    HW2 8031   1.348   3.524   7.948
 2549SOL     OW 8032   0.130   3.656   9.299
 2549SOL    HW1 8033   0.089   3.582   9.352
 2549SOL    HW2 8034   0.194   3.707   9.357
 2550SOL     OW 8035   1.280   2.789   8.120
 2550SOL    HW1 8036   1.340   2.708   8.122
 2550SOL    HW2 8037   1.320   2.858   8.060
 2551SOL     OW 8038   0.830   3.135   8.870
 2551SOL    HW1 8039   0.825   3.168   8.965
 2551SOL    HW2 8040   0.744   3.154   8.824
 2552SOL     OW 8041   0.672   3.478   7.602
 2552SOL    HW1 8042   0.681   3.488   7.503
 2552SOL    HW2 8043   0.632   3.389   7.623
 2553SOL     OW 8044   1.650   3.582   8.842
 2553SOL    HW1 8045   1.703   3.592   8.758
 2553SOL    HW2 8046   1.623   3.672   8.876
 2554SOL     OW 8047   0.263   2.188   8.168
 2554SOL    HW1 8048   0.184   2.239   8.134
 2554SOL    HW2 8049   0.254   2.173   8.266
 2555SOL     OW 8050   1.194   3.474   7.479
 2555SOL    HW1 8051   1.200   3.381   7.516
 2555SOL    HW2 8052   1.135   3.474   7.399
 2556SOL     OW 8053   0.822   2.864   8.820
 2556SOL    HW1 8054   0.862   2.863   8.728
 2556SOL    HW2 8055   0.832   2.956   8.860
 2557SOL     OW 8056   0.916   2.772   7.739
 2557SOL    HW1 8057   0.979   2.810   7.671
 2557SOL    HW2 8058   0.956   2.689   7.778
 2558SOL     OW 8059   1.504   3.469   7.492
 2558SOL    HW1 8060   1.412   3.506   7.499
 2558SOL    HW2 8061   1.542   3.489   7.402
 2559SOL     OW 8062   0.372   3.150   8.938
 2559SOL    HW1 8063   0.359   3.243   8.904
 2559SOL    HW2 8064   0.288   3.098   8.925
 2560SOL     OW 8065   1.614   3.154   8.737
 2560SOL    HW1 8066   1.674   3.157   8.817
 2560SOL    HW2 8067   1.539   3.218   8.750
 2561SOL     OW 8068   1.039   2.960   8.144
 2561SOL    HW1 8069   0.969   2.913   8.198
 2561SOL    HW2 8070   1.098   2.892   8.101
 2562SOL     OW 8071   1.014   2.098   8.419
 2562SOL    HW1 8072   1.006   2.062   8.326
 2562SOL    HW2 8073   1.012   2.022   8.484
 2563SOL     OW 8074   0.590   3.349   7.939
 2563SOL    HW1 8075   0.632   3.291   7.869
 2563SOL    HW2 8076   0.546   3.428   7.895
 2564SOL     OW 8077   1.709   2.247   8.829
 2564SOL    HW1 8078   1.782   2.316   8.833
 2564SOL    HW2 8079   1.737   2.172   8.770
 2565SOL     OW 8080   0.255   3.210   7.738
 2565SOL    HW1 8081   0.159   3.211   7.711
 2565SOL    HW2 8082   0.267   3.263   7.822
 2566SOL     OW 8083   0.105   2.875   9.174
 2566SOL    HW1 8084   0.028   2.842   9.228
 2566SOL    HW2 8085   0.190   2.845   9.216
 2567SOL     OW 8086   0.672   2.065   8.937
 2567SOL    HW1 8087   0.762   2.049   8.897
 2567SOL    HW2 8088   0.680   2.070   9.036
 2568SOL     OW 8089   0.075   2.207   7.481
 2568SOL    HW1 8090  -0.017   2.179   7.452
 2568SOL    HW2 8091   0.106   2.284   7.425
 2569SOL     OW 8092   1.440   2.718   8.846
 2569SOL    HW1 8093   1.383   2.770   8.783
 2569SOL    HW2 8094   1.536   2.730   8.822
 2570SOL     OW 8095   0.072   2.028   7.766
 2570SOL    HW1 8096   0.055   2.111   7.712
 2570SOL    HW2 8097   0.162   1.991   7.744
 2571SOL     OW 8098   1.183   3.197   7.567
 2571SOL    HW1 8099   1.084   3.186   7.569
 2571SOL    HW2 8100   1.217   3.212   7.660
 2572SOL     OW 8101   0.613   2.704   8.879
 2572SOL    HW1 8102   0.669   2.785   8.862
 2572SOL    HW2 8103   0.672   2.624   8.882
 2573SOL     OW 8104   1.493   3.629   8.407
 2573SOL    HW1 8105   1.526   3.693   8.338
 2573SOL    HW2 8106   1.559   3.623   8.482
 2574SOL     OW 8107   0.716   2.427   9.156
 2574SOL    HW1 8108   0.735   2.492   9.230
 2574SOL    HW2 8109   0.776   2.347   9.165
 2575SOL     OW 8110   1.450   3.082   9.081
 2575SOL    HW1 8111   1.441   3.072   9.180
 2575SOL    HW2 8112   1.546   3.075   9.055
 2576SOL     OW 8113   0.390   3.603   9.008
 2576SOL    HW1 8114   0.299   3.644   9.006
 2576SOL    HW2 8115   0.383   3.509   9.040
 2577SOL     OW 8116   1.674   2.745   8.702
 2577SOL    HW1 8117   1.647   2.656   8.665
 2577SOL    HW2 8118   1.675   2.813   8.629
 2578SOL     OW 8119   1.225   2.187   7.897
 2578SOL    HW1 8120   1.290   2.113   7.886
 2578SOL    HW2 8121   1.245   2.237   7.981
 2579SOL     OW 8122   0.594   2.607   8.100
 2579SOL    HW1 8123   0.644   2.692   8.081
 2579SOL    HW2 8124   0.506   2.609   8.052
 2580SOL     OW 8125   1.777   2.204   9.090
 2580SOL    HW1 8126   1.760   2.235   8.996
 2580SOL    HW2 8127   1.693   2.167   9.128
 2581SOL     OW 8128   1.730   2.796   8.965
 2581SOL    HW1 8129   1.768   2.887   8.980
 2581SOL    HW2 8130   1.722   2.779   8.866
 2582SOL     OW 8131   0.859   3.236   7.464
 2582SOL    HW1 8132   0.813   3.251   7.552
 2582SOL    HW2 8133   0.903   3.321   7.434
 2583SOL     OW 8134   0.661   3.652   8.401
 2583SOL    HW1 8135   0.615   3.740   8.388
 2583SOL    HW2 8136   0.760   3.664   8.394
 2584SOL     OW 8137   0.859   2.818   8.309
 2584SOL    HW1 8138   0.913   2.749   8.357
 2584SOL    HW2 8139   0.827   2.887   8.375
 2585SOL     OW 8140   1.083   2.846   7.535
 2585SOL    HW1 8141   1.060   2.899   7.453
 2585SOL    HW2 8142   1.164   2.790   7.516
 2586SOL     OW 8143   1.861   3.431   8.299
 2586SOL    HW1 8144   1.790   3.419   8.229
 2586SOL    HW2 8145   1.862   3.352   8.359
 2587SOL     OW 8146   0.221   3.176   9.292
 2587SOL    HW1 8147   0.156   3.103   9.271
 2587SOL    HW2 8148   0.225   3.190   9.390
 2588SOL     OW 8149   0.079   3.102   8.101
 2588SOL    HW1 8150   0.078   3.055   8.189
 2588SOL    HW2 8151   0.161   3.074   8.050
 2589SOL     OW 8152   0.672   3.253   9.072
 2589SOL    HW1 8153   0.594   3.203   9.110
 2589SOL    HW2 8154   0.669   3.348   9.103
 2590SOL     OW 8155   0.428   2.286   7.968
 2590SOL    HW1 8156   0.458   2.214   7.906
 2590SOL    HW2 8157   0.389   2.246   8.051
 2591SOL     OW 8158   1.705   3.349   8.552
 2591SOL    HW1 8159   1.612   3.324   8.525
 2591SOL    HW2 8160   1.731   3.299   8.634
 2592SOL     OW 8161   0.317   2.409   8.728
 2592SOL    HW1 8162   0.355   2.350   8.800
 2592SOL    HW2 8163   0.357   2.383   8.640
 2593SOL     OW 8164   0.812   3.448   8.135
 2593SOL    HW1 8165   0.844   3.458   8.041
 2593SOL    HW2 8166   0.733   3.386   8.137
 2594SOL     OW 8167   1.424   2.076   8.560
 2594SOL    HW1 8168   1.476   2.011   8.615
 2594SOL    HW2 8169   1.375   2.139   8.621
 2595SOL     OW 8170   1.001   1.896   8.602
 2595SOL    HW1 8171   0.938   1.824   8.571
 2595SOL    HW2 8172   1.094   1.860   8.602
 2596SOL     OW 8173   0.770   3.192   7.749
 2596SOL    HW1 8174   0.724   3.105   7.766
 2596SOL    HW2 8175   0.861   3.189   7.790
 2597SOL     OW 8176   0.618   3.429   8.732
 2597SOL    HW1 8177   0.613   3.511   8.789
 2597SOL    HW2 8178   0.707   3.426   8.687
 2598SOL     OW 8179   1.352   1.914   7.616
 2598SOL    HW1 8180   1.387   1.873   7.532
 2598SOL    HW2 8181   1.262   1.876   7.636
 2599SOL     OW 8182   1.300   2.315   8.139
 2599SOL    HW1 8183   1.241   2.395   8.143
 2599SOL    HW2 8184   1.315   2.280   8.232
 2600SOL     OW 8185   1.593   2.083   8.330
 2600SOL    HW1 8186   1.509   2.082   8.384
 2600SOL    HW2 8187   1.595   2.166   8.274
 2601SOL     OW 8188   0.039   2.939   7.748
 2601SOL    HW1 8189   0.138   2.928   7.739
 2601SOL    HW2 8190  -0.001   2.853   7.780
 2602SOL     OW 8191   0.875   3.508   7.785
 2602SOL    HW1 8192   0.798   3.473   7.731
 2602SOL    HW2 8193   0.843   3.579   7.847
 2603SOL     OW 8194   0.230   2.490   9.423
 2603SOL    HW1 8195   0.137   2.488   9.460
 2603SOL    HW2 8196   0.231   2.451   9.331
 2604SOL     OW 8197   0.225   2.137  10.306
 2604SOL    HW1 8198   0.260   2.120  10.398
 2604SOL    HW2 8199   0.137   2.092  10.294
 2605SOL     OW 8200   0.019   2.230   9.957
 2605SOL    HW1 8201  -0.063   2.273   9.996
 2605SOL    HW2 8202  -0.009   2.157   9.894
 2606SOL     OW 8203   0.569   3.137  10.475
 2606SOL    HW1 8204   0.476   3.130  10.438
 2606SOL    HW2 8205   0.580   3.226  10.519
 2607SOL     OW 8206   1.555   3.373  10.013
 2607SOL    HW1 8207   1.498   3.357  10.094
 2607SOL    HW2 8208   1.496   3.383   9.933
 2608SOL     OW 8209   1.135   2.565  10.027
 2608SOL    HW1 8210   1.192   2.643  10.002
 2608SOL    HW2 8211   1.075   2.591  10.103
 2609SOL     OW 8212   1.755   2.469   9.541
 2609SOL    HW1 8213   1.743   2.456   9.442
 2609SOL    HW2 8214   1.725   2.388   9.590
 2610SOL     OW 8215   0.768   3.006  10.333
 2610SOL    HW1 8216   0.690   3.023  10.393
 2610SOL    HW2 8217   0.802   3.093  10.297
 2611SOL     OW 8218   0.850   2.660  11.133
 2611SOL    HW1 8219   0.846   2.736  11.198
 2611SOL    HW2 8220   0.872   2.696  11.042
 2612SOL     OW 8221   0.685   2.874   9.975
 2612SOL    HW1 8222   0.754   2.858  10.045
 2612SOL    HW2 8223   0.612   2.931  10.013
 2613SOL     OW 8224   0.686   3.023  11.113
 2613SOL    HW1 8225   0.746   3.102  11.127
 2613SOL    HW2 8226   0.600   3.054  11.072
 2614SOL     OW 8227   0.335   3.297  10.371
 2614SOL    HW1 8228   0.257   3.266  10.318
 2614SOL    HW2 8229   0.393   3.355  10.314
 2615SOL     OW 8230   1.460   3.367  10.649
 2615SOL    HW1 8231   1.484   3.461  10.675
 2615SOL    HW2 8232   1.444   3.313  10.731
 2616SOL     OW 8233   0.438   2.254  10.809
 2616SOL    HW1 8234   0.520   2.198  10.818
 2616SOL    HW2 8235   0.357   2.196  10.813
 2617SOL     OW 8236   1.603   2.309  10.047
 2617SOL    HW1 8237   1.529   2.355   9.997
 2617SOL    HW2 8238   1.654   2.377  10.100
 2618SOL     OW 8239   0.231   3.575   9.793
 2618SOL    HW1 8240   0.265   3.652   9.847
 2618SOL    HW2 8241   0.275   3.575   9.703
 2619SOL     OW 8242   1.127   3.203  11.000
 2619SOL    HW1 8243   1.174   3.203  11.088
 2619SOL    HW2 8244   1.079   3.116  10.989
 2620SOL     OW 8245   0.230   3.296   9.848
 2620SOL    HW1 8246   0.204   3.392   9.848
 2620SOL    HW2 8247   0.159   3.242   9.893
 2621SOL     OW 8248   0.240   2.953  10.196
 2621SOL    HW1 8249   0.254   2.869  10.248
 2621SOL    HW2 8250   0.185   3.017  10.251
 2622SOL     OW 8251   0.620   3.648  10.749
 2622SOL    HW1 8252   0.528   3.631  10.784
 2622SOL    HW2 8253   0.648   3.740  10.775
 2623SOL     OW 8254   0.606   2.826   9.433
 2623SOL    HW1 8255   0.613   2.910   9.379
 2623SOL    HW2 8256   0.652   2.839   9.521
 2624SOL     OW 8257   1.594   1.976  10.790
 2624SOL    HW1 8258   1.576   2.043  10.718
 2624SOL    HW2 8259   1.591   2.022  10.879
 2625SOL     OW 8260   0.122   2.505   9.873
 2625SOL    HW1 8261   0.077   2.417   9.890
 2625SOL    HW2 8262   0.121   2.559   9.957
 2626SOL     OW 8263   1.842   3.629   9.669
 2626SOL    HW1 8264   1.896   3.600   9.749
 2626SOL    HW2 8265   1.872   3.719   9.640
 2627SOL     OW 8266   0.027   3.458   9.427
 2627SOL    HW1 8267   0.008   3.362   9.448
 2627SOL    HW2 8268  -0.006   3.516   9.502
 2628SOL     OW 8269   1.689   2.784   9.922
 2628SOL    HW1 8270   1.784   2.755   9.930
 2628SOL    HW2 8271   1.681   2.849   9.847
 2629SOL     OW 8272   1.641   2.970   9.742
 2629SOL    HW1 8273   1.727   2.972   9.690
 2629SOL    HW2 8274   1.655   3.017   9.830
 2630SOL     OW 8275   0.113   2.599  10.907
 2630SOL    HW1 8276   0.201   2.586  10.952
 2630SOL    HW2 8277   0.100   2.696  10.885
 2631SOL     OW 8278   0.613   3.227  10.036
 2631SOL    HW1 8279   0.564   3.140  10.045
 2631SOL    HW2 8280   0.590   3.270   9.949
 2632SOL     OW 8281   1.293   3.090  10.733
 2632SOL    HW1 8282   1.330   3.017  10.675
 2632SOL    HW2 8283   1.345   3.095  10.818
 2633SOL     OW 8284   0.809   1.866   9.812
 2633SOL    HW1 8285   0.849   1.957   9.803
 2633SOL    HW2 8286   0.709   1.874   9.818
 2634SOL     OW 8287   0.197   2.838  10.574
 2634SOL    HW1 8288   0.286   2.793  10.560
 2634SOL    HW2 8289   0.124   2.773  10.555
 2635SOL     OW 8290   1.525   2.861   9.500
 2635SOL    HW1 8291   1.462   2.785   9.513
 2635SOL    HW2 8292   1.573   2.879   9.586
 2636SOL     OW 8293   1.187   3.654  10.926
 2636SOL    HW1 8294   1.211   3.714  10.850
 2636SOL    HW2 8295   1.194   3.559  10.896
 2637SOL     OW 8296   0.317   2.113  11.111
 2637SOL    HW1 8297   0.388   2.184  11.117
 2637SOL    HW2 8298   0.229   2.152  11.139
 2638SOL     OW 8299   1.466   3.279  10.263
 2638SOL    HW1 8300   1.407   3.285  10.343
 2638SOL    HW2 8301   1.451   3.191  10.217
 2639SOL     OW 8302   1.667   3.576   9.882
 2639SOL    HW1 8303   1.626   3.553   9.794
 2639SOL    HW2 8304   1.649   3.502   9.947
 2640SOL     OW 8305   0.598   2.591   9.580
 2640SOL    HW1 8306   0.622   2.660   9.512
 2640SOL    HW2 8307   0.520   2.624   9.634
 2641SOL     OW 8308   1.281   2.207  10.254
 2641SOL    HW1 8309   1.195   2.157  10.241
 2641SOL    HW2 8310   1.343   2.153  10.310
 2642SOL     OW 8311   1.576   3.524   9.617
 2642SOL    HW1 8312   1.665   3.570   9.620
 2642SOL    HW2 8313   1.555   3.500   9.522
 2643SOL     OW 8314   0.807   2.467  10.775
 2643SOL    HW1 8315   0.760   2.464  10.864
 2643SOL    HW2 8316   0.756   2.412  10.709
 2644SOL     OW 8317   1.394   2.331  10.984
 2644SOL    HW1 8318   1.374   2.374  11.072
 2644SOL    HW2 8319   1.472   2.269  10.993
 2645SOL     OW 8320   0.973   2.752  10.882
 2645SOL    HW1 8321   1.019   2.668  10.853
 2645SOL    HW2 8322   0.917   2.786  10.807
 2646SOL     OW 8323   0.991   2.272  10.552
 2646SOL    HW1 8324   0.914   2.306  10.606
 2646SOL    HW2 8325   0.957   2.221  10.473
 2647SOL     OW 8326   1.041   2.563   9.739
 2647SOL    HW1 8327   1.067   2.559   9.835
 2647SOL    HW2 8328   0.956   2.512   9.725
 2648SOL     OW 8329   0.076   2.673  10.099
 2648SOL    HW1 8330   0.175   2.661  10.108
 2648SOL    HW2 8331   0.052   2.768  10.120
 2649SOL     OW 8332   0.130   3.683  10.881
 2649SOL    HW1 8333   0.120   3.668  10.980
 2649SOL    HW2 8334   0.044   3.719  10.845
 2650SOL     OW 8335   0.865   2.210   9.505
 2650SOL    HW1 8336   0.924   2.273   9.456
 2650SOL    HW2 8337   0.884   2.116   9.476
 2651SOL     OW 8338   1.719   2.447  11.141
 2651SOL    HW1 8339   1.693   2.536  11.105
 2651SOL    HW2 8340   1.717   2.379  11.068
 2652SOL     OW 8341   1.362   3.006   9.855
 2652SOL    HW1 8342   1.445   2.977   9.807
 2652SOL    HW2 8343   1.313   3.073   9.799
 2653SOL     OW 8344   0.550   2.058  10.195
 2653SOL    HW1 8345   0.545   2.053  10.295
 2653SOL    HW2 8346   0.552   2.154  10.166
 2654SOL     OW 8347   1.008   3.318   9.787
 2654SOL    HW1 8348   0.962   3.390   9.735
 2654SOL    HW2 8349   1.004   3.338   9.885
 2655SOL     OW 8350   0.351   3.663  10.163
 2655SOL    HW1 8351   0.401   3.577  10.169
 2655SOL    HW2 8352   0.416   3.740  10.160
 2656SOL     OW 8353   1.795   2.928  10.183
 2656SOL    HW1 8354   1.733   2.913  10.107
 2656SOL    HW2 8355   1.743   2.939  10.268
 2657SOL     OW 8356   1.227   3.412  10.816
 2657SOL    HW1 8357   1.233   3.335  10.880
 2657SOL    HW2 8358   1.175   3.386  10.736
 2658SOL     OW 8359   0.321   2.805   9.552
 2658SOL    HW1 8360   0.403   2.844   9.510
 2658SOL    HW2 8361   0.294   2.723   9.503
 2659SOL     OW 8362   1.458   2.597  10.038
 2659SOL    HW1 8363   1.453   2.532  10.113
 2659SOL    HW2 8364   1.538   2.656  10.051
 2660SOL     OW 8365   0.461   3.128  11.037
 2660SOL    HW1 8366   0.411   3.129  10.951
 2660SOL    HW2 8367   0.398   3.110  11.113
 2661SOL     OW 8368   1.111   3.638   9.547
 2661SOL    HW1 8369   1.051   3.576   9.597
 2661SOL    HW2 8370   1.142   3.594   9.462
 2662SOL     OW 8371   0.202   2.147  10.808
 2662SOL    HW1 8372   0.122   2.207  10.795
 2662SOL    HW2 8373   0.192   2.098  10.894
 2663SOL     OW 8374   1.632   3.239   9.391
 2663SOL    HW1 8375   1.600   3.333   9.381
 2663SOL    HW2 8376   1.556   3.176   9.379
 2664SOL     OW 8377   0.464   3.605   9.633
 2664SOL    HW1 8378   0.497   3.644   9.719
 2664SOL    HW2 8379   0.540   3.598   9.568
 2665SOL     OW 8380   1.400   1.969   9.736
 2665SOL    HW1 8381   1.376   1.932   9.646
 2665SOL    HW2 8382   1.499   1.985   9.740
 2666SOL     OW 8383   0.249   3.647  10.551
 2666SOL    HW1 8384   0.306   3.582  10.601
 2666SOL    HW2 8385   0.233   3.614  10.458
 2667SOL     OW 8386   0.940   3.560  10.214
 2667SOL    HW1 8387   1.020   3.503  10.235
 2667SOL    HW2 8388   0.891   3.520  10.137
 2668SOL     OW 8389   0.382   2.562   9.790
 2668SOL    HW1 8390   0.427   2.472   9.787
 2668SOL    HW2 8391   0.288   2.551   9.823
 2669SOL     OW 8392   1.547   2.084  11.039
 2669SOL    HW1 8393   1.542   2.121  11.131
 2669SOL    HW2 8394   1.475   2.015  11.027
 2670SOL     OW 8395   0.614   1.984   9.427
 2670SOL    HW1 8396   0.712   1.962   9.434
 2670SOL    HW2 8397   0.583   1.967   9.334
 2671SOL     OW 8398   0.781   2.126  11.059
 2671SOL    HW1 8399   0.848   2.065  11.102
 2671SOL    HW2 8400   0.708   2.145  11.124
 2672SOL     OW 8401   0.888   3.376  10.505
 2672SOL    HW1 8402   0.865   3.351  10.411
 2672SOL    HW2 8403   0.949   3.307  10.544
 2673SOL     OW 8404   1.351   2.452  10.743
 2673SOL    HW1 8405   1.379   2.409  10.828
 2673SOL    HW2 8406   1.376   2.548  10.744
 2674SOL     OW 8407   0.803   3.264  10.234
 2674SOL    HW1 8408   0.893   3.278  10.192
 2674SOL    HW2 8409   0.732   3.266  10.163
 2675SOL     OW 8410   0.922   2.365  10.209
 2675SOL    HW1 8411   0.897   2.356  10.113
 2675SOL    HW2 8412   0.970   2.283  10.240
 2676SOL     OW 8413   0.539   1.926   9.822
 2676SOL    HW1 8414   0.458   1.927   9.880
 2676SOL    HW2 8415   0.542   2.009   9.767
 2677SOL     OW 8416   1.434   3.050   9.351
 2677SOL    HW1 8417   1.466   2.974   9.408
 2677SOL    HW2 8418   1.342   3.077   9.381
 2678SOL     OW 8419   0.297   1.897   9.481
 2678SOL    HW1 8420   0.346   1.981   9.460
 2678SOL    HW2 8421   0.359   1.832   9.526
 2679SOL     OW 8422   0.935   2.098   9.790
 2679SOL    HW1 8423   0.887   2.139   9.712
 2679SOL    HW2 8424   1.034   2.096   9.771
 2680SOL     OW 8425   1.076   2.545  10.774
 2680SOL    HW1 8426   0.996   2.484  10.777
 2680SOL    HW2 8427   1.157   2.492  10.750
 2681SOL     OW 8428   1.227   3.432  10.103
 2681SOL    HW1 8429   1.248   3.506  10.038
 2681SOL    HW2 8430   1.295   3.432  10.176
 2682SOL     OW 8431   0.459   3.014  10.051
 2682SOL    HW1 8432   0.388   2.987  10.116
 2682SOL    HW2 8433   0.433   2.986   9.958
 2683SOL     OW 8434   1.271   3.659   9.901
 2683SOL    HW1 8435   1.315   3.723   9.837
 2683SOL    HW2 8436   1.221   3.711   9.971
 2684SOL     OW 8437   1.032   2.411   9.326
 2684SOL    HW1 8438   0.991   2.493   9.287
 2684SOL    HW2 8439   1.096   2.437   9.399
 2685SOL     OW 8440   0.078   2.418  10.696
 2685SOL    HW1 8441   0.170   2.417  10.655
 2685SOL    HW2 8442   0.072   2.492  10.763
 2686SOL     OW 8443   0.561   2.084  10.457
 2686SOL    HW1 8444   0.599   2.000  10.494
 2686SOL    HW2 8445   0.473   2.103  10.501
 2687SOL     OW 8446   0.866   2.316   9.952
 2687SOL    HW1 8447   0.834   2.388   9.890
 2687SOL    HW2 8448   0.890   2.235   9.899
 2688SOL     OW 8449   1.017   1.901  10.063
 2688SOL    HW1 8450   0.945   1.906   9.994
 2688SOL    HW2 8451   0.993   1.832  10.132
 2689SOL     OW 8452   1.429   3.035  10.177
 2689SOL    HW1 8453   1.374   2.951  10.170
 2689SOL    HW2 8454   1.455   3.064  10.085
 2690SOL     OW 8455   1.466   2.452  10.302
 2690SOL    HW1 8456   1.436   2.357  10.309
 2690SOL    HW2 8457   1.539   2.468  10.368
 2691SOL     OW 8458   1.857   2.695   9.687
 2691SOL    HW1 8459   1.899   2.631   9.751
 2691SOL    HW2 8460   1.819   2.644   9.609
 2692SOL     OW 8461   0.488   3.247   9.484
 2692SOL    HW1 8462   0.401   3.232   9.531
 2692SOL    HW2 8463   0.471   3.273   9.389
 2693SOL     OW 8464   1.664   3.142   9.967
 2693SOL    HW1 8465   1.763   3.150   9.981
 2693SOL    HW2 8466   1.619   3.226   9.998
 2694SOL     OW 8467   1.390   2.437   9.388
 2694SOL    HW1 8468   1.336   2.416   9.469
 2694SOL    HW2 8469   1.481   2.396   9.397
 2695SOL     OW 8470   0.527   2.118   9.638
 2695SOL    HW1 8471   0.554   2.059   9.563
 2695SOL    HW2 8472   0.527   2.213   9.607
 2696SOL     OW 8473   1.754   3.085  10.898
 2696SOL    HW1 8474   1.845   3.046  10.885
 2696SOL    HW2 8475   1.762   3.181  10.922
 2697SOL     OW 8476   1.064   3.209  10.650
 2697SOL    HW1 8477   0.984   3.186  10.705
 2697SOL    HW2 8478   1.147   3.183  10.699
 2698SOL     OW 8479   1.592   3.491  10.935
 2698SOL    HW1 8480   1.619   3.525  10.845
 2698SOL    HW2 8481   1.671   3.453  10.981
 2699SOL     OW 8482   1.111   3.057  10.410
 2699SOL    HW1 8483   1.071   3.101  10.491
 2699SOL    HW2 8484   1.070   3.094  10.327
 2700SOL     OW 8485   1.638   2.961  10.389
 2700SOL    HW1 8486   1.643   3.042  10.448
 2700SOL    HW2 8487   1.552   2.963  10.338
 2701SOL     OW 8488   0.915   1.951  10.712
 2701SOL    HW1 8489   0.940   1.931  10.617
 2701SOL    HW2 8490   0.987   2.007  10.754
 2702SOL     OW 8491   0.980   2.978  11.029
 2702SOL    HW1 8492   0.881   2.984  11.039
 2702SOL    HW2 8493   1.003   2.898  10.973
 2703SOL     OW 8494   0.705   2.912   9.678
 2703SOL    HW1 8495   0.691   2.919   9.777
 2703SOL    HW2 8496   0.789   2.861   9.660
 2704SOL     OW 8497   0.410   2.675  10.561
 2704SOL    HW1 8498   0.496   2.687  10.611
 2704SOL    HW2 8499   0.368   2.588  10.588
 2705SOL     OW 8500   1.274   2.248  10.572
 2705SOL    HW1 8501   1.295   2.322  10.636
 2705SOL    HW2 8502   1.185   2.265  10.529
 2706SOL     OW 8503   0.064   3.426  10.641
 2706SOL    HW1 8504   0.018   3.508  10.607
 2706SOL    HW2 8505   0.162   3.445  10.650
 2707SOL     OW 8506   0.367   2.962   9.811
 2707SOL    HW1 8507   0.360   3.045   9.755
 2707SOL    HW2 8508   0.371   2.882   9.751
 2708SOL     OW 8509   0.566   2.399  10.175
 2708SOL    HW1 8510   0.578   2.465  10.101
 2708SOL    HW2 8511   0.612   2.433  10.258
 2709SOL     OW 8512   1.252   3.210   9.698
 2709SOL    HW1 8513   1.302   3.287   9.738
 2709SOL    HW2 8514   1.157   3.212   9.730
 2710SOL     OW 8515   1.272   3.307  10.452
 2710SOL    HW1 8516   1.319   3.320  10.539
 2710SOL    HW2 8517   1.206   3.233  10.461
 2711SOL     OW 8518   1.582   2.501   9.782
 2711SOL    HW1 8519   1.551   2.562   9.855
 2711SOL    HW2 8520   1.632   2.553   9.713
 2712SOL     OW 8521   0.354   3.372  10.639
 2712SOL    HW1 8522   0.333   3.328  10.552
 2712SOL    HW2 8523   0.451   3.398  10.642
 2713SOL     OW 8524   0.402   2.613  10.908
 2713SOL    HW1 8525   0.470   2.668  10.861
 2713SOL    HW2 8526   0.442   2.525  10.935
 2714SOL     OW 8527   1.587   2.641  10.980
 2714SOL    HW1 8528   1.495   2.679  10.975
 2714SOL    HW2 8529   1.647   2.688  10.915
 2715SOL     OW 8530   1.013   1.967  11.080
 2715SOL    HW1 8531   1.019   2.052  11.028
 2715SOL    HW2 8532   1.045   1.891  11.023
 2716SOL     OW 8533   0.504   1.912  11.050
 2716SOL    HW1 8534   0.462   1.855  10.980
 2716SOL    HW2 8535   0.438   1.981  11.082
 2717SOL     OW 8536   0.573   2.732  10.339
 2717SOL    HW1 8537   0.617   2.821  10.330
 2717SOL    HW2 8538   0.510   2.732  10.416
 2718SOL     OW 8539   1.360   2.724  10.355
 2718SOL    HW1 8540   1.285   2.724  10.289
 2718SOL    HW2 8541   1.397   2.632  10.364
 2719SOL     OW 8542   1.209   2.387   9.585
 2719SOL    HW1 8543   1.222   2.303   9.639
 2719SOL    HW2 8544   1.180   2.461   9.645
 2720SOL     OW 8545   0.307   2.075  10.541
 2720SOL    HW1 8546   0.284   2.112  10.631
 2720SOL    HW2 8547   0.277   1.980  10.535
 2721SOL     OW 8548   0.037   3.172  10.592
 2721SOL    HW1 8549   0.090   3.123  10.660
 2721SOL    HW2 8550   0.059   3.270  10.597
 2722SOL     OW 8551   0.732   2.496  10.374
 2722SOL    HW1 8552   0.791   2.470  10.298
 2722SOL    HW2 8553   0.704   2.592  10.363
 2723SOL     OW 8554   1.728   2.797  11.164
 2723SOL    HW1 8555   1.682   2.790  11.075
 2723SOL    HW2 8556   1.666   2.841  11.230
 2724SOL     OW 8557   0.307   1.925   9.928
 2724SOL    HW1 8558   0.296   2.019   9.961
 2724SOL    HW2 8559   0.302   1.862  10.005
 2725SOL     OW 8560   1.622   2.229   9.684
 2725SOL    HW1 8561   1.624   2.153   9.748
 2725SOL    HW2 8562   1.574   2.306   9.724
 2726SOL     OW 8563   1.023   2.628  10.276
 2726SOL    HW1 8564   1.038   2.649  10.372
 2726SOL    HW2 8565   0.993   2.533  10.267
 2727SOL     OW 8566   0.980   3.435  11.010
 2727SOL    HW1 8567   0.960   3.479  10.922
 2727SOL    HW2 8568   1.019   3.344  10.994
 2728SOL     OW 8569   1.859   3.380  10.915
 2728SOL    HW1 8570   1.873   3.407  10.820
 2728SOL    HW2 8571   1.942   3.402  10.968
 2729SOL     OW 8572   0.350   2.760  11.114
 2729SOL    HW1 8573   0.426   2.804  11.162
 2729SOL    HW2 8574   0.385   2.713  11.032
 2730SOL     OW 8575   1.540   2.136   9.435
 2730SOL    HW1 8576   1.479   2.061   9.458
 2730SOL    HW2 8577   1.562   2.188   9.518
 2731SOL     OW 8578   1.303   2.700   9.352
 2731SOL    HW1 8579   1.337   2.607   9.367
 2731SOL    HW2 8580   1.321   2.727   9.257
 2732SOL     OW 8581   1.068   3.195  10.159
 2732SOL    HW1 8582   1.075   3.111  10.104
 2732SOL    HW2 8583   1.130   3.264  10.123
 2733SOL     OW 8584   0.319   2.672  10.259
 2733SOL    HW1 8585   0.412   2.708  10.264
 2733SOL    HW2 8586   0.313   2.587  10.311
 2734SOL     OW 8587   0.339   2.371  10.316
 2734SOL    HW1 8588   0.287   2.288  10.299
 2734SOL    HW2 8589   0.416   2.376  10.252
 2735SOL     OW 8590   1.138   2.242  10.988
 2735SOL    HW1 8591   1.093   2.305  11.052
 2735SOL    HW2 8592   1.231   2.273  10.971
 2736SOL     OW 8593   1.160   2.069  10.787
 2736SOL    HW1 8594   1.160   2.133  10.864
 2736SOL    HW2 8595   1.188   2.117  10.704
 2737SOL     OW 8596   0.008   3.188   9.510
 2737SOL    HW1 8597  -0.085   3.209   9.479
 2737SOL    HW2 8598   0.018   3.089   9.523
 2738SOL     OW 8599   0.088   3.663  10.237
 2738SOL    HW1 8600   0.046   3.577  10.210
 2738SOL    HW2 8601   0.182   3.666  10.203
 2739SOL     OW 8602   0.504   3.430  10.220
 2739SOL    HW1 8603   0.570   3.504  10.229
 2739SOL    HW2 8604   0.548   3.351  10.178
 2740SOL     OW 8605   1.002   2.658  10.548
 2740SOL    HW1 8606   1.043   2.626  10.634
 2740SOL    HW2 8607   0.906   2.631  10.545
 2741SOL     OW 8608   0.040   2.406  10.424
 2741SOL    HW1 8609   0.125   2.373  10.383
 2741SOL    HW2 8610   0.053   2.421  10.522
 2742SOL     OW 8611   0.189   2.382  11.032
 2742SOL    HW1 8612   0.248   2.342  10.962
 2742SOL    HW2 8613   0.131   2.453  10.991
 2743SOL     OW 8614   1.369   2.812  10.970
 2743SOL    HW1 8615   1.408   2.901  10.990
 2743SOL    HW2 8616   1.379   2.792  10.873
 2744SOL     OW 8617   0.815   2.434   9.635
 2744SOL    HW1 8618   0.822   2.345   9.589
 2744SOL    HW2 8619   0.721   2.468   9.627
 2745SOL     OW 8620   1.657   2.466  10.516
 2745SOL    HW1 8621   1.619   2.397  10.578
 2745SOL    HW2 8622   1.739   2.430  10.472
 2746SOL     OW 8623   0.252   3.426  11.054
 2746SOL    HW1 8624   0.222   3.483  11.130
 2746SOL    HW2 8625   0.245   3.329  11.080
 2747SOL     OW 8626   0.671   2.326  10.579
 2747SOL    HW1 8627   0.637   2.237  10.549
 2747SOL    HW2 8628   0.697   2.380  10.499
 2748SOL     OW 8629   0.930   3.540  10.775
 2748SOL    HW1 8630   0.906   3.522  10.680
 2748SOL    HW2 8631   0.960   3.634  10.785
 2749SOL     OW 8632   0.473   2.362   9.501
 2749SOL    HW1 8633   0.534   2.442   9.505
 2749SOL    HW2 8634   0.378   2.393   9.508
 2750SOL     OW 8635   0.159   2.999  10.776
 2750SOL    HW1 8636   0.181   2.938  10.852
 2750SOL    HW2 8637   0.169   2.950  10.690
 2751SOL     OW 8638   1.347   2.921  10.544
 2751SOL    HW1 8639   1.371   2.858  10.470
 2751SOL    HW2 8640   1.257   2.961  10.526
 2752SOL     OW 8641   1.302   2.717   9.619
 2752SOL    HW1 8642   1.216   2.686   9.661
 2752SOL    HW2 8643   1.298   2.703   9.520
 2753SOL     OW 8644   1.759   3.609  10.464
 2753SOL    HW1 8645   1.820   3.639  10.391
 2753SOL    HW2 8646   1.721   3.520  10.442
 2754SOL     OW 8647   1.252   3.593  10.438
 2754SOL    HW1 8648   1.336   3.598  10.384
 2754SOL    HW2 8649   1.229   3.497  10.456
 2755SOL     OW 8650   0.083   3.120  10.332
 2755SOL    HW1 8651   0.078   3.119  10.432
 2755SOL    HW2 8652   0.000   3.079  10.294
 2756SOL     OW 8653   0.688   3.524  11.026
 2756SOL    HW1 8654   0.632   3.605  11.035
 2756SOL    HW2 8655   0.740   3.528  10.940
 2757SOL     OW 8656   1.388   3.435   9.787
 2757SOL    HW1 8657   1.455   3.447   9.713
 2757SOL    HW2 8658   1.348   3.524   9.810
 2758SOL     OW 8659   0.130   3.656  11.161
 2758SOL    HW1 8660   0.089   3.582  11.214
 2758SOL    HW2 8661   0.194   3.707  11.219
 2759SOL     OW 8662   1.280   2.789   9.982
 2759SOL    HW1 8663   1.340   2.708   9.984
 2759SOL    HW2 8664   1.320   2.858   9.922
 2760SOL     OW 8665   0.830   3.135  10.732
 2760SOL    HW1 8666   0.825   3.168  10.827
 2760SOL    HW2 8667   0.744   3.154  10.686
 2761SOL     OW 8668   0.672   3.478   9.464
 2761SOL    HW1 8669   0.681   3.488   9.365
 2761SOL    HW2 8670   0.632   3.389   9.485
 2762SOL     OW 8671   1.650   3.582  10.704
 2762SOL    HW1 8672   1.703   3.592  10.620
 2762SOL    HW2 8673   1.623   3.672  10.738
 2763SOL     OW 8674   0.263   2.188  10.030
 2763SOL    HW1 8675   0.184   2.239   9.996
 2763SOL    HW2 8676   0.254   2.173  10.128
 2764SOL     OW 8677   1.194   3.474   9.341
 2764SOL    HW1 8678   1.200   3.381   9.378
 2764SOL    HW2 8679   1.135   3.474   9.261
 2765SOL     OW 8680   0.822   2.864  10.682
 2765SOL    HW1 8681   0.862   2.863  10.590
 2765SOL    HW2 8682   0.832   2.956  10.722
 2766SOL     OW 8683   0.916   2.772   9.601
 2766SOL    HW1 8684   0.979   2.810   9.533
 2766SOL    HW2 8685   0.956   2.689   9.640
 2767SOL     OW 8686   1.504   3.469   9.354
 2767SOL    HW1 8687   1.412   3.506   9.361
 2767SOL    HW2 8688   1.542   3.489   9.264
 2768SOL     OW 8689   0.372   3.150  10.800
 2768SOL    HW1 8690   0.359   3.243  10.766
 2768SOL    HW2 8691   0.288   3.098  10.787
 2769SOL     OW 8692   1.614   3.154  10.599
 2769SOL    HW1 8693   1.674   3.157  10.679
 2769SOL    HW2 8694   1.539   3.218  10.612
 2770SOL     OW 8695   1.039   2.960  10.006
 2770SOL    HW1 8696   0.969   2.913  10.060
 2770SOL    HW2 8697   1.098   2.892   9.963
 2771SOL     OW 8698   1.014   2.098  10.281
 2771SOL    HW1 8699   1.006   2.062  10.188
 2771SOL    HW2 8700   1.012   2.022  10.346
 2772SOL     OW 8701   0.590   3.349   9.801
 2772SOL    HW1 8702   0.632   3.291   9.731
 2772SOL    HW2 8703   0.546   3.428   9.757
 2773SOL     OW 8704   1.709   2.247  10.691
 2773SOL    HW1 8705   1.782   2.316  10.695
 2773SOL    HW2 8706   1.737   2.172  10.632
 2774SOL     OW 8707   0.255   3.210   9.600
 2774SOL    HW1 8708   0.159   3.211   9.573
 2774SOL    HW2 8709   0.267   3.263   9.684
 2775SOL     OW 8710   0.105   2.875  11.036
 2775SOL    HW1 8711   0.028   2.842  11.090
 2775SOL    HW2 8712   0.190   2.845  11.078
 2776SOL     OW 8713   0.672   2.065  10.799
 2776SOL    HW1 8714   0.762   2.049  10.759
 2776SOL    HW2 8715   0.680   2.070  10.898
 2777SOL     OW 8716   0.075   2.207   9.343
 2777SOL    HW1 8717  -0.017   2.179   9.314
 2777SOL    HW2 8718   0.106   2.284   9.287
 2778SOL     OW 8719   1.440   2.718  10.708
 2778SOL    HW1 8720   1.383   2.770  10.645
 2778SOL    HW2 8721   1.536   2.730  10.684
 2779SOL     OW 8722   0.072   2.028   9.628
 2779SOL    HW1 8723   0.055   2.111   9.574
 2779SOL    HW2 8724   0.162   1.991   9.606
 2780SOL     OW 8725   1.183   3.197   9.429
 2780SOL    HW1 8726   1.084   3.186   9.431
 2780SOL    HW2 8727   1.217   3.212   9.522
 2781SOL     OW 8728   0.613   2.704  10.741
 2781SOL    HW1 8729   0.669   2.785  10.724
 2781SOL    HW2 8730   0.672   2.624  10.744
 2782SOL     OW 8731   1.493   3.629  10.269
 2782SOL    HW1 8732   1.526   3.693  10.200
 2782SOL    HW2 8733   1.559   3.623  10.344
 2783SOL     OW 8734   0.716   2.427  11.018
 2783SOL    HW1 8735   0.735   2.492  11.092
 2783SOL    HW2 8736   0.776   2.347  11.027
 2784SOL     OW 8737   1.450   3.082  10.943
 2784SOL    HW1 8738   1.441   3.072  11.042
 2784SOL    HW2 8739   1.546   3.075  10.917
 2785SOL     OW 8740   0.390   3.603  10.870
 2785SOL    HW1 8741   0.299   3.644  10.868
 2785SOL    HW2 8742   0.383   3.509  10.902
 2786SOL     OW 8743   1.674   2.745  10.564
 2786SOL    HW1 8744   1.647   2.656  10.527
 2786SOL    HW2 8745   1.675   2.813  10.491
 2787SOL     OW 8746   1.225   2.187   9.759
 2787SOL    HW1 8747   1.290   2.113   9.748
 2787SOL    HW2 8748   1.245   2.237   9.843
 2788SOL     OW 8749   0.594   2.607   9.962
 2788SOL    HW1 8750   0.644   2.692   9.943
 2788SOL    HW2 8751   0.506   2.609   9.914
 2789SOL     OW 8752   1.777   2.204  10.952
 2789SOL    HW1 8753   1.760   2.235  10.858
 2789SOL    HW2 8754   1.693   2.167  10.990
 2790SOL     OW 8755   1.730   2.796  10.827
 2790SOL    HW1 8756   1.768   2.887  10.842
 2790SOL    HW2 8757   1.722   2.779  10.728
 2791SOL     OW 8758   0.859   3.236   9.326
 2791SOL    HW1 8759   0.813   3.251   9.414
 2791SOL    HW2 8760   0.903   3.321   9.296
 2792SOL     OW 8761   0.661   3.652  10.263
 2792SOL    HW1 8762   0.615   3.740  10.250
 2792SOL    HW2 8763   0.760   3.664  10.256
 2793SOL     OW 8764   0.859   2.818  10.171
 2793SOL    HW1 8765   0.913   2.749  10.219
 2793SOL    HW2 8766   0.827   2.887  10.237
 2794SOL     OW 8767   1.083   2.846   9.397
 2794SOL    HW1 8768   1.060   2.899   9.315
 2794SOL    HW2 8769   1.164   2.790   9.378
 2795SOL     OW 8770   1.861   3.431  10.161
 2795SOL    HW1 8771   1.790   3.419  10.091
 2795SOL    HW2 8772   1.862   3.352  10.221
 2796SOL     OW 8773   0.221   3.176  11.154
 2796SOL    HW1 8774   0.156   3.103  11.133
 2796SOL    HW2 8775   0.225   3.190  11.252
 2797SOL     OW 8776   0.079   3.102   9.963
 2797SOL    HW1 8777   0.078   3.055  10.051
 2797SOL    HW2 8778   0.161   3.074   9.912
 2798SOL     OW 8779   0.672   3.253  10.934
 2798SOL    HW1 8780   0.594   3.203  10.972
 2798SOL    HW2 8781   0.669   3.348  10.965
 2799SOL     OW 8782   0.428   2.286   9.830
 2799SOL    HW1 8783   0.458   2.214   9.768
 2799SOL    HW2 8784   0.389   2.246   9.913
 2800SOL     OW 8785   1.705   3.349  10.414
 2800SOL    HW1 8786   1.612   3.324  10.387
 2800SOL    HW2 8787   1.731   3.299  10.496
 2801SOL     OW 8788   0.317   2.409  10.590
 2801SOL    HW1 8789   0.355   2.350  10.662
 2801SOL    HW2 8790   0.357   2.383  10.502
 2802SOL     OW 8791   0.812   3.448   9.997
 2802SOL    HW1 8792   0.844   3.458   9.903
 2802SOL    HW2 8793   0.733   3.386   9.999
 2803SOL     OW 8794   1.424   2.076  10.422
 2803SOL    HW1 8795   1.476   2.011  10.477
 2803SOL    HW2 8796   1.375   2.139  10.483
 2804SOL     OW 8797   1.001   1.896  10.464
 2804SOL    HW1 8798   0.938   1.824  10.433
 2804SOL    HW2 8799   1.094   1.860  10.464
 2805SOL     OW 8800   0.770   3.192   9.611
 2805SOL    HW1 8801   0.724   3.105   9.628
 2805SOL    HW2 8802   0.861   3.189   9.652
 2806SOL     OW 8803   0.618   3.429  10.594
 2806SOL    HW1 8804   0.613   3.511  10.651
 2806SOL    HW2 8805   0.707   3.426  10.549
 2807SOL     OW 8806   1.352   1.914   9.478
 2807SOL    HW1 8807   1.387   1.873   9.394
 2807SOL    HW2 8808   1.262   1.876   9.498
 2808SOL     OW 8809   1.300   2.315  10.001
 2808SOL    HW1 8810   1.241   2.395  10.005
 2808SOL    HW2 8811   1.315   2.280  10.094
 2809SOL     OW 8812   1.593   2.083  10.192
 2809SOL    HW1 8813   1.509   2.082  10.246
 2809SOL    HW2 8814   1.595   2.166  10.136
 2810SOL     OW 8815   0.039   2.939   9.610
 2810SOL    HW1 8816   0.138   2.928   9.601
 2810SOL    HW2 8817  -0.001   2.853   9.642
 2811SOL     OW 8818   0.875   3.508   9.647
 2811SOL    HW1 8819   0.798   3.473   9.593
 2811SOL    HW2 8820   0.843   3.579   9.709
 2812SOL     OW 8821   0.230   2.490  11.285
 2812SOL    HW1 8822   0.137   2.488  11.322
 2812SOL    HW2 8823   0.231   2.451  11.193
 2813SOL     OW 8824   0.225   2.137  12.168
 2813SOL    HW1 8825   0.260   2.120  12.260
 2813SOL    HW2 8826   0.137   2.092  12.156
 2814SOL     OW 8827   0.019   2.230  11.819
 2814SOL    HW1 8828  -0.063   2.273  11.858
 2814SOL    HW2 8829  -0.009   2.157  11.756
 2815SOL     OW 8830   0.569   3.137  12.337
 2815SOL    HW1 8831   0.476   3.130  12.300
 2815SOL    HW2 8832   0.580   3.226  12.381
 2816SOL     OW 8833   1.555   3.373  11.875
 2816SOL    HW1 8834   1.498   3.357  11.956
 2816SOL    HW2 8835   1.496   3.383  11.795
 2817SOL     OW 8836   1.135   2.565  11.889
 2817SOL    HW1 8837   1.192   2.643  11.864
 2817SOL    HW2 8838   1.075   2.591  11.965
 2818SOL     OW 8839   1.755   2.469  11.403
 2818SOL    HW1 8840   1.743   2.456  11.304
 2818SOL    HW2 8841   1.725   2.388  11.452
 2819SOL     OW 8842   0.768   3.006  12.195
 2819SOL    HW1 8843   0.690   3.023  12.255
 2819SOL    HW2 8844   0.802   3.093  12.159
 2820SOL     OW 8845   0.850   2.660  12.995
 2820SOL    HW1 8846   0.846   2.736  13.060
 2820SOL    HW2 8847   0.872   2.696  12.904
 2821SOL     OW 8848   0.685   2.874  11.837
 2821SOL    HW1 8849   0.754   2.858  11.907
 2821SOL    HW2 8850   0.612   2.931  11.875
 2822SOL     OW 8851   0.686   3.023  12.975
 2822SOL    HW1 8852   0.746   3.102  12.989
 2822SOL    HW2 8853   0.600   3.054  12.934
 2823SOL     OW 8854   0.335   3.297  12.233
 2823SOL    HW1 8855   0.257   3.266  12.180
 2823SOL    HW2 8856   0.393   3.355  12.176
 2824SOL     OW 8857   1.460   3.367  12.511
 2824SOL    HW1 8858   1.484   3.461  12.537
 2824SOL    HW2 8859   1.444   3.313  12.593
 2825SOL     OW 8860   0.438   2.254  12.671
 2825SOL    HW1 8861   0.520   2.198  12.680
 2825SOL    HW2 8862   0.357   2.196  12.675
 2826SOL     OW 8863   1.603   2.309  11.909
 2826SOL    HW1 8864   1.529   2.355  11.859
 2826SOL    HW2 8865   1.654   2.377  11.962
 2827SOL     OW 8866   0.231   3.575  11.655
 2827SOL    HW1 8867   0.265   3.652  11.709
 2827SOL    HW2 8868   0.275   3.575  11.565
 2828SOL     OW 8869   1.127   3.203  12.862
 2828SOL    HW1 8870   1.174   3.203  12.950
 2828SOL    HW2 8871   1.079   3.116  12.851
 2829SOL     OW 8872   0.230   3.296  11.710
 2829SOL    HW1 8873   0.204   3.392  11.710
 2829SOL    HW2 8874   0.159   3.242  11.755
 2830SOL     OW 8875   0.240   2.953  12.058
 2830SOL    HW1 8876   0.254   2.869  12.110
 2830SOL    HW2 8877   0.185   3.017  12.113
 2831SOL     OW 8878   0.620   3.648  12.611
 2831SOL    HW1 8879   0.528   3.631  12.646
 2831SOL    HW2 8880   0.648   3.740  12.637
 2832SOL     OW 8881   0.606   2.826  11.295
 2832SOL    HW1 8882   0.613   2.910  11.241
 2832SOL    HW2 8883   0.652   2.839  11.383
 2833SOL     OW 8884   1.594   1.976  12.652
 2833SOL    HW1 8885   1.576   2.043  12.580
 2833SOL    HW2 8886   1.591   2.022  12.741
 2834SOL     OW 8887   0.122   2.505  11.735
 2834SOL    HW1 8888   0.077   2.417  11.752
 2834SOL    HW2 8889   0.121   2.559  11.819
 2835SOL     OW 8890   1.842   3.629  11.531
 2835SOL    HW1 8891   1.896   3.600  11.611
 2835SOL    HW2 8892   1.872   3.719  11.502
 2836SOL     OW 8893   0.027   3.458  11.289
 2836SOL    HW1 8894   0.008   3.362  11.310
 2836SOL    HW2 8895  -0.006   3.516  11.364
 2837SOL     OW 8896   1.689   2.784  11.784
 2837SOL    HW1 8897   1.784   2.755  11.792
 2837SOL    HW2 8898   1.681   2.849  11.709
 2838SOL     OW 8899   1.641   2.970  11.604
 2838SOL    HW1 8900   1.727   2.972  11.552
 2838SOL    HW2 8901   1.655   3.017  11.692
 2839SOL     OW 8902   0.113   2.599  12.769
 2839SOL    HW1 8903   0.201   2.586  12.814
 2839SOL    HW2 8904   0.100   2.696  12.747
 2840SOL     OW 8905   0.613   3.227  11.898
 2840SOL    HW1 8906   0.564   3.140  11.907
 2840SOL    HW2 8907   0.590   3.270  11.811
 2841SOL     OW 8908   1.293   3.090  12.595
 2841SOL    HW1 8909   1.330   3.017  12.537
 2841SOL    HW2 8910   1.345   3.095  12.680
 2842SOL     OW 8911   0.809   1.866  11.674
 2842SOL    HW1 8912   0.849   1.957  11.665
 2842SOL    HW2 8913   0.709   1.874  11.680
 2843SOL     OW 8914   0.197   2.838  12.436
 2843SOL    HW1 8915   0.286   2.793  12.422
 2843SOL    HW2 8916   0.124   2.773  12.417
 2844SOL     OW 8917   1.525   2.861  11.362
 2844SOL    HW1 8918   1.462   2.785  11.375
 2844SOL    HW2 8919   1.573   2.879  11.448
 2845SOL     OW 8920   1.187   3.654  12.788
 2845SOL    HW1 8921   1.211   3.714  12.712
 2845SOL    HW2 8922   1.194   3.559  12.758
 2846SOL     OW 8923   0.317   2.113  12.973
 2846SOL    HW1 8924   0.388   2.184  12.979
 2846SOL    HW2 8925   0.229   2.152  13.001
 2847SOL     OW 8926   1.466   3.279  12.125
 2847SOL    HW1 8927   1.407   3.285  12.205
 2847SOL    HW2 8928   1.451   3.191  12.079
 2848SOL     OW 8929   1.667   3.576  11.744
 2848SOL    HW1 8930   1.626   3.553  11.656
 2848SOL    HW2 8931   1.649   3.502  11.809
 2849SOL     OW 8932   0.598   2.591  11.442
 2849SOL    HW1 8933   0.622   2.660  11.374
 2849SOL    HW2 8934   0.520   2.624  11.496
 2850SOL     OW 8935   1.281   2.207  12.116
 2850SOL    HW1 8936   1.195   2.157  12.103
 2850SOL    HW2 8937   1.343   2.153  12.172
 2851SOL     OW 8938   1.576   3.524  11.479
 2851SOL    HW1 8939   1.665   3.570  11.482
 2851SOL    HW2 8940   1.555   3.500  11.384
 2852SOL     OW 8941   0.807   2.467  12.637
 2852SOL    HW1 8942   0.760   2.464  12.726
 2852SOL    HW2 8943   0.756   2.412  12.571
 2853SOL     OW 8944   1.394   2.331  12.846
 2853SOL    HW1 8945   1.374   2.374  12.934
 2853SOL    HW2 8946   1.472   2.269  12.855
 2854SOL     OW 8947   0.973   2.752  12.744
 2854SOL    HW1 8948   1.019   2.668  12.715
 2854SOL    HW2 8949   0.917   2.786  12.669
 2855SOL     OW 8950   0.991   2.272  12.414
 2855SOL    HW1 8951   0.914   2.306  12.468
 2855SOL    HW2 8952   0.957   2.221  12.335
 2856SOL     OW 8953   1.041   2.563  11.601
 2856SOL    HW1 8954   1.067   2.559  11.697
 2856SOL    HW2 8955   0.956   2.512  11.587
 2857SOL     OW 8956   0.076   2.673  11.961
 2857SOL    HW1 8957   0.175   2.661  11.970
 2857SOL    HW2 8958   0.052   2.768  11.982
 2858SOL     OW 8959   0.130   3.683  12.743
 2858SOL    HW1 8960   0.120   3.668  12.842
 2858SOL    HW2 8961   0.044   3.719  12.707
 2859SOL     OW 8962   0.865   2.210  11.367
 2859SOL    HW1 8963   0.924   2.273  11.318
 2859SOL    HW2 8964   0.884   2.116  11.338
 2860SOL     OW 8965   1.719   2.447  13.003
 2860SOL    HW1 8966   1.693   2.536  12.967
 2860SOL    HW2 8967   1.717   2.379  12.930
 2861SOL     OW 8968   1.362   3.006  11.717
 2861SOL    HW1 8969   1.445   2.977  11.669
 2861SOL    HW2 8970   1.313   3.073  11.661
 2862SOL     OW 8971   0.550   2.058  12.057
 2862SOL    HW1 8972   0.545   2.053  12.157
 2862SOL    HW2 8973   0.552   2.154  12.028
 2863SOL     OW 8974   1.008   3.318  11.649
 2863SOL    HW1 8975   0.962   3.390  11.597
 2863SOL    HW2 8976   1.004   3.338  11.747
 2864SOL     OW 8977   0.351   3.663  12.025
 2864SOL    HW1 8978   0.401   3.577  12.031
 2864SOL    HW2 8979   0.416   3.740  12.022
 2865SOL     OW 8980   1.795   2.928  12.045
 2865SOL    HW1 8981   1.733   2.913  11.969
 2865SOL    HW2 8982   1.743   2.939  12.130
 2866SOL     OW 8983   1.227   3.412  12.678
 2866SOL    HW1 8984   1.233   3.335  12.742
 2866SOL    HW2 8985   1.175   3.386  12.598
 2867SOL     OW 8986   0.321   2.805  11.414
 2867SOL    HW1 8987   0.403   2.844  11.372
 2867SOL    HW2 8988   0.294   2.723  11.365
 2868SOL     OW 8989   1.458   2.597  11.900
 2868SOL    HW1 8990   1.453   2.532  11.975
 2868SOL    HW2 8991   1.538   2.656  11.913
 2869SOL     OW 8992   0.461   3.128  12.899
 2869SOL    HW1 8993   0.411   3.129  12.813
 2869SOL    HW2 8994   0.398   3.110  12.975
 2870SOL     OW 8995   1.111   3.638  11.409
 2870SOL    HW1 8996   1.051   3.576  11.459
 2870SOL    HW2 8997   1.142   3.594  11.324
 2871SOL     OW 8998   0.202   2.147  12.670
 2871SOL    HW1 8999   0.122   2.207  12.657
 2871SOL    HW2 9000   0.192   2.098  12.756
 2872SOL     OW 9001   1.632   3.239  11.253
 2872SOL    HW1 9002   1.600   3.333  11.243
 2872SOL    HW2 9003   1.556   3.176  11.241
 2873SOL     OW 9004   0.464   3.605  11.495
 2873SOL    HW1 9005   0.497   3.644  11.581
 2873SOL    HW2 9006   0.540   3.598  11.430
 2874SOL     OW 9007   1.400   1.969  11.598
 2874SOL    HW1 9008   1.376   1.932  11.508
 2874SOL    HW2 9009   1.499   1.985  11.602
 2875SOL     OW 9010   0.249   3.647  12.413
 2875SOL    HW1 9011   0.306   3.582  12.463
 2875SOL    HW2 9012   0.233   3.614  12.320
 2876SOL     OW 9013   0.940   3.560  12.076
 2876SOL    HW1 9014   1.020   3.503  12.097
 2876SOL    HW2 9015   0.891   3.520  11.999
 2877SOL     OW 9016   0.382   2.562  11.652
 2877SOL    HW1 9017   0.427   2.472  11.649
 2877SOL    HW2 9018   0.288   2.551  11.685
 2878SOL     OW 9019   1.547   2.084  12.901
 2878SOL    HW1 9020   1.542   2.121  12.993
 2878SOL    HW2 9021   1.475   2.015  12.889
 2879SOL     OW 9022   0.614   1.984  11.289
 2879SOL    HW1 9023   0.712   1.962  11.296
 2879SOL    HW2 9024   0.583   1.967  11.196
 2880SOL     OW 9025   0.781   2.126  12.921
 2880SOL    HW1 9026   0.848   2.065  12.964
 2880SOL    HW2 9027   0.708   2.145  12.986
 2881SOL     OW 9028   0.888   3.376  12.367
 2881SOL    HW1 9029   0.865   3.351  12.273
 2881SOL    HW2 9030   0.949   3.307  12.406
 2882SOL     OW 9031   1.351   2.452  12.605
 2882SOL    HW1 9032   1.379   2.409  12.690
 2882SOL    HW2 9033   1.376   2.548  12.606
 2883SOL     OW 9034   0.803   3.264  12.096
 2883SOL    HW1 9035   0.893   3.278  12.054
 2883SOL    HW2 9036   0.732   3.266  12.025
 2884SOL     OW 9037   0.922   2.365  12.071
 2884SOL    HW1 9038   0.897   2.356  11.975
 2884SOL    HW2 9039   0.970   2.283  12.102
 2885SOL     OW 9040   0.539   1.926  11.684
 2885SOL    HW1 9041   0.458   1.927  11.742
 2885SOL    HW2 9042   0.542   2.009  11.629
 2886SOL     OW 9043   1.434   3.050  11.213
 2886SOL    HW1 9044   1.466   2.974  11.270
 2886SOL    HW2 9045   1.342   3.077  11.243
 2887SOL     OW 9046   0.297   1.897  11.343
 2887SOL    HW1 9047   0.346   1.981  11.322
 2887SOL    HW2 9048   0.359   1.832  11.388
 2888SOL     OW 9049   0.935   2.098  11.652
 2888SOL    HW1 9050   0.887   2.139  11.574
 2888SOL    HW2 9051   1.034   2.096  11.633
 2889SOL     OW 9052   1.076   2.545  12.636
 2889SOL    HW1 9053   0.996   2.484  12.639
 2889SOL    HW2 9054   1.157   2.492  12.612
 2890SOL     OW 9055   1.227   3.432  11.965
 2890SOL    HW1 9056   1.248   3.506  11.900
 2890SOL    HW2 9057   1.295   3.432  12.038
 2891SOL     OW 9058   0.459   3.014  11.913
 2891SOL    HW1 9059   0.388   2.987  11.978
 2891SOL    HW2 9060   0.433   2.986  11.820
 2892SOL     OW 9061   1.271   3.659  11.763
 2892SOL    HW1 9062   1.315   3.723  11.699
 2892SOL    HW2 9063   1.221   3.711  11.833
 2893SOL     OW 9064   1.032   2.411  11.188
 2893SOL    HW1 9065   0.991   2.493  11.149
 2893SOL    HW2 9066   1.096   2.437  11.261
 2894SOL     OW 9067   0.078   2.418  12.558
 2894SOL    HW1 9068   0.170   2.417  12.517
 2894SOL    HW2 9069   0.072   2.492  12.625
 2895SOL     OW 9070   0.561   2.084  12.319
 2895SOL    HW1 9071   0.599   2.000  12.356
 2895SOL    HW2 9072   0.473   2.103  12.363
 2896SOL     OW 9073   0.866   2.316  11.814
 2896SOL    HW1 9074   0.834   2.388  11.752
 2896SOL    HW2 9075   0.890   2.235  11.761
 2897SOL     OW 9076   1.017   1.901  11.925
 2897SOL    HW1 9077   0.945   1.906  11.856
 2897SOL    HW2 9078   0.993   1.832  11.994
 2898SOL     OW 9079   1.429   3.035  12.039
 2898SOL    HW1 9080   1.374   2.951  12.032
 2898SOL    HW2 9081   1.455   3.064  11.947
 2899SOL     OW 9082   1.466   2.452  12.164
 2899SOL    HW1 9083   1.436   2.357  12.171
 2899SOL    HW2 9084   1.539   2.468  12.230
 2900SOL     OW 9085   1.857   2.695  11.549
 2900SOL    HW1 9086   1.899   2.631  11.613
 2900SOL    HW2 9087   1.819   2.644  11.471
 2901SOL     OW 9088   0.488   3.247  11.346
 2901SOL    HW1 9089   0.401   3.232  11.393
 2901SOL    HW2 9090   0.471   3.273  11.251
 2902SOL     OW 9091   1.664   3.142  11.829
 2902SOL    HW1 9092   1.763   3.150  11.843
 2902SOL    HW2 9093   1.619   3.226  11.860
 2903SOL     OW 9094   1.390   2.437  11.250
 2903SOL    HW1 9095   1.336   2.416  11.331
 2903SOL    HW2 9096   1.481   2.396  11.259
 2904SOL     OW 9097   0.527   2.118  11.500
 2904SOL    HW1 9098   0.554   2.059  11.425
 2904SOL    HW2 9099   0.527   2.213  11.469
 2905SOL     OW 9100   1.754   3.085  12.760
 2905SOL    HW1 9101   1.845   3.046  12.747
 2905SOL    HW2 9102   1.762   3.181  12.784
 2906SOL     OW 9103   1.064   3.209  12.512
 2906SOL    HW1 9104   0.984   3.186  12.567
 2906SOL    HW2 9105   1.147   3.183  12.561
 2907SOL     OW 9106   1.592   3.491  12.797
 2907SOL    HW1 9107   1.619   3.525  12.707
 2907SOL    HW2 9108   1.671   3.453  12.843
 2908SOL     OW 9109   1.111   3.057  12.272
 2908SOL    HW1 9110   1.071   3.101  12.353
 2908SOL    HW2 9111   1.070   3.094  12.189
 2909SOL     OW 9112   1.638   2.961  12.251
 2909SOL    HW1 9113   1.643   3.042  12.310
 2909SOL    HW2 9114   1.552   2.963  12.200
 2910SOL     OW 9115   0.915   1.951  12.574
 2910SOL    HW1 9116   0.940   1.931  12.479
 2910SOL    HW2 9117   0.987   2.007  12.616
 2911SOL     OW 9118   0.980   2.978  12.891
 2911SOL    HW1 9119   0.881   2.984  12.901
 2911SOL    HW2 9120   1.003   2.898  12.835
 2912SOL     OW 9121   0.705   2.912  11.540
 2912SOL    HW1 9122   0.691   2.919  11.639
 2912SOL    HW2 9123   0.789   2.861  11.522
 2913SOL     OW 9124   0.410   2.675  12.423
 2913SOL    HW1 9125   0.496   2.687  12.473
 2913SOL    HW2 9126   0.368   2.588  12.450
 2914SOL     OW 9127   1.274   2.248  12.434
 2914SOL    HW1 9128   1.295   2.322  12.498
 2914SOL    HW2 9129   1.185   2.265  12.391
 2915SOL     OW 9130   0.064   3.426  12.503
 2915SOL    HW1 9131   0.018   3.508  12.469
 2915SOL    HW2 9132   0.162   3.445  12.512
 2916SOL     OW 9133   0.367   2.962  11.673
 2916SOL    HW1 9134   0.360   3.045  11.617
 2916SOL    HW2 9135   0.371   2.882  11.613
 2917SOL     OW 9136   0.566   2.399  12.037
 2917SOL    HW1 9137   0.578   2.465  11.963
 2917SOL    HW2 9138   0.612   2.433  12.120
 2918SOL     OW 9139   1.252   3.210  11.560
 2918SOL    HW1 9140   1.302   3.287  11.600
 2918SOL    HW2 9141   1.157   3.212  11.592
 2919SOL     OW 9142   1.272   3.307  12.314
 2919SOL    HW1 9143   1.319   3.320  12.401
 2919SOL    HW2 9144   1.206   3.233  12.323
 2920SOL     OW 9145   1.582   2.501  11.644
 2920SOL    HW1 9146   1.551   2.562  11.717
 2920SOL    HW2 9147   1.632   2.553  11.575
 2921SOL     OW 9148   0.354   3.372  12.501
 2921SOL    HW1 9149   0.333   3.328  12.414
 2921SOL    HW2 9150   0.451   3.398  12.504
 2922SOL     OW 9151   0.402   2.613  12.770
 2922SOL    HW1 9152   0.470   2.668  12.723
 2922SOL    HW2 9153   0.442   2.525  12.797
 2923SOL     OW 9154   1.587   2.641  12.842
 2923SOL    HW1 9155   1.495   2.679  12.837
 2923SOL    HW2 9156   1.647   2.688  12.777
 2924SOL     OW 9157   1.013   1.967  12.942
 2924SOL    HW1 9158   1.019   2.052  12.890
 2924SOL    HW2 9159   1.045   1.891  12.885
 2925SOL     OW 9160   0.504   1.912  12.912
 2925SOL    HW1 9161   0.462   1.855  12.842
 2925SOL    HW2 9162   0.438   1.981  12.944
 2926SOL     OW 9163   0.573   2.732  12.201
 2926SOL    HW1 9164   0.617   2.821  12.192
 2926SOL    HW2 9165   0.510   2.732  12.278
 2927SOL     OW 9166   1.360   2.724  12.217
 2927SOL    HW1 9167   1.285   2.724  12.151
 2927SOL    HW2 9168   1.397   2.632  12.226
 2928SOL     OW 9169   1.209   2.387  11.447
 2928SOL    HW1 9170   1.222   2.303  11.501
 2928SOL    HW2 9171   1.180   2.461  11.507
 2929SOL     OW 9172   0.307   2.075  12.403
 2929SOL    HW1 9173   0.284   2.112  12.493
 2929SOL    HW2 9174   0.277   1.980  12.397
 2930SOL     OW 9175   0.037   3.172  12.454
 2930SOL    HW1 9176   0.090   3.123  12.522
 2930SOL    HW2 9177   0.059   3.270  12.459
 2931SOL     OW 9178   0.732   2.496  12.236
 2931SOL    HW1 9179   0.791   2.470  12.160
 2931SOL    HW2 9180   0.704   2.592  12.225
 2932SOL     OW 9181   1.728   2.797  13.026
 2932SOL    HW1 9182   1.682   2.790  12.937
 2932SOL    HW2 9183   1.666   2.841  13.092
 2933SOL     OW 9184   0.307   1.925  11.790
 2933SOL    HW1 9185   0.296   2.019  11.823
 2933SOL    HW2 9186   0.302   1.862  11.867
 2934SOL     OW 9187   1.622   2.229  11.546
 2934SOL    HW1 9188   1.624   2.153  11.610
 2934SOL    HW2 9189   1.574   2.306  11.586
 2935SOL     OW 9190   1.023   2.628  12.138
 2935SOL    HW1 9191   1.038   2.649  12.234
 2935SOL    HW2 9192   0.993   2.533  12.129
 2936SOL     OW 9193   0.980   3.435  12.872
 2936SOL    HW1 9194   0.960   3.479  12.784
 2936SOL    HW2 9195   1.019   3.344  12.856
 2937SOL     OW 9196   1.859   3.380  12.777
 2937SOL    HW1 9197   1.873   3.407  12.682
 2937SOL    HW2 9198   1.942   3.402  12.830
 2938SOL     OW 9199   0.350   2.760  12.976
 2938SOL    HW1 9200   0.426   2.804  13.024
 2938SOL    HW2 9201   0.385   2.713  12.894
 2939SOL     OW 9202   1.540   2.136  11.297
 2939SOL    HW1 9203   1.479   2.061  11.320
 2939SOL    HW2 9204   1.562   2.188  11.380
 2940SOL     OW 9205   1.303   2.700  11.214
 2940SOL    HW1 9206   1.337   2.607  11.229
 2940SOL    HW2 9207   1.321   2.727  11.119
 2941SOL     OW 9208   1.068   3.195  12.021
 2941SOL    HW1 9209   1.075   3.111  11.966
 2941SOL    HW2 9210   1.130   3.264  11.985
 2942SOL     OW 9211   0.319   2.672  12.121
 2942SOL    HW1 9212   0.412   2.708  12.126
 2942SOL    HW2 9213   0.313   2.587  12.173
 2943SOL     OW 9214   0.339   2.371  12.178
 2943SOL    HW1 9215   0.287   2.288  12.161
 2943SOL    HW2 9216   0.416   2.376  12.114
 2944SOL     OW 9217   1.138   2.242  12.850
 2944SOL    HW1 9218   1.093   2.305  12.914
 2944SOL    HW2 9219   1.231   2.273  12.833
 2945SOL     OW 9220   1.160   2.069  12.649
 2945SOL    HW1 9221   1.160   2.133  12.726
 2945SOL    HW2 9222   1.188   2.117  12.566
 2946SOL     OW 9223   0.008   3.188  11.372
 2946SOL    HW1 9224  -0.085   3.209  11.341
 2946SOL    HW2 9225   0.018   3.089  11.385
 2947SOL     OW 9226   0.088   3.663  12.099
 2947SOL    HW1 9227   0.046   3.577  12.072
 2947SOL    HW2 9228   0.182   3.666  12.065
 2948SOL     OW 9229   0.504   3.430  12.082
 2948SOL    HW1 9230   0.570   3.504  12.091
 2948SOL    HW2 9231   0.548   3.351  12.040
 2949SOL     OW 9232   1.002   2.658  12.410
 2949SOL    HW1 9233   1.043   2.626  12.496
 2949SOL    HW2 9234   0.906   2.631  12.407
 2950SOL     OW 9235   0.040   2.406  12.286
 2950SOL    HW1 9236   0.125   2.373  12.245
 2950SOL    HW2 9237   0.053   2.421  12.384
 2951SOL     OW 9238   0.189   2.382  12.894
 2951SOL    HW1 9239   0.248   2.342  12.824
 2951SOL    HW2 9240   0.131   2.453  12.853
 2952SOL     OW 9241   1.369   2.812  12.832
 2952SOL    HW1 9242   1.408   2.901  12.852
 2952SOL    HW2 9243   1.379   2.792  12.735
 2953SOL     OW 9244   0.815   2.434  11.497
 2953SOL    HW1 9245   0.822   2.345  11.451
 2953SOL    HW2 9246   0.721   2.468  11.489
 2954SOL     OW 9247   1.657   2.466  12.378
 2954SOL    HW1 9248   1.619   2.397  12.440
 2954SOL    HW2 9249   1.739   2.430  12.334
 2955SOL     OW 9250   0.252   3.426  12.916
 2955SOL    HW1 9251   0.222   3.483  12.992
 2955SOL    HW2 9252   0.245   3.329  12.942
 2956SOL     OW 9253   0.671   2.326  12.441
 2956SOL    HW1 9254   0.637   2.237  12.411
 2956SOL    HW2 9255   0.697   2.380  12.361
 2957SOL     OW 9256   0.930   3.540  12.637
 2957SOL    HW1 9257   0.906   3.522  12.542
 2957SOL    HW2 9258   0.960   3.634  12.647
 2958SOL     OW 9259   0.473   2.362  11.363
 2958SOL    HW1 9260   0.534   2.442  11.367
 2958SOL    HW2 9261   0.378   2.393  11.370
 2959SOL     OW 9262   0.159   2.999  12.638
 2959SOL    HW1 9263   0.181   2.938  12.714
 2959SOL    HW2 9264   0.169   2.950  12.552
 2960SOL     OW 9265   1.347   2.921  12.406
 2960SOL    HW1 9266   1.371   2.858  12.332
 2960SOL    HW2 9267   1.257   2.961  12.388
 2961SOL     OW 9268   1.302   2.717  11.481
 2961SOL    HW1 9269   1.216   2.686  11.523
 2961SOL    HW2 9270   1.298   2.703  11.382
 2962SOL     OW 9271   1.759   3.609  12.326
 2962SOL    HW1 9272   1.820   3.639  12.253
 2962SOL    HW2 9273   1.721   3.520  12.304
 2963SOL     OW 9274   1.252   3.593  12.300
 2963SOL    HW1 9275   1.336   3.598  12.246
 2963SOL    HW2 9276   1.229   3.497  12.318
 2964SOL     OW 9277   0.083   3.120  12.194
 2964SOL    HW1 9278   0.078   3.119  12.294
 2964SOL    HW2 9279   0.000   3.079  12.156
 2965SOL     OW 9280   0.688   3.524  12.888
 2965SOL    HW1 9281   0.632   3.605  12.897
 2965SOL    HW2 9282   0.740   3.528  12.802
 2966SOL     OW 9283   1.388   3.435  11.649
 2966SOL    HW1 9284   1.455   3.447  11.575
 2966SOL    HW2 9285   1.348   3.524  11.672
 2967SOL     OW 9286   0.130   3.656  13.023
 2967SOL    HW1 9287   0.089   3.582  13.076
 2967SOL    HW2 9288   0.194   3.707  13.081
 2968SOL     OW 9289   1.280   2.789  11.844
 2968SOL    HW1 9290   1.340   2.708  11.846
 2968SOL    HW2 9291   1.320   2.858  11.784
 2969SOL     OW 9292   0.830   3.135  12.594
 2969SOL    HW1 9293   0.825   3.168  12.689
 2969SOL    HW2 9294   0.744   3.154  12.548
 2970SOL     OW 9295   0.672   3.478  11.326
 2970SOL    HW1 9296   0.681   3.488  11.227
 2970SOL    HW2 9297   0.632   3.389  11.347
 2971SOL     OW 9298   1.650   3.582  12.566
 2971SOL    HW1 9299   1.703   3.592  12.482
 2971SOL    HW2 9300   1.623   3.672  12.600
 2972SOL     OW 9301   0.263   2.188  11.892
 2972SOL    HW1 9302   0.184   2.239  11.858
 2972SOL    HW2 9303   0.254   2.173  11.990
 2973SOL     OW 9304   1.194   3.474  11.203
 2973SOL    HW1 9305   1.200   3.381  11.240
 2973SOL    HW2 9306   1.135   3.474  11.123
 2974SOL     OW 9307   0.822   2.864  12.544
 2974SOL    HW1 9308   0.862   2.863  12.452
 2974SOL    HW2 9309   0.832   2.956  12.584
 2975SOL     OW 9310   0.916   2.772  11.463
 2975SOL    HW1 9311   0.979   2.810  11.395
 2975SOL    HW2 9312   0.956   2.689  11.502
 2976SOL     OW 9313   1.504   3.469  11.216
 2976SOL    HW1 9314   1.412   3.506  11.223
 2976SOL    HW2 9315   1.542   3.489  11.126
 2977SOL     OW 9316   0.372   3.150  12.662
 2977SOL    HW1 9317   0.359   3.243  12.628
 2977SOL    HW2 9318   0.288   3.098  12.649
 2978SOL     OW 9319   1.614   3.154  12.461
 2978SOL    HW1 9320   1.674   3.157  12.541
 2978SOL    HW2 9321   1.539   3.218  12.474
 2979SOL     OW 9322   1.039   2.960  11.868
 2979SOL    HW1 9323   0.969   2.913  11.922
 2979SOL    HW2 9324   1.098   2.892  11.825
 2980SOL     OW 9325   1.014   2.098  12.143
 2980SOL    HW1 9326   1.006   2.062  12.050
 2980SOL    HW2 9327   1.012   2.022  12.208
 2981SOL     OW 9328   0.590   3.349  11.663
 2981SOL    HW1 9329   0.632   3.291  11.593
 2981SOL    HW2 9330   0.546   3.428  11.619
 2982SOL     OW 9331   1.709   2.247  12.553
 2982SOL    HW1 9332   1.782   2.316  12.557
 2982SOL    HW2 9333   1.737   2.172  12.494
 2983SOL     OW 9334   0.255   3.210  11.462
 2983SOL    HW1 9335   0.159   3.211  11.435
 2983SOL    HW2 9336   0.267   3.263  11.546
 2984SOL     OW 9337   0.105   2.875  12.898
 2984SOL    HW1 9338   0.028   2.842  12.952
 2984SOL    HW2 9339   0.190   2.845  12.940
 2985SOL     OW 9340   0.672   2.065  12.661
 2985SOL    HW1 9341   0.762   2.049  12.621
 2985SOL    HW2 9342   0.680   2.070  12.760
 2986SOL     OW 9343   0.075   2.207  11.205
 2986SOL    HW1 9344  -0.017   2.179  11.176
 2986SOL    HW2 9345   0.106   2.284  11.149
 2987SOL     OW 9346   1.440   2.718  12.570
 2987SOL    HW1 9347   1.383   2.770  12.507
 2987SOL    HW2 9348   1.536   2.730  12.546
 2988SOL     OW 9349   0.072   2.028  11.490
 2988SOL    HW1 9350   0.055   2.111  11.436
 2988SOL    HW2 9351   0.162   1.991  11.468
 2989SOL     OW 9352   1.183   3.197  11.291
 2989SOL    HW1 9353   1.084   3.186  11.293
 2989SOL    HW2 9354   1.217   3.212  11.384
 2990SOL     OW 9355   0.613   2.704  12.603
 2990SOL    HW1 9356   0.669   2.785  12.586
 2990SOL    HW2 9357   0.672   2.624  12.606
 2991SOL     OW 9358   1.493   3.629  12.131
 2991SOL    HW1 9359   1.526   3.693  12.062
 2991SOL    HW2 9360   1.559   3.623  12.206
 2992SOL     OW 9361   0.716   2.427  12.880
 2992SOL    HW1 9362   0.735   2.492  12.954
 2992SOL    HW2 9363   0.776   2.347  12.889
 2993SOL     OW 9364   1.450   3.082  12.805
 2993SOL    HW1 9365   1.441   3.072  12.904
 2993SOL    HW2 9366   1.546   3.075  12.779
 2994SOL     OW 9367   0.390   3.603  12.732
 2994SOL    HW1 9368   0.299   3.644  12.730
 2994SOL    HW2 9369   0.383   3.509  12.764
 2995SOL     OW 9370   1.674   2.745  12.426
 2995SOL    HW1 9371   1.647   2.656  12.389
 2995SOL    HW2 9372   1.675   2.813  12.353
 2996SOL     OW 9373   1.225   2.187  11.621
 2996SOL    HW1 9374   1.290   2.113  11.610
 2996SOL    HW2 9375   1.245   2.237  11.705
 2997SOL     OW 9376   0.594   2.607  11.824
 2997SOL    HW1 9377   0.644   2.692  11.805
 2997SOL    HW2 9378   0.506   2.609  11.776
 2998SOL     OW 9379   1.777   2.204  12.814
 2998SOL    HW1 9380   1.760   2.235  12.720
 2998SOL    HW2 9381   1.693   2.167  12.852
 2999SOL     OW 9382   1.730   2.796  12.689
 2999SOL    HW1 9383   1.768   2.887  12.704
 2999SOL    HW2 9384   1.722   2.779  12.590
 3000SOL     OW 9385   0.859   3.236  11.188
 3000SOL    HW1 9386   0.813   3.251  11.276
 3000SOL    HW2 9387   0.903   3.321  11.158
 3001SOL     OW 9388   0.661   3.652  12.125
 3001SOL    HW1 9389   0.615   3.740  12.112
 3001SOL    HW2 9390   0.760   3.664  12.118
 3002SOL     OW 9391   0.859   2.818  12.033
 3002SOL    HW1 9392   0.913   2.749  12.081
 3002SOL    HW2 9393   0.827   2.887  12.099
 3003SOL     OW 9394   1.083   2.846  11.259
 3003SOL    HW1 9395   1.060   2.899  11.177
 3003SOL    HW2 9396   1.164   2.790  11.240
 3004SOL     OW 9397   1.861   3.431  12.023
 3004SOL    HW1 9398   1.790   3.419  11.953
 3004SOL    HW2 9399   1.862   3.352  12.083
 3005SOL     OW 9400   0.221   3.176  13.016
 3005SOL    HW1 9401   0.156   3.103  12.995
 3005SOL    HW2 9402   0.225   3.190  13.114
 3006SOL     OW 9403   0.079   3.102  11.825
 3006SOL    HW1 9404   0.078   3.055  11.913
 3006SOL    HW2 9405   0.161   3.074  11.774
 3007SOL     OW 9406   0.672   3.253  12.796
 3007SOL    HW1 9407   0.594   3.203  12.834
 3007SOL    HW2 9408   0.669   3.348  12.827
 3008SOL     OW 9409   0.428   2.286  11.692
 3008SOL    HW1 9410   0.458   2.214  11.630
 3008SOL    HW2 9411   0.389   2.246  11.775
 3009SOL     OW 9412   1.705   3.349  12.276
 3009SOL    HW1 9413   1.612   3.324  12.249
 3009SOL    HW2 9414   1.731   3.299  12.358
 3010SOL     OW 9415   0.317   2.409  12.452
 3010SOL    HW1 9416   0.355   2.350  12.524
 3010SOL    HW2 9417   0.357   2.383  12.364
 3011SOL     OW 9418   0.812   3.448  11.859
 3011SOL    HW1 9419   0.844   3.458  11.765
 3011SOL    HW2 9420   0.733   3.386  11.861
 3012SOL     OW 9421   1.424   2.076  12.284
 3012SOL    HW1 9422   1.476   2.011  12.339
 3012SOL    HW2 9423   1.375   2.139  12.345
 3013SOL     OW 9424   1.001   1.896  12.326
 3013SOL    HW1 9425   0.938   1.824  12.295
 3013SOL    HW2 9426   1.094   1.860  12.326
 3014SOL     OW 9427   0.770   3.192  11.473
 3014SOL    HW1 9428   0.724   3.105  11.490
 3014SOL    HW2 9429   0.861   3.189  11.514
 3015SOL     OW 9430   0.618   3.429  12.456
 3015SOL    HW1 9431   0.613   3.511  12.513
 3015SOL    HW2 9432   0.707   3.426  12.411
 3016SOL     OW 9433   1.352   1.914  11.340
 3016SOL    HW1 9434   1.387   1.873  11.256
 3016SOL    HW2 9435   1.262   1.876  11.360
 3017SOL     OW 9436   1.300   2.315  11.863
 3017SOL    HW1 9437   1.241   2.395  11.867
 3017SOL    HW2 9438   1.315   2.280  11.956
 3018SOL     OW 9439   1.593   2.083  12.054
 3018SOL    HW1 9440   1.509   2.082  12.108
 3018SOL    HW2 9441   1.595   2.166  11.998
 3019SOL     OW 9442   0.039   2.939  11.472
 3019SOL    HW1 9443   0.138   2.928  11.463
 3019SOL    HW2 9444  -0.001   2.853  11.504
 3020SOL     OW 9445   0.875   3.508  11.509
 3020SOL    HW1 9446   0.798   3.473  11.455
 3020SOL    HW2 9447   0.843   3.579  11.571
 3021SOL     OW 9448   0.230   2.490  13.147
 3021SOL    HW1 9449   0.137   2.488  13.184
 3021SOL    HW2 9450   0.231   2.451  13.055
 3022SOL     OW 9451   0.225   2.137  14.030
 3022SOL    HW1 9452   0.260   2.120  14.122
 3022SOL    HW2 9453   0.137   2.092  14.018
 3023SOL     OW 9454   0.019   2.230  13.681
 3023SOL    HW1 9455  -0.063   2.273  13.720
 3023SOL    HW2 9456  -0.009   2.157  13.618
 3024SOL     OW 9457   1.555   3.373  13.737
 3024SOL    HW1 9458   1.498   3.357  13.818
 3024SOL    HW2 9459   1.496   3.383  13.657
 3025SOL     OW 9460   1.135   2.565  13.751
 3025SOL    HW1 9461   1.192   2.643  13.726
 3025SOL    HW2 9462   1.075   2.591  13.827
 3026SOL     OW 9463   1.755   2.469  13.265
 3026SOL    HW1 9464   1.743   2.456  13.166
 3026SOL    HW2 9465   1.725   2.388  13.314
 3027SOL     OW 9466   0.685   2.874  13.699
 3027SOL    HW1 9467   0.754   2.858  13.769
 3027SOL    HW2 9468   0.612   2.931  13.737
 3028SOL     OW 9469   1.603   2.309  13.771
 3028SOL    HW1 9470   1.529   2.355  13.721
 3028SOL    HW2 9471   1.654   2.377  13.824
 3029SOL     OW 9472   0.231   3.575  13.517
 3029SOL    HW1 9473   0.265   3.652  13.571
 3029SOL    HW2 9474   0.275   3.575  13.427
 3030SOL     OW 9475   0.230   3.296  13.572
 3030SOL    HW1 9476   0.204   3.392  13.572
 3030SOL    HW2 9477   0.159   3.242  13.617
 3031SOL     OW 9478   0.240   2.953  13.920
 3031SOL    HW1 9479   0.254   2.869  13.972
 3031SOL    HW2 9480   0.185   3.017  13.975
 3032SOL     OW 9481   0.606   2.826  13.157
 3032SOL    HW1 9482   0.613   2.910  13.103
 3032SOL    HW2 9483   0.652   2.839  13.245
 3033SOL     OW 9484   0.122   2.505  13.597
 3033SOL    HW1 9485   0.077   2.417  13.614
 3033SOL    HW2 9486   0.121   2.559  13.681
 3034SOL     OW 9487   1.842   3.629  13.393
 3034SOL    HW1 9488   1.896   3.600  13.473
 3034SOL    HW2 9489   1.872   3.719  13.364
 3035SOL     OW 9490   0.027   3.458  13.151
 3035SOL    HW1 9491   0.008   3.362  13.172
 3035SOL    HW2 9492  -0.006   3.516  13.226
 3036SOL     OW 9493   1.689   2.784  13.646
 3036SOL    HW1 9494   1.784   2.755  13.654
 3036SOL    HW2 9495   1.681   2.849  13.571
 3037SOL     OW 9496   1.641   2.970  13.466
 3037SOL    HW1 9497   1.727   2.972  13.414
 3037SOL    HW2 9498   1.655   3.017  13.554
 3038SOL     OW 9499   0.613   3.227  13.760
 3038SOL    HW1 9500   0.564   3.140  13.769
 3038SOL    HW2 9501   0.590   3.270  13.673
 3039SOL     OW 9502   0.809   1.866  13.536
 3039SOL    HW1 9503   0.849   1.957  13.527
 3039SOL    HW2 9504   0.709   1.874  13.542
 3040SOL     OW 9505   1.525   2.861  13.224
 3040SOL    HW1 9506   1.462   2.785  13.237
 3040SOL    HW2 9507   1.573   2.879  13.310
 3041SOL     OW 9508   1.667   3.576  13.606
 3041SOL    HW1 9509   1.626   3.553  13.518
 3041SOL    HW2 9510   1.649   3.502  13.671
 3042SOL     OW 9511   0.598   2.591  13.304
 3042SOL    HW1 9512   0.622   2.660  13.236
 3042SOL    HW2 9513   0.520   2.624  13.358
 3043SOL     OW 9514   1.281   2.207  13.978
 3043SOL    HW1 9515   1.195   2.157  13.965
 3043SOL    HW2 9516   1.343   2.153  14.034
 3044SOL     OW 9517   1.576   3.524  13.341
 3044SOL    HW1 9518   1.665   3.570  13.344
 3044SOL    HW2 9519   1.555   3.500  13.246
 3045SOL     OW 9520   1.041   2.563  13.463
 3045SOL    HW1 9521   1.067   2.559  13.559
 3045SOL    HW2 9522   0.956   2.512  13.449
 3046SOL     OW 9523   0.076   2.673  13.823
 3046SOL    HW1 9524   0.175   2.661  13.832
 3046SOL    HW2 9525   0.052   2.768  13.844
 3047SOL     OW 9526   0.865   2.210  13.229
 3047SOL    HW1 9527   0.924   2.273  13.180
 3047SOL    HW2 9528   0.884   2.116  13.200
 3048SOL     OW 9529   1.362   3.006  13.579
 3048SOL    HW1 9530   1.445   2.977  13.531
 3048SOL    HW2 9531   1.313   3.073  13.523
 3049SOL     OW 9532   1.008   3.318  13.511
 3049SOL    HW1 9533   0.962   3.390  13.459
 3049SOL    HW2 9534   1.004   3.338  13.609
 3050SOL     OW 9535   0.351   3.663  13.887
 3050SOL    HW1 9536   0.401   3.577  13.893
 3050SOL    HW2 9537   0.416   3.740  13.884
 3051SOL     OW 9538   1.795   2.928  13.907
 3051SOL    HW1 9539   1.733   2.913  13.831
 3051SOL    HW2 9540   1.743   2.939  13.992
 3052SOL     OW 9541   0.321   2.805  13.276
 3052SOL    HW1 9542   0.403   2.844  13.234
 3052SOL    HW2 9543   0.294   2.723  13.227
 3053SOL     OW 9544   1.458   2.597  13.762
 3053SOL    HW1 9545   1.453   2.532  13.837
 3053SOL    HW2 9546   1.538   2.656  13.775
 3054SOL     OW 9547   1.111   3.638  13.271
 3054SOL    HW1 9548   1.051   3.576  13.321
 3054SOL    HW2 9549   1.142   3.594  13.186
 3055SOL     OW 9550   1.632   3.239  13.115
 3055SOL    HW1 9551   1.600   3.333  13.105
 3055SOL    HW2 9552   1.556   3.176  13.103
 3056SOL     OW 9553   0.464   3.605  13.357
 3056SOL    HW1 9554   0.497   3.644  13.443
 3056SOL    HW2 9555   0.540   3.598  13.292
 3057SOL     OW 9556   1.400   1.969  13.460
 3057SOL    HW1 9557   1.376   1.932  13.370
 3057SOL    HW2 9558   1.499   1.985  13.464
 3058SOL     OW 9559   0.940   3.560  13.938
 3058SOL    HW1 9560   1.020   3.503  13.959
 3058SOL    HW2 9561   0.891   3.520  13.861
 3059SOL     OW 9562   0.382   2.562  13.514
 3059SOL    HW1 9563   0.427   2.472  13.511
 3059SOL    HW2 9564   0.288   2.551  13.547
 3060SOL     OW 9565   0.614   1.984  13.151
 3060SOL    HW1 9566   0.712   1.962  13.158
 3060SOL    HW2 9567   0.583   1.967  13.058
 3061SOL     OW 9568   0.539   1.926  13.546
 3061SOL    HW1 9569   0.458   1.927  13.604
 3061SOL    HW2 9570   0.542   2.009  13.491
 3062SOL     OW 9571   1.434   3.050  13.075
 3062SOL    HW1 9572   1.466   2.974  13.132
 3062SOL    HW2 9573   1.342   3.077  13.105
 3063SOL     OW 9574   0.297   1.897  13.205
 3063SOL    HW1 9575   0.346   1.981  13.184
 3063SOL    HW2 9576   0.359   1.832  13.250
 3064SOL     OW 9577   0.935   2.098  13.514
 3064SOL    HW1 9578   0.887   2.139  13.436
 3064SOL    HW2 9579   1.034   2.096  13.495
 3065SOL     OW 9580   0.459   3.014  13.775
 3065SOL    HW1 9581   0.388   2.987  13.840
 3065SOL    HW2 9582   0.433   2.986  13.682
 3066SOL     OW 9583   1.271   3.659  13.625
 3066SOL    HW1 9584   1.315   3.723  13.561
 3066SOL    HW2 9585   1.221   3.711  13.695
 3067SOL     OW 9586   1.032   2.411  13.050
 3067SOL    HW1 9587   0.991   2.493  13.011
 3067SOL    HW2 9588   1.096   2.437  13.123
 3068SOL     OW 9589   0.866   2.316  13.676
 3068SOL    HW1 9590   0.834   2.388  13.614
 3068SOL    HW2 9591   0.890   2.235  13.623
 3069SOL     OW 9592   1.017   1.901  13.787
 3069SOL    HW1 9593   0.945   1.906  13.718
 3069SOL    HW2 9594   0.993   1.832  13.856
 3070SOL     OW 9595   1.857   2.695  13.411
 3070SOL    HW1 9596   1.899   2.631  13.475
 3070SOL    HW2 9597   1.819   2.644  13.333
 3071SOL     OW 9598   0.488   3.247  13.208
 3071SOL    HW1 9599   0.401   3.232  13.255
 3071SOL    HW2 9600   0.471   3.273  13.113
 3072SOL     OW 9601   1.664   3.142  13.691
 3072SOL    HW1 9602   1.763   3.150  13.705
 3072SOL    HW2 9603   1.619   3.226  13.722
 3073SOL     OW 9604   1.390   2.437  13.112
 3073SOL    HW1 9605   1.336   2.416  13.193
 3073SOL    HW2 9606   1.481   2.396  13.121
 3074SOL     OW 9607   0.527   2.118  13.362
 3074SOL    HW1 9608   0.554   2.059  13.287
 3074SOL    HW2 9609   0.527   2.213  13.331
 3075SOL     OW 9610   0.705   2.912  13.402
 3075SOL    HW1 9611   0.691   2.919  13.501
 3075SOL    HW2 9612   0.789   2.861  13.384
 3076SOL     OW 9613   0.367   2.962  13.535
 3076SOL    HW1 9614   0.360   3.045  13.479
 3076SOL    HW2 9615   0.371   2.882  13.475
 3077SOL     OW 9616   0.566   2.399  13.899
 3077SOL    HW1 9617   0.578   2.465  13.825
 3077SOL    HW2 9618   0.612   2.433  13.982
 3078SOL     OW 9619   1.252   3.210  13.422
 3078SOL    HW1 9620   1.302   3.287  13.462
 3078SOL    HW2 9621   1.157   3.212  13.454
 3079SOL     OW 9622   1.582   2.501  13.506
 3079SOL    HW1 9623   1.551   2.562  13.579
 3079SOL    HW2 9624   1.632   2.553  13.437
 3080SOL     OW 9625   1.209   2.387  13.309
 3080SOL    HW1 9626   1.222   2.303  13.363
 3080SOL    HW2 9627   1.180   2.461  13.369
 3081SOL     OW 9628   0.307   1.925  13.652
 3081SOL    HW1 9629   0.296   2.019  13.685
 3081SOL    HW2 9630   0.302   1.862  13.729
 3082SOL     OW 9631   1.622   2.229  13.408
 3082SOL    HW1 9632   1.624   2.153  13.472
 3082SOL    HW2 9633   1.574   2.306  13.448
 3083SOL     OW 9634   1.540   2.136  13.159
 3083SOL    HW1 9635   1.479   2.061  13.182
 3083SOL    HW2 9636   1.562   2.188  13.242
 3084SOL     OW 9637   1.303   2.700  13.076
 3084SOL    HW1 9638   1.337   2.607  13.091
 3084SOL    HW2 9639   1.321   2.727  12.981
 3085SOL     OW 9640   0.008   3.188  13.234
 3085SOL    HW1 9641  -0.085   3.209  13.203
 3085SOL    HW2 9642   0.018   3.089  13.247
 3086SOL     OW 9643   0.815   2.434  13.359
 3086SOL    HW1 9644   0.822   2.345  13.313
 3086SOL    HW2 9645   0.721   2.468  13.351
 3087SOL     OW 9646   0.473   2.362  13.225
 3087SOL    HW1 9647   0.534   2.442  13.229
 3087SOL    HW2 9648   0.378   2.393  13.232
 3088SOL     OW 9649   1.302   2.717  13.343
 3088SOL    HW1 9650   1.216   2.686  13.385
 3088SOL    HW2 9651   1.298   2.703  13.244
 3089SOL     OW 9652   1.388   3.435  13.511
 3089SOL    HW1 9653   1.455   3.447  13.437
 3089SOL    HW2 9654   1.348   3.524  13.534
 3090SOL     OW 9655   1.280   2.789  13.706
 3090SOL    HW1 9656   1.340   2.708  13.708
 3090SOL    HW2 9657   1.320   2.858  13.646
 3091SOL     OW 9658   0.672   3.478  13.188
 3091SOL    HW1 9659   0.681   3.488  13.089
 3091SOL    HW2 9660   0.632   3.389  13.209
 3092SOL     OW 9661   0.263   2.188  13.754
 3092SOL    HW1 9662   0.184   2.239  13.720
 3092SOL    HW2 9663   0.254   2.173  13.852
 3093SOL     OW 9664   1.194   3.474  13.065
 3093SOL    HW1 9665   1.200   3.381  13.102
 3093SOL    HW2 9666   1.135   3.474  12.985
 3094SOL     OW 9667   0.916   2.772  13.325
 3094SOL    HW1 9668   0.979   2.810  13.257
 3094SOL    HW2 9669   0.956   2.689  13.364
 3095SOL     OW 9670   1.504   3.469  13.078
 3095SOL    HW1 9671   1.412   3.506  13.085
 3095SOL    HW2 9672   1.542   3.489  12.988
 3096SOL     OW 9673   1.039   2.960  13.730
 3096SOL    HW1 9674   0.969   2.913  13.784
 3096SOL    HW2 9675   1.098   2.892  13.687
 3097SOL     OW 9676   0.590   3.349  13.525
 3097SOL    HW1 9677   0.632   3.291  13.455
 3097SOL    HW2 9678   0.546   3.428  13.481
 3098SOL     OW 9679   0.255   3.210  13.324
 3098SOL    HW1 9680   0.159   3.211  13.297
 3098SOL    HW2 9681   0.267   3.263  13.408
 3099SOL     OW 9682   0.075   2.207  13.067
 3099SOL    HW1 9683  -0.017   2.179  13.038
 3099SOL    HW2 9684   0.106   2.284  13.011
 3100SOL     OW 9685   0.072   2.028  13.352
 3100SOL    HW1 9686   0.055   2.111  13.298
 3100SOL    HW2 9687   0.162   1.991  13.330
 3101SOL     OW 9688   1.183   3.197  13.153
 3101SOL    HW1 9689   1.084   3.186  13.155
 3101SOL    HW2 9690   1.217   3.212  13.246
 3102SOL     OW 9691   1.225   2.187  13.483
 3102SOL    HW1 9692   1.290   2.113  13.472
 3102SOL    HW2 9693   1.245   2.237  13.567
 3103SOL     OW 9694   0.594   2.607  13.686
 3103SOL    HW1 9695   0.644   2.692  13.667
 3103SOL    HW2 9696   0.506   2.609  13.638
 3104SOL     OW 9697   0.859   3.236  13.050
 3104SOL    HW1 9698   0.813   3.251  13.138
 3104SOL    HW2 9699   0.903   3.321  13.020
 3105SOL     OW 9700   0.661   3.652  13.987
 3105SOL    HW1 9701   0.615   3.740  13.974
 3105SOL    HW2 9702   0.760   3.664  13.980
 3106SOL     OW 9703   0.859   2.818  13.895
 3106SOL    HW1 9704   0.913   2.749  13.943
 3106SOL    HW2 9705   0.827   2.887  13.961
 3107SOL     OW 9706   1.083   2.846  13.121
 3107SOL    HW1 9707   1.060   2.899  13.039
 3107SOL    HW2 9708   1.164   2.790  13.102
 3108SOL     OW 9709   0.079   3.102  13.687
 3108SOL    HW1 9710   0.078   3.055  13.775
 3108SOL    HW2 9711   0.161   3.074  13.636
 3109SOL     OW 9712   0.428   2.286  13.554
 3109SOL    HW1 9713   0.458   2.214  13.492
 3109SOL    HW2 9714   0.389   2.246  13.637
 3110SOL     OW 9715   1.705   3.349  14.138
 3110SOL    HW1 9716   1.612   3.324  14.111
 3110SOL    HW2 9717   1.731   3.299  14.220
 3111SOL     OW 9718   0.812   3.448  13.721
 3111SOL    HW1 9719   0.844   3.458  13.627
 3111SOL    HW2 9720   0.733   3.386  13.723
 3112SOL     OW 9721   0.770   3.192  13.335
 3112SOL    HW1 9722   0.724   3.105  13.352
 3112SOL    HW2 9723   0.861   3.189  13.376
 3113SOL     OW 9724   1.352   1.914  13.202
 3113SOL    HW1 9725   1.387   1.873  13.118
 3113SOL    HW2 9726   1.262   1.876  13.222
 3114SOL     OW 9727   1.300   2.315  13.725
 3114SOL    HW1 9728   1.241   2.395  13.729
 3114SOL    HW2 9729   1.315   2.280  13.818
 3115SOL     OW 9730   0.039   2.939  13.334
 3115SOL    HW1 9731   0.138   2.928  13.325
 3115SOL    HW2 9732  -0.001   2.853  13.366
 3116SOL     OW 9733   0.875   3.508  13.371
 3116SOL    HW1 9734   0.798   3.473  13.317
 3116SOL    HW2 9735   0.843   3.579  13.433
 3117SOL     OW 9736   0.225   3.999   0.996
 3117SOL    HW1 9737   0.260   3.982   1.088
 3117SOL    HW2 9738   0.137   3.954   0.984
 3118SOL     OW 9739   0.019   4.092   0.647
 3118SOL    HW1 9740  -0.063   4.135   0.686
 3118SOL    HW2 9741  -0.009   4.019   0.584
 3119SOL     OW 9742   1.755   4.331   0.231
 3119SOL    HW1 9743   1.743   4.318   0.132
 3119SOL    HW2 9744   1.725   4.250   0.280
 3120SOL     OW 9745   0.438   4.116   1.499
 3120SOL    HW1 9746   0.520   4.060   1.508
 3120SOL    HW2 9747   0.357   4.058   1.503
 3121SOL     OW 9748   1.594   3.838   1.480
 3121SOL    HW1 9749   1.576   3.905   1.408
 3121SOL    HW2 9750   1.591   3.884   1.569
 3122SOL     OW 9751   0.809   3.728   0.502
 3122SOL    HW1 9752   0.849   3.819   0.493
 3122SOL    HW2 9753   0.709   3.736   0.508
 3123SOL     OW 9754   1.281   4.069   0.944
 3123SOL    HW1 9755   1.195   4.019   0.931
 3123SOL    HW2 9756   1.343   4.015   1.000
 3124SOL     OW 9757   0.550   3.920   0.885
 3124SOL    HW1 9758   0.545   3.915   0.985
 3124SOL    HW2 9759   0.552   4.016   0.856
 3125SOL     OW 9760   0.202   4.009   1.498
 3125SOL    HW1 9761   0.122   4.069   1.485
 3125SOL    HW2 9762   0.192   3.960   1.584
 3126SOL     OW 9763   1.400   3.831   0.426
 3126SOL    HW1 9764   1.376   3.794   0.336
 3126SOL    HW2 9765   1.499   3.847   0.430
 3127SOL     OW 9766   1.547   3.946   1.729
 3127SOL    HW1 9767   1.542   3.983   1.821
 3127SOL    HW2 9768   1.475   3.877   1.717
 3128SOL     OW 9769   0.781   3.988   1.749
 3128SOL    HW1 9770   0.848   3.927   1.792
 3128SOL    HW2 9771   0.708   4.007   1.814
 3129SOL     OW 9772   0.539   3.788   0.512
 3129SOL    HW1 9773   0.458   3.789   0.570
 3129SOL    HW2 9774   0.542   3.871   0.457
 3130SOL     OW 9775   0.297   3.759   0.171
 3130SOL    HW1 9776   0.346   3.843   0.150
 3130SOL    HW2 9777   0.359   3.694   0.216
 3131SOL     OW 9778   0.561   3.946   1.147
 3131SOL    HW1 9779   0.599   3.862   1.184
 3131SOL    HW2 9780   0.473   3.965   1.191
 3132SOL     OW 9781   1.017   3.763   0.753
 3132SOL    HW1 9782   0.945   3.768   0.684
 3132SOL    HW2 9783   0.993   3.694   0.822
 3133SOL     OW 9784   0.915   3.813   1.402
 3133SOL    HW1 9785   0.940   3.793   1.307
 3133SOL    HW2 9786   0.987   3.869   1.444
 3134SOL     OW 9787   1.274   4.110   1.262
 3134SOL    HW1 9788   1.295   4.184   1.326
 3134SOL    HW2 9789   1.185   4.127   1.219
 3135SOL     OW 9790   0.504   3.774   1.740
 3135SOL    HW1 9791   0.462   3.717   1.670
 3135SOL    HW2 9792   0.438   3.843   1.772
 3136SOL     OW 9793   0.307   3.937   1.231
 3136SOL    HW1 9794   0.284   3.974   1.321
 3136SOL    HW2 9795   0.277   3.842   1.225
 3137SOL     OW 9796   1.540   3.998   0.125
 3137SOL    HW1 9797   1.479   3.923   0.148
 3137SOL    HW2 9798   1.562   4.050   0.208
 3138SOL     OW 9799   1.160   3.931   1.477
 3138SOL    HW1 9800   1.160   3.995   1.554
 3138SOL    HW2 9801   1.188   3.979   1.394
 3139SOL     OW 9802   0.903   3.810   0.133
 3139SOL    HW1 9803   0.954   3.811   0.047
 3139SOL    HW2 9804   0.959   3.768   0.204
 3140SOL     OW 9805   1.726   3.859   0.523
 3140SOL    HW1 9806   1.799   3.842   0.456
 3140SOL    HW2 9807   1.695   3.772   0.561
 3141SOL     OW 9808   1.841   3.899   0.963
 3141SOL    HW1 9809   1.880   3.814   0.927
 3141SOL    HW2 9810   1.743   3.901   0.944
 3142SOL     OW 9811   0.672   3.927   1.489
 3142SOL    HW1 9812   0.762   3.911   1.449
 3142SOL    HW2 9813   0.680   3.932   1.588
 3143SOL     OW 9814   0.075   4.069   0.033
 3143SOL    HW1 9815  -0.017   4.041   0.004
 3143SOL    HW2 9816   0.106   4.146  -0.023
 3144SOL     OW 9817   0.072   3.890   0.318
 3144SOL    HW1 9818   0.055   3.973   0.264
 3144SOL    HW2 9819   0.162   3.853   0.296
 3145SOL     OW 9820   1.225   4.049   0.449
 3145SOL    HW1 9821   1.290   3.975   0.438
 3145SOL    HW2 9822   1.245   4.099   0.533
 3146SOL     OW 9823   1.777   4.066   1.642
 3146SOL    HW1 9824   1.760   4.097   1.548
 3146SOL    HW2 9825   1.693   4.029   1.680
 3147SOL     OW 9826   1.824   3.916   1.227
 3147SOL    HW1 9827   1.820   3.826   1.271
 3147SOL    HW2 9828   1.827   3.905   1.128
 3148SOL     OW 9829   1.424   3.938   1.112
 3148SOL    HW1 9830   1.476   3.873   1.167
 3148SOL    HW2 9831   1.375   4.001   1.173
 3149SOL     OW 9832   1.001   3.758   1.154
 3149SOL    HW1 9833   0.938   3.686   1.123
 3149SOL    HW2 9834   1.094   3.722   1.154
 3150SOL     OW 9835   1.352   3.776   0.168
 3150SOL    HW1 9836   1.387   3.735   0.084
 3150SOL    HW2 9837   1.262   3.738   0.188
 3151SOL     OW 9838   1.300   4.177   0.691
 3151SOL    HW1 9839   1.241   4.257   0.695
 3151SOL    HW2 9840   1.315   4.142   0.784
 3152SOL     OW 9841   1.593   3.945   0.882
 3152SOL    HW1 9842   1.509   3.944   0.936
 3152SOL    HW2 9843   1.595   4.028   0.826
 3153SOL     OW 9844   0.225   3.999   2.858
 3153SOL    HW1 9845   0.260   3.982   2.950
 3153SOL    HW2 9846   0.137   3.954   2.846
 3154SOL     OW 9847   0.019   4.092   2.509
 3154SOL    HW1 9848  -0.063   4.135   2.548
 3154SOL    HW2 9849  -0.009   4.019   2.446
 3155SOL     OW 9850   1.755   4.331   2.093
 3155SOL    HW1 9851   1.743   4.318   1.994
 3155SOL    HW2 9852   1.725   4.250   2.142
 3156SOL     OW 9853   0.438   4.116   3.361
 3156SOL    HW1 9854   0.520   4.060   3.370
 3156SOL    HW2 9855   0.357   4.058   3.365
 3157SOL     OW 9856   1.594   3.838   3.342
 3157SOL    HW1 9857   1.576   3.905   3.270
 3157SOL    HW2 9858   1.591   3.884   3.431
 3158SOL     OW 9859   0.809   3.728   2.364
 3158SOL    HW1 9860   0.849   3.819   2.355
 3158SOL    HW2 9861   0.709   3.736   2.370
 3159SOL     OW 9862   1.281   4.069   2.806
 3159SOL    HW1 9863   1.195   4.019   2.793
 3159SOL    HW2 9864   1.343   4.015   2.862
 3160SOL     OW 9865   0.550   3.920   2.747
 3160SOL    HW1 9866   0.545   3.915   2.847
 3160SOL    HW2 9867   0.552   4.016   2.718
 3161SOL     OW 9868   0.202   4.009   3.360
 3161SOL    HW1 9869   0.122   4.069   3.347
 3161SOL    HW2 9870   0.192   3.960   3.446
 3162SOL     OW 9871   1.400   3.831   2.288
 3162SOL    HW1 9872   1.376   3.794   2.198
 3162SOL    HW2 9873   1.499   3.847   2.292
 3163SOL     OW 9874   1.547   3.946   3.591
 3163SOL    HW1 9875   1.542   3.983   3.683
 3163SOL    HW2 9876   1.475   3.877   3.579
 3164SOL     OW 9877   0.614   3.846   1.979
 3164SOL    HW1 9878   0.712   3.824   1.986
 3164SOL    HW2 9879   0.583   3.829   1.886
 3165SOL     OW 9880   0.781   3.988   3.611
 3165SOL    HW1 9881   0.848   3.927   3.654
 3165SOL    HW2 9882   0.708   4.007   3.676
 3166SOL     OW 9883   0.539   3.788   2.374
 3166SOL    HW1 9884   0.458   3.789   2.432
 3166SOL    HW2 9885   0.542   3.871   2.319
 3167SOL     OW 9886   0.297   3.759   2.033
 3167SOL    HW1 9887   0.346   3.843   2.012
 3167SOL    HW2 9888   0.359   3.694   2.078
 3168SOL     OW 9889   0.561   3.946   3.009
 3168SOL    HW1 9890   0.599   3.862   3.046
 3168SOL    HW2 9891   0.473   3.965   3.053
 3169SOL     OW 9892   1.017   3.763   2.615
 3169SOL    HW1 9893   0.945   3.768   2.546
 3169SOL    HW2 9894   0.993   3.694   2.684
 3170SOL     OW 9895   0.915   3.813   3.264
 3170SOL    HW1 9896   0.940   3.793   3.169
 3170SOL    HW2 9897   0.987   3.869   3.306
 3171SOL     OW 9898   1.274   4.110   3.124
 3171SOL    HW1 9899   1.295   4.184   3.188
 3171SOL    HW2 9900   1.185   4.127   3.081
 3172SOL     OW 9901   0.504   3.774   3.602
 3172SOL    HW1 9902   0.462   3.717   3.532
 3172SOL    HW2 9903   0.438   3.843   3.634
 3173SOL     OW 9904   0.307   3.937   3.093
 3173SOL    HW1 9905   0.284   3.974   3.183
 3173SOL    HW2 9906   0.277   3.842   3.087
 3174SOL     OW 9907   1.540   3.998   1.987
 3174SOL    HW1 9908   1.479   3.923   2.010
 3174SOL    HW2 9909   1.562   4.050   2.070
 3175SOL     OW 9910   1.160   3.931   3.339
 3175SOL    HW1 9911   1.160   3.995   3.416
 3175SOL    HW2 9912   1.188   3.979   3.256
 3176SOL     OW 9913   0.903   3.810   1.995
 3176SOL    HW1 9914   0.954   3.811   1.909
 3176SOL    HW2 9915   0.959   3.768   2.066
 3177SOL     OW 9916   1.726   3.859   2.385
 3177SOL    HW1 9917   1.799   3.842   2.318
 3177SOL    HW2 9918   1.695   3.772   2.423
 3178SOL     OW 9919   1.841   3.899   2.825
 3178SOL    HW1 9920   1.880   3.814   2.789
 3178SOL    HW2 9921   1.743   3.901   2.806
 3179SOL     OW 9922   0.672   3.927   3.351
 3179SOL    HW1 9923   0.762   3.911   3.311
 3179SOL    HW2 9924   0.680   3.932   3.450
 3180SOL     OW 9925   0.075   4.069   1.895
 3180SOL    HW1 9926  -0.017   4.041   1.866
 3180SOL    HW2 9927   0.106   4.146   1.839
 3181SOL     OW 9928   0.072   3.890   2.180
 3181SOL    HW1 9929   0.055   3.973   2.126
 3181SOL    HW2 9930   0.162   3.853   2.158
 3182SOL     OW 9931   1.225   4.049   2.311
 3182SOL    HW1 9932   1.290   3.975   2.300
 3182SOL    HW2 9933   1.245   4.099   2.395
 3183SOL     OW 9934   1.777   4.066   3.504
 3183SOL    HW1 9935   1.760   4.097   3.410
 3183SOL    HW2 9936   1.693   4.029   3.542
 3184SOL     OW 9937   1.824   3.916   3.089
 3184SOL    HW1 9938   1.820   3.826   3.133
 3184SOL    HW2 9939   1.827   3.905   2.990
 3185SOL     OW 9940   1.424   3.938   2.974
 3185SOL    HW1 9941   1.476   3.873   3.029
 3185SOL    HW2 9942   1.375   4.001   3.035
 3186SOL     OW 9943   1.001   3.758   3.016
 3186SOL    HW1 9944   0.938   3.686   2.985
 3186SOL    HW2 9945   1.094   3.722   3.016
 3187SOL     OW 9946   1.352   3.776   2.030
 3187SOL    HW1 9947   1.387   3.735   1.946
 3187SOL    HW2 9948   1.262   3.738   2.050
 3188SOL     OW 9949   1.300   4.177   2.553
 3188SOL    HW1 9950   1.241   4.257   2.557
 3188SOL    HW2 9951   1.315   4.142   2.646
 3189SOL     OW 9952   1.593   3.945   2.744
 3189SOL    HW1 9953   1.509   3.944   2.798
 3189SOL    HW2 9954   1.595   4.028   2.688
 3190SOL     OW 9955   0.225   3.999   4.720
 3190SOL    HW1 9956   0.260   3.982   4.812
 3190SOL    HW2 9957   0.137   3.954   4.708
 3191SOL     OW 9958   0.019   4.092   4.371
 3191SOL    HW1 9959  -0.063   4.135   4.410
 3191SOL    HW2 9960  -0.009   4.019   4.308
 3192SOL     OW 9961   1.755   4.331   3.955
 3192SOL    HW1 9962   1.743   4.318   3.856
 3192SOL    HW2 9963   1.725   4.250   4.004
 3193SOL     OW 9964   0.438   4.116   5.223
 3193SOL    HW1 9965   0.520   4.060   5.232
 3193SOL    HW2 9966   0.357   4.058   5.227
 3194SOL     OW 9967   1.594   3.838   5.204
 3194SOL    HW1 9968   1.576   3.905   5.132
 3194SOL    HW2 9969   1.591   3.884   5.293
 3195SOL     OW 9970   0.809   3.728   4.226
 3195SOL    HW1 9971   0.849   3.819   4.217
 3195SOL    HW2 9972   0.709   3.736   4.232
 3196SOL     OW 9973   1.281   4.069   4.668
 3196SOL    HW1 9974   1.195   4.019   4.655
 3196SOL    HW2 9975   1.343   4.015   4.724
 3197SOL     OW 9976   0.550   3.920   4.609
 3197SOL    HW1 9977   0.545   3.915   4.709
 3197SOL    HW2 9978   0.552   4.016   4.580
 3198SOL     OW 9979   0.202   4.009   5.222
 3198SOL    HW1 9980   0.122   4.069   5.209
 3198SOL    HW2 9981   0.192   3.960   5.308
 3199SOL     OW 9982   1.400   3.831   4.150
 3199SOL    HW1 9983   1.376   3.794   4.060
 3199SOL    HW2 9984   1.499   3.847   4.154
 3200SOL     OW 9985   1.547   3.946   5.453
 3200SOL    HW1 9986   1.542   3.983   5.545
 3200SOL    HW2 9987   1.475   3.877   5.441
 3201SOL     OW 9988   0.614   3.846   3.841
 3201SOL    HW1 9989   0.712   3.824   3.848
 3201SOL    HW2 9990   0.583   3.829   3.748
 3202SOL     OW 9991   0.781   3.988   5.473
 3202SOL    HW1 9992   0.848   3.927   5.516
 3202SOL    HW2 9993   0.708   4.007   5.538
 3203SOL     OW 9994   0.539   3.788   4.236
 3203SOL    HW1 9995   0.458   3.789   4.294
 3203SOL    HW2 9996   0.542   3.871   4.181
 3204SOL     OW 9997   0.297   3.759   3.895
 3204SOL    HW1 9998   0.346   3.843   3.874
 3204SOL    HW2 9999   0.359   3.694   3.940
 3205SOL     OW10000   0.561   3.946   4.871
 3205SOL    HW110001   0.599   3.862   4.908
 3205SOL    HW210002   0.473   3.965   4.915
 3206SOL     OW10003   1.017   3.763   4.477
 3206SOL    HW110004   0.945   3.768   4.408
 3206SOL    HW210005   0.993   3.694   4.546
 3207SOL     OW10006   0.915   3.813   5.126
 3207SOL    HW110007   0.940   3.793   5.031
 3207SOL    HW210008   0.987   3.869   5.168
 3208SOL     OW10009   1.274   4.110   4.986
 3208SOL    HW110010   1.295   4.184   5.050
 3208SOL    HW210011   1.185   4.127   4.943
 3209SOL     OW10012   0.504   3.774   5.464
 3209SOL    HW110013   0.462   3.717   5.394
 3209SOL    HW210014   0.438   3.843   5.496
 3210SOL     OW10015   0.307   3.937   4.955
 3210SOL    HW110016   0.284   3.974   5.045
 3210SOL    HW210017   0.277   3.842   4.949
 3211SOL     OW10018   1.540   3.998   3.849
 3211SOL    HW110019   1.479   3.923   3.872
 3211SOL    HW210020   1.562   4.050   3.932
 3212SOL     OW10021   1.160   3.931   5.201
 3212SOL    HW110022   1.160   3.995   5.278
 3212SOL    HW210023   1.188   3.979   5.118
 3213SOL     OW10024   0.903   3.810   3.857
 3213SOL    HW110025   0.954   3.811   3.771
 3213SOL    HW210026   0.959   3.768   3.928
 3214SOL     OW10027   1.726   3.859   4.247
 3214SOL    HW110028   1.799   3.842   4.180
 3214SOL    HW210029   1.695   3.772   4.285
 3215SOL     OW10030   1.841   3.899   4.687
 3215SOL    HW110031   1.880   3.814   4.651
 3215SOL    HW210032   1.743   3.901   4.668
 3216SOL     OW10033   0.672   3.927   5.213
 3216SOL    HW110034   0.762   3.911   5.173
 3216SOL    HW210035   0.680   3.932   5.312
 3217SOL     OW10036   0.075   4.069   3.757
 3217SOL    HW110037  -0.017   4.041   3.728
 3217SOL    HW210038   0.106   4.146   3.701
 3218SOL     OW10039   0.072   3.890   4.042
 3218SOL    HW110040   0.055   3.973   3.988
 3218SOL    HW210041   0.162   3.853   4.020
 3219SOL     OW10042   1.225   4.049   4.173
 3219SOL    HW110043   1.290   3.975   4.162
 3219SOL    HW210044   1.245   4.099   4.257
 3220SOL     OW10045   1.777   4.066   5.366
 3220SOL    HW110046   1.760   4.097   5.272
 3220SOL    HW210047   1.693   4.029   5.404
 3221SOL     OW10048   1.824   3.916   4.951
 3221SOL    HW110049   1.820   3.826   4.995
 3221SOL    HW210050   1.827   3.905   4.852
 3222SOL     OW10051   1.424   3.938   4.836
 3222SOL    HW110052   1.476   3.873   4.891
 3222SOL    HW210053   1.375   4.001   4.897
 3223SOL     OW10054   1.001   3.758   4.878
 3223SOL    HW110055   0.938   3.686   4.847
 3223SOL    HW210056   1.094   3.722   4.878
 3224SOL     OW10057   1.352   3.776   3.892
 3224SOL    HW110058   1.387   3.735   3.808
 3224SOL    HW210059   1.262   3.738   3.912
 3225SOL     OW10060   1.300   4.177   4.415
 3225SOL    HW110061   1.241   4.257   4.419
 3225SOL    HW210062   1.315   4.142   4.508
 3226SOL     OW10063   1.593   3.945   4.606
 3226SOL    HW110064   1.509   3.944   4.660
 3226SOL    HW210065   1.595   4.028   4.550
 3227SOL     OW10066   0.225   3.999   6.582
 3227SOL    HW110067   0.260   3.982   6.674
 3227SOL    HW210068   0.137   3.954   6.570
 3228SOL     OW10069   0.019   4.092   6.233
 3228SOL    HW110070  -0.063   4.135   6.272
 3228SOL    HW210071  -0.009   4.019   6.170
 3229SOL     OW10072   1.755   4.331   5.817
 3229SOL    HW110073   1.743   4.318   5.718
 3229SOL    HW210074   1.725   4.250   5.866
 3230SOL     OW10075   0.438   4.116   7.085
 3230SOL    HW110076   0.520   4.060   7.094
 3230SOL    HW210077   0.357   4.058   7.089
 3231SOL     OW10078   1.594   3.838   7.066
 3231SOL    HW110079   1.576   3.905   6.994
 3231SOL    HW210080   1.591   3.884   7.155
 3232SOL     OW10081   0.809   3.728   6.088
 3232SOL    HW110082   0.849   3.819   6.079
 3232SOL    HW210083   0.709   3.736   6.094
 3233SOL     OW10084   1.281   4.069   6.530
 3233SOL    HW110085   1.195   4.019   6.517
 3233SOL    HW210086   1.343   4.015   6.586
 3234SOL     OW10087   0.550   3.920   6.471
 3234SOL    HW110088   0.545   3.915   6.571
 3234SOL    HW210089   0.552   4.016   6.442
 3235SOL     OW10090   0.202   4.009   7.084
 3235SOL    HW110091   0.122   4.069   7.071
 3235SOL    HW210092   0.192   3.960   7.170
 3236SOL     OW10093   1.400   3.831   6.012
 3236SOL    HW110094   1.376   3.794   5.922
 3236SOL    HW210095   1.499   3.847   6.016
 3237SOL     OW10096   1.547   3.946   7.315
 3237SOL    HW110097   1.542   3.983   7.407
 3237SOL    HW210098   1.475   3.877   7.303
 3238SOL     OW10099   0.614   3.846   5.703
 3238SOL    HW110100   0.712   3.824   5.710
 3238SOL    HW210101   0.583   3.829   5.610
 3239SOL     OW10102   0.781   3.988   7.335
 3239SOL    HW110103   0.848   3.927   7.378
 3239SOL    HW210104   0.708   4.007   7.400
 3240SOL     OW10105   0.539   3.788   6.098
 3240SOL    HW110106   0.458   3.789   6.156
 3240SOL    HW210107   0.542   3.871   6.043
 3241SOL     OW10108   0.297   3.759   5.757
 3241SOL    HW110109   0.346   3.843   5.736
 3241SOL    HW210110   0.359   3.694   5.802
 3242SOL     OW10111   0.561   3.946   6.733
 3242SOL    HW110112   0.599   3.862   6.770
 3242SOL    HW210113   0.473   3.965   6.777
 3243SOL     OW10114   1.017   3.763   6.339
 3243SOL    HW110115   0.945   3.768   6.270
 3243SOL    HW210116   0.993   3.694   6.408
 3244SOL     OW10117   0.915   3.813   6.988
 3244SOL    HW110118   0.940   3.793   6.893
 3244SOL    HW210119   0.987   3.869   7.030
 3245SOL     OW10120   1.274   4.110   6.848
 3245SOL    HW110121   1.295   4.184   6.912
 3245SOL    HW210122   1.185   4.127   6.805
 3246SOL     OW10123   0.504   3.774   7.326
 3246SOL    HW110124   0.462   3.717   7.256
 3246SOL    HW210125   0.438   3.843   7.358
 3247SOL     OW10126   0.307   3.937   6.817
 3247SOL    HW110127   0.284   3.974   6.907
 3247SOL    HW210128   0.277   3.842   6.811
 3248SOL     OW10129   1.540   3.998   5.711
 3248SOL    HW110130   1.479   3.923   5.734
 3248SOL    HW210131   1.562   4.050   5.794
 3249SOL     OW10132   1.160   3.931   7.063
 3249SOL    HW110133   1.160   3.995   7.140
 3249SOL    HW210134   1.188   3.979   6.980
 3250SOL     OW10135   0.903   3.810   5.719
 3250SOL    HW110136   0.954   3.811   5.633
 3250SOL    HW210137   0.959   3.768   5.790
 3251SOL     OW10138   1.726   3.859   6.109
 3251SOL    HW110139   1.799   3.842   6.042
 3251SOL    HW210140   1.695   3.772   6.147
 3252SOL     OW10141   1.841   3.899   6.549
 3252SOL    HW110142   1.880   3.814   6.513
 3252SOL    HW210143   1.743   3.901   6.530
 3253SOL     OW10144   0.672   3.927   7.075
 3253SOL    HW110145   0.762   3.911   7.035
 3253SOL    HW210146   0.680   3.932   7.174
 3254SOL     OW10147   0.075   4.069   5.619
 3254SOL    HW110148  -0.017   4.041   5.590
 3254SOL    HW210149   0.106   4.146   5.563
 3255SOL     OW10150   0.072   3.890   5.904
 3255SOL    HW110151   0.055   3.973   5.850
 3255SOL    HW210152   0.162   3.853   5.882
 3256SOL     OW10153   1.225   4.049   6.035
 3256SOL    HW110154   1.290   3.975   6.024
 3256SOL    HW210155   1.245   4.099   6.119
 3257SOL     OW10156   1.777   4.066   7.228
 3257SOL    HW110157   1.760   4.097   7.134
 3257SOL    HW210158   1.693   4.029   7.266
 3258SOL     OW10159   1.824   3.916   6.813
 3258SOL    HW110160   1.820   3.826   6.857
 3258SOL    HW210161   1.827   3.905   6.714
 3259SOL     OW10162   1.424   3.938   6.698
 3259SOL    HW110163   1.476   3.873   6.753
 3259SOL    HW210164   1.375   4.001   6.759
 3260SOL     OW10165   1.001   3.758   6.740
 3260SOL    HW110166   0.938   3.686   6.709
 3260SOL    HW210167   1.094   3.722   6.740
 3261SOL     OW10168   1.352   3.776   5.754
 3261SOL    HW110169   1.387   3.735   5.670
 3261SOL    HW210170   1.262   3.738   5.774
 3262SOL     OW10171   1.300   4.177   6.277
 3262SOL    HW110172   1.241   4.257   6.281
 3262SOL    HW210173   1.315   4.142   6.370
 3263SOL     OW10174   1.593   3.945   6.468
 3263SOL    HW110175   1.509   3.944   6.522
 3263SOL    HW210176   1.595   4.028   6.412
 3264SOL     OW10177   0.225   3.999   8.444
 3264SOL    HW110178   0.260   3.982   8.536
 3264SOL    HW210179   0.137   3.954   8.432
 3265SOL     OW10180   0.019   4.092   8.095
 3265SOL    HW110181  -0.063   4.135   8.134
 3265SOL    HW210182  -0.009   4.019   8.032
 3266SOL     OW10183   1.755   4.331   7.679
 3266SOL    HW110184   1.743   4.318   7.580
 3266SOL    HW210185   1.725   4.250   7.728
 3267SOL     OW10186   0.438   4.116   8.947
 3267SOL    HW110187   0.520   4.060   8.956
 3267SOL    HW210188   0.357   4.058   8.951
 3268SOL     OW10189   1.594   3.838   8.928
 3268SOL    HW110190   1.576   3.905   8.856
 3268SOL    HW210191   1.591   3.884   9.017
 3269SOL     OW10192   0.809   3.728   7.950
 3269SOL    HW110193   0.849   3.819   7.941
 3269SOL    HW210194   0.709   3.736   7.956
 3270SOL     OW10195   1.281   4.069   8.392
 3270SOL    HW110196   1.195   4.019   8.379
 3270SOL    HW210197   1.343   4.015   8.448
 3271SOL     OW10198   0.550   3.920   8.333
 3271SOL    HW110199   0.545   3.915   8.433
 3271SOL    HW210200   0.552   4.016   8.304
 3272SOL     OW10201   0.202   4.009   8.946
 3272SOL    HW110202   0.122   4.069   8.933
 3272SOL    HW210203   0.192   3.960   9.032
 3273SOL     OW10204   1.400   3.831   7.874
 3273SOL    HW110205   1.376   3.794   7.784
 3273SOL    HW210206   1.499   3.847   7.878
 3274SOL     OW10207   1.547   3.946   9.177
 3274SOL    HW110208   1.542   3.983   9.269
 3274SOL    HW210209   1.475   3.877   9.165
 3275SOL     OW10210   0.614   3.846   7.565
 3275SOL    HW110211   0.712   3.824   7.572
 3275SOL    HW210212   0.583   3.829   7.472
 3276SOL     OW10213   0.781   3.988   9.197
 3276SOL    HW110214   0.848   3.927   9.240
 3276SOL    HW210215   0.708   4.007   9.262
 3277SOL     OW10216   0.539   3.788   7.960
 3277SOL    HW110217   0.458   3.789   8.018
 3277SOL    HW210218   0.542   3.871   7.905
 3278SOL     OW10219   0.297   3.759   7.619
 3278SOL    HW110220   0.346   3.843   7.598
 3278SOL    HW210221   0.359   3.694   7.664
 3279SOL     OW10222   0.561   3.946   8.595
 3279SOL    HW110223   0.599   3.862   8.632
 3279SOL    HW210224   0.473   3.965   8.639
 3280SOL     OW10225   1.017   3.763   8.201
 3280SOL    HW110226   0.945   3.768   8.132
 3280SOL    HW210227   0.993   3.694   8.270
 3281SOL     OW10228   0.915   3.813   8.850
 3281SOL    HW110229   0.940   3.793   8.755
 3281SOL    HW210230   0.987   3.869   8.892
 3282SOL     OW10231   1.274   4.110   8.710
 3282SOL    HW110232   1.295   4.184   8.774
 3282SOL    HW210233   1.185   4.127   8.667
 3283SOL     OW10234   0.504   3.774   9.188
 3283SOL    HW110235   0.462   3.717   9.118
 3283SOL    HW210236   0.438   3.843   9.220
 3284SOL     OW10237   0.307   3.937   8.679
 3284SOL    HW110238   0.284   3.974   8.769
 3284SOL    HW210239   0.277   3.842   8.673
 3285SOL     OW10240   1.540   3.998   7.573
 3285SOL    HW110241   1.479   3.923   7.596
 3285SOL    HW210242   1.562   4.050   7.656
 3286SOL     OW10243   1.160   3.931   8.925
 3286SOL    HW110244   1.160   3.995   9.002
 3286SOL    HW210245   1.188   3.979   8.842
 3287SOL     OW10246   0.903   3.810   7.581
 3287SOL    HW110247   0.954   3.811   7.495
 3287SOL    HW210248   0.959   3.768   7.652
 3288SOL     OW10249   1.726   3.859   7.971
 3288SOL    HW110250   1.799   3.842   7.904
 3288SOL    HW210251   1.695   3.772   8.009
 3289SOL     OW10252   1.841   3.899   8.411
 3289SOL    HW110253   1.880   3.814   8.375
 3289SOL    HW210254   1.743   3.901   8.392
 3290SOL     OW10255   0.672   3.927   8.937
 3290SOL    HW110256   0.762   3.911   8.897
 3290SOL    HW210257   0.680   3.932   9.036
 3291SOL     OW10258   0.075   4.069   7.481
 3291SOL    HW110259  -0.017   4.041   7.452
 3291SOL    HW210260   0.106   4.146   7.425
 3292SOL     OW10261   0.072   3.890   7.766
 3292SOL    HW110262   0.055   3.973   7.712
 3292SOL    HW210263   0.162   3.853   7.744
 3293SOL     OW10264   1.225   4.049   7.897
 3293SOL    HW110265   1.290   3.975   7.886
 3293SOL    HW210266   1.245   4.099   7.981
 3294SOL     OW10267   1.777   4.066   9.090
 3294SOL    HW110268   1.760   4.097   8.996
 3294SOL    HW210269   1.693   4.029   9.128
 3295SOL     OW10270   1.824   3.916   8.675
 3295SOL    HW110271   1.820   3.826   8.719
 3295SOL    HW210272   1.827   3.905   8.576
 3296SOL     OW10273   1.424   3.938   8.560
 3296SOL    HW110274   1.476   3.873   8.615
 3296SOL    HW210275   1.375   4.001   8.621
 3297SOL     OW10276   1.001   3.758   8.602
 3297SOL    HW110277   0.938   3.686   8.571
 3297SOL    HW210278   1.094   3.722   8.602
 3298SOL     OW10279   1.352   3.776   7.616
 3298SOL    HW110280   1.387   3.735   7.532
 3298SOL    HW210281   1.262   3.738   7.636
 3299SOL     OW10282   1.300   4.177   8.139
 3299SOL    HW110283   1.241   4.257   8.143
 3299SOL    HW210284   1.315   4.142   8.232
 3300SOL     OW10285   1.593   3.945   8.330
 3300SOL    HW110286   1.509   3.944   8.384
 3300SOL    HW210287   1.595   4.028   8.274
 3301SOL     OW10288   0.225   3.999  10.306
 3301SOL    HW110289   0.260   3.982  10.398
 3301SOL    HW210290   0.137   3.954  10.294
 3302SOL     OW10291   0.019   4.092   9.957
 3302SOL    HW110292  -0.063   4.135   9.996
 3302SOL    HW210293  -0.009   4.019   9.894
 3303SOL     OW10294   1.755   4.331   9.541
 3303SOL    HW110295   1.743   4.318   9.442
 3303SOL    HW210296   1.725   4.250   9.590
 3304SOL     OW10297   0.438   4.116  10.809
 3304SOL    HW110298   0.520   4.060  10.818
 3304SOL    HW210299   0.357   4.058  10.813
 3305SOL     OW10300   1.594   3.838  10.790
 3305SOL    HW110301   1.576   3.905  10.718
 3305SOL    HW210302   1.591   3.884  10.879
 3306SOL     OW10303   0.809   3.728   9.812
 3306SOL    HW110304   0.849   3.819   9.803
 3306SOL    HW210305   0.709   3.736   9.818
 3307SOL     OW10306   1.281   4.069  10.254
 3307SOL    HW110307   1.195   4.019  10.241
 3307SOL    HW210308   1.343   4.015  10.310
 3308SOL     OW10309   0.550   3.920  10.195
 3308SOL    HW110310   0.545   3.915  10.295
 3308SOL    HW210311   0.552   4.016  10.166
 3309SOL     OW10312   0.202   4.009  10.808
 3309SOL    HW110313   0.122   4.069  10.795
 3309SOL    HW210314   0.192   3.960  10.894
 3310SOL     OW10315   1.400   3.831   9.736
 3310SOL    HW110316   1.376   3.794   9.646
 3310SOL    HW210317   1.499   3.847   9.740
 3311SOL     OW10318   1.547   3.946  11.039
 3311SOL    HW110319   1.542   3.983  11.131
 3311SOL    HW210320   1.475   3.877  11.027
 3312SOL     OW10321   0.614   3.846   9.427
 3312SOL    HW110322   0.712   3.824   9.434
 3312SOL    HW210323   0.583   3.829   9.334
 3313SOL     OW10324   0.781   3.988  11.059
 3313SOL    HW110325   0.848   3.927  11.102
 3313SOL    HW210326   0.708   4.007  11.124
 3314SOL     OW10327   0.539   3.788   9.822
 3314SOL    HW110328   0.458   3.789   9.880
 3314SOL    HW210329   0.542   3.871   9.767
 3315SOL     OW10330   0.297   3.759   9.481
 3315SOL    HW110331   0.346   3.843   9.460
 3315SOL    HW210332   0.359   3.694   9.526
 3316SOL     OW10333   0.561   3.946  10.457
 3316SOL    HW110334   0.599   3.862  10.494
 3316SOL    HW210335   0.473   3.965  10.501
 3317SOL     OW10336   1.017   3.763  10.063
 3317SOL    HW110337   0.945   3.768   9.994
 3317SOL    HW210338   0.993   3.694  10.132
 3318SOL     OW10339   0.915   3.813  10.712
 3318SOL    HW110340   0.940   3.793  10.617
 3318SOL    HW210341   0.987   3.869  10.754
 3319SOL     OW10342   1.274   4.110  10.572
 3319SOL    HW110343   1.295   4.184  10.636
 3319SOL    HW210344   1.185   4.127  10.529
 3320SOL     OW10345   0.504   3.774  11.050
 3320SOL    HW110346   0.462   3.717  10.980
 3320SOL    HW210347   0.438   3.843  11.082
 3321SOL     OW10348   0.307   3.937  10.541
 3321SOL    HW110349   0.284   3.974  10.631
 3321SOL    HW210350   0.277   3.842  10.535
 3322SOL     OW10351   1.540   3.998   9.435
 3322SOL    HW110352   1.479   3.923   9.458
 3322SOL    HW210353   1.562   4.050   9.518
 3323SOL     OW10354   1.160   3.931  10.787
 3323SOL    HW110355   1.160   3.995  10.864
 3323SOL    HW210356   1.188   3.979  10.704
 3324SOL     OW10357   0.903   3.810   9.443
 3324SOL    HW110358   0.954   3.811   9.357
 3324SOL    HW210359   0.959   3.768   9.514
 3325SOL     OW10360   1.726   3.859   9.833
 3325SOL    HW110361   1.799   3.842   9.766
 3325SOL    HW210362   1.695   3.772   9.871
 3326SOL     OW10363   1.841   3.899  10.273
 3326SOL    HW110364   1.880   3.814  10.237
 3326SOL    HW210365   1.743   3.901  10.254
 3327SOL     OW10366   0.672   3.927  10.799
 3327SOL    HW110367   0.762   3.911  10.759
 3327SOL    HW210368   0.680   3.932  10.898
 3328SOL     OW10369   0.075   4.069   9.343
 3328SOL    HW110370  -0.017   4.041   9.314
 3328SOL    HW210371   0.106   4.146   9.287
 3329SOL     OW10372   0.072   3.890   9.628
 3329SOL    HW110373   0.055   3.973   9.574
 3329SOL    HW210374   0.162   3.853   9.606
 3330SOL     OW10375   1.225   4.049   9.759
 3330SOL    HW110376   1.290   3.975   9.748
 3330SOL    HW210377   1.245   4.099   9.843
 3331SOL     OW10378   1.777   4.066  10.952
 3331SOL    HW110379   1.760   4.097  10.858
 3331SOL    HW210380   1.693   4.029  10.990
 3332SOL     OW10381   1.824   3.916  10.537
 3332SOL    HW110382   1.820   3.826  10.581
 3332SOL    HW210383   1.827   3.905  10.438
 3333SOL     OW10384   1.424   3.938  10.422
 3333SOL    HW110385   1.476   3.873  10.477
 3333SOL    HW210386   1.375   4.001  10.483
 3334SOL     OW10387   1.001   3.758  10.464
 3334SOL    HW110388   0.938   3.686  10.433
 3334SOL    HW210389   1.094   3.722  10.464
 3335SOL     OW10390   1.352   3.776   9.478
 3335SOL    HW110391   1.387   3.735   9.394
 3335SOL    HW210392   1.262   3.738   9.498
 3336SOL     OW10393   1.300   4.177  10.001
 3336SOL    HW110394   1.241   4.257  10.005
 3336SOL    HW210395   1.315   4.142  10.094
 3337SOL     OW10396   1.593   3.945  10.192
 3337SOL    HW110397   1.509   3.944  10.246
 3337SOL    HW210398   1.595   4.028  10.136
 3338SOL     OW10399   0.225   3.999  12.168
 3338SOL    HW110400   0.260   3.982  12.260
 3338SOL    HW210401   0.137   3.954  12.156
 3339SOL     OW10402   0.019   4.092  11.819
 3339SOL    HW110403  -0.063   4.135  11.858
 3339SOL    HW210404  -0.009   4.019  11.756
 3340SOL     OW10405   1.755   4.331  11.403
 3340SOL    HW110406   1.743   4.318  11.304
 3340SOL    HW210407   1.725   4.250  11.452
 3341SOL     OW10408   0.438   4.116  12.671
 3341SOL    HW110409   0.520   4.060  12.680
 3341SOL    HW210410   0.357   4.058  12.675
 3342SOL     OW10411   1.594   3.838  12.652
 3342SOL    HW110412   1.576   3.905  12.580
 3342SOL    HW210413   1.591   3.884  12.741
 3343SOL     OW10414   0.809   3.728  11.674
 3343SOL    HW110415   0.849   3.819  11.665
 3343SOL    HW210416   0.709   3.736  11.680
 3344SOL     OW10417   1.281   4.069  12.116
 3344SOL    HW110418   1.195   4.019  12.103
 3344SOL    HW210419   1.343   4.015  12.172
 3345SOL     OW10420   0.550   3.920  12.057
 3345SOL    HW110421   0.545   3.915  12.157
 3345SOL    HW210422   0.552   4.016  12.028
 3346SOL     OW10423   0.202   4.009  12.670
 3346SOL    HW110424   0.122   4.069  12.657
 3346SOL    HW210425   0.192   3.960  12.756
 3347SOL     OW10426   1.400   3.831  11.598
 3347SOL    HW110427   1.376   3.794  11.508
 3347SOL    HW210428   1.499   3.847  11.602
 3348SOL     OW10429   1.547   3.946  12.901
 3348SOL    HW110430   1.542   3.983  12.993
 3348SOL    HW210431   1.475   3.877  12.889
 3349SOL     OW10432   0.614   3.846  11.289
 3349SOL    HW110433   0.712   3.824  11.296
 3349SOL    HW210434   0.583   3.829  11.196
 3350SOL     OW10435   0.781   3.988  12.921
 3350SOL    HW110436   0.848   3.927  12.964
 3350SOL    HW210437   0.708   4.007  12.986
 3351SOL     OW10438   0.539   3.788  11.684
 3351SOL    HW110439   0.458   3.789  11.742
 3351SOL    HW210440   0.542   3.871  11.629
 3352SOL     OW10441   0.297   3.759  11.343
 3352SOL    HW110442   0.346   3.843  11.322
 3352SOL    HW210443   0.359   3.694  11.388
 3353SOL     OW10444   0.561   3.946  12.319
 3353SOL    HW110445   0.599   3.862  12.356
 3353SOL    HW210446   0.473   3.965  12.363
 3354SOL     OW10447   1.017   3.763  11.925
 3354SOL    HW110448   0.945   3.768  11.856
 3354SOL    HW210449   0.993   3.694  11.994
 3355SOL     OW10450   0.915   3.813  12.574
 3355SOL    HW110451   0.940   3.793  12.479
 3355SOL    HW210452   0.987   3.869  12.616
 3356SOL     OW10453   1.274   4.110  12.434
 3356SOL    HW110454   1.295   4.184  12.498
 3356SOL    HW210455   1.185   4.127  12.391
 3357SOL     OW10456   0.504   3.774  12.912
 3357SOL    HW110457   0.462   3.717  12.842
 3357SOL    HW210458   0.438   3.843  12.944
 3358SOL     OW10459   0.307   3.937  12.403
 3358SOL    HW110460   0.284   3.974  12.493
 3358SOL    HW210461   0.277   3.842  12.397
 3359SOL     OW10462   1.540   3.998  11.297
 3359SOL    HW110463   1.479   3.923  11.320
 3359SOL    HW210464   1.562   4.050  11.380
 3360SOL     OW10465   1.160   3.931  12.649
 3360SOL    HW110466   1.160   3.995  12.726
 3360SOL    HW210467   1.188   3.979  12.566
 3361SOL     OW10468   0.903   3.810  11.305
 3361SOL    HW110469   0.954   3.811  11.219
 3361SOL    HW210470   0.959   3.768  11.376
 3362SOL     OW10471   1.726   3.859  11.695
 3362SOL    HW110472   1.799   3.842  11.628
 3362SOL    HW210473   1.695   3.772  11.733
 3363SOL     OW10474   1.841   3.899  12.135
 3363SOL    HW110475   1.880   3.814  12.099
 3363SOL    HW210476   1.743   3.901  12.116
 3364SOL     OW10477   0.672   3.927  12.661
 3364SOL    HW110478   0.762   3.911  12.621
 3364SOL    HW210479   0.680   3.932  12.760
 3365SOL     OW10480   0.075   4.069  11.205
 3365SOL    HW110481  -0.017   4.041  11.176
 3365SOL    HW210482   0.106   4.146  11.149
 3366SOL     OW10483   0.072   3.890  11.490
 3366SOL    HW110484   0.055   3.973  11.436
 3366SOL    HW210485   0.162   3.853  11.468
 3367SOL     OW10486   1.225   4.049  11.621
 3367SOL    HW110487   1.290   3.975  11.610
 3367SOL    HW210488   1.245   4.099  11.705
 3368SOL     OW10489   1.777   4.066  12.814
 3368SOL    HW110490   1.760   4.097  12.720
 3368SOL    HW210491   1.693   4.029  12.852
 3369SOL     OW10492   1.824   3.916  12.399
 3369SOL    HW110493   1.820   3.826  12.443
 3369SOL    HW210494   1.827   3.905  12.300
 3370SOL     OW10495   1.424   3.938  12.284
 3370SOL    HW110496   1.476   3.873  12.339
 3370SOL    HW210497   1.375   4.001  12.345
 3371SOL     OW10498   1.001   3.758  12.326
 3371SOL    HW110499   0.938   3.686  12.295
 3371SOL    HW210500   1.094   3.722  12.326
 3372SOL     OW10501   1.352   3.776  11.340
 3372SOL    HW110502   1.387   3.735  11.256
 3372SOL    HW210503   1.262   3.738  11.360
 3373SOL     OW10504   1.300   4.177  11.863
 3373SOL    HW110505   1.241   4.257  11.867
 3373SOL    HW210506   1.315   4.142  11.956
 3374SOL     OW10507   1.593   3.945  12.054
 3374SOL    HW110508   1.509   3.944  12.108
 3374SOL    HW210509   1.595   4.028  11.998
 3375SOL     OW10510   0.019   4.092  13.681
 3375SOL    HW110511  -0.063   4.135  13.720
 3375SOL    HW210512  -0.009   4.019  13.618
 3376SOL     OW10513   1.755   4.331  13.265
 3376SOL    HW110514   1.743   4.318  13.166
 3376SOL    HW210515   1.725   4.250  13.314
 3377SOL     OW10516   1.603   4.171  13.771
 3377SOL    HW110517   1.529   4.217  13.721
 3377SOL    HW210518   1.654   4.239  13.824
 3378SOL     OW10519   0.809   3.728  13.536
 3378SOL    HW110520   0.849   3.819  13.527
 3378SOL    HW210521   0.709   3.736  13.542
 3379SOL     OW10522   1.400   3.831  13.460
 3379SOL    HW110523   1.376   3.794  13.370
 3379SOL    HW210524   1.499   3.847  13.464
 3380SOL     OW10525   0.614   3.846  13.151
 3380SOL    HW110526   0.712   3.824  13.158
 3380SOL    HW210527   0.583   3.829  13.058
 3381SOL     OW10528   0.539   3.788  13.546
 3381SOL    HW110529   0.458   3.789  13.604
 3381SOL    HW210530   0.542   3.871  13.491
 3382SOL     OW10531   0.297   3.759  13.205
 3382SOL    HW110532   0.346   3.843  13.184
 3382SOL    HW210533   0.359   3.694  13.250
 3383SOL     OW10534   1.017   3.763  13.787
 3383SOL    HW110535   0.945   3.768  13.718
 3383SOL    HW210536   0.993   3.694  13.856
 3384SOL     OW10537   1.540   3.998  13.159
 3384SOL    HW110538   1.479   3.923  13.182
 3384SOL    HW210539   1.562   4.050  13.242
 3385SOL     OW10540   0.903   3.810  13.167
 3385SOL    HW110541   0.954   3.811  13.081
 3385SOL    HW210542   0.959   3.768  13.238
 3386SOL     OW10543   1.726   3.859  13.557
 3386SOL    HW110544   1.799   3.842  13.490
 3386SOL    HW210545   1.695   3.772  13.595
 3387SOL     OW10546   1.841   3.899  13.997
 3387SOL    HW110547   1.880   3.814  13.961
 3387SOL    HW210548   1.743   3.901  13.978
 3388SOL     OW10549   0.075   4.069  13.067
 3388SOL    HW110550  -0.017   4.041  13.038
 3388SOL    HW210551   0.106   4.146  13.011
 3389SOL     OW10552   0.072   3.890  13.352
 3389SOL    HW110553   0.055   3.973  13.298
 3389SOL    HW210554   0.162   3.853  13.330
 3390SOL     OW10555   1.225   4.049  13.483
 3390SOL    HW110556   1.290   3.975  13.472
 3390SOL    HW210557   1.245   4.099  13.567
 3391SOL     OW10558   1.352   3.776  13.202
 3391SOL    HW110559   1.387   3.735  13.118
 3391SOL    HW210560   1.262   3.738  13.222
 3392SOL     OW10561   1.300   4.177  13.725
 3392SOL    HW110562   1.241   4.257  13.729
 3392SOL    HW210563   1.315   4.142  13.818
 3393SOL     OW10564   2.092   0.628   0.113
 3393SOL    HW110565   1.999   0.626   0.150
 3393SOL    HW210566   2.093   0.589   0.021
 3394SOL     OW10567   2.087   0.275   0.996
 3394SOL    HW110568   2.122   0.258   1.088
 3394SOL    HW210569   1.999   0.230   0.984
 3395SOL     OW10570   1.881   0.368   0.647
 3395SOL    HW110571   1.799   0.411   0.686
 3395SOL    HW210572   1.853   0.295   0.584
 3396SOL     OW10573   2.431   1.275   1.165
 3396SOL    HW110574   2.338   1.268   1.128
 3396SOL    HW210575   2.442   1.364   1.209
 3397SOL     OW10576   3.417   1.511   0.703
 3397SOL    HW110577   3.360   1.495   0.784
 3397SOL    HW210578   3.358   1.521   0.623
 3398SOL     OW10579   2.997   0.703   0.717
 3398SOL    HW110580   3.054   0.781   0.692
 3398SOL    HW210581   2.937   0.729   0.793
 3399SOL     OW10582   3.617   0.607   0.231
 3399SOL    HW110583   3.605   0.594   0.132
 3399SOL    HW210584   3.587   0.526   0.280
 3400SOL     OW10585   2.630   1.144   1.023
 3400SOL    HW110586   2.552   1.161   1.083
 3400SOL    HW210587   2.664   1.231   0.987
 3401SOL     OW10588   2.712   0.798   1.823
 3401SOL    HW110589   2.708   0.874   1.888
 3401SOL    HW210590   2.734   0.834   1.732
 3402SOL     OW10591   2.547   1.012   0.665
 3402SOL    HW110592   2.616   0.996   0.735
 3402SOL    HW210593   2.474   1.069   0.703
 3403SOL     OW10594   2.548   1.161   1.803
 3403SOL    HW110595   2.608   1.240   1.817
 3403SOL    HW210596   2.462   1.192   1.762
 3404SOL     OW10597   2.197   1.435   1.061
 3404SOL    HW110598   2.119   1.404   1.008
 3404SOL    HW210599   2.255   1.493   1.004
 3405SOL     OW10600   3.322   1.505   1.339
 3405SOL    HW110601   3.346   1.599   1.365
 3405SOL    HW210602   3.306   1.451   1.421
 3406SOL     OW10603   2.300   0.392   1.499
 3406SOL    HW110604   2.382   0.336   1.508
 3406SOL    HW210605   2.219   0.334   1.503
 3407SOL     OW10606   3.465   0.447   0.737
 3407SOL    HW110607   3.391   0.493   0.687
 3407SOL    HW210608   3.516   0.515   0.790
 3408SOL     OW10609   2.093   1.713   0.483
 3408SOL    HW110610   2.127   1.790   0.537
 3408SOL    HW210611   2.137   1.713   0.393
 3409SOL     OW10612   2.989   1.341   1.690
 3409SOL    HW110613   3.036   1.341   1.778
 3409SOL    HW210614   2.941   1.254   1.679
 3410SOL     OW10615   2.092   1.434   0.538
 3410SOL    HW110616   2.066   1.530   0.538
 3410SOL    HW210617   2.021   1.380   0.583
 3411SOL     OW10618   2.102   1.091   0.886
 3411SOL    HW110619   2.116   1.007   0.938
 3411SOL    HW210620   2.047   1.155   0.941
 3412SOL     OW10621   2.482   1.786   1.439
 3412SOL    HW110622   2.390   1.769   1.474
 3412SOL    HW210623   2.510   1.878   1.465
 3413SOL     OW10624   2.468   0.964   0.123
 3413SOL    HW110625   2.475   1.048   0.069
 3413SOL    HW210626   2.514   0.977   0.211
 3414SOL     OW10627   3.456   0.114   1.480
 3414SOL    HW110628   3.438   0.181   1.408
 3414SOL    HW210629   3.453   0.160   1.569
 3415SOL     OW10630   1.984   0.643   0.563
 3415SOL    HW110631   1.939   0.555   0.580
 3415SOL    HW210632   1.983   0.697   0.647
 3416SOL     OW10633   3.704   1.767   0.359
 3416SOL    HW110634   3.758   1.738   0.439
 3416SOL    HW210635   3.734   1.857   0.330
 3417SOL     OW10636   1.889   1.596   0.117
 3417SOL    HW110637   1.870   1.500   0.138
 3417SOL    HW210638   1.856   1.654   0.192
 3418SOL     OW10639   3.551   0.922   0.612
 3418SOL    HW110640   3.646   0.893   0.620
 3418SOL    HW210641   3.543   0.987   0.537
 3419SOL     OW10642   3.503   1.108   0.432
 3419SOL    HW110643   3.589   1.110   0.380
 3419SOL    HW210644   3.517   1.155   0.520
 3420SOL     OW10645   1.975   0.737   1.597
 3420SOL    HW110646   2.063   0.724   1.642
 3420SOL    HW210647   1.962   0.834   1.575
 3421SOL     OW10648   2.475   1.365   0.726
 3421SOL    HW110649   2.426   1.278   0.735
 3421SOL    HW210650   2.452   1.408   0.639
 3422SOL     OW10651   3.155   1.228   1.423
 3422SOL    HW110652   3.192   1.155   1.365
 3422SOL    HW210653   3.207   1.233   1.508
 3423SOL     OW10654   2.671   0.004   0.502
 3423SOL    HW110655   2.711   0.095   0.493
 3423SOL    HW210656   2.571   0.012   0.508
 3424SOL     OW10657   2.059   0.976   1.264
 3424SOL    HW110658   2.148   0.931   1.250
 3424SOL    HW210659   1.986   0.911   1.245
 3425SOL     OW10660   3.387   0.999   0.190
 3425SOL    HW110661   3.324   0.923   0.203
 3425SOL    HW210662   3.435   1.017   0.276
 3426SOL     OW10663   3.049   1.792   1.616
 3426SOL    HW110664   3.073   1.852   1.540
 3426SOL    HW210665   3.056   1.697   1.586
 3427SOL     OW10666   2.179   0.251   1.801
 3427SOL    HW110667   2.250   0.322   1.807
 3427SOL    HW210668   2.091   0.290   1.829
 3428SOL     OW10669   3.328   1.417   0.953
 3428SOL    HW110670   3.269   1.423   1.033
 3428SOL    HW210671   3.313   1.329   0.907
 3429SOL     OW10672   3.529   1.714   0.572
 3429SOL    HW110673   3.488   1.691   0.484
 3429SOL    HW210674   3.511   1.640   0.637
 3430SOL     OW10675   2.460   0.729   0.270
 3430SOL    HW110676   2.484   0.798   0.202
 3430SOL    HW210677   2.382   0.762   0.324
 3431SOL     OW10678   3.143   0.345   0.944
 3431SOL    HW110679   3.057   0.295   0.931
 3431SOL    HW210680   3.205   0.291   1.000
 3432SOL     OW10681   3.438   1.662   0.307
 3432SOL    HW110682   3.527   1.708   0.310
 3432SOL    HW210683   3.417   1.638   0.212
 3433SOL     OW10684   2.669   0.605   1.465
 3433SOL    HW110685   2.622   0.602   1.554
 3433SOL    HW210686   2.618   0.550   1.399
 3434SOL     OW10687   3.256   0.469   1.674
 3434SOL    HW110688   3.236   0.512   1.762
 3434SOL    HW210689   3.334   0.407   1.683
 3435SOL     OW10690   2.835   0.890   1.572
 3435SOL    HW110691   2.881   0.806   1.543
 3435SOL    HW210692   2.779   0.924   1.497
 3436SOL     OW10693   2.853   0.410   1.242
 3436SOL    HW110694   2.776   0.444   1.296
 3436SOL    HW210695   2.819   0.359   1.163
 3437SOL     OW10696   2.903   0.701   0.429
 3437SOL    HW110697   2.929   0.697   0.525
 3437SOL    HW210698   2.818   0.650   0.415
 3438SOL     OW10699   1.938   0.811   0.789
 3438SOL    HW110700   2.037   0.799   0.798
 3438SOL    HW210701   1.914   0.906   0.810
 3439SOL     OW10702   2.727   0.348   0.195
 3439SOL    HW110703   2.786   0.411   0.146
 3439SOL    HW210704   2.746   0.254   0.166
 3440SOL     OW10705   3.581   0.585   1.831
 3440SOL    HW110706   3.555   0.674   1.795
 3440SOL    HW210707   3.579   0.517   1.758
 3441SOL     OW10708   3.224   1.144   0.545
 3441SOL    HW110709   3.307   1.115   0.497
 3441SOL    HW210710   3.175   1.211   0.489
 3442SOL     OW10711   2.412   0.196   0.885
 3442SOL    HW110712   2.407   0.191   0.985
 3442SOL    HW210713   2.414   0.292   0.856
 3443SOL     OW10714   2.870   1.456   0.477
 3443SOL    HW110715   2.824   1.528   0.425
 3443SOL    HW210716   2.866   1.476   0.575
 3444SOL     OW10717   2.213   1.801   0.853
 3444SOL    HW110718   2.263   1.715   0.859
 3444SOL    HW210719   2.278   1.878   0.850
 3445SOL     OW10720   3.657   1.066   0.873
 3445SOL    HW110721   3.595   1.051   0.797
 3445SOL    HW210722   3.605   1.077   0.958
 3446SOL     OW10723   3.089   1.550   1.506
 3446SOL    HW110724   3.095   1.473   1.570
 3446SOL    HW210725   3.037   1.524   1.426
 3447SOL     OW10726   2.183   0.943   0.242
 3447SOL    HW110727   2.265   0.982   0.200
 3447SOL    HW210728   2.156   0.861   0.193
 3448SOL     OW10729   3.320   0.735   0.728
 3448SOL    HW110730   3.315   0.670   0.803
 3448SOL    HW210731   3.400   0.794   0.741
 3449SOL     OW10732   2.323   1.266   1.727
 3449SOL    HW110733   2.273   1.267   1.641
 3449SOL    HW210734   2.260   1.248   1.803
 3450SOL     OW10735   2.973   1.776   0.237
 3450SOL    HW110736   2.913   1.714   0.287
 3450SOL    HW210737   3.004   1.732   0.152
 3451SOL     OW10738   2.064   0.285   1.498
 3451SOL    HW110739   1.984   0.345   1.485
 3451SOL    HW210740   2.054   0.236   1.584
 3452SOL     OW10741   3.494   1.377   0.081
 3452SOL    HW110742   3.462   1.471   0.071
 3452SOL    HW210743   3.418   1.314   0.069
 3453SOL     OW10744   2.326   1.743   0.323
 3453SOL    HW110745   2.359   1.782   0.409
 3453SOL    HW210746   2.402   1.736   0.258
 3454SOL     OW10747   3.262   0.107   0.426
 3454SOL    HW110748   3.238   0.070   0.336
 3454SOL    HW210749   3.361   0.123   0.430
 3455SOL     OW10750   2.111   1.785   1.241
 3455SOL    HW110751   2.168   1.720   1.291
 3455SOL    HW210752   2.095   1.752   1.148
 3456SOL     OW10753   2.802   1.698   0.904
 3456SOL    HW110754   2.882   1.641   0.925
 3456SOL    HW210755   2.753   1.658   0.827
 3457SOL     OW10756   2.244   0.700   0.480
 3457SOL    HW110757   2.289   0.610   0.477
 3457SOL    HW210758   2.150   0.689   0.513
 3458SOL     OW10759   3.409   0.222   1.729
 3458SOL    HW110760   3.404   0.259   1.821
 3458SOL    HW210761   3.337   0.153   1.717
 3459SOL     OW10762   2.476   0.122   0.117
 3459SOL    HW110763   2.574   0.100   0.124
 3459SOL    HW210764   2.445   0.105   0.024
 3460SOL     OW10765   2.643   0.264   1.749
 3460SOL    HW110766   2.710   0.203   1.792
 3460SOL    HW210767   2.570   0.283   1.814
 3461SOL     OW10768   2.750   1.514   1.195
 3461SOL    HW110769   2.727   1.489   1.101
 3461SOL    HW210770   2.811   1.445   1.234
 3462SOL     OW10771   3.213   0.590   1.433
 3462SOL    HW110772   3.241   0.547   1.518
 3462SOL    HW210773   3.238   0.686   1.434
 3463SOL     OW10774   2.665   1.402   0.924
 3463SOL    HW110775   2.755   1.416   0.882
 3463SOL    HW210776   2.594   1.404   0.853
 3464SOL     OW10777   2.784   0.503   0.899
 3464SOL    HW110778   2.759   0.494   0.803
 3464SOL    HW210779   2.832   0.421   0.930
 3465SOL     OW10780   2.401   0.064   0.512
 3465SOL    HW110781   2.320   0.065   0.570
 3465SOL    HW210782   2.404   0.147   0.457
 3466SOL     OW10783   3.296   1.188   0.041
 3466SOL    HW110784   3.328   1.112   0.098
 3466SOL    HW210785   3.204   1.215   0.071
 3467SOL     OW10786   2.159   0.035   0.171
 3467SOL    HW110787   2.208   0.119   0.150
 3467SOL    HW210788   2.221  -0.030   0.216
 3468SOL     OW10789   2.797   0.236   0.480
 3468SOL    HW110790   2.749   0.277   0.402
 3468SOL    HW210791   2.896   0.234   0.461
 3469SOL     OW10792   2.938   0.683   1.464
 3469SOL    HW110793   2.858   0.622   1.467
 3469SOL    HW210794   3.019   0.630   1.440
 3470SOL     OW10795   3.089   1.570   0.793
 3470SOL    HW110796   3.110   1.644   0.728
 3470SOL    HW210797   3.157   1.570   0.866
 3471SOL     OW10798   2.321   1.152   0.741
 3471SOL    HW110799   2.250   1.125   0.806
 3471SOL    HW210800   2.295   1.124   0.648
 3472SOL     OW10801   3.133   1.797   0.591
 3472SOL    HW110802   3.177   1.861   0.527
 3472SOL    HW210803   3.083   1.849   0.661
 3473SOL     OW10804   2.894   0.549   0.016
 3473SOL    HW110805   2.853   0.631  -0.023
 3473SOL    HW210806   2.958   0.575   0.089
 3474SOL     OW10807   1.940   0.556   1.386
 3474SOL    HW110808   2.032   0.555   1.345
 3474SOL    HW210809   1.934   0.630   1.453
 3475SOL     OW10810   2.423   0.222   1.147
 3475SOL    HW110811   2.461   0.138   1.184
 3475SOL    HW210812   2.335   0.241   1.191
 3476SOL     OW10813   2.728   0.454   0.642
 3476SOL    HW110814   2.696   0.526   0.580
 3476SOL    HW210815   2.752   0.373   0.589
 3477SOL     OW10816   2.879   0.039   0.753
 3477SOL    HW110817   2.807   0.044   0.684
 3477SOL    HW210818   2.855  -0.030   0.822
 3478SOL     OW10819   3.291   1.173   0.867
 3478SOL    HW110820   3.236   1.089   0.860
 3478SOL    HW210821   3.317   1.202   0.775
 3479SOL     OW10822   3.328   0.590   0.992
 3479SOL    HW110823   3.298   0.495   0.999
 3479SOL    HW210824   3.401   0.606   1.058
 3480SOL     OW10825   3.719   0.833   0.377
 3480SOL    HW110826   3.761   0.769   0.441
 3480SOL    HW210827   3.681   0.782   0.299
 3481SOL     OW10828   2.350   1.385   0.174
 3481SOL    HW110829   2.263   1.370   0.221
 3481SOL    HW210830   2.333   1.411   0.079
 3482SOL     OW10831   3.526   1.280   0.657
 3482SOL    HW110832   3.625   1.288   0.671
 3482SOL    HW210833   3.481   1.364   0.688
 3483SOL     OW10834   3.252   0.575   0.078
 3483SOL    HW110835   3.198   0.554   0.159
 3483SOL    HW210836   3.343   0.534   0.087
 3484SOL     OW10837   2.389   0.256   0.328
 3484SOL    HW110838   2.416   0.197   0.253
 3484SOL    HW210839   2.389   0.351   0.297
 3485SOL     OW10840   3.616   1.223   1.588
 3485SOL    HW110841   3.707   1.184   1.575
 3485SOL    HW210842   3.624   1.319   1.612
 3486SOL     OW10843   2.926   1.347   1.340
 3486SOL    HW110844   2.846   1.324   1.395
 3486SOL    HW210845   3.009   1.321   1.389
 3487SOL     OW10846   3.454   1.629   1.625
 3487SOL    HW110847   3.481   1.663   1.535
 3487SOL    HW210848   3.533   1.591   1.671
 3488SOL     OW10849   2.973   1.195   1.100
 3488SOL    HW110850   2.933   1.239   1.181
 3488SOL    HW210851   2.932   1.232   1.017
 3489SOL     OW10852   3.500   1.099   1.079
 3489SOL    HW110853   3.505   1.180   1.138
 3489SOL    HW210854   3.414   1.101   1.028
 3490SOL     OW10855   2.777   0.089   1.402
 3490SOL    HW110856   2.802   0.069   1.307
 3490SOL    HW210857   2.849   0.145   1.444
 3491SOL     OW10858   2.842   1.116   1.719
 3491SOL    HW110859   2.743   1.122   1.729
 3491SOL    HW210860   2.865   1.036   1.663
 3492SOL     OW10861   2.567   1.050   0.368
 3492SOL    HW110862   2.553   1.057   0.467
 3492SOL    HW210863   2.651   0.999   0.350
 3493SOL     OW10864   2.272   0.813   1.251
 3493SOL    HW110865   2.358   0.825   1.301
 3493SOL    HW210866   2.230   0.726   1.278
 3494SOL     OW10867   3.136   0.386   1.262
 3494SOL    HW110868   3.157   0.460   1.326
 3494SOL    HW210869   3.047   0.403   1.219
 3495SOL     OW10870   1.926   1.564   1.331
 3495SOL    HW110871   1.880   1.646   1.297
 3495SOL    HW210872   2.024   1.583   1.340
 3496SOL     OW10873   2.229   1.100   0.501
 3496SOL    HW110874   2.222   1.183   0.445
 3496SOL    HW210875   2.233   1.020   0.441
 3497SOL     OW10876   2.428   0.537   0.865
 3497SOL    HW110877   2.440   0.603   0.791
 3497SOL    HW210878   2.474   0.571   0.948
 3498SOL     OW10879   3.114   1.348   0.388
 3498SOL    HW110880   3.164   1.425   0.428
 3498SOL    HW210881   3.019   1.350   0.420
 3499SOL     OW10882   3.134   1.445   1.142
 3499SOL    HW110883   3.181   1.458   1.229
 3499SOL    HW210884   3.068   1.371   1.151
 3500SOL     OW10885   3.444   0.639   0.472
 3500SOL    HW110886   3.413   0.700   0.545
 3500SOL    HW210887   3.494   0.691   0.403
 3501SOL     OW10888   2.216   1.510   1.329
 3501SOL    HW110889   2.195   1.466   1.242
 3501SOL    HW210890   2.313   1.536   1.332
 3502SOL     OW10891   2.264   0.751   1.598
 3502SOL    HW110892   2.332   0.806   1.551
 3502SOL    HW210893   2.304   0.663   1.625
 3503SOL     OW10894   3.449   0.779   1.670
 3503SOL    HW110895   3.357   0.817   1.665
 3503SOL    HW210896   3.509   0.826   1.605
 3504SOL     OW10897   2.875   0.105   1.770
 3504SOL    HW110898   2.881   0.190   1.718
 3504SOL    HW210899   2.907   0.029   1.713
 3505SOL     OW10900   2.366   0.050   1.740
 3505SOL    HW110901   2.324  -0.007   1.670
 3505SOL    HW210902   2.300   0.119   1.772
 3506SOL     OW10903   2.435   0.870   1.029
 3506SOL    HW110904   2.479   0.959   1.020
 3506SOL    HW210905   2.372   0.870   1.106
 3507SOL     OW10906   3.222   0.862   1.045
 3507SOL    HW110907   3.147   0.862   0.979
 3507SOL    HW210908   3.259   0.770   1.054
 3508SOL     OW10909   3.071   0.525   0.275
 3508SOL    HW110910   3.084   0.441   0.329
 3508SOL    HW210911   3.042   0.599   0.335
 3509SOL     OW10912   2.169   0.213   1.231
 3509SOL    HW110913   2.146   0.250   1.321
 3509SOL    HW210914   2.139   0.118   1.225
 3510SOL     OW10915   1.899   1.310   1.282
 3510SOL    HW110916   1.952   1.261   1.350
 3510SOL    HW210917   1.921   1.408   1.287
 3511SOL     OW10918   2.594   0.634   1.064
 3511SOL    HW110919   2.653   0.608   0.988
 3511SOL    HW210920   2.566   0.730   1.053
 3512SOL     OW10921   3.590   0.935   1.854
 3512SOL    HW110922   3.544   0.928   1.765
 3512SOL    HW210923   3.528   0.979   1.920
 3513SOL     OW10924   2.169   0.063   0.618
 3513SOL    HW110925   2.158   0.157   0.651
 3513SOL    HW210926   2.164   0.000   0.695
 3514SOL     OW10927   3.484   0.367   0.374
 3514SOL    HW110928   3.486   0.291   0.438
 3514SOL    HW210929   3.436   0.444   0.414
 3515SOL     OW10930   2.885   0.766   0.966
 3515SOL    HW110931   2.900   0.787   1.062
 3515SOL    HW210932   2.855   0.671   0.957
 3516SOL     OW10933   2.842   1.573   1.700
 3516SOL    HW110934   2.822   1.617   1.612
 3516SOL    HW210935   2.881   1.482   1.684
 3517SOL     OW10936   3.721   1.518   1.605
 3517SOL    HW110937   3.735   1.545   1.510
 3517SOL    HW210938   3.804   1.540   1.658
 3518SOL     OW10939   2.212   0.898   1.804
 3518SOL    HW110940   2.288   0.942   1.852
 3518SOL    HW210941   2.247   0.851   1.722
 3519SOL     OW10942   3.402   0.274   0.125
 3519SOL    HW110943   3.341   0.199   0.148
 3519SOL    HW210944   3.424   0.326   0.208
 3520SOL     OW10945   3.165   0.838   0.042
 3520SOL    HW110946   3.199   0.745   0.057
 3520SOL    HW210947   3.183   0.865  -0.053
 3521SOL     OW10948   2.930   1.333   0.849
 3521SOL    HW110949   2.937   1.249   0.794
 3521SOL    HW210950   2.992   1.402   0.813
 3522SOL     OW10951   2.181   0.810   0.949
 3522SOL    HW110952   2.274   0.846   0.954
 3522SOL    HW210953   2.175   0.725   1.001
 3523SOL     OW10954   2.201   0.509   1.006
 3523SOL    HW110955   2.149   0.426   0.989
 3523SOL    HW210956   2.278   0.514   0.942
 3524SOL     OW10957   3.000   0.380   1.678
 3524SOL    HW110958   2.955   0.443   1.742
 3524SOL    HW210959   3.093   0.411   1.661
 3525SOL     OW10960   3.022   0.207   1.477
 3525SOL    HW110961   3.022   0.271   1.554
 3525SOL    HW210962   3.050   0.255   1.394
 3526SOL     OW10963   1.870   1.326   0.200
 3526SOL    HW110964   1.777   1.347   0.169
 3526SOL    HW210965   1.880   1.227   0.213
 3527SOL     OW10966   1.950   1.801   0.927
 3527SOL    HW110967   1.908   1.715   0.900
 3527SOL    HW210968   2.044   1.804   0.893
 3528SOL     OW10969   2.366   1.568   0.910
 3528SOL    HW110970   2.432   1.642   0.919
 3528SOL    HW210971   2.410   1.489   0.868
 3529SOL     OW10972   2.864   0.796   1.238
 3529SOL    HW110973   2.905   0.764   1.324
 3529SOL    HW210974   2.768   0.769   1.235
 3530SOL     OW10975   1.902   0.544   1.114
 3530SOL    HW110976   1.987   0.511   1.073
 3530SOL    HW210977   1.915   0.559   1.212
 3531SOL     OW10978   2.051   0.520   1.722
 3531SOL    HW110979   2.110   0.480   1.652
 3531SOL    HW210980   1.993   0.591   1.681
 3532SOL     OW10981   3.231   0.950   1.660
 3532SOL    HW110982   3.270   1.039   1.680
 3532SOL    HW210983   3.241   0.930   1.563
 3533SOL     OW10984   2.677   0.572   0.325
 3533SOL    HW110985   2.684   0.483   0.279
 3533SOL    HW210986   2.583   0.606   0.317
 3534SOL     OW10987   3.519   0.604   1.206
 3534SOL    HW110988   3.481   0.535   1.268
 3534SOL    HW210989   3.601   0.568   1.162
 3535SOL     OW10990   2.114   1.564   1.744
 3535SOL    HW110991   2.084   1.621   1.820
 3535SOL    HW210992   2.107   1.467   1.770
 3536SOL     OW10993   2.533   0.464   1.269
 3536SOL    HW110994   2.499   0.375   1.239
 3536SOL    HW210995   2.559   0.518   1.189
 3537SOL     OW10996   2.792   1.678   1.465
 3537SOL    HW110997   2.768   1.660   1.370
 3537SOL    HW210998   2.822   1.772   1.475
 3538SOL     OW10999   2.335   0.500   0.191
 3538SOL    HW111000   2.396   0.580   0.195
 3538SOL    HW211001   2.240   0.531   0.198
 3539SOL     OW11002   2.021   1.137   1.466
 3539SOL    HW111003   2.043   1.076   1.542
 3539SOL    HW211004   2.031   1.088   1.380
 3540SOL     OW11005   3.209   1.059   1.234
 3540SOL    HW111006   3.233   0.996   1.160
 3540SOL    HW211007   3.119   1.099   1.216
 3541SOL     OW11008   3.164   0.855   0.309
 3541SOL    HW111009   3.078   0.824   0.351
 3541SOL    HW211010   3.160   0.841   0.210
 3542SOL     OW11011   3.621   1.747   1.154
 3542SOL    HW111012   3.682   1.777   1.081
 3542SOL    HW211013   3.583   1.658   1.132
 3543SOL     OW11014   3.114   1.731   1.128
 3543SOL    HW111015   3.198   1.736   1.074
 3543SOL    HW211016   3.091   1.635   1.146
 3544SOL     OW11017   1.945   1.258   1.022
 3544SOL    HW111018   1.940   1.257   1.122
 3544SOL    HW211019   1.862   1.217   0.984
 3545SOL     OW11020   2.550   1.662   1.716
 3545SOL    HW111021   2.494   1.743   1.725
 3545SOL    HW211022   2.602   1.666   1.630
 3546SOL     OW11023   2.765   0.086   0.133
 3546SOL    HW111024   2.816   0.087   0.047
 3546SOL    HW211025   2.821   0.044   0.204
 3547SOL     OW11026   3.588   0.135   0.523
 3547SOL    HW111027   3.661   0.118   0.456
 3547SOL    HW211028   3.557   0.048   0.561
 3548SOL     OW11029   3.250   1.573   0.477
 3548SOL    HW111030   3.317   1.585   0.403
 3548SOL    HW211031   3.210   1.662   0.500
 3549SOL     OW11032   1.992   1.794   1.851
 3549SOL    HW111033   1.951   1.720   1.904
 3549SOL    HW211034   2.056   1.845   1.909
 3550SOL     OW11035   3.142   0.927   0.672
 3550SOL    HW111036   3.202   0.846   0.674
 3550SOL    HW211037   3.182   0.996   0.612
 3551SOL     OW11038   2.692   1.273   1.422
 3551SOL    HW111039   2.687   1.306   1.517
 3551SOL    HW211040   2.606   1.292   1.376
 3552SOL     OW11041   2.534   1.616   0.154
 3552SOL    HW111042   2.543   1.626   0.055
 3552SOL    HW211043   2.494   1.527   0.175
 3553SOL     OW11044   3.512   1.720   1.394
 3553SOL    HW111045   3.565   1.730   1.310
 3553SOL    HW211046   3.485   1.810   1.428
 3554SOL     OW11047   3.703   0.175   0.963
 3554SOL    HW111048   3.742   0.090   0.927
 3554SOL    HW211049   3.605   0.177   0.944
 3555SOL     OW11050   2.125   0.326   0.720
 3555SOL    HW111051   2.046   0.377   0.686
 3555SOL    HW211052   2.116   0.311   0.818
 3556SOL     OW11053   3.056   1.612   0.031
 3556SOL    HW111054   3.062   1.519   0.068
 3556SOL    HW211055   2.997   1.612  -0.049
 3557SOL     OW11056   2.684   1.002   1.372
 3557SOL    HW111057   2.724   1.001   1.280
 3557SOL    HW211058   2.694   1.094   1.412
 3558SOL     OW11059   2.778   0.910   0.291
 3558SOL    HW111060   2.841   0.948   0.223
 3558SOL    HW211061   2.818   0.827   0.330
 3559SOL     OW11062   3.366   1.607   0.044
 3559SOL    HW111063   3.274   1.644   0.051
 3559SOL    HW211064   3.404   1.627  -0.046
 3560SOL     OW11065   2.234   1.288   1.490
 3560SOL    HW111066   2.221   1.381   1.456
 3560SOL    HW211067   2.150   1.236   1.477
 3561SOL     OW11068   3.476   1.292   1.289
 3561SOL    HW111069   3.536   1.295   1.369
 3561SOL    HW211070   3.401   1.356   1.302
 3562SOL     OW11071   2.901   1.098   0.696
 3562SOL    HW111072   2.831   1.051   0.750
 3562SOL    HW211073   2.960   1.030   0.653
 3563SOL     OW11074   2.876   0.236   0.971
 3563SOL    HW111075   2.868   0.200   0.878
 3563SOL    HW211076   2.874   0.160   1.036
 3564SOL     OW11077   2.452   1.487   0.491
 3564SOL    HW111078   2.494   1.429   0.421
 3564SOL    HW211079   2.408   1.566   0.447
 3565SOL     OW11080   3.571   0.385   1.381
 3565SOL    HW111081   3.644   0.454   1.385
 3565SOL    HW211082   3.599   0.310   1.322
 3566SOL     OW11083   2.117   1.348   0.290
 3566SOL    HW111084   2.021   1.349   0.263
 3566SOL    HW211085   2.129   1.401   0.374
 3567SOL     OW11086   1.967   1.013   1.726
 3567SOL    HW111087   1.890   0.980   1.780
 3567SOL    HW211088   2.052   0.983   1.768
 3568SOL     OW11089   2.534   0.203   1.489
 3568SOL    HW111090   2.624   0.187   1.449
 3568SOL    HW211091   2.542   0.208   1.588
 3569SOL     OW11092   1.937   0.345   0.033
 3569SOL    HW111093   1.845   0.317   0.004
 3569SOL    HW211094   1.968   0.422  -0.023
 3570SOL     OW11095   3.302   0.856   1.398
 3570SOL    HW111096   3.245   0.908   1.335
 3570SOL    HW211097   3.398   0.868   1.374
 3571SOL     OW11098   1.934   0.166   0.318
 3571SOL    HW111099   1.917   0.249   0.264
 3571SOL    HW211100   2.024   0.129   0.296
 3572SOL     OW11101   3.045   1.335   0.119
 3572SOL    HW111102   2.946   1.324   0.121
 3572SOL    HW211103   3.079   1.350   0.212
 3573SOL     OW11104   2.475   0.842   1.431
 3573SOL    HW111105   2.531   0.923   1.414
 3573SOL    HW211106   2.534   0.762   1.434
 3574SOL     OW11107   3.355   1.767   0.959
 3574SOL    HW111108   3.388   1.831   0.890
 3574SOL    HW211109   3.421   1.761   1.034
 3575SOL     OW11110   2.578   0.565   1.708
 3575SOL    HW111111   2.597   0.630   1.782
 3575SOL    HW211112   2.638   0.485   1.717
 3576SOL     OW11113   3.312   1.220   1.633
 3576SOL    HW111114   3.303   1.210   1.732
 3576SOL    HW211115   3.408   1.213   1.607
 3577SOL     OW11116   2.252   1.741   1.560
 3577SOL    HW111117   2.161   1.782   1.558
 3577SOL    HW211118   2.245   1.647   1.592
 3578SOL     OW11119   3.536   0.883   1.254
 3578SOL    HW111120   3.509   0.794   1.217
 3578SOL    HW211121   3.537   0.951   1.181
 3579SOL     OW11122   3.087   0.325   0.449
 3579SOL    HW111123   3.152   0.251   0.438
 3579SOL    HW211124   3.107   0.375   0.533
 3580SOL     OW11125   2.456   0.745   0.652
 3580SOL    HW111126   2.506   0.830   0.633
 3580SOL    HW211127   2.368   0.747   0.604
 3581SOL     OW11128   3.639   0.342   1.642
 3581SOL    HW111129   3.622   0.373   1.548
 3581SOL    HW211130   3.555   0.305   1.680
 3582SOL     OW11131   3.592   0.934   1.517
 3582SOL    HW111132   3.630   1.025   1.532
 3582SOL    HW211133   3.584   0.917   1.418
 3583SOL     OW11134   2.721   1.374   0.016
 3583SOL    HW111135   2.675   1.389   0.104
 3583SOL    HW211136   2.765   1.459  -0.014
 3584SOL     OW11137   2.523   1.790   0.953
 3584SOL    HW111138   2.477   1.878   0.940
 3584SOL    HW211139   2.622   1.802   0.946
 3585SOL     OW11140   2.721   0.956   0.861
 3585SOL    HW111141   2.775   0.887   0.909
 3585SOL    HW211142   2.689   1.025   0.927
 3586SOL     OW11143   2.945   0.984   0.087
 3586SOL    HW111144   2.922   1.037   0.005
 3586SOL    HW211145   3.026   0.928   0.068
 3587SOL     OW11146   3.723   1.569   0.851
 3587SOL    HW111147   3.652   1.557   0.781
 3587SOL    HW211148   3.724   1.490   0.911
 3588SOL     OW11149   2.083   1.314   1.844
 3588SOL    HW111150   2.018   1.241   1.823
 3588SOL    HW211151   2.087   1.328   1.942
 3589SOL     OW11152   1.941   1.240   0.653
 3589SOL    HW111153   1.940   1.193   0.741
 3589SOL    HW211154   2.023   1.212   0.602
 3590SOL     OW11155   2.534   1.391   1.624
 3590SOL    HW111156   2.456   1.341   1.662
 3590SOL    HW211157   2.531   1.486   1.655
 3591SOL     OW11158   3.686   0.192   1.227
 3591SOL    HW111159   3.682   0.102   1.271
 3591SOL    HW211160   3.689   0.181   1.128
 3592SOL     OW11161   2.290   0.424   0.520
 3592SOL    HW111162   2.320   0.352   0.458
 3592SOL    HW211163   2.251   0.384   0.603
 3593SOL     OW11164   3.567   1.487   1.104
 3593SOL    HW111165   3.474   1.462   1.077
 3593SOL    HW211166   3.593   1.437   1.186
 3594SOL     OW11167   2.179   0.547   1.280
 3594SOL    HW111168   2.217   0.488   1.352
 3594SOL    HW211169   2.219   0.521   1.192
 3595SOL     OW11170   2.674   1.586   0.687
 3595SOL    HW111171   2.706   1.596   0.593
 3595SOL    HW211172   2.595   1.524   0.689
 3596SOL     OW11173   3.286   0.214   1.112
 3596SOL    HW111174   3.338   0.149   1.167
 3596SOL    HW211175   3.237   0.277   1.173
 3597SOL     OW11176   2.863   0.034   1.154
 3597SOL    HW111177   2.800  -0.038   1.123
 3597SOL    HW211178   2.956  -0.002   1.154
 3598SOL     OW11179   2.632   1.330   0.301
 3598SOL    HW111180   2.586   1.243   0.318
 3598SOL    HW211181   2.723   1.327   0.342
 3599SOL     OW11182   2.480   1.567   1.284
 3599SOL    HW111183   2.475   1.649   1.341
 3599SOL    HW211184   2.569   1.564   1.239
 3600SOL     OW11185   3.214   0.052   0.168
 3600SOL    HW111186   3.249   0.011   0.084
 3600SOL    HW211187   3.124   0.014   0.188
 3601SOL     OW11188   3.162   0.453   0.691
 3601SOL    HW111189   3.103   0.533   0.695
 3601SOL    HW211190   3.177   0.418   0.784
 3602SOL     OW11191   3.455   0.221   0.882
 3602SOL    HW111192   3.371   0.220   0.936
 3602SOL    HW211193   3.457   0.304   0.826
 3603SOL     OW11194   1.901   1.077   0.300
 3603SOL    HW111195   2.000   1.066   0.291
 3603SOL    HW211196   1.861   0.991   0.332
 3604SOL     OW11197   2.737   1.646   0.337
 3604SOL    HW111198   2.660   1.611   0.283
 3604SOL    HW211199   2.705   1.717   0.399
 3605SOL     OW11200   2.092   0.628   1.975
 3605SOL    HW111201   1.999   0.626   2.012
 3605SOL    HW211202   2.093   0.589   1.883
 3606SOL     OW11203   2.087   0.275   2.858
 3606SOL    HW111204   2.122   0.258   2.950
 3606SOL    HW211205   1.999   0.230   2.846
 3607SOL     OW11206   1.881   0.368   2.509
 3607SOL    HW111207   1.799   0.411   2.548
 3607SOL    HW211208   1.853   0.295   2.446
 3608SOL     OW11209   2.431   1.275   3.027
 3608SOL    HW111210   2.338   1.268   2.990
 3608SOL    HW211211   2.442   1.364   3.071
 3609SOL     OW11212   3.417   1.511   2.565
 3609SOL    HW111213   3.360   1.495   2.646
 3609SOL    HW211214   3.358   1.521   2.485
 3610SOL     OW11215   2.997   0.703   2.579
 3610SOL    HW111216   3.054   0.781   2.554
 3610SOL    HW211217   2.937   0.729   2.655
 3611SOL     OW11218   3.617   0.607   2.093
 3611SOL    HW111219   3.605   0.594   1.994
 3611SOL    HW211220   3.587   0.526   2.142
 3612SOL     OW11221   2.630   1.144   2.885
 3612SOL    HW111222   2.552   1.161   2.945
 3612SOL    HW211223   2.664   1.231   2.849
 3613SOL     OW11224   2.712   0.798   3.685
 3613SOL    HW111225   2.708   0.874   3.750
 3613SOL    HW211226   2.734   0.834   3.594
 3614SOL     OW11227   2.547   1.012   2.527
 3614SOL    HW111228   2.616   0.996   2.597
 3614SOL    HW211229   2.474   1.069   2.565
 3615SOL     OW11230   2.548   1.161   3.665
 3615SOL    HW111231   2.608   1.240   3.679
 3615SOL    HW211232   2.462   1.192   3.624
 3616SOL     OW11233   2.197   1.435   2.923
 3616SOL    HW111234   2.119   1.404   2.870
 3616SOL    HW211235   2.255   1.493   2.866
 3617SOL     OW11236   3.322   1.505   3.201
 3617SOL    HW111237   3.346   1.599   3.227
 3617SOL    HW211238   3.306   1.451   3.283
 3618SOL     OW11239   2.300   0.392   3.361
 3618SOL    HW111240   2.382   0.336   3.370
 3618SOL    HW211241   2.219   0.334   3.365
 3619SOL     OW11242   3.465   0.447   2.599
 3619SOL    HW111243   3.391   0.493   2.549
 3619SOL    HW211244   3.516   0.515   2.652
 3620SOL     OW11245   2.093   1.713   2.345
 3620SOL    HW111246   2.127   1.790   2.399
 3620SOL    HW211247   2.137   1.713   2.255
 3621SOL     OW11248   2.989   1.341   3.552
 3621SOL    HW111249   3.036   1.341   3.640
 3621SOL    HW211250   2.941   1.254   3.541
 3622SOL     OW11251   2.092   1.434   2.400
 3622SOL    HW111252   2.066   1.530   2.400
 3622SOL    HW211253   2.021   1.380   2.445
 3623SOL     OW11254   2.102   1.091   2.748
 3623SOL    HW111255   2.116   1.007   2.800
 3623SOL    HW211256   2.047   1.155   2.803
 3624SOL     OW11257   2.482   1.786   3.301
 3624SOL    HW111258   2.390   1.769   3.336
 3624SOL    HW211259   2.510   1.878   3.327
 3625SOL     OW11260   2.468   0.964   1.985
 3625SOL    HW111261   2.475   1.048   1.931
 3625SOL    HW211262   2.514   0.977   2.073
 3626SOL     OW11263   3.456   0.114   3.342
 3626SOL    HW111264   3.438   0.181   3.270
 3626SOL    HW211265   3.453   0.160   3.431
 3627SOL     OW11266   1.984   0.643   2.425
 3627SOL    HW111267   1.939   0.555   2.442
 3627SOL    HW211268   1.983   0.697   2.509
 3628SOL     OW11269   3.704   1.767   2.221
 3628SOL    HW111270   3.758   1.738   2.301
 3628SOL    HW211271   3.734   1.857   2.192
 3629SOL     OW11272   1.889   1.596   1.979
 3629SOL    HW111273   1.870   1.500   2.000
 3629SOL    HW211274   1.856   1.654   2.054
 3630SOL     OW11275   3.551   0.922   2.474
 3630SOL    HW111276   3.646   0.893   2.482
 3630SOL    HW211277   3.543   0.987   2.399
 3631SOL     OW11278   3.503   1.108   2.294
 3631SOL    HW111279   3.589   1.110   2.242
 3631SOL    HW211280   3.517   1.155   2.382
 3632SOL     OW11281   1.975   0.737   3.459
 3632SOL    HW111282   2.063   0.724   3.504
 3632SOL    HW211283   1.962   0.834   3.437
 3633SOL     OW11284   2.475   1.365   2.588
 3633SOL    HW111285   2.426   1.278   2.597
 3633SOL    HW211286   2.452   1.408   2.501
 3634SOL     OW11287   3.155   1.228   3.285
 3634SOL    HW111288   3.192   1.155   3.227
 3634SOL    HW211289   3.207   1.233   3.370
 3635SOL     OW11290   2.671   0.004   2.364
 3635SOL    HW111291   2.711   0.095   2.355
 3635SOL    HW211292   2.571   0.012   2.370
 3636SOL     OW11293   2.059   0.976   3.126
 3636SOL    HW111294   2.148   0.931   3.112
 3636SOL    HW211295   1.986   0.911   3.107
 3637SOL     OW11296   3.387   0.999   2.052
 3637SOL    HW111297   3.324   0.923   2.065
 3637SOL    HW211298   3.435   1.017   2.138
 3638SOL     OW11299   3.049   1.792   3.478
 3638SOL    HW111300   3.073   1.852   3.402
 3638SOL    HW211301   3.056   1.697   3.448
 3639SOL     OW11302   2.179   0.251   3.663
 3639SOL    HW111303   2.250   0.322   3.669
 3639SOL    HW211304   2.091   0.290   3.691
 3640SOL     OW11305   3.328   1.417   2.815
 3640SOL    HW111306   3.269   1.423   2.895
 3640SOL    HW211307   3.313   1.329   2.769
 3641SOL     OW11308   3.529   1.714   2.434
 3641SOL    HW111309   3.488   1.691   2.346
 3641SOL    HW211310   3.511   1.640   2.499
 3642SOL     OW11311   2.460   0.729   2.132
 3642SOL    HW111312   2.484   0.798   2.064
 3642SOL    HW211313   2.382   0.762   2.186
 3643SOL     OW11314   3.143   0.345   2.806
 3643SOL    HW111315   3.057   0.295   2.793
 3643SOL    HW211316   3.205   0.291   2.862
 3644SOL     OW11317   3.438   1.662   2.169
 3644SOL    HW111318   3.527   1.708   2.172
 3644SOL    HW211319   3.417   1.638   2.074
 3645SOL     OW11320   2.669   0.605   3.327
 3645SOL    HW111321   2.622   0.602   3.416
 3645SOL    HW211322   2.618   0.550   3.261
 3646SOL     OW11323   3.256   0.469   3.536
 3646SOL    HW111324   3.236   0.512   3.624
 3646SOL    HW211325   3.334   0.407   3.545
 3647SOL     OW11326   2.835   0.890   3.434
 3647SOL    HW111327   2.881   0.806   3.405
 3647SOL    HW211328   2.779   0.924   3.359
 3648SOL     OW11329   2.853   0.410   3.104
 3648SOL    HW111330   2.776   0.444   3.158
 3648SOL    HW211331   2.819   0.359   3.025
 3649SOL     OW11332   2.903   0.701   2.291
 3649SOL    HW111333   2.929   0.697   2.387
 3649SOL    HW211334   2.818   0.650   2.277
 3650SOL     OW11335   1.938   0.811   2.651
 3650SOL    HW111336   2.037   0.799   2.660
 3650SOL    HW211337   1.914   0.906   2.672
 3651SOL     OW11338   2.727   0.348   2.057
 3651SOL    HW111339   2.786   0.411   2.008
 3651SOL    HW211340   2.746   0.254   2.028
 3652SOL     OW11341   3.581   0.585   3.693
 3652SOL    HW111342   3.555   0.674   3.657
 3652SOL    HW211343   3.579   0.517   3.620
 3653SOL     OW11344   3.224   1.144   2.407
 3653SOL    HW111345   3.307   1.115   2.359
 3653SOL    HW211346   3.175   1.211   2.351
 3654SOL     OW11347   2.412   0.196   2.747
 3654SOL    HW111348   2.407   0.191   2.847
 3654SOL    HW211349   2.414   0.292   2.718
 3655SOL     OW11350   2.870   1.456   2.339
 3655SOL    HW111351   2.824   1.528   2.287
 3655SOL    HW211352   2.866   1.476   2.437
 3656SOL     OW11353   2.213   1.801   2.715
 3656SOL    HW111354   2.263   1.715   2.721
 3656SOL    HW211355   2.278   1.878   2.712
 3657SOL     OW11356   3.657   1.066   2.735
 3657SOL    HW111357   3.595   1.051   2.659
 3657SOL    HW211358   3.605   1.077   2.820
 3658SOL     OW11359   3.089   1.550   3.368
 3658SOL    HW111360   3.095   1.473   3.432
 3658SOL    HW211361   3.037   1.524   3.288
 3659SOL     OW11362   2.183   0.943   2.104
 3659SOL    HW111363   2.265   0.982   2.062
 3659SOL    HW211364   2.156   0.861   2.055
 3660SOL     OW11365   3.320   0.735   2.590
 3660SOL    HW111366   3.315   0.670   2.665
 3660SOL    HW211367   3.400   0.794   2.603
 3661SOL     OW11368   2.323   1.266   3.589
 3661SOL    HW111369   2.273   1.267   3.503
 3661SOL    HW211370   2.260   1.248   3.665
 3662SOL     OW11371   2.973   1.776   2.099
 3662SOL    HW111372   2.913   1.714   2.149
 3662SOL    HW211373   3.004   1.732   2.014
 3663SOL     OW11374   2.064   0.285   3.360
 3663SOL    HW111375   1.984   0.345   3.347
 3663SOL    HW211376   2.054   0.236   3.446
 3664SOL     OW11377   3.494   1.377   1.943
 3664SOL    HW111378   3.462   1.471   1.933
 3664SOL    HW211379   3.418   1.314   1.931
 3665SOL     OW11380   2.326   1.743   2.185
 3665SOL    HW111381   2.359   1.782   2.271
 3665SOL    HW211382   2.402   1.736   2.120
 3666SOL     OW11383   3.262   0.107   2.288
 3666SOL    HW111384   3.238   0.070   2.198
 3666SOL    HW211385   3.361   0.123   2.292
 3667SOL     OW11386   2.111   1.785   3.103
 3667SOL    HW111387   2.168   1.720   3.153
 3667SOL    HW211388   2.095   1.752   3.010
 3668SOL     OW11389   2.802   1.698   2.766
 3668SOL    HW111390   2.882   1.641   2.787
 3668SOL    HW211391   2.753   1.658   2.689
 3669SOL     OW11392   2.244   0.700   2.342
 3669SOL    HW111393   2.289   0.610   2.339
 3669SOL    HW211394   2.150   0.689   2.375
 3670SOL     OW11395   3.409   0.222   3.591
 3670SOL    HW111396   3.404   0.259   3.683
 3670SOL    HW211397   3.337   0.153   3.579
 3671SOL     OW11398   2.476   0.122   1.979
 3671SOL    HW111399   2.574   0.100   1.986
 3671SOL    HW211400   2.445   0.105   1.886
 3672SOL     OW11401   2.643   0.264   3.611
 3672SOL    HW111402   2.710   0.203   3.654
 3672SOL    HW211403   2.570   0.283   3.676
 3673SOL     OW11404   2.750   1.514   3.057
 3673SOL    HW111405   2.727   1.489   2.963
 3673SOL    HW211406   2.811   1.445   3.096
 3674SOL     OW11407   3.213   0.590   3.295
 3674SOL    HW111408   3.241   0.547   3.380
 3674SOL    HW211409   3.238   0.686   3.296
 3675SOL     OW11410   2.665   1.402   2.786
 3675SOL    HW111411   2.755   1.416   2.744
 3675SOL    HW211412   2.594   1.404   2.715
 3676SOL     OW11413   2.784   0.503   2.761
 3676SOL    HW111414   2.759   0.494   2.665
 3676SOL    HW211415   2.832   0.421   2.792
 3677SOL     OW11416   2.401   0.064   2.374
 3677SOL    HW111417   2.320   0.065   2.432
 3677SOL    HW211418   2.404   0.147   2.319
 3678SOL     OW11419   3.296   1.188   1.903
 3678SOL    HW111420   3.328   1.112   1.960
 3678SOL    HW211421   3.204   1.215   1.933
 3679SOL     OW11422   2.159   0.035   2.033
 3679SOL    HW111423   2.208   0.119   2.012
 3679SOL    HW211424   2.221  -0.030   2.078
 3680SOL     OW11425   2.797   0.236   2.342
 3680SOL    HW111426   2.749   0.277   2.264
 3680SOL    HW211427   2.896   0.234   2.323
 3681SOL     OW11428   2.938   0.683   3.326
 3681SOL    HW111429   2.858   0.622   3.329
 3681SOL    HW211430   3.019   0.630   3.302
 3682SOL     OW11431   3.089   1.570   2.655
 3682SOL    HW111432   3.110   1.644   2.590
 3682SOL    HW211433   3.157   1.570   2.728
 3683SOL     OW11434   2.321   1.152   2.603
 3683SOL    HW111435   2.250   1.125   2.668
 3683SOL    HW211436   2.295   1.124   2.510
 3684SOL     OW11437   3.133   1.797   2.453
 3684SOL    HW111438   3.177   1.861   2.389
 3684SOL    HW211439   3.083   1.849   2.523
 3685SOL     OW11440   2.894   0.549   1.878
 3685SOL    HW111441   2.853   0.631   1.839
 3685SOL    HW211442   2.958   0.575   1.951
 3686SOL     OW11443   1.940   0.556   3.248
 3686SOL    HW111444   2.032   0.555   3.207
 3686SOL    HW211445   1.934   0.630   3.315
 3687SOL     OW11446   2.423   0.222   3.009
 3687SOL    HW111447   2.461   0.138   3.046
 3687SOL    HW211448   2.335   0.241   3.053
 3688SOL     OW11449   2.728   0.454   2.504
 3688SOL    HW111450   2.696   0.526   2.442
 3688SOL    HW211451   2.752   0.373   2.451
 3689SOL     OW11452   2.879   0.039   2.615
 3689SOL    HW111453   2.807   0.044   2.546
 3689SOL    HW211454   2.855  -0.030   2.684
 3690SOL     OW11455   3.291   1.173   2.729
 3690SOL    HW111456   3.236   1.089   2.722
 3690SOL    HW211457   3.317   1.202   2.637
 3691SOL     OW11458   3.328   0.590   2.854
 3691SOL    HW111459   3.298   0.495   2.861
 3691SOL    HW211460   3.401   0.606   2.920
 3692SOL     OW11461   3.719   0.833   2.239
 3692SOL    HW111462   3.761   0.769   2.303
 3692SOL    HW211463   3.681   0.782   2.161
 3693SOL     OW11464   2.350   1.385   2.036
 3693SOL    HW111465   2.263   1.370   2.083
 3693SOL    HW211466   2.333   1.411   1.941
 3694SOL     OW11467   3.526   1.280   2.519
 3694SOL    HW111468   3.625   1.288   2.533
 3694SOL    HW211469   3.481   1.364   2.550
 3695SOL     OW11470   3.252   0.575   1.940
 3695SOL    HW111471   3.198   0.554   2.021
 3695SOL    HW211472   3.343   0.534   1.949
 3696SOL     OW11473   2.389   0.256   2.190
 3696SOL    HW111474   2.416   0.197   2.115
 3696SOL    HW211475   2.389   0.351   2.159
 3697SOL     OW11476   3.616   1.223   3.450
 3697SOL    HW111477   3.707   1.184   3.437
 3697SOL    HW211478   3.624   1.319   3.474
 3698SOL     OW11479   2.926   1.347   3.202
 3698SOL    HW111480   2.846   1.324   3.257
 3698SOL    HW211481   3.009   1.321   3.251
 3699SOL     OW11482   3.454   1.629   3.487
 3699SOL    HW111483   3.481   1.663   3.397
 3699SOL    HW211484   3.533   1.591   3.533
 3700SOL     OW11485   2.973   1.195   2.962
 3700SOL    HW111486   2.933   1.239   3.043
 3700SOL    HW211487   2.932   1.232   2.879
 3701SOL     OW11488   3.500   1.099   2.941
 3701SOL    HW111489   3.505   1.180   3.000
 3701SOL    HW211490   3.414   1.101   2.890
 3702SOL     OW11491   2.777   0.089   3.264
 3702SOL    HW111492   2.802   0.069   3.169
 3702SOL    HW211493   2.849   0.145   3.306
 3703SOL     OW11494   2.842   1.116   3.581
 3703SOL    HW111495   2.743   1.122   3.591
 3703SOL    HW211496   2.865   1.036   3.525
 3704SOL     OW11497   2.567   1.050   2.230
 3704SOL    HW111498   2.553   1.057   2.329
 3704SOL    HW211499   2.651   0.999   2.212
 3705SOL     OW11500   2.272   0.813   3.113
 3705SOL    HW111501   2.358   0.825   3.163
 3705SOL    HW211502   2.230   0.726   3.140
 3706SOL     OW11503   3.136   0.386   3.124
 3706SOL    HW111504   3.157   0.460   3.188
 3706SOL    HW211505   3.047   0.403   3.081
 3707SOL     OW11506   1.926   1.564   3.193
 3707SOL    HW111507   1.880   1.646   3.159
 3707SOL    HW211508   2.024   1.583   3.202
 3708SOL     OW11509   2.229   1.100   2.363
 3708SOL    HW111510   2.222   1.183   2.307
 3708SOL    HW211511   2.233   1.020   2.303
 3709SOL     OW11512   2.428   0.537   2.727
 3709SOL    HW111513   2.440   0.603   2.653
 3709SOL    HW211514   2.474   0.571   2.810
 3710SOL     OW11515   3.114   1.348   2.250
 3710SOL    HW111516   3.164   1.425   2.290
 3710SOL    HW211517   3.019   1.350   2.282
 3711SOL     OW11518   3.134   1.445   3.004
 3711SOL    HW111519   3.181   1.458   3.091
 3711SOL    HW211520   3.068   1.371   3.013
 3712SOL     OW11521   3.444   0.639   2.334
 3712SOL    HW111522   3.413   0.700   2.407
 3712SOL    HW211523   3.494   0.691   2.265
 3713SOL     OW11524   2.216   1.510   3.191
 3713SOL    HW111525   2.195   1.466   3.104
 3713SOL    HW211526   2.313   1.536   3.194
 3714SOL     OW11527   2.264   0.751   3.460
 3714SOL    HW111528   2.332   0.806   3.413
 3714SOL    HW211529   2.304   0.663   3.487
 3715SOL     OW11530   3.449   0.779   3.532
 3715SOL    HW111531   3.357   0.817   3.527
 3715SOL    HW211532   3.509   0.826   3.467
 3716SOL     OW11533   2.875   0.105   3.632
 3716SOL    HW111534   2.881   0.190   3.580
 3716SOL    HW211535   2.907   0.029   3.575
 3717SOL     OW11536   2.366   0.050   3.602
 3717SOL    HW111537   2.324  -0.007   3.532
 3717SOL    HW211538   2.300   0.119   3.634
 3718SOL     OW11539   2.435   0.870   2.891
 3718SOL    HW111540   2.479   0.959   2.882
 3718SOL    HW211541   2.372   0.870   2.968
 3719SOL     OW11542   3.222   0.862   2.907
 3719SOL    HW111543   3.147   0.862   2.841
 3719SOL    HW211544   3.259   0.770   2.916
 3720SOL     OW11545   3.071   0.525   2.137
 3720SOL    HW111546   3.084   0.441   2.191
 3720SOL    HW211547   3.042   0.599   2.197
 3721SOL     OW11548   2.169   0.213   3.093
 3721SOL    HW111549   2.146   0.250   3.183
 3721SOL    HW211550   2.139   0.118   3.087
 3722SOL     OW11551   1.899   1.310   3.144
 3722SOL    HW111552   1.952   1.261   3.212
 3722SOL    HW211553   1.921   1.408   3.149
 3723SOL     OW11554   2.594   0.634   2.926
 3723SOL    HW111555   2.653   0.608   2.850
 3723SOL    HW211556   2.566   0.730   2.915
 3724SOL     OW11557   3.590   0.935   3.716
 3724SOL    HW111558   3.544   0.928   3.627
 3724SOL    HW211559   3.528   0.979   3.782
 3725SOL     OW11560   2.169   0.063   2.480
 3725SOL    HW111561   2.158   0.157   2.513
 3725SOL    HW211562   2.164   0.000   2.557
 3726SOL     OW11563   3.484   0.367   2.236
 3726SOL    HW111564   3.486   0.291   2.300
 3726SOL    HW211565   3.436   0.444   2.276
 3727SOL     OW11566   2.885   0.766   2.828
 3727SOL    HW111567   2.900   0.787   2.924
 3727SOL    HW211568   2.855   0.671   2.819
 3728SOL     OW11569   2.842   1.573   3.562
 3728SOL    HW111570   2.822   1.617   3.474
 3728SOL    HW211571   2.881   1.482   3.546
 3729SOL     OW11572   3.721   1.518   3.467
 3729SOL    HW111573   3.735   1.545   3.372
 3729SOL    HW211574   3.804   1.540   3.520
 3730SOL     OW11575   2.212   0.898   3.666
 3730SOL    HW111576   2.288   0.942   3.714
 3730SOL    HW211577   2.247   0.851   3.584
 3731SOL     OW11578   3.402   0.274   1.987
 3731SOL    HW111579   3.341   0.199   2.010
 3731SOL    HW211580   3.424   0.326   2.070
 3732SOL     OW11581   3.165   0.838   1.904
 3732SOL    HW111582   3.199   0.745   1.919
 3732SOL    HW211583   3.183   0.865   1.809
 3733SOL     OW11584   2.930   1.333   2.711
 3733SOL    HW111585   2.937   1.249   2.656
 3733SOL    HW211586   2.992   1.402   2.675
 3734SOL     OW11587   2.181   0.810   2.811
 3734SOL    HW111588   2.274   0.846   2.816
 3734SOL    HW211589   2.175   0.725   2.863
 3735SOL     OW11590   2.201   0.509   2.868
 3735SOL    HW111591   2.149   0.426   2.851
 3735SOL    HW211592   2.278   0.514   2.804
 3736SOL     OW11593   3.000   0.380   3.540
 3736SOL    HW111594   2.955   0.443   3.604
 3736SOL    HW211595   3.093   0.411   3.523
 3737SOL     OW11596   3.022   0.207   3.339
 3737SOL    HW111597   3.022   0.271   3.416
 3737SOL    HW211598   3.050   0.255   3.256
 3738SOL     OW11599   1.870   1.326   2.062
 3738SOL    HW111600   1.777   1.347   2.031
 3738SOL    HW211601   1.880   1.227   2.075
 3739SOL     OW11602   1.950   1.801   2.789
 3739SOL    HW111603   1.908   1.715   2.762
 3739SOL    HW211604   2.044   1.804   2.755
 3740SOL     OW11605   2.366   1.568   2.772
 3740SOL    HW111606   2.432   1.642   2.781
 3740SOL    HW211607   2.410   1.489   2.730
 3741SOL     OW11608   2.864   0.796   3.100
 3741SOL    HW111609   2.905   0.764   3.186
 3741SOL    HW211610   2.768   0.769   3.097
 3742SOL     OW11611   1.902   0.544   2.976
 3742SOL    HW111612   1.987   0.511   2.935
 3742SOL    HW211613   1.915   0.559   3.074
 3743SOL     OW11614   2.051   0.520   3.584
 3743SOL    HW111615   2.110   0.480   3.514
 3743SOL    HW211616   1.993   0.591   3.543
 3744SOL     OW11617   3.231   0.950   3.522
 3744SOL    HW111618   3.270   1.039   3.542
 3744SOL    HW211619   3.241   0.930   3.425
 3745SOL     OW11620   2.677   0.572   2.187
 3745SOL    HW111621   2.684   0.483   2.141
 3745SOL    HW211622   2.583   0.606   2.179
 3746SOL     OW11623   3.519   0.604   3.068
 3746SOL    HW111624   3.481   0.535   3.130
 3746SOL    HW211625   3.601   0.568   3.024
 3747SOL     OW11626   2.114   1.564   3.606
 3747SOL    HW111627   2.084   1.621   3.682
 3747SOL    HW211628   2.107   1.467   3.632
 3748SOL     OW11629   2.533   0.464   3.131
 3748SOL    HW111630   2.499   0.375   3.101
 3748SOL    HW211631   2.559   0.518   3.051
 3749SOL     OW11632   2.792   1.678   3.327
 3749SOL    HW111633   2.768   1.660   3.232
 3749SOL    HW211634   2.822   1.772   3.337
 3750SOL     OW11635   2.335   0.500   2.053
 3750SOL    HW111636   2.396   0.580   2.057
 3750SOL    HW211637   2.240   0.531   2.060
 3751SOL     OW11638   2.021   1.137   3.328
 3751SOL    HW111639   2.043   1.076   3.404
 3751SOL    HW211640   2.031   1.088   3.242
 3752SOL     OW11641   3.209   1.059   3.096
 3752SOL    HW111642   3.233   0.996   3.022
 3752SOL    HW211643   3.119   1.099   3.078
 3753SOL     OW11644   3.164   0.855   2.171
 3753SOL    HW111645   3.078   0.824   2.213
 3753SOL    HW211646   3.160   0.841   2.072
 3754SOL     OW11647   3.621   1.747   3.016
 3754SOL    HW111648   3.682   1.777   2.943
 3754SOL    HW211649   3.583   1.658   2.994
 3755SOL     OW11650   3.114   1.731   2.990
 3755SOL    HW111651   3.198   1.736   2.936
 3755SOL    HW211652   3.091   1.635   3.008
 3756SOL     OW11653   1.945   1.258   2.884
 3756SOL    HW111654   1.940   1.257   2.984
 3756SOL    HW211655   1.862   1.217   2.846
 3757SOL     OW11656   2.550   1.662   3.578
 3757SOL    HW111657   2.494   1.743   3.587
 3757SOL    HW211658   2.602   1.666   3.492
 3758SOL     OW11659   3.588   0.135   2.385
 3758SOL    HW111660   3.661   0.118   2.318
 3758SOL    HW211661   3.557   0.048   2.423
 3759SOL     OW11662   3.250   1.573   2.339
 3759SOL    HW111663   3.317   1.585   2.265
 3759SOL    HW211664   3.210   1.662   2.362
 3760SOL     OW11665   1.992   1.794   3.713
 3760SOL    HW111666   1.951   1.720   3.766
 3760SOL    HW211667   2.056   1.845   3.771
 3761SOL     OW11668   3.142   0.927   2.534
 3761SOL    HW111669   3.202   0.846   2.536
 3761SOL    HW211670   3.182   0.996   2.474
 3762SOL     OW11671   2.692   1.273   3.284
 3762SOL    HW111672   2.687   1.306   3.379
 3762SOL    HW211673   2.606   1.292   3.238
 3763SOL     OW11674   2.534   1.616   2.016
 3763SOL    HW111675   2.543   1.626   1.917
 3763SOL    HW211676   2.494   1.527   2.037
 3764SOL     OW11677   3.512   1.720   3.256
 3764SOL    HW111678   3.565   1.730   3.172
 3764SOL    HW211679   3.485   1.810   3.290
 3765SOL     OW11680   3.703   0.175   2.825
 3765SOL    HW111681   3.742   0.090   2.789
 3765SOL    HW211682   3.605   0.177   2.806
 3766SOL     OW11683   2.125   0.326   2.582
 3766SOL    HW111684   2.046   0.377   2.548
 3766SOL    HW211685   2.116   0.311   2.680
 3767SOL     OW11686   3.056   1.612   1.893
 3767SOL    HW111687   3.062   1.519   1.930
 3767SOL    HW211688   2.997   1.612   1.813
 3768SOL     OW11689   2.684   1.002   3.234
 3768SOL    HW111690   2.724   1.001   3.142
 3768SOL    HW211691   2.694   1.094   3.274
 3769SOL     OW11692   2.778   0.910   2.153
 3769SOL    HW111693   2.841   0.948   2.085
 3769SOL    HW211694   2.818   0.827   2.192
 3770SOL     OW11695   3.366   1.607   1.906
 3770SOL    HW111696   3.274   1.644   1.913
 3770SOL    HW211697   3.404   1.627   1.816
 3771SOL     OW11698   2.234   1.288   3.352
 3771SOL    HW111699   2.221   1.381   3.318
 3771SOL    HW211700   2.150   1.236   3.339
 3772SOL     OW11701   3.476   1.292   3.151
 3772SOL    HW111702   3.536   1.295   3.231
 3772SOL    HW211703   3.401   1.356   3.164
 3773SOL     OW11704   2.901   1.098   2.558
 3773SOL    HW111705   2.831   1.051   2.612
 3773SOL    HW211706   2.960   1.030   2.515
 3774SOL     OW11707   2.876   0.236   2.833
 3774SOL    HW111708   2.868   0.200   2.740
 3774SOL    HW211709   2.874   0.160   2.898
 3775SOL     OW11710   2.452   1.487   2.353
 3775SOL    HW111711   2.494   1.429   2.283
 3775SOL    HW211712   2.408   1.566   2.309
 3776SOL     OW11713   3.571   0.385   3.243
 3776SOL    HW111714   3.644   0.454   3.247
 3776SOL    HW211715   3.599   0.310   3.184
 3777SOL     OW11716   2.117   1.348   2.152
 3777SOL    HW111717   2.021   1.349   2.125
 3777SOL    HW211718   2.129   1.401   2.236
 3778SOL     OW11719   1.967   1.013   3.588
 3778SOL    HW111720   1.890   0.980   3.642
 3778SOL    HW211721   2.052   0.983   3.630
 3779SOL     OW11722   2.534   0.203   3.351
 3779SOL    HW111723   2.624   0.187   3.311
 3779SOL    HW211724   2.542   0.208   3.450
 3780SOL     OW11725   1.937   0.345   1.895
 3780SOL    HW111726   1.845   0.317   1.866
 3780SOL    HW211727   1.968   0.422   1.839
 3781SOL     OW11728   3.302   0.856   3.260
 3781SOL    HW111729   3.245   0.908   3.197
 3781SOL    HW211730   3.398   0.868   3.236
 3782SOL     OW11731   1.934   0.166   2.180
 3782SOL    HW111732   1.917   0.249   2.126
 3782SOL    HW211733   2.024   0.129   2.158
 3783SOL     OW11734   3.045   1.335   1.981
 3783SOL    HW111735   2.946   1.324   1.983
 3783SOL    HW211736   3.079   1.350   2.074
 3784SOL     OW11737   2.475   0.842   3.293
 3784SOL    HW111738   2.531   0.923   3.276
 3784SOL    HW211739   2.534   0.762   3.296
 3785SOL     OW11740   3.355   1.767   2.821
 3785SOL    HW111741   3.388   1.831   2.752
 3785SOL    HW211742   3.421   1.761   2.896
 3786SOL     OW11743   2.578   0.565   3.570
 3786SOL    HW111744   2.597   0.630   3.644
 3786SOL    HW211745   2.638   0.485   3.579
 3787SOL     OW11746   3.312   1.220   3.495
 3787SOL    HW111747   3.303   1.210   3.594
 3787SOL    HW211748   3.408   1.213   3.469
 3788SOL     OW11749   2.252   1.741   3.422
 3788SOL    HW111750   2.161   1.782   3.420
 3788SOL    HW211751   2.245   1.647   3.454
 3789SOL     OW11752   3.536   0.883   3.116
 3789SOL    HW111753   3.509   0.794   3.079
 3789SOL    HW211754   3.537   0.951   3.043
 3790SOL     OW11755   3.087   0.325   2.311
 3790SOL    HW111756   3.152   0.251   2.300
 3790SOL    HW211757   3.107   0.375   2.395
 3791SOL     OW11758   2.456   0.745   2.514
 3791SOL    HW111759   2.506   0.830   2.495
 3791SOL    HW211760   2.368   0.747   2.466
 3792SOL     OW11761   3.639   0.342   3.504
 3792SOL    HW111762   3.622   0.373   3.410
 3792SOL    HW211763   3.555   0.305   3.542
 3793SOL     OW11764   3.592   0.934   3.379
 3793SOL    HW111765   3.630   1.025   3.394
 3793SOL    HW211766   3.584   0.917   3.280
 3794SOL     OW11767   2.721   1.374   1.878
 3794SOL    HW111768   2.675   1.389   1.966
 3794SOL    HW211769   2.765   1.459   1.848
 3795SOL     OW11770   2.523   1.790   2.815
 3795SOL    HW111771   2.477   1.878   2.802
 3795SOL    HW211772   2.622   1.802   2.808
 3796SOL     OW11773   2.721   0.956   2.723
 3796SOL    HW111774   2.775   0.887   2.771
 3796SOL    HW211775   2.689   1.025   2.789
 3797SOL     OW11776   2.945   0.984   1.949
 3797SOL    HW111777   2.922   1.037   1.867
 3797SOL    HW211778   3.026   0.928   1.930
 3798SOL     OW11779   3.723   1.569   2.713
 3798SOL    HW111780   3.652   1.557   2.643
 3798SOL    HW211781   3.724   1.490   2.773
 3799SOL     OW11782   2.083   1.314   3.706
 3799SOL    HW111783   2.018   1.241   3.685
 3799SOL    HW211784   2.087   1.328   3.804
 3800SOL     OW11785   1.941   1.240   2.515
 3800SOL    HW111786   1.940   1.193   2.603
 3800SOL    HW211787   2.023   1.212   2.464
 3801SOL     OW11788   2.534   1.391   3.486
 3801SOL    HW111789   2.456   1.341   3.524
 3801SOL    HW211790   2.531   1.486   3.517
 3802SOL     OW11791   3.686   0.192   3.089
 3802SOL    HW111792   3.682   0.102   3.133
 3802SOL    HW211793   3.689   0.181   2.990
 3803SOL     OW11794   2.290   0.424   2.382
 3803SOL    HW111795   2.320   0.352   2.320
 3803SOL    HW211796   2.251   0.384   2.465
 3804SOL     OW11797   3.567   1.487   2.966
 3804SOL    HW111798   3.474   1.462   2.939
 3804SOL    HW211799   3.593   1.437   3.048
 3805SOL     OW11800   2.179   0.547   3.142
 3805SOL    HW111801   2.217   0.488   3.214
 3805SOL    HW211802   2.219   0.521   3.054
 3806SOL     OW11803   2.674   1.586   2.549
 3806SOL    HW111804   2.706   1.596   2.455
 3806SOL    HW211805   2.595   1.524   2.551
 3807SOL     OW11806   3.286   0.214   2.974
 3807SOL    HW111807   3.338   0.149   3.029
 3807SOL    HW211808   3.237   0.277   3.035
 3808SOL     OW11809   2.863   0.034   3.016
 3808SOL    HW111810   2.800  -0.038   2.985
 3808SOL    HW211811   2.956  -0.002   3.016
 3809SOL     OW11812   2.632   1.330   2.163
 3809SOL    HW111813   2.586   1.243   2.180
 3809SOL    HW211814   2.723   1.327   2.204
 3810SOL     OW11815   2.480   1.567   3.146
 3810SOL    HW111816   2.475   1.649   3.203
 3810SOL    HW211817   2.569   1.564   3.101
 3811SOL     OW11818   3.214   0.052   2.030
 3811SOL    HW111819   3.249   0.011   1.946
 3811SOL    HW211820   3.124   0.014   2.050
 3812SOL     OW11821   3.162   0.453   2.553
 3812SOL    HW111822   3.103   0.533   2.557
 3812SOL    HW211823   3.177   0.418   2.646
 3813SOL     OW11824   3.455   0.221   2.744
 3813SOL    HW111825   3.371   0.220   2.798
 3813SOL    HW211826   3.457   0.304   2.688
 3814SOL     OW11827   1.901   1.077   2.162
 3814SOL    HW111828   2.000   1.066   2.153
 3814SOL    HW211829   1.861   0.991   2.194
 3815SOL     OW11830   2.737   1.646   2.199
 3815SOL    HW111831   2.660   1.611   2.145
 3815SOL    HW211832   2.705   1.717   2.261
 3816SOL     OW11833   2.092   0.628   3.837
 3816SOL    HW111834   1.999   0.626   3.874
 3816SOL    HW211835   2.093   0.589   3.745
 3817SOL     OW11836   2.087   0.275   4.720
 3817SOL    HW111837   2.122   0.258   4.812
 3817SOL    HW211838   1.999   0.230   4.708
 3818SOL     OW11839   1.881   0.368   4.371
 3818SOL    HW111840   1.799   0.411   4.410
 3818SOL    HW211841   1.853   0.295   4.308
 3819SOL     OW11842   2.431   1.275   4.889
 3819SOL    HW111843   2.338   1.268   4.852
 3819SOL    HW211844   2.442   1.364   4.933
 3820SOL     OW11845   3.417   1.511   4.427
 3820SOL    HW111846   3.360   1.495   4.508
 3820SOL    HW211847   3.358   1.521   4.347
 3821SOL     OW11848   2.997   0.703   4.441
 3821SOL    HW111849   3.054   0.781   4.416
 3821SOL    HW211850   2.937   0.729   4.517
 3822SOL     OW11851   3.617   0.607   3.955
 3822SOL    HW111852   3.605   0.594   3.856
 3822SOL    HW211853   3.587   0.526   4.004
 3823SOL     OW11854   2.630   1.144   4.747
 3823SOL    HW111855   2.552   1.161   4.807
 3823SOL    HW211856   2.664   1.231   4.711
 3824SOL     OW11857   2.712   0.798   5.547
 3824SOL    HW111858   2.708   0.874   5.612
 3824SOL    HW211859   2.734   0.834   5.456
 3825SOL     OW11860   2.547   1.012   4.389
 3825SOL    HW111861   2.616   0.996   4.459
 3825SOL    HW211862   2.474   1.069   4.427
 3826SOL     OW11863   2.548   1.161   5.527
 3826SOL    HW111864   2.608   1.240   5.541
 3826SOL    HW211865   2.462   1.192   5.486
 3827SOL     OW11866   2.197   1.435   4.785
 3827SOL    HW111867   2.119   1.404   4.732
 3827SOL    HW211868   2.255   1.493   4.728
 3828SOL     OW11869   3.322   1.505   5.063
 3828SOL    HW111870   3.346   1.599   5.089
 3828SOL    HW211871   3.306   1.451   5.145
 3829SOL     OW11872   2.300   0.392   5.223
 3829SOL    HW111873   2.382   0.336   5.232
 3829SOL    HW211874   2.219   0.334   5.227
 3830SOL     OW11875   3.465   0.447   4.461
 3830SOL    HW111876   3.391   0.493   4.411
 3830SOL    HW211877   3.516   0.515   4.514
 3831SOL     OW11878   2.093   1.713   4.207
 3831SOL    HW111879   2.127   1.790   4.261
 3831SOL    HW211880   2.137   1.713   4.117
 3832SOL     OW11881   2.989   1.341   5.414
 3832SOL    HW111882   3.036   1.341   5.502
 3832SOL    HW211883   2.941   1.254   5.403
 3833SOL     OW11884   2.092   1.434   4.262
 3833SOL    HW111885   2.066   1.530   4.262
 3833SOL    HW211886   2.021   1.380   4.307
 3834SOL     OW11887   2.102   1.091   4.610
 3834SOL    HW111888   2.116   1.007   4.662
 3834SOL    HW211889   2.047   1.155   4.665
 3835SOL     OW11890   2.482   1.786   5.163
 3835SOL    HW111891   2.390   1.769   5.198
 3835SOL    HW211892   2.510   1.878   5.189
 3836SOL     OW11893   2.468   0.964   3.847
 3836SOL    HW111894   2.475   1.048   3.793
 3836SOL    HW211895   2.514   0.977   3.935
 3837SOL     OW11896   3.456   0.114   5.204
 3837SOL    HW111897   3.438   0.181   5.132
 3837SOL    HW211898   3.453   0.160   5.293
 3838SOL     OW11899   1.984   0.643   4.287
 3838SOL    HW111900   1.939   0.555   4.304
 3838SOL    HW211901   1.983   0.697   4.371
 3839SOL     OW11902   3.704   1.767   4.083
 3839SOL    HW111903   3.758   1.738   4.163
 3839SOL    HW211904   3.734   1.857   4.054
 3840SOL     OW11905   1.889   1.596   3.841
 3840SOL    HW111906   1.870   1.500   3.862
 3840SOL    HW211907   1.856   1.654   3.916
 3841SOL     OW11908   3.551   0.922   4.336
 3841SOL    HW111909   3.646   0.893   4.344
 3841SOL    HW211910   3.543   0.987   4.261
 3842SOL     OW11911   3.503   1.108   4.156
 3842SOL    HW111912   3.589   1.110   4.104
 3842SOL    HW211913   3.517   1.155   4.244
 3843SOL     OW11914   1.975   0.737   5.321
 3843SOL    HW111915   2.063   0.724   5.366
 3843SOL    HW211916   1.962   0.834   5.299
 3844SOL     OW11917   2.475   1.365   4.450
 3844SOL    HW111918   2.426   1.278   4.459
 3844SOL    HW211919   2.452   1.408   4.363
 3845SOL     OW11920   3.155   1.228   5.147
 3845SOL    HW111921   3.192   1.155   5.089
 3845SOL    HW211922   3.207   1.233   5.232
 3846SOL     OW11923   2.671   0.004   4.226
 3846SOL    HW111924   2.711   0.095   4.217
 3846SOL    HW211925   2.571   0.012   4.232
 3847SOL     OW11926   2.059   0.976   4.988
 3847SOL    HW111927   2.148   0.931   4.974
 3847SOL    HW211928   1.986   0.911   4.969
 3848SOL     OW11929   3.387   0.999   3.914
 3848SOL    HW111930   3.324   0.923   3.927
 3848SOL    HW211931   3.435   1.017   4.000
 3849SOL     OW11932   3.049   1.792   5.340
 3849SOL    HW111933   3.073   1.852   5.264
 3849SOL    HW211934   3.056   1.697   5.310
 3850SOL     OW11935   2.179   0.251   5.525
 3850SOL    HW111936   2.250   0.322   5.531
 3850SOL    HW211937   2.091   0.290   5.553
 3851SOL     OW11938   3.328   1.417   4.677
 3851SOL    HW111939   3.269   1.423   4.757
 3851SOL    HW211940   3.313   1.329   4.631
 3852SOL     OW11941   3.529   1.714   4.296
 3852SOL    HW111942   3.488   1.691   4.208
 3852SOL    HW211943   3.511   1.640   4.361
 3853SOL     OW11944   2.460   0.729   3.994
 3853SOL    HW111945   2.484   0.798   3.926
 3853SOL    HW211946   2.382   0.762   4.048
 3854SOL     OW11947   3.143   0.345   4.668
 3854SOL    HW111948   3.057   0.295   4.655
 3854SOL    HW211949   3.205   0.291   4.724
 3855SOL     OW11950   3.438   1.662   4.031
 3855SOL    HW111951   3.527   1.708   4.034
 3855SOL    HW211952   3.417   1.638   3.936
 3856SOL     OW11953   2.669   0.605   5.189
 3856SOL    HW111954   2.622   0.602   5.278
 3856SOL    HW211955   2.618   0.550   5.123
 3857SOL     OW11956   3.256   0.469   5.398
 3857SOL    HW111957   3.236   0.512   5.486
 3857SOL    HW211958   3.334   0.407   5.407
 3858SOL     OW11959   2.835   0.890   5.296
 3858SOL    HW111960   2.881   0.806   5.267
 3858SOL    HW211961   2.779   0.924   5.221
 3859SOL     OW11962   2.853   0.410   4.966
 3859SOL    HW111963   2.776   0.444   5.020
 3859SOL    HW211964   2.819   0.359   4.887
 3860SOL     OW11965   2.903   0.701   4.153
 3860SOL    HW111966   2.929   0.697   4.249
 3860SOL    HW211967   2.818   0.650   4.139
 3861SOL     OW11968   1.938   0.811   4.513
 3861SOL    HW111969   2.037   0.799   4.522
 3861SOL    HW211970   1.914   0.906   4.534
 3862SOL     OW11971   2.727   0.348   3.919
 3862SOL    HW111972   2.786   0.411   3.870
 3862SOL    HW211973   2.746   0.254   3.890
 3863SOL     OW11974   3.581   0.585   5.555
 3863SOL    HW111975   3.555   0.674   5.519
 3863SOL    HW211976   3.579   0.517   5.482
 3864SOL     OW11977   3.224   1.144   4.269
 3864SOL    HW111978   3.307   1.115   4.221
 3864SOL    HW211979   3.175   1.211   4.213
 3865SOL     OW11980   2.412   0.196   4.609
 3865SOL    HW111981   2.407   0.191   4.709
 3865SOL    HW211982   2.414   0.292   4.580
 3866SOL     OW11983   2.870   1.456   4.201
 3866SOL    HW111984   2.824   1.528   4.149
 3866SOL    HW211985   2.866   1.476   4.299
 3867SOL     OW11986   2.213   1.801   4.577
 3867SOL    HW111987   2.263   1.715   4.583
 3867SOL    HW211988   2.278   1.878   4.574
 3868SOL     OW11989   3.657   1.066   4.597
 3868SOL    HW111990   3.595   1.051   4.521
 3868SOL    HW211991   3.605   1.077   4.682
 3869SOL     OW11992   3.089   1.550   5.230
 3869SOL    HW111993   3.095   1.473   5.294
 3869SOL    HW211994   3.037   1.524   5.150
 3870SOL     OW11995   2.183   0.943   3.966
 3870SOL    HW111996   2.265   0.982   3.924
 3870SOL    HW211997   2.156   0.861   3.917
 3871SOL     OW11998   3.320   0.735   4.452
 3871SOL    HW111999   3.315   0.670   4.527
 3871SOL    HW212000   3.400   0.794   4.465
 3872SOL     OW12001   2.323   1.266   5.451
 3872SOL    HW112002   2.273   1.267   5.365
 3872SOL    HW212003   2.260   1.248   5.527
 3873SOL     OW12004   2.973   1.776   3.961
 3873SOL    HW112005   2.913   1.714   4.011
 3873SOL    HW212006   3.004   1.732   3.876
 3874SOL     OW12007   2.064   0.285   5.222
 3874SOL    HW112008   1.984   0.345   5.209
 3874SOL    HW212009   2.054   0.236   5.308
 3875SOL     OW12010   3.494   1.377   3.805
 3875SOL    HW112011   3.462   1.471   3.795
 3875SOL    HW212012   3.418   1.314   3.793
 3876SOL     OW12013   2.326   1.743   4.047
 3876SOL    HW112014   2.359   1.782   4.133
 3876SOL    HW212015   2.402   1.736   3.982
 3877SOL     OW12016   3.262   0.107   4.150
 3877SOL    HW112017   3.238   0.070   4.060
 3877SOL    HW212018   3.361   0.123   4.154
 3878SOL     OW12019   2.111   1.785   4.965
 3878SOL    HW112020   2.168   1.720   5.015
 3878SOL    HW212021   2.095   1.752   4.872
 3879SOL     OW12022   2.802   1.698   4.628
 3879SOL    HW112023   2.882   1.641   4.649
 3879SOL    HW212024   2.753   1.658   4.551
 3880SOL     OW12025   2.244   0.700   4.204
 3880SOL    HW112026   2.289   0.610   4.201
 3880SOL    HW212027   2.150   0.689   4.237
 3881SOL     OW12028   3.409   0.222   5.453
 3881SOL    HW112029   3.404   0.259   5.545
 3881SOL    HW212030   3.337   0.153   5.441
 3882SOL     OW12031   2.476   0.122   3.841
 3882SOL    HW112032   2.574   0.100   3.848
 3882SOL    HW212033   2.445   0.105   3.748
 3883SOL     OW12034   2.643   0.264   5.473
 3883SOL    HW112035   2.710   0.203   5.516
 3883SOL    HW212036   2.570   0.283   5.538
 3884SOL     OW12037   2.750   1.514   4.919
 3884SOL    HW112038   2.727   1.489   4.825
 3884SOL    HW212039   2.811   1.445   4.958
 3885SOL     OW12040   3.213   0.590   5.157
 3885SOL    HW112041   3.241   0.547   5.242
 3885SOL    HW212042   3.238   0.686   5.158
 3886SOL     OW12043   2.665   1.402   4.648
 3886SOL    HW112044   2.755   1.416   4.606
 3886SOL    HW212045   2.594   1.404   4.577
 3887SOL     OW12046   2.784   0.503   4.623
 3887SOL    HW112047   2.759   0.494   4.527
 3887SOL    HW212048   2.832   0.421   4.654
 3888SOL     OW12049   2.401   0.064   4.236
 3888SOL    HW112050   2.320   0.065   4.294
 3888SOL    HW212051   2.404   0.147   4.181
 3889SOL     OW12052   3.296   1.188   3.765
 3889SOL    HW112053   3.328   1.112   3.822
 3889SOL    HW212054   3.204   1.215   3.795
 3890SOL     OW12055   2.159   0.035   3.895
 3890SOL    HW112056   2.208   0.119   3.874
 3890SOL    HW212057   2.221  -0.030   3.940
 3891SOL     OW12058   2.797   0.236   4.204
 3891SOL    HW112059   2.749   0.277   4.126
 3891SOL    HW212060   2.896   0.234   4.185
 3892SOL     OW12061   2.938   0.683   5.188
 3892SOL    HW112062   2.858   0.622   5.191
 3892SOL    HW212063   3.019   0.630   5.164
 3893SOL     OW12064   3.089   1.570   4.517
 3893SOL    HW112065   3.110   1.644   4.452
 3893SOL    HW212066   3.157   1.570   4.590
 3894SOL     OW12067   2.321   1.152   4.465
 3894SOL    HW112068   2.250   1.125   4.530
 3894SOL    HW212069   2.295   1.124   4.372
 3895SOL     OW12070   3.133   1.797   4.315
 3895SOL    HW112071   3.177   1.861   4.251
 3895SOL    HW212072   3.083   1.849   4.385
 3896SOL     OW12073   2.894   0.549   3.740
 3896SOL    HW112074   2.853   0.631   3.701
 3896SOL    HW212075   2.958   0.575   3.813
 3897SOL     OW12076   1.940   0.556   5.110
 3897SOL    HW112077   2.032   0.555   5.069
 3897SOL    HW212078   1.934   0.630   5.177
 3898SOL     OW12079   2.423   0.222   4.871
 3898SOL    HW112080   2.461   0.138   4.908
 3898SOL    HW212081   2.335   0.241   4.915
 3899SOL     OW12082   2.728   0.454   4.366
 3899SOL    HW112083   2.696   0.526   4.304
 3899SOL    HW212084   2.752   0.373   4.313
 3900SOL     OW12085   2.879   0.039   4.477
 3900SOL    HW112086   2.807   0.044   4.408
 3900SOL    HW212087   2.855  -0.030   4.546
 3901SOL     OW12088   3.291   1.173   4.591
 3901SOL    HW112089   3.236   1.089   4.584
 3901SOL    HW212090   3.317   1.202   4.499
 3902SOL     OW12091   3.328   0.590   4.716
 3902SOL    HW112092   3.298   0.495   4.723
 3902SOL    HW212093   3.401   0.606   4.782
 3903SOL     OW12094   3.719   0.833   4.101
 3903SOL    HW112095   3.761   0.769   4.165
 3903SOL    HW212096   3.681   0.782   4.023
 3904SOL     OW12097   2.350   1.385   3.898
 3904SOL    HW112098   2.263   1.370   3.945
 3904SOL    HW212099   2.333   1.411   3.803
 3905SOL     OW12100   3.526   1.280   4.381
 3905SOL    HW112101   3.625   1.288   4.395
 3905SOL    HW212102   3.481   1.364   4.412
 3906SOL     OW12103   3.252   0.575   3.802
 3906SOL    HW112104   3.198   0.554   3.883
 3906SOL    HW212105   3.343   0.534   3.811
 3907SOL     OW12106   2.389   0.256   4.052
 3907SOL    HW112107   2.416   0.197   3.977
 3907SOL    HW212108   2.389   0.351   4.021
 3908SOL     OW12109   3.616   1.223   5.312
 3908SOL    HW112110   3.707   1.184   5.299
 3908SOL    HW212111   3.624   1.319   5.336
 3909SOL     OW12112   2.926   1.347   5.064
 3909SOL    HW112113   2.846   1.324   5.119
 3909SOL    HW212114   3.009   1.321   5.113
 3910SOL     OW12115   3.454   1.629   5.349
 3910SOL    HW112116   3.481   1.663   5.259
 3910SOL    HW212117   3.533   1.591   5.395
 3911SOL     OW12118   2.973   1.195   4.824
 3911SOL    HW112119   2.933   1.239   4.905
 3911SOL    HW212120   2.932   1.232   4.741
 3912SOL     OW12121   3.500   1.099   4.803
 3912SOL    HW112122   3.505   1.180   4.862
 3912SOL    HW212123   3.414   1.101   4.752
 3913SOL     OW12124   2.777   0.089   5.126
 3913SOL    HW112125   2.802   0.069   5.031
 3913SOL    HW212126   2.849   0.145   5.168
 3914SOL     OW12127   2.842   1.116   5.443
 3914SOL    HW112128   2.743   1.122   5.453
 3914SOL    HW212129   2.865   1.036   5.387
 3915SOL     OW12130   2.567   1.050   4.092
 3915SOL    HW112131   2.553   1.057   4.191
 3915SOL    HW212132   2.651   0.999   4.074
 3916SOL     OW12133   2.272   0.813   4.975
 3916SOL    HW112134   2.358   0.825   5.025
 3916SOL    HW212135   2.230   0.726   5.002
 3917SOL     OW12136   3.136   0.386   4.986
 3917SOL    HW112137   3.157   0.460   5.050
 3917SOL    HW212138   3.047   0.403   4.943
 3918SOL     OW12139   1.926   1.564   5.055
 3918SOL    HW112140   1.880   1.646   5.021
 3918SOL    HW212141   2.024   1.583   5.064
 3919SOL     OW12142   2.229   1.100   4.225
 3919SOL    HW112143   2.222   1.183   4.169
 3919SOL    HW212144   2.233   1.020   4.165
 3920SOL     OW12145   2.428   0.537   4.589
 3920SOL    HW112146   2.440   0.603   4.515
 3920SOL    HW212147   2.474   0.571   4.672
 3921SOL     OW12148   3.114   1.348   4.112
 3921SOL    HW112149   3.164   1.425   4.152
 3921SOL    HW212150   3.019   1.350   4.144
 3922SOL     OW12151   3.134   1.445   4.866
 3922SOL    HW112152   3.181   1.458   4.953
 3922SOL    HW212153   3.068   1.371   4.875
 3923SOL     OW12154   3.444   0.639   4.196
 3923SOL    HW112155   3.413   0.700   4.269
 3923SOL    HW212156   3.494   0.691   4.127
 3924SOL     OW12157   2.216   1.510   5.053
 3924SOL    HW112158   2.195   1.466   4.966
 3924SOL    HW212159   2.313   1.536   5.056
 3925SOL     OW12160   2.264   0.751   5.322
 3925SOL    HW112161   2.332   0.806   5.275
 3925SOL    HW212162   2.304   0.663   5.349
 3926SOL     OW12163   3.449   0.779   5.394
 3926SOL    HW112164   3.357   0.817   5.389
 3926SOL    HW212165   3.509   0.826   5.329
 3927SOL     OW12166   2.875   0.105   5.494
 3927SOL    HW112167   2.881   0.190   5.442
 3927SOL    HW212168   2.907   0.029   5.437
 3928SOL     OW12169   2.366   0.050   5.464
 3928SOL    HW112170   2.324  -0.007   5.394
 3928SOL    HW212171   2.300   0.119   5.496
 3929SOL     OW12172   2.435   0.870   4.753
 3929SOL    HW112173   2.479   0.959   4.744
 3929SOL    HW212174   2.372   0.870   4.830
 3930SOL     OW12175   3.222   0.862   4.769
 3930SOL    HW112176   3.147   0.862   4.703
 3930SOL    HW212177   3.259   0.770   4.778
 3931SOL     OW12178   3.071   0.525   3.999
 3931SOL    HW112179   3.084   0.441   4.053
 3931SOL    HW212180   3.042   0.599   4.059
 3932SOL     OW12181   2.169   0.213   4.955
 3932SOL    HW112182   2.146   0.250   5.045
 3932SOL    HW212183   2.139   0.118   4.949
 3933SOL     OW12184   1.899   1.310   5.006
 3933SOL    HW112185   1.952   1.261   5.074
 3933SOL    HW212186   1.921   1.408   5.011
 3934SOL     OW12187   2.594   0.634   4.788
 3934SOL    HW112188   2.653   0.608   4.712
 3934SOL    HW212189   2.566   0.730   4.777
 3935SOL     OW12190   3.590   0.935   5.578
 3935SOL    HW112191   3.544   0.928   5.489
 3935SOL    HW212192   3.528   0.979   5.644
 3936SOL     OW12193   2.169   0.063   4.342
 3936SOL    HW112194   2.158   0.157   4.375
 3936SOL    HW212195   2.164   0.000   4.419
 3937SOL     OW12196   3.484   0.367   4.098
 3937SOL    HW112197   3.486   0.291   4.162
 3937SOL    HW212198   3.436   0.444   4.138
 3938SOL     OW12199   2.885   0.766   4.690
 3938SOL    HW112200   2.900   0.787   4.786
 3938SOL    HW212201   2.855   0.671   4.681
 3939SOL     OW12202   2.842   1.573   5.424
 3939SOL    HW112203   2.822   1.617   5.336
 3939SOL    HW212204   2.881   1.482   5.408
 3940SOL     OW12205   3.721   1.518   5.329
 3940SOL    HW112206   3.735   1.545   5.234
 3940SOL    HW212207   3.804   1.540   5.382
 3941SOL     OW12208   2.212   0.898   5.528
 3941SOL    HW112209   2.288   0.942   5.576
 3941SOL    HW212210   2.247   0.851   5.446
 3942SOL     OW12211   3.402   0.274   3.849
 3942SOL    HW112212   3.341   0.199   3.872
 3942SOL    HW212213   3.424   0.326   3.932
 3943SOL     OW12214   3.165   0.838   3.766
 3943SOL    HW112215   3.199   0.745   3.781
 3943SOL    HW212216   3.183   0.865   3.671
 3944SOL     OW12217   2.930   1.333   4.573
 3944SOL    HW112218   2.937   1.249   4.518
 3944SOL    HW212219   2.992   1.402   4.537
 3945SOL     OW12220   2.181   0.810   4.673
 3945SOL    HW112221   2.274   0.846   4.678
 3945SOL    HW212222   2.175   0.725   4.725
 3946SOL     OW12223   2.201   0.509   4.730
 3946SOL    HW112224   2.149   0.426   4.713
 3946SOL    HW212225   2.278   0.514   4.666
 3947SOL     OW12226   3.000   0.380   5.402
 3947SOL    HW112227   2.955   0.443   5.466
 3947SOL    HW212228   3.093   0.411   5.385
 3948SOL     OW12229   3.022   0.207   5.201
 3948SOL    HW112230   3.022   0.271   5.278
 3948SOL    HW212231   3.050   0.255   5.118
 3949SOL     OW12232   1.870   1.326   3.924
 3949SOL    HW112233   1.777   1.347   3.893
 3949SOL    HW212234   1.880   1.227   3.937
 3950SOL     OW12235   1.950   1.801   4.651
 3950SOL    HW112236   1.908   1.715   4.624
 3950SOL    HW212237   2.044   1.804   4.617
 3951SOL     OW12238   2.366   1.568   4.634
 3951SOL    HW112239   2.432   1.642   4.643
 3951SOL    HW212240   2.410   1.489   4.592
 3952SOL     OW12241   2.864   0.796   4.962
 3952SOL    HW112242   2.905   0.764   5.048
 3952SOL    HW212243   2.768   0.769   4.959
 3953SOL     OW12244   1.902   0.544   4.838
 3953SOL    HW112245   1.987   0.511   4.797
 3953SOL    HW212246   1.915   0.559   4.936
 3954SOL     OW12247   2.051   0.520   5.446
 3954SOL    HW112248   2.110   0.480   5.376
 3954SOL    HW212249   1.993   0.591   5.405
 3955SOL     OW12250   3.231   0.950   5.384
 3955SOL    HW112251   3.270   1.039   5.404
 3955SOL    HW212252   3.241   0.930   5.287
 3956SOL     OW12253   2.677   0.572   4.049
 3956SOL    HW112254   2.684   0.483   4.003
 3956SOL    HW212255   2.583   0.606   4.041
 3957SOL     OW12256   3.519   0.604   4.930
 3957SOL    HW112257   3.481   0.535   4.992
 3957SOL    HW212258   3.601   0.568   4.886
 3958SOL     OW12259   2.114   1.564   5.468
 3958SOL    HW112260   2.084   1.621   5.544
 3958SOL    HW212261   2.107   1.467   5.494
 3959SOL     OW12262   2.533   0.464   4.993
 3959SOL    HW112263   2.499   0.375   4.963
 3959SOL    HW212264   2.559   0.518   4.913
 3960SOL     OW12265   2.792   1.678   5.189
 3960SOL    HW112266   2.768   1.660   5.094
 3960SOL    HW212267   2.822   1.772   5.199
 3961SOL     OW12268   2.335   0.500   3.915
 3961SOL    HW112269   2.396   0.580   3.919
 3961SOL    HW212270   2.240   0.531   3.922
 3962SOL     OW12271   2.021   1.137   5.190
 3962SOL    HW112272   2.043   1.076   5.266
 3962SOL    HW212273   2.031   1.088   5.104
 3963SOL     OW12274   3.209   1.059   4.958
 3963SOL    HW112275   3.233   0.996   4.884
 3963SOL    HW212276   3.119   1.099   4.940
 3964SOL     OW12277   3.164   0.855   4.033
 3964SOL    HW112278   3.078   0.824   4.075
 3964SOL    HW212279   3.160   0.841   3.934
 3965SOL     OW12280   3.621   1.747   4.878
 3965SOL    HW112281   3.682   1.777   4.805
 3965SOL    HW212282   3.583   1.658   4.856
 3966SOL     OW12283   3.114   1.731   4.852
 3966SOL    HW112284   3.198   1.736   4.798
 3966SOL    HW212285   3.091   1.635   4.870
 3967SOL     OW12286   1.945   1.258   4.746
 3967SOL    HW112287   1.940   1.257   4.846
 3967SOL    HW212288   1.862   1.217   4.708
 3968SOL     OW12289   2.550   1.662   5.440
 3968SOL    HW112290   2.494   1.743   5.449
 3968SOL    HW212291   2.602   1.666   5.354
 3969SOL     OW12292   3.588   0.135   4.247
 3969SOL    HW112293   3.661   0.118   4.180
 3969SOL    HW212294   3.557   0.048   4.285
 3970SOL     OW12295   3.250   1.573   4.201
 3970SOL    HW112296   3.317   1.585   4.127
 3970SOL    HW212297   3.210   1.662   4.224
 3971SOL     OW12298   1.992   1.794   5.575
 3971SOL    HW112299   1.951   1.720   5.628
 3971SOL    HW212300   2.056   1.845   5.633
 3972SOL     OW12301   3.142   0.927   4.396
 3972SOL    HW112302   3.202   0.846   4.398
 3972SOL    HW212303   3.182   0.996   4.336
 3973SOL     OW12304   2.692   1.273   5.146
 3973SOL    HW112305   2.687   1.306   5.241
 3973SOL    HW212306   2.606   1.292   5.100
 3974SOL     OW12307   2.534   1.616   3.878
 3974SOL    HW112308   2.543   1.626   3.779
 3974SOL    HW212309   2.494   1.527   3.899
 3975SOL     OW12310   3.512   1.720   5.118
 3975SOL    HW112311   3.565   1.730   5.034
 3975SOL    HW212312   3.485   1.810   5.152
 3976SOL     OW12313   3.703   0.175   4.687
 3976SOL    HW112314   3.742   0.090   4.651
 3976SOL    HW212315   3.605   0.177   4.668
 3977SOL     OW12316   2.125   0.326   4.444
 3977SOL    HW112317   2.046   0.377   4.410
 3977SOL    HW212318   2.116   0.311   4.542
 3978SOL     OW12319   3.056   1.612   3.755
 3978SOL    HW112320   3.062   1.519   3.792
 3978SOL    HW212321   2.997   1.612   3.675
 3979SOL     OW12322   2.684   1.002   5.096
 3979SOL    HW112323   2.724   1.001   5.004
 3979SOL    HW212324   2.694   1.094   5.136
 3980SOL     OW12325   2.778   0.910   4.015
 3980SOL    HW112326   2.841   0.948   3.947
 3980SOL    HW212327   2.818   0.827   4.054
 3981SOL     OW12328   3.366   1.607   3.768
 3981SOL    HW112329   3.274   1.644   3.775
 3981SOL    HW212330   3.404   1.627   3.678
 3982SOL     OW12331   2.234   1.288   5.214
 3982SOL    HW112332   2.221   1.381   5.180
 3982SOL    HW212333   2.150   1.236   5.201
 3983SOL     OW12334   3.476   1.292   5.013
 3983SOL    HW112335   3.536   1.295   5.093
 3983SOL    HW212336   3.401   1.356   5.026
 3984SOL     OW12337   2.901   1.098   4.420
 3984SOL    HW112338   2.831   1.051   4.474
 3984SOL    HW212339   2.960   1.030   4.377
 3985SOL     OW12340   2.876   0.236   4.695
 3985SOL    HW112341   2.868   0.200   4.602
 3985SOL    HW212342   2.874   0.160   4.760
 3986SOL     OW12343   2.452   1.487   4.215
 3986SOL    HW112344   2.494   1.429   4.145
 3986SOL    HW212345   2.408   1.566   4.171
 3987SOL     OW12346   3.571   0.385   5.105
 3987SOL    HW112347   3.644   0.454   5.109
 3987SOL    HW212348   3.599   0.310   5.046
 3988SOL     OW12349   2.117   1.348   4.014
 3988SOL    HW112350   2.021   1.349   3.987
 3988SOL    HW212351   2.129   1.401   4.098
 3989SOL     OW12352   1.967   1.013   5.450
 3989SOL    HW112353   1.890   0.980   5.504
 3989SOL    HW212354   2.052   0.983   5.492
 3990SOL     OW12355   2.534   0.203   5.213
 3990SOL    HW112356   2.624   0.187   5.173
 3990SOL    HW212357   2.542   0.208   5.312
 3991SOL     OW12358   1.937   0.345   3.757
 3991SOL    HW112359   1.845   0.317   3.728
 3991SOL    HW212360   1.968   0.422   3.701
 3992SOL     OW12361   3.302   0.856   5.122
 3992SOL    HW112362   3.245   0.908   5.059
 3992SOL    HW212363   3.398   0.868   5.098
 3993SOL     OW12364   1.934   0.166   4.042
 3993SOL    HW112365   1.917   0.249   3.988
 3993SOL    HW212366   2.024   0.129   4.020
 3994SOL     OW12367   3.045   1.335   3.843
 3994SOL    HW112368   2.946   1.324   3.845
 3994SOL    HW212369   3.079   1.350   3.936
 3995SOL     OW12370   2.475   0.842   5.155
 3995SOL    HW112371   2.531   0.923   5.138
 3995SOL    HW212372   2.534   0.762   5.158
 3996SOL     OW12373   3.355   1.767   4.683
 3996SOL    HW112374   3.388   1.831   4.614
 3996SOL    HW212375   3.421   1.761   4.758
 3997SOL     OW12376   2.578   0.565   5.432
 3997SOL    HW112377   2.597   0.630   5.506
 3997SOL    HW212378   2.638   0.485   5.441
 3998SOL     OW12379   3.312   1.220   5.357
 3998SOL    HW112380   3.303   1.210   5.456
 3998SOL    HW212381   3.408   1.213   5.331
 3999SOL     OW12382   2.252   1.741   5.284
 3999SOL    HW112383   2.161   1.782   5.282
 3999SOL    HW212384   2.245   1.647   5.316
 4000SOL     OW12385   3.536   0.883   4.978
 4000SOL    HW112386   3.509   0.794   4.941
 4000SOL    HW212387   3.537   0.951   4.905
 4001SOL     OW12388   3.087   0.325   4.173
 4001SOL    HW112389   3.152   0.251   4.162
 4001SOL    HW212390   3.107   0.375   4.257
 4002SOL     OW12391   2.456   0.745   4.376
 4002SOL    HW112392   2.506   0.830   4.357
 4002SOL    HW212393   2.368   0.747   4.328
 4003SOL     OW12394   3.639   0.342   5.366
 4003SOL    HW112395   3.622   0.373   5.272
 4003SOL    HW212396   3.555   0.305   5.404
 4004SOL     OW12397   3.592   0.934   5.241
 4004SOL    HW112398   3.630   1.025   5.256
 4004SOL    HW212399   3.584   0.917   5.142
 4005SOL     OW12400   2.721   1.374   3.740
 4005SOL    HW112401   2.675   1.389   3.828
 4005SOL    HW212402   2.765   1.459   3.710
 4006SOL     OW12403   2.523   1.790   4.677
 4006SOL    HW112404   2.477   1.878   4.664
 4006SOL    HW212405   2.622   1.802   4.670
 4007SOL     OW12406   2.721   0.956   4.585
 4007SOL    HW112407   2.775   0.887   4.633
 4007SOL    HW212408   2.689   1.025   4.651
 4008SOL     OW12409   2.945   0.984   3.811
 4008SOL    HW112410   2.922   1.037   3.729
 4008SOL    HW212411   3.026   0.928   3.792
 4009SOL     OW12412   3.723   1.569   4.575
 4009SOL    HW112413   3.652   1.557   4.505
 4009SOL    HW212414   3.724   1.490   4.635
 4010SOL     OW12415   2.083   1.314   5.568
 4010SOL    HW112416   2.018   1.241   5.547
 4010SOL    HW212417   2.087   1.328   5.666
 4011SOL     OW12418   1.941   1.240   4.377
 4011SOL    HW112419   1.940   1.193   4.465
 4011SOL    HW212420   2.023   1.212   4.326
 4012SOL     OW12421   2.534   1.391   5.348
 4012SOL    HW112422   2.456   1.341   5.386
 4012SOL    HW212423   2.531   1.486   5.379
 4013SOL     OW12424   3.686   0.192   4.951
 4013SOL    HW112425   3.682   0.102   4.995
 4013SOL    HW212426   3.689   0.181   4.852
 4014SOL     OW12427   2.290   0.424   4.244
 4014SOL    HW112428   2.320   0.352   4.182
 4014SOL    HW212429   2.251   0.384   4.327
 4015SOL     OW12430   3.567   1.487   4.828
 4015SOL    HW112431   3.474   1.462   4.801
 4015SOL    HW212432   3.593   1.437   4.910
 4016SOL     OW12433   2.179   0.547   5.004
 4016SOL    HW112434   2.217   0.488   5.076
 4016SOL    HW212435   2.219   0.521   4.916
 4017SOL     OW12436   2.674   1.586   4.411
 4017SOL    HW112437   2.706   1.596   4.317
 4017SOL    HW212438   2.595   1.524   4.413
 4018SOL     OW12439   3.286   0.214   4.836
 4018SOL    HW112440   3.338   0.149   4.891
 4018SOL    HW212441   3.237   0.277   4.897
 4019SOL     OW12442   2.863   0.034   4.878
 4019SOL    HW112443   2.800  -0.038   4.847
 4019SOL    HW212444   2.956  -0.002   4.878
 4020SOL     OW12445   2.632   1.330   4.025
 4020SOL    HW112446   2.586   1.243   4.042
 4020SOL    HW212447   2.723   1.327   4.066
 4021SOL     OW12448   2.480   1.567   5.008
 4021SOL    HW112449   2.475   1.649   5.065
 4021SOL    HW212450   2.569   1.564   4.963
 4022SOL     OW12451   3.214   0.052   3.892
 4022SOL    HW112452   3.249   0.011   3.808
 4022SOL    HW212453   3.124   0.014   3.912
 4023SOL     OW12454   3.162   0.453   4.415
 4023SOL    HW112455   3.103   0.533   4.419
 4023SOL    HW212456   3.177   0.418   4.508
 4024SOL     OW12457   3.455   0.221   4.606
 4024SOL    HW112458   3.371   0.220   4.660
 4024SOL    HW212459   3.457   0.304   4.550
 4025SOL     OW12460   1.901   1.077   4.024
 4025SOL    HW112461   2.000   1.066   4.015
 4025SOL    HW212462   1.861   0.991   4.056
 4026SOL     OW12463   2.737   1.646   4.061
 4026SOL    HW112464   2.660   1.611   4.007
 4026SOL    HW212465   2.705   1.717   4.123
 4027SOL     OW12466   2.092   0.628   5.699
 4027SOL    HW112467   1.999   0.626   5.736
 4027SOL    HW212468   2.093   0.589   5.607
 4028SOL     OW12469   2.087   0.275   6.582
 4028SOL    HW112470   2.122   0.258   6.674
 4028SOL    HW212471   1.999   0.230   6.570
 4029SOL     OW12472   1.881   0.368   6.233
 4029SOL    HW112473   1.799   0.411   6.272
 4029SOL    HW212474   1.853   0.295   6.170
 4030SOL     OW12475   3.417   1.511   6.289
 4030SOL    HW112476   3.360   1.495   6.370
 4030SOL    HW212477   3.358   1.521   6.209
 4031SOL     OW12478   2.997   0.703   6.303
 4031SOL    HW112479   3.054   0.781   6.278
 4031SOL    HW212480   2.937   0.729   6.379
 4032SOL     OW12481   3.617   0.607   5.817
 4032SOL    HW112482   3.605   0.594   5.718
 4032SOL    HW212483   3.587   0.526   5.866
 4033SOL     OW12484   2.630   1.144   6.609
 4033SOL    HW112485   2.552   1.161   6.669
 4033SOL    HW212486   2.664   1.231   6.573
 4034SOL     OW12487   2.712   0.798   7.409
 4034SOL    HW112488   2.708   0.874   7.474
 4034SOL    HW212489   2.734   0.834   7.318
 4035SOL     OW12490   2.547   1.012   6.251
 4035SOL    HW112491   2.616   0.996   6.321
 4035SOL    HW212492   2.474   1.069   6.289
 4036SOL     OW12493   2.548   1.161   7.389
 4036SOL    HW112494   2.608   1.240   7.403
 4036SOL    HW212495   2.462   1.192   7.348
 4037SOL     OW12496   3.322   1.505   6.925
 4037SOL    HW112497   3.346   1.599   6.951
 4037SOL    HW212498   3.306   1.451   7.007
 4038SOL     OW12499   2.300   0.392   7.085
 4038SOL    HW112500   2.382   0.336   7.094
 4038SOL    HW212501   2.219   0.334   7.089
 4039SOL     OW12502   3.465   0.447   6.323
 4039SOL    HW112503   3.391   0.493   6.273
 4039SOL    HW212504   3.516   0.515   6.376
 4040SOL     OW12505   2.093   1.713   6.069
 4040SOL    HW112506   2.127   1.790   6.123
 4040SOL    HW212507   2.137   1.713   5.979
 4041SOL     OW12508   2.989   1.341   7.276
 4041SOL    HW112509   3.036   1.341   7.364
 4041SOL    HW212510   2.941   1.254   7.265
 4042SOL     OW12511   2.092   1.434   6.124
 4042SOL    HW112512   2.066   1.530   6.124
 4042SOL    HW212513   2.021   1.380   6.169
 4043SOL     OW12514   2.102   1.091   6.472
 4043SOL    HW112515   2.116   1.007   6.524
 4043SOL    HW212516   2.047   1.155   6.527
 4044SOL     OW12517   2.468   0.964   5.709
 4044SOL    HW112518   2.475   1.048   5.655
 4044SOL    HW212519   2.514   0.977   5.797
 4045SOL     OW12520   3.456   0.114   7.066
 4045SOL    HW112521   3.438   0.181   6.994
 4045SOL    HW212522   3.453   0.160   7.155
 4046SOL     OW12523   1.984   0.643   6.149
 4046SOL    HW112524   1.939   0.555   6.166
 4046SOL    HW212525   1.983   0.697   6.233
 4047SOL     OW12526   3.704   1.767   5.945
 4047SOL    HW112527   3.758   1.738   6.025
 4047SOL    HW212528   3.734   1.857   5.916
 4048SOL     OW12529   1.889   1.596   5.703
 4048SOL    HW112530   1.870   1.500   5.724
 4048SOL    HW212531   1.856   1.654   5.778
 4049SOL     OW12532   3.551   0.922   6.198
 4049SOL    HW112533   3.646   0.893   6.206
 4049SOL    HW212534   3.543   0.987   6.123
 4050SOL     OW12535   3.503   1.108   6.018
 4050SOL    HW112536   3.589   1.110   5.966
 4050SOL    HW212537   3.517   1.155   6.106
 4051SOL     OW12538   1.975   0.737   7.183
 4051SOL    HW112539   2.063   0.724   7.228
 4051SOL    HW212540   1.962   0.834   7.161
 4052SOL     OW12541   2.475   1.365   6.312
 4052SOL    HW112542   2.426   1.278   6.321
 4052SOL    HW212543   2.452   1.408   6.225
 4053SOL     OW12544   3.155   1.228   7.009
 4053SOL    HW112545   3.192   1.155   6.951
 4053SOL    HW212546   3.207   1.233   7.094
 4054SOL     OW12547   2.671   0.004   6.088
 4054SOL    HW112548   2.711   0.095   6.079
 4054SOL    HW212549   2.571   0.012   6.094
 4055SOL     OW12550   2.059   0.976   6.850
 4055SOL    HW112551   2.148   0.931   6.836
 4055SOL    HW212552   1.986   0.911   6.831
 4056SOL     OW12553   3.387   0.999   5.776
 4056SOL    HW112554   3.324   0.923   5.789
 4056SOL    HW212555   3.435   1.017   5.862
 4057SOL     OW12556   3.049   1.792   7.202
 4057SOL    HW112557   3.073   1.852   7.126
 4057SOL    HW212558   3.056   1.697   7.172
 4058SOL     OW12559   2.179   0.251   7.387
 4058SOL    HW112560   2.250   0.322   7.393
 4058SOL    HW212561   2.091   0.290   7.415
 4059SOL     OW12562   3.328   1.417   6.539
 4059SOL    HW112563   3.269   1.423   6.619
 4059SOL    HW212564   3.313   1.329   6.493
 4060SOL     OW12565   3.529   1.714   6.158
 4060SOL    HW112566   3.488   1.691   6.070
 4060SOL    HW212567   3.511   1.640   6.223
 4061SOL     OW12568   2.460   0.729   5.856
 4061SOL    HW112569   2.484   0.798   5.788
 4061SOL    HW212570   2.382   0.762   5.910
 4062SOL     OW12571   3.143   0.345   6.530
 4062SOL    HW112572   3.057   0.295   6.517
 4062SOL    HW212573   3.205   0.291   6.586
 4063SOL     OW12574   3.438   1.662   5.893
 4063SOL    HW112575   3.527   1.708   5.896
 4063SOL    HW212576   3.417   1.638   5.798
 4064SOL     OW12577   2.669   0.605   7.051
 4064SOL    HW112578   2.622   0.602   7.140
 4064SOL    HW212579   2.618   0.550   6.985
 4065SOL     OW12580   3.256   0.469   7.260
 4065SOL    HW112581   3.236   0.512   7.348
 4065SOL    HW212582   3.334   0.407   7.269
 4066SOL     OW12583   2.835   0.890   7.158
 4066SOL    HW112584   2.881   0.806   7.129
 4066SOL    HW212585   2.779   0.924   7.083
 4067SOL     OW12586   2.853   0.410   6.828
 4067SOL    HW112587   2.776   0.444   6.882
 4067SOL    HW212588   2.819   0.359   6.749
 4068SOL     OW12589   2.903   0.701   6.015
 4068SOL    HW112590   2.929   0.697   6.111
 4068SOL    HW212591   2.818   0.650   6.001
 4069SOL     OW12592   1.938   0.811   6.375
 4069SOL    HW112593   2.037   0.799   6.384
 4069SOL    HW212594   1.914   0.906   6.396
 4070SOL     OW12595   2.727   0.348   5.781
 4070SOL    HW112596   2.786   0.411   5.732
 4070SOL    HW212597   2.746   0.254   5.752
 4071SOL     OW12598   3.581   0.585   7.417
 4071SOL    HW112599   3.555   0.674   7.381
 4071SOL    HW212600   3.579   0.517   7.344
 4072SOL     OW12601   3.224   1.144   6.131
 4072SOL    HW112602   3.307   1.115   6.083
 4072SOL    HW212603   3.175   1.211   6.075
 4073SOL     OW12604   2.412   0.196   6.471
 4073SOL    HW112605   2.407   0.191   6.571
 4073SOL    HW212606   2.414   0.292   6.442
 4074SOL     OW12607   2.870   1.456   6.063
 4074SOL    HW112608   2.824   1.528   6.011
 4074SOL    HW212609   2.866   1.476   6.161
 4075SOL     OW12610   2.213   1.801   6.439
 4075SOL    HW112611   2.263   1.715   6.445
 4075SOL    HW212612   2.278   1.878   6.436
 4076SOL     OW12613   3.657   1.066   6.459
 4076SOL    HW112614   3.595   1.051   6.383
 4076SOL    HW212615   3.605   1.077   6.544
 4077SOL     OW12616   3.089   1.550   7.092
 4077SOL    HW112617   3.095   1.473   7.156
 4077SOL    HW212618   3.037   1.524   7.012
 4078SOL     OW12619   2.183   0.943   5.828
 4078SOL    HW112620   2.265   0.982   5.786
 4078SOL    HW212621   2.156   0.861   5.779
 4079SOL     OW12622   3.320   0.735   6.314
 4079SOL    HW112623   3.315   0.670   6.389
 4079SOL    HW212624   3.400   0.794   6.327
 4080SOL     OW12625   2.323   1.266   7.313
 4080SOL    HW112626   2.273   1.267   7.227
 4080SOL    HW212627   2.260   1.248   7.389
 4081SOL     OW12628   2.973   1.776   5.823
 4081SOL    HW112629   2.913   1.714   5.873
 4081SOL    HW212630   3.004   1.732   5.738
 4082SOL     OW12631   2.064   0.285   7.084
 4082SOL    HW112632   1.984   0.345   7.071
 4082SOL    HW212633   2.054   0.236   7.170
 4083SOL     OW12634   3.494   1.377   5.667
 4083SOL    HW112635   3.462   1.471   5.657
 4083SOL    HW212636   3.418   1.314   5.655
 4084SOL     OW12637   2.326   1.743   5.909
 4084SOL    HW112638   2.359   1.782   5.995
 4084SOL    HW212639   2.402   1.736   5.844
 4085SOL     OW12640   3.262   0.107   6.012
 4085SOL    HW112641   3.238   0.070   5.922
 4085SOL    HW212642   3.361   0.123   6.016
 4086SOL     OW12643   2.802   1.698   6.490
 4086SOL    HW112644   2.882   1.641   6.511
 4086SOL    HW212645   2.753   1.658   6.413
 4087SOL     OW12646   2.244   0.700   6.066
 4087SOL    HW112647   2.289   0.610   6.063
 4087SOL    HW212648   2.150   0.689   6.099
 4088SOL     OW12649   3.409   0.222   7.315
 4088SOL    HW112650   3.404   0.259   7.407
 4088SOL    HW212651   3.337   0.153   7.303
 4089SOL     OW12652   2.476   0.122   5.703
 4089SOL    HW112653   2.574   0.100   5.710
 4089SOL    HW212654   2.445   0.105   5.610
 4090SOL     OW12655   2.643   0.264   7.335
 4090SOL    HW112656   2.710   0.203   7.378
 4090SOL    HW212657   2.570   0.283   7.400
 4091SOL     OW12658   2.750   1.514   6.781
 4091SOL    HW112659   2.727   1.489   6.687
 4091SOL    HW212660   2.811   1.445   6.820
 4092SOL     OW12661   3.213   0.590   7.019
 4092SOL    HW112662   3.241   0.547   7.104
 4092SOL    HW212663   3.238   0.686   7.020
 4093SOL     OW12664   2.665   1.402   6.510
 4093SOL    HW112665   2.755   1.416   6.468
 4093SOL    HW212666   2.594   1.404   6.439
 4094SOL     OW12667   2.784   0.503   6.485
 4094SOL    HW112668   2.759   0.494   6.389
 4094SOL    HW212669   2.832   0.421   6.516
 4095SOL     OW12670   2.401   0.064   6.098
 4095SOL    HW112671   2.320   0.065   6.156
 4095SOL    HW212672   2.404   0.147   6.043
 4096SOL     OW12673   3.296   1.188   5.627
 4096SOL    HW112674   3.328   1.112   5.684
 4096SOL    HW212675   3.204   1.215   5.657
 4097SOL     OW12676   2.159   0.035   5.757
 4097SOL    HW112677   2.208   0.119   5.736
 4097SOL    HW212678   2.221  -0.030   5.802
 4098SOL     OW12679   2.797   0.236   6.066
 4098SOL    HW112680   2.749   0.277   5.988
 4098SOL    HW212681   2.896   0.234   6.047
 4099SOL     OW12682   2.938   0.683   7.050
 4099SOL    HW112683   2.858   0.622   7.053
 4099SOL    HW212684   3.019   0.630   7.026
 4100SOL     OW12685   3.089   1.570   6.379
 4100SOL    HW112686   3.110   1.644   6.314
 4100SOL    HW212687   3.157   1.570   6.452
 4101SOL     OW12688   2.321   1.152   6.327
 4101SOL    HW112689   2.250   1.125   6.392
 4101SOL    HW212690   2.295   1.124   6.234
 4102SOL     OW12691   3.133   1.797   6.177
 4102SOL    HW112692   3.177   1.861   6.113
 4102SOL    HW212693   3.083   1.849   6.247
 4103SOL     OW12694   2.894   0.549   5.602
 4103SOL    HW112695   2.853   0.631   5.563
 4103SOL    HW212696   2.958   0.575   5.675
 4104SOL     OW12697   1.940   0.556   6.972
 4104SOL    HW112698   2.032   0.555   6.931
 4104SOL    HW212699   1.934   0.630   7.039
 4105SOL     OW12700   2.423   0.222   6.733
 4105SOL    HW112701   2.461   0.138   6.770
 4105SOL    HW212702   2.335   0.241   6.777
 4106SOL     OW12703   2.728   0.454   6.228
 4106SOL    HW112704   2.696   0.526   6.166
 4106SOL    HW212705   2.752   0.373   6.175
 4107SOL     OW12706   2.879   0.039   6.339
 4107SOL    HW112707   2.807   0.044   6.270
 4107SOL    HW212708   2.855  -0.030   6.408
 4108SOL     OW12709   3.291   1.173   6.453
 4108SOL    HW112710   3.236   1.089   6.446
 4108SOL    HW212711   3.317   1.202   6.361
 4109SOL     OW12712   3.328   0.590   6.578
 4109SOL    HW112713   3.298   0.495   6.585
 4109SOL    HW212714   3.401   0.606   6.644
 4110SOL     OW12715   3.719   0.833   5.963
 4110SOL    HW112716   3.761   0.769   6.027
 4110SOL    HW212717   3.681   0.782   5.885
 4111SOL     OW12718   2.350   1.385   5.760
 4111SOL    HW112719   2.263   1.370   5.807
 4111SOL    HW212720   2.333   1.411   5.665
 4112SOL     OW12721   3.526   1.280   6.243
 4112SOL    HW112722   3.625   1.288   6.257
 4112SOL    HW212723   3.481   1.364   6.274
 4113SOL     OW12724   3.252   0.575   5.664
 4113SOL    HW112725   3.198   0.554   5.745
 4113SOL    HW212726   3.343   0.534   5.673
 4114SOL     OW12727   2.389   0.256   5.914
 4114SOL    HW112728   2.416   0.197   5.839
 4114SOL    HW212729   2.389   0.351   5.883
 4115SOL     OW12730   3.616   1.223   7.174
 4115SOL    HW112731   3.707   1.184   7.161
 4115SOL    HW212732   3.624   1.319   7.198
 4116SOL     OW12733   2.926   1.347   6.926
 4116SOL    HW112734   2.846   1.324   6.981
 4116SOL    HW212735   3.009   1.321   6.975
 4117SOL     OW12736   3.454   1.629   7.211
 4117SOL    HW112737   3.481   1.663   7.121
 4117SOL    HW212738   3.533   1.591   7.257
 4118SOL     OW12739   2.973   1.195   6.686
 4118SOL    HW112740   2.933   1.239   6.767
 4118SOL    HW212741   2.932   1.232   6.603
 4119SOL     OW12742   3.500   1.099   6.665
 4119SOL    HW112743   3.505   1.180   6.724
 4119SOL    HW212744   3.414   1.101   6.614
 4120SOL     OW12745   2.777   0.089   6.988
 4120SOL    HW112746   2.802   0.069   6.893
 4120SOL    HW212747   2.849   0.145   7.030
 4121SOL     OW12748   2.842   1.116   7.305
 4121SOL    HW112749   2.743   1.122   7.315
 4121SOL    HW212750   2.865   1.036   7.249
 4122SOL     OW12751   2.567   1.050   5.954
 4122SOL    HW112752   2.553   1.057   6.053
 4122SOL    HW212753   2.651   0.999   5.936
 4123SOL     OW12754   2.272   0.813   6.837
 4123SOL    HW112755   2.358   0.825   6.887
 4123SOL    HW212756   2.230   0.726   6.864
 4124SOL     OW12757   3.136   0.386   6.848
 4124SOL    HW112758   3.157   0.460   6.912
 4124SOL    HW212759   3.047   0.403   6.805
 4125SOL     OW12760   2.229   1.100   6.087
 4125SOL    HW112761   2.222   1.183   6.031
 4125SOL    HW212762   2.233   1.020   6.027
 4126SOL     OW12763   2.428   0.537   6.451
 4126SOL    HW112764   2.440   0.603   6.377
 4126SOL    HW212765   2.474   0.571   6.534
 4127SOL     OW12766   3.114   1.348   5.974
 4127SOL    HW112767   3.164   1.425   6.014
 4127SOL    HW212768   3.019   1.350   6.006
 4128SOL     OW12769   3.134   1.445   6.728
 4128SOL    HW112770   3.181   1.458   6.815
 4128SOL    HW212771   3.068   1.371   6.737
 4129SOL     OW12772   3.444   0.639   6.058
 4129SOL    HW112773   3.413   0.700   6.131
 4129SOL    HW212774   3.494   0.691   5.989
 4130SOL     OW12775   2.264   0.751   7.184
 4130SOL    HW112776   2.332   0.806   7.137
 4130SOL    HW212777   2.304   0.663   7.211
 4131SOL     OW12778   3.449   0.779   7.256
 4131SOL    HW112779   3.357   0.817   7.251
 4131SOL    HW212780   3.509   0.826   7.191
 4132SOL     OW12781   2.875   0.105   7.356
 4132SOL    HW112782   2.881   0.190   7.304
 4132SOL    HW212783   2.907   0.029   7.299
 4133SOL     OW12784   2.366   0.050   7.326
 4133SOL    HW112785   2.324  -0.007   7.256
 4133SOL    HW212786   2.300   0.119   7.358
 4134SOL     OW12787   2.435   0.870   6.615
 4134SOL    HW112788   2.479   0.959   6.606
 4134SOL    HW212789   2.372   0.870   6.692
 4135SOL     OW12790   3.222   0.862   6.631
 4135SOL    HW112791   3.147   0.862   6.565
 4135SOL    HW212792   3.259   0.770   6.640
 4136SOL     OW12793   3.071   0.525   5.861
 4136SOL    HW112794   3.084   0.441   5.915
 4136SOL    HW212795   3.042   0.599   5.921
 4137SOL     OW12796   2.169   0.213   6.817
 4137SOL    HW112797   2.146   0.250   6.907
 4137SOL    HW212798   2.139   0.118   6.811
 4138SOL     OW12799   2.594   0.634   6.650
 4138SOL    HW112800   2.653   0.608   6.574
 4138SOL    HW212801   2.566   0.730   6.639
 4139SOL     OW12802   3.590   0.935   7.440
 4139SOL    HW112803   3.544   0.928   7.351
 4139SOL    HW212804   3.528   0.979   7.506
 4140SOL     OW12805   2.169   0.063   6.204
 4140SOL    HW112806   2.158   0.157   6.237
 4140SOL    HW212807   2.164   0.000   6.281
 4141SOL     OW12808   3.484   0.367   5.960
 4141SOL    HW112809   3.486   0.291   6.024
 4141SOL    HW212810   3.436   0.444   6.000
 4142SOL     OW12811   2.885   0.766   6.552
 4142SOL    HW112812   2.900   0.787   6.648
 4142SOL    HW212813   2.855   0.671   6.543
 4143SOL     OW12814   2.842   1.573   7.286
 4143SOL    HW112815   2.822   1.617   7.198
 4143SOL    HW212816   2.881   1.482   7.270
 4144SOL     OW12817   3.721   1.518   7.191
 4144SOL    HW112818   3.735   1.545   7.096
 4144SOL    HW212819   3.804   1.540   7.244
 4145SOL     OW12820   2.212   0.898   7.390
 4145SOL    HW112821   2.288   0.942   7.438
 4145SOL    HW212822   2.247   0.851   7.308
 4146SOL     OW12823   3.402   0.274   5.711
 4146SOL    HW112824   3.341   0.199   5.734
 4146SOL    HW212825   3.424   0.326   5.794
 4147SOL     OW12826   3.165   0.838   5.628
 4147SOL    HW112827   3.199   0.745   5.643
 4147SOL    HW212828   3.183   0.865   5.533
 4148SOL     OW12829   2.930   1.333   6.435
 4148SOL    HW112830   2.937   1.249   6.380
 4148SOL    HW212831   2.992   1.402   6.399
 4149SOL     OW12832   2.181   0.810   6.535
 4149SOL    HW112833   2.274   0.846   6.540
 4149SOL    HW212834   2.175   0.725   6.587
 4150SOL     OW12835   2.201   0.509   6.592
 4150SOL    HW112836   2.149   0.426   6.575
 4150SOL    HW212837   2.278   0.514   6.528
 4151SOL     OW12838   3.000   0.380   7.264
 4151SOL    HW112839   2.955   0.443   7.328
 4151SOL    HW212840   3.093   0.411   7.247
 4152SOL     OW12841   3.022   0.207   7.063
 4152SOL    HW112842   3.022   0.271   7.140
 4152SOL    HW212843   3.050   0.255   6.980
 4153SOL     OW12844   1.870   1.326   5.786
 4153SOL    HW112845   1.777   1.347   5.755
 4153SOL    HW212846   1.880   1.227   5.799
 4154SOL     OW12847   1.950   1.801   6.513
 4154SOL    HW112848   1.908   1.715   6.486
 4154SOL    HW212849   2.044   1.804   6.479
 4155SOL     OW12850   2.864   0.796   6.824
 4155SOL    HW112851   2.905   0.764   6.910
 4155SOL    HW212852   2.768   0.769   6.821
 4156SOL     OW12853   1.902   0.544   6.700
 4156SOL    HW112854   1.987   0.511   6.659
 4156SOL    HW212855   1.915   0.559   6.798
 4157SOL     OW12856   2.051   0.520   7.308
 4157SOL    HW112857   2.110   0.480   7.238
 4157SOL    HW212858   1.993   0.591   7.267
 4158SOL     OW12859   3.231   0.950   7.246
 4158SOL    HW112860   3.270   1.039   7.266
 4158SOL    HW212861   3.241   0.930   7.149
 4159SOL     OW12862   2.677   0.572   5.911
 4159SOL    HW112863   2.684   0.483   5.865
 4159SOL    HW212864   2.583   0.606   5.903
 4160SOL     OW12865   3.519   0.604   6.792
 4160SOL    HW112866   3.481   0.535   6.854
 4160SOL    HW212867   3.601   0.568   6.748
 4161SOL     OW12868   2.533   0.464   6.855
 4161SOL    HW112869   2.499   0.375   6.825
 4161SOL    HW212870   2.559   0.518   6.775
 4162SOL     OW12871   2.792   1.678   7.051
 4162SOL    HW112872   2.768   1.660   6.956
 4162SOL    HW212873   2.822   1.772   7.061
 4163SOL     OW12874   2.335   0.500   5.777
 4163SOL    HW112875   2.396   0.580   5.781
 4163SOL    HW212876   2.240   0.531   5.784
 4164SOL     OW12877   2.021   1.137   7.052
 4164SOL    HW112878   2.043   1.076   7.128
 4164SOL    HW212879   2.031   1.088   6.966
 4165SOL     OW12880   3.209   1.059   6.820
 4165SOL    HW112881   3.233   0.996   6.746
 4165SOL    HW212882   3.119   1.099   6.802
 4166SOL     OW12883   3.164   0.855   5.895
 4166SOL    HW112884   3.078   0.824   5.937
 4166SOL    HW212885   3.160   0.841   5.796
 4167SOL     OW12886   3.621   1.747   6.740
 4167SOL    HW112887   3.682   1.777   6.667
 4167SOL    HW212888   3.583   1.658   6.718
 4168SOL     OW12889   3.114   1.731   6.714
 4168SOL    HW112890   3.198   1.736   6.660
 4168SOL    HW212891   3.091   1.635   6.732
 4169SOL     OW12892   1.945   1.258   6.608
 4169SOL    HW112893   1.940   1.257   6.708
 4169SOL    HW212894   1.862   1.217   6.570
 4170SOL     OW12895   2.550   1.662   7.302
 4170SOL    HW112896   2.494   1.743   7.311
 4170SOL    HW212897   2.602   1.666   7.216
 4171SOL     OW12898   3.588   0.135   6.109
 4171SOL    HW112899   3.661   0.118   6.042
 4171SOL    HW212900   3.557   0.048   6.147
 4172SOL     OW12901   3.250   1.573   6.063
 4172SOL    HW112902   3.317   1.585   5.989
 4172SOL    HW212903   3.210   1.662   6.086
 4173SOL     OW12904   3.142   0.927   6.258
 4173SOL    HW112905   3.202   0.846   6.260
 4173SOL    HW212906   3.182   0.996   6.198
 4174SOL     OW12907   2.692   1.273   7.008
 4174SOL    HW112908   2.687   1.306   7.103
 4174SOL    HW212909   2.606   1.292   6.962
 4175SOL     OW12910   2.534   1.616   5.740
 4175SOL    HW112911   2.543   1.626   5.641
 4175SOL    HW212912   2.494   1.527   5.761
 4176SOL     OW12913   3.512   1.720   6.980
 4176SOL    HW112914   3.565   1.730   6.896
 4176SOL    HW212915   3.485   1.810   7.014
 4177SOL     OW12916   3.703   0.175   6.549
 4177SOL    HW112917   3.742   0.090   6.513
 4177SOL    HW212918   3.605   0.177   6.530
 4178SOL     OW12919   2.125   0.326   6.306
 4178SOL    HW112920   2.046   0.377   6.272
 4178SOL    HW212921   2.116   0.311   6.404
 4179SOL     OW12922   3.056   1.612   5.617
 4179SOL    HW112923   3.062   1.519   5.654
 4179SOL    HW212924   2.997   1.612   5.537
 4180SOL     OW12925   2.684   1.002   6.958
 4180SOL    HW112926   2.724   1.001   6.866
 4180SOL    HW212927   2.694   1.094   6.998
 4181SOL     OW12928   2.778   0.910   5.877
 4181SOL    HW112929   2.841   0.948   5.809
 4181SOL    HW212930   2.818   0.827   5.916
 4182SOL     OW12931   3.366   1.607   5.630
 4182SOL    HW112932   3.274   1.644   5.637
 4182SOL    HW212933   3.404   1.627   5.540
 4183SOL     OW12934   3.476   1.292   6.875
 4183SOL    HW112935   3.536   1.295   6.955
 4183SOL    HW212936   3.401   1.356   6.888
 4184SOL     OW12937   2.901   1.098   6.282
 4184SOL    HW112938   2.831   1.051   6.336
 4184SOL    HW212939   2.960   1.030   6.239
 4185SOL     OW12940   2.876   0.236   6.557
 4185SOL    HW112941   2.868   0.200   6.464
 4185SOL    HW212942   2.874   0.160   6.622
 4186SOL     OW12943   2.452   1.487   6.077
 4186SOL    HW112944   2.494   1.429   6.007
 4186SOL    HW212945   2.408   1.566   6.033
 4187SOL     OW12946   3.571   0.385   6.967
 4187SOL    HW112947   3.644   0.454   6.971
 4187SOL    HW212948   3.599   0.310   6.908
 4188SOL     OW12949   2.117   1.348   5.876
 4188SOL    HW112950   2.021   1.349   5.849
 4188SOL    HW212951   2.129   1.401   5.960
 4189SOL     OW12952   1.967   1.013   7.312
 4189SOL    HW112953   1.890   0.980   7.366
 4189SOL    HW212954   2.052   0.983   7.354
 4190SOL     OW12955   2.534   0.203   7.075
 4190SOL    HW112956   2.624   0.187   7.035
 4190SOL    HW212957   2.542   0.208   7.174
 4191SOL     OW12958   1.937   0.345   5.619
 4191SOL    HW112959   1.845   0.317   5.590
 4191SOL    HW212960   1.968   0.422   5.563
 4192SOL     OW12961   3.302   0.856   6.984
 4192SOL    HW112962   3.245   0.908   6.921
 4192SOL    HW212963   3.398   0.868   6.960
 4193SOL     OW12964   1.934   0.166   5.904
 4193SOL    HW112965   1.917   0.249   5.850
 4193SOL    HW212966   2.024   0.129   5.882
 4194SOL     OW12967   3.045   1.335   5.705
 4194SOL    HW112968   2.946   1.324   5.707
 4194SOL    HW212969   3.079   1.350   5.798
 4195SOL     OW12970   2.475   0.842   7.017
 4195SOL    HW112971   2.531   0.923   7.000
 4195SOL    HW212972   2.534   0.762   7.020
 4196SOL     OW12973   3.355   1.767   6.545
 4196SOL    HW112974   3.388   1.831   6.476
 4196SOL    HW212975   3.421   1.761   6.620
 4197SOL     OW12976   2.578   0.565   7.294
 4197SOL    HW112977   2.597   0.630   7.368
 4197SOL    HW212978   2.638   0.485   7.303
 4198SOL     OW12979   3.312   1.220   7.219
 4198SOL    HW112980   3.303   1.210   7.318
 4198SOL    HW212981   3.408   1.213   7.193
 4199SOL     OW12982   3.536   0.883   6.840
 4199SOL    HW112983   3.509   0.794   6.803
 4199SOL    HW212984   3.537   0.951   6.767
 4200SOL     OW12985   3.087   0.325   6.035
 4200SOL    HW112986   3.152   0.251   6.024
 4200SOL    HW212987   3.107   0.375   6.119
 4201SOL     OW12988   2.456   0.745   6.238
 4201SOL    HW112989   2.506   0.830   6.219
 4201SOL    HW212990   2.368   0.747   6.190
 4202SOL     OW12991   3.639   0.342   7.228
 4202SOL    HW112992   3.622   0.373   7.134
 4202SOL    HW212993   3.555   0.305   7.266
 4203SOL     OW12994   3.592   0.934   7.103
 4203SOL    HW112995   3.630   1.025   7.118
 4203SOL    HW212996   3.584   0.917   7.004
 4204SOL     OW12997   2.721   1.374   5.602
 4204SOL    HW112998   2.675   1.389   5.690
 4204SOL    HW212999   2.765   1.459   5.572
 4205SOL     OW13000   2.721   0.956   6.447
 4205SOL    HW113001   2.775   0.887   6.495
 4205SOL    HW213002   2.689   1.025   6.513
 4206SOL     OW13003   2.945   0.984   5.673
 4206SOL    HW113004   2.922   1.037   5.591
 4206SOL    HW213005   3.026   0.928   5.654
 4207SOL     OW13006   3.723   1.569   6.437
 4207SOL    HW113007   3.652   1.557   6.367
 4207SOL    HW213008   3.724   1.490   6.497
 4208SOL     OW13009   2.083   1.314   7.430
 4208SOL    HW113010   2.018   1.241   7.409
 4208SOL    HW213011   2.087   1.328   7.528
 4209SOL     OW13012   1.941   1.240   6.239
 4209SOL    HW113013   1.940   1.193   6.327
 4209SOL    HW213014   2.023   1.212   6.188
 4210SOL     OW13015   2.534   1.391   7.210
 4210SOL    HW113016   2.456   1.341   7.248
 4210SOL    HW213017   2.531   1.486   7.241
 4211SOL     OW13018   3.686   0.192   6.813
 4211SOL    HW113019   3.682   0.102   6.857
 4211SOL    HW213020   3.689   0.181   6.714
 4212SOL     OW13021   2.290   0.424   6.106
 4212SOL    HW113022   2.320   0.352   6.044
 4212SOL    HW213023   2.251   0.384   6.189
 4213SOL     OW13024   3.567   1.487   6.690
 4213SOL    HW113025   3.474   1.462   6.663
 4213SOL    HW213026   3.593   1.437   6.772
 4214SOL     OW13027   2.179   0.547   6.866
 4214SOL    HW113028   2.217   0.488   6.938
 4214SOL    HW213029   2.219   0.521   6.778
 4215SOL     OW13030   2.674   1.586   6.273
 4215SOL    HW113031   2.706   1.596   6.179
 4215SOL    HW213032   2.595   1.524   6.275
 4216SOL     OW13033   3.286   0.214   6.698
 4216SOL    HW113034   3.338   0.149   6.753
 4216SOL    HW213035   3.237   0.277   6.759
 4217SOL     OW13036   2.863   0.034   6.740
 4217SOL    HW113037   2.800  -0.038   6.709
 4217SOL    HW213038   2.956  -0.002   6.740
 4218SOL     OW13039   2.632   1.330   5.887
 4218SOL    HW113040   2.586   1.243   5.904
 4218SOL    HW213041   2.723   1.327   5.928
 4219SOL     OW13042   3.214   0.052   5.754
 4219SOL    HW113043   3.249   0.011   5.670
 4219SOL    HW213044   3.124   0.014   5.774
 4220SOL     OW13045   3.162   0.453   6.277
 4220SOL    HW113046   3.103   0.533   6.281
 4220SOL    HW213047   3.177   0.418   6.370
 4221SOL     OW13048   3.455   0.221   6.468
 4221SOL    HW113049   3.371   0.220   6.522
 4221SOL    HW213050   3.457   0.304   6.412
 4222SOL     OW13051   1.901   1.077   5.886
 4222SOL    HW113052   2.000   1.066   5.877
 4222SOL    HW213053   1.861   0.991   5.918
 4223SOL     OW13054   2.737   1.646   5.923
 4223SOL    HW113055   2.660   1.611   5.869
 4223SOL    HW213056   2.705   1.717   5.985
 4224SOL     OW13057   2.092   0.628   7.561
 4224SOL    HW113058   1.999   0.626   7.598
 4224SOL    HW213059   2.093   0.589   7.469
 4225SOL     OW13060   2.087   0.275   8.444
 4225SOL    HW113061   2.122   0.258   8.536
 4225SOL    HW213062   1.999   0.230   8.432
 4226SOL     OW13063   1.881   0.368   8.095
 4226SOL    HW113064   1.799   0.411   8.134
 4226SOL    HW213065   1.853   0.295   8.032
 4227SOL     OW13066   2.431   1.275   8.613
 4227SOL    HW113067   2.338   1.268   8.576
 4227SOL    HW213068   2.442   1.364   8.657
 4228SOL     OW13069   3.417   1.511   8.151
 4228SOL    HW113070   3.360   1.495   8.232
 4228SOL    HW213071   3.358   1.521   8.071
 4229SOL     OW13072   2.997   0.703   8.165
 4229SOL    HW113073   3.054   0.781   8.140
 4229SOL    HW213074   2.937   0.729   8.241
 4230SOL     OW13075   3.617   0.607   7.679
 4230SOL    HW113076   3.605   0.594   7.580
 4230SOL    HW213077   3.587   0.526   7.728
 4231SOL     OW13078   2.630   1.144   8.471
 4231SOL    HW113079   2.552   1.161   8.531
 4231SOL    HW213080   2.664   1.231   8.435
 4232SOL     OW13081   2.712   0.798   9.271
 4232SOL    HW113082   2.708   0.874   9.336
 4232SOL    HW213083   2.734   0.834   9.180
 4233SOL     OW13084   2.547   1.012   8.113
 4233SOL    HW113085   2.616   0.996   8.183
 4233SOL    HW213086   2.474   1.069   8.151
 4234SOL     OW13087   2.548   1.161   9.251
 4234SOL    HW113088   2.608   1.240   9.265
 4234SOL    HW213089   2.462   1.192   9.210
 4235SOL     OW13090   2.197   1.435   8.509
 4235SOL    HW113091   2.119   1.404   8.456
 4235SOL    HW213092   2.255   1.493   8.452
 4236SOL     OW13093   3.322   1.505   8.787
 4236SOL    HW113094   3.346   1.599   8.813
 4236SOL    HW213095   3.306   1.451   8.869
 4237SOL     OW13096   2.300   0.392   8.947
 4237SOL    HW113097   2.382   0.336   8.956
 4237SOL    HW213098   2.219   0.334   8.951
 4238SOL     OW13099   3.465   0.447   8.185
 4238SOL    HW113100   3.391   0.493   8.135
 4238SOL    HW213101   3.516   0.515   8.238
 4239SOL     OW13102   2.093   1.713   7.931
 4239SOL    HW113103   2.127   1.790   7.985
 4239SOL    HW213104   2.137   1.713   7.841
 4240SOL     OW13105   2.989   1.341   9.138
 4240SOL    HW113106   3.036   1.341   9.226
 4240SOL    HW213107   2.941   1.254   9.127
 4241SOL     OW13108   2.092   1.434   7.986
 4241SOL    HW113109   2.066   1.530   7.986
 4241SOL    HW213110   2.021   1.380   8.031
 4242SOL     OW13111   2.102   1.091   8.334
 4242SOL    HW113112   2.116   1.007   8.386
 4242SOL    HW213113   2.047   1.155   8.389
 4243SOL     OW13114   2.482   1.786   8.887
 4243SOL    HW113115   2.390   1.769   8.922
 4243SOL    HW213116   2.510   1.878   8.913
 4244SOL     OW13117   2.468   0.964   7.571
 4244SOL    HW113118   2.475   1.048   7.517
 4244SOL    HW213119   2.514   0.977   7.659
 4245SOL     OW13120   3.456   0.114   8.928
 4245SOL    HW113121   3.438   0.181   8.856
 4245SOL    HW213122   3.453   0.160   9.017
 4246SOL     OW13123   1.984   0.643   8.011
 4246SOL    HW113124   1.939   0.555   8.028
 4246SOL    HW213125   1.983   0.697   8.095
 4247SOL     OW13126   3.704   1.767   7.807
 4247SOL    HW113127   3.758   1.738   7.887
 4247SOL    HW213128   3.734   1.857   7.778
 4248SOL     OW13129   3.551   0.922   8.060
 4248SOL    HW113130   3.646   0.893   8.068
 4248SOL    HW213131   3.543   0.987   7.985
 4249SOL     OW13132   3.503   1.108   7.880
 4249SOL    HW113133   3.589   1.110   7.828
 4249SOL    HW213134   3.517   1.155   7.968
 4250SOL     OW13135   1.975   0.737   9.045
 4250SOL    HW113136   2.063   0.724   9.090
 4250SOL    HW213137   1.962   0.834   9.023
 4251SOL     OW13138   2.475   1.365   8.174
 4251SOL    HW113139   2.426   1.278   8.183
 4251SOL    HW213140   2.452   1.408   8.087
 4252SOL     OW13141   3.155   1.228   8.871
 4252SOL    HW113142   3.192   1.155   8.813
 4252SOL    HW213143   3.207   1.233   8.956
 4253SOL     OW13144   2.671   0.004   7.950
 4253SOL    HW113145   2.711   0.095   7.941
 4253SOL    HW213146   2.571   0.012   7.956
 4254SOL     OW13147   2.059   0.976   8.712
 4254SOL    HW113148   2.148   0.931   8.698
 4254SOL    HW213149   1.986   0.911   8.693
 4255SOL     OW13150   3.387   0.999   7.638
 4255SOL    HW113151   3.324   0.923   7.651
 4255SOL    HW213152   3.435   1.017   7.724
 4256SOL     OW13153   3.049   1.792   9.064
 4256SOL    HW113154   3.073   1.852   8.988
 4256SOL    HW213155   3.056   1.697   9.034
 4257SOL     OW13156   2.179   0.251   9.249
 4257SOL    HW113157   2.250   0.322   9.255
 4257SOL    HW213158   2.091   0.290   9.277
 4258SOL     OW13159   3.328   1.417   8.401
 4258SOL    HW113160   3.269   1.423   8.481
 4258SOL    HW213161   3.313   1.329   8.355
 4259SOL     OW13162   3.529   1.714   8.020
 4259SOL    HW113163   3.488   1.691   7.932
 4259SOL    HW213164   3.511   1.640   8.085
 4260SOL     OW13165   2.460   0.729   7.718
 4260SOL    HW113166   2.484   0.798   7.650
 4260SOL    HW213167   2.382   0.762   7.772
 4261SOL     OW13168   3.143   0.345   8.392
 4261SOL    HW113169   3.057   0.295   8.379
 4261SOL    HW213170   3.205   0.291   8.448
 4262SOL     OW13171   3.438   1.662   7.755
 4262SOL    HW113172   3.527   1.708   7.758
 4262SOL    HW213173   3.417   1.638   7.660
 4263SOL     OW13174   2.669   0.605   8.913
 4263SOL    HW113175   2.622   0.602   9.002
 4263SOL    HW213176   2.618   0.550   8.847
 4264SOL     OW13177   3.256   0.469   9.122
 4264SOL    HW113178   3.236   0.512   9.210
 4264SOL    HW213179   3.334   0.407   9.131
 4265SOL     OW13180   2.835   0.890   9.020
 4265SOL    HW113181   2.881   0.806   8.991
 4265SOL    HW213182   2.779   0.924   8.945
 4266SOL     OW13183   2.853   0.410   8.690
 4266SOL    HW113184   2.776   0.444   8.744
 4266SOL    HW213185   2.819   0.359   8.611
 4267SOL     OW13186   2.903   0.701   7.877
 4267SOL    HW113187   2.929   0.697   7.973
 4267SOL    HW213188   2.818   0.650   7.863
 4268SOL     OW13189   1.938   0.811   8.237
 4268SOL    HW113190   2.037   0.799   8.246
 4268SOL    HW213191   1.914   0.906   8.258
 4269SOL     OW13192   2.727   0.348   7.643
 4269SOL    HW113193   2.786   0.411   7.594
 4269SOL    HW213194   2.746   0.254   7.614
 4270SOL     OW13195   3.581   0.585   9.279
 4270SOL    HW113196   3.555   0.674   9.243
 4270SOL    HW213197   3.579   0.517   9.206
 4271SOL     OW13198   3.224   1.144   7.993
 4271SOL    HW113199   3.307   1.115   7.945
 4271SOL    HW213200   3.175   1.211   7.937
 4272SOL     OW13201   2.412   0.196   8.333
 4272SOL    HW113202   2.407   0.191   8.433
 4272SOL    HW213203   2.414   0.292   8.304
 4273SOL     OW13204   2.870   1.456   7.925
 4273SOL    HW113205   2.824   1.528   7.873
 4273SOL    HW213206   2.866   1.476   8.023
 4274SOL     OW13207   2.213   1.801   8.301
 4274SOL    HW113208   2.263   1.715   8.307
 4274SOL    HW213209   2.278   1.878   8.298
 4275SOL     OW13210   3.657   1.066   8.321
 4275SOL    HW113211   3.595   1.051   8.245
 4275SOL    HW213212   3.605   1.077   8.406
 4276SOL     OW13213   3.089   1.550   8.954
 4276SOL    HW113214   3.095   1.473   9.018
 4276SOL    HW213215   3.037   1.524   8.874
 4277SOL     OW13216   2.183   0.943   7.690
 4277SOL    HW113217   2.265   0.982   7.648
 4277SOL    HW213218   2.156   0.861   7.641
 4278SOL     OW13219   3.320   0.735   8.176
 4278SOL    HW113220   3.315   0.670   8.251
 4278SOL    HW213221   3.400   0.794   8.189
 4279SOL     OW13222   2.323   1.266   9.175
 4279SOL    HW113223   2.273   1.267   9.089
 4279SOL    HW213224   2.260   1.248   9.251
 4280SOL     OW13225   2.973   1.776   7.685
 4280SOL    HW113226   2.913   1.714   7.735
 4280SOL    HW213227   3.004   1.732   7.600
 4281SOL     OW13228   2.064   0.285   8.946
 4281SOL    HW113229   1.984   0.345   8.933
 4281SOL    HW213230   2.054   0.236   9.032
 4282SOL     OW13231   3.494   1.377   7.529
 4282SOL    HW113232   3.462   1.471   7.519
 4282SOL    HW213233   3.418   1.314   7.517
 4283SOL     OW13234   2.326   1.743   7.771
 4283SOL    HW113235   2.359   1.782   7.857
 4283SOL    HW213236   2.402   1.736   7.706
 4284SOL     OW13237   3.262   0.107   7.874
 4284SOL    HW113238   3.238   0.070   7.784
 4284SOL    HW213239   3.361   0.123   7.878
 4285SOL     OW13240   2.111   1.785   8.689
 4285SOL    HW113241   2.168   1.720   8.739
 4285SOL    HW213242   2.095   1.752   8.596
 4286SOL     OW13243   2.802   1.698   8.352
 4286SOL    HW113244   2.882   1.641   8.373
 4286SOL    HW213245   2.753   1.658   8.275
 4287SOL     OW13246   2.244   0.700   7.928
 4287SOL    HW113247   2.289   0.610   7.925
 4287SOL    HW213248   2.150   0.689   7.961
 4288SOL     OW13249   3.409   0.222   9.177
 4288SOL    HW113250   3.404   0.259   9.269
 4288SOL    HW213251   3.337   0.153   9.165
 4289SOL     OW13252   2.476   0.122   7.565
 4289SOL    HW113253   2.574   0.100   7.572
 4289SOL    HW213254   2.445   0.105   7.472
 4290SOL     OW13255   2.643   0.264   9.197
 4290SOL    HW113256   2.710   0.203   9.240
 4290SOL    HW213257   2.570   0.283   9.262
 4291SOL     OW13258   2.750   1.514   8.643
 4291SOL    HW113259   2.727   1.489   8.549
 4291SOL    HW213260   2.811   1.445   8.682
 4292SOL     OW13261   3.213   0.590   8.881
 4292SOL    HW113262   3.241   0.547   8.966
 4292SOL    HW213263   3.238   0.686   8.882
 4293SOL     OW13264   2.665   1.402   8.372
 4293SOL    HW113265   2.755   1.416   8.330
 4293SOL    HW213266   2.594   1.404   8.301
 4294SOL     OW13267   2.784   0.503   8.347
 4294SOL    HW113268   2.759   0.494   8.251
 4294SOL    HW213269   2.832   0.421   8.378
 4295SOL     OW13270   2.401   0.064   7.960
 4295SOL    HW113271   2.320   0.065   8.018
 4295SOL    HW213272   2.404   0.147   7.905
 4296SOL     OW13273   3.296   1.188   7.489
 4296SOL    HW113274   3.328   1.112   7.546
 4296SOL    HW213275   3.204   1.215   7.519
 4297SOL     OW13276   2.159   0.035   7.619
 4297SOL    HW113277   2.208   0.119   7.598
 4297SOL    HW213278   2.221  -0.030   7.664
 4298SOL     OW13279   2.797   0.236   7.928
 4298SOL    HW113280   2.749   0.277   7.850
 4298SOL    HW213281   2.896   0.234   7.909
 4299SOL     OW13282   2.938   0.683   8.912
 4299SOL    HW113283   2.858   0.622   8.915
 4299SOL    HW213284   3.019   0.630   8.888
 4300SOL     OW13285   3.089   1.570   8.241
 4300SOL    HW113286   3.110   1.644   8.176
 4300SOL    HW213287   3.157   1.570   8.314
 4301SOL     OW13288   2.321   1.152   8.189
 4301SOL    HW113289   2.250   1.125   8.254
 4301SOL    HW213290   2.295   1.124   8.096
 4302SOL     OW13291   3.133   1.797   8.039
 4302SOL    HW113292   3.177   1.861   7.975
 4302SOL    HW213293   3.083   1.849   8.109
 4303SOL     OW13294   2.894   0.549   7.464
 4303SOL    HW113295   2.853   0.631   7.425
 4303SOL    HW213296   2.958   0.575   7.537
 4304SOL     OW13297   1.940   0.556   8.834
 4304SOL    HW113298   2.032   0.555   8.793
 4304SOL    HW213299   1.934   0.630   8.901
 4305SOL     OW13300   2.423   0.222   8.595
 4305SOL    HW113301   2.461   0.138   8.632
 4305SOL    HW213302   2.335   0.241   8.639
 4306SOL     OW13303   2.728   0.454   8.090
 4306SOL    HW113304   2.696   0.526   8.028
 4306SOL    HW213305   2.752   0.373   8.037
 4307SOL     OW13306   2.879   0.039   8.201
 4307SOL    HW113307   2.807   0.044   8.132
 4307SOL    HW213308   2.855  -0.030   8.270
 4308SOL     OW13309   3.291   1.173   8.315
 4308SOL    HW113310   3.236   1.089   8.308
 4308SOL    HW213311   3.317   1.202   8.223
 4309SOL     OW13312   3.328   0.590   8.440
 4309SOL    HW113313   3.298   0.495   8.447
 4309SOL    HW213314   3.401   0.606   8.506
 4310SOL     OW13315   3.719   0.833   7.825
 4310SOL    HW113316   3.761   0.769   7.889
 4310SOL    HW213317   3.681   0.782   7.747
 4311SOL     OW13318   2.350   1.385   7.622
 4311SOL    HW113319   2.263   1.370   7.669
 4311SOL    HW213320   2.333   1.411   7.527
 4312SOL     OW13321   3.526   1.280   8.105
 4312SOL    HW113322   3.625   1.288   8.119
 4312SOL    HW213323   3.481   1.364   8.136
 4313SOL     OW13324   3.252   0.575   7.526
 4313SOL    HW113325   3.198   0.554   7.607
 4313SOL    HW213326   3.343   0.534   7.535
 4314SOL     OW13327   2.389   0.256   7.776
 4314SOL    HW113328   2.416   0.197   7.701
 4314SOL    HW213329   2.389   0.351   7.745
 4315SOL     OW13330   3.616   1.223   9.036
 4315SOL    HW113331   3.707   1.184   9.023
 4315SOL    HW213332   3.624   1.319   9.060
 4316SOL     OW13333   2.926   1.347   8.788
 4316SOL    HW113334   2.846   1.324   8.843
 4316SOL    HW213335   3.009   1.321   8.837
 4317SOL     OW13336   3.454   1.629   9.073
 4317SOL    HW113337   3.481   1.663   8.983
 4317SOL    HW213338   3.533   1.591   9.119
 4318SOL     OW13339   2.973   1.195   8.548
 4318SOL    HW113340   2.933   1.239   8.629
 4318SOL    HW213341   2.932   1.232   8.465
 4319SOL     OW13342   3.500   1.099   8.527
 4319SOL    HW113343   3.505   1.180   8.586
 4319SOL    HW213344   3.414   1.101   8.476
 4320SOL     OW13345   2.777   0.089   8.850
 4320SOL    HW113346   2.802   0.069   8.755
 4320SOL    HW213347   2.849   0.145   8.892
 4321SOL     OW13348   2.842   1.116   9.167
 4321SOL    HW113349   2.743   1.122   9.177
 4321SOL    HW213350   2.865   1.036   9.111
 4322SOL     OW13351   2.567   1.050   7.816
 4322SOL    HW113352   2.553   1.057   7.915
 4322SOL    HW213353   2.651   0.999   7.798
 4323SOL     OW13354   2.272   0.813   8.699
 4323SOL    HW113355   2.358   0.825   8.749
 4323SOL    HW213356   2.230   0.726   8.726
 4324SOL     OW13357   3.136   0.386   8.710
 4324SOL    HW113358   3.157   0.460   8.774
 4324SOL    HW213359   3.047   0.403   8.667
 4325SOL     OW13360   1.926   1.564   8.779
 4325SOL    HW113361   1.880   1.646   8.745
 4325SOL    HW213362   2.024   1.583   8.788
 4326SOL     OW13363   2.229   1.100   7.949
 4326SOL    HW113364   2.222   1.183   7.893
 4326SOL    HW213365   2.233   1.020   7.889
 4327SOL     OW13366   2.428   0.537   8.313
 4327SOL    HW113367   2.440   0.603   8.239
 4327SOL    HW213368   2.474   0.571   8.396
 4328SOL     OW13369   3.114   1.348   7.836
 4328SOL    HW113370   3.164   1.425   7.876
 4328SOL    HW213371   3.019   1.350   7.868
 4329SOL     OW13372   3.134   1.445   8.590
 4329SOL    HW113373   3.181   1.458   8.677
 4329SOL    HW213374   3.068   1.371   8.599
 4330SOL     OW13375   3.444   0.639   7.920
 4330SOL    HW113376   3.413   0.700   7.993
 4330SOL    HW213377   3.494   0.691   7.851
 4331SOL     OW13378   2.216   1.510   8.777
 4331SOL    HW113379   2.195   1.466   8.690
 4331SOL    HW213380   2.313   1.536   8.780
 4332SOL     OW13381   2.264   0.751   9.046
 4332SOL    HW113382   2.332   0.806   8.999
 4332SOL    HW213383   2.304   0.663   9.073
 4333SOL     OW13384   3.449   0.779   9.118
 4333SOL    HW113385   3.357   0.817   9.113
 4333SOL    HW213386   3.509   0.826   9.053
 4334SOL     OW13387   2.875   0.105   9.218
 4334SOL    HW113388   2.881   0.190   9.166
 4334SOL    HW213389   2.907   0.029   9.161
 4335SOL     OW13390   2.366   0.050   9.188
 4335SOL    HW113391   2.324  -0.007   9.118
 4335SOL    HW213392   2.300   0.119   9.220
 4336SOL     OW13393   2.435   0.870   8.477
 4336SOL    HW113394   2.479   0.959   8.468
 4336SOL    HW213395   2.372   0.870   8.554
 4337SOL     OW13396   3.222   0.862   8.493
 4337SOL    HW113397   3.147   0.862   8.427
 4337SOL    HW213398   3.259   0.770   8.502
 4338SOL     OW13399   3.071   0.525   7.723
 4338SOL    HW113400   3.084   0.441   7.777
 4338SOL    HW213401   3.042   0.599   7.783
 4339SOL     OW13402   2.169   0.213   8.679
 4339SOL    HW113403   2.146   0.250   8.769
 4339SOL    HW213404   2.139   0.118   8.673
 4340SOL     OW13405   1.899   1.310   8.730
 4340SOL    HW113406   1.952   1.261   8.798
 4340SOL    HW213407   1.921   1.408   8.735
 4341SOL     OW13408   2.594   0.634   8.512
 4341SOL    HW113409   2.653   0.608   8.436
 4341SOL    HW213410   2.566   0.730   8.501
 4342SOL     OW13411   3.590   0.935   9.302
 4342SOL    HW113412   3.544   0.928   9.213
 4342SOL    HW213413   3.528   0.979   9.368
 4343SOL     OW13414   2.169   0.063   8.066
 4343SOL    HW113415   2.158   0.157   8.099
 4343SOL    HW213416   2.164   0.000   8.143
 4344SOL     OW13417   3.484   0.367   7.822
 4344SOL    HW113418   3.486   0.291   7.886
 4344SOL    HW213419   3.436   0.444   7.862
 4345SOL     OW13420   2.885   0.766   8.414
 4345SOL    HW113421   2.900   0.787   8.510
 4345SOL    HW213422   2.855   0.671   8.405
 4346SOL     OW13423   2.842   1.573   9.148
 4346SOL    HW113424   2.822   1.617   9.060
 4346SOL    HW213425   2.881   1.482   9.132
 4347SOL     OW13426   3.721   1.518   9.053
 4347SOL    HW113427   3.735   1.545   8.958
 4347SOL    HW213428   3.804   1.540   9.106
 4348SOL     OW13429   2.212   0.898   9.252
 4348SOL    HW113430   2.288   0.942   9.300
 4348SOL    HW213431   2.247   0.851   9.170
 4349SOL     OW13432   3.402   0.274   7.573
 4349SOL    HW113433   3.341   0.199   7.596
 4349SOL    HW213434   3.424   0.326   7.656
 4350SOL     OW13435   3.165   0.838   7.490
 4350SOL    HW113436   3.199   0.745   7.505
 4350SOL    HW213437   3.183   0.865   7.395
 4351SOL     OW13438   2.930   1.333   8.297
 4351SOL    HW113439   2.937   1.249   8.242
 4351SOL    HW213440   2.992   1.402   8.261
 4352SOL     OW13441   2.181   0.810   8.397
 4352SOL    HW113442   2.274   0.846   8.402
 4352SOL    HW213443   2.175   0.725   8.449
 4353SOL     OW13444   2.201   0.509   8.454
 4353SOL    HW113445   2.149   0.426   8.437
 4353SOL    HW213446   2.278   0.514   8.390
 4354SOL     OW13447   3.000   0.380   9.126
 4354SOL    HW113448   2.955   0.443   9.190
 4354SOL    HW213449   3.093   0.411   9.109
 4355SOL     OW13450   3.022   0.207   8.925
 4355SOL    HW113451   3.022   0.271   9.002
 4355SOL    HW213452   3.050   0.255   8.842
 4356SOL     OW13453   1.870   1.326   7.648
 4356SOL    HW113454   1.777   1.347   7.617
 4356SOL    HW213455   1.880   1.227   7.661
 4357SOL     OW13456   1.950   1.801   8.375
 4357SOL    HW113457   1.908   1.715   8.348
 4357SOL    HW213458   2.044   1.804   8.341
 4358SOL     OW13459   2.366   1.568   8.358
 4358SOL    HW113460   2.432   1.642   8.367
 4358SOL    HW213461   2.410   1.489   8.316
 4359SOL     OW13462   2.864   0.796   8.686
 4359SOL    HW113463   2.905   0.764   8.772
 4359SOL    HW213464   2.768   0.769   8.683
 4360SOL     OW13465   1.902   0.544   8.562
 4360SOL    HW113466   1.987   0.511   8.521
 4360SOL    HW213467   1.915   0.559   8.660
 4361SOL     OW13468   2.051   0.520   9.170
 4361SOL    HW113469   2.110   0.480   9.100
 4361SOL    HW213470   1.993   0.591   9.129
 4362SOL     OW13471   3.231   0.950   9.108
 4362SOL    HW113472   3.270   1.039   9.128
 4362SOL    HW213473   3.241   0.930   9.011
 4363SOL     OW13474   2.677   0.572   7.773
 4363SOL    HW113475   2.684   0.483   7.727
 4363SOL    HW213476   2.583   0.606   7.765
 4364SOL     OW13477   3.519   0.604   8.654
 4364SOL    HW113478   3.481   0.535   8.716
 4364SOL    HW213479   3.601   0.568   8.610
 4365SOL     OW13480   2.114   1.564   9.192
 4365SOL    HW113481   2.084   1.621   9.268
 4365SOL    HW213482   2.107   1.467   9.218
 4366SOL     OW13483   2.533   0.464   8.717
 4366SOL    HW113484   2.499   0.375   8.687
 4366SOL    HW213485   2.559   0.518   8.637
 4367SOL     OW13486   2.792   1.678   8.913
 4367SOL    HW113487   2.768   1.660   8.818
 4367SOL    HW213488   2.822   1.772   8.923
 4368SOL     OW13489   2.335   0.500   7.639
 4368SOL    HW113490   2.396   0.580   7.643
 4368SOL    HW213491   2.240   0.531   7.646
 4369SOL     OW13492   2.021   1.137   8.914
 4369SOL    HW113493   2.043   1.076   8.990
 4369SOL    HW213494   2.031   1.088   8.828
 4370SOL     OW13495   3.209   1.059   8.682
 4370SOL    HW113496   3.233   0.996   8.608
 4370SOL    HW213497   3.119   1.099   8.664
 4371SOL     OW13498   3.164   0.855   7.757
 4371SOL    HW113499   3.078   0.824   7.799
 4371SOL    HW213500   3.160   0.841   7.658
 4372SOL     OW13501   3.621   1.747   8.602
 4372SOL    HW113502   3.682   1.777   8.529
 4372SOL    HW213503   3.583   1.658   8.580
 4373SOL     OW13504   3.114   1.731   8.576
 4373SOL    HW113505   3.198   1.736   8.522
 4373SOL    HW213506   3.091   1.635   8.594
 4374SOL     OW13507   1.945   1.258   8.470
 4374SOL    HW113508   1.940   1.257   8.570
 4374SOL    HW213509   1.862   1.217   8.432
 4375SOL     OW13510   2.550   1.662   9.164
 4375SOL    HW113511   2.494   1.743   9.173
 4375SOL    HW213512   2.602   1.666   9.078
 4376SOL     OW13513   3.588   0.135   7.971
 4376SOL    HW113514   3.661   0.118   7.904
 4376SOL    HW213515   3.557   0.048   8.009
 4377SOL     OW13516   3.250   1.573   7.925
 4377SOL    HW113517   3.317   1.585   7.851
 4377SOL    HW213518   3.210   1.662   7.948
 4378SOL     OW13519   1.992   1.794   9.299
 4378SOL    HW113520   1.951   1.720   9.352
 4378SOL    HW213521   2.056   1.845   9.357
 4379SOL     OW13522   3.142   0.927   8.120
 4379SOL    HW113523   3.202   0.846   8.122
 4379SOL    HW213524   3.182   0.996   8.060
 4380SOL     OW13525   2.692   1.273   8.870
 4380SOL    HW113526   2.687   1.306   8.965
 4380SOL    HW213527   2.606   1.292   8.824
 4381SOL     OW13528   2.534   1.616   7.602
 4381SOL    HW113529   2.543   1.626   7.503
 4381SOL    HW213530   2.494   1.527   7.623
 4382SOL     OW13531   3.512   1.720   8.842
 4382SOL    HW113532   3.565   1.730   8.758
 4382SOL    HW213533   3.485   1.810   8.876
 4383SOL     OW13534   3.703   0.175   8.411
 4383SOL    HW113535   3.742   0.090   8.375
 4383SOL    HW213536   3.605   0.177   8.392
 4384SOL     OW13537   2.125   0.326   8.168
 4384SOL    HW113538   2.046   0.377   8.134
 4384SOL    HW213539   2.116   0.311   8.266
 4385SOL     OW13540   3.056   1.612   7.479
 4385SOL    HW113541   3.062   1.519   7.516
 4385SOL    HW213542   2.997   1.612   7.399
 4386SOL     OW13543   2.684   1.002   8.820
 4386SOL    HW113544   2.724   1.001   8.728
 4386SOL    HW213545   2.694   1.094   8.860
 4387SOL     OW13546   2.778   0.910   7.739
 4387SOL    HW113547   2.841   0.948   7.671
 4387SOL    HW213548   2.818   0.827   7.778
 4388SOL     OW13549   3.366   1.607   7.492
 4388SOL    HW113550   3.274   1.644   7.499
 4388SOL    HW213551   3.404   1.627   7.402
 4389SOL     OW13552   2.234   1.288   8.938
 4389SOL    HW113553   2.221   1.381   8.904
 4389SOL    HW213554   2.150   1.236   8.925
 4390SOL     OW13555   3.476   1.292   8.737
 4390SOL    HW113556   3.536   1.295   8.817
 4390SOL    HW213557   3.401   1.356   8.750
 4391SOL     OW13558   2.901   1.098   8.144
 4391SOL    HW113559   2.831   1.051   8.198
 4391SOL    HW213560   2.960   1.030   8.101
 4392SOL     OW13561   2.876   0.236   8.419
 4392SOL    HW113562   2.868   0.200   8.326
 4392SOL    HW213563   2.874   0.160   8.484
 4393SOL     OW13564   2.452   1.487   7.939
 4393SOL    HW113565   2.494   1.429   7.869
 4393SOL    HW213566   2.408   1.566   7.895
 4394SOL     OW13567   3.571   0.385   8.829
 4394SOL    HW113568   3.644   0.454   8.833
 4394SOL    HW213569   3.599   0.310   8.770
 4395SOL     OW13570   2.117   1.348   7.738
 4395SOL    HW113571   2.021   1.349   7.711
 4395SOL    HW213572   2.129   1.401   7.822
 4396SOL     OW13573   1.967   1.013   9.174
 4396SOL    HW113574   1.890   0.980   9.228
 4396SOL    HW213575   2.052   0.983   9.216
 4397SOL     OW13576   2.534   0.203   8.937
 4397SOL    HW113577   2.624   0.187   8.897
 4397SOL    HW213578   2.542   0.208   9.036
 4398SOL     OW13579   1.937   0.345   7.481
 4398SOL    HW113580   1.845   0.317   7.452
 4398SOL    HW213581   1.968   0.422   7.425
 4399SOL     OW13582   3.302   0.856   8.846
 4399SOL    HW113583   3.245   0.908   8.783
 4399SOL    HW213584   3.398   0.868   8.822
 4400SOL     OW13585   1.934   0.166   7.766
 4400SOL    HW113586   1.917   0.249   7.712
 4400SOL    HW213587   2.024   0.129   7.744
 4401SOL     OW13588   3.045   1.335   7.567
 4401SOL    HW113589   2.946   1.324   7.569
 4401SOL    HW213590   3.079   1.350   7.660
 4402SOL     OW13591   2.475   0.842   8.879
 4402SOL    HW113592   2.531   0.923   8.862
 4402SOL    HW213593   2.534   0.762   8.882
 4403SOL     OW13594   3.355   1.767   8.407
 4403SOL    HW113595   3.388   1.831   8.338
 4403SOL    HW213596   3.421   1.761   8.482
 4404SOL     OW13597   2.578   0.565   9.156
 4404SOL    HW113598   2.597   0.630   9.230
 4404SOL    HW213599   2.638   0.485   9.165
 4405SOL     OW13600   3.312   1.220   9.081
 4405SOL    HW113601   3.303   1.210   9.180
 4405SOL    HW213602   3.408   1.213   9.055
 4406SOL     OW13603   2.252   1.741   9.008
 4406SOL    HW113604   2.161   1.782   9.006
 4406SOL    HW213605   2.245   1.647   9.040
 4407SOL     OW13606   3.536   0.883   8.702
 4407SOL    HW113607   3.509   0.794   8.665
 4407SOL    HW213608   3.537   0.951   8.629
 4408SOL     OW13609   3.087   0.325   7.897
 4408SOL    HW113610   3.152   0.251   7.886
 4408SOL    HW213611   3.107   0.375   7.981
 4409SOL     OW13612   2.456   0.745   8.100
 4409SOL    HW113613   2.506   0.830   8.081
 4409SOL    HW213614   2.368   0.747   8.052
 4410SOL     OW13615   3.639   0.342   9.090
 4410SOL    HW113616   3.622   0.373   8.996
 4410SOL    HW213617   3.555   0.305   9.128
 4411SOL     OW13618   3.592   0.934   8.965
 4411SOL    HW113619   3.630   1.025   8.980
 4411SOL    HW213620   3.584   0.917   8.866
 4412SOL     OW13621   2.721   1.374   7.464
 4412SOL    HW113622   2.675   1.389   7.552
 4412SOL    HW213623   2.765   1.459   7.434
 4413SOL     OW13624   2.523   1.790   8.401
 4413SOL    HW113625   2.477   1.878   8.388
 4413SOL    HW213626   2.622   1.802   8.394
 4414SOL     OW13627   2.721   0.956   8.309
 4414SOL    HW113628   2.775   0.887   8.357
 4414SOL    HW213629   2.689   1.025   8.375
 4415SOL     OW13630   2.945   0.984   7.535
 4415SOL    HW113631   2.922   1.037   7.453
 4415SOL    HW213632   3.026   0.928   7.516
 4416SOL     OW13633   3.723   1.569   8.299
 4416SOL    HW113634   3.652   1.557   8.229
 4416SOL    HW213635   3.724   1.490   8.359
 4417SOL     OW13636   2.083   1.314   9.292
 4417SOL    HW113637   2.018   1.241   9.271
 4417SOL    HW213638   2.087   1.328   9.390
 4418SOL     OW13639   1.941   1.240   8.101
 4418SOL    HW113640   1.940   1.193   8.189
 4418SOL    HW213641   2.023   1.212   8.050
 4419SOL     OW13642   2.534   1.391   9.072
 4419SOL    HW113643   2.456   1.341   9.110
 4419SOL    HW213644   2.531   1.486   9.103
 4420SOL     OW13645   3.686   0.192   8.675
 4420SOL    HW113646   3.682   0.102   8.719
 4420SOL    HW213647   3.689   0.181   8.576
 4421SOL     OW13648   2.290   0.424   7.968
 4421SOL    HW113649   2.320   0.352   7.906
 4421SOL    HW213650   2.251   0.384   8.051
 4422SOL     OW13651   3.567   1.487   8.552
 4422SOL    HW113652   3.474   1.462   8.525
 4422SOL    HW213653   3.593   1.437   8.634
 4423SOL     OW13654   2.179   0.547   8.728
 4423SOL    HW113655   2.217   0.488   8.800
 4423SOL    HW213656   2.219   0.521   8.640
 4424SOL     OW13657   2.674   1.586   8.135
 4424SOL    HW113658   2.706   1.596   8.041
 4424SOL    HW213659   2.595   1.524   8.137
 4425SOL     OW13660   3.286   0.214   8.560
 4425SOL    HW113661   3.338   0.149   8.615
 4425SOL    HW213662   3.237   0.277   8.621
 4426SOL     OW13663   2.863   0.034   8.602
 4426SOL    HW113664   2.800  -0.038   8.571
 4426SOL    HW213665   2.956  -0.002   8.602
 4427SOL     OW13666   2.632   1.330   7.749
 4427SOL    HW113667   2.586   1.243   7.766
 4427SOL    HW213668   2.723   1.327   7.790
 4428SOL     OW13669   2.480   1.567   8.732
 4428SOL    HW113670   2.475   1.649   8.789
 4428SOL    HW213671   2.569   1.564   8.687
 4429SOL     OW13672   3.214   0.052   7.616
 4429SOL    HW113673   3.249   0.011   7.532
 4429SOL    HW213674   3.124   0.014   7.636
 4430SOL     OW13675   3.162   0.453   8.139
 4430SOL    HW113676   3.103   0.533   8.143
 4430SOL    HW213677   3.177   0.418   8.232
 4431SOL     OW13678   3.455   0.221   8.330
 4431SOL    HW113679   3.371   0.220   8.384
 4431SOL    HW213680   3.457   0.304   8.274
 4432SOL     OW13681   1.901   1.077   7.748
 4432SOL    HW113682   2.000   1.066   7.739
 4432SOL    HW213683   1.861   0.991   7.780
 4433SOL     OW13684   2.737   1.646   7.785
 4433SOL    HW113685   2.660   1.611   7.731
 4433SOL    HW213686   2.705   1.717   7.847
 4434SOL     OW13687   2.092   0.628   9.423
 4434SOL    HW113688   1.999   0.626   9.460
 4434SOL    HW213689   2.093   0.589   9.331
 4435SOL     OW13690   2.087   0.275  10.306
 4435SOL    HW113691   2.122   0.258  10.398
 4435SOL    HW213692   1.999   0.230  10.294
 4436SOL     OW13693   1.881   0.368   9.957
 4436SOL    HW113694   1.799   0.411   9.996
 4436SOL    HW213695   1.853   0.295   9.894
 4437SOL     OW13696   2.431   1.275  10.475
 4437SOL    HW113697   2.338   1.268  10.438
 4437SOL    HW213698   2.442   1.364  10.519
 4438SOL     OW13699   3.417   1.511  10.013
 4438SOL    HW113700   3.360   1.495  10.094
 4438SOL    HW213701   3.358   1.521   9.933
 4439SOL     OW13702   2.997   0.703  10.027
 4439SOL    HW113703   3.054   0.781  10.002
 4439SOL    HW213704   2.937   0.729  10.103
 4440SOL     OW13705   3.617   0.607   9.541
 4440SOL    HW113706   3.605   0.594   9.442
 4440SOL    HW213707   3.587   0.526   9.590
 4441SOL     OW13708   2.630   1.144  10.333
 4441SOL    HW113709   2.552   1.161  10.393
 4441SOL    HW213710   2.664   1.231  10.297
 4442SOL     OW13711   2.712   0.798  11.133
 4442SOL    HW113712   2.708   0.874  11.198
 4442SOL    HW213713   2.734   0.834  11.042
 4443SOL     OW13714   2.547   1.012   9.975
 4443SOL    HW113715   2.616   0.996  10.045
 4443SOL    HW213716   2.474   1.069  10.013
 4444SOL     OW13717   2.548   1.161  11.113
 4444SOL    HW113718   2.608   1.240  11.127
 4444SOL    HW213719   2.462   1.192  11.072
 4445SOL     OW13720   2.197   1.435  10.371
 4445SOL    HW113721   2.119   1.404  10.318
 4445SOL    HW213722   2.255   1.493  10.314
 4446SOL     OW13723   3.322   1.505  10.649
 4446SOL    HW113724   3.346   1.599  10.675
 4446SOL    HW213725   3.306   1.451  10.731
 4447SOL     OW13726   2.300   0.392  10.809
 4447SOL    HW113727   2.382   0.336  10.818
 4447SOL    HW213728   2.219   0.334  10.813
 4448SOL     OW13729   3.465   0.447  10.047
 4448SOL    HW113730   3.391   0.493   9.997
 4448SOL    HW213731   3.516   0.515  10.100
 4449SOL     OW13732   2.093   1.713   9.793
 4449SOL    HW113733   2.127   1.790   9.847
 4449SOL    HW213734   2.137   1.713   9.703
 4450SOL     OW13735   2.989   1.341  11.000
 4450SOL    HW113736   3.036   1.341  11.088
 4450SOL    HW213737   2.941   1.254  10.989
 4451SOL     OW13738   2.092   1.434   9.848
 4451SOL    HW113739   2.066   1.530   9.848
 4451SOL    HW213740   2.021   1.380   9.893
 4452SOL     OW13741   2.102   1.091  10.196
 4452SOL    HW113742   2.116   1.007  10.248
 4452SOL    HW213743   2.047   1.155  10.251
 4453SOL     OW13744   2.482   1.786  10.749
 4453SOL    HW113745   2.390   1.769  10.784
 4453SOL    HW213746   2.510   1.878  10.775
 4454SOL     OW13747   2.468   0.964   9.433
 4454SOL    HW113748   2.475   1.048   9.379
 4454SOL    HW213749   2.514   0.977   9.521
 4455SOL     OW13750   3.456   0.114  10.790
 4455SOL    HW113751   3.438   0.181  10.718
 4455SOL    HW213752   3.453   0.160  10.879
 4456SOL     OW13753   1.984   0.643   9.873
 4456SOL    HW113754   1.939   0.555   9.890
 4456SOL    HW213755   1.983   0.697   9.957
 4457SOL     OW13756   3.704   1.767   9.669
 4457SOL    HW113757   3.758   1.738   9.749
 4457SOL    HW213758   3.734   1.857   9.640
 4458SOL     OW13759   1.889   1.596   9.427
 4458SOL    HW113760   1.870   1.500   9.448
 4458SOL    HW213761   1.856   1.654   9.502
 4459SOL     OW13762   3.551   0.922   9.922
 4459SOL    HW113763   3.646   0.893   9.930
 4459SOL    HW213764   3.543   0.987   9.847
 4460SOL     OW13765   3.503   1.108   9.742
 4460SOL    HW113766   3.589   1.110   9.690
 4460SOL    HW213767   3.517   1.155   9.830
 4461SOL     OW13768   1.975   0.737  10.907
 4461SOL    HW113769   2.063   0.724  10.952
 4461SOL    HW213770   1.962   0.834  10.885
 4462SOL     OW13771   2.475   1.365  10.036
 4462SOL    HW113772   2.426   1.278  10.045
 4462SOL    HW213773   2.452   1.408   9.949
 4463SOL     OW13774   3.155   1.228  10.733
 4463SOL    HW113775   3.192   1.155  10.675
 4463SOL    HW213776   3.207   1.233  10.818
 4464SOL     OW13777   2.671   0.004   9.812
 4464SOL    HW113778   2.711   0.095   9.803
 4464SOL    HW213779   2.571   0.012   9.818
 4465SOL     OW13780   2.059   0.976  10.574
 4465SOL    HW113781   2.148   0.931  10.560
 4465SOL    HW213782   1.986   0.911  10.555
 4466SOL     OW13783   3.387   0.999   9.500
 4466SOL    HW113784   3.324   0.923   9.513
 4466SOL    HW213785   3.435   1.017   9.586
 4467SOL     OW13786   3.049   1.792  10.926
 4467SOL    HW113787   3.073   1.852  10.850
 4467SOL    HW213788   3.056   1.697  10.896
 4468SOL     OW13789   2.179   0.251  11.111
 4468SOL    HW113790   2.250   0.322  11.117
 4468SOL    HW213791   2.091   0.290  11.139
 4469SOL     OW13792   3.328   1.417  10.263
 4469SOL    HW113793   3.269   1.423  10.343
 4469SOL    HW213794   3.313   1.329  10.217
 4470SOL     OW13795   3.529   1.714   9.882
 4470SOL    HW113796   3.488   1.691   9.794
 4470SOL    HW213797   3.511   1.640   9.947
 4471SOL     OW13798   2.460   0.729   9.580
 4471SOL    HW113799   2.484   0.798   9.512
 4471SOL    HW213800   2.382   0.762   9.634
 4472SOL     OW13801   3.143   0.345  10.254
 4472SOL    HW113802   3.057   0.295  10.241
 4472SOL    HW213803   3.205   0.291  10.310
 4473SOL     OW13804   3.438   1.662   9.617
 4473SOL    HW113805   3.527   1.708   9.620
 4473SOL    HW213806   3.417   1.638   9.522
 4474SOL     OW13807   2.669   0.605  10.775
 4474SOL    HW113808   2.622   0.602  10.864
 4474SOL    HW213809   2.618   0.550  10.709
 4475SOL     OW13810   3.256   0.469  10.984
 4475SOL    HW113811   3.236   0.512  11.072
 4475SOL    HW213812   3.334   0.407  10.993
 4476SOL     OW13813   2.835   0.890  10.882
 4476SOL    HW113814   2.881   0.806  10.853
 4476SOL    HW213815   2.779   0.924  10.807
 4477SOL     OW13816   2.853   0.410  10.552
 4477SOL    HW113817   2.776   0.444  10.606
 4477SOL    HW213818   2.819   0.359  10.473
 4478SOL     OW13819   2.903   0.701   9.739
 4478SOL    HW113820   2.929   0.697   9.835
 4478SOL    HW213821   2.818   0.650   9.725
 4479SOL     OW13822   1.938   0.811  10.099
 4479SOL    HW113823   2.037   0.799  10.108
 4479SOL    HW213824   1.914   0.906  10.120
 4480SOL     OW13825   2.727   0.348   9.505
 4480SOL    HW113826   2.786   0.411   9.456
 4480SOL    HW213827   2.746   0.254   9.476
 4481SOL     OW13828   3.581   0.585  11.141
 4481SOL    HW113829   3.555   0.674  11.105
 4481SOL    HW213830   3.579   0.517  11.068
 4482SOL     OW13831   3.224   1.144   9.855
 4482SOL    HW113832   3.307   1.115   9.807
 4482SOL    HW213833   3.175   1.211   9.799
 4483SOL     OW13834   2.412   0.196  10.195
 4483SOL    HW113835   2.407   0.191  10.295
 4483SOL    HW213836   2.414   0.292  10.166
 4484SOL     OW13837   2.870   1.456   9.787
 4484SOL    HW113838   2.824   1.528   9.735
 4484SOL    HW213839   2.866   1.476   9.885
 4485SOL     OW13840   2.213   1.801  10.163
 4485SOL    HW113841   2.263   1.715  10.169
 4485SOL    HW213842   2.278   1.878  10.160
 4486SOL     OW13843   3.657   1.066  10.183
 4486SOL    HW113844   3.595   1.051  10.107
 4486SOL    HW213845   3.605   1.077  10.268
 4487SOL     OW13846   3.089   1.550  10.816
 4487SOL    HW113847   3.095   1.473  10.880
 4487SOL    HW213848   3.037   1.524  10.736
 4488SOL     OW13849   2.183   0.943   9.552
 4488SOL    HW113850   2.265   0.982   9.510
 4488SOL    HW213851   2.156   0.861   9.503
 4489SOL     OW13852   3.320   0.735  10.038
 4489SOL    HW113853   3.315   0.670  10.113
 4489SOL    HW213854   3.400   0.794  10.051
 4490SOL     OW13855   2.323   1.266  11.037
 4490SOL    HW113856   2.273   1.267  10.951
 4490SOL    HW213857   2.260   1.248  11.113
 4491SOL     OW13858   2.973   1.776   9.547
 4491SOL    HW113859   2.913   1.714   9.597
 4491SOL    HW213860   3.004   1.732   9.462
 4492SOL     OW13861   2.064   0.285  10.808
 4492SOL    HW113862   1.984   0.345  10.795
 4492SOL    HW213863   2.054   0.236  10.894
 4493SOL     OW13864   3.494   1.377   9.391
 4493SOL    HW113865   3.462   1.471   9.381
 4493SOL    HW213866   3.418   1.314   9.379
 4494SOL     OW13867   2.326   1.743   9.633
 4494SOL    HW113868   2.359   1.782   9.719
 4494SOL    HW213869   2.402   1.736   9.568
 4495SOL     OW13870   3.262   0.107   9.736
 4495SOL    HW113871   3.238   0.070   9.646
 4495SOL    HW213872   3.361   0.123   9.740
 4496SOL     OW13873   2.111   1.785  10.551
 4496SOL    HW113874   2.168   1.720  10.601
 4496SOL    HW213875   2.095   1.752  10.458
 4497SOL     OW13876   2.802   1.698  10.214
 4497SOL    HW113877   2.882   1.641  10.235
 4497SOL    HW213878   2.753   1.658  10.137
 4498SOL     OW13879   2.244   0.700   9.790
 4498SOL    HW113880   2.289   0.610   9.787
 4498SOL    HW213881   2.150   0.689   9.823
 4499SOL     OW13882   3.409   0.222  11.039
 4499SOL    HW113883   3.404   0.259  11.131
 4499SOL    HW213884   3.337   0.153  11.027
 4500SOL     OW13885   2.476   0.122   9.427
 4500SOL    HW113886   2.574   0.100   9.434
 4500SOL    HW213887   2.445   0.105   9.334
 4501SOL     OW13888   2.643   0.264  11.059
 4501SOL    HW113889   2.710   0.203  11.102
 4501SOL    HW213890   2.570   0.283  11.124
 4502SOL     OW13891   2.750   1.514  10.505
 4502SOL    HW113892   2.727   1.489  10.411
 4502SOL    HW213893   2.811   1.445  10.544
 4503SOL     OW13894   3.213   0.590  10.743
 4503SOL    HW113895   3.241   0.547  10.828
 4503SOL    HW213896   3.238   0.686  10.744
 4504SOL     OW13897   2.665   1.402  10.234
 4504SOL    HW113898   2.755   1.416  10.192
 4504SOL    HW213899   2.594   1.404  10.163
 4505SOL     OW13900   2.784   0.503  10.209
 4505SOL    HW113901   2.759   0.494  10.113
 4505SOL    HW213902   2.832   0.421  10.240
 4506SOL     OW13903   2.401   0.064   9.822
 4506SOL    HW113904   2.320   0.065   9.880
 4506SOL    HW213905   2.404   0.147   9.767
 4507SOL     OW13906   3.296   1.188   9.351
 4507SOL    HW113907   3.328   1.112   9.408
 4507SOL    HW213908   3.204   1.215   9.381
 4508SOL     OW13909   2.159   0.035   9.481
 4508SOL    HW113910   2.208   0.119   9.460
 4508SOL    HW213911   2.221  -0.030   9.526
 4509SOL     OW13912   2.797   0.236   9.790
 4509SOL    HW113913   2.749   0.277   9.712
 4509SOL    HW213914   2.896   0.234   9.771
 4510SOL     OW13915   2.938   0.683  10.774
 4510SOL    HW113916   2.858   0.622  10.777
 4510SOL    HW213917   3.019   0.630  10.750
 4511SOL     OW13918   3.089   1.570  10.103
 4511SOL    HW113919   3.110   1.644  10.038
 4511SOL    HW213920   3.157   1.570  10.176
 4512SOL     OW13921   2.321   1.152  10.051
 4512SOL    HW113922   2.250   1.125  10.116
 4512SOL    HW213923   2.295   1.124   9.958
 4513SOL     OW13924   3.133   1.797   9.901
 4513SOL    HW113925   3.177   1.861   9.837
 4513SOL    HW213926   3.083   1.849   9.971
 4514SOL     OW13927   2.894   0.549   9.326
 4514SOL    HW113928   2.853   0.631   9.287
 4514SOL    HW213929   2.958   0.575   9.399
 4515SOL     OW13930   1.940   0.556  10.696
 4515SOL    HW113931   2.032   0.555  10.655
 4515SOL    HW213932   1.934   0.630  10.763
 4516SOL     OW13933   2.423   0.222  10.457
 4516SOL    HW113934   2.461   0.138  10.494
 4516SOL    HW213935   2.335   0.241  10.501
 4517SOL     OW13936   2.728   0.454   9.952
 4517SOL    HW113937   2.696   0.526   9.890
 4517SOL    HW213938   2.752   0.373   9.899
 4518SOL     OW13939   2.879   0.039  10.063
 4518SOL    HW113940   2.807   0.044   9.994
 4518SOL    HW213941   2.855  -0.030  10.132
 4519SOL     OW13942   3.291   1.173  10.177
 4519SOL    HW113943   3.236   1.089  10.170
 4519SOL    HW213944   3.317   1.202  10.085
 4520SOL     OW13945   3.328   0.590  10.302
 4520SOL    HW113946   3.298   0.495  10.309
 4520SOL    HW213947   3.401   0.606  10.368
 4521SOL     OW13948   3.719   0.833   9.687
 4521SOL    HW113949   3.761   0.769   9.751
 4521SOL    HW213950   3.681   0.782   9.609
 4522SOL     OW13951   2.350   1.385   9.484
 4522SOL    HW113952   2.263   1.370   9.531
 4522SOL    HW213953   2.333   1.411   9.389
 4523SOL     OW13954   3.526   1.280   9.967
 4523SOL    HW113955   3.625   1.288   9.981
 4523SOL    HW213956   3.481   1.364   9.998
 4524SOL     OW13957   3.252   0.575   9.388
 4524SOL    HW113958   3.198   0.554   9.469
 4524SOL    HW213959   3.343   0.534   9.397
 4525SOL     OW13960   2.389   0.256   9.638
 4525SOL    HW113961   2.416   0.197   9.563
 4525SOL    HW213962   2.389   0.351   9.607
 4526SOL     OW13963   3.616   1.223  10.898
 4526SOL    HW113964   3.707   1.184  10.885
 4526SOL    HW213965   3.624   1.319  10.922
 4527SOL     OW13966   2.926   1.347  10.650
 4527SOL    HW113967   2.846   1.324  10.705
 4527SOL    HW213968   3.009   1.321  10.699
 4528SOL     OW13969   3.454   1.629  10.935
 4528SOL    HW113970   3.481   1.663  10.845
 4528SOL    HW213971   3.533   1.591  10.981
 4529SOL     OW13972   2.973   1.195  10.410
 4529SOL    HW113973   2.933   1.239  10.491
 4529SOL    HW213974   2.932   1.232  10.327
 4530SOL     OW13975   3.500   1.099  10.389
 4530SOL    HW113976   3.505   1.180  10.448
 4530SOL    HW213977   3.414   1.101  10.338
 4531SOL     OW13978   2.777   0.089  10.712
 4531SOL    HW113979   2.802   0.069  10.617
 4531SOL    HW213980   2.849   0.145  10.754
 4532SOL     OW13981   2.842   1.116  11.029
 4532SOL    HW113982   2.743   1.122  11.039
 4532SOL    HW213983   2.865   1.036  10.973
 4533SOL     OW13984   2.567   1.050   9.678
 4533SOL    HW113985   2.553   1.057   9.777
 4533SOL    HW213986   2.651   0.999   9.660
 4534SOL     OW13987   2.272   0.813  10.561
 4534SOL    HW113988   2.358   0.825  10.611
 4534SOL    HW213989   2.230   0.726  10.588
 4535SOL     OW13990   3.136   0.386  10.572
 4535SOL    HW113991   3.157   0.460  10.636
 4535SOL    HW213992   3.047   0.403  10.529
 4536SOL     OW13993   1.926   1.564  10.641
 4536SOL    HW113994   1.880   1.646  10.607
 4536SOL    HW213995   2.024   1.583  10.650
 4537SOL     OW13996   2.229   1.100   9.811
 4537SOL    HW113997   2.222   1.183   9.755
 4537SOL    HW213998   2.233   1.020   9.751
 4538SOL     OW13999   2.428   0.537  10.175
 4538SOL    HW114000   2.440   0.603  10.101
 4538SOL    HW214001   2.474   0.571  10.258
 4539SOL     OW14002   3.114   1.348   9.698
 4539SOL    HW114003   3.164   1.425   9.738
 4539SOL    HW214004   3.019   1.350   9.730
 4540SOL     OW14005   3.134   1.445  10.452
 4540SOL    HW114006   3.181   1.458  10.539
 4540SOL    HW214007   3.068   1.371  10.461
 4541SOL     OW14008   3.444   0.639   9.782
 4541SOL    HW114009   3.413   0.700   9.855
 4541SOL    HW214010   3.494   0.691   9.713
 4542SOL     OW14011   2.216   1.510  10.639
 4542SOL    HW114012   2.195   1.466  10.552
 4542SOL    HW214013   2.313   1.536  10.642
 4543SOL     OW14014   2.264   0.751  10.908
 4543SOL    HW114015   2.332   0.806  10.861
 4543SOL    HW214016   2.304   0.663  10.935
 4544SOL     OW14017   3.449   0.779  10.980
 4544SOL    HW114018   3.357   0.817  10.975
 4544SOL    HW214019   3.509   0.826  10.915
 4545SOL     OW14020   2.875   0.105  11.080
 4545SOL    HW114021   2.881   0.190  11.028
 4545SOL    HW214022   2.907   0.029  11.023
 4546SOL     OW14023   2.366   0.050  11.050
 4546SOL    HW114024   2.324  -0.007  10.980
 4546SOL    HW214025   2.300   0.119  11.082
 4547SOL     OW14026   2.435   0.870  10.339
 4547SOL    HW114027   2.479   0.959  10.330
 4547SOL    HW214028   2.372   0.870  10.416
 4548SOL     OW14029   3.222   0.862  10.355
 4548SOL    HW114030   3.147   0.862  10.289
 4548SOL    HW214031   3.259   0.770  10.364
 4549SOL     OW14032   3.071   0.525   9.585
 4549SOL    HW114033   3.084   0.441   9.639
 4549SOL    HW214034   3.042   0.599   9.645
 4550SOL     OW14035   2.169   0.213  10.541
 4550SOL    HW114036   2.146   0.250  10.631
 4550SOL    HW214037   2.139   0.118  10.535
 4551SOL     OW14038   1.899   1.310  10.592
 4551SOL    HW114039   1.952   1.261  10.660
 4551SOL    HW214040   1.921   1.408  10.597
 4552SOL     OW14041   2.594   0.634  10.374
 4552SOL    HW114042   2.653   0.608  10.298
 4552SOL    HW214043   2.566   0.730  10.363
 4553SOL     OW14044   3.590   0.935  11.164
 4553SOL    HW114045   3.544   0.928  11.075
 4553SOL    HW214046   3.528   0.979  11.230
 4554SOL     OW14047   2.169   0.063   9.928
 4554SOL    HW114048   2.158   0.157   9.961
 4554SOL    HW214049   2.164   0.000  10.005
 4555SOL     OW14050   3.484   0.367   9.684
 4555SOL    HW114051   3.486   0.291   9.748
 4555SOL    HW214052   3.436   0.444   9.724
 4556SOL     OW14053   2.885   0.766  10.276
 4556SOL    HW114054   2.900   0.787  10.372
 4556SOL    HW214055   2.855   0.671  10.267
 4557SOL     OW14056   2.842   1.573  11.010
 4557SOL    HW114057   2.822   1.617  10.922
 4557SOL    HW214058   2.881   1.482  10.994
 4558SOL     OW14059   3.721   1.518  10.915
 4558SOL    HW114060   3.735   1.545  10.820
 4558SOL    HW214061   3.804   1.540  10.968
 4559SOL     OW14062   2.212   0.898  11.114
 4559SOL    HW114063   2.288   0.942  11.162
 4559SOL    HW214064   2.247   0.851  11.032
 4560SOL     OW14065   3.402   0.274   9.435
 4560SOL    HW114066   3.341   0.199   9.458
 4560SOL    HW214067   3.424   0.326   9.518
 4561SOL     OW14068   3.165   0.838   9.352
 4561SOL    HW114069   3.199   0.745   9.367
 4561SOL    HW214070   3.183   0.865   9.257
 4562SOL     OW14071   2.930   1.333  10.159
 4562SOL    HW114072   2.937   1.249  10.104
 4562SOL    HW214073   2.992   1.402  10.123
 4563SOL     OW14074   2.181   0.810  10.259
 4563SOL    HW114075   2.274   0.846  10.264
 4563SOL    HW214076   2.175   0.725  10.311
 4564SOL     OW14077   2.201   0.509  10.316
 4564SOL    HW114078   2.149   0.426  10.299
 4564SOL    HW214079   2.278   0.514  10.252
 4565SOL     OW14080   3.000   0.380  10.988
 4565SOL    HW114081   2.955   0.443  11.052
 4565SOL    HW214082   3.093   0.411  10.971
 4566SOL     OW14083   3.022   0.207  10.787
 4566SOL    HW114084   3.022   0.271  10.864
 4566SOL    HW214085   3.050   0.255  10.704
 4567SOL     OW14086   1.870   1.326   9.510
 4567SOL    HW114087   1.777   1.347   9.479
 4567SOL    HW214088   1.880   1.227   9.523
 4568SOL     OW14089   1.950   1.801  10.237
 4568SOL    HW114090   1.908   1.715  10.210
 4568SOL    HW214091   2.044   1.804  10.203
 4569SOL     OW14092   2.366   1.568  10.220
 4569SOL    HW114093   2.432   1.642  10.229
 4569SOL    HW214094   2.410   1.489  10.178
 4570SOL     OW14095   2.864   0.796  10.548
 4570SOL    HW114096   2.905   0.764  10.634
 4570SOL    HW214097   2.768   0.769  10.545
 4571SOL     OW14098   1.902   0.544  10.424
 4571SOL    HW114099   1.987   0.511  10.383
 4571SOL    HW214100   1.915   0.559  10.522
 4572SOL     OW14101   2.051   0.520  11.032
 4572SOL    HW114102   2.110   0.480  10.962
 4572SOL    HW214103   1.993   0.591  10.991
 4573SOL     OW14104   3.231   0.950  10.970
 4573SOL    HW114105   3.270   1.039  10.990
 4573SOL    HW214106   3.241   0.930  10.873
 4574SOL     OW14107   2.677   0.572   9.635
 4574SOL    HW114108   2.684   0.483   9.589
 4574SOL    HW214109   2.583   0.606   9.627
 4575SOL     OW14110   3.519   0.604  10.516
 4575SOL    HW114111   3.481   0.535  10.578
 4575SOL    HW214112   3.601   0.568  10.472
 4576SOL     OW14113   2.114   1.564  11.054
 4576SOL    HW114114   2.084   1.621  11.130
 4576SOL    HW214115   2.107   1.467  11.080
 4577SOL     OW14116   2.533   0.464  10.579
 4577SOL    HW114117   2.499   0.375  10.549
 4577SOL    HW214118   2.559   0.518  10.499
 4578SOL     OW14119   2.792   1.678  10.775
 4578SOL    HW114120   2.768   1.660  10.680
 4578SOL    HW214121   2.822   1.772  10.785
 4579SOL     OW14122   2.335   0.500   9.501
 4579SOL    HW114123   2.396   0.580   9.505
 4579SOL    HW214124   2.240   0.531   9.508
 4580SOL     OW14125   2.021   1.137  10.776
 4580SOL    HW114126   2.043   1.076  10.852
 4580SOL    HW214127   2.031   1.088  10.690
 4581SOL     OW14128   3.209   1.059  10.544
 4581SOL    HW114129   3.233   0.996  10.470
 4581SOL    HW214130   3.119   1.099  10.526
 4582SOL     OW14131   3.164   0.855   9.619
 4582SOL    HW114132   3.078   0.824   9.661
 4582SOL    HW214133   3.160   0.841   9.520
 4583SOL     OW14134   3.621   1.747  10.464
 4583SOL    HW114135   3.682   1.777  10.391
 4583SOL    HW214136   3.583   1.658  10.442
 4584SOL     OW14137   3.114   1.731  10.438
 4584SOL    HW114138   3.198   1.736  10.384
 4584SOL    HW214139   3.091   1.635  10.456
 4585SOL     OW14140   1.945   1.258  10.332
 4585SOL    HW114141   1.940   1.257  10.432
 4585SOL    HW214142   1.862   1.217  10.294
 4586SOL     OW14143   2.550   1.662  11.026
 4586SOL    HW114144   2.494   1.743  11.035
 4586SOL    HW214145   2.602   1.666  10.940
 4587SOL     OW14146   3.588   0.135   9.833
 4587SOL    HW114147   3.661   0.118   9.766
 4587SOL    HW214148   3.557   0.048   9.871
 4588SOL     OW14149   3.250   1.573   9.787
 4588SOL    HW114150   3.317   1.585   9.713
 4588SOL    HW214151   3.210   1.662   9.810
 4589SOL     OW14152   1.992   1.794  11.161
 4589SOL    HW114153   1.951   1.720  11.214
 4589SOL    HW214154   2.056   1.845  11.219
 4590SOL     OW14155   3.142   0.927   9.982
 4590SOL    HW114156   3.202   0.846   9.984
 4590SOL    HW214157   3.182   0.996   9.922
 4591SOL     OW14158   2.692   1.273  10.732
 4591SOL    HW114159   2.687   1.306  10.827
 4591SOL    HW214160   2.606   1.292  10.686
 4592SOL     OW14161   2.534   1.616   9.464
 4592SOL    HW114162   2.543   1.626   9.365
 4592SOL    HW214163   2.494   1.527   9.485
 4593SOL     OW14164   3.512   1.720  10.704
 4593SOL    HW114165   3.565   1.730  10.620
 4593SOL    HW214166   3.485   1.810  10.738
 4594SOL     OW14167   3.703   0.175  10.273
 4594SOL    HW114168   3.742   0.090  10.237
 4594SOL    HW214169   3.605   0.177  10.254
 4595SOL     OW14170   2.125   0.326  10.030
 4595SOL    HW114171   2.046   0.377   9.996
 4595SOL    HW214172   2.116   0.311  10.128
 4596SOL     OW14173   3.056   1.612   9.341
 4596SOL    HW114174   3.062   1.519   9.378
 4596SOL    HW214175   2.997   1.612   9.261
 4597SOL     OW14176   2.684   1.002  10.682
 4597SOL    HW114177   2.724   1.001  10.590
 4597SOL    HW214178   2.694   1.094  10.722
 4598SOL     OW14179   2.778   0.910   9.601
 4598SOL    HW114180   2.841   0.948   9.533
 4598SOL    HW214181   2.818   0.827   9.640
 4599SOL     OW14182   3.366   1.607   9.354
 4599SOL    HW114183   3.274   1.644   9.361
 4599SOL    HW214184   3.404   1.627   9.264
 4600SOL     OW14185   2.234   1.288  10.800
 4600SOL    HW114186   2.221   1.381  10.766
 4600SOL    HW214187   2.150   1.236  10.787
 4601SOL     OW14188   3.476   1.292  10.599
 4601SOL    HW114189   3.536   1.295  10.679
 4601SOL    HW214190   3.401   1.356  10.612
 4602SOL     OW14191   2.901   1.098  10.006
 4602SOL    HW114192   2.831   1.051  10.060
 4602SOL    HW214193   2.960   1.030   9.963
 4603SOL     OW14194   2.876   0.236  10.281
 4603SOL    HW114195   2.868   0.200  10.188
 4603SOL    HW214196   2.874   0.160  10.346
 4604SOL     OW14197   2.452   1.487   9.801
 4604SOL    HW114198   2.494   1.429   9.731
 4604SOL    HW214199   2.408   1.566   9.757
 4605SOL     OW14200   3.571   0.385  10.691
 4605SOL    HW114201   3.644   0.454  10.695
 4605SOL    HW214202   3.599   0.310  10.632
 4606SOL     OW14203   2.117   1.348   9.600
 4606SOL    HW114204   2.021   1.349   9.573
 4606SOL    HW214205   2.129   1.401   9.684
 4607SOL     OW14206   1.967   1.013  11.036
 4607SOL    HW114207   1.890   0.980  11.090
 4607SOL    HW214208   2.052   0.983  11.078
 4608SOL     OW14209   2.534   0.203  10.799
 4608SOL    HW114210   2.624   0.187  10.759
 4608SOL    HW214211   2.542   0.208  10.898
 4609SOL     OW14212   1.937   0.345   9.343
 4609SOL    HW114213   1.845   0.317   9.314
 4609SOL    HW214214   1.968   0.422   9.287
 4610SOL     OW14215   3.302   0.856  10.708
 4610SOL    HW114216   3.245   0.908  10.645
 4610SOL    HW214217   3.398   0.868  10.684
 4611SOL     OW14218   1.934   0.166   9.628
 4611SOL    HW114219   1.917   0.249   9.574
 4611SOL    HW214220   2.024   0.129   9.606
 4612SOL     OW14221   3.045   1.335   9.429
 4612SOL    HW114222   2.946   1.324   9.431
 4612SOL    HW214223   3.079   1.350   9.522
 4613SOL     OW14224   2.475   0.842  10.741
 4613SOL    HW114225   2.531   0.923  10.724
 4613SOL    HW214226   2.534   0.762  10.744
 4614SOL     OW14227   3.355   1.767  10.269
 4614SOL    HW114228   3.388   1.831  10.200
 4614SOL    HW214229   3.421   1.761  10.344
 4615SOL     OW14230   2.578   0.565  11.018
 4615SOL    HW114231   2.597   0.630  11.092
 4615SOL    HW214232   2.638   0.485  11.027
 4616SOL     OW14233   3.312   1.220  10.943
 4616SOL    HW114234   3.303   1.210  11.042
 4616SOL    HW214235   3.408   1.213  10.917
 4617SOL     OW14236   2.252   1.741  10.870
 4617SOL    HW114237   2.161   1.782  10.868
 4617SOL    HW214238   2.245   1.647  10.902
 4618SOL     OW14239   3.536   0.883  10.564
 4618SOL    HW114240   3.509   0.794  10.527
 4618SOL    HW214241   3.537   0.951  10.491
 4619SOL     OW14242   3.087   0.325   9.759
 4619SOL    HW114243   3.152   0.251   9.748
 4619SOL    HW214244   3.107   0.375   9.843
 4620SOL     OW14245   2.456   0.745   9.962
 4620SOL    HW114246   2.506   0.830   9.943
 4620SOL    HW214247   2.368   0.747   9.914
 4621SOL     OW14248   3.639   0.342  10.952
 4621SOL    HW114249   3.622   0.373  10.858
 4621SOL    HW214250   3.555   0.305  10.990
 4622SOL     OW14251   3.592   0.934  10.827
 4622SOL    HW114252   3.630   1.025  10.842
 4622SOL    HW214253   3.584   0.917  10.728
 4623SOL     OW14254   2.721   1.374   9.326
 4623SOL    HW114255   2.675   1.389   9.414
 4623SOL    HW214256   2.765   1.459   9.296
 4624SOL     OW14257   2.523   1.790  10.263
 4624SOL    HW114258   2.477   1.878  10.250
 4624SOL    HW214259   2.622   1.802  10.256
 4625SOL     OW14260   2.721   0.956  10.171
 4625SOL    HW114261   2.775   0.887  10.219
 4625SOL    HW214262   2.689   1.025  10.237
 4626SOL     OW14263   2.945   0.984   9.397
 4626SOL    HW114264   2.922   1.037   9.315
 4626SOL    HW214265   3.026   0.928   9.378
 4627SOL     OW14266   3.723   1.569  10.161
 4627SOL    HW114267   3.652   1.557  10.091
 4627SOL    HW214268   3.724   1.490  10.221
 4628SOL     OW14269   2.083   1.314  11.154
 4628SOL    HW114270   2.018   1.241  11.133
 4628SOL    HW214271   2.087   1.328  11.252
 4629SOL     OW14272   1.941   1.240   9.963
 4629SOL    HW114273   1.940   1.193  10.051
 4629SOL    HW214274   2.023   1.212   9.912
 4630SOL     OW14275   2.534   1.391  10.934
 4630SOL    HW114276   2.456   1.341  10.972
 4630SOL    HW214277   2.531   1.486  10.965
 4631SOL     OW14278   3.686   0.192  10.537
 4631SOL    HW114279   3.682   0.102  10.581
 4631SOL    HW214280   3.689   0.181  10.438
 4632SOL     OW14281   2.290   0.424   9.830
 4632SOL    HW114282   2.320   0.352   9.768
 4632SOL    HW214283   2.251   0.384   9.913
 4633SOL     OW14284   3.567   1.487  10.414
 4633SOL    HW114285   3.474   1.462  10.387
 4633SOL    HW214286   3.593   1.437  10.496
 4634SOL     OW14287   2.179   0.547  10.590
 4634SOL    HW114288   2.217   0.488  10.662
 4634SOL    HW214289   2.219   0.521  10.502
 4635SOL     OW14290   2.674   1.586   9.997
 4635SOL    HW114291   2.706   1.596   9.903
 4635SOL    HW214292   2.595   1.524   9.999
 4636SOL     OW14293   3.286   0.214  10.422
 4636SOL    HW114294   3.338   0.149  10.477
 4636SOL    HW214295   3.237   0.277  10.483
 4637SOL     OW14296   2.863   0.034  10.464
 4637SOL    HW114297   2.800  -0.038  10.433
 4637SOL    HW214298   2.956  -0.002  10.464
 4638SOL     OW14299   2.632   1.330   9.611
 4638SOL    HW114300   2.586   1.243   9.628
 4638SOL    HW214301   2.723   1.327   9.652
 4639SOL     OW14302   2.480   1.567  10.594
 4639SOL    HW114303   2.475   1.649  10.651
 4639SOL    HW214304   2.569   1.564  10.549
 4640SOL     OW14305   3.214   0.052   9.478
 4640SOL    HW114306   3.249   0.011   9.394
 4640SOL    HW214307   3.124   0.014   9.498
 4641SOL     OW14308   3.162   0.453  10.001
 4641SOL    HW114309   3.103   0.533  10.005
 4641SOL    HW214310   3.177   0.418  10.094
 4642SOL     OW14311   3.455   0.221  10.192
 4642SOL    HW114312   3.371   0.220  10.246
 4642SOL    HW214313   3.457   0.304  10.136
 4643SOL     OW14314   1.901   1.077   9.610
 4643SOL    HW114315   2.000   1.066   9.601
 4643SOL    HW214316   1.861   0.991   9.642
 4644SOL     OW14317   2.737   1.646   9.647
 4644SOL    HW114318   2.660   1.611   9.593
 4644SOL    HW214319   2.705   1.717   9.709
 4645SOL     OW14320   2.092   0.628  11.285
 4645SOL    HW114321   1.999   0.626  11.322
 4645SOL    HW214322   2.093   0.589  11.193
 4646SOL     OW14323   2.087   0.275  12.168
 4646SOL    HW114324   2.122   0.258  12.260
 4646SOL    HW214325   1.999   0.230  12.156
 4647SOL     OW14326   1.881   0.368  11.819
 4647SOL    HW114327   1.799   0.411  11.858
 4647SOL    HW214328   1.853   0.295  11.756
 4648SOL     OW14329   2.431   1.275  12.337
 4648SOL    HW114330   2.338   1.268  12.300
 4648SOL    HW214331   2.442   1.364  12.381
 4649SOL     OW14332   3.417   1.511  11.875
 4649SOL    HW114333   3.360   1.495  11.956
 4649SOL    HW214334   3.358   1.521  11.795
 4650SOL     OW14335   2.997   0.703  11.889
 4650SOL    HW114336   3.054   0.781  11.864
 4650SOL    HW214337   2.937   0.729  11.965
 4651SOL     OW14338   3.617   0.607  11.403
 4651SOL    HW114339   3.605   0.594  11.304
 4651SOL    HW214340   3.587   0.526  11.452
 4652SOL     OW14341   2.630   1.144  12.195
 4652SOL    HW114342   2.552   1.161  12.255
 4652SOL    HW214343   2.664   1.231  12.159
 4653SOL     OW14344   2.712   0.798  12.995
 4653SOL    HW114345   2.708   0.874  13.060
 4653SOL    HW214346   2.734   0.834  12.904
 4654SOL     OW14347   2.547   1.012  11.837
 4654SOL    HW114348   2.616   0.996  11.907
 4654SOL    HW214349   2.474   1.069  11.875
 4655SOL     OW14350   2.548   1.161  12.975
 4655SOL    HW114351   2.608   1.240  12.989
 4655SOL    HW214352   2.462   1.192  12.934
 4656SOL     OW14353   2.197   1.435  12.233
 4656SOL    HW114354   2.119   1.404  12.180
 4656SOL    HW214355   2.255   1.493  12.176
 4657SOL     OW14356   3.322   1.505  12.511
 4657SOL    HW114357   3.346   1.599  12.537
 4657SOL    HW214358   3.306   1.451  12.593
 4658SOL     OW14359   2.300   0.392  12.671
 4658SOL    HW114360   2.382   0.336  12.680
 4658SOL    HW214361   2.219   0.334  12.675
 4659SOL     OW14362   3.465   0.447  11.909
 4659SOL    HW114363   3.391   0.493  11.859
 4659SOL    HW214364   3.516   0.515  11.962
 4660SOL     OW14365   2.093   1.713  11.655
 4660SOL    HW114366   2.127   1.790  11.709
 4660SOL    HW214367   2.137   1.713  11.565
 4661SOL     OW14368   2.989   1.341  12.862
 4661SOL    HW114369   3.036   1.341  12.950
 4661SOL    HW214370   2.941   1.254  12.851
 4662SOL     OW14371   2.092   1.434  11.710
 4662SOL    HW114372   2.066   1.530  11.710
 4662SOL    HW214373   2.021   1.380  11.755
 4663SOL     OW14374   2.102   1.091  12.058
 4663SOL    HW114375   2.116   1.007  12.110
 4663SOL    HW214376   2.047   1.155  12.113
 4664SOL     OW14377   2.482   1.786  12.611
 4664SOL    HW114378   2.390   1.769  12.646
 4664SOL    HW214379   2.510   1.878  12.637
 4665SOL     OW14380   2.468   0.964  11.295
 4665SOL    HW114381   2.475   1.048  11.241
 4665SOL    HW214382   2.514   0.977  11.383
 4666SOL     OW14383   3.456   0.114  12.652
 4666SOL    HW114384   3.438   0.181  12.580
 4666SOL    HW214385   3.453   0.160  12.741
 4667SOL     OW14386   1.984   0.643  11.735
 4667SOL    HW114387   1.939   0.555  11.752
 4667SOL    HW214388   1.983   0.697  11.819
 4668SOL     OW14389   3.704   1.767  11.531
 4668SOL    HW114390   3.758   1.738  11.611
 4668SOL    HW214391   3.734   1.857  11.502
 4669SOL     OW14392   1.889   1.596  11.289
 4669SOL    HW114393   1.870   1.500  11.310
 4669SOL    HW214394   1.856   1.654  11.364
 4670SOL     OW14395   3.551   0.922  11.784
 4670SOL    HW114396   3.646   0.893  11.792
 4670SOL    HW214397   3.543   0.987  11.709
 4671SOL     OW14398   3.503   1.108  11.604
 4671SOL    HW114399   3.589   1.110  11.552
 4671SOL    HW214400   3.517   1.155  11.692
 4672SOL     OW14401   1.975   0.737  12.769
 4672SOL    HW114402   2.063   0.724  12.814
 4672SOL    HW214403   1.962   0.834  12.747
 4673SOL     OW14404   2.475   1.365  11.898
 4673SOL    HW114405   2.426   1.278  11.907
 4673SOL    HW214406   2.452   1.408  11.811
 4674SOL     OW14407   3.155   1.228  12.595
 4674SOL    HW114408   3.192   1.155  12.537
 4674SOL    HW214409   3.207   1.233  12.680
 4675SOL     OW14410   2.671   0.004  11.674
 4675SOL    HW114411   2.711   0.095  11.665
 4675SOL    HW214412   2.571   0.012  11.680
 4676SOL     OW14413   2.059   0.976  12.436
 4676SOL    HW114414   2.148   0.931  12.422
 4676SOL    HW214415   1.986   0.911  12.417
 4677SOL     OW14416   3.387   0.999  11.362
 4677SOL    HW114417   3.324   0.923  11.375
 4677SOL    HW214418   3.435   1.017  11.448
 4678SOL     OW14419   3.049   1.792  12.788
 4678SOL    HW114420   3.073   1.852  12.712
 4678SOL    HW214421   3.056   1.697  12.758
 4679SOL     OW14422   2.179   0.251  12.973
 4679SOL    HW114423   2.250   0.322  12.979
 4679SOL    HW214424   2.091   0.290  13.001
 4680SOL     OW14425   3.328   1.417  12.125
 4680SOL    HW114426   3.269   1.423  12.205
 4680SOL    HW214427   3.313   1.329  12.079
 4681SOL     OW14428   3.529   1.714  11.744
 4681SOL    HW114429   3.488   1.691  11.656
 4681SOL    HW214430   3.511   1.640  11.809
 4682SOL     OW14431   2.460   0.729  11.442
 4682SOL    HW114432   2.484   0.798  11.374
 4682SOL    HW214433   2.382   0.762  11.496
 4683SOL     OW14434   3.143   0.345  12.116
 4683SOL    HW114435   3.057   0.295  12.103
 4683SOL    HW214436   3.205   0.291  12.172
 4684SOL     OW14437   3.438   1.662  11.479
 4684SOL    HW114438   3.527   1.708  11.482
 4684SOL    HW214439   3.417   1.638  11.384
 4685SOL     OW14440   2.669   0.605  12.637
 4685SOL    HW114441   2.622   0.602  12.726
 4685SOL    HW214442   2.618   0.550  12.571
 4686SOL     OW14443   3.256   0.469  12.846
 4686SOL    HW114444   3.236   0.512  12.934
 4686SOL    HW214445   3.334   0.407  12.855
 4687SOL     OW14446   2.835   0.890  12.744
 4687SOL    HW114447   2.881   0.806  12.715
 4687SOL    HW214448   2.779   0.924  12.669
 4688SOL     OW14449   2.853   0.410  12.414
 4688SOL    HW114450   2.776   0.444  12.468
 4688SOL    HW214451   2.819   0.359  12.335
 4689SOL     OW14452   2.903   0.701  11.601
 4689SOL    HW114453   2.929   0.697  11.697
 4689SOL    HW214454   2.818   0.650  11.587
 4690SOL     OW14455   1.938   0.811  11.961
 4690SOL    HW114456   2.037   0.799  11.970
 4690SOL    HW214457   1.914   0.906  11.982
 4691SOL     OW14458   2.727   0.348  11.367
 4691SOL    HW114459   2.786   0.411  11.318
 4691SOL    HW214460   2.746   0.254  11.338
 4692SOL     OW14461   3.581   0.585  13.003
 4692SOL    HW114462   3.555   0.674  12.967
 4692SOL    HW214463   3.579   0.517  12.930
 4693SOL     OW14464   3.224   1.144  11.717
 4693SOL    HW114465   3.307   1.115  11.669
 4693SOL    HW214466   3.175   1.211  11.661
 4694SOL     OW14467   2.412   0.196  12.057
 4694SOL    HW114468   2.407   0.191  12.157
 4694SOL    HW214469   2.414   0.292  12.028
 4695SOL     OW14470   2.870   1.456  11.649
 4695SOL    HW114471   2.824   1.528  11.597
 4695SOL    HW214472   2.866   1.476  11.747
 4696SOL     OW14473   2.213   1.801  12.025
 4696SOL    HW114474   2.263   1.715  12.031
 4696SOL    HW214475   2.278   1.878  12.022
 4697SOL     OW14476   3.657   1.066  12.045
 4697SOL    HW114477   3.595   1.051  11.969
 4697SOL    HW214478   3.605   1.077  12.130
 4698SOL     OW14479   3.089   1.550  12.678
 4698SOL    HW114480   3.095   1.473  12.742
 4698SOL    HW214481   3.037   1.524  12.598
 4699SOL     OW14482   2.183   0.943  11.414
 4699SOL    HW114483   2.265   0.982  11.372
 4699SOL    HW214484   2.156   0.861  11.365
 4700SOL     OW14485   3.320   0.735  11.900
 4700SOL    HW114486   3.315   0.670  11.975
 4700SOL    HW214487   3.400   0.794  11.913
 4701SOL     OW14488   2.323   1.266  12.899
 4701SOL    HW114489   2.273   1.267  12.813
 4701SOL    HW214490   2.260   1.248  12.975
 4702SOL     OW14491   2.973   1.776  11.409
 4702SOL    HW114492   2.913   1.714  11.459
 4702SOL    HW214493   3.004   1.732  11.324
 4703SOL     OW14494   2.064   0.285  12.670
 4703SOL    HW114495   1.984   0.345  12.657
 4703SOL    HW214496   2.054   0.236  12.756
 4704SOL     OW14497   3.494   1.377  11.253
 4704SOL    HW114498   3.462   1.471  11.243
 4704SOL    HW214499   3.418   1.314  11.241
 4705SOL     OW14500   2.326   1.743  11.495
 4705SOL    HW114501   2.359   1.782  11.581
 4705SOL    HW214502   2.402   1.736  11.430
 4706SOL     OW14503   3.262   0.107  11.598
 4706SOL    HW114504   3.238   0.070  11.508
 4706SOL    HW214505   3.361   0.123  11.602
 4707SOL     OW14506   2.111   1.785  12.413
 4707SOL    HW114507   2.168   1.720  12.463
 4707SOL    HW214508   2.095   1.752  12.320
 4708SOL     OW14509   2.802   1.698  12.076
 4708SOL    HW114510   2.882   1.641  12.097
 4708SOL    HW214511   2.753   1.658  11.999
 4709SOL     OW14512   2.244   0.700  11.652
 4709SOL    HW114513   2.289   0.610  11.649
 4709SOL    HW214514   2.150   0.689  11.685
 4710SOL     OW14515   3.409   0.222  12.901
 4710SOL    HW114516   3.404   0.259  12.993
 4710SOL    HW214517   3.337   0.153  12.889
 4711SOL     OW14518   2.476   0.122  11.289
 4711SOL    HW114519   2.574   0.100  11.296
 4711SOL    HW214520   2.445   0.105  11.196
 4712SOL     OW14521   2.643   0.264  12.921
 4712SOL    HW114522   2.710   0.203  12.964
 4712SOL    HW214523   2.570   0.283  12.986
 4713SOL     OW14524   2.750   1.514  12.367
 4713SOL    HW114525   2.727   1.489  12.273
 4713SOL    HW214526   2.811   1.445  12.406
 4714SOL     OW14527   3.213   0.590  12.605
 4714SOL    HW114528   3.241   0.547  12.690
 4714SOL    HW214529   3.238   0.686  12.606
 4715SOL     OW14530   2.665   1.402  12.096
 4715SOL    HW114531   2.755   1.416  12.054
 4715SOL    HW214532   2.594   1.404  12.025
 4716SOL     OW14533   2.784   0.503  12.071
 4716SOL    HW114534   2.759   0.494  11.975
 4716SOL    HW214535   2.832   0.421  12.102
 4717SOL     OW14536   2.401   0.064  11.684
 4717SOL    HW114537   2.320   0.065  11.742
 4717SOL    HW214538   2.404   0.147  11.629
 4718SOL     OW14539   3.296   1.188  11.213
 4718SOL    HW114540   3.328   1.112  11.270
 4718SOL    HW214541   3.204   1.215  11.243
 4719SOL     OW14542   2.159   0.035  11.343
 4719SOL    HW114543   2.208   0.119  11.322
 4719SOL    HW214544   2.221  -0.030  11.388
 4720SOL     OW14545   2.797   0.236  11.652
 4720SOL    HW114546   2.749   0.277  11.574
 4720SOL    HW214547   2.896   0.234  11.633
 4721SOL     OW14548   2.938   0.683  12.636
 4721SOL    HW114549   2.858   0.622  12.639
 4721SOL    HW214550   3.019   0.630  12.612
 4722SOL     OW14551   3.089   1.570  11.965
 4722SOL    HW114552   3.110   1.644  11.900
 4722SOL    HW214553   3.157   1.570  12.038
 4723SOL     OW14554   2.321   1.152  11.913
 4723SOL    HW114555   2.250   1.125  11.978
 4723SOL    HW214556   2.295   1.124  11.820
 4724SOL     OW14557   3.133   1.797  11.763
 4724SOL    HW114558   3.177   1.861  11.699
 4724SOL    HW214559   3.083   1.849  11.833
 4725SOL     OW14560   2.894   0.549  11.188
 4725SOL    HW114561   2.853   0.631  11.149
 4725SOL    HW214562   2.958   0.575  11.261
 4726SOL     OW14563   1.940   0.556  12.558
 4726SOL    HW114564   2.032   0.555  12.517
 4726SOL    HW214565   1.934   0.630  12.625
 4727SOL     OW14566   2.423   0.222  12.319
 4727SOL    HW114567   2.461   0.138  12.356
 4727SOL    HW214568   2.335   0.241  12.363
 4728SOL     OW14569   2.728   0.454  11.814
 4728SOL    HW114570   2.696   0.526  11.752
 4728SOL    HW214571   2.752   0.373  11.761
 4729SOL     OW14572   2.879   0.039  11.925
 4729SOL    HW114573   2.807   0.044  11.856
 4729SOL    HW214574   2.855  -0.030  11.994
 4730SOL     OW14575   3.291   1.173  12.039
 4730SOL    HW114576   3.236   1.089  12.032
 4730SOL    HW214577   3.317   1.202  11.947
 4731SOL     OW14578   3.328   0.590  12.164
 4731SOL    HW114579   3.298   0.495  12.171
 4731SOL    HW214580   3.401   0.606  12.230
 4732SOL     OW14581   3.719   0.833  11.549
 4732SOL    HW114582   3.761   0.769  11.613
 4732SOL    HW214583   3.681   0.782  11.471
 4733SOL     OW14584   2.350   1.385  11.346
 4733SOL    HW114585   2.263   1.370  11.393
 4733SOL    HW214586   2.333   1.411  11.251
 4734SOL     OW14587   3.526   1.280  11.829
 4734SOL    HW114588   3.625   1.288  11.843
 4734SOL    HW214589   3.481   1.364  11.860
 4735SOL     OW14590   3.252   0.575  11.250
 4735SOL    HW114591   3.198   0.554  11.331
 4735SOL    HW214592   3.343   0.534  11.259
 4736SOL     OW14593   2.389   0.256  11.500
 4736SOL    HW114594   2.416   0.197  11.425
 4736SOL    HW214595   2.389   0.351  11.469
 4737SOL     OW14596   3.616   1.223  12.760
 4737SOL    HW114597   3.707   1.184  12.747
 4737SOL    HW214598   3.624   1.319  12.784
 4738SOL     OW14599   2.926   1.347  12.512
 4738SOL    HW114600   2.846   1.324  12.567
 4738SOL    HW214601   3.009   1.321  12.561
 4739SOL     OW14602   3.454   1.629  12.797
 4739SOL    HW114603   3.481   1.663  12.707
 4739SOL    HW214604   3.533   1.591  12.843
 4740SOL     OW14605   2.973   1.195  12.272
 4740SOL    HW114606   2.933   1.239  12.353
 4740SOL    HW214607   2.932   1.232  12.189
 4741SOL     OW14608   3.500   1.099  12.251
 4741SOL    HW114609   3.505   1.180  12.310
 4741SOL    HW214610   3.414   1.101  12.200
 4742SOL     OW14611   2.777   0.089  12.574
 4742SOL    HW114612   2.802   0.069  12.479
 4742SOL    HW214613   2.849   0.145  12.616
 4743SOL     OW14614   2.842   1.116  12.891
 4743SOL    HW114615   2.743   1.122  12.901
 4743SOL    HW214616   2.865   1.036  12.835
 4744SOL     OW14617   2.567   1.050  11.540
 4744SOL    HW114618   2.553   1.057  11.639
 4744SOL    HW214619   2.651   0.999  11.522
 4745SOL     OW14620   2.272   0.813  12.423
 4745SOL    HW114621   2.358   0.825  12.473
 4745SOL    HW214622   2.230   0.726  12.450
 4746SOL     OW14623   3.136   0.386  12.434
 4746SOL    HW114624   3.157   0.460  12.498
 4746SOL    HW214625   3.047   0.403  12.391
 4747SOL     OW14626   1.926   1.564  12.503
 4747SOL    HW114627   1.880   1.646  12.469
 4747SOL    HW214628   2.024   1.583  12.512
 4748SOL     OW14629   2.229   1.100  11.673
 4748SOL    HW114630   2.222   1.183  11.617
 4748SOL    HW214631   2.233   1.020  11.613
 4749SOL     OW14632   2.428   0.537  12.037
 4749SOL    HW114633   2.440   0.603  11.963
 4749SOL    HW214634   2.474   0.571  12.120
 4750SOL     OW14635   3.114   1.348  11.560
 4750SOL    HW114636   3.164   1.425  11.600
 4750SOL    HW214637   3.019   1.350  11.592
 4751SOL     OW14638   3.134   1.445  12.314
 4751SOL    HW114639   3.181   1.458  12.401
 4751SOL    HW214640   3.068   1.371  12.323
 4752SOL     OW14641   3.444   0.639  11.644
 4752SOL    HW114642   3.413   0.700  11.717
 4752SOL    HW214643   3.494   0.691  11.575
 4753SOL     OW14644   2.216   1.510  12.501
 4753SOL    HW114645   2.195   1.466  12.414
 4753SOL    HW214646   2.313   1.536  12.504
 4754SOL     OW14647   2.264   0.751  12.770
 4754SOL    HW114648   2.332   0.806  12.723
 4754SOL    HW214649   2.304   0.663  12.797
 4755SOL     OW14650   3.449   0.779  12.842
 4755SOL    HW114651   3.357   0.817  12.837
 4755SOL    HW214652   3.509   0.826  12.777
 4756SOL     OW14653   2.875   0.105  12.942
 4756SOL    HW114654   2.881   0.190  12.890
 4756SOL    HW214655   2.907   0.029  12.885
 4757SOL     OW14656   2.366   0.050  12.912
 4757SOL    HW114657   2.324  -0.007  12.842
 4757SOL    HW214658   2.300   0.119  12.944
 4758SOL     OW14659   2.435   0.870  12.201
 4758SOL    HW114660   2.479   0.959  12.192
 4758SOL    HW214661   2.372   0.870  12.278
 4759SOL     OW14662   3.222   0.862  12.217
 4759SOL    HW114663   3.147   0.862  12.151
 4759SOL    HW214664   3.259   0.770  12.226
 4760SOL     OW14665   3.071   0.525  11.447
 4760SOL    HW114666   3.084   0.441  11.501
 4760SOL    HW214667   3.042   0.599  11.507
 4761SOL     OW14668   2.169   0.213  12.403
 4761SOL    HW114669   2.146   0.250  12.493
 4761SOL    HW214670   2.139   0.118  12.397
 4762SOL     OW14671   1.899   1.310  12.454
 4762SOL    HW114672   1.952   1.261  12.522
 4762SOL    HW214673   1.921   1.408  12.459
 4763SOL     OW14674   2.594   0.634  12.236
 4763SOL    HW114675   2.653   0.608  12.160
 4763SOL    HW214676   2.566   0.730  12.225
 4764SOL     OW14677   3.590   0.935  13.026
 4764SOL    HW114678   3.544   0.928  12.937
 4764SOL    HW214679   3.528   0.979  13.092
 4765SOL     OW14680   2.169   0.063  11.790
 4765SOL    HW114681   2.158   0.157  11.823
 4765SOL    HW214682   2.164   0.000  11.867
 4766SOL     OW14683   3.484   0.367  11.546
 4766SOL    HW114684   3.486   0.291  11.610
 4766SOL    HW214685   3.436   0.444  11.586
 4767SOL     OW14686   2.885   0.766  12.138
 4767SOL    HW114687   2.900   0.787  12.234
 4767SOL    HW214688   2.855   0.671  12.129
 4768SOL     OW14689   2.842   1.573  12.872
 4768SOL    HW114690   2.822   1.617  12.784
 4768SOL    HW214691   2.881   1.482  12.856
 4769SOL     OW14692   3.721   1.518  12.777
 4769SOL    HW114693   3.735   1.545  12.682
 4769SOL    HW214694   3.804   1.540  12.830
 4770SOL     OW14695   2.212   0.898  12.976
 4770SOL    HW114696   2.288   0.942  13.024
 4770SOL    HW214697   2.247   0.851  12.894
 4771SOL     OW14698   3.402   0.274  11.297
 4771SOL    HW114699   3.341   0.199  11.320
 4771SOL    HW214700   3.424   0.326  11.380
 4772SOL     OW14701   3.165   0.838  11.214
 4772SOL    HW114702   3.199   0.745  11.229
 4772SOL    HW214703   3.183   0.865  11.119
 4773SOL     OW14704   2.930   1.333  12.021
 4773SOL    HW114705   2.937   1.249  11.966
 4773SOL    HW214706   2.992   1.402  11.985
 4774SOL     OW14707   2.181   0.810  12.121
 4774SOL    HW114708   2.274   0.846  12.126
 4774SOL    HW214709   2.175   0.725  12.173
 4775SOL     OW14710   2.201   0.509  12.178
 4775SOL    HW114711   2.149   0.426  12.161
 4775SOL    HW214712   2.278   0.514  12.114
 4776SOL     OW14713   3.000   0.380  12.850
 4776SOL    HW114714   2.955   0.443  12.914
 4776SOL    HW214715   3.093   0.411  12.833
 4777SOL     OW14716   3.022   0.207  12.649
 4777SOL    HW114717   3.022   0.271  12.726
 4777SOL    HW214718   3.050   0.255  12.566
 4778SOL     OW14719   1.870   1.326  11.372
 4778SOL    HW114720   1.777   1.347  11.341
 4778SOL    HW214721   1.880   1.227  11.385
 4779SOL     OW14722   1.950   1.801  12.099
 4779SOL    HW114723   1.908   1.715  12.072
 4779SOL    HW214724   2.044   1.804  12.065
 4780SOL     OW14725   2.366   1.568  12.082
 4780SOL    HW114726   2.432   1.642  12.091
 4780SOL    HW214727   2.410   1.489  12.040
 4781SOL     OW14728   2.864   0.796  12.410
 4781SOL    HW114729   2.905   0.764  12.496
 4781SOL    HW214730   2.768   0.769  12.407
 4782SOL     OW14731   1.902   0.544  12.286
 4782SOL    HW114732   1.987   0.511  12.245
 4782SOL    HW214733   1.915   0.559  12.384
 4783SOL     OW14734   2.051   0.520  12.894
 4783SOL    HW114735   2.110   0.480  12.824
 4783SOL    HW214736   1.993   0.591  12.853
 4784SOL     OW14737   3.231   0.950  12.832
 4784SOL    HW114738   3.270   1.039  12.852
 4784SOL    HW214739   3.241   0.930  12.735
 4785SOL     OW14740   2.677   0.572  11.497
 4785SOL    HW114741   2.684   0.483  11.451
 4785SOL    HW214742   2.583   0.606  11.489
 4786SOL     OW14743   3.519   0.604  12.378
 4786SOL    HW114744   3.481   0.535  12.440
 4786SOL    HW214745   3.601   0.568  12.334
 4787SOL     OW14746   2.114   1.564  12.916
 4787SOL    HW114747   2.084   1.621  12.992
 4787SOL    HW214748   2.107   1.467  12.942
 4788SOL     OW14749   2.533   0.464  12.441
 4788SOL    HW114750   2.499   0.375  12.411
 4788SOL    HW214751   2.559   0.518  12.361
 4789SOL     OW14752   2.792   1.678  12.637
 4789SOL    HW114753   2.768   1.660  12.542
 4789SOL    HW214754   2.822   1.772  12.647
 4790SOL     OW14755   2.335   0.500  11.363
 4790SOL    HW114756   2.396   0.580  11.367
 4790SOL    HW214757   2.240   0.531  11.370
 4791SOL     OW14758   2.021   1.137  12.638
 4791SOL    HW114759   2.043   1.076  12.714
 4791SOL    HW214760   2.031   1.088  12.552
 4792SOL     OW14761   3.209   1.059  12.406
 4792SOL    HW114762   3.233   0.996  12.332
 4792SOL    HW214763   3.119   1.099  12.388
 4793SOL     OW14764   3.164   0.855  11.481
 4793SOL    HW114765   3.078   0.824  11.523
 4793SOL    HW214766   3.160   0.841  11.382
 4794SOL     OW14767   3.621   1.747  12.326
 4794SOL    HW114768   3.682   1.777  12.253
 4794SOL    HW214769   3.583   1.658  12.304
 4795SOL     OW14770   3.114   1.731  12.300
 4795SOL    HW114771   3.198   1.736  12.246
 4795SOL    HW214772   3.091   1.635  12.318
 4796SOL     OW14773   1.945   1.258  12.194
 4796SOL    HW114774   1.940   1.257  12.294
 4796SOL    HW214775   1.862   1.217  12.156
 4797SOL     OW14776   2.550   1.662  12.888
 4797SOL    HW114777   2.494   1.743  12.897
 4797SOL    HW214778   2.602   1.666  12.802
 4798SOL     OW14779   3.588   0.135  11.695
 4798SOL    HW114780   3.661   0.118  11.628
 4798SOL    HW214781   3.557   0.048  11.733
 4799SOL     OW14782   3.250   1.573  11.649
 4799SOL    HW114783   3.317   1.585  11.575
 4799SOL    HW214784   3.210   1.662  11.672
 4800SOL     OW14785   1.992   1.794  13.023
 4800SOL    HW114786   1.951   1.720  13.076
 4800SOL    HW214787   2.056   1.845  13.081
 4801SOL     OW14788   3.142   0.927  11.844
 4801SOL    HW114789   3.202   0.846  11.846
 4801SOL    HW214790   3.182   0.996  11.784
 4802SOL     OW14791   2.692   1.273  12.594
 4802SOL    HW114792   2.687   1.306  12.689
 4802SOL    HW214793   2.606   1.292  12.548
 4803SOL     OW14794   2.534   1.616  11.326
 4803SOL    HW114795   2.543   1.626  11.227
 4803SOL    HW214796   2.494   1.527  11.347
 4804SOL     OW14797   3.512   1.720  12.566
 4804SOL    HW114798   3.565   1.730  12.482
 4804SOL    HW214799   3.485   1.810  12.600
 4805SOL     OW14800   3.703   0.175  12.135
 4805SOL    HW114801   3.742   0.090  12.099
 4805SOL    HW214802   3.605   0.177  12.116
 4806SOL     OW14803   2.125   0.326  11.892
 4806SOL    HW114804   2.046   0.377  11.858
 4806SOL    HW214805   2.116   0.311  11.990
 4807SOL     OW14806   3.056   1.612  11.203
 4807SOL    HW114807   3.062   1.519  11.240
 4807SOL    HW214808   2.997   1.612  11.123
 4808SOL     OW14809   2.684   1.002  12.544
 4808SOL    HW114810   2.724   1.001  12.452
 4808SOL    HW214811   2.694   1.094  12.584
 4809SOL     OW14812   2.778   0.910  11.463
 4809SOL    HW114813   2.841   0.948  11.395
 4809SOL    HW214814   2.818   0.827  11.502
 4810SOL     OW14815   3.366   1.607  11.216
 4810SOL    HW114816   3.274   1.644  11.223
 4810SOL    HW214817   3.404   1.627  11.126
 4811SOL     OW14818   2.234   1.288  12.662
 4811SOL    HW114819   2.221   1.381  12.628
 4811SOL    HW214820   2.150   1.236  12.649
 4812SOL     OW14821   3.476   1.292  12.461
 4812SOL    HW114822   3.536   1.295  12.541
 4812SOL    HW214823   3.401   1.356  12.474
 4813SOL     OW14824   2.901   1.098  11.868
 4813SOL    HW114825   2.831   1.051  11.922
 4813SOL    HW214826   2.960   1.030  11.825
 4814SOL     OW14827   2.876   0.236  12.143
 4814SOL    HW114828   2.868   0.200  12.050
 4814SOL    HW214829   2.874   0.160  12.208
 4815SOL     OW14830   2.452   1.487  11.663
 4815SOL    HW114831   2.494   1.429  11.593
 4815SOL    HW214832   2.408   1.566  11.619
 4816SOL     OW14833   3.571   0.385  12.553
 4816SOL    HW114834   3.644   0.454  12.557
 4816SOL    HW214835   3.599   0.310  12.494
 4817SOL     OW14836   2.117   1.348  11.462
 4817SOL    HW114837   2.021   1.349  11.435
 4817SOL    HW214838   2.129   1.401  11.546
 4818SOL     OW14839   1.967   1.013  12.898
 4818SOL    HW114840   1.890   0.980  12.952
 4818SOL    HW214841   2.052   0.983  12.940
 4819SOL     OW14842   2.534   0.203  12.661
 4819SOL    HW114843   2.624   0.187  12.621
 4819SOL    HW214844   2.542   0.208  12.760
 4820SOL     OW14845   1.937   0.345  11.205
 4820SOL    HW114846   1.845   0.317  11.176
 4820SOL    HW214847   1.968   0.422  11.149
 4821SOL     OW14848   3.302   0.856  12.570
 4821SOL    HW114849   3.245   0.908  12.507
 4821SOL    HW214850   3.398   0.868  12.546
 4822SOL     OW14851   1.934   0.166  11.490
 4822SOL    HW114852   1.917   0.249  11.436
 4822SOL    HW214853   2.024   0.129  11.468
 4823SOL     OW14854   3.045   1.335  11.291
 4823SOL    HW114855   2.946   1.324  11.293
 4823SOL    HW214856   3.079   1.350  11.384
 4824SOL     OW14857   2.475   0.842  12.603
 4824SOL    HW114858   2.531   0.923  12.586
 4824SOL    HW214859   2.534   0.762  12.606
 4825SOL     OW14860   3.355   1.767  12.131
 4825SOL    HW114861   3.388   1.831  12.062
 4825SOL    HW214862   3.421   1.761  12.206
 4826SOL     OW14863   2.578   0.565  12.880
 4826SOL    HW114864   2.597   0.630  12.954
 4826SOL    HW214865   2.638   0.485  12.889
 4827SOL     OW14866   3.312   1.220  12.805
 4827SOL    HW114867   3.303   1.210  12.904
 4827SOL    HW214868   3.408   1.213  12.779
 4828SOL     OW14869   2.252   1.741  12.732
 4828SOL    HW114870   2.161   1.782  12.730
 4828SOL    HW214871   2.245   1.647  12.764
 4829SOL     OW14872   3.536   0.883  12.426
 4829SOL    HW114873   3.509   0.794  12.389
 4829SOL    HW214874   3.537   0.951  12.353
 4830SOL     OW14875   3.087   0.325  11.621
 4830SOL    HW114876   3.152   0.251  11.610
 4830SOL    HW214877   3.107   0.375  11.705
 4831SOL     OW14878   2.456   0.745  11.824
 4831SOL    HW114879   2.506   0.830  11.805
 4831SOL    HW214880   2.368   0.747  11.776
 4832SOL     OW14881   3.639   0.342  12.814
 4832SOL    HW114882   3.622   0.373  12.720
 4832SOL    HW214883   3.555   0.305  12.852
 4833SOL     OW14884   3.592   0.934  12.689
 4833SOL    HW114885   3.630   1.025  12.704
 4833SOL    HW214886   3.584   0.917  12.590
 4834SOL     OW14887   2.721   1.374  11.188
 4834SOL    HW114888   2.675   1.389  11.276
 4834SOL    HW214889   2.765   1.459  11.158
 4835SOL     OW14890   2.523   1.790  12.125
 4835SOL    HW114891   2.477   1.878  12.112
 4835SOL    HW214892   2.622   1.802  12.118
 4836SOL     OW14893   2.721   0.956  12.033
 4836SOL    HW114894   2.775   0.887  12.081
 4836SOL    HW214895   2.689   1.025  12.099
 4837SOL     OW14896   2.945   0.984  11.259
 4837SOL    HW114897   2.922   1.037  11.177
 4837SOL    HW214898   3.026   0.928  11.240
 4838SOL     OW14899   3.723   1.569  12.023
 4838SOL    HW114900   3.652   1.557  11.953
 4838SOL    HW214901   3.724   1.490  12.083
 4839SOL     OW14902   2.083   1.314  13.016
 4839SOL    HW114903   2.018   1.241  12.995
 4839SOL    HW214904   2.087   1.328  13.114
 4840SOL     OW14905   1.941   1.240  11.825
 4840SOL    HW114906   1.940   1.193  11.913
 4840SOL    HW214907   2.023   1.212  11.774
 4841SOL     OW14908   2.534   1.391  12.796
 4841SOL    HW114909   2.456   1.341  12.834
 4841SOL    HW214910   2.531   1.486  12.827
 4842SOL     OW14911   3.686   0.192  12.399
 4842SOL    HW114912   3.682   0.102  12.443
 4842SOL    HW214913   3.689   0.181  12.300
 4843SOL     OW14914   2.290   0.424  11.692
 4843SOL    HW114915   2.320   0.352  11.630
 4843SOL    HW214916   2.251   0.384  11.775
 4844SOL     OW14917   3.567   1.487  12.276
 4844SOL    HW114918   3.474   1.462  12.249
 4844SOL    HW214919   3.593   1.437  12.358
 4845SOL     OW14920   2.179   0.547  12.452
 4845SOL    HW114921   2.217   0.488  12.524
 4845SOL    HW214922   2.219   0.521  12.364
 4846SOL     OW14923   2.674   1.586  11.859
 4846SOL    HW114924   2.706   1.596  11.765
 4846SOL    HW214925   2.595   1.524  11.861
 4847SOL     OW14926   3.286   0.214  12.284
 4847SOL    HW114927   3.338   0.149  12.339
 4847SOL    HW214928   3.237   0.277  12.345
 4848SOL     OW14929   2.863   0.034  12.326
 4848SOL    HW114930   2.800  -0.038  12.295
 4848SOL    HW214931   2.956  -0.002  12.326
 4849SOL     OW14932   2.632   1.330  11.473
 4849SOL    HW114933   2.586   1.243  11.490
 4849SOL    HW214934   2.723   1.327  11.514
 4850SOL     OW14935   2.480   1.567  12.456
 4850SOL    HW114936   2.475   1.649  12.513
 4850SOL    HW214937   2.569   1.564  12.411
 4851SOL     OW14938   3.214   0.052  11.340
 4851SOL    HW114939   3.249   0.011  11.256
 4851SOL    HW214940   3.124   0.014  11.360
 4852SOL     OW14941   3.162   0.453  11.863
 4852SOL    HW114942   3.103   0.533  11.867
 4852SOL    HW214943   3.177   0.418  11.956
 4853SOL     OW14944   3.455   0.221  12.054
 4853SOL    HW114945   3.371   0.220  12.108
 4853SOL    HW214946   3.457   0.304  11.998
 4854SOL     OW14947   1.901   1.077  11.472
 4854SOL    HW114948   2.000   1.066  11.463
 4854SOL    HW214949   1.861   0.991  11.504
 4855SOL     OW14950   2.737   1.646  11.509
 4855SOL    HW114951   2.660   1.611  11.455
 4855SOL    HW214952   2.705   1.717  11.571
 4856SOL     OW14953   2.092   0.628  13.147
 4856SOL    HW114954   1.999   0.626  13.184
 4856SOL    HW214955   2.093   0.589  13.055
 4857SOL     OW14956   2.087   0.275  14.030
 4857SOL    HW114957   2.122   0.258  14.122
 4857SOL    HW214958   1.999   0.230  14.018
 4858SOL     OW14959   1.881   0.368  13.681
 4858SOL    HW114960   1.799   0.411  13.720
 4858SOL    HW214961   1.853   0.295  13.618
 4859SOL     OW14962   3.417   1.511  13.737
 4859SOL    HW114963   3.360   1.495  13.818
 4859SOL    HW214964   3.358   1.521  13.657
 4860SOL     OW14965   2.997   0.703  13.751
 4860SOL    HW114966   3.054   0.781  13.726
 4860SOL    HW214967   2.937   0.729  13.827
 4861SOL     OW14968   3.617   0.607  13.265
 4861SOL    HW114969   3.605   0.594  13.166
 4861SOL    HW214970   3.587   0.526  13.314
 4862SOL     OW14971   2.547   1.012  13.699
 4862SOL    HW114972   2.616   0.996  13.769
 4862SOL    HW214973   2.474   1.069  13.737
 4863SOL     OW14974   3.465   0.447  13.771
 4863SOL    HW114975   3.391   0.493  13.721
 4863SOL    HW214976   3.516   0.515  13.824
 4864SOL     OW14977   2.093   1.713  13.517
 4864SOL    HW114978   2.127   1.790  13.571
 4864SOL    HW214979   2.137   1.713  13.427
 4865SOL     OW14980   2.092   1.434  13.572
 4865SOL    HW114981   2.066   1.530  13.572
 4865SOL    HW214982   2.021   1.380  13.617
 4866SOL     OW14983   2.102   1.091  13.920
 4866SOL    HW114984   2.116   1.007  13.972
 4866SOL    HW214985   2.047   1.155  13.975
 4867SOL     OW14986   2.468   0.964  13.157
 4867SOL    HW114987   2.475   1.048  13.103
 4867SOL    HW214988   2.514   0.977  13.245
 4868SOL     OW14989   1.984   0.643  13.597
 4868SOL    HW114990   1.939   0.555  13.614
 4868SOL    HW214991   1.983   0.697  13.681
 4869SOL     OW14992   3.704   1.767  13.393
 4869SOL    HW114993   3.758   1.738  13.473
 4869SOL    HW214994   3.734   1.857  13.364
 4870SOL     OW14995   1.889   1.596  13.151
 4870SOL    HW114996   1.870   1.500  13.172
 4870SOL    HW214997   1.856   1.654  13.226
 4871SOL     OW14998   3.551   0.922  13.646
 4871SOL    HW114999   3.646   0.893  13.654
 4871SOL    HW215000   3.543   0.987  13.571
 4872SOL     OW15001   3.503   1.108  13.466
 4872SOL    HW115002   3.589   1.110  13.414
 4872SOL    HW215003   3.517   1.155  13.554
 4873SOL     OW15004   2.475   1.365  13.760
 4873SOL    HW115005   2.426   1.278  13.769
 4873SOL    HW215006   2.452   1.408  13.673
 4874SOL     OW15007   2.671   0.004  13.536
 4874SOL    HW115008   2.711   0.095  13.527
 4874SOL    HW215009   2.571   0.012  13.542
 4875SOL     OW15010   3.387   0.999  13.224
 4875SOL    HW115011   3.324   0.923  13.237
 4875SOL    HW215012   3.435   1.017  13.310
 4876SOL     OW15013   3.529   1.714  13.606
 4876SOL    HW115014   3.488   1.691  13.518
 4876SOL    HW215015   3.511   1.640  13.671
 4877SOL     OW15016   2.460   0.729  13.304
 4877SOL    HW115017   2.484   0.798  13.236
 4877SOL    HW215018   2.382   0.762  13.358
 4878SOL     OW15019   3.143   0.345  13.978
 4878SOL    HW115020   3.057   0.295  13.965
 4878SOL    HW215021   3.205   0.291  14.034
 4879SOL     OW15022   3.438   1.662  13.341
 4879SOL    HW115023   3.527   1.708  13.344
 4879SOL    HW215024   3.417   1.638  13.246
 4880SOL     OW15025   2.903   0.701  13.463
 4880SOL    HW115026   2.929   0.697  13.559
 4880SOL    HW215027   2.818   0.650  13.449
 4881SOL     OW15028   1.938   0.811  13.823
 4881SOL    HW115029   2.037   0.799  13.832
 4881SOL    HW215030   1.914   0.906  13.844
 4882SOL     OW15031   2.727   0.348  13.229
 4882SOL    HW115032   2.786   0.411  13.180
 4882SOL    HW215033   2.746   0.254  13.200
 4883SOL     OW15034   3.224   1.144  13.579
 4883SOL    HW115035   3.307   1.115  13.531
 4883SOL    HW215036   3.175   1.211  13.523
 4884SOL     OW15037   2.870   1.456  13.511
 4884SOL    HW115038   2.824   1.528  13.459
 4884SOL    HW215039   2.866   1.476  13.609
 4885SOL     OW15040   2.213   1.801  13.887
 4885SOL    HW115041   2.263   1.715  13.893
 4885SOL    HW215042   2.278   1.878  13.884
 4886SOL     OW15043   3.657   1.066  13.907
 4886SOL    HW115044   3.595   1.051  13.831
 4886SOL    HW215045   3.605   1.077  13.992
 4887SOL     OW15046   2.183   0.943  13.276
 4887SOL    HW115047   2.265   0.982  13.234
 4887SOL    HW215048   2.156   0.861  13.227
 4888SOL     OW15049   3.320   0.735  13.762
 4888SOL    HW115050   3.315   0.670  13.837
 4888SOL    HW215051   3.400   0.794  13.775
 4889SOL     OW15052   2.973   1.776  13.271
 4889SOL    HW115053   2.913   1.714  13.321
 4889SOL    HW215054   3.004   1.732  13.186
 4890SOL     OW15055   3.494   1.377  13.115
 4890SOL    HW115056   3.462   1.471  13.105
 4890SOL    HW215057   3.418   1.314  13.103
 4891SOL     OW15058   2.326   1.743  13.357
 4891SOL    HW115059   2.359   1.782  13.443
 4891SOL    HW215060   2.402   1.736  13.292
 4892SOL     OW15061   3.262   0.107  13.460
 4892SOL    HW115062   3.238   0.070  13.370
 4892SOL    HW215063   3.361   0.123  13.464
 4893SOL     OW15064   2.802   1.698  13.938
 4893SOL    HW115065   2.882   1.641  13.959
 4893SOL    HW215066   2.753   1.658  13.861
 4894SOL     OW15067   2.244   0.700  13.514
 4894SOL    HW115068   2.289   0.610  13.511
 4894SOL    HW215069   2.150   0.689  13.547
 4895SOL     OW15070   2.476   0.122  13.151
 4895SOL    HW115071   2.574   0.100  13.158
 4895SOL    HW215072   2.445   0.105  13.058
 4896SOL     OW15073   2.401   0.064  13.546
 4896SOL    HW115074   2.320   0.065  13.604
 4896SOL    HW215075   2.404   0.147  13.491
 4897SOL     OW15076   3.296   1.188  13.075
 4897SOL    HW115077   3.328   1.112  13.132
 4897SOL    HW215078   3.204   1.215  13.105
 4898SOL     OW15079   2.159   0.035  13.205
 4898SOL    HW115080   2.208   0.119  13.184
 4898SOL    HW215081   2.221  -0.030  13.250
 4899SOL     OW15082   2.797   0.236  13.514
 4899SOL    HW115083   2.749   0.277  13.436
 4899SOL    HW215084   2.896   0.234  13.495
 4900SOL     OW15085   2.321   1.152  13.775
 4900SOL    HW115086   2.250   1.125  13.840
 4900SOL    HW215087   2.295   1.124  13.682
 4901SOL     OW15088   3.133   1.797  13.625
 4901SOL    HW115089   3.177   1.861  13.561
 4901SOL    HW215090   3.083   1.849  13.695
 4902SOL     OW15091   2.894   0.549  13.050
 4902SOL    HW115092   2.853   0.631  13.011
 4902SOL    HW215093   2.958   0.575  13.123
 4903SOL     OW15094   2.728   0.454  13.676
 4903SOL    HW115095   2.696   0.526  13.614
 4903SOL    HW215096   2.752   0.373  13.623
 4904SOL     OW15097   2.879   0.039  13.787
 4904SOL    HW115098   2.807   0.044  13.718
 4904SOL    HW215099   2.855  -0.030  13.856
 4905SOL     OW15100   3.719   0.833  13.411
 4905SOL    HW115101   3.761   0.769  13.475
 4905SOL    HW215102   3.681   0.782  13.333
 4906SOL     OW15103   2.350   1.385  13.208
 4906SOL    HW115104   2.263   1.370  13.255
 4906SOL    HW215105   2.333   1.411  13.113
 4907SOL     OW15106   3.526   1.280  13.691
 4907SOL    HW115107   3.625   1.288  13.705
 4907SOL    HW215108   3.481   1.364  13.722
 4908SOL     OW15109   3.252   0.575  13.112
 4908SOL    HW115110   3.198   0.554  13.193
 4908SOL    HW215111   3.343   0.534  13.121
 4909SOL     OW15112   2.389   0.256  13.362
 4909SOL    HW115113   2.416   0.197  13.287
 4909SOL    HW215114   2.389   0.351  13.331
 4910SOL     OW15115   2.567   1.050  13.402
 4910SOL    HW115116   2.553   1.057  13.501
 4910SOL    HW215117   2.651   0.999  13.384
 4911SOL     OW15118   2.229   1.100  13.535
 4911SOL    HW115119   2.222   1.183  13.479
 4911SOL    HW215120   2.233   1.020  13.475
 4912SOL     OW15121   2.428   0.537  13.899
 4912SOL    HW115122   2.440   0.603  13.825
 4912SOL    HW215123   2.474   0.571  13.982
 4913SOL     OW15124   3.114   1.348  13.422
 4913SOL    HW115125   3.164   1.425  13.462
 4913SOL    HW215126   3.019   1.350  13.454
 4914SOL     OW15127   3.444   0.639  13.506
 4914SOL    HW115128   3.413   0.700  13.579
 4914SOL    HW215129   3.494   0.691  13.437
 4915SOL     OW15130   3.071   0.525  13.309
 4915SOL    HW115131   3.084   0.441  13.363
 4915SOL    HW215132   3.042   0.599  13.369
 4916SOL     OW15133   2.169   0.063  13.652
 4916SOL    HW115134   2.158   0.157  13.685
 4916SOL    HW215135   2.164   0.000  13.729
 4917SOL     OW15136   3.484   0.367  13.408
 4917SOL    HW115137   3.486   0.291  13.472
 4917SOL    HW215138   3.436   0.444  13.448
 4918SOL     OW15139   3.402   0.274  13.159
 4918SOL    HW115140   3.341   0.199  13.182
 4918SOL    HW215141   3.424   0.326  13.242
 4919SOL     OW15142   3.165   0.838  13.076
 4919SOL    HW115143   3.199   0.745  13.091
 4919SOL    HW215144   3.183   0.865  12.981
 4920SOL     OW15145   1.870   1.326  13.234
 4920SOL    HW115146   1.777   1.347  13.203
 4920SOL    HW215147   1.880   1.227  13.247
 4921SOL     OW15148   2.677   0.572  13.359
 4921SOL    HW115149   2.684   0.483  13.313
 4921SOL    HW215150   2.583   0.606  13.351
 4922SOL     OW15151   2.335   0.500  13.225
 4922SOL    HW115152   2.396   0.580  13.229
 4922SOL    HW215153   2.240   0.531  13.232
 4923SOL     OW15154   3.164   0.855  13.343
 4923SOL    HW115155   3.078   0.824  13.385
 4923SOL    HW215156   3.160   0.841  13.244
 4924SOL     OW15157   3.588   0.135  13.557
 4924SOL    HW115158   3.661   0.118  13.490
 4924SOL    HW215159   3.557   0.048  13.595
 4925SOL     OW15160   3.250   1.573  13.511
 4925SOL    HW115161   3.317   1.585  13.437
 4925SOL    HW215162   3.210   1.662  13.534
 4926SOL     OW15163   3.142   0.927  13.706
 4926SOL    HW115164   3.202   0.846  13.708
 4926SOL    HW215165   3.182   0.996  13.646
 4927SOL     OW15166   2.534   1.616  13.188
 4927SOL    HW115167   2.543   1.626  13.089
 4927SOL    HW215168   2.494   1.527  13.209
 4928SOL     OW15169   3.703   0.175  13.997
 4928SOL    HW115170   3.742   0.090  13.961
 4928SOL    HW215171   3.605   0.177  13.978
 4929SOL     OW15172   2.125   0.326  13.754
 4929SOL    HW115173   2.046   0.377  13.720
 4929SOL    HW215174   2.116   0.311  13.852
 4930SOL     OW15175   3.056   1.612  13.065
 4930SOL    HW115176   3.062   1.519  13.102
 4930SOL    HW215177   2.997   1.612  12.985
 4931SOL     OW15178   2.778   0.910  13.325
 4931SOL    HW115179   2.841   0.948  13.257
 4931SOL    HW215180   2.818   0.827  13.364
 4932SOL     OW15181   3.366   1.607  13.078
 4932SOL    HW115182   3.274   1.644  13.085
 4932SOL    HW215183   3.404   1.627  12.988
 4933SOL     OW15184   2.901   1.098  13.730
 4933SOL    HW115185   2.831   1.051  13.784
 4933SOL    HW215186   2.960   1.030  13.687
 4934SOL     OW15187   2.452   1.487  13.525
 4934SOL    HW115188   2.494   1.429  13.455
 4934SOL    HW215189   2.408   1.566  13.481
 4935SOL     OW15190   2.117   1.348  13.324
 4935SOL    HW115191   2.021   1.349  13.297
 4935SOL    HW215192   2.129   1.401  13.408
 4936SOL     OW15193   1.937   0.345  13.067
 4936SOL    HW115194   1.845   0.317  13.038
 4936SOL    HW215195   1.968   0.422  13.011
 4937SOL     OW15196   1.934   0.166  13.352
 4937SOL    HW115197   1.917   0.249  13.298
 4937SOL    HW215198   2.024   0.129  13.330
 4938SOL     OW15199   3.045   1.335  13.153
 4938SOL    HW115200   2.946   1.324  13.155
 4938SOL    HW215201   3.079   1.350  13.246
 4939SOL     OW15202   3.087   0.325  13.483
 4939SOL    HW115203   3.152   0.251  13.472
 4939SOL    HW215204   3.107   0.375  13.567
 4940SOL     OW15205   2.456   0.745  13.686
 4940SOL    HW115206   2.506   0.830  13.667
 4940SOL    HW215207   2.368   0.747  13.638
 4941SOL     OW15208   2.721   1.374  13.050
 4941SOL    HW115209   2.675   1.389  13.138
 4941SOL    HW215210   2.765   1.459  13.020
 4942SOL     OW15211   2.523   1.790  13.987
 4942SOL    HW115212   2.477   1.878  13.974
 4942SOL    HW215213   2.622   1.802  13.980
 4943SOL     OW15214   2.721   0.956  13.895
 4943SOL    HW115215   2.775   0.887  13.943
 4943SOL    HW215216   2.689   1.025  13.961
 4944SOL     OW15217   2.945   0.984  13.121
 4944SOL    HW115218   2.922   1.037  13.039
 4944SOL    HW215219   3.026   0.928  13.102
 4945SOL     OW15220   1.941   1.240  13.687
 4945SOL    HW115221   1.940   1.193  13.775
 4945SOL    HW215222   2.023   1.212  13.636
 4946SOL     OW15223   2.290   0.424  13.554
 4946SOL    HW115224   2.320   0.352  13.492
 4946SOL    HW215225   2.251   0.384  13.637
 4947SOL     OW15226   3.567   1.487  14.138
 4947SOL    HW115227   3.474   1.462  14.111
 4947SOL    HW215228   3.593   1.437  14.220
 4948SOL     OW15229   2.674   1.586  13.721
 4948SOL    HW115230   2.706   1.596  13.627
 4948SOL    HW215231   2.595   1.524  13.723
 4949SOL     OW15232   2.632   1.330  13.335
 4949SOL    HW115233   2.586   1.243  13.352
 4949SOL    HW215234   2.723   1.327  13.376
 4950SOL     OW15235   3.214   0.052  13.202
 4950SOL    HW115236   3.249   0.011  13.118
 4950SOL    HW215237   3.124   0.014  13.222
 4951SOL     OW15238   3.162   0.453  13.725
 4951SOL    HW115239   3.103   0.533  13.729
 4951SOL    HW215240   3.177   0.418  13.818
 4952SOL     OW15241   1.901   1.077  13.334
 4952SOL    HW115242   2.000   1.066  13.325
 4952SOL    HW215243   1.861   0.991  13.366
 4953SOL     OW15244   2.737   1.646  13.371
 4953SOL    HW115245   2.660   1.611  13.317
 4953SOL    HW215246   2.705   1.717  13.433
 4954SOL     OW15247   2.092   2.490   0.113
 4954SOL    HW115248   1.999   2.488   0.150
 4954SOL    HW215249   2.093   2.451   0.021
 4955SOL     OW15250   1.881   2.230   0.647
 4955SOL    HW115251   1.799   2.273   0.686
 4955SOL    HW215252   1.853   2.157   0.584
 4956SOL     OW15253   2.431   3.137   1.165
 4956SOL    HW115254   2.338   3.130   1.128
 4956SOL    HW215255   2.442   3.226   1.209
 4957SOL     OW15256   3.417   3.373   0.703
 4957SOL    HW115257   3.360   3.357   0.784
 4957SOL    HW215258   3.358   3.383   0.623
 4958SOL     OW15259   2.997   2.565   0.717
 4958SOL    HW115260   3.054   2.643   0.692
 4958SOL    HW215261   2.937   2.591   0.793
 4959SOL     OW15262   3.617   2.469   0.231
 4959SOL    HW115263   3.605   2.456   0.132
 4959SOL    HW215264   3.587   2.388   0.280
 4960SOL     OW15265   2.630   3.006   1.023
 4960SOL    HW115266   2.552   3.023   1.083
 4960SOL    HW215267   2.664   3.093   0.987
 4961SOL     OW15268   2.712   2.660   1.823
 4961SOL    HW115269   2.708   2.736   1.888
 4961SOL    HW215270   2.734   2.696   1.732
 4962SOL     OW15271   2.547   2.874   0.665
 4962SOL    HW115272   2.616   2.858   0.735
 4962SOL    HW215273   2.474   2.931   0.703
 4963SOL     OW15274   2.548   3.023   1.803
 4963SOL    HW115275   2.608   3.102   1.817
 4963SOL    HW215276   2.462   3.054   1.762
 4964SOL     OW15277   2.197   3.297   1.061
 4964SOL    HW115278   2.119   3.266   1.008
 4964SOL    HW215279   2.255   3.355   1.004
 4965SOL     OW15280   3.322   3.367   1.339
 4965SOL    HW115281   3.346   3.461   1.365
 4965SOL    HW215282   3.306   3.313   1.421
 4966SOL     OW15283   2.300   2.254   1.499
 4966SOL    HW115284   2.382   2.198   1.508
 4966SOL    HW215285   2.219   2.196   1.503
 4967SOL     OW15286   3.465   2.309   0.737
 4967SOL    HW115287   3.391   2.355   0.687
 4967SOL    HW215288   3.516   2.377   0.790
 4968SOL     OW15289   2.093   3.575   0.483
 4968SOL    HW115290   2.127   3.652   0.537
 4968SOL    HW215291   2.137   3.575   0.393
 4969SOL     OW15292   2.989   3.203   1.690
 4969SOL    HW115293   3.036   3.203   1.778
 4969SOL    HW215294   2.941   3.116   1.679
 4970SOL     OW15295   2.092   3.296   0.538
 4970SOL    HW115296   2.066   3.392   0.538
 4970SOL    HW215297   2.021   3.242   0.583
 4971SOL     OW15298   2.102   2.953   0.886
 4971SOL    HW115299   2.116   2.869   0.938
 4971SOL    HW215300   2.047   3.017   0.941
 4972SOL     OW15301   2.482   3.648   1.439
 4972SOL    HW115302   2.390   3.631   1.474
 4972SOL    HW215303   2.510   3.740   1.465
 4973SOL     OW15304   2.468   2.826   0.123
 4973SOL    HW115305   2.475   2.910   0.069
 4973SOL    HW215306   2.514   2.839   0.211
 4974SOL     OW15307   3.456   1.976   1.480
 4974SOL    HW115308   3.438   2.043   1.408
 4974SOL    HW215309   3.453   2.022   1.569
 4975SOL     OW15310   1.984   2.505   0.563
 4975SOL    HW115311   1.939   2.417   0.580
 4975SOL    HW215312   1.983   2.559   0.647
 4976SOL     OW15313   3.704   3.629   0.359
 4976SOL    HW115314   3.758   3.600   0.439
 4976SOL    HW215315   3.734   3.719   0.330
 4977SOL     OW15316   1.889   3.458   0.117
 4977SOL    HW115317   1.870   3.362   0.138
 4977SOL    HW215318   1.856   3.516   0.192
 4978SOL     OW15319   3.551   2.784   0.612
 4978SOL    HW115320   3.646   2.755   0.620
 4978SOL    HW215321   3.543   2.849   0.537
 4979SOL     OW15322   3.503   2.970   0.432
 4979SOL    HW115323   3.589   2.972   0.380
 4979SOL    HW215324   3.517   3.017   0.520
 4980SOL     OW15325   1.975   2.599   1.597
 4980SOL    HW115326   2.063   2.586   1.642
 4980SOL    HW215327   1.962   2.696   1.575
 4981SOL     OW15328   2.475   3.227   0.726
 4981SOL    HW115329   2.426   3.140   0.735
 4981SOL    HW215330   2.452   3.270   0.639
 4982SOL     OW15331   3.155   3.090   1.423
 4982SOL    HW115332   3.192   3.017   1.365
 4982SOL    HW215333   3.207   3.095   1.508
 4983SOL     OW15334   2.671   1.866   0.502
 4983SOL    HW115335   2.711   1.957   0.493
 4983SOL    HW215336   2.571   1.874   0.508
 4984SOL     OW15337   2.059   2.838   1.264
 4984SOL    HW115338   2.148   2.793   1.250
 4984SOL    HW215339   1.986   2.773   1.245
 4985SOL     OW15340   3.387   2.861   0.190
 4985SOL    HW115341   3.324   2.785   0.203
 4985SOL    HW215342   3.435   2.879   0.276
 4986SOL     OW15343   3.049   3.654   1.616
 4986SOL    HW115344   3.073   3.714   1.540
 4986SOL    HW215345   3.056   3.559   1.586
 4987SOL     OW15346   3.328   3.279   0.953
 4987SOL    HW115347   3.269   3.285   1.033
 4987SOL    HW215348   3.313   3.191   0.907
 4988SOL     OW15349   3.529   3.576   0.572
 4988SOL    HW115350   3.488   3.553   0.484
 4988SOL    HW215351   3.511   3.502   0.637
 4989SOL     OW15352   2.460   2.591   0.270
 4989SOL    HW115353   2.484   2.660   0.202
 4989SOL    HW215354   2.382   2.624   0.324
 4990SOL     OW15355   3.143   2.207   0.944
 4990SOL    HW115356   3.057   2.157   0.931
 4990SOL    HW215357   3.205   2.153   1.000
 4991SOL     OW15358   3.438   3.524   0.307
 4991SOL    HW115359   3.527   3.570   0.310
 4991SOL    HW215360   3.417   3.500   0.212
 4992SOL     OW15361   2.669   2.467   1.465
 4992SOL    HW115362   2.622   2.464   1.554
 4992SOL    HW215363   2.618   2.412   1.399
 4993SOL     OW15364   3.256   2.331   1.674
 4993SOL    HW115365   3.236   2.374   1.762
 4993SOL    HW215366   3.334   2.269   1.683
 4994SOL     OW15367   2.835   2.752   1.572
 4994SOL    HW115368   2.881   2.668   1.543
 4994SOL    HW215369   2.779   2.786   1.497
 4995SOL     OW15370   2.853   2.272   1.242
 4995SOL    HW115371   2.776   2.306   1.296
 4995SOL    HW215372   2.819   2.221   1.163
 4996SOL     OW15373   2.903   2.563   0.429
 4996SOL    HW115374   2.929   2.559   0.525
 4996SOL    HW215375   2.818   2.512   0.415
 4997SOL     OW15376   1.938   2.673   0.789
 4997SOL    HW115377   2.037   2.661   0.798
 4997SOL    HW215378   1.914   2.768   0.810
 4998SOL     OW15379   1.992   3.683   1.571
 4998SOL    HW115380   1.982   3.668   1.670
 4998SOL    HW215381   1.906   3.719   1.535
 4999SOL     OW15382   2.727   2.210   0.195
 4999SOL    HW115383   2.786   2.273   0.146
 4999SOL    HW215384   2.746   2.116   0.166
 5000SOL     OW15385   3.581   2.447   1.831
 5000SOL    HW115386   3.555   2.536   1.795
 5000SOL    HW215387   3.579   2.379   1.758
 5001SOL     OW15388   3.224   3.006   0.545
 5001SOL    HW115389   3.307   2.977   0.497
 5001SOL    HW215390   3.175   3.073   0.489
 5002SOL     OW15391   2.412   2.058   0.885
 5002SOL    HW115392   2.407   2.053   0.985
 5002SOL    HW215393   2.414   2.154   0.856
 5003SOL     OW15394   2.870   3.318   0.477
 5003SOL    HW115395   2.824   3.390   0.425
 5003SOL    HW215396   2.866   3.338   0.575
 5004SOL     OW15397   2.213   3.663   0.853
 5004SOL    HW115398   2.263   3.577   0.859
 5004SOL    HW215399   2.278   3.740   0.850
 5005SOL     OW15400   3.657   2.928   0.873
 5005SOL    HW115401   3.595   2.913   0.797
 5005SOL    HW215402   3.605   2.939   0.958
 5006SOL     OW15403   3.089   3.412   1.506
 5006SOL    HW115404   3.095   3.335   1.570
 5006SOL    HW215405   3.037   3.386   1.426
 5007SOL     OW15406   2.183   2.805   0.242
 5007SOL    HW115407   2.265   2.844   0.200
 5007SOL    HW215408   2.156   2.723   0.193
 5008SOL     OW15409   3.320   2.597   0.728
 5008SOL    HW115410   3.315   2.532   0.803
 5008SOL    HW215411   3.400   2.656   0.741
 5009SOL     OW15412   2.323   3.128   1.727
 5009SOL    HW115413   2.273   3.129   1.641
 5009SOL    HW215414   2.260   3.110   1.803
 5010SOL     OW15415   2.973   3.638   0.237
 5010SOL    HW115416   2.913   3.576   0.287
 5010SOL    HW215417   3.004   3.594   0.152
 5011SOL     OW15418   3.494   3.239   0.081
 5011SOL    HW115419   3.462   3.333   0.071
 5011SOL    HW215420   3.418   3.176   0.069
 5012SOL     OW15421   2.326   3.605   0.323
 5012SOL    HW115422   2.359   3.644   0.409
 5012SOL    HW215423   2.402   3.598   0.258
 5013SOL     OW15424   3.262   1.969   0.426
 5013SOL    HW115425   3.238   1.932   0.336
 5013SOL    HW215426   3.361   1.985   0.430
 5014SOL     OW15427   2.111   3.647   1.241
 5014SOL    HW115428   2.168   3.582   1.291
 5014SOL    HW215429   2.095   3.614   1.148
 5015SOL     OW15430   2.802   3.560   0.904
 5015SOL    HW115431   2.882   3.503   0.925
 5015SOL    HW215432   2.753   3.520   0.827
 5016SOL     OW15433   2.244   2.562   0.480
 5016SOL    HW115434   2.289   2.472   0.477
 5016SOL    HW215435   2.150   2.551   0.513
 5017SOL     OW15436   3.409   2.084   1.729
 5017SOL    HW115437   3.404   2.121   1.821
 5017SOL    HW215438   3.337   2.015   1.717
 5018SOL     OW15439   2.643   2.126   1.749
 5018SOL    HW115440   2.710   2.065   1.792
 5018SOL    HW215441   2.570   2.145   1.814
 5019SOL     OW15442   2.750   3.376   1.195
 5019SOL    HW115443   2.727   3.351   1.101
 5019SOL    HW215444   2.811   3.307   1.234
 5020SOL     OW15445   3.213   2.452   1.433
 5020SOL    HW115446   3.241   2.409   1.518
 5020SOL    HW215447   3.238   2.548   1.434
 5021SOL     OW15448   2.665   3.264   0.924
 5021SOL    HW115449   2.755   3.278   0.882
 5021SOL    HW215450   2.594   3.266   0.853
 5022SOL     OW15451   2.784   2.365   0.899
 5022SOL    HW115452   2.759   2.356   0.803
 5022SOL    HW215453   2.832   2.283   0.930
 5023SOL     OW15454   2.401   1.926   0.512
 5023SOL    HW115455   2.320   1.927   0.570
 5023SOL    HW215456   2.404   2.009   0.457
 5024SOL     OW15457   3.296   3.050   0.041
 5024SOL    HW115458   3.328   2.974   0.098
 5024SOL    HW215459   3.204   3.077   0.071
 5025SOL     OW15460   2.797   2.098   0.480
 5025SOL    HW115461   2.749   2.139   0.402
 5025SOL    HW215462   2.896   2.096   0.461
 5026SOL     OW15463   2.938   2.545   1.464
 5026SOL    HW115464   2.858   2.484   1.467
 5026SOL    HW215465   3.019   2.492   1.440
 5027SOL     OW15466   3.089   3.432   0.793
 5027SOL    HW115467   3.110   3.506   0.728
 5027SOL    HW215468   3.157   3.432   0.866
 5028SOL     OW15469   2.321   3.014   0.741
 5028SOL    HW115470   2.250   2.987   0.806
 5028SOL    HW215471   2.295   2.986   0.648
 5029SOL     OW15472   3.133   3.659   0.591
 5029SOL    HW115473   3.177   3.723   0.527
 5029SOL    HW215474   3.083   3.711   0.661
 5030SOL     OW15475   2.894   2.411   0.016
 5030SOL    HW115476   2.853   2.493  -0.023
 5030SOL    HW215477   2.958   2.437   0.089
 5031SOL     OW15478   1.940   2.418   1.386
 5031SOL    HW115479   2.032   2.417   1.345
 5031SOL    HW215480   1.934   2.492   1.453
 5032SOL     OW15481   2.423   2.084   1.147
 5032SOL    HW115482   2.461   2.000   1.184
 5032SOL    HW215483   2.335   2.103   1.191
 5033SOL     OW15484   2.728   2.316   0.642
 5033SOL    HW115485   2.696   2.388   0.580
 5033SOL    HW215486   2.752   2.235   0.589
 5034SOL     OW15487   2.879   1.901   0.753
 5034SOL    HW115488   2.807   1.906   0.684
 5034SOL    HW215489   2.855   1.832   0.822
 5035SOL     OW15490   3.291   3.035   0.867
 5035SOL    HW115491   3.236   2.951   0.860
 5035SOL    HW215492   3.317   3.064   0.775
 5036SOL     OW15493   3.328   2.452   0.992
 5036SOL    HW115494   3.298   2.357   0.999
 5036SOL    HW215495   3.401   2.468   1.058
 5037SOL     OW15496   3.719   2.695   0.377
 5037SOL    HW115497   3.761   2.631   0.441
 5037SOL    HW215498   3.681   2.644   0.299
 5038SOL     OW15499   2.350   3.247   0.174
 5038SOL    HW115500   2.263   3.232   0.221
 5038SOL    HW215501   2.333   3.273   0.079
 5039SOL     OW15502   3.526   3.142   0.657
 5039SOL    HW115503   3.625   3.150   0.671
 5039SOL    HW215504   3.481   3.226   0.688
 5040SOL     OW15505   3.252   2.437   0.078
 5040SOL    HW115506   3.198   2.416   0.159
 5040SOL    HW215507   3.343   2.396   0.087
 5041SOL     OW15508   2.389   2.118   0.328
 5041SOL    HW115509   2.416   2.059   0.253
 5041SOL    HW215510   2.389   2.213   0.297
 5042SOL     OW15511   3.616   3.085   1.588
 5042SOL    HW115512   3.707   3.046   1.575
 5042SOL    HW215513   3.624   3.181   1.612
 5043SOL     OW15514   2.926   3.209   1.340
 5043SOL    HW115515   2.846   3.186   1.395
 5043SOL    HW215516   3.009   3.183   1.389
 5044SOL     OW15517   3.454   3.491   1.625
 5044SOL    HW115518   3.481   3.525   1.535
 5044SOL    HW215519   3.533   3.453   1.671
 5045SOL     OW15520   2.973   3.057   1.100
 5045SOL    HW115521   2.933   3.101   1.181
 5045SOL    HW215522   2.932   3.094   1.017
 5046SOL     OW15523   3.500   2.961   1.079
 5046SOL    HW115524   3.505   3.042   1.138
 5046SOL    HW215525   3.414   2.963   1.028
 5047SOL     OW15526   2.777   1.951   1.402
 5047SOL    HW115527   2.802   1.931   1.307
 5047SOL    HW215528   2.849   2.007   1.444
 5048SOL     OW15529   2.842   2.978   1.719
 5048SOL    HW115530   2.743   2.984   1.729
 5048SOL    HW215531   2.865   2.898   1.663
 5049SOL     OW15532   2.567   2.912   0.368
 5049SOL    HW115533   2.553   2.919   0.467
 5049SOL    HW215534   2.651   2.861   0.350
 5050SOL     OW15535   2.272   2.675   1.251
 5050SOL    HW115536   2.358   2.687   1.301
 5050SOL    HW215537   2.230   2.588   1.278
 5051SOL     OW15538   3.136   2.248   1.262
 5051SOL    HW115539   3.157   2.322   1.326
 5051SOL    HW215540   3.047   2.265   1.219
 5052SOL     OW15541   1.926   3.426   1.331
 5052SOL    HW115542   1.880   3.508   1.297
 5052SOL    HW215543   2.024   3.445   1.340
 5053SOL     OW15544   2.229   2.962   0.501
 5053SOL    HW115545   2.222   3.045   0.445
 5053SOL    HW215546   2.233   2.882   0.441
 5054SOL     OW15547   2.428   2.399   0.865
 5054SOL    HW115548   2.440   2.465   0.791
 5054SOL    HW215549   2.474   2.433   0.948
 5055SOL     OW15550   3.114   3.210   0.388
 5055SOL    HW115551   3.164   3.287   0.428
 5055SOL    HW215552   3.019   3.212   0.420
 5056SOL     OW15553   3.134   3.307   1.142
 5056SOL    HW115554   3.181   3.320   1.229
 5056SOL    HW215555   3.068   3.233   1.151
 5057SOL     OW15556   3.444   2.501   0.472
 5057SOL    HW115557   3.413   2.562   0.545
 5057SOL    HW215558   3.494   2.553   0.403
 5058SOL     OW15559   2.216   3.372   1.329
 5058SOL    HW115560   2.195   3.328   1.242
 5058SOL    HW215561   2.313   3.398   1.332
 5059SOL     OW15562   2.264   2.613   1.598
 5059SOL    HW115563   2.332   2.668   1.551
 5059SOL    HW215564   2.304   2.525   1.625
 5060SOL     OW15565   3.449   2.641   1.670
 5060SOL    HW115566   3.357   2.679   1.665
 5060SOL    HW215567   3.509   2.688   1.605
 5061SOL     OW15568   2.875   1.967   1.770
 5061SOL    HW115569   2.881   2.052   1.718
 5061SOL    HW215570   2.907   1.891   1.713
 5062SOL     OW15571   2.366   1.912   1.740
 5062SOL    HW115572   2.324   1.855   1.670
 5062SOL    HW215573   2.300   1.981   1.772
 5063SOL     OW15574   2.435   2.732   1.029
 5063SOL    HW115575   2.479   2.821   1.020
 5063SOL    HW215576   2.372   2.732   1.106
 5064SOL     OW15577   3.222   2.724   1.045
 5064SOL    HW115578   3.147   2.724   0.979
 5064SOL    HW215579   3.259   2.632   1.054
 5065SOL     OW15580   3.071   2.387   0.275
 5065SOL    HW115581   3.084   2.303   0.329
 5065SOL    HW215582   3.042   2.461   0.335
 5066SOL     OW15583   1.899   3.172   1.282
 5066SOL    HW115584   1.952   3.123   1.350
 5066SOL    HW215585   1.921   3.270   1.287
 5067SOL     OW15586   2.594   2.496   1.064
 5067SOL    HW115587   2.653   2.470   0.988
 5067SOL    HW215588   2.566   2.592   1.053
 5068SOL     OW15589   3.590   2.797   1.854
 5068SOL    HW115590   3.544   2.790   1.765
 5068SOL    HW215591   3.528   2.841   1.920
 5069SOL     OW15592   2.169   1.925   0.618
 5069SOL    HW115593   2.158   2.019   0.651
 5069SOL    HW215594   2.164   1.862   0.695
 5070SOL     OW15595   3.484   2.229   0.374
 5070SOL    HW115596   3.486   2.153   0.438
 5070SOL    HW215597   3.436   2.306   0.414
 5071SOL     OW15598   2.885   2.628   0.966
 5071SOL    HW115599   2.900   2.649   1.062
 5071SOL    HW215600   2.855   2.533   0.957
 5072SOL     OW15601   2.842   3.435   1.700
 5072SOL    HW115602   2.822   3.479   1.612
 5072SOL    HW215603   2.881   3.344   1.684
 5073SOL     OW15604   3.721   3.380   1.605
 5073SOL    HW115605   3.735   3.407   1.510
 5073SOL    HW215606   3.804   3.402   1.658
 5074SOL     OW15607   2.212   2.760   1.804
 5074SOL    HW115608   2.288   2.804   1.852
 5074SOL    HW215609   2.247   2.713   1.722
 5075SOL     OW15610   3.402   2.136   0.125
 5075SOL    HW115611   3.341   2.061   0.148
 5075SOL    HW215612   3.424   2.188   0.208
 5076SOL     OW15613   3.165   2.700   0.042
 5076SOL    HW115614   3.199   2.607   0.057
 5076SOL    HW215615   3.183   2.727  -0.053
 5077SOL     OW15616   2.930   3.195   0.849
 5077SOL    HW115617   2.937   3.111   0.794
 5077SOL    HW215618   2.992   3.264   0.813
 5078SOL     OW15619   2.181   2.672   0.949
 5078SOL    HW115620   2.274   2.708   0.954
 5078SOL    HW215621   2.175   2.587   1.001
 5079SOL     OW15622   2.201   2.371   1.006
 5079SOL    HW115623   2.149   2.288   0.989
 5079SOL    HW215624   2.278   2.376   0.942
 5080SOL     OW15625   3.000   2.242   1.678
 5080SOL    HW115626   2.955   2.305   1.742
 5080SOL    HW215627   3.093   2.273   1.661
 5081SOL     OW15628   3.022   2.069   1.477
 5081SOL    HW115629   3.022   2.133   1.554
 5081SOL    HW215630   3.050   2.117   1.394
 5082SOL     OW15631   1.870   3.188   0.200
 5082SOL    HW115632   1.777   3.209   0.169
 5082SOL    HW215633   1.880   3.089   0.213
 5083SOL     OW15634   1.950   3.663   0.927
 5083SOL    HW115635   1.908   3.577   0.900
 5083SOL    HW215636   2.044   3.666   0.893
 5084SOL     OW15637   2.366   3.430   0.910
 5084SOL    HW115638   2.432   3.504   0.919
 5084SOL    HW215639   2.410   3.351   0.868
 5085SOL     OW15640   2.864   2.658   1.238
 5085SOL    HW115641   2.905   2.626   1.324
 5085SOL    HW215642   2.768   2.631   1.235
 5086SOL     OW15643   1.902   2.406   1.114
 5086SOL    HW115644   1.987   2.373   1.073
 5086SOL    HW215645   1.915   2.421   1.212
 5087SOL     OW15646   2.051   2.382   1.722
 5087SOL    HW115647   2.110   2.342   1.652
 5087SOL    HW215648   1.993   2.453   1.681
 5088SOL     OW15649   3.231   2.812   1.660
 5088SOL    HW115650   3.270   2.901   1.680
 5088SOL    HW215651   3.241   2.792   1.563
 5089SOL     OW15652   2.677   2.434   0.325
 5089SOL    HW115653   2.684   2.345   0.279
 5089SOL    HW215654   2.583   2.468   0.317
 5090SOL     OW15655   3.519   2.466   1.206
 5090SOL    HW115656   3.481   2.397   1.268
 5090SOL    HW215657   3.601   2.430   1.162
 5091SOL     OW15658   2.114   3.426   1.744
 5091SOL    HW115659   2.084   3.483   1.820
 5091SOL    HW215660   2.107   3.329   1.770
 5092SOL     OW15661   2.533   2.326   1.269
 5092SOL    HW115662   2.499   2.237   1.239
 5092SOL    HW215663   2.559   2.380   1.189
 5093SOL     OW15664   2.792   3.540   1.465
 5093SOL    HW115665   2.768   3.522   1.370
 5093SOL    HW215666   2.822   3.634   1.475
 5094SOL     OW15667   2.335   2.362   0.191
 5094SOL    HW115668   2.396   2.442   0.195
 5094SOL    HW215669   2.240   2.393   0.198
 5095SOL     OW15670   2.021   2.999   1.466
 5095SOL    HW115671   2.043   2.938   1.542
 5095SOL    HW215672   2.031   2.950   1.380
 5096SOL     OW15673   3.209   2.921   1.234
 5096SOL    HW115674   3.233   2.858   1.160
 5096SOL    HW215675   3.119   2.961   1.216
 5097SOL     OW15676   3.164   2.717   0.309
 5097SOL    HW115677   3.078   2.686   0.351
 5097SOL    HW215678   3.160   2.703   0.210
 5098SOL     OW15679   3.621   3.609   1.154
 5098SOL    HW115680   3.682   3.639   1.081
 5098SOL    HW215681   3.583   3.520   1.132
 5099SOL     OW15682   3.114   3.593   1.128
 5099SOL    HW115683   3.198   3.598   1.074
 5099SOL    HW215684   3.091   3.497   1.146
 5100SOL     OW15685   1.945   3.120   1.022
 5100SOL    HW115686   1.940   3.119   1.122
 5100SOL    HW215687   1.862   3.079   0.984
 5101SOL     OW15688   2.550   3.524   1.716
 5101SOL    HW115689   2.494   3.605   1.725
 5101SOL    HW215690   2.602   3.528   1.630
 5102SOL     OW15691   2.765   1.948   0.133
 5102SOL    HW115692   2.816   1.949   0.047
 5102SOL    HW215693   2.821   1.906   0.204
 5103SOL     OW15694   3.588   1.997   0.523
 5103SOL    HW115695   3.661   1.980   0.456
 5103SOL    HW215696   3.557   1.910   0.561
 5104SOL     OW15697   3.250   3.435   0.477
 5104SOL    HW115698   3.317   3.447   0.403
 5104SOL    HW215699   3.210   3.524   0.500
 5105SOL     OW15700   1.992   3.656   1.851
 5105SOL    HW115701   1.951   3.582   1.904
 5105SOL    HW215702   2.056   3.707   1.909
 5106SOL     OW15703   3.142   2.789   0.672
 5106SOL    HW115704   3.202   2.708   0.674
 5106SOL    HW215705   3.182   2.858   0.612
 5107SOL     OW15706   2.692   3.135   1.422
 5107SOL    HW115707   2.687   3.168   1.517
 5107SOL    HW215708   2.606   3.154   1.376
 5108SOL     OW15709   2.534   3.478   0.154
 5108SOL    HW115710   2.543   3.488   0.055
 5108SOL    HW215711   2.494   3.389   0.175
 5109SOL     OW15712   3.512   3.582   1.394
 5109SOL    HW115713   3.565   3.592   1.310
 5109SOL    HW215714   3.485   3.672   1.428
 5110SOL     OW15715   3.703   2.037   0.963
 5110SOL    HW115716   3.742   1.952   0.927
 5110SOL    HW215717   3.605   2.039   0.944
 5111SOL     OW15718   3.056   3.474   0.031
 5111SOL    HW115719   3.062   3.381   0.068
 5111SOL    HW215720   2.997   3.474  -0.049
 5112SOL     OW15721   2.684   2.864   1.372
 5112SOL    HW115722   2.724   2.863   1.280
 5112SOL    HW215723   2.694   2.956   1.412
 5113SOL     OW15724   2.778   2.772   0.291
 5113SOL    HW115725   2.841   2.810   0.223
 5113SOL    HW215726   2.818   2.689   0.330
 5114SOL     OW15727   3.366   3.469   0.044
 5114SOL    HW115728   3.274   3.506   0.051
 5114SOL    HW215729   3.404   3.489  -0.046
 5115SOL     OW15730   2.234   3.150   1.490
 5115SOL    HW115731   2.221   3.243   1.456
 5115SOL    HW215732   2.150   3.098   1.477
 5116SOL     OW15733   3.476   3.154   1.289
 5116SOL    HW115734   3.536   3.157   1.369
 5116SOL    HW215735   3.401   3.218   1.302
 5117SOL     OW15736   2.901   2.960   0.696
 5117SOL    HW115737   2.831   2.913   0.750
 5117SOL    HW215738   2.960   2.892   0.653
 5118SOL     OW15739   2.876   2.098   0.971
 5118SOL    HW115740   2.868   2.062   0.878
 5118SOL    HW215741   2.874   2.022   1.036
 5119SOL     OW15742   2.452   3.349   0.491
 5119SOL    HW115743   2.494   3.291   0.421
 5119SOL    HW215744   2.408   3.428   0.447
 5120SOL     OW15745   3.571   2.247   1.381
 5120SOL    HW115746   3.644   2.316   1.385
 5120SOL    HW215747   3.599   2.172   1.322
 5121SOL     OW15748   2.117   3.210   0.290
 5121SOL    HW115749   2.021   3.211   0.263
 5121SOL    HW215750   2.129   3.263   0.374
 5122SOL     OW15751   1.967   2.875   1.726
 5122SOL    HW115752   1.890   2.842   1.780
 5122SOL    HW215753   2.052   2.845   1.768
 5123SOL     OW15754   2.534   2.065   1.489
 5123SOL    HW115755   2.624   2.049   1.449
 5123SOL    HW215756   2.542   2.070   1.588
 5124SOL     OW15757   1.937   2.207   0.033
 5124SOL    HW115758   1.845   2.179   0.004
 5124SOL    HW215759   1.968   2.284  -0.023
 5125SOL     OW15760   3.302   2.718   1.398
 5125SOL    HW115761   3.245   2.770   1.335
 5125SOL    HW215762   3.398   2.730   1.374
 5126SOL     OW15763   3.045   3.197   0.119
 5126SOL    HW115764   2.946   3.186   0.121
 5126SOL    HW215765   3.079   3.212   0.212
 5127SOL     OW15766   2.475   2.704   1.431
 5127SOL    HW115767   2.531   2.785   1.414
 5127SOL    HW215768   2.534   2.624   1.434
 5128SOL     OW15769   3.355   3.629   0.959
 5128SOL    HW115770   3.388   3.693   0.890
 5128SOL    HW215771   3.421   3.623   1.034
 5129SOL     OW15772   2.578   2.427   1.708
 5129SOL    HW115773   2.597   2.492   1.782
 5129SOL    HW215774   2.638   2.347   1.717
 5130SOL     OW15775   3.312   3.082   1.633
 5130SOL    HW115776   3.303   3.072   1.732
 5130SOL    HW215777   3.408   3.075   1.607
 5131SOL     OW15778   2.252   3.603   1.560
 5131SOL    HW115779   2.161   3.644   1.558
 5131SOL    HW215780   2.245   3.509   1.592
 5132SOL     OW15781   3.536   2.745   1.254
 5132SOL    HW115782   3.509   2.656   1.217
 5132SOL    HW215783   3.537   2.813   1.181
 5133SOL     OW15784   3.087   2.187   0.449
 5133SOL    HW115785   3.152   2.113   0.438
 5133SOL    HW215786   3.107   2.237   0.533
 5134SOL     OW15787   2.456   2.607   0.652
 5134SOL    HW115788   2.506   2.692   0.633
 5134SOL    HW215789   2.368   2.609   0.604
 5135SOL     OW15790   3.639   2.204   1.642
 5135SOL    HW115791   3.622   2.235   1.548
 5135SOL    HW215792   3.555   2.167   1.680
 5136SOL     OW15793   3.592   2.796   1.517
 5136SOL    HW115794   3.630   2.887   1.532
 5136SOL    HW215795   3.584   2.779   1.418
 5137SOL     OW15796   2.721   3.236   0.016
 5137SOL    HW115797   2.675   3.251   0.104
 5137SOL    HW215798   2.765   3.321  -0.014
 5138SOL     OW15799   2.523   3.652   0.953
 5138SOL    HW115800   2.477   3.740   0.940
 5138SOL    HW215801   2.622   3.664   0.946
 5139SOL     OW15802   2.721   2.818   0.861
 5139SOL    HW115803   2.775   2.749   0.909
 5139SOL    HW215804   2.689   2.887   0.927
 5140SOL     OW15805   2.945   2.846   0.087
 5140SOL    HW115806   2.922   2.899   0.005
 5140SOL    HW215807   3.026   2.790   0.068
 5141SOL     OW15808   3.723   3.431   0.851
 5141SOL    HW115809   3.652   3.419   0.781
 5141SOL    HW215810   3.724   3.352   0.911
 5142SOL     OW15811   2.083   3.176   1.844
 5142SOL    HW115812   2.018   3.103   1.823
 5142SOL    HW215813   2.087   3.190   1.942
 5143SOL     OW15814   1.941   3.102   0.653
 5143SOL    HW115815   1.940   3.055   0.741
 5143SOL    HW215816   2.023   3.074   0.602
 5144SOL     OW15817   2.534   3.253   1.624
 5144SOL    HW115818   2.456   3.203   1.662
 5144SOL    HW215819   2.531   3.348   1.655
 5145SOL     OW15820   3.686   2.054   1.227
 5145SOL    HW115821   3.682   1.964   1.271
 5145SOL    HW215822   3.689   2.043   1.128
 5146SOL     OW15823   2.290   2.286   0.520
 5146SOL    HW115824   2.320   2.214   0.458
 5146SOL    HW215825   2.251   2.246   0.603
 5147SOL     OW15826   3.567   3.349   1.104
 5147SOL    HW115827   3.474   3.324   1.077
 5147SOL    HW215828   3.593   3.299   1.186
 5148SOL     OW15829   2.179   2.409   1.280
 5148SOL    HW115830   2.217   2.350   1.352
 5148SOL    HW215831   2.219   2.383   1.192
 5149SOL     OW15832   2.674   3.448   0.687
 5149SOL    HW115833   2.706   3.458   0.593
 5149SOL    HW215834   2.595   3.386   0.689
 5150SOL     OW15835   3.286   2.076   1.112
 5150SOL    HW115836   3.338   2.011   1.167
 5150SOL    HW215837   3.237   2.139   1.173
 5151SOL     OW15838   2.863   1.896   1.154
 5151SOL    HW115839   2.800   1.824   1.123
 5151SOL    HW215840   2.956   1.860   1.154
 5152SOL     OW15841   2.632   3.192   0.301
 5152SOL    HW115842   2.586   3.105   0.318
 5152SOL    HW215843   2.723   3.189   0.342
 5153SOL     OW15844   2.480   3.429   1.284
 5153SOL    HW115845   2.475   3.511   1.341
 5153SOL    HW215846   2.569   3.426   1.239
 5154SOL     OW15847   3.214   1.914   0.168
 5154SOL    HW115848   3.249   1.873   0.084
 5154SOL    HW215849   3.124   1.876   0.188
 5155SOL     OW15850   3.162   2.315   0.691
 5155SOL    HW115851   3.103   2.395   0.695
 5155SOL    HW215852   3.177   2.280   0.784
 5156SOL     OW15853   3.455   2.083   0.882
 5156SOL    HW115854   3.371   2.082   0.936
 5156SOL    HW215855   3.457   2.166   0.826
 5157SOL     OW15856   1.901   2.939   0.300
 5157SOL    HW115857   2.000   2.928   0.291
 5157SOL    HW215858   1.861   2.853   0.332
 5158SOL     OW15859   2.737   3.508   0.337
 5158SOL    HW115860   2.660   3.473   0.283
 5158SOL    HW215861   2.705   3.579   0.399
 5159SOL     OW15862   2.092   2.490   1.975
 5159SOL    HW115863   1.999   2.488   2.012
 5159SOL    HW215864   2.093   2.451   1.883
 5160SOL     OW15865   1.881   2.230   2.509
 5160SOL    HW115866   1.799   2.273   2.548
 5160SOL    HW215867   1.853   2.157   2.446
 5161SOL     OW15868   2.431   3.137   3.027
 5161SOL    HW115869   2.338   3.130   2.990
 5161SOL    HW215870   2.442   3.226   3.071
 5162SOL     OW15871   3.417   3.373   2.565
 5162SOL    HW115872   3.360   3.357   2.646
 5162SOL    HW215873   3.358   3.383   2.485
 5163SOL     OW15874   2.997   2.565   2.579
 5163SOL    HW115875   3.054   2.643   2.554
 5163SOL    HW215876   2.937   2.591   2.655
 5164SOL     OW15877   3.617   2.469   2.093
 5164SOL    HW115878   3.605   2.456   1.994
 5164SOL    HW215879   3.587   2.388   2.142
 5165SOL     OW15880   2.630   3.006   2.885
 5165SOL    HW115881   2.552   3.023   2.945
 5165SOL    HW215882   2.664   3.093   2.849
 5166SOL     OW15883   2.712   2.660   3.685
 5166SOL    HW115884   2.708   2.736   3.750
 5166SOL    HW215885   2.734   2.696   3.594
 5167SOL     OW15886   2.547   2.874   2.527
 5167SOL    HW115887   2.616   2.858   2.597
 5167SOL    HW215888   2.474   2.931   2.565
 5168SOL     OW15889   2.548   3.023   3.665
 5168SOL    HW115890   2.608   3.102   3.679
 5168SOL    HW215891   2.462   3.054   3.624
 5169SOL     OW15892   2.197   3.297   2.923
 5169SOL    HW115893   2.119   3.266   2.870
 5169SOL    HW215894   2.255   3.355   2.866
 5170SOL     OW15895   3.322   3.367   3.201
 5170SOL    HW115896   3.346   3.461   3.227
 5170SOL    HW215897   3.306   3.313   3.283
 5171SOL     OW15898   2.300   2.254   3.361
 5171SOL    HW115899   2.382   2.198   3.370
 5171SOL    HW215900   2.219   2.196   3.365
 5172SOL     OW15901   3.465   2.309   2.599
 5172SOL    HW115902   3.391   2.355   2.549
 5172SOL    HW215903   3.516   2.377   2.652
 5173SOL     OW15904   2.093   3.575   2.345
 5173SOL    HW115905   2.127   3.652   2.399
 5173SOL    HW215906   2.137   3.575   2.255
 5174SOL     OW15907   2.989   3.203   3.552
 5174SOL    HW115908   3.036   3.203   3.640
 5174SOL    HW215909   2.941   3.116   3.541
 5175SOL     OW15910   2.092   3.296   2.400
 5175SOL    HW115911   2.066   3.392   2.400
 5175SOL    HW215912   2.021   3.242   2.445
 5176SOL     OW15913   2.102   2.953   2.748
 5176SOL    HW115914   2.116   2.869   2.800
 5176SOL    HW215915   2.047   3.017   2.803
 5177SOL     OW15916   2.482   3.648   3.301
 5177SOL    HW115917   2.390   3.631   3.336
 5177SOL    HW215918   2.510   3.740   3.327
 5178SOL     OW15919   2.468   2.826   1.985
 5178SOL    HW115920   2.475   2.910   1.931
 5178SOL    HW215921   2.514   2.839   2.073
 5179SOL     OW15922   3.456   1.976   3.342
 5179SOL    HW115923   3.438   2.043   3.270
 5179SOL    HW215924   3.453   2.022   3.431
 5180SOL     OW15925   1.984   2.505   2.425
 5180SOL    HW115926   1.939   2.417   2.442
 5180SOL    HW215927   1.983   2.559   2.509
 5181SOL     OW15928   3.704   3.629   2.221
 5181SOL    HW115929   3.758   3.600   2.301
 5181SOL    HW215930   3.734   3.719   2.192
 5182SOL     OW15931   1.889   3.458   1.979
 5182SOL    HW115932   1.870   3.362   2.000
 5182SOL    HW215933   1.856   3.516   2.054
 5183SOL     OW15934   3.551   2.784   2.474
 5183SOL    HW115935   3.646   2.755   2.482
 5183SOL    HW215936   3.543   2.849   2.399
 5184SOL     OW15937   3.503   2.970   2.294
 5184SOL    HW115938   3.589   2.972   2.242
 5184SOL    HW215939   3.517   3.017   2.382
 5185SOL     OW15940   1.975   2.599   3.459
 5185SOL    HW115941   2.063   2.586   3.504
 5185SOL    HW215942   1.962   2.696   3.437
 5186SOL     OW15943   2.475   3.227   2.588
 5186SOL    HW115944   2.426   3.140   2.597
 5186SOL    HW215945   2.452   3.270   2.501
 5187SOL     OW15946   3.155   3.090   3.285
 5187SOL    HW115947   3.192   3.017   3.227
 5187SOL    HW215948   3.207   3.095   3.370
 5188SOL     OW15949   2.671   1.866   2.364
 5188SOL    HW115950   2.711   1.957   2.355
 5188SOL    HW215951   2.571   1.874   2.370
 5189SOL     OW15952   2.059   2.838   3.126
 5189SOL    HW115953   2.148   2.793   3.112
 5189SOL    HW215954   1.986   2.773   3.107
 5190SOL     OW15955   3.387   2.861   2.052
 5190SOL    HW115956   3.324   2.785   2.065
 5190SOL    HW215957   3.435   2.879   2.138
 5191SOL     OW15958   3.049   3.654   3.478
 5191SOL    HW115959   3.073   3.714   3.402
 5191SOL    HW215960   3.056   3.559   3.448
 5192SOL     OW15961   3.328   3.279   2.815
 5192SOL    HW115962   3.269   3.285   2.895
 5192SOL    HW215963   3.313   3.191   2.769
 5193SOL     OW15964   3.529   3.576   2.434
 5193SOL    HW115965   3.488   3.553   2.346
 5193SOL    HW215966   3.511   3.502   2.499
 5194SOL     OW15967   2.460   2.591   2.132
 5194SOL    HW115968   2.484   2.660   2.064
 5194SOL    HW215969   2.382   2.624   2.186
 5195SOL     OW15970   3.143   2.207   2.806
 5195SOL    HW115971   3.057   2.157   2.793
 5195SOL    HW215972   3.205   2.153   2.862
 5196SOL     OW15973   3.438   3.524   2.169
 5196SOL    HW115974   3.527   3.570   2.172
 5196SOL    HW215975   3.417   3.500   2.074
 5197SOL     OW15976   2.669   2.467   3.327
 5197SOL    HW115977   2.622   2.464   3.416
 5197SOL    HW215978   2.618   2.412   3.261
 5198SOL     OW15979   3.256   2.331   3.536
 5198SOL    HW115980   3.236   2.374   3.624
 5198SOL    HW215981   3.334   2.269   3.545
 5199SOL     OW15982   2.835   2.752   3.434
 5199SOL    HW115983   2.881   2.668   3.405
 5199SOL    HW215984   2.779   2.786   3.359
 5200SOL     OW15985   2.853   2.272   3.104
 5200SOL    HW115986   2.776   2.306   3.158
 5200SOL    HW215987   2.819   2.221   3.025
 5201SOL     OW15988   2.903   2.563   2.291
 5201SOL    HW115989   2.929   2.559   2.387
 5201SOL    HW215990   2.818   2.512   2.277
 5202SOL     OW15991   1.938   2.673   2.651
 5202SOL    HW115992   2.037   2.661   2.660
 5202SOL    HW215993   1.914   2.768   2.672
 5203SOL     OW15994   1.992   3.683   3.433
 5203SOL    HW115995   1.982   3.668   3.532
 5203SOL    HW215996   1.906   3.719   3.397
 5204SOL     OW15997   2.727   2.210   2.057
 5204SOL    HW115998   2.786   2.273   2.008
 5204SOL    HW215999   2.746   2.116   2.028
 5205SOL     OW16000   3.581   2.447   3.693
 5205SOL    HW116001   3.555   2.536   3.657
 5205SOL    HW216002   3.579   2.379   3.620
 5206SOL     OW16003   3.224   3.006   2.407
 5206SOL    HW116004   3.307   2.977   2.359
 5206SOL    HW216005   3.175   3.073   2.351
 5207SOL     OW16006   2.412   2.058   2.747
 5207SOL    HW116007   2.407   2.053   2.847
 5207SOL    HW216008   2.414   2.154   2.718
 5208SOL     OW16009   2.870   3.318   2.339
 5208SOL    HW116010   2.824   3.390   2.287
 5208SOL    HW216011   2.866   3.338   2.437
 5209SOL     OW16012   2.213   3.663   2.715
 5209SOL    HW116013   2.263   3.577   2.721
 5209SOL    HW216014   2.278   3.740   2.712
 5210SOL     OW16015   3.657   2.928   2.735
 5210SOL    HW116016   3.595   2.913   2.659
 5210SOL    HW216017   3.605   2.939   2.820
 5211SOL     OW16018   3.089   3.412   3.368
 5211SOL    HW116019   3.095   3.335   3.432
 5211SOL    HW216020   3.037   3.386   3.288
 5212SOL     OW16021   2.183   2.805   2.104
 5212SOL    HW116022   2.265   2.844   2.062
 5212SOL    HW216023   2.156   2.723   2.055
 5213SOL     OW16024   3.320   2.597   2.590
 5213SOL    HW116025   3.315   2.532   2.665
 5213SOL    HW216026   3.400   2.656   2.603
 5214SOL     OW16027   2.323   3.128   3.589
 5214SOL    HW116028   2.273   3.129   3.503
 5214SOL    HW216029   2.260   3.110   3.665
 5215SOL     OW16030   2.973   3.638   2.099
 5215SOL    HW116031   2.913   3.576   2.149
 5215SOL    HW216032   3.004   3.594   2.014
 5216SOL     OW16033   3.494   3.239   1.943
 5216SOL    HW116034   3.462   3.333   1.933
 5216SOL    HW216035   3.418   3.176   1.931
 5217SOL     OW16036   2.326   3.605   2.185
 5217SOL    HW116037   2.359   3.644   2.271
 5217SOL    HW216038   2.402   3.598   2.120
 5218SOL     OW16039   3.262   1.969   2.288
 5218SOL    HW116040   3.238   1.932   2.198
 5218SOL    HW216041   3.361   1.985   2.292
 5219SOL     OW16042   2.111   3.647   3.103
 5219SOL    HW116043   2.168   3.582   3.153
 5219SOL    HW216044   2.095   3.614   3.010
 5220SOL     OW16045   2.802   3.560   2.766
 5220SOL    HW116046   2.882   3.503   2.787
 5220SOL    HW216047   2.753   3.520   2.689
 5221SOL     OW16048   2.244   2.562   2.342
 5221SOL    HW116049   2.289   2.472   2.339
 5221SOL    HW216050   2.150   2.551   2.375
 5222SOL     OW16051   3.409   2.084   3.591
 5222SOL    HW116052   3.404   2.121   3.683
 5222SOL    HW216053   3.337   2.015   3.579
 5223SOL     OW16054   2.476   1.984   1.979
 5223SOL    HW116055   2.574   1.962   1.986
 5223SOL    HW216056   2.445   1.967   1.886
 5224SOL     OW16057   2.643   2.126   3.611
 5224SOL    HW116058   2.710   2.065   3.654
 5224SOL    HW216059   2.570   2.145   3.676
 5225SOL     OW16060   2.750   3.376   3.057
 5225SOL    HW116061   2.727   3.351   2.963
 5225SOL    HW216062   2.811   3.307   3.096
 5226SOL     OW16063   3.213   2.452   3.295
 5226SOL    HW116064   3.241   2.409   3.380
 5226SOL    HW216065   3.238   2.548   3.296
 5227SOL     OW16066   2.665   3.264   2.786
 5227SOL    HW116067   2.755   3.278   2.744
 5227SOL    HW216068   2.594   3.266   2.715
 5228SOL     OW16069   2.784   2.365   2.761
 5228SOL    HW116070   2.759   2.356   2.665
 5228SOL    HW216071   2.832   2.283   2.792
 5229SOL     OW16072   2.401   1.926   2.374
 5229SOL    HW116073   2.320   1.927   2.432
 5229SOL    HW216074   2.404   2.009   2.319
 5230SOL     OW16075   3.296   3.050   1.903
 5230SOL    HW116076   3.328   2.974   1.960
 5230SOL    HW216077   3.204   3.077   1.933
 5231SOL     OW16078   2.797   2.098   2.342
 5231SOL    HW116079   2.749   2.139   2.264
 5231SOL    HW216080   2.896   2.096   2.323
 5232SOL     OW16081   2.938   2.545   3.326
 5232SOL    HW116082   2.858   2.484   3.329
 5232SOL    HW216083   3.019   2.492   3.302
 5233SOL     OW16084   3.089   3.432   2.655
 5233SOL    HW116085   3.110   3.506   2.590
 5233SOL    HW216086   3.157   3.432   2.728
 5234SOL     OW16087   2.321   3.014   2.603
 5234SOL    HW116088   2.250   2.987   2.668
 5234SOL    HW216089   2.295   2.986   2.510
 5235SOL     OW16090   3.133   3.659   2.453
 5235SOL    HW116091   3.177   3.723   2.389
 5235SOL    HW216092   3.083   3.711   2.523
 5236SOL     OW16093   2.894   2.411   1.878
 5236SOL    HW116094   2.853   2.493   1.839
 5236SOL    HW216095   2.958   2.437   1.951
 5237SOL     OW16096   1.940   2.418   3.248
 5237SOL    HW116097   2.032   2.417   3.207
 5237SOL    HW216098   1.934   2.492   3.315
 5238SOL     OW16099   2.423   2.084   3.009
 5238SOL    HW116100   2.461   2.000   3.046
 5238SOL    HW216101   2.335   2.103   3.053
 5239SOL     OW16102   2.728   2.316   2.504
 5239SOL    HW116103   2.696   2.388   2.442
 5239SOL    HW216104   2.752   2.235   2.451
 5240SOL     OW16105   2.879   1.901   2.615
 5240SOL    HW116106   2.807   1.906   2.546
 5240SOL    HW216107   2.855   1.832   2.684
 5241SOL     OW16108   3.291   3.035   2.729
 5241SOL    HW116109   3.236   2.951   2.722
 5241SOL    HW216110   3.317   3.064   2.637
 5242SOL     OW16111   3.328   2.452   2.854
 5242SOL    HW116112   3.298   2.357   2.861
 5242SOL    HW216113   3.401   2.468   2.920
 5243SOL     OW16114   3.719   2.695   2.239
 5243SOL    HW116115   3.761   2.631   2.303
 5243SOL    HW216116   3.681   2.644   2.161
 5244SOL     OW16117   2.350   3.247   2.036
 5244SOL    HW116118   2.263   3.232   2.083
 5244SOL    HW216119   2.333   3.273   1.941
 5245SOL     OW16120   3.526   3.142   2.519
 5245SOL    HW116121   3.625   3.150   2.533
 5245SOL    HW216122   3.481   3.226   2.550
 5246SOL     OW16123   3.252   2.437   1.940
 5246SOL    HW116124   3.198   2.416   2.021
 5246SOL    HW216125   3.343   2.396   1.949
 5247SOL     OW16126   2.389   2.118   2.190
 5247SOL    HW116127   2.416   2.059   2.115
 5247SOL    HW216128   2.389   2.213   2.159
 5248SOL     OW16129   3.616   3.085   3.450
 5248SOL    HW116130   3.707   3.046   3.437
 5248SOL    HW216131   3.624   3.181   3.474
 5249SOL     OW16132   2.926   3.209   3.202
 5249SOL    HW116133   2.846   3.186   3.257
 5249SOL    HW216134   3.009   3.183   3.251
 5250SOL     OW16135   3.454   3.491   3.487
 5250SOL    HW116136   3.481   3.525   3.397
 5250SOL    HW216137   3.533   3.453   3.533
 5251SOL     OW16138   2.973   3.057   2.962
 5251SOL    HW116139   2.933   3.101   3.043
 5251SOL    HW216140   2.932   3.094   2.879
 5252SOL     OW16141   3.500   2.961   2.941
 5252SOL    HW116142   3.505   3.042   3.000
 5252SOL    HW216143   3.414   2.963   2.890
 5253SOL     OW16144   2.777   1.951   3.264
 5253SOL    HW116145   2.802   1.931   3.169
 5253SOL    HW216146   2.849   2.007   3.306
 5254SOL     OW16147   2.842   2.978   3.581
 5254SOL    HW116148   2.743   2.984   3.591
 5254SOL    HW216149   2.865   2.898   3.525
 5255SOL     OW16150   2.567   2.912   2.230
 5255SOL    HW116151   2.553   2.919   2.329
 5255SOL    HW216152   2.651   2.861   2.212
 5256SOL     OW16153   2.272   2.675   3.113
 5256SOL    HW116154   2.358   2.687   3.163
 5256SOL    HW216155   2.230   2.588   3.140
 5257SOL     OW16156   3.136   2.248   3.124
 5257SOL    HW116157   3.157   2.322   3.188
 5257SOL    HW216158   3.047   2.265   3.081
 5258SOL     OW16159   1.926   3.426   3.193
 5258SOL    HW116160   1.880   3.508   3.159
 5258SOL    HW216161   2.024   3.445   3.202
 5259SOL     OW16162   2.229   2.962   2.363
 5259SOL    HW116163   2.222   3.045   2.307
 5259SOL    HW216164   2.233   2.882   2.303
 5260SOL     OW16165   2.428   2.399   2.727
 5260SOL    HW116166   2.440   2.465   2.653
 5260SOL    HW216167   2.474   2.433   2.810
 5261SOL     OW16168   3.114   3.210   2.250
 5261SOL    HW116169   3.164   3.287   2.290
 5261SOL    HW216170   3.019   3.212   2.282
 5262SOL     OW16171   3.134   3.307   3.004
 5262SOL    HW116172   3.181   3.320   3.091
 5262SOL    HW216173   3.068   3.233   3.013
 5263SOL     OW16174   3.444   2.501   2.334
 5263SOL    HW116175   3.413   2.562   2.407
 5263SOL    HW216176   3.494   2.553   2.265
 5264SOL     OW16177   2.216   3.372   3.191
 5264SOL    HW116178   2.195   3.328   3.104
 5264SOL    HW216179   2.313   3.398   3.194
 5265SOL     OW16180   2.264   2.613   3.460
 5265SOL    HW116181   2.332   2.668   3.413
 5265SOL    HW216182   2.304   2.525   3.487
 5266SOL     OW16183   3.449   2.641   3.532
 5266SOL    HW116184   3.357   2.679   3.527
 5266SOL    HW216185   3.509   2.688   3.467
 5267SOL     OW16186   2.875   1.967   3.632
 5267SOL    HW116187   2.881   2.052   3.580
 5267SOL    HW216188   2.907   1.891   3.575
 5268SOL     OW16189   2.366   1.912   3.602
 5268SOL    HW116190   2.324   1.855   3.532
 5268SOL    HW216191   2.300   1.981   3.634
 5269SOL     OW16192   2.435   2.732   2.891
 5269SOL    HW116193   2.479   2.821   2.882
 5269SOL    HW216194   2.372   2.732   2.968
 5270SOL     OW16195   3.222   2.724   2.907
 5270SOL    HW116196   3.147   2.724   2.841
 5270SOL    HW216197   3.259   2.632   2.916
 5271SOL     OW16198   3.071   2.387   2.137
 5271SOL    HW116199   3.084   2.303   2.191
 5271SOL    HW216200   3.042   2.461   2.197
 5272SOL     OW16201   1.899   3.172   3.144
 5272SOL    HW116202   1.952   3.123   3.212
 5272SOL    HW216203   1.921   3.270   3.149
 5273SOL     OW16204   2.594   2.496   2.926
 5273SOL    HW116205   2.653   2.470   2.850
 5273SOL    HW216206   2.566   2.592   2.915
 5274SOL     OW16207   3.590   2.797   3.716
 5274SOL    HW116208   3.544   2.790   3.627
 5274SOL    HW216209   3.528   2.841   3.782
 5275SOL     OW16210   2.169   1.925   2.480
 5275SOL    HW116211   2.158   2.019   2.513
 5275SOL    HW216212   2.164   1.862   2.557
 5276SOL     OW16213   3.484   2.229   2.236
 5276SOL    HW116214   3.486   2.153   2.300
 5276SOL    HW216215   3.436   2.306   2.276
 5277SOL     OW16216   2.885   2.628   2.828
 5277SOL    HW116217   2.900   2.649   2.924
 5277SOL    HW216218   2.855   2.533   2.819
 5278SOL     OW16219   2.842   3.435   3.562
 5278SOL    HW116220   2.822   3.479   3.474
 5278SOL    HW216221   2.881   3.344   3.546
 5279SOL     OW16222   3.721   3.380   3.467
 5279SOL    HW116223   3.735   3.407   3.372
 5279SOL    HW216224   3.804   3.402   3.520
 5280SOL     OW16225   2.212   2.760   3.666
 5280SOL    HW116226   2.288   2.804   3.714
 5280SOL    HW216227   2.247   2.713   3.584
 5281SOL     OW16228   3.402   2.136   1.987
 5281SOL    HW116229   3.341   2.061   2.010
 5281SOL    HW216230   3.424   2.188   2.070
 5282SOL     OW16231   3.165   2.700   1.904
 5282SOL    HW116232   3.199   2.607   1.919
 5282SOL    HW216233   3.183   2.727   1.809
 5283SOL     OW16234   2.930   3.195   2.711
 5283SOL    HW116235   2.937   3.111   2.656
 5283SOL    HW216236   2.992   3.264   2.675
 5284SOL     OW16237   2.181   2.672   2.811
 5284SOL    HW116238   2.274   2.708   2.816
 5284SOL    HW216239   2.175   2.587   2.863
 5285SOL     OW16240   2.201   2.371   2.868
 5285SOL    HW116241   2.149   2.288   2.851
 5285SOL    HW216242   2.278   2.376   2.804
 5286SOL     OW16243   3.000   2.242   3.540
 5286SOL    HW116244   2.955   2.305   3.604
 5286SOL    HW216245   3.093   2.273   3.523
 5287SOL     OW16246   3.022   2.069   3.339
 5287SOL    HW116247   3.022   2.133   3.416
 5287SOL    HW216248   3.050   2.117   3.256
 5288SOL     OW16249   1.870   3.188   2.062
 5288SOL    HW116250   1.777   3.209   2.031
 5288SOL    HW216251   1.880   3.089   2.075
 5289SOL     OW16252   1.950   3.663   2.789
 5289SOL    HW116253   1.908   3.577   2.762
 5289SOL    HW216254   2.044   3.666   2.755
 5290SOL     OW16255   2.366   3.430   2.772
 5290SOL    HW116256   2.432   3.504   2.781
 5290SOL    HW216257   2.410   3.351   2.730
 5291SOL     OW16258   2.864   2.658   3.100
 5291SOL    HW116259   2.905   2.626   3.186
 5291SOL    HW216260   2.768   2.631   3.097
 5292SOL     OW16261   1.902   2.406   2.976
 5292SOL    HW116262   1.987   2.373   2.935
 5292SOL    HW216263   1.915   2.421   3.074
 5293SOL     OW16264   2.051   2.382   3.584
 5293SOL    HW116265   2.110   2.342   3.514
 5293SOL    HW216266   1.993   2.453   3.543
 5294SOL     OW16267   3.231   2.812   3.522
 5294SOL    HW116268   3.270   2.901   3.542
 5294SOL    HW216269   3.241   2.792   3.425
 5295SOL     OW16270   2.677   2.434   2.187
 5295SOL    HW116271   2.684   2.345   2.141
 5295SOL    HW216272   2.583   2.468   2.179
 5296SOL     OW16273   3.519   2.466   3.068
 5296SOL    HW116274   3.481   2.397   3.130
 5296SOL    HW216275   3.601   2.430   3.024
 5297SOL     OW16276   2.114   3.426   3.606
 5297SOL    HW116277   2.084   3.483   3.682
 5297SOL    HW216278   2.107   3.329   3.632
 5298SOL     OW16279   2.533   2.326   3.131
 5298SOL    HW116280   2.499   2.237   3.101
 5298SOL    HW216281   2.559   2.380   3.051
 5299SOL     OW16282   2.792   3.540   3.327
 5299SOL    HW116283   2.768   3.522   3.232
 5299SOL    HW216284   2.822   3.634   3.337
 5300SOL     OW16285   2.335   2.362   2.053
 5300SOL    HW116286   2.396   2.442   2.057
 5300SOL    HW216287   2.240   2.393   2.060
 5301SOL     OW16288   2.021   2.999   3.328
 5301SOL    HW116289   2.043   2.938   3.404
 5301SOL    HW216290   2.031   2.950   3.242
 5302SOL     OW16291   3.209   2.921   3.096
 5302SOL    HW116292   3.233   2.858   3.022
 5302SOL    HW216293   3.119   2.961   3.078
 5303SOL     OW16294   3.164   2.717   2.171
 5303SOL    HW116295   3.078   2.686   2.213
 5303SOL    HW216296   3.160   2.703   2.072
 5304SOL     OW16297   3.621   3.609   3.016
 5304SOL    HW116298   3.682   3.639   2.943
 5304SOL    HW216299   3.583   3.520   2.994
 5305SOL     OW16300   3.114   3.593   2.990
 5305SOL    HW116301   3.198   3.598   2.936
 5305SOL    HW216302   3.091   3.497   3.008
 5306SOL     OW16303   1.945   3.120   2.884
 5306SOL    HW116304   1.940   3.119   2.984
 5306SOL    HW216305   1.862   3.079   2.846
 5307SOL     OW16306   2.550   3.524   3.578
 5307SOL    HW116307   2.494   3.605   3.587
 5307SOL    HW216308   2.602   3.528   3.492
 5308SOL     OW16309   3.588   1.997   2.385
 5308SOL    HW116310   3.661   1.980   2.318
 5308SOL    HW216311   3.557   1.910   2.423
 5309SOL     OW16312   3.250   3.435   2.339
 5309SOL    HW116313   3.317   3.447   2.265
 5309SOL    HW216314   3.210   3.524   2.362
 5310SOL     OW16315   1.992   3.656   3.713
 5310SOL    HW116316   1.951   3.582   3.766
 5310SOL    HW216317   2.056   3.707   3.771
 5311SOL     OW16318   3.142   2.789   2.534
 5311SOL    HW116319   3.202   2.708   2.536
 5311SOL    HW216320   3.182   2.858   2.474
 5312SOL     OW16321   2.692   3.135   3.284
 5312SOL    HW116322   2.687   3.168   3.379
 5312SOL    HW216323   2.606   3.154   3.238
 5313SOL     OW16324   2.534   3.478   2.016
 5313SOL    HW116325   2.543   3.488   1.917
 5313SOL    HW216326   2.494   3.389   2.037
 5314SOL     OW16327   3.512   3.582   3.256
 5314SOL    HW116328   3.565   3.592   3.172
 5314SOL    HW216329   3.485   3.672   3.290
 5315SOL     OW16330   3.703   2.037   2.825
 5315SOL    HW116331   3.742   1.952   2.789
 5315SOL    HW216332   3.605   2.039   2.806
 5316SOL     OW16333   3.056   3.474   1.893
 5316SOL    HW116334   3.062   3.381   1.930
 5316SOL    HW216335   2.997   3.474   1.813
 5317SOL     OW16336   2.684   2.864   3.234
 5317SOL    HW116337   2.724   2.863   3.142
 5317SOL    HW216338   2.694   2.956   3.274
 5318SOL     OW16339   2.778   2.772   2.153
 5318SOL    HW116340   2.841   2.810   2.085
 5318SOL    HW216341   2.818   2.689   2.192
 5319SOL     OW16342   3.366   3.469   1.906
 5319SOL    HW116343   3.274   3.506   1.913
 5319SOL    HW216344   3.404   3.489   1.816
 5320SOL     OW16345   2.234   3.150   3.352
 5320SOL    HW116346   2.221   3.243   3.318
 5320SOL    HW216347   2.150   3.098   3.339
 5321SOL     OW16348   3.476   3.154   3.151
 5321SOL    HW116349   3.536   3.157   3.231
 5321SOL    HW216350   3.401   3.218   3.164
 5322SOL     OW16351   2.901   2.960   2.558
 5322SOL    HW116352   2.831   2.913   2.612
 5322SOL    HW216353   2.960   2.892   2.515
 5323SOL     OW16354   2.876   2.098   2.833
 5323SOL    HW116355   2.868   2.062   2.740
 5323SOL    HW216356   2.874   2.022   2.898
 5324SOL     OW16357   2.452   3.349   2.353
 5324SOL    HW116358   2.494   3.291   2.283
 5324SOL    HW216359   2.408   3.428   2.309
 5325SOL     OW16360   3.571   2.247   3.243
 5325SOL    HW116361   3.644   2.316   3.247
 5325SOL    HW216362   3.599   2.172   3.184
 5326SOL     OW16363   2.117   3.210   2.152
 5326SOL    HW116364   2.021   3.211   2.125
 5326SOL    HW216365   2.129   3.263   2.236
 5327SOL     OW16366   1.967   2.875   3.588
 5327SOL    HW116367   1.890   2.842   3.642
 5327SOL    HW216368   2.052   2.845   3.630
 5328SOL     OW16369   2.534   2.065   3.351
 5328SOL    HW116370   2.624   2.049   3.311
 5328SOL    HW216371   2.542   2.070   3.450
 5329SOL     OW16372   1.937   2.207   1.895
 5329SOL    HW116373   1.845   2.179   1.866
 5329SOL    HW216374   1.968   2.284   1.839
 5330SOL     OW16375   3.302   2.718   3.260
 5330SOL    HW116376   3.245   2.770   3.197
 5330SOL    HW216377   3.398   2.730   3.236
 5331SOL     OW16378   3.045   3.197   1.981
 5331SOL    HW116379   2.946   3.186   1.983
 5331SOL    HW216380   3.079   3.212   2.074
 5332SOL     OW16381   2.475   2.704   3.293
 5332SOL    HW116382   2.531   2.785   3.276
 5332SOL    HW216383   2.534   2.624   3.296
 5333SOL     OW16384   3.355   3.629   2.821
 5333SOL    HW116385   3.388   3.693   2.752
 5333SOL    HW216386   3.421   3.623   2.896
 5334SOL     OW16387   2.578   2.427   3.570
 5334SOL    HW116388   2.597   2.492   3.644
 5334SOL    HW216389   2.638   2.347   3.579
 5335SOL     OW16390   3.312   3.082   3.495
 5335SOL    HW116391   3.303   3.072   3.594
 5335SOL    HW216392   3.408   3.075   3.469
 5336SOL     OW16393   2.252   3.603   3.422
 5336SOL    HW116394   2.161   3.644   3.420
 5336SOL    HW216395   2.245   3.509   3.454
 5337SOL     OW16396   3.536   2.745   3.116
 5337SOL    HW116397   3.509   2.656   3.079
 5337SOL    HW216398   3.537   2.813   3.043
 5338SOL     OW16399   3.087   2.187   2.311
 5338SOL    HW116400   3.152   2.113   2.300
 5338SOL    HW216401   3.107   2.237   2.395
 5339SOL     OW16402   2.456   2.607   2.514
 5339SOL    HW116403   2.506   2.692   2.495
 5339SOL    HW216404   2.368   2.609   2.466
 5340SOL     OW16405   3.639   2.204   3.504
 5340SOL    HW116406   3.622   2.235   3.410
 5340SOL    HW216407   3.555   2.167   3.542
 5341SOL     OW16408   3.592   2.796   3.379
 5341SOL    HW116409   3.630   2.887   3.394
 5341SOL    HW216410   3.584   2.779   3.280
 5342SOL     OW16411   2.721   3.236   1.878
 5342SOL    HW116412   2.675   3.251   1.966
 5342SOL    HW216413   2.765   3.321   1.848
 5343SOL     OW16414   2.523   3.652   2.815
 5343SOL    HW116415   2.477   3.740   2.802
 5343SOL    HW216416   2.622   3.664   2.808
 5344SOL     OW16417   2.721   2.818   2.723
 5344SOL    HW116418   2.775   2.749   2.771
 5344SOL    HW216419   2.689   2.887   2.789
 5345SOL     OW16420   2.945   2.846   1.949
 5345SOL    HW116421   2.922   2.899   1.867
 5345SOL    HW216422   3.026   2.790   1.930
 5346SOL     OW16423   3.723   3.431   2.713
 5346SOL    HW116424   3.652   3.419   2.643
 5346SOL    HW216425   3.724   3.352   2.773
 5347SOL     OW16426   2.083   3.176   3.706
 5347SOL    HW116427   2.018   3.103   3.685
 5347SOL    HW216428   2.087   3.190   3.804
 5348SOL     OW16429   1.941   3.102   2.515
 5348SOL    HW116430   1.940   3.055   2.603
 5348SOL    HW216431   2.023   3.074   2.464
 5349SOL     OW16432   2.534   3.253   3.486
 5349SOL    HW116433   2.456   3.203   3.524
 5349SOL    HW216434   2.531   3.348   3.517
 5350SOL     OW16435   3.686   2.054   3.089
 5350SOL    HW116436   3.682   1.964   3.133
 5350SOL    HW216437   3.689   2.043   2.990
 5351SOL     OW16438   2.290   2.286   2.382
 5351SOL    HW116439   2.320   2.214   2.320
 5351SOL    HW216440   2.251   2.246   2.465
 5352SOL     OW16441   3.567   3.349   2.966
 5352SOL    HW116442   3.474   3.324   2.939
 5352SOL    HW216443   3.593   3.299   3.048
 5353SOL     OW16444   2.179   2.409   3.142
 5353SOL    HW116445   2.217   2.350   3.214
 5353SOL    HW216446   2.219   2.383   3.054
 5354SOL     OW16447   2.674   3.448   2.549
 5354SOL    HW116448   2.706   3.458   2.455
 5354SOL    HW216449   2.595   3.386   2.551
 5355SOL     OW16450   3.286   2.076   2.974
 5355SOL    HW116451   3.338   2.011   3.029
 5355SOL    HW216452   3.237   2.139   3.035
 5356SOL     OW16453   2.863   1.896   3.016
 5356SOL    HW116454   2.800   1.824   2.985
 5356SOL    HW216455   2.956   1.860   3.016
 5357SOL     OW16456   2.632   3.192   2.163
 5357SOL    HW116457   2.586   3.105   2.180
 5357SOL    HW216458   2.723   3.189   2.204
 5358SOL     OW16459   2.480   3.429   3.146
 5358SOL    HW116460   2.475   3.511   3.203
 5358SOL    HW216461   2.569   3.426   3.101
 5359SOL     OW16462   3.214   1.914   2.030
 5359SOL    HW116463   3.249   1.873   1.946
 5359SOL    HW216464   3.124   1.876   2.050
 5360SOL     OW16465   3.162   2.315   2.553
 5360SOL    HW116466   3.103   2.395   2.557
 5360SOL    HW216467   3.177   2.280   2.646
 5361SOL     OW16468   3.455   2.083   2.744
 5361SOL    HW116469   3.371   2.082   2.798
 5361SOL    HW216470   3.457   2.166   2.688
 5362SOL     OW16471   1.901   2.939   2.162
 5362SOL    HW116472   2.000   2.928   2.153
 5362SOL    HW216473   1.861   2.853   2.194
 5363SOL     OW16474   2.737   3.508   2.199
 5363SOL    HW116475   2.660   3.473   2.145
 5363SOL    HW216476   2.705   3.579   2.261
 5364SOL     OW16477   2.092   2.490   3.837
 5364SOL    HW116478   1.999   2.488   3.874
 5364SOL    HW216479   2.093   2.451   3.745
 5365SOL     OW16480   1.881   2.230   4.371
 5365SOL    HW116481   1.799   2.273   4.410
 5365SOL    HW216482   1.853   2.157   4.308
 5366SOL     OW16483   2.431   3.137   4.889
 5366SOL    HW116484   2.338   3.130   4.852
 5366SOL    HW216485   2.442   3.226   4.933
 5367SOL     OW16486   3.417   3.373   4.427
 5367SOL    HW116487   3.360   3.357   4.508
 5367SOL    HW216488   3.358   3.383   4.347
 5368SOL     OW16489   2.997   2.565   4.441
 5368SOL    HW116490   3.054   2.643   4.416
 5368SOL    HW216491   2.937   2.591   4.517
 5369SOL     OW16492   3.617   2.469   3.955
 5369SOL    HW116493   3.605   2.456   3.856
 5369SOL    HW216494   3.587   2.388   4.004
 5370SOL     OW16495   2.630   3.006   4.747
 5370SOL    HW116496   2.552   3.023   4.807
 5370SOL    HW216497   2.664   3.093   4.711
 5371SOL     OW16498   2.712   2.660   5.547
 5371SOL    HW116499   2.708   2.736   5.612
 5371SOL    HW216500   2.734   2.696   5.456
 5372SOL     OW16501   2.547   2.874   4.389
 5372SOL    HW116502   2.616   2.858   4.459
 5372SOL    HW216503   2.474   2.931   4.427
 5373SOL     OW16504   2.548   3.023   5.527
 5373SOL    HW116505   2.608   3.102   5.541
 5373SOL    HW216506   2.462   3.054   5.486
 5374SOL     OW16507   2.197   3.297   4.785
 5374SOL    HW116508   2.119   3.266   4.732
 5374SOL    HW216509   2.255   3.355   4.728
 5375SOL     OW16510   3.322   3.367   5.063
 5375SOL    HW116511   3.346   3.461   5.089
 5375SOL    HW216512   3.306   3.313   5.145
 5376SOL     OW16513   2.300   2.254   5.223
 5376SOL    HW116514   2.382   2.198   5.232
 5376SOL    HW216515   2.219   2.196   5.227
 5377SOL     OW16516   3.465   2.309   4.461
 5377SOL    HW116517   3.391   2.355   4.411
 5377SOL    HW216518   3.516   2.377   4.514
 5378SOL     OW16519   2.093   3.575   4.207
 5378SOL    HW116520   2.127   3.652   4.261
 5378SOL    HW216521   2.137   3.575   4.117
 5379SOL     OW16522   2.989   3.203   5.414
 5379SOL    HW116523   3.036   3.203   5.502
 5379SOL    HW216524   2.941   3.116   5.403
 5380SOL     OW16525   2.092   3.296   4.262
 5380SOL    HW116526   2.066   3.392   4.262
 5380SOL    HW216527   2.021   3.242   4.307
 5381SOL     OW16528   2.102   2.953   4.610
 5381SOL    HW116529   2.116   2.869   4.662
 5381SOL    HW216530   2.047   3.017   4.665
 5382SOL     OW16531   2.482   3.648   5.163
 5382SOL    HW116532   2.390   3.631   5.198
 5382SOL    HW216533   2.510   3.740   5.189
 5383SOL     OW16534   2.468   2.826   3.847
 5383SOL    HW116535   2.475   2.910   3.793
 5383SOL    HW216536   2.514   2.839   3.935
 5384SOL     OW16537   3.456   1.976   5.204
 5384SOL    HW116538   3.438   2.043   5.132
 5384SOL    HW216539   3.453   2.022   5.293
 5385SOL     OW16540   1.984   2.505   4.287
 5385SOL    HW116541   1.939   2.417   4.304
 5385SOL    HW216542   1.983   2.559   4.371
 5386SOL     OW16543   3.704   3.629   4.083
 5386SOL    HW116544   3.758   3.600   4.163
 5386SOL    HW216545   3.734   3.719   4.054
 5387SOL     OW16546   1.889   3.458   3.841
 5387SOL    HW116547   1.870   3.362   3.862
 5387SOL    HW216548   1.856   3.516   3.916
 5388SOL     OW16549   3.551   2.784   4.336
 5388SOL    HW116550   3.646   2.755   4.344
 5388SOL    HW216551   3.543   2.849   4.261
 5389SOL     OW16552   3.503   2.970   4.156
 5389SOL    HW116553   3.589   2.972   4.104
 5389SOL    HW216554   3.517   3.017   4.244
 5390SOL     OW16555   1.975   2.599   5.321
 5390SOL    HW116556   2.063   2.586   5.366
 5390SOL    HW216557   1.962   2.696   5.299
 5391SOL     OW16558   2.475   3.227   4.450
 5391SOL    HW116559   2.426   3.140   4.459
 5391SOL    HW216560   2.452   3.270   4.363
 5392SOL     OW16561   3.155   3.090   5.147
 5392SOL    HW116562   3.192   3.017   5.089
 5392SOL    HW216563   3.207   3.095   5.232
 5393SOL     OW16564   2.671   1.866   4.226
 5393SOL    HW116565   2.711   1.957   4.217
 5393SOL    HW216566   2.571   1.874   4.232
 5394SOL     OW16567   2.059   2.838   4.988
 5394SOL    HW116568   2.148   2.793   4.974
 5394SOL    HW216569   1.986   2.773   4.969
 5395SOL     OW16570   3.387   2.861   3.914
 5395SOL    HW116571   3.324   2.785   3.927
 5395SOL    HW216572   3.435   2.879   4.000
 5396SOL     OW16573   3.049   3.654   5.340
 5396SOL    HW116574   3.073   3.714   5.264
 5396SOL    HW216575   3.056   3.559   5.310
 5397SOL     OW16576   3.328   3.279   4.677
 5397SOL    HW116577   3.269   3.285   4.757
 5397SOL    HW216578   3.313   3.191   4.631
 5398SOL     OW16579   3.529   3.576   4.296
 5398SOL    HW116580   3.488   3.553   4.208
 5398SOL    HW216581   3.511   3.502   4.361
 5399SOL     OW16582   2.460   2.591   3.994
 5399SOL    HW116583   2.484   2.660   3.926
 5399SOL    HW216584   2.382   2.624   4.048
 5400SOL     OW16585   3.143   2.207   4.668
 5400SOL    HW116586   3.057   2.157   4.655
 5400SOL    HW216587   3.205   2.153   4.724
 5401SOL     OW16588   3.438   3.524   4.031
 5401SOL    HW116589   3.527   3.570   4.034
 5401SOL    HW216590   3.417   3.500   3.936
 5402SOL     OW16591   2.669   2.467   5.189
 5402SOL    HW116592   2.622   2.464   5.278
 5402SOL    HW216593   2.618   2.412   5.123
 5403SOL     OW16594   3.256   2.331   5.398
 5403SOL    HW116595   3.236   2.374   5.486
 5403SOL    HW216596   3.334   2.269   5.407
 5404SOL     OW16597   2.835   2.752   5.296
 5404SOL    HW116598   2.881   2.668   5.267
 5404SOL    HW216599   2.779   2.786   5.221
 5405SOL     OW16600   2.853   2.272   4.966
 5405SOL    HW116601   2.776   2.306   5.020
 5405SOL    HW216602   2.819   2.221   4.887
 5406SOL     OW16603   2.903   2.563   4.153
 5406SOL    HW116604   2.929   2.559   4.249
 5406SOL    HW216605   2.818   2.512   4.139
 5407SOL     OW16606   1.938   2.673   4.513
 5407SOL    HW116607   2.037   2.661   4.522
 5407SOL    HW216608   1.914   2.768   4.534
 5408SOL     OW16609   1.992   3.683   5.295
 5408SOL    HW116610   1.982   3.668   5.394
 5408SOL    HW216611   1.906   3.719   5.259
 5409SOL     OW16612   2.727   2.210   3.919
 5409SOL    HW116613   2.786   2.273   3.870
 5409SOL    HW216614   2.746   2.116   3.890
 5410SOL     OW16615   3.581   2.447   5.555
 5410SOL    HW116616   3.555   2.536   5.519
 5410SOL    HW216617   3.579   2.379   5.482
 5411SOL     OW16618   3.224   3.006   4.269
 5411SOL    HW116619   3.307   2.977   4.221
 5411SOL    HW216620   3.175   3.073   4.213
 5412SOL     OW16621   2.412   2.058   4.609
 5412SOL    HW116622   2.407   2.053   4.709
 5412SOL    HW216623   2.414   2.154   4.580
 5413SOL     OW16624   2.870   3.318   4.201
 5413SOL    HW116625   2.824   3.390   4.149
 5413SOL    HW216626   2.866   3.338   4.299
 5414SOL     OW16627   2.213   3.663   4.577
 5414SOL    HW116628   2.263   3.577   4.583
 5414SOL    HW216629   2.278   3.740   4.574
 5415SOL     OW16630   3.657   2.928   4.597
 5415SOL    HW116631   3.595   2.913   4.521
 5415SOL    HW216632   3.605   2.939   4.682
 5416SOL     OW16633   3.089   3.412   5.230
 5416SOL    HW116634   3.095   3.335   5.294
 5416SOL    HW216635   3.037   3.386   5.150
 5417SOL     OW16636   2.183   2.805   3.966
 5417SOL    HW116637   2.265   2.844   3.924
 5417SOL    HW216638   2.156   2.723   3.917
 5418SOL     OW16639   3.320   2.597   4.452
 5418SOL    HW116640   3.315   2.532   4.527
 5418SOL    HW216641   3.400   2.656   4.465
 5419SOL     OW16642   2.323   3.128   5.451
 5419SOL    HW116643   2.273   3.129   5.365
 5419SOL    HW216644   2.260   3.110   5.527
 5420SOL     OW16645   2.973   3.638   3.961
 5420SOL    HW116646   2.913   3.576   4.011
 5420SOL    HW216647   3.004   3.594   3.876
 5421SOL     OW16648   3.494   3.239   3.805
 5421SOL    HW116649   3.462   3.333   3.795
 5421SOL    HW216650   3.418   3.176   3.793
 5422SOL     OW16651   2.326   3.605   4.047
 5422SOL    HW116652   2.359   3.644   4.133
 5422SOL    HW216653   2.402   3.598   3.982
 5423SOL     OW16654   3.262   1.969   4.150
 5423SOL    HW116655   3.238   1.932   4.060
 5423SOL    HW216656   3.361   1.985   4.154
 5424SOL     OW16657   2.111   3.647   4.965
 5424SOL    HW116658   2.168   3.582   5.015
 5424SOL    HW216659   2.095   3.614   4.872
 5425SOL     OW16660   2.802   3.560   4.628
 5425SOL    HW116661   2.882   3.503   4.649
 5425SOL    HW216662   2.753   3.520   4.551
 5426SOL     OW16663   2.244   2.562   4.204
 5426SOL    HW116664   2.289   2.472   4.201
 5426SOL    HW216665   2.150   2.551   4.237
 5427SOL     OW16666   3.409   2.084   5.453
 5427SOL    HW116667   3.404   2.121   5.545
 5427SOL    HW216668   3.337   2.015   5.441
 5428SOL     OW16669   2.476   1.984   3.841
 5428SOL    HW116670   2.574   1.962   3.848
 5428SOL    HW216671   2.445   1.967   3.748
 5429SOL     OW16672   2.643   2.126   5.473
 5429SOL    HW116673   2.710   2.065   5.516
 5429SOL    HW216674   2.570   2.145   5.538
 5430SOL     OW16675   2.750   3.376   4.919
 5430SOL    HW116676   2.727   3.351   4.825
 5430SOL    HW216677   2.811   3.307   4.958
 5431SOL     OW16678   3.213   2.452   5.157
 5431SOL    HW116679   3.241   2.409   5.242
 5431SOL    HW216680   3.238   2.548   5.158
 5432SOL     OW16681   2.665   3.264   4.648
 5432SOL    HW116682   2.755   3.278   4.606
 5432SOL    HW216683   2.594   3.266   4.577
 5433SOL     OW16684   2.784   2.365   4.623
 5433SOL    HW116685   2.759   2.356   4.527
 5433SOL    HW216686   2.832   2.283   4.654
 5434SOL     OW16687   2.401   1.926   4.236
 5434SOL    HW116688   2.320   1.927   4.294
 5434SOL    HW216689   2.404   2.009   4.181
 5435SOL     OW16690   3.296   3.050   3.765
 5435SOL    HW116691   3.328   2.974   3.822
 5435SOL    HW216692   3.204   3.077   3.795
 5436SOL     OW16693   2.797   2.098   4.204
 5436SOL    HW116694   2.749   2.139   4.126
 5436SOL    HW216695   2.896   2.096   4.185
 5437SOL     OW16696   2.938   2.545   5.188
 5437SOL    HW116697   2.858   2.484   5.191
 5437SOL    HW216698   3.019   2.492   5.164
 5438SOL     OW16699   3.089   3.432   4.517
 5438SOL    HW116700   3.110   3.506   4.452
 5438SOL    HW216701   3.157   3.432   4.590
 5439SOL     OW16702   2.321   3.014   4.465
 5439SOL    HW116703   2.250   2.987   4.530
 5439SOL    HW216704   2.295   2.986   4.372
 5440SOL     OW16705   3.133   3.659   4.315
 5440SOL    HW116706   3.177   3.723   4.251
 5440SOL    HW216707   3.083   3.711   4.385
 5441SOL     OW16708   2.894   2.411   3.740
 5441SOL    HW116709   2.853   2.493   3.701
 5441SOL    HW216710   2.958   2.437   3.813
 5442SOL     OW16711   1.940   2.418   5.110
 5442SOL    HW116712   2.032   2.417   5.069
 5442SOL    HW216713   1.934   2.492   5.177
 5443SOL     OW16714   2.423   2.084   4.871
 5443SOL    HW116715   2.461   2.000   4.908
 5443SOL    HW216716   2.335   2.103   4.915
 5444SOL     OW16717   2.728   2.316   4.366
 5444SOL    HW116718   2.696   2.388   4.304
 5444SOL    HW216719   2.752   2.235   4.313
 5445SOL     OW16720   2.879   1.901   4.477
 5445SOL    HW116721   2.807   1.906   4.408
 5445SOL    HW216722   2.855   1.832   4.546
 5446SOL     OW16723   3.291   3.035   4.591
 5446SOL    HW116724   3.236   2.951   4.584
 5446SOL    HW216725   3.317   3.064   4.499
 5447SOL     OW16726   3.328   2.452   4.716
 5447SOL    HW116727   3.298   2.357   4.723
 5447SOL    HW216728   3.401   2.468   4.782
 5448SOL     OW16729   3.719   2.695   4.101
 5448SOL    HW116730   3.761   2.631   4.165
 5448SOL    HW216731   3.681   2.644   4.023
 5449SOL     OW16732   2.350   3.247   3.898
 5449SOL    HW116733   2.263   3.232   3.945
 5449SOL    HW216734   2.333   3.273   3.803
 5450SOL     OW16735   3.526   3.142   4.381
 5450SOL    HW116736   3.625   3.150   4.395
 5450SOL    HW216737   3.481   3.226   4.412
 5451SOL     OW16738   3.252   2.437   3.802
 5451SOL    HW116739   3.198   2.416   3.883
 5451SOL    HW216740   3.343   2.396   3.811
 5452SOL     OW16741   2.389   2.118   4.052
 5452SOL    HW116742   2.416   2.059   3.977
 5452SOL    HW216743   2.389   2.213   4.021
 5453SOL     OW16744   3.616   3.085   5.312
 5453SOL    HW116745   3.707   3.046   5.299
 5453SOL    HW216746   3.624   3.181   5.336
 5454SOL     OW16747   2.926   3.209   5.064
 5454SOL    HW116748   2.846   3.186   5.119
 5454SOL    HW216749   3.009   3.183   5.113
 5455SOL     OW16750   3.454   3.491   5.349
 5455SOL    HW116751   3.481   3.525   5.259
 5455SOL    HW216752   3.533   3.453   5.395
 5456SOL     OW16753   2.973   3.057   4.824
 5456SOL    HW116754   2.933   3.101   4.905
 5456SOL    HW216755   2.932   3.094   4.741
 5457SOL     OW16756   3.500   2.961   4.803
 5457SOL    HW116757   3.505   3.042   4.862
 5457SOL    HW216758   3.414   2.963   4.752
 5458SOL     OW16759   2.777   1.951   5.126
 5458SOL    HW116760   2.802   1.931   5.031
 5458SOL    HW216761   2.849   2.007   5.168
 5459SOL     OW16762   2.842   2.978   5.443
 5459SOL    HW116763   2.743   2.984   5.453
 5459SOL    HW216764   2.865   2.898   5.387
 5460SOL     OW16765   2.567   2.912   4.092
 5460SOL    HW116766   2.553   2.919   4.191
 5460SOL    HW216767   2.651   2.861   4.074
 5461SOL     OW16768   2.272   2.675   4.975
 5461SOL    HW116769   2.358   2.687   5.025
 5461SOL    HW216770   2.230   2.588   5.002
 5462SOL     OW16771   3.136   2.248   4.986
 5462SOL    HW116772   3.157   2.322   5.050
 5462SOL    HW216773   3.047   2.265   4.943
 5463SOL     OW16774   1.926   3.426   5.055
 5463SOL    HW116775   1.880   3.508   5.021
 5463SOL    HW216776   2.024   3.445   5.064
 5464SOL     OW16777   2.229   2.962   4.225
 5464SOL    HW116778   2.222   3.045   4.169
 5464SOL    HW216779   2.233   2.882   4.165
 5465SOL     OW16780   2.428   2.399   4.589
 5465SOL    HW116781   2.440   2.465   4.515
 5465SOL    HW216782   2.474   2.433   4.672
 5466SOL     OW16783   3.114   3.210   4.112
 5466SOL    HW116784   3.164   3.287   4.152
 5466SOL    HW216785   3.019   3.212   4.144
 5467SOL     OW16786   3.134   3.307   4.866
 5467SOL    HW116787   3.181   3.320   4.953
 5467SOL    HW216788   3.068   3.233   4.875
 5468SOL     OW16789   3.444   2.501   4.196
 5468SOL    HW116790   3.413   2.562   4.269
 5468SOL    HW216791   3.494   2.553   4.127
 5469SOL     OW16792   2.216   3.372   5.053
 5469SOL    HW116793   2.195   3.328   4.966
 5469SOL    HW216794   2.313   3.398   5.056
 5470SOL     OW16795   2.264   2.613   5.322
 5470SOL    HW116796   2.332   2.668   5.275
 5470SOL    HW216797   2.304   2.525   5.349
 5471SOL     OW16798   3.449   2.641   5.394
 5471SOL    HW116799   3.357   2.679   5.389
 5471SOL    HW216800   3.509   2.688   5.329
 5472SOL     OW16801   2.875   1.967   5.494
 5472SOL    HW116802   2.881   2.052   5.442
 5472SOL    HW216803   2.907   1.891   5.437
 5473SOL     OW16804   2.366   1.912   5.464
 5473SOL    HW116805   2.324   1.855   5.394
 5473SOL    HW216806   2.300   1.981   5.496
 5474SOL     OW16807   2.435   2.732   4.753
 5474SOL    HW116808   2.479   2.821   4.744
 5474SOL    HW216809   2.372   2.732   4.830
 5475SOL     OW16810   3.222   2.724   4.769
 5475SOL    HW116811   3.147   2.724   4.703
 5475SOL    HW216812   3.259   2.632   4.778
 5476SOL     OW16813   3.071   2.387   3.999
 5476SOL    HW116814   3.084   2.303   4.053
 5476SOL    HW216815   3.042   2.461   4.059
 5477SOL     OW16816   1.899   3.172   5.006
 5477SOL    HW116817   1.952   3.123   5.074
 5477SOL    HW216818   1.921   3.270   5.011
 5478SOL     OW16819   2.594   2.496   4.788
 5478SOL    HW116820   2.653   2.470   4.712
 5478SOL    HW216821   2.566   2.592   4.777
 5479SOL     OW16822   3.590   2.797   5.578
 5479SOL    HW116823   3.544   2.790   5.489
 5479SOL    HW216824   3.528   2.841   5.644
 5480SOL     OW16825   2.169   1.925   4.342
 5480SOL    HW116826   2.158   2.019   4.375
 5480SOL    HW216827   2.164   1.862   4.419
 5481SOL     OW16828   3.484   2.229   4.098
 5481SOL    HW116829   3.486   2.153   4.162
 5481SOL    HW216830   3.436   2.306   4.138
 5482SOL     OW16831   2.885   2.628   4.690
 5482SOL    HW116832   2.900   2.649   4.786
 5482SOL    HW216833   2.855   2.533   4.681
 5483SOL     OW16834   2.842   3.435   5.424
 5483SOL    HW116835   2.822   3.479   5.336
 5483SOL    HW216836   2.881   3.344   5.408
 5484SOL     OW16837   3.721   3.380   5.329
 5484SOL    HW116838   3.735   3.407   5.234
 5484SOL    HW216839   3.804   3.402   5.382
 5485SOL     OW16840   2.212   2.760   5.528
 5485SOL    HW116841   2.288   2.804   5.576
 5485SOL    HW216842   2.247   2.713   5.446
 5486SOL     OW16843   3.402   2.136   3.849
 5486SOL    HW116844   3.341   2.061   3.872
 5486SOL    HW216845   3.424   2.188   3.932
 5487SOL     OW16846   3.165   2.700   3.766
 5487SOL    HW116847   3.199   2.607   3.781
 5487SOL    HW216848   3.183   2.727   3.671
 5488SOL     OW16849   2.930   3.195   4.573
 5488SOL    HW116850   2.937   3.111   4.518
 5488SOL    HW216851   2.992   3.264   4.537
 5489SOL     OW16852   2.181   2.672   4.673
 5489SOL    HW116853   2.274   2.708   4.678
 5489SOL    HW216854   2.175   2.587   4.725
 5490SOL     OW16855   2.201   2.371   4.730
 5490SOL    HW116856   2.149   2.288   4.713
 5490SOL    HW216857   2.278   2.376   4.666
 5491SOL     OW16858   3.000   2.242   5.402
 5491SOL    HW116859   2.955   2.305   5.466
 5491SOL    HW216860   3.093   2.273   5.385
 5492SOL     OW16861   3.022   2.069   5.201
 5492SOL    HW116862   3.022   2.133   5.278
 5492SOL    HW216863   3.050   2.117   5.118
 5493SOL     OW16864   1.870   3.188   3.924
 5493SOL    HW116865   1.777   3.209   3.893
 5493SOL    HW216866   1.880   3.089   3.937
 5494SOL     OW16867   1.950   3.663   4.651
 5494SOL    HW116868   1.908   3.577   4.624
 5494SOL    HW216869   2.044   3.666   4.617
 5495SOL     OW16870   2.366   3.430   4.634
 5495SOL    HW116871   2.432   3.504   4.643
 5495SOL    HW216872   2.410   3.351   4.592
 5496SOL     OW16873   2.864   2.658   4.962
 5496SOL    HW116874   2.905   2.626   5.048
 5496SOL    HW216875   2.768   2.631   4.959
 5497SOL     OW16876   1.902   2.406   4.838
 5497SOL    HW116877   1.987   2.373   4.797
 5497SOL    HW216878   1.915   2.421   4.936
 5498SOL     OW16879   2.051   2.382   5.446
 5498SOL    HW116880   2.110   2.342   5.376
 5498SOL    HW216881   1.993   2.453   5.405
 5499SOL     OW16882   3.231   2.812   5.384
 5499SOL    HW116883   3.270   2.901   5.404
 5499SOL    HW216884   3.241   2.792   5.287
 5500SOL     OW16885   2.677   2.434   4.049
 5500SOL    HW116886   2.684   2.345   4.003
 5500SOL    HW216887   2.583   2.468   4.041
 5501SOL     OW16888   3.519   2.466   4.930
 5501SOL    HW116889   3.481   2.397   4.992
 5501SOL    HW216890   3.601   2.430   4.886
 5502SOL     OW16891   2.114   3.426   5.468
 5502SOL    HW116892   2.084   3.483   5.544
 5502SOL    HW216893   2.107   3.329   5.494
 5503SOL     OW16894   2.533   2.326   4.993
 5503SOL    HW116895   2.499   2.237   4.963
 5503SOL    HW216896   2.559   2.380   4.913
 5504SOL     OW16897   2.792   3.540   5.189
 5504SOL    HW116898   2.768   3.522   5.094
 5504SOL    HW216899   2.822   3.634   5.199
 5505SOL     OW16900   2.335   2.362   3.915
 5505SOL    HW116901   2.396   2.442   3.919
 5505SOL    HW216902   2.240   2.393   3.922
 5506SOL     OW16903   2.021   2.999   5.190
 5506SOL    HW116904   2.043   2.938   5.266
 5506SOL    HW216905   2.031   2.950   5.104
 5507SOL     OW16906   3.209   2.921   4.958
 5507SOL    HW116907   3.233   2.858   4.884
 5507SOL    HW216908   3.119   2.961   4.940
 5508SOL     OW16909   3.164   2.717   4.033
 5508SOL    HW116910   3.078   2.686   4.075
 5508SOL    HW216911   3.160   2.703   3.934
 5509SOL     OW16912   3.621   3.609   4.878
 5509SOL    HW116913   3.682   3.639   4.805
 5509SOL    HW216914   3.583   3.520   4.856
 5510SOL     OW16915   3.114   3.593   4.852
 5510SOL    HW116916   3.198   3.598   4.798
 5510SOL    HW216917   3.091   3.497   4.870
 5511SOL     OW16918   1.945   3.120   4.746
 5511SOL    HW116919   1.940   3.119   4.846
 5511SOL    HW216920   1.862   3.079   4.708
 5512SOL     OW16921   2.550   3.524   5.440
 5512SOL    HW116922   2.494   3.605   5.449
 5512SOL    HW216923   2.602   3.528   5.354
 5513SOL     OW16924   3.588   1.997   4.247
 5513SOL    HW116925   3.661   1.980   4.180
 5513SOL    HW216926   3.557   1.910   4.285
 5514SOL     OW16927   3.250   3.435   4.201
 5514SOL    HW116928   3.317   3.447   4.127
 5514SOL    HW216929   3.210   3.524   4.224
 5515SOL     OW16930   1.992   3.656   5.575
 5515SOL    HW116931   1.951   3.582   5.628
 5515SOL    HW216932   2.056   3.707   5.633
 5516SOL     OW16933   3.142   2.789   4.396
 5516SOL    HW116934   3.202   2.708   4.398
 5516SOL    HW216935   3.182   2.858   4.336
 5517SOL     OW16936   2.692   3.135   5.146
 5517SOL    HW116937   2.687   3.168   5.241
 5517SOL    HW216938   2.606   3.154   5.100
 5518SOL     OW16939   2.534   3.478   3.878
 5518SOL    HW116940   2.543   3.488   3.779
 5518SOL    HW216941   2.494   3.389   3.899
 5519SOL     OW16942   3.512   3.582   5.118
 5519SOL    HW116943   3.565   3.592   5.034
 5519SOL    HW216944   3.485   3.672   5.152
 5520SOL     OW16945   3.703   2.037   4.687
 5520SOL    HW116946   3.742   1.952   4.651
 5520SOL    HW216947   3.605   2.039   4.668
 5521SOL     OW16948   3.056   3.474   3.755
 5521SOL    HW116949   3.062   3.381   3.792
 5521SOL    HW216950   2.997   3.474   3.675
 5522SOL     OW16951   2.684   2.864   5.096
 5522SOL    HW116952   2.724   2.863   5.004
 5522SOL    HW216953   2.694   2.956   5.136
 5523SOL     OW16954   2.778   2.772   4.015
 5523SOL    HW116955   2.841   2.810   3.947
 5523SOL    HW216956   2.818   2.689   4.054
 5524SOL     OW16957   3.366   3.469   3.768
 5524SOL    HW116958   3.274   3.506   3.775
 5524SOL    HW216959   3.404   3.489   3.678
 5525SOL     OW16960   2.234   3.150   5.214
 5525SOL    HW116961   2.221   3.243   5.180
 5525SOL    HW216962   2.150   3.098   5.201
 5526SOL     OW16963   3.476   3.154   5.013
 5526SOL    HW116964   3.536   3.157   5.093
 5526SOL    HW216965   3.401   3.218   5.026
 5527SOL     OW16966   2.901   2.960   4.420
 5527SOL    HW116967   2.831   2.913   4.474
 5527SOL    HW216968   2.960   2.892   4.377
 5528SOL     OW16969   2.876   2.098   4.695
 5528SOL    HW116970   2.868   2.062   4.602
 5528SOL    HW216971   2.874   2.022   4.760
 5529SOL     OW16972   2.452   3.349   4.215
 5529SOL    HW116973   2.494   3.291   4.145
 5529SOL    HW216974   2.408   3.428   4.171
 5530SOL     OW16975   3.571   2.247   5.105
 5530SOL    HW116976   3.644   2.316   5.109
 5530SOL    HW216977   3.599   2.172   5.046
 5531SOL     OW16978   2.117   3.210   4.014
 5531SOL    HW116979   2.021   3.211   3.987
 5531SOL    HW216980   2.129   3.263   4.098
 5532SOL     OW16981   1.967   2.875   5.450
 5532SOL    HW116982   1.890   2.842   5.504
 5532SOL    HW216983   2.052   2.845   5.492
 5533SOL     OW16984   2.534   2.065   5.213
 5533SOL    HW116985   2.624   2.049   5.173
 5533SOL    HW216986   2.542   2.070   5.312
 5534SOL     OW16987   1.937   2.207   3.757
 5534SOL    HW116988   1.845   2.179   3.728
 5534SOL    HW216989   1.968   2.284   3.701
 5535SOL     OW16990   3.302   2.718   5.122
 5535SOL    HW116991   3.245   2.770   5.059
 5535SOL    HW216992   3.398   2.730   5.098
 5536SOL     OW16993   3.045   3.197   3.843
 5536SOL    HW116994   2.946   3.186   3.845
 5536SOL    HW216995   3.079   3.212   3.936
 5537SOL     OW16996   2.475   2.704   5.155
 5537SOL    HW116997   2.531   2.785   5.138
 5537SOL    HW216998   2.534   2.624   5.158
 5538SOL     OW16999   3.355   3.629   4.683
 5538SOL    HW117000   3.388   3.693   4.614
 5538SOL    HW217001   3.421   3.623   4.758
 5539SOL     OW17002   2.578   2.427   5.432
 5539SOL    HW117003   2.597   2.492   5.506
 5539SOL    HW217004   2.638   2.347   5.441
 5540SOL     OW17005   3.312   3.082   5.357
 5540SOL    HW117006   3.303   3.072   5.456
 5540SOL    HW217007   3.408   3.075   5.331
 5541SOL     OW17008   2.252   3.603   5.284
 5541SOL    HW117009   2.161   3.644   5.282
 5541SOL    HW217010   2.245   3.509   5.316
 5542SOL     OW17011   3.536   2.745   4.978
 5542SOL    HW117012   3.509   2.656   4.941
 5542SOL    HW217013   3.537   2.813   4.905
 5543SOL     OW17014   3.087   2.187   4.173
 5543SOL    HW117015   3.152   2.113   4.162
 5543SOL    HW217016   3.107   2.237   4.257
 5544SOL     OW17017   2.456   2.607   4.376
 5544SOL    HW117018   2.506   2.692   4.357
 5544SOL    HW217019   2.368   2.609   4.328
 5545SOL     OW17020   3.639   2.204   5.366
 5545SOL    HW117021   3.622   2.235   5.272
 5545SOL    HW217022   3.555   2.167   5.404
 5546SOL     OW17023   3.592   2.796   5.241
 5546SOL    HW117024   3.630   2.887   5.256
 5546SOL    HW217025   3.584   2.779   5.142
 5547SOL     OW17026   2.721   3.236   3.740
 5547SOL    HW117027   2.675   3.251   3.828
 5547SOL    HW217028   2.765   3.321   3.710
 5548SOL     OW17029   2.523   3.652   4.677
 5548SOL    HW117030   2.477   3.740   4.664
 5548SOL    HW217031   2.622   3.664   4.670
 5549SOL     OW17032   2.721   2.818   4.585
 5549SOL    HW117033   2.775   2.749   4.633
 5549SOL    HW217034   2.689   2.887   4.651
 5550SOL     OW17035   2.945   2.846   3.811
 5550SOL    HW117036   2.922   2.899   3.729
 5550SOL    HW217037   3.026   2.790   3.792
 5551SOL     OW17038   3.723   3.431   4.575
 5551SOL    HW117039   3.652   3.419   4.505
 5551SOL    HW217040   3.724   3.352   4.635
 5552SOL     OW17041   2.083   3.176   5.568
 5552SOL    HW117042   2.018   3.103   5.547
 5552SOL    HW217043   2.087   3.190   5.666
 5553SOL     OW17044   1.941   3.102   4.377
 5553SOL    HW117045   1.940   3.055   4.465
 5553SOL    HW217046   2.023   3.074   4.326
 5554SOL     OW17047   2.534   3.253   5.348
 5554SOL    HW117048   2.456   3.203   5.386
 5554SOL    HW217049   2.531   3.348   5.379
 5555SOL     OW17050   3.686   2.054   4.951
 5555SOL    HW117051   3.682   1.964   4.995
 5555SOL    HW217052   3.689   2.043   4.852
 5556SOL     OW17053   2.290   2.286   4.244
 5556SOL    HW117054   2.320   2.214   4.182
 5556SOL    HW217055   2.251   2.246   4.327
 5557SOL     OW17056   3.567   3.349   4.828
 5557SOL    HW117057   3.474   3.324   4.801
 5557SOL    HW217058   3.593   3.299   4.910
 5558SOL     OW17059   2.179   2.409   5.004
 5558SOL    HW117060   2.217   2.350   5.076
 5558SOL    HW217061   2.219   2.383   4.916
 5559SOL     OW17062   2.674   3.448   4.411
 5559SOL    HW117063   2.706   3.458   4.317
 5559SOL    HW217064   2.595   3.386   4.413
 5560SOL     OW17065   3.286   2.076   4.836
 5560SOL    HW117066   3.338   2.011   4.891
 5560SOL    HW217067   3.237   2.139   4.897
 5561SOL     OW17068   2.863   1.896   4.878
 5561SOL    HW117069   2.800   1.824   4.847
 5561SOL    HW217070   2.956   1.860   4.878
 5562SOL     OW17071   2.632   3.192   4.025
 5562SOL    HW117072   2.586   3.105   4.042
 5562SOL    HW217073   2.723   3.189   4.066
 5563SOL     OW17074   2.480   3.429   5.008
 5563SOL    HW117075   2.475   3.511   5.065
 5563SOL    HW217076   2.569   3.426   4.963
 5564SOL     OW17077   3.214   1.914   3.892
 5564SOL    HW117078   3.249   1.873   3.808
 5564SOL    HW217079   3.124   1.876   3.912
 5565SOL     OW17080   3.162   2.315   4.415
 5565SOL    HW117081   3.103   2.395   4.419
 5565SOL    HW217082   3.177   2.280   4.508
 5566SOL     OW17083   3.455   2.083   4.606
 5566SOL    HW117084   3.371   2.082   4.660
 5566SOL    HW217085   3.457   2.166   4.550
 5567SOL     OW17086   1.901   2.939   4.024
 5567SOL    HW117087   2.000   2.928   4.015
 5567SOL    HW217088   1.861   2.853   4.056
 5568SOL     OW17089   2.737   3.508   4.061
 5568SOL    HW117090   2.660   3.473   4.007
 5568SOL    HW217091   2.705   3.579   4.123
 5569SOL     OW17092   2.092   2.490   5.699
 5569SOL    HW117093   1.999   2.488   5.736
 5569SOL    HW217094   2.093   2.451   5.607
 5570SOL     OW17095   1.881   2.230   6.233
 5570SOL    HW117096   1.799   2.273   6.272
 5570SOL    HW217097   1.853   2.157   6.170
 5571SOL     OW17098   2.431   3.137   6.751
 5571SOL    HW117099   2.338   3.130   6.714
 5571SOL    HW217100   2.442   3.226   6.795
 5572SOL     OW17101   3.417   3.373   6.289
 5572SOL    HW117102   3.360   3.357   6.370
 5572SOL    HW217103   3.358   3.383   6.209
 5573SOL     OW17104   2.997   2.565   6.303
 5573SOL    HW117105   3.054   2.643   6.278
 5573SOL    HW217106   2.937   2.591   6.379
 5574SOL     OW17107   3.617   2.469   5.817
 5574SOL    HW117108   3.605   2.456   5.718
 5574SOL    HW217109   3.587   2.388   5.866
 5575SOL     OW17110   2.630   3.006   6.609
 5575SOL    HW117111   2.552   3.023   6.669
 5575SOL    HW217112   2.664   3.093   6.573
 5576SOL     OW17113   2.712   2.660   7.409
 5576SOL    HW117114   2.708   2.736   7.474
 5576SOL    HW217115   2.734   2.696   7.318
 5577SOL     OW17116   2.547   2.874   6.251
 5577SOL    HW117117   2.616   2.858   6.321
 5577SOL    HW217118   2.474   2.931   6.289
 5578SOL     OW17119   2.548   3.023   7.389
 5578SOL    HW117120   2.608   3.102   7.403
 5578SOL    HW217121   2.462   3.054   7.348
 5579SOL     OW17122   2.197   3.297   6.647
 5579SOL    HW117123   2.119   3.266   6.594
 5579SOL    HW217124   2.255   3.355   6.590
 5580SOL     OW17125   3.322   3.367   6.925
 5580SOL    HW117126   3.346   3.461   6.951
 5580SOL    HW217127   3.306   3.313   7.007
 5581SOL     OW17128   3.465   2.309   6.323
 5581SOL    HW117129   3.391   2.355   6.273
 5581SOL    HW217130   3.516   2.377   6.376
 5582SOL     OW17131   2.093   3.575   6.069
 5582SOL    HW117132   2.127   3.652   6.123
 5582SOL    HW217133   2.137   3.575   5.979
 5583SOL     OW17134   2.989   3.203   7.276
 5583SOL    HW117135   3.036   3.203   7.364
 5583SOL    HW217136   2.941   3.116   7.265
 5584SOL     OW17137   2.092   3.296   6.124
 5584SOL    HW117138   2.066   3.392   6.124
 5584SOL    HW217139   2.021   3.242   6.169
 5585SOL     OW17140   2.102   2.953   6.472
 5585SOL    HW117141   2.116   2.869   6.524
 5585SOL    HW217142   2.047   3.017   6.527
 5586SOL     OW17143   2.482   3.648   7.025
 5586SOL    HW117144   2.390   3.631   7.060
 5586SOL    HW217145   2.510   3.740   7.051
 5587SOL     OW17146   2.468   2.826   5.709
 5587SOL    HW117147   2.475   2.910   5.655
 5587SOL    HW217148   2.514   2.839   5.797
 5588SOL     OW17149   3.456   1.976   7.066
 5588SOL    HW117150   3.438   2.043   6.994
 5588SOL    HW217151   3.453   2.022   7.155
 5589SOL     OW17152   1.984   2.505   6.149
 5589SOL    HW117153   1.939   2.417   6.166
 5589SOL    HW217154   1.983   2.559   6.233
 5590SOL     OW17155   3.704   3.629   5.945
 5590SOL    HW117156   3.758   3.600   6.025
 5590SOL    HW217157   3.734   3.719   5.916
 5591SOL     OW17158   1.889   3.458   5.703
 5591SOL    HW117159   1.870   3.362   5.724
 5591SOL    HW217160   1.856   3.516   5.778
 5592SOL     OW17161   3.551   2.784   6.198
 5592SOL    HW117162   3.646   2.755   6.206
 5592SOL    HW217163   3.543   2.849   6.123
 5593SOL     OW17164   3.503   2.970   6.018
 5593SOL    HW117165   3.589   2.972   5.966
 5593SOL    HW217166   3.517   3.017   6.106
 5594SOL     OW17167   2.475   3.227   6.312
 5594SOL    HW117168   2.426   3.140   6.321
 5594SOL    HW217169   2.452   3.270   6.225
 5595SOL     OW17170   3.155   3.090   7.009
 5595SOL    HW117171   3.192   3.017   6.951
 5595SOL    HW217172   3.207   3.095   7.094
 5596SOL     OW17173   2.671   1.866   6.088
 5596SOL    HW117174   2.711   1.957   6.079
 5596SOL    HW217175   2.571   1.874   6.094
 5597SOL     OW17176   2.059   2.838   6.850
 5597SOL    HW117177   2.148   2.793   6.836
 5597SOL    HW217178   1.986   2.773   6.831
 5598SOL     OW17179   3.387   2.861   5.776
 5598SOL    HW117180   3.324   2.785   5.789
 5598SOL    HW217181   3.435   2.879   5.862
 5599SOL     OW17182   3.049   3.654   7.202
 5599SOL    HW117183   3.073   3.714   7.126
 5599SOL    HW217184   3.056   3.559   7.172
 5600SOL     OW17185   2.179   2.113   7.387
 5600SOL    HW117186   2.250   2.184   7.393
 5600SOL    HW217187   2.091   2.152   7.415
 5601SOL     OW17188   3.328   3.279   6.539
 5601SOL    HW117189   3.269   3.285   6.619
 5601SOL    HW217190   3.313   3.191   6.493
 5602SOL     OW17191   3.529   3.576   6.158
 5602SOL    HW117192   3.488   3.553   6.070
 5602SOL    HW217193   3.511   3.502   6.223
 5603SOL     OW17194   2.460   2.591   5.856
 5603SOL    HW117195   2.484   2.660   5.788
 5603SOL    HW217196   2.382   2.624   5.910
 5604SOL     OW17197   3.143   2.207   6.530
 5604SOL    HW117198   3.057   2.157   6.517
 5604SOL    HW217199   3.205   2.153   6.586
 5605SOL     OW17200   3.438   3.524   5.893
 5605SOL    HW117201   3.527   3.570   5.896
 5605SOL    HW217202   3.417   3.500   5.798
 5606SOL     OW17203   2.669   2.467   7.051
 5606SOL    HW117204   2.622   2.464   7.140
 5606SOL    HW217205   2.618   2.412   6.985
 5607SOL     OW17206   3.256   2.331   7.260
 5607SOL    HW117207   3.236   2.374   7.348
 5607SOL    HW217208   3.334   2.269   7.269
 5608SOL     OW17209   2.835   2.752   7.158
 5608SOL    HW117210   2.881   2.668   7.129
 5608SOL    HW217211   2.779   2.786   7.083
 5609SOL     OW17212   2.853   2.272   6.828
 5609SOL    HW117213   2.776   2.306   6.882
 5609SOL    HW217214   2.819   2.221   6.749
 5610SOL     OW17215   2.903   2.563   6.015
 5610SOL    HW117216   2.929   2.559   6.111
 5610SOL    HW217217   2.818   2.512   6.001
 5611SOL     OW17218   1.938   2.673   6.375
 5611SOL    HW117219   2.037   2.661   6.384
 5611SOL    HW217220   1.914   2.768   6.396
 5612SOL     OW17221   1.992   3.683   7.157
 5612SOL    HW117222   1.982   3.668   7.256
 5612SOL    HW217223   1.906   3.719   7.121
 5613SOL     OW17224   2.727   2.210   5.781
 5613SOL    HW117225   2.786   2.273   5.732
 5613SOL    HW217226   2.746   2.116   5.752
 5614SOL     OW17227   3.581   2.447   7.417
 5614SOL    HW117228   3.555   2.536   7.381
 5614SOL    HW217229   3.579   2.379   7.344
 5615SOL     OW17230   3.224   3.006   6.131
 5615SOL    HW117231   3.307   2.977   6.083
 5615SOL    HW217232   3.175   3.073   6.075
 5616SOL     OW17233   2.870   3.318   6.063
 5616SOL    HW117234   2.824   3.390   6.011
 5616SOL    HW217235   2.866   3.338   6.161
 5617SOL     OW17236   2.213   3.663   6.439
 5617SOL    HW117237   2.263   3.577   6.445
 5617SOL    HW217238   2.278   3.740   6.436
 5618SOL     OW17239   3.657   2.928   6.459
 5618SOL    HW117240   3.595   2.913   6.383
 5618SOL    HW217241   3.605   2.939   6.544
 5619SOL     OW17242   3.089   3.412   7.092
 5619SOL    HW117243   3.095   3.335   7.156
 5619SOL    HW217244   3.037   3.386   7.012
 5620SOL     OW17245   2.183   2.805   5.828
 5620SOL    HW117246   2.265   2.844   5.786
 5620SOL    HW217247   2.156   2.723   5.779
 5621SOL     OW17248   3.320   2.597   6.314
 5621SOL    HW117249   3.315   2.532   6.389
 5621SOL    HW217250   3.400   2.656   6.327
 5622SOL     OW17251   2.323   3.128   7.313
 5622SOL    HW117252   2.273   3.129   7.227
 5622SOL    HW217253   2.260   3.110   7.389
 5623SOL     OW17254   2.973   3.638   5.823
 5623SOL    HW117255   2.913   3.576   5.873
 5623SOL    HW217256   3.004   3.594   5.738
 5624SOL     OW17257   3.494   3.239   5.667
 5624SOL    HW117258   3.462   3.333   5.657
 5624SOL    HW217259   3.418   3.176   5.655
 5625SOL     OW17260   2.326   3.605   5.909
 5625SOL    HW117261   2.359   3.644   5.995
 5625SOL    HW217262   2.402   3.598   5.844
 5626SOL     OW17263   3.262   1.969   6.012
 5626SOL    HW117264   3.238   1.932   5.922
 5626SOL    HW217265   3.361   1.985   6.016
 5627SOL     OW17266   2.111   3.647   6.827
 5627SOL    HW117267   2.168   3.582   6.877
 5627SOL    HW217268   2.095   3.614   6.734
 5628SOL     OW17269   2.802   3.560   6.490
 5628SOL    HW117270   2.882   3.503   6.511
 5628SOL    HW217271   2.753   3.520   6.413
 5629SOL     OW17272   2.244   2.562   6.066
 5629SOL    HW117273   2.289   2.472   6.063
 5629SOL    HW217274   2.150   2.551   6.099
 5630SOL     OW17275   3.409   2.084   7.315
 5630SOL    HW117276   3.404   2.121   7.407
 5630SOL    HW217277   3.337   2.015   7.303
 5631SOL     OW17278   2.476   1.984   5.703
 5631SOL    HW117279   2.574   1.962   5.710
 5631SOL    HW217280   2.445   1.967   5.610
 5632SOL     OW17281   2.750   3.376   6.781
 5632SOL    HW117282   2.727   3.351   6.687
 5632SOL    HW217283   2.811   3.307   6.820
 5633SOL     OW17284   3.213   2.452   7.019
 5633SOL    HW117285   3.241   2.409   7.104
 5633SOL    HW217286   3.238   2.548   7.020
 5634SOL     OW17287   2.665   3.264   6.510
 5634SOL    HW117288   2.755   3.278   6.468
 5634SOL    HW217289   2.594   3.266   6.439
 5635SOL     OW17290   2.784   2.365   6.485
 5635SOL    HW117291   2.759   2.356   6.389
 5635SOL    HW217292   2.832   2.283   6.516
 5636SOL     OW17293   2.401   1.926   6.098
 5636SOL    HW117294   2.320   1.927   6.156
 5636SOL    HW217295   2.404   2.009   6.043
 5637SOL     OW17296   3.296   3.050   5.627
 5637SOL    HW117297   3.328   2.974   5.684
 5637SOL    HW217298   3.204   3.077   5.657
 5638SOL     OW17299   2.797   2.098   6.066
 5638SOL    HW117300   2.749   2.139   5.988
 5638SOL    HW217301   2.896   2.096   6.047
 5639SOL     OW17302   2.938   2.545   7.050
 5639SOL    HW117303   2.858   2.484   7.053
 5639SOL    HW217304   3.019   2.492   7.026
 5640SOL     OW17305   3.089   3.432   6.379
 5640SOL    HW117306   3.110   3.506   6.314
 5640SOL    HW217307   3.157   3.432   6.452
 5641SOL     OW17308   2.321   3.014   6.327
 5641SOL    HW117309   2.250   2.987   6.392
 5641SOL    HW217310   2.295   2.986   6.234
 5642SOL     OW17311   3.133   3.659   6.177
 5642SOL    HW117312   3.177   3.723   6.113
 5642SOL    HW217313   3.083   3.711   6.247
 5643SOL     OW17314   2.894   2.411   5.602
 5643SOL    HW117315   2.853   2.493   5.563
 5643SOL    HW217316   2.958   2.437   5.675
 5644SOL     OW17317   2.728   2.316   6.228
 5644SOL    HW117318   2.696   2.388   6.166
 5644SOL    HW217319   2.752   2.235   6.175
 5645SOL     OW17320   2.879   1.901   6.339
 5645SOL    HW117321   2.807   1.906   6.270
 5645SOL    HW217322   2.855   1.832   6.408
 5646SOL     OW17323   3.291   3.035   6.453
 5646SOL    HW117324   3.236   2.951   6.446
 5646SOL    HW217325   3.317   3.064   6.361
 5647SOL     OW17326   3.328   2.452   6.578
 5647SOL    HW117327   3.298   2.357   6.585
 5647SOL    HW217328   3.401   2.468   6.644
 5648SOL     OW17329   3.719   2.695   5.963
 5648SOL    HW117330   3.761   2.631   6.027
 5648SOL    HW217331   3.681   2.644   5.885
 5649SOL     OW17332   2.350   3.247   5.760
 5649SOL    HW117333   2.263   3.232   5.807
 5649SOL    HW217334   2.333   3.273   5.665
 5650SOL     OW17335   3.526   3.142   6.243
 5650SOL    HW117336   3.625   3.150   6.257
 5650SOL    HW217337   3.481   3.226   6.274
 5651SOL     OW17338   3.252   2.437   5.664
 5651SOL    HW117339   3.198   2.416   5.745
 5651SOL    HW217340   3.343   2.396   5.673
 5652SOL     OW17341   2.389   2.118   5.914
 5652SOL    HW117342   2.416   2.059   5.839
 5652SOL    HW217343   2.389   2.213   5.883
 5653SOL     OW17344   3.616   3.085   7.174
 5653SOL    HW117345   3.707   3.046   7.161
 5653SOL    HW217346   3.624   3.181   7.198
 5654SOL     OW17347   2.926   3.209   6.926
 5654SOL    HW117348   2.846   3.186   6.981
 5654SOL    HW217349   3.009   3.183   6.975
 5655SOL     OW17350   3.454   3.491   7.211
 5655SOL    HW117351   3.481   3.525   7.121
 5655SOL    HW217352   3.533   3.453   7.257
 5656SOL     OW17353   2.973   3.057   6.686
 5656SOL    HW117354   2.933   3.101   6.767
 5656SOL    HW217355   2.932   3.094   6.603
 5657SOL     OW17356   3.500   2.961   6.665
 5657SOL    HW117357   3.505   3.042   6.724
 5657SOL    HW217358   3.414   2.963   6.614
 5658SOL     OW17359   2.777   1.951   6.988
 5658SOL    HW117360   2.802   1.931   6.893
 5658SOL    HW217361   2.849   2.007   7.030
 5659SOL     OW17362   2.842   2.978   7.305
 5659SOL    HW117363   2.743   2.984   7.315
 5659SOL    HW217364   2.865   2.898   7.249
 5660SOL     OW17365   2.567   2.912   5.954
 5660SOL    HW117366   2.553   2.919   6.053
 5660SOL    HW217367   2.651   2.861   5.936
 5661SOL     OW17368   3.136   2.248   6.848
 5661SOL    HW117369   3.157   2.322   6.912
 5661SOL    HW217370   3.047   2.265   6.805
 5662SOL     OW17371   1.926   3.426   6.917
 5662SOL    HW117372   1.880   3.508   6.883
 5662SOL    HW217373   2.024   3.445   6.926
 5663SOL     OW17374   2.229   2.962   6.087
 5663SOL    HW117375   2.222   3.045   6.031
 5663SOL    HW217376   2.233   2.882   6.027
 5664SOL     OW17377   2.428   2.399   6.451
 5664SOL    HW117378   2.440   2.465   6.377
 5664SOL    HW217379   2.474   2.433   6.534
 5665SOL     OW17380   3.114   3.210   5.974
 5665SOL    HW117381   3.164   3.287   6.014
 5665SOL    HW217382   3.019   3.212   6.006
 5666SOL     OW17383   3.134   3.307   6.728
 5666SOL    HW117384   3.181   3.320   6.815
 5666SOL    HW217385   3.068   3.233   6.737
 5667SOL     OW17386   3.444   2.501   6.058
 5667SOL    HW117387   3.413   2.562   6.131
 5667SOL    HW217388   3.494   2.553   5.989
 5668SOL     OW17389   2.216   3.372   6.915
 5668SOL    HW117390   2.195   3.328   6.828
 5668SOL    HW217391   2.313   3.398   6.918
 5669SOL     OW17392   2.264   2.613   7.184
 5669SOL    HW117393   2.332   2.668   7.137
 5669SOL    HW217394   2.304   2.525   7.211
 5670SOL     OW17395   3.449   2.641   7.256
 5670SOL    HW117396   3.357   2.679   7.251
 5670SOL    HW217397   3.509   2.688   7.191
 5671SOL     OW17398   2.875   1.967   7.356
 5671SOL    HW117399   2.881   2.052   7.304
 5671SOL    HW217400   2.907   1.891   7.299
 5672SOL     OW17401   3.222   2.724   6.631
 5672SOL    HW117402   3.147   2.724   6.565
 5672SOL    HW217403   3.259   2.632   6.640
 5673SOL     OW17404   3.071   2.387   5.861
 5673SOL    HW117405   3.084   2.303   5.915
 5673SOL    HW217406   3.042   2.461   5.921
 5674SOL     OW17407   2.169   2.075   6.817
 5674SOL    HW117408   2.146   2.112   6.907
 5674SOL    HW217409   2.139   1.980   6.811
 5675SOL     OW17410   1.899   3.172   6.868
 5675SOL    HW117411   1.952   3.123   6.936
 5675SOL    HW217412   1.921   3.270   6.873
 5676SOL     OW17413   3.590   2.797   7.440
 5676SOL    HW117414   3.544   2.790   7.351
 5676SOL    HW217415   3.528   2.841   7.506
 5677SOL     OW17416   3.484   2.229   5.960
 5677SOL    HW117417   3.486   2.153   6.024
 5677SOL    HW217418   3.436   2.306   6.000
 5678SOL     OW17419   2.885   2.628   6.552
 5678SOL    HW117420   2.900   2.649   6.648
 5678SOL    HW217421   2.855   2.533   6.543
 5679SOL     OW17422   2.842   3.435   7.286
 5679SOL    HW117423   2.822   3.479   7.198
 5679SOL    HW217424   2.881   3.344   7.270
 5680SOL     OW17425   3.721   3.380   7.191
 5680SOL    HW117426   3.735   3.407   7.096
 5680SOL    HW217427   3.804   3.402   7.244
 5681SOL     OW17428   2.212   2.760   7.390
 5681SOL    HW117429   2.288   2.804   7.438
 5681SOL    HW217430   2.247   2.713   7.308
 5682SOL     OW17431   3.402   2.136   5.711
 5682SOL    HW117432   3.341   2.061   5.734
 5682SOL    HW217433   3.424   2.188   5.794
 5683SOL     OW17434   3.165   2.700   5.628
 5683SOL    HW117435   3.199   2.607   5.643
 5683SOL    HW217436   3.183   2.727   5.533
 5684SOL     OW17437   2.930   3.195   6.435
 5684SOL    HW117438   2.937   3.111   6.380
 5684SOL    HW217439   2.992   3.264   6.399
 5685SOL     OW17440   3.000   2.242   7.264
 5685SOL    HW117441   2.955   2.305   7.328
 5685SOL    HW217442   3.093   2.273   7.247
 5686SOL     OW17443   3.022   2.069   7.063
 5686SOL    HW117444   3.022   2.133   7.140
 5686SOL    HW217445   3.050   2.117   6.980
 5687SOL     OW17446   1.870   3.188   5.786
 5687SOL    HW117447   1.777   3.209   5.755
 5687SOL    HW217448   1.880   3.089   5.799
 5688SOL     OW17449   1.950   3.663   6.513
 5688SOL    HW117450   1.908   3.577   6.486
 5688SOL    HW217451   2.044   3.666   6.479
 5689SOL     OW17452   2.366   3.430   6.496
 5689SOL    HW117453   2.432   3.504   6.505
 5689SOL    HW217454   2.410   3.351   6.454
 5690SOL     OW17455   2.864   2.658   6.824
 5690SOL    HW117456   2.905   2.626   6.910
 5690SOL    HW217457   2.768   2.631   6.821
 5691SOL     OW17458   3.231   2.812   7.246
 5691SOL    HW117459   3.270   2.901   7.266
 5691SOL    HW217460   3.241   2.792   7.149
 5692SOL     OW17461   2.677   2.434   5.911
 5692SOL    HW117462   2.684   2.345   5.865
 5692SOL    HW217463   2.583   2.468   5.903
 5693SOL     OW17464   3.519   2.466   6.792
 5693SOL    HW117465   3.481   2.397   6.854
 5693SOL    HW217466   3.601   2.430   6.748
 5694SOL     OW17467   2.114   3.426   7.330
 5694SOL    HW117468   2.084   3.483   7.406
 5694SOL    HW217469   2.107   3.329   7.356
 5695SOL     OW17470   2.792   3.540   7.051
 5695SOL    HW117471   2.768   3.522   6.956
 5695SOL    HW217472   2.822   3.634   7.061
 5696SOL     OW17473   2.335   2.362   5.777
 5696SOL    HW117474   2.396   2.442   5.781
 5696SOL    HW217475   2.240   2.393   5.784
 5697SOL     OW17476   2.021   2.999   7.052
 5697SOL    HW117477   2.043   2.938   7.128
 5697SOL    HW217478   2.031   2.950   6.966
 5698SOL     OW17479   3.209   2.921   6.820
 5698SOL    HW117480   3.233   2.858   6.746
 5698SOL    HW217481   3.119   2.961   6.802
 5699SOL     OW17482   3.164   2.717   5.895
 5699SOL    HW117483   3.078   2.686   5.937
 5699SOL    HW217484   3.160   2.703   5.796
 5700SOL     OW17485   3.621   3.609   6.740
 5700SOL    HW117486   3.682   3.639   6.667
 5700SOL    HW217487   3.583   3.520   6.718
 5701SOL     OW17488   3.114   3.593   6.714
 5701SOL    HW117489   3.198   3.598   6.660
 5701SOL    HW217490   3.091   3.497   6.732
 5702SOL     OW17491   1.945   3.120   6.608
 5702SOL    HW117492   1.940   3.119   6.708
 5702SOL    HW217493   1.862   3.079   6.570
 5703SOL     OW17494   2.550   3.524   7.302
 5703SOL    HW117495   2.494   3.605   7.311
 5703SOL    HW217496   2.602   3.528   7.216
 5704SOL     OW17497   3.588   1.997   6.109
 5704SOL    HW117498   3.661   1.980   6.042
 5704SOL    HW217499   3.557   1.910   6.147
 5705SOL     OW17500   3.250   3.435   6.063
 5705SOL    HW117501   3.317   3.447   5.989
 5705SOL    HW217502   3.210   3.524   6.086
 5706SOL     OW17503   1.992   3.656   7.437
 5706SOL    HW117504   1.951   3.582   7.490
 5706SOL    HW217505   2.056   3.707   7.495
 5707SOL     OW17506   3.142   2.789   6.258
 5707SOL    HW117507   3.202   2.708   6.260
 5707SOL    HW217508   3.182   2.858   6.198
 5708SOL     OW17509   2.692   3.135   7.008
 5708SOL    HW117510   2.687   3.168   7.103
 5708SOL    HW217511   2.606   3.154   6.962
 5709SOL     OW17512   2.534   3.478   5.740
 5709SOL    HW117513   2.543   3.488   5.641
 5709SOL    HW217514   2.494   3.389   5.761
 5710SOL     OW17515   3.512   3.582   6.980
 5710SOL    HW117516   3.565   3.592   6.896
 5710SOL    HW217517   3.485   3.672   7.014
 5711SOL     OW17518   3.703   2.037   6.549
 5711SOL    HW117519   3.742   1.952   6.513
 5711SOL    HW217520   3.605   2.039   6.530
 5712SOL     OW17521   3.056   3.474   5.617
 5712SOL    HW117522   3.062   3.381   5.654
 5712SOL    HW217523   2.997   3.474   5.537
 5713SOL     OW17524   2.684   2.864   6.958
 5713SOL    HW117525   2.724   2.863   6.866
 5713SOL    HW217526   2.694   2.956   6.998
 5714SOL     OW17527   2.778   2.772   5.877
 5714SOL    HW117528   2.841   2.810   5.809
 5714SOL    HW217529   2.818   2.689   5.916
 5715SOL     OW17530   3.366   3.469   5.630
 5715SOL    HW117531   3.274   3.506   5.637
 5715SOL    HW217532   3.404   3.489   5.540
 5716SOL     OW17533   2.234   3.150   7.076
 5716SOL    HW117534   2.221   3.243   7.042
 5716SOL    HW217535   2.150   3.098   7.063
 5717SOL     OW17536   3.476   3.154   6.875
 5717SOL    HW117537   3.536   3.157   6.955
 5717SOL    HW217538   3.401   3.218   6.888
 5718SOL     OW17539   2.901   2.960   6.282
 5718SOL    HW117540   2.831   2.913   6.336
 5718SOL    HW217541   2.960   2.892   6.239
 5719SOL     OW17542   2.876   2.098   6.557
 5719SOL    HW117543   2.868   2.062   6.464
 5719SOL    HW217544   2.874   2.022   6.622
 5720SOL     OW17545   2.452   3.349   6.077
 5720SOL    HW117546   2.494   3.291   6.007
 5720SOL    HW217547   2.408   3.428   6.033
 5721SOL     OW17548   3.571   2.247   6.967
 5721SOL    HW117549   3.644   2.316   6.971
 5721SOL    HW217550   3.599   2.172   6.908
 5722SOL     OW17551   2.117   3.210   5.876
 5722SOL    HW117552   2.021   3.211   5.849
 5722SOL    HW217553   2.129   3.263   5.960
 5723SOL     OW17554   1.967   2.875   7.312
 5723SOL    HW117555   1.890   2.842   7.366
 5723SOL    HW217556   2.052   2.845   7.354
 5724SOL     OW17557   1.937   2.207   5.619
 5724SOL    HW117558   1.845   2.179   5.590
 5724SOL    HW217559   1.968   2.284   5.563
 5725SOL     OW17560   3.302   2.718   6.984
 5725SOL    HW117561   3.245   2.770   6.921
 5725SOL    HW217562   3.398   2.730   6.960
 5726SOL     OW17563   3.045   3.197   5.705
 5726SOL    HW117564   2.946   3.186   5.707
 5726SOL    HW217565   3.079   3.212   5.798
 5727SOL     OW17566   2.475   2.704   7.017
 5727SOL    HW117567   2.531   2.785   7.000
 5727SOL    HW217568   2.534   2.624   7.020
 5728SOL     OW17569   3.355   3.629   6.545
 5728SOL    HW117570   3.388   3.693   6.476
 5728SOL    HW217571   3.421   3.623   6.620
 5729SOL     OW17572   2.578   2.427   7.294
 5729SOL    HW117573   2.597   2.492   7.368
 5729SOL    HW217574   2.638   2.347   7.303
 5730SOL     OW17575   3.312   3.082   7.219
 5730SOL    HW117576   3.303   3.072   7.318
 5730SOL    HW217577   3.408   3.075   7.193
 5731SOL     OW17578   2.252   3.603   7.146
 5731SOL    HW117579   2.161   3.644   7.144
 5731SOL    HW217580   2.245   3.509   7.178
 5732SOL     OW17581   3.536   2.745   6.840
 5732SOL    HW117582   3.509   2.656   6.803
 5732SOL    HW217583   3.537   2.813   6.767
 5733SOL     OW17584   3.087   2.187   6.035
 5733SOL    HW117585   3.152   2.113   6.024
 5733SOL    HW217586   3.107   2.237   6.119
 5734SOL     OW17587   2.456   2.607   6.238
 5734SOL    HW117588   2.506   2.692   6.219
 5734SOL    HW217589   2.368   2.609   6.190
 5735SOL     OW17590   3.639   2.204   7.228
 5735SOL    HW117591   3.622   2.235   7.134
 5735SOL    HW217592   3.555   2.167   7.266
 5736SOL     OW17593   3.592   2.796   7.103
 5736SOL    HW117594   3.630   2.887   7.118
 5736SOL    HW217595   3.584   2.779   7.004
 5737SOL     OW17596   2.721   3.236   5.602
 5737SOL    HW117597   2.675   3.251   5.690
 5737SOL    HW217598   2.765   3.321   5.572
 5738SOL     OW17599   2.523   3.652   6.539
 5738SOL    HW117600   2.477   3.740   6.526
 5738SOL    HW217601   2.622   3.664   6.532
 5739SOL     OW17602   2.721   2.818   6.447
 5739SOL    HW117603   2.775   2.749   6.495
 5739SOL    HW217604   2.689   2.887   6.513
 5740SOL     OW17605   2.945   2.846   5.673
 5740SOL    HW117606   2.922   2.899   5.591
 5740SOL    HW217607   3.026   2.790   5.654
 5741SOL     OW17608   3.723   3.431   6.437
 5741SOL    HW117609   3.652   3.419   6.367
 5741SOL    HW217610   3.724   3.352   6.497
 5742SOL     OW17611   2.083   3.176   7.430
 5742SOL    HW117612   2.018   3.103   7.409
 5742SOL    HW217613   2.087   3.190   7.528
 5743SOL     OW17614   1.941   3.102   6.239
 5743SOL    HW117615   1.940   3.055   6.327
 5743SOL    HW217616   2.023   3.074   6.188
 5744SOL     OW17617   2.534   3.253   7.210
 5744SOL    HW117618   2.456   3.203   7.248
 5744SOL    HW217619   2.531   3.348   7.241
 5745SOL     OW17620   3.686   2.054   6.813
 5745SOL    HW117621   3.682   1.964   6.857
 5745SOL    HW217622   3.689   2.043   6.714
 5746SOL     OW17623   2.290   2.286   6.106
 5746SOL    HW117624   2.320   2.214   6.044
 5746SOL    HW217625   2.251   2.246   6.189
 5747SOL     OW17626   3.567   3.349   6.690
 5747SOL    HW117627   3.474   3.324   6.663
 5747SOL    HW217628   3.593   3.299   6.772
 5748SOL     OW17629   2.674   3.448   6.273
 5748SOL    HW117630   2.706   3.458   6.179
 5748SOL    HW217631   2.595   3.386   6.275
 5749SOL     OW17632   3.286   2.076   6.698
 5749SOL    HW117633   3.338   2.011   6.753
 5749SOL    HW217634   3.237   2.139   6.759
 5750SOL     OW17635   2.632   3.192   5.887
 5750SOL    HW117636   2.586   3.105   5.904
 5750SOL    HW217637   2.723   3.189   5.928
 5751SOL     OW17638   2.480   3.429   6.870
 5751SOL    HW117639   2.475   3.511   6.927
 5751SOL    HW217640   2.569   3.426   6.825
 5752SOL     OW17641   3.214   1.914   5.754
 5752SOL    HW117642   3.249   1.873   5.670
 5752SOL    HW217643   3.124   1.876   5.774
 5753SOL     OW17644   3.162   2.315   6.277
 5753SOL    HW117645   3.103   2.395   6.281
 5753SOL    HW217646   3.177   2.280   6.370
 5754SOL     OW17647   3.455   2.083   6.468
 5754SOL    HW117648   3.371   2.082   6.522
 5754SOL    HW217649   3.457   2.166   6.412
 5755SOL     OW17650   1.901   2.939   5.886
 5755SOL    HW117651   2.000   2.928   5.877
 5755SOL    HW217652   1.861   2.853   5.918
 5756SOL     OW17653   2.737   3.508   5.923
 5756SOL    HW117654   2.660   3.473   5.869
 5756SOL    HW217655   2.705   3.579   5.985
 5757SOL     OW17656   1.881   2.230   8.095
 5757SOL    HW117657   1.799   2.273   8.134
 5757SOL    HW217658   1.853   2.157   8.032
 5758SOL     OW17659   2.431   3.137   8.613
 5758SOL    HW117660   2.338   3.130   8.576
 5758SOL    HW217661   2.442   3.226   8.657
 5759SOL     OW17662   3.417   3.373   8.151
 5759SOL    HW117663   3.360   3.357   8.232
 5759SOL    HW217664   3.358   3.383   8.071
 5760SOL     OW17665   2.997   2.565   8.165
 5760SOL    HW117666   3.054   2.643   8.140
 5760SOL    HW217667   2.937   2.591   8.241
 5761SOL     OW17668   3.617   2.469   7.679
 5761SOL    HW117669   3.605   2.456   7.580
 5761SOL    HW217670   3.587   2.388   7.728
 5762SOL     OW17671   2.630   3.006   8.471
 5762SOL    HW117672   2.552   3.023   8.531
 5762SOL    HW217673   2.664   3.093   8.435
 5763SOL     OW17674   2.712   2.660   9.271
 5763SOL    HW117675   2.708   2.736   9.336
 5763SOL    HW217676   2.734   2.696   9.180
 5764SOL     OW17677   2.547   2.874   8.113
 5764SOL    HW117678   2.616   2.858   8.183
 5764SOL    HW217679   2.474   2.931   8.151
 5765SOL     OW17680   2.548   3.023   9.251
 5765SOL    HW117681   2.608   3.102   9.265
 5765SOL    HW217682   2.462   3.054   9.210
 5766SOL     OW17683   2.197   3.297   8.509
 5766SOL    HW117684   2.119   3.266   8.456
 5766SOL    HW217685   2.255   3.355   8.452
 5767SOL     OW17686   3.322   3.367   8.787
 5767SOL    HW117687   3.346   3.461   8.813
 5767SOL    HW217688   3.306   3.313   8.869
 5768SOL     OW17689   2.300   2.254   8.947
 5768SOL    HW117690   2.382   2.198   8.956
 5768SOL    HW217691   2.219   2.196   8.951
 5769SOL     OW17692   3.465   2.309   8.185
 5769SOL    HW117693   3.391   2.355   8.135
 5769SOL    HW217694   3.516   2.377   8.238
 5770SOL     OW17695   2.093   3.575   7.931
 5770SOL    HW117696   2.127   3.652   7.985
 5770SOL    HW217697   2.137   3.575   7.841
 5771SOL     OW17698   2.989   3.203   9.138
 5771SOL    HW117699   3.036   3.203   9.226
 5771SOL    HW217700   2.941   3.116   9.127
 5772SOL     OW17701   2.092   3.296   7.986
 5772SOL    HW117702   2.066   3.392   7.986
 5772SOL    HW217703   2.021   3.242   8.031
 5773SOL     OW17704   2.102   2.953   8.334
 5773SOL    HW117705   2.116   2.869   8.386
 5773SOL    HW217706   2.047   3.017   8.389
 5774SOL     OW17707   2.482   3.648   8.887
 5774SOL    HW117708   2.390   3.631   8.922
 5774SOL    HW217709   2.510   3.740   8.913
 5775SOL     OW17710   2.468   2.826   7.571
 5775SOL    HW117711   2.475   2.910   7.517
 5775SOL    HW217712   2.514   2.839   7.659
 5776SOL     OW17713   3.456   1.976   8.928
 5776SOL    HW117714   3.438   2.043   8.856
 5776SOL    HW217715   3.453   2.022   9.017
 5777SOL     OW17716   1.984   2.505   8.011
 5777SOL    HW117717   1.939   2.417   8.028
 5777SOL    HW217718   1.983   2.559   8.095
 5778SOL     OW17719   3.704   3.629   7.807
 5778SOL    HW117720   3.758   3.600   7.887
 5778SOL    HW217721   3.734   3.719   7.778
 5779SOL     OW17722   1.889   3.458   7.565
 5779SOL    HW117723   1.870   3.362   7.586
 5779SOL    HW217724   1.856   3.516   7.640
 5780SOL     OW17725   3.551   2.784   8.060
 5780SOL    HW117726   3.646   2.755   8.068
 5780SOL    HW217727   3.543   2.849   7.985
 5781SOL     OW17728   3.503   2.970   7.880
 5781SOL    HW117729   3.589   2.972   7.828
 5781SOL    HW217730   3.517   3.017   7.968
 5782SOL     OW17731   1.975   2.599   9.045
 5782SOL    HW117732   2.063   2.586   9.090
 5782SOL    HW217733   1.962   2.696   9.023
 5783SOL     OW17734   2.475   3.227   8.174
 5783SOL    HW117735   2.426   3.140   8.183
 5783SOL    HW217736   2.452   3.270   8.087
 5784SOL     OW17737   3.155   3.090   8.871
 5784SOL    HW117738   3.192   3.017   8.813
 5784SOL    HW217739   3.207   3.095   8.956
 5785SOL     OW17740   2.671   1.866   7.950
 5785SOL    HW117741   2.711   1.957   7.941
 5785SOL    HW217742   2.571   1.874   7.956
 5786SOL     OW17743   2.059   2.838   8.712
 5786SOL    HW117744   2.148   2.793   8.698
 5786SOL    HW217745   1.986   2.773   8.693
 5787SOL     OW17746   3.387   2.861   7.638
 5787SOL    HW117747   3.324   2.785   7.651
 5787SOL    HW217748   3.435   2.879   7.724
 5788SOL     OW17749   3.049   3.654   9.064
 5788SOL    HW117750   3.073   3.714   8.988
 5788SOL    HW217751   3.056   3.559   9.034
 5789SOL     OW17752   2.179   2.113   9.249
 5789SOL    HW117753   2.250   2.184   9.255
 5789SOL    HW217754   2.091   2.152   9.277
 5790SOL     OW17755   3.328   3.279   8.401
 5790SOL    HW117756   3.269   3.285   8.481
 5790SOL    HW217757   3.313   3.191   8.355
 5791SOL     OW17758   3.529   3.576   8.020
 5791SOL    HW117759   3.488   3.553   7.932
 5791SOL    HW217760   3.511   3.502   8.085
 5792SOL     OW17761   2.460   2.591   7.718
 5792SOL    HW117762   2.484   2.660   7.650
 5792SOL    HW217763   2.382   2.624   7.772
 5793SOL     OW17764   3.143   2.207   8.392
 5793SOL    HW117765   3.057   2.157   8.379
 5793SOL    HW217766   3.205   2.153   8.448
 5794SOL     OW17767   3.438   3.524   7.755
 5794SOL    HW117768   3.527   3.570   7.758
 5794SOL    HW217769   3.417   3.500   7.660
 5795SOL     OW17770   2.669   2.467   8.913
 5795SOL    HW117771   2.622   2.464   9.002
 5795SOL    HW217772   2.618   2.412   8.847
 5796SOL     OW17773   3.256   2.331   9.122
 5796SOL    HW117774   3.236   2.374   9.210
 5796SOL    HW217775   3.334   2.269   9.131
 5797SOL     OW17776   2.835   2.752   9.020
 5797SOL    HW117777   2.881   2.668   8.991
 5797SOL    HW217778   2.779   2.786   8.945
 5798SOL     OW17779   2.853   2.272   8.690
 5798SOL    HW117780   2.776   2.306   8.744
 5798SOL    HW217781   2.819   2.221   8.611
 5799SOL     OW17782   2.903   2.563   7.877
 5799SOL    HW117783   2.929   2.559   7.973
 5799SOL    HW217784   2.818   2.512   7.863
 5800SOL     OW17785   1.938   2.673   8.237
 5800SOL    HW117786   2.037   2.661   8.246
 5800SOL    HW217787   1.914   2.768   8.258
 5801SOL     OW17788   1.992   3.683   9.019
 5801SOL    HW117789   1.982   3.668   9.118
 5801SOL    HW217790   1.906   3.719   8.983
 5802SOL     OW17791   2.727   2.210   7.643
 5802SOL    HW117792   2.786   2.273   7.594
 5802SOL    HW217793   2.746   2.116   7.614
 5803SOL     OW17794   3.581   2.447   9.279
 5803SOL    HW117795   3.555   2.536   9.243
 5803SOL    HW217796   3.579   2.379   9.206
 5804SOL     OW17797   3.224   3.006   7.993
 5804SOL    HW117798   3.307   2.977   7.945
 5804SOL    HW217799   3.175   3.073   7.937
 5805SOL     OW17800   2.412   2.058   8.333
 5805SOL    HW117801   2.407   2.053   8.433
 5805SOL    HW217802   2.414   2.154   8.304
 5806SOL     OW17803   2.870   3.318   7.925
 5806SOL    HW117804   2.824   3.390   7.873
 5806SOL    HW217805   2.866   3.338   8.023
 5807SOL     OW17806   2.213   3.663   8.301
 5807SOL    HW117807   2.263   3.577   8.307
 5807SOL    HW217808   2.278   3.740   8.298
 5808SOL     OW17809   3.657   2.928   8.321
 5808SOL    HW117810   3.595   2.913   8.245
 5808SOL    HW217811   3.605   2.939   8.406
 5809SOL     OW17812   3.089   3.412   8.954
 5809SOL    HW117813   3.095   3.335   9.018
 5809SOL    HW217814   3.037   3.386   8.874
 5810SOL     OW17815   2.183   2.805   7.690
 5810SOL    HW117816   2.265   2.844   7.648
 5810SOL    HW217817   2.156   2.723   7.641
 5811SOL     OW17818   3.320   2.597   8.176
 5811SOL    HW117819   3.315   2.532   8.251
 5811SOL    HW217820   3.400   2.656   8.189
 5812SOL     OW17821   2.323   3.128   9.175
 5812SOL    HW117822   2.273   3.129   9.089
 5812SOL    HW217823   2.260   3.110   9.251
 5813SOL     OW17824   2.973   3.638   7.685
 5813SOL    HW117825   2.913   3.576   7.735
 5813SOL    HW217826   3.004   3.594   7.600
 5814SOL     OW17827   3.494   3.239   7.529
 5814SOL    HW117828   3.462   3.333   7.519
 5814SOL    HW217829   3.418   3.176   7.517
 5815SOL     OW17830   2.326   3.605   7.771
 5815SOL    HW117831   2.359   3.644   7.857
 5815SOL    HW217832   2.402   3.598   7.706
 5816SOL     OW17833   3.262   1.969   7.874
 5816SOL    HW117834   3.238   1.932   7.784
 5816SOL    HW217835   3.361   1.985   7.878
 5817SOL     OW17836   2.111   3.647   8.689
 5817SOL    HW117837   2.168   3.582   8.739
 5817SOL    HW217838   2.095   3.614   8.596
 5818SOL     OW17839   2.802   3.560   8.352
 5818SOL    HW117840   2.882   3.503   8.373
 5818SOL    HW217841   2.753   3.520   8.275
 5819SOL     OW17842   2.244   2.562   7.928
 5819SOL    HW117843   2.289   2.472   7.925
 5819SOL    HW217844   2.150   2.551   7.961
 5820SOL     OW17845   3.409   2.084   9.177
 5820SOL    HW117846   3.404   2.121   9.269
 5820SOL    HW217847   3.337   2.015   9.165
 5821SOL     OW17848   2.476   1.984   7.565
 5821SOL    HW117849   2.574   1.962   7.572
 5821SOL    HW217850   2.445   1.967   7.472
 5822SOL     OW17851   2.643   2.126   9.197
 5822SOL    HW117852   2.710   2.065   9.240
 5822SOL    HW217853   2.570   2.145   9.262
 5823SOL     OW17854   2.750   3.376   8.643
 5823SOL    HW117855   2.727   3.351   8.549
 5823SOL    HW217856   2.811   3.307   8.682
 5824SOL     OW17857   3.213   2.452   8.881
 5824SOL    HW117858   3.241   2.409   8.966
 5824SOL    HW217859   3.238   2.548   8.882
 5825SOL     OW17860   2.665   3.264   8.372
 5825SOL    HW117861   2.755   3.278   8.330
 5825SOL    HW217862   2.594   3.266   8.301
 5826SOL     OW17863   2.784   2.365   8.347
 5826SOL    HW117864   2.759   2.356   8.251
 5826SOL    HW217865   2.832   2.283   8.378
 5827SOL     OW17866   2.401   1.926   7.960
 5827SOL    HW117867   2.320   1.927   8.018
 5827SOL    HW217868   2.404   2.009   7.905
 5828SOL     OW17869   3.296   3.050   7.489
 5828SOL    HW117870   3.328   2.974   7.546
 5828SOL    HW217871   3.204   3.077   7.519
 5829SOL     OW17872   2.797   2.098   7.928
 5829SOL    HW117873   2.749   2.139   7.850
 5829SOL    HW217874   2.896   2.096   7.909
 5830SOL     OW17875   2.938   2.545   8.912
 5830SOL    HW117876   2.858   2.484   8.915
 5830SOL    HW217877   3.019   2.492   8.888
 5831SOL     OW17878   3.089   3.432   8.241
 5831SOL    HW117879   3.110   3.506   8.176
 5831SOL    HW217880   3.157   3.432   8.314
 5832SOL     OW17881   2.321   3.014   8.189
 5832SOL    HW117882   2.250   2.987   8.254
 5832SOL    HW217883   2.295   2.986   8.096
 5833SOL     OW17884   3.133   3.659   8.039
 5833SOL    HW117885   3.177   3.723   7.975
 5833SOL    HW217886   3.083   3.711   8.109
 5834SOL     OW17887   2.894   2.411   7.464
 5834SOL    HW117888   2.853   2.493   7.425
 5834SOL    HW217889   2.958   2.437   7.537
 5835SOL     OW17890   1.940   2.418   8.834
 5835SOL    HW117891   2.032   2.417   8.793
 5835SOL    HW217892   1.934   2.492   8.901
 5836SOL     OW17893   2.423   2.084   8.595
 5836SOL    HW117894   2.461   2.000   8.632
 5836SOL    HW217895   2.335   2.103   8.639
 5837SOL     OW17896   2.728   2.316   8.090
 5837SOL    HW117897   2.696   2.388   8.028
 5837SOL    HW217898   2.752   2.235   8.037
 5838SOL     OW17899   2.879   1.901   8.201
 5838SOL    HW117900   2.807   1.906   8.132
 5838SOL    HW217901   2.855   1.832   8.270
 5839SOL     OW17902   3.291   3.035   8.315
 5839SOL    HW117903   3.236   2.951   8.308
 5839SOL    HW217904   3.317   3.064   8.223
 5840SOL     OW17905   3.328   2.452   8.440
 5840SOL    HW117906   3.298   2.357   8.447
 5840SOL    HW217907   3.401   2.468   8.506
 5841SOL     OW17908   3.719   2.695   7.825
 5841SOL    HW117909   3.761   2.631   7.889
 5841SOL    HW217910   3.681   2.644   7.747
 5842SOL     OW17911   2.350   3.247   7.622
 5842SOL    HW117912   2.263   3.232   7.669
 5842SOL    HW217913   2.333   3.273   7.527
 5843SOL     OW17914   3.526   3.142   8.105
 5843SOL    HW117915   3.625   3.150   8.119
 5843SOL    HW217916   3.481   3.226   8.136
 5844SOL     OW17917   3.252   2.437   7.526
 5844SOL    HW117918   3.198   2.416   7.607
 5844SOL    HW217919   3.343   2.396   7.535
 5845SOL     OW17920   2.389   2.118   7.776
 5845SOL    HW117921   2.416   2.059   7.701
 5845SOL    HW217922   2.389   2.213   7.745
 5846SOL     OW17923   3.616   3.085   9.036
 5846SOL    HW117924   3.707   3.046   9.023
 5846SOL    HW217925   3.624   3.181   9.060
 5847SOL     OW17926   2.926   3.209   8.788
 5847SOL    HW117927   2.846   3.186   8.843
 5847SOL    HW217928   3.009   3.183   8.837
 5848SOL     OW17929   3.454   3.491   9.073
 5848SOL    HW117930   3.481   3.525   8.983
 5848SOL    HW217931   3.533   3.453   9.119
 5849SOL     OW17932   2.973   3.057   8.548
 5849SOL    HW117933   2.933   3.101   8.629
 5849SOL    HW217934   2.932   3.094   8.465
 5850SOL     OW17935   3.500   2.961   8.527
 5850SOL    HW117936   3.505   3.042   8.586
 5850SOL    HW217937   3.414   2.963   8.476
 5851SOL     OW17938   2.777   1.951   8.850
 5851SOL    HW117939   2.802   1.931   8.755
 5851SOL    HW217940   2.849   2.007   8.892
 5852SOL     OW17941   2.842   2.978   9.167
 5852SOL    HW117942   2.743   2.984   9.177
 5852SOL    HW217943   2.865   2.898   9.111
 5853SOL     OW17944   2.567   2.912   7.816
 5853SOL    HW117945   2.553   2.919   7.915
 5853SOL    HW217946   2.651   2.861   7.798
 5854SOL     OW17947   2.272   2.675   8.699
 5854SOL    HW117948   2.358   2.687   8.749
 5854SOL    HW217949   2.230   2.588   8.726
 5855SOL     OW17950   3.136   2.248   8.710
 5855SOL    HW117951   3.157   2.322   8.774
 5855SOL    HW217952   3.047   2.265   8.667
 5856SOL     OW17953   1.926   3.426   8.779
 5856SOL    HW117954   1.880   3.508   8.745
 5856SOL    HW217955   2.024   3.445   8.788
 5857SOL     OW17956   2.229   2.962   7.949
 5857SOL    HW117957   2.222   3.045   7.893
 5857SOL    HW217958   2.233   2.882   7.889
 5858SOL     OW17959   2.428   2.399   8.313
 5858SOL    HW117960   2.440   2.465   8.239
 5858SOL    HW217961   2.474   2.433   8.396
 5859SOL     OW17962   3.114   3.210   7.836
 5859SOL    HW117963   3.164   3.287   7.876
 5859SOL    HW217964   3.019   3.212   7.868
 5860SOL     OW17965   3.134   3.307   8.590
 5860SOL    HW117966   3.181   3.320   8.677
 5860SOL    HW217967   3.068   3.233   8.599
 5861SOL     OW17968   3.444   2.501   7.920
 5861SOL    HW117969   3.413   2.562   7.993
 5861SOL    HW217970   3.494   2.553   7.851
 5862SOL     OW17971   2.216   3.372   8.777
 5862SOL    HW117972   2.195   3.328   8.690
 5862SOL    HW217973   2.313   3.398   8.780
 5863SOL     OW17974   2.264   2.613   9.046
 5863SOL    HW117975   2.332   2.668   8.999
 5863SOL    HW217976   2.304   2.525   9.073
 5864SOL     OW17977   3.449   2.641   9.118
 5864SOL    HW117978   3.357   2.679   9.113
 5864SOL    HW217979   3.509   2.688   9.053
 5865SOL     OW17980   2.875   1.967   9.218
 5865SOL    HW117981   2.881   2.052   9.166
 5865SOL    HW217982   2.907   1.891   9.161
 5866SOL     OW17983   2.366   1.912   9.188
 5866SOL    HW117984   2.324   1.855   9.118
 5866SOL    HW217985   2.300   1.981   9.220
 5867SOL     OW17986   2.435   2.732   8.477
 5867SOL    HW117987   2.479   2.821   8.468
 5867SOL    HW217988   2.372   2.732   8.554
 5868SOL     OW17989   3.222   2.724   8.493
 5868SOL    HW117990   3.147   2.724   8.427
 5868SOL    HW217991   3.259   2.632   8.502
 5869SOL     OW17992   3.071   2.387   7.723
 5869SOL    HW117993   3.084   2.303   7.777
 5869SOL    HW217994   3.042   2.461   7.783
 5870SOL     OW17995   2.169   2.075   8.679
 5870SOL    HW117996   2.146   2.112   8.769
 5870SOL    HW217997   2.139   1.980   8.673
 5871SOL     OW17998   1.899   3.172   8.730
 5871SOL    HW117999   1.952   3.123   8.798
 5871SOL    HW218000   1.921   3.270   8.735
 5872SOL     OW18001   2.594   2.496   8.512
 5872SOL    HW118002   2.653   2.470   8.436
 5872SOL    HW218003   2.566   2.592   8.501
 5873SOL     OW18004   3.590   2.797   9.302
 5873SOL    HW118005   3.544   2.790   9.213
 5873SOL    HW218006   3.528   2.841   9.368
 5874SOL     OW18007   3.484   2.229   7.822
 5874SOL    HW118008   3.486   2.153   7.886
 5874SOL    HW218009   3.436   2.306   7.862
 5875SOL     OW18010   2.885   2.628   8.414
 5875SOL    HW118011   2.900   2.649   8.510
 5875SOL    HW218012   2.855   2.533   8.405
 5876SOL     OW18013   2.842   3.435   9.148
 5876SOL    HW118014   2.822   3.479   9.060
 5876SOL    HW218015   2.881   3.344   9.132
 5877SOL     OW18016   3.721   3.380   9.053
 5877SOL    HW118017   3.735   3.407   8.958
 5877SOL    HW218018   3.804   3.402   9.106
 5878SOL     OW18019   2.212   2.760   9.252
 5878SOL    HW118020   2.288   2.804   9.300
 5878SOL    HW218021   2.247   2.713   9.170
 5879SOL     OW18022   3.402   2.136   7.573
 5879SOL    HW118023   3.341   2.061   7.596
 5879SOL    HW218024   3.424   2.188   7.656
 5880SOL     OW18025   3.165   2.700   7.490
 5880SOL    HW118026   3.199   2.607   7.505
 5880SOL    HW218027   3.183   2.727   7.395
 5881SOL     OW18028   2.930   3.195   8.297
 5881SOL    HW118029   2.937   3.111   8.242
 5881SOL    HW218030   2.992   3.264   8.261
 5882SOL     OW18031   2.181   2.672   8.397
 5882SOL    HW118032   2.274   2.708   8.402
 5882SOL    HW218033   2.175   2.587   8.449
 5883SOL     OW18034   2.201   2.371   8.454
 5883SOL    HW118035   2.149   2.288   8.437
 5883SOL    HW218036   2.278   2.376   8.390
 5884SOL     OW18037   3.000   2.242   9.126
 5884SOL    HW118038   2.955   2.305   9.190
 5884SOL    HW218039   3.093   2.273   9.109
 5885SOL     OW18040   3.022   2.069   8.925
 5885SOL    HW118041   3.022   2.133   9.002
 5885SOL    HW218042   3.050   2.117   8.842
 5886SOL     OW18043   1.870   3.188   7.648
 5886SOL    HW118044   1.777   3.209   7.617
 5886SOL    HW218045   1.880   3.089   7.661
 5887SOL     OW18046   1.950   3.663   8.375
 5887SOL    HW118047   1.908   3.577   8.348
 5887SOL    HW218048   2.044   3.666   8.341
 5888SOL     OW18049   2.366   3.430   8.358
 5888SOL    HW118050   2.432   3.504   8.367
 5888SOL    HW218051   2.410   3.351   8.316
 5889SOL     OW18052   2.864   2.658   8.686
 5889SOL    HW118053   2.905   2.626   8.772
 5889SOL    HW218054   2.768   2.631   8.683
 5890SOL     OW18055   1.902   2.406   8.562
 5890SOL    HW118056   1.987   2.373   8.521
 5890SOL    HW218057   1.915   2.421   8.660
 5891SOL     OW18058   2.051   2.382   9.170
 5891SOL    HW118059   2.110   2.342   9.100
 5891SOL    HW218060   1.993   2.453   9.129
 5892SOL     OW18061   3.231   2.812   9.108
 5892SOL    HW118062   3.270   2.901   9.128
 5892SOL    HW218063   3.241   2.792   9.011
 5893SOL     OW18064   2.677   2.434   7.773
 5893SOL    HW118065   2.684   2.345   7.727
 5893SOL    HW218066   2.583   2.468   7.765
 5894SOL     OW18067   3.519   2.466   8.654
 5894SOL    HW118068   3.481   2.397   8.716
 5894SOL    HW218069   3.601   2.430   8.610
 5895SOL     OW18070   2.114   3.426   9.192
 5895SOL    HW118071   2.084   3.483   9.268
 5895SOL    HW218072   2.107   3.329   9.218
 5896SOL     OW18073   2.533   2.326   8.717
 5896SOL    HW118074   2.499   2.237   8.687
 5896SOL    HW218075   2.559   2.380   8.637
 5897SOL     OW18076   2.792   3.540   8.913
 5897SOL    HW118077   2.768   3.522   8.818
 5897SOL    HW218078   2.822   3.634   8.923
 5898SOL     OW18079   2.335   2.362   7.639
 5898SOL    HW118080   2.396   2.442   7.643
 5898SOL    HW218081   2.240   2.393   7.646
 5899SOL     OW18082   2.021   2.999   8.914
 5899SOL    HW118083   2.043   2.938   8.990
 5899SOL    HW218084   2.031   2.950   8.828
 5900SOL     OW18085   3.209   2.921   8.682
 5900SOL    HW118086   3.233   2.858   8.608
 5900SOL    HW218087   3.119   2.961   8.664
 5901SOL     OW18088   3.164   2.717   7.757
 5901SOL    HW118089   3.078   2.686   7.799
 5901SOL    HW218090   3.160   2.703   7.658
 5902SOL     OW18091   3.621   3.609   8.602
 5902SOL    HW118092   3.682   3.639   8.529
 5902SOL    HW218093   3.583   3.520   8.580
 5903SOL     OW18094   3.114   3.593   8.576
 5903SOL    HW118095   3.198   3.598   8.522
 5903SOL    HW218096   3.091   3.497   8.594
 5904SOL     OW18097   1.945   3.120   8.470
 5904SOL    HW118098   1.940   3.119   8.570
 5904SOL    HW218099   1.862   3.079   8.432
 5905SOL     OW18100   2.550   3.524   9.164
 5905SOL    HW118101   2.494   3.605   9.173
 5905SOL    HW218102   2.602   3.528   9.078
 5906SOL     OW18103   3.588   1.997   7.971
 5906SOL    HW118104   3.661   1.980   7.904
 5906SOL    HW218105   3.557   1.910   8.009
 5907SOL     OW18106   3.250   3.435   7.925
 5907SOL    HW118107   3.317   3.447   7.851
 5907SOL    HW218108   3.210   3.524   7.948
 5908SOL     OW18109   1.992   3.656   9.299
 5908SOL    HW118110   1.951   3.582   9.352
 5908SOL    HW218111   2.056   3.707   9.357
 5909SOL     OW18112   3.142   2.789   8.120
 5909SOL    HW118113   3.202   2.708   8.122
 5909SOL    HW218114   3.182   2.858   8.060
 5910SOL     OW18115   2.692   3.135   8.870
 5910SOL    HW118116   2.687   3.168   8.965
 5910SOL    HW218117   2.606   3.154   8.824
 5911SOL     OW18118   2.534   3.478   7.602
 5911SOL    HW118119   2.543   3.488   7.503
 5911SOL    HW218120   2.494   3.389   7.623
 5912SOL     OW18121   3.512   3.582   8.842
 5912SOL    HW118122   3.565   3.592   8.758
 5912SOL    HW218123   3.485   3.672   8.876
 5913SOL     OW18124   3.703   2.037   8.411
 5913SOL    HW118125   3.742   1.952   8.375
 5913SOL    HW218126   3.605   2.039   8.392
 5914SOL     OW18127   3.056   3.474   7.479
 5914SOL    HW118128   3.062   3.381   7.516
 5914SOL    HW218129   2.997   3.474   7.399
 5915SOL     OW18130   2.684   2.864   8.820
 5915SOL    HW118131   2.724   2.863   8.728
 5915SOL    HW218132   2.694   2.956   8.860
 5916SOL     OW18133   2.778   2.772   7.739
 5916SOL    HW118134   2.841   2.810   7.671
 5916SOL    HW218135   2.818   2.689   7.778
 5917SOL     OW18136   3.366   3.469   7.492
 5917SOL    HW118137   3.274   3.506   7.499
 5917SOL    HW218138   3.404   3.489   7.402
 5918SOL     OW18139   2.234   3.150   8.938
 5918SOL    HW118140   2.221   3.243   8.904
 5918SOL    HW218141   2.150   3.098   8.925
 5919SOL     OW18142   3.476   3.154   8.737
 5919SOL    HW118143   3.536   3.157   8.817
 5919SOL    HW218144   3.401   3.218   8.750
 5920SOL     OW18145   2.901   2.960   8.144
 5920SOL    HW118146   2.831   2.913   8.198
 5920SOL    HW218147   2.960   2.892   8.101
 5921SOL     OW18148   2.876   2.098   8.419
 5921SOL    HW118149   2.868   2.062   8.326
 5921SOL    HW218150   2.874   2.022   8.484
 5922SOL     OW18151   2.452   3.349   7.939
 5922SOL    HW118152   2.494   3.291   7.869
 5922SOL    HW218153   2.408   3.428   7.895
 5923SOL     OW18154   3.571   2.247   8.829
 5923SOL    HW118155   3.644   2.316   8.833
 5923SOL    HW218156   3.599   2.172   8.770
 5924SOL     OW18157   2.117   3.210   7.738
 5924SOL    HW118158   2.021   3.211   7.711
 5924SOL    HW218159   2.129   3.263   7.822
 5925SOL     OW18160   1.967   2.875   9.174
 5925SOL    HW118161   1.890   2.842   9.228
 5925SOL    HW218162   2.052   2.845   9.216
 5926SOL     OW18163   2.534   2.065   8.937
 5926SOL    HW118164   2.624   2.049   8.897
 5926SOL    HW218165   2.542   2.070   9.036
 5927SOL     OW18166   3.302   2.718   8.846
 5927SOL    HW118167   3.245   2.770   8.783
 5927SOL    HW218168   3.398   2.730   8.822
 5928SOL     OW18169   3.045   3.197   7.567
 5928SOL    HW118170   2.946   3.186   7.569
 5928SOL    HW218171   3.079   3.212   7.660
 5929SOL     OW18172   2.475   2.704   8.879
 5929SOL    HW118173   2.531   2.785   8.862
 5929SOL    HW218174   2.534   2.624   8.882
 5930SOL     OW18175   3.355   3.629   8.407
 5930SOL    HW118176   3.388   3.693   8.338
 5930SOL    HW218177   3.421   3.623   8.482
 5931SOL     OW18178   2.578   2.427   9.156
 5931SOL    HW118179   2.597   2.492   9.230
 5931SOL    HW218180   2.638   2.347   9.165
 5932SOL     OW18181   3.312   3.082   9.081
 5932SOL    HW118182   3.303   3.072   9.180
 5932SOL    HW218183   3.408   3.075   9.055
 5933SOL     OW18184   2.252   3.603   9.008
 5933SOL    HW118185   2.161   3.644   9.006
 5933SOL    HW218186   2.245   3.509   9.040
 5934SOL     OW18187   3.536   2.745   8.702
 5934SOL    HW118188   3.509   2.656   8.665
 5934SOL    HW218189   3.537   2.813   8.629
 5935SOL     OW18190   3.087   2.187   7.897
 5935SOL    HW118191   3.152   2.113   7.886
 5935SOL    HW218192   3.107   2.237   7.981
 5936SOL     OW18193   2.456   2.607   8.100
 5936SOL    HW118194   2.506   2.692   8.081
 5936SOL    HW218195   2.368   2.609   8.052
 5937SOL     OW18196   3.639   2.204   9.090
 5937SOL    HW118197   3.622   2.235   8.996
 5937SOL    HW218198   3.555   2.167   9.128
 5938SOL     OW18199   3.592   2.796   8.965
 5938SOL    HW118200   3.630   2.887   8.980
 5938SOL    HW218201   3.584   2.779   8.866
 5939SOL     OW18202   2.721   3.236   7.464
 5939SOL    HW118203   2.675   3.251   7.552
 5939SOL    HW218204   2.765   3.321   7.434
 5940SOL     OW18205   2.523   3.652   8.401
 5940SOL    HW118206   2.477   3.740   8.388
 5940SOL    HW218207   2.622   3.664   8.394
 5941SOL     OW18208   2.721   2.818   8.309
 5941SOL    HW118209   2.775   2.749   8.357
 5941SOL    HW218210   2.689   2.887   8.375
 5942SOL     OW18211   2.945   2.846   7.535
 5942SOL    HW118212   2.922   2.899   7.453
 5942SOL    HW218213   3.026   2.790   7.516
 5943SOL     OW18214   3.723   3.431   8.299
 5943SOL    HW118215   3.652   3.419   8.229
 5943SOL    HW218216   3.724   3.352   8.359
 5944SOL     OW18217   2.083   3.176   9.292
 5944SOL    HW118218   2.018   3.103   9.271
 5944SOL    HW218219   2.087   3.190   9.390
 5945SOL     OW18220   1.941   3.102   8.101
 5945SOL    HW118221   1.940   3.055   8.189
 5945SOL    HW218222   2.023   3.074   8.050
 5946SOL     OW18223   2.534   3.253   9.072
 5946SOL    HW118224   2.456   3.203   9.110
 5946SOL    HW218225   2.531   3.348   9.103
 5947SOL     OW18226   3.686   2.054   8.675
 5947SOL    HW118227   3.682   1.964   8.719
 5947SOL    HW218228   3.689   2.043   8.576
 5948SOL     OW18229   2.290   2.286   7.968
 5948SOL    HW118230   2.320   2.214   7.906
 5948SOL    HW218231   2.251   2.246   8.051
 5949SOL     OW18232   3.567   3.349   8.552
 5949SOL    HW118233   3.474   3.324   8.525
 5949SOL    HW218234   3.593   3.299   8.634
 5950SOL     OW18235   2.179   2.409   8.728
 5950SOL    HW118236   2.217   2.350   8.800
 5950SOL    HW218237   2.219   2.383   8.640
 5951SOL     OW18238   2.674   3.448   8.135
 5951SOL    HW118239   2.706   3.458   8.041
 5951SOL    HW218240   2.595   3.386   8.137
 5952SOL     OW18241   3.286   2.076   8.560
 5952SOL    HW118242   3.338   2.011   8.615
 5952SOL    HW218243   3.237   2.139   8.621
 5953SOL     OW18244   2.863   1.896   8.602
 5953SOL    HW118245   2.800   1.824   8.571
 5953SOL    HW218246   2.956   1.860   8.602
 5954SOL     OW18247   2.632   3.192   7.749
 5954SOL    HW118248   2.586   3.105   7.766
 5954SOL    HW218249   2.723   3.189   7.790
 5955SOL     OW18250   2.480   3.429   8.732
 5955SOL    HW118251   2.475   3.511   8.789
 5955SOL    HW218252   2.569   3.426   8.687
 5956SOL     OW18253   3.214   1.914   7.616
 5956SOL    HW118254   3.249   1.873   7.532
 5956SOL    HW218255   3.124   1.876   7.636
 5957SOL     OW18256   3.162   2.315   8.139
 5957SOL    HW118257   3.103   2.395   8.143
 5957SOL    HW218258   3.177   2.280   8.232
 5958SOL     OW18259   3.455   2.083   8.330
 5958SOL    HW118260   3.371   2.082   8.384
 5958SOL    HW218261   3.457   2.166   8.274
 5959SOL     OW18262   1.901   2.939   7.748
 5959SOL    HW118263   2.000   2.928   7.739
 5959SOL    HW218264   1.861   2.853   7.780
 5960SOL     OW18265   2.737   3.508   7.785
 5960SOL    HW118266   2.660   3.473   7.731
 5960SOL    HW218267   2.705   3.579   7.847
 5961SOL     OW18268   2.092   2.490   9.423
 5961SOL    HW118269   1.999   2.488   9.460
 5961SOL    HW218270   2.093   2.451   9.331
 5962SOL     OW18271   1.881   2.230   9.957
 5962SOL    HW118272   1.799   2.273   9.996
 5962SOL    HW218273   1.853   2.157   9.894
 5963SOL     OW18274   2.431   3.137  10.475
 5963SOL    HW118275   2.338   3.130  10.438
 5963SOL    HW218276   2.442   3.226  10.519
 5964SOL     OW18277   3.417   3.373  10.013
 5964SOL    HW118278   3.360   3.357  10.094
 5964SOL    HW218279   3.358   3.383   9.933
 5965SOL     OW18280   2.997   2.565  10.027
 5965SOL    HW118281   3.054   2.643  10.002
 5965SOL    HW218282   2.937   2.591  10.103
 5966SOL     OW18283   3.617   2.469   9.541
 5966SOL    HW118284   3.605   2.456   9.442
 5966SOL    HW218285   3.587   2.388   9.590
 5967SOL     OW18286   2.630   3.006  10.333
 5967SOL    HW118287   2.552   3.023  10.393
 5967SOL    HW218288   2.664   3.093  10.297
 5968SOL     OW18289   2.712   2.660  11.133
 5968SOL    HW118290   2.708   2.736  11.198
 5968SOL    HW218291   2.734   2.696  11.042
 5969SOL     OW18292   2.547   2.874   9.975
 5969SOL    HW118293   2.616   2.858  10.045
 5969SOL    HW218294   2.474   2.931  10.013
 5970SOL     OW18295   2.548   3.023  11.113
 5970SOL    HW118296   2.608   3.102  11.127
 5970SOL    HW218297   2.462   3.054  11.072
 5971SOL     OW18298   2.197   3.297  10.371
 5971SOL    HW118299   2.119   3.266  10.318
 5971SOL    HW218300   2.255   3.355  10.314
 5972SOL     OW18301   3.322   3.367  10.649
 5972SOL    HW118302   3.346   3.461  10.675
 5972SOL    HW218303   3.306   3.313  10.731
 5973SOL     OW18304   2.300   2.254  10.809
 5973SOL    HW118305   2.382   2.198  10.818
 5973SOL    HW218306   2.219   2.196  10.813
 5974SOL     OW18307   3.465   2.309  10.047
 5974SOL    HW118308   3.391   2.355   9.997
 5974SOL    HW218309   3.516   2.377  10.100
 5975SOL     OW18310   2.093   3.575   9.793
 5975SOL    HW118311   2.127   3.652   9.847
 5975SOL    HW218312   2.137   3.575   9.703
 5976SOL     OW18313   2.989   3.203  11.000
 5976SOL    HW118314   3.036   3.203  11.088
 5976SOL    HW218315   2.941   3.116  10.989
 5977SOL     OW18316   2.092   3.296   9.848
 5977SOL    HW118317   2.066   3.392   9.848
 5977SOL    HW218318   2.021   3.242   9.893
 5978SOL     OW18319   2.102   2.953  10.196
 5978SOL    HW118320   2.116   2.869  10.248
 5978SOL    HW218321   2.047   3.017  10.251
 5979SOL     OW18322   2.482   3.648  10.749
 5979SOL    HW118323   2.390   3.631  10.784
 5979SOL    HW218324   2.510   3.740  10.775
 5980SOL     OW18325   2.468   2.826   9.433
 5980SOL    HW118326   2.475   2.910   9.379
 5980SOL    HW218327   2.514   2.839   9.521
 5981SOL     OW18328   3.456   1.976  10.790
 5981SOL    HW118329   3.438   2.043  10.718
 5981SOL    HW218330   3.453   2.022  10.879
 5982SOL     OW18331   1.984   2.505   9.873
 5982SOL    HW118332   1.939   2.417   9.890
 5982SOL    HW218333   1.983   2.559   9.957
 5983SOL     OW18334   3.704   3.629   9.669
 5983SOL    HW118335   3.758   3.600   9.749
 5983SOL    HW218336   3.734   3.719   9.640
 5984SOL     OW18337   1.889   3.458   9.427
 5984SOL    HW118338   1.870   3.362   9.448
 5984SOL    HW218339   1.856   3.516   9.502
 5985SOL     OW18340   3.551   2.784   9.922
 5985SOL    HW118341   3.646   2.755   9.930
 5985SOL    HW218342   3.543   2.849   9.847
 5986SOL     OW18343   3.503   2.970   9.742
 5986SOL    HW118344   3.589   2.972   9.690
 5986SOL    HW218345   3.517   3.017   9.830
 5987SOL     OW18346   1.975   2.599  10.907
 5987SOL    HW118347   2.063   2.586  10.952
 5987SOL    HW218348   1.962   2.696  10.885
 5988SOL     OW18349   2.475   3.227  10.036
 5988SOL    HW118350   2.426   3.140  10.045
 5988SOL    HW218351   2.452   3.270   9.949
 5989SOL     OW18352   3.155   3.090  10.733
 5989SOL    HW118353   3.192   3.017  10.675
 5989SOL    HW218354   3.207   3.095  10.818
 5990SOL     OW18355   2.671   1.866   9.812
 5990SOL    HW118356   2.711   1.957   9.803
 5990SOL    HW218357   2.571   1.874   9.818
 5991SOL     OW18358   2.059   2.838  10.574
 5991SOL    HW118359   2.148   2.793  10.560
 5991SOL    HW218360   1.986   2.773  10.555
 5992SOL     OW18361   3.387   2.861   9.500
 5992SOL    HW118362   3.324   2.785   9.513
 5992SOL    HW218363   3.435   2.879   9.586
 5993SOL     OW18364   3.049   3.654  10.926
 5993SOL    HW118365   3.073   3.714  10.850
 5993SOL    HW218366   3.056   3.559  10.896
 5994SOL     OW18367   2.179   2.113  11.111
 5994SOL    HW118368   2.250   2.184  11.117
 5994SOL    HW218369   2.091   2.152  11.139
 5995SOL     OW18370   3.328   3.279  10.263
 5995SOL    HW118371   3.269   3.285  10.343
 5995SOL    HW218372   3.313   3.191  10.217
 5996SOL     OW18373   3.529   3.576   9.882
 5996SOL    HW118374   3.488   3.553   9.794
 5996SOL    HW218375   3.511   3.502   9.947
 5997SOL     OW18376   2.460   2.591   9.580
 5997SOL    HW118377   2.484   2.660   9.512
 5997SOL    HW218378   2.382   2.624   9.634
 5998SOL     OW18379   3.143   2.207  10.254
 5998SOL    HW118380   3.057   2.157  10.241
 5998SOL    HW218381   3.205   2.153  10.310
 5999SOL     OW18382   3.438   3.524   9.617
 5999SOL    HW118383   3.527   3.570   9.620
 5999SOL    HW218384   3.417   3.500   9.522
 6000SOL     OW18385   2.669   2.467  10.775
 6000SOL    HW118386   2.622   2.464  10.864
 6000SOL    HW218387   2.618   2.412  10.709
 6001SOL     OW18388   3.256   2.331  10.984
 6001SOL    HW118389   3.236   2.374  11.072
 6001SOL    HW218390   3.334   2.269  10.993
 6002SOL     OW18391   2.835   2.752  10.882
 6002SOL    HW118392   2.881   2.668  10.853
 6002SOL    HW218393   2.779   2.786  10.807
 6003SOL     OW18394   2.853   2.272  10.552
 6003SOL    HW118395   2.776   2.306  10.606
 6003SOL    HW218396   2.819   2.221  10.473
 6004SOL     OW18397   2.903   2.563   9.739
 6004SOL    HW118398   2.929   2.559   9.835
 6004SOL    HW218399   2.818   2.512   9.725
 6005SOL     OW18400   1.938   2.673  10.099
 6005SOL    HW118401   2.037   2.661  10.108
 6005SOL    HW218402   1.914   2.768  10.120
 6006SOL     OW18403   1.992   3.683  10.881
 6006SOL    HW118404   1.982   3.668  10.980
 6006SOL    HW218405   1.906   3.719  10.845
 6007SOL     OW18406   2.727   2.210   9.505
 6007SOL    HW118407   2.786   2.273   9.456
 6007SOL    HW218408   2.746   2.116   9.476
 6008SOL     OW18409   3.581   2.447  11.141
 6008SOL    HW118410   3.555   2.536  11.105
 6008SOL    HW218411   3.579   2.379  11.068
 6009SOL     OW18412   3.224   3.006   9.855
 6009SOL    HW118413   3.307   2.977   9.807
 6009SOL    HW218414   3.175   3.073   9.799
 6010SOL     OW18415   2.412   2.058  10.195
 6010SOL    HW118416   2.407   2.053  10.295
 6010SOL    HW218417   2.414   2.154  10.166
 6011SOL     OW18418   2.870   3.318   9.787
 6011SOL    HW118419   2.824   3.390   9.735
 6011SOL    HW218420   2.866   3.338   9.885
 6012SOL     OW18421   2.213   3.663  10.163
 6012SOL    HW118422   2.263   3.577  10.169
 6012SOL    HW218423   2.278   3.740  10.160
 6013SOL     OW18424   3.657   2.928  10.183
 6013SOL    HW118425   3.595   2.913  10.107
 6013SOL    HW218426   3.605   2.939  10.268
 6014SOL     OW18427   3.089   3.412  10.816
 6014SOL    HW118428   3.095   3.335  10.880
 6014SOL    HW218429   3.037   3.386  10.736
 6015SOL     OW18430   2.183   2.805   9.552
 6015SOL    HW118431   2.265   2.844   9.510
 6015SOL    HW218432   2.156   2.723   9.503
 6016SOL     OW18433   3.320   2.597  10.038
 6016SOL    HW118434   3.315   2.532  10.113
 6016SOL    HW218435   3.400   2.656  10.051
 6017SOL     OW18436   2.323   3.128  11.037
 6017SOL    HW118437   2.273   3.129  10.951
 6017SOL    HW218438   2.260   3.110  11.113
 6018SOL     OW18439   2.973   3.638   9.547
 6018SOL    HW118440   2.913   3.576   9.597
 6018SOL    HW218441   3.004   3.594   9.462
 6019SOL     OW18442   3.494   3.239   9.391
 6019SOL    HW118443   3.462   3.333   9.381
 6019SOL    HW218444   3.418   3.176   9.379
 6020SOL     OW18445   2.326   3.605   9.633
 6020SOL    HW118446   2.359   3.644   9.719
 6020SOL    HW218447   2.402   3.598   9.568
 6021SOL     OW18448   3.262   1.969   9.736
 6021SOL    HW118449   3.238   1.932   9.646
 6021SOL    HW218450   3.361   1.985   9.740
 6022SOL     OW18451   2.111   3.647  10.551
 6022SOL    HW118452   2.168   3.582  10.601
 6022SOL    HW218453   2.095   3.614  10.458
 6023SOL     OW18454   2.802   3.560  10.214
 6023SOL    HW118455   2.882   3.503  10.235
 6023SOL    HW218456   2.753   3.520  10.137
 6024SOL     OW18457   2.244   2.562   9.790
 6024SOL    HW118458   2.289   2.472   9.787
 6024SOL    HW218459   2.150   2.551   9.823
 6025SOL     OW18460   3.409   2.084  11.039
 6025SOL    HW118461   3.404   2.121  11.131
 6025SOL    HW218462   3.337   2.015  11.027
 6026SOL     OW18463   2.476   1.984   9.427
 6026SOL    HW118464   2.574   1.962   9.434
 6026SOL    HW218465   2.445   1.967   9.334
 6027SOL     OW18466   2.643   2.126  11.059
 6027SOL    HW118467   2.710   2.065  11.102
 6027SOL    HW218468   2.570   2.145  11.124
 6028SOL     OW18469   2.750   3.376  10.505
 6028SOL    HW118470   2.727   3.351  10.411
 6028SOL    HW218471   2.811   3.307  10.544
 6029SOL     OW18472   3.213   2.452  10.743
 6029SOL    HW118473   3.241   2.409  10.828
 6029SOL    HW218474   3.238   2.548  10.744
 6030SOL     OW18475   2.665   3.264  10.234
 6030SOL    HW118476   2.755   3.278  10.192
 6030SOL    HW218477   2.594   3.266  10.163
 6031SOL     OW18478   2.784   2.365  10.209
 6031SOL    HW118479   2.759   2.356  10.113
 6031SOL    HW218480   2.832   2.283  10.240
 6032SOL     OW18481   2.401   1.926   9.822
 6032SOL    HW118482   2.320   1.927   9.880
 6032SOL    HW218483   2.404   2.009   9.767
 6033SOL     OW18484   3.296   3.050   9.351
 6033SOL    HW118485   3.328   2.974   9.408
 6033SOL    HW218486   3.204   3.077   9.381
 6034SOL     OW18487   2.797   2.098   9.790
 6034SOL    HW118488   2.749   2.139   9.712
 6034SOL    HW218489   2.896   2.096   9.771
 6035SOL     OW18490   2.938   2.545  10.774
 6035SOL    HW118491   2.858   2.484  10.777
 6035SOL    HW218492   3.019   2.492  10.750
 6036SOL     OW18493   3.089   3.432  10.103
 6036SOL    HW118494   3.110   3.506  10.038
 6036SOL    HW218495   3.157   3.432  10.176
 6037SOL     OW18496   2.321   3.014  10.051
 6037SOL    HW118497   2.250   2.987  10.116
 6037SOL    HW218498   2.295   2.986   9.958
 6038SOL     OW18499   3.133   3.659   9.901
 6038SOL    HW118500   3.177   3.723   9.837
 6038SOL    HW218501   3.083   3.711   9.971
 6039SOL     OW18502   2.894   2.411   9.326
 6039SOL    HW118503   2.853   2.493   9.287
 6039SOL    HW218504   2.958   2.437   9.399
 6040SOL     OW18505   1.940   2.418  10.696
 6040SOL    HW118506   2.032   2.417  10.655
 6040SOL    HW218507   1.934   2.492  10.763
 6041SOL     OW18508   2.423   2.084  10.457
 6041SOL    HW118509   2.461   2.000  10.494
 6041SOL    HW218510   2.335   2.103  10.501
 6042SOL     OW18511   2.728   2.316   9.952
 6042SOL    HW118512   2.696   2.388   9.890
 6042SOL    HW218513   2.752   2.235   9.899
 6043SOL     OW18514   2.879   1.901  10.063
 6043SOL    HW118515   2.807   1.906   9.994
 6043SOL    HW218516   2.855   1.832  10.132
 6044SOL     OW18517   3.291   3.035  10.177
 6044SOL    HW118518   3.236   2.951  10.170
 6044SOL    HW218519   3.317   3.064  10.085
 6045SOL     OW18520   3.328   2.452  10.302
 6045SOL    HW118521   3.298   2.357  10.309
 6045SOL    HW218522   3.401   2.468  10.368
 6046SOL     OW18523   3.719   2.695   9.687
 6046SOL    HW118524   3.761   2.631   9.751
 6046SOL    HW218525   3.681   2.644   9.609
 6047SOL     OW18526   2.350   3.247   9.484
 6047SOL    HW118527   2.263   3.232   9.531
 6047SOL    HW218528   2.333   3.273   9.389
 6048SOL     OW18529   3.526   3.142   9.967
 6048SOL    HW118530   3.625   3.150   9.981
 6048SOL    HW218531   3.481   3.226   9.998
 6049SOL     OW18532   3.252   2.437   9.388
 6049SOL    HW118533   3.198   2.416   9.469
 6049SOL    HW218534   3.343   2.396   9.397
 6050SOL     OW18535   2.389   2.118   9.638
 6050SOL    HW118536   2.416   2.059   9.563
 6050SOL    HW218537   2.389   2.213   9.607
 6051SOL     OW18538   3.616   3.085  10.898
 6051SOL    HW118539   3.707   3.046  10.885
 6051SOL    HW218540   3.624   3.181  10.922
 6052SOL     OW18541   2.926   3.209  10.650
 6052SOL    HW118542   2.846   3.186  10.705
 6052SOL    HW218543   3.009   3.183  10.699
 6053SOL     OW18544   3.454   3.491  10.935
 6053SOL    HW118545   3.481   3.525  10.845
 6053SOL    HW218546   3.533   3.453  10.981
 6054SOL     OW18547   2.973   3.057  10.410
 6054SOL    HW118548   2.933   3.101  10.491
 6054SOL    HW218549   2.932   3.094  10.327
 6055SOL     OW18550   3.500   2.961  10.389
 6055SOL    HW118551   3.505   3.042  10.448
 6055SOL    HW218552   3.414   2.963  10.338
 6056SOL     OW18553   2.777   1.951  10.712
 6056SOL    HW118554   2.802   1.931  10.617
 6056SOL    HW218555   2.849   2.007  10.754
 6057SOL     OW18556   2.842   2.978  11.029
 6057SOL    HW118557   2.743   2.984  11.039
 6057SOL    HW218558   2.865   2.898  10.973
 6058SOL     OW18559   2.567   2.912   9.678
 6058SOL    HW118560   2.553   2.919   9.777
 6058SOL    HW218561   2.651   2.861   9.660
 6059SOL     OW18562   2.272   2.675  10.561
 6059SOL    HW118563   2.358   2.687  10.611
 6059SOL    HW218564   2.230   2.588  10.588
 6060SOL     OW18565   3.136   2.248  10.572
 6060SOL    HW118566   3.157   2.322  10.636
 6060SOL    HW218567   3.047   2.265  10.529
 6061SOL     OW18568   1.926   3.426  10.641
 6061SOL    HW118569   1.880   3.508  10.607
 6061SOL    HW218570   2.024   3.445  10.650
 6062SOL     OW18571   2.229   2.962   9.811
 6062SOL    HW118572   2.222   3.045   9.755
 6062SOL    HW218573   2.233   2.882   9.751
 6063SOL     OW18574   2.428   2.399  10.175
 6063SOL    HW118575   2.440   2.465  10.101
 6063SOL    HW218576   2.474   2.433  10.258
 6064SOL     OW18577   3.114   3.210   9.698
 6064SOL    HW118578   3.164   3.287   9.738
 6064SOL    HW218579   3.019   3.212   9.730
 6065SOL     OW18580   3.134   3.307  10.452
 6065SOL    HW118581   3.181   3.320  10.539
 6065SOL    HW218582   3.068   3.233  10.461
 6066SOL     OW18583   3.444   2.501   9.782
 6066SOL    HW118584   3.413   2.562   9.855
 6066SOL    HW218585   3.494   2.553   9.713
 6067SOL     OW18586   2.216   3.372  10.639
 6067SOL    HW118587   2.195   3.328  10.552
 6067SOL    HW218588   2.313   3.398  10.642
 6068SOL     OW18589   2.264   2.613  10.908
 6068SOL    HW118590   2.332   2.668  10.861
 6068SOL    HW218591   2.304   2.525  10.935
 6069SOL     OW18592   3.449   2.641  10.980
 6069SOL    HW118593   3.357   2.679  10.975
 6069SOL    HW218594   3.509   2.688  10.915
 6070SOL     OW18595   2.875   1.967  11.080
 6070SOL    HW118596   2.881   2.052  11.028
 6070SOL    HW218597   2.907   1.891  11.023
 6071SOL     OW18598   2.366   1.912  11.050
 6071SOL    HW118599   2.324   1.855  10.980
 6071SOL    HW218600   2.300   1.981  11.082
 6072SOL     OW18601   2.435   2.732  10.339
 6072SOL    HW118602   2.479   2.821  10.330
 6072SOL    HW218603   2.372   2.732  10.416
 6073SOL     OW18604   3.222   2.724  10.355
 6073SOL    HW118605   3.147   2.724  10.289
 6073SOL    HW218606   3.259   2.632  10.364
 6074SOL     OW18607   3.071   2.387   9.585
 6074SOL    HW118608   3.084   2.303   9.639
 6074SOL    HW218609   3.042   2.461   9.645
 6075SOL     OW18610   1.899   3.172  10.592
 6075SOL    HW118611   1.952   3.123  10.660
 6075SOL    HW218612   1.921   3.270  10.597
 6076SOL     OW18613   2.594   2.496  10.374
 6076SOL    HW118614   2.653   2.470  10.298
 6076SOL    HW218615   2.566   2.592  10.363
 6077SOL     OW18616   3.590   2.797  11.164
 6077SOL    HW118617   3.544   2.790  11.075
 6077SOL    HW218618   3.528   2.841  11.230
 6078SOL     OW18619   3.484   2.229   9.684
 6078SOL    HW118620   3.486   2.153   9.748
 6078SOL    HW218621   3.436   2.306   9.724
 6079SOL     OW18622   2.885   2.628  10.276
 6079SOL    HW118623   2.900   2.649  10.372
 6079SOL    HW218624   2.855   2.533  10.267
 6080SOL     OW18625   2.842   3.435  11.010
 6080SOL    HW118626   2.822   3.479  10.922
 6080SOL    HW218627   2.881   3.344  10.994
 6081SOL     OW18628   3.721   3.380  10.915
 6081SOL    HW118629   3.735   3.407  10.820
 6081SOL    HW218630   3.804   3.402  10.968
 6082SOL     OW18631   2.212   2.760  11.114
 6082SOL    HW118632   2.288   2.804  11.162
 6082SOL    HW218633   2.247   2.713  11.032
 6083SOL     OW18634   3.402   2.136   9.435
 6083SOL    HW118635   3.341   2.061   9.458
 6083SOL    HW218636   3.424   2.188   9.518
 6084SOL     OW18637   3.165   2.700   9.352
 6084SOL    HW118638   3.199   2.607   9.367
 6084SOL    HW218639   3.183   2.727   9.257
 6085SOL     OW18640   2.930   3.195  10.159
 6085SOL    HW118641   2.937   3.111  10.104
 6085SOL    HW218642   2.992   3.264  10.123
 6086SOL     OW18643   2.181   2.672  10.259
 6086SOL    HW118644   2.274   2.708  10.264
 6086SOL    HW218645   2.175   2.587  10.311
 6087SOL     OW18646   2.201   2.371  10.316
 6087SOL    HW118647   2.149   2.288  10.299
 6087SOL    HW218648   2.278   2.376  10.252
 6088SOL     OW18649   3.000   2.242  10.988
 6088SOL    HW118650   2.955   2.305  11.052
 6088SOL    HW218651   3.093   2.273  10.971
 6089SOL     OW18652   3.022   2.069  10.787
 6089SOL    HW118653   3.022   2.133  10.864
 6089SOL    HW218654   3.050   2.117  10.704
 6090SOL     OW18655   1.870   3.188   9.510
 6090SOL    HW118656   1.777   3.209   9.479
 6090SOL    HW218657   1.880   3.089   9.523
 6091SOL     OW18658   1.950   3.663  10.237
 6091SOL    HW118659   1.908   3.577  10.210
 6091SOL    HW218660   2.044   3.666  10.203
 6092SOL     OW18661   2.366   3.430  10.220
 6092SOL    HW118662   2.432   3.504  10.229
 6092SOL    HW218663   2.410   3.351  10.178
 6093SOL     OW18664   2.864   2.658  10.548
 6093SOL    HW118665   2.905   2.626  10.634
 6093SOL    HW218666   2.768   2.631  10.545
 6094SOL     OW18667   1.902   2.406  10.424
 6094SOL    HW118668   1.987   2.373  10.383
 6094SOL    HW218669   1.915   2.421  10.522
 6095SOL     OW18670   2.051   2.382  11.032
 6095SOL    HW118671   2.110   2.342  10.962
 6095SOL    HW218672   1.993   2.453  10.991
 6096SOL     OW18673   3.231   2.812  10.970
 6096SOL    HW118674   3.270   2.901  10.990
 6096SOL    HW218675   3.241   2.792  10.873
 6097SOL     OW18676   2.677   2.434   9.635
 6097SOL    HW118677   2.684   2.345   9.589
 6097SOL    HW218678   2.583   2.468   9.627
 6098SOL     OW18679   3.519   2.466  10.516
 6098SOL    HW118680   3.481   2.397  10.578
 6098SOL    HW218681   3.601   2.430  10.472
 6099SOL     OW18682   2.114   3.426  11.054
 6099SOL    HW118683   2.084   3.483  11.130
 6099SOL    HW218684   2.107   3.329  11.080
 6100SOL     OW18685   2.533   2.326  10.579
 6100SOL    HW118686   2.499   2.237  10.549
 6100SOL    HW218687   2.559   2.380  10.499
 6101SOL     OW18688   2.792   3.540  10.775
 6101SOL    HW118689   2.768   3.522  10.680
 6101SOL    HW218690   2.822   3.634  10.785
 6102SOL     OW18691   2.335   2.362   9.501
 6102SOL    HW118692   2.396   2.442   9.505
 6102SOL    HW218693   2.240   2.393   9.508
 6103SOL     OW18694   2.021   2.999  10.776
 6103SOL    HW118695   2.043   2.938  10.852
 6103SOL    HW218696   2.031   2.950  10.690
 6104SOL     OW18697   3.209   2.921  10.544
 6104SOL    HW118698   3.233   2.858  10.470
 6104SOL    HW218699   3.119   2.961  10.526
 6105SOL     OW18700   3.164   2.717   9.619
 6105SOL    HW118701   3.078   2.686   9.661
 6105SOL    HW218702   3.160   2.703   9.520
 6106SOL     OW18703   3.621   3.609  10.464
 6106SOL    HW118704   3.682   3.639  10.391
 6106SOL    HW218705   3.583   3.520  10.442
 6107SOL     OW18706   3.114   3.593  10.438
 6107SOL    HW118707   3.198   3.598  10.384
 6107SOL    HW218708   3.091   3.497  10.456
 6108SOL     OW18709   1.945   3.120  10.332
 6108SOL    HW118710   1.940   3.119  10.432
 6108SOL    HW218711   1.862   3.079  10.294
 6109SOL     OW18712   2.550   3.524  11.026
 6109SOL    HW118713   2.494   3.605  11.035
 6109SOL    HW218714   2.602   3.528  10.940
 6110SOL     OW18715   3.588   1.997   9.833
 6110SOL    HW118716   3.661   1.980   9.766
 6110SOL    HW218717   3.557   1.910   9.871
 6111SOL     OW18718   3.250   3.435   9.787
 6111SOL    HW118719   3.317   3.447   9.713
 6111SOL    HW218720   3.210   3.524   9.810
 6112SOL     OW18721   1.992   3.656  11.161
 6112SOL    HW118722   1.951   3.582  11.214
 6112SOL    HW218723   2.056   3.707  11.219
 6113SOL     OW18724   3.142   2.789   9.982
 6113SOL    HW118725   3.202   2.708   9.984
 6113SOL    HW218726   3.182   2.858   9.922
 6114SOL     OW18727   2.692   3.135  10.732
 6114SOL    HW118728   2.687   3.168  10.827
 6114SOL    HW218729   2.606   3.154  10.686
 6115SOL     OW18730   2.534   3.478   9.464
 6115SOL    HW118731   2.543   3.488   9.365
 6115SOL    HW218732   2.494   3.389   9.485
 6116SOL     OW18733   3.512   3.582  10.704
 6116SOL    HW118734   3.565   3.592  10.620
 6116SOL    HW218735   3.485   3.672  10.738
 6117SOL     OW18736   3.703   2.037  10.273
 6117SOL    HW118737   3.742   1.952  10.237
 6117SOL    HW218738   3.605   2.039  10.254
 6118SOL     OW18739   3.056   3.474   9.341
 6118SOL    HW118740   3.062   3.381   9.378
 6118SOL    HW218741   2.997   3.474   9.261
 6119SOL     OW18742   2.684   2.864  10.682
 6119SOL    HW118743   2.724   2.863  10.590
 6119SOL    HW218744   2.694   2.956  10.722
 6120SOL     OW18745   2.778   2.772   9.601
 6120SOL    HW118746   2.841   2.810   9.533
 6120SOL    HW218747   2.818   2.689   9.640
 6121SOL     OW18748   3.366   3.469   9.354
 6121SOL    HW118749   3.274   3.506   9.361
 6121SOL    HW218750   3.404   3.489   9.264
 6122SOL     OW18751   2.234   3.150  10.800
 6122SOL    HW118752   2.221   3.243  10.766
 6122SOL    HW218753   2.150   3.098  10.787
 6123SOL     OW18754   3.476   3.154  10.599
 6123SOL    HW118755   3.536   3.157  10.679
 6123SOL    HW218756   3.401   3.218  10.612
 6124SOL     OW18757   2.901   2.960  10.006
 6124SOL    HW118758   2.831   2.913  10.060
 6124SOL    HW218759   2.960   2.892   9.963
 6125SOL     OW18760   2.876   2.098  10.281
 6125SOL    HW118761   2.868   2.062  10.188
 6125SOL    HW218762   2.874   2.022  10.346
 6126SOL     OW18763   2.452   3.349   9.801
 6126SOL    HW118764   2.494   3.291   9.731
 6126SOL    HW218765   2.408   3.428   9.757
 6127SOL     OW18766   3.571   2.247  10.691
 6127SOL    HW118767   3.644   2.316  10.695
 6127SOL    HW218768   3.599   2.172  10.632
 6128SOL     OW18769   2.117   3.210   9.600
 6128SOL    HW118770   2.021   3.211   9.573
 6128SOL    HW218771   2.129   3.263   9.684
 6129SOL     OW18772   1.967   2.875  11.036
 6129SOL    HW118773   1.890   2.842  11.090
 6129SOL    HW218774   2.052   2.845  11.078
 6130SOL     OW18775   2.534   2.065  10.799
 6130SOL    HW118776   2.624   2.049  10.759
 6130SOL    HW218777   2.542   2.070  10.898
 6131SOL     OW18778   3.302   2.718  10.708
 6131SOL    HW118779   3.245   2.770  10.645
 6131SOL    HW218780   3.398   2.730  10.684
 6132SOL     OW18781   3.045   3.197   9.429
 6132SOL    HW118782   2.946   3.186   9.431
 6132SOL    HW218783   3.079   3.212   9.522
 6133SOL     OW18784   2.475   2.704  10.741
 6133SOL    HW118785   2.531   2.785  10.724
 6133SOL    HW218786   2.534   2.624  10.744
 6134SOL     OW18787   3.355   3.629  10.269
 6134SOL    HW118788   3.388   3.693  10.200
 6134SOL    HW218789   3.421   3.623  10.344
 6135SOL     OW18790   2.578   2.427  11.018
 6135SOL    HW118791   2.597   2.492  11.092
 6135SOL    HW218792   2.638   2.347  11.027
 6136SOL     OW18793   3.312   3.082  10.943
 6136SOL    HW118794   3.303   3.072  11.042
 6136SOL    HW218795   3.408   3.075  10.917
 6137SOL     OW18796   2.252   3.603  10.870
 6137SOL    HW118797   2.161   3.644  10.868
 6137SOL    HW218798   2.245   3.509  10.902
 6138SOL     OW18799   3.536   2.745  10.564
 6138SOL    HW118800   3.509   2.656  10.527
 6138SOL    HW218801   3.537   2.813  10.491
 6139SOL     OW18802   3.087   2.187   9.759
 6139SOL    HW118803   3.152   2.113   9.748
 6139SOL    HW218804   3.107   2.237   9.843
 6140SOL     OW18805   2.456   2.607   9.962
 6140SOL    HW118806   2.506   2.692   9.943
 6140SOL    HW218807   2.368   2.609   9.914
 6141SOL     OW18808   3.639   2.204  10.952
 6141SOL    HW118809   3.622   2.235  10.858
 6141SOL    HW218810   3.555   2.167  10.990
 6142SOL     OW18811   3.592   2.796  10.827
 6142SOL    HW118812   3.630   2.887  10.842
 6142SOL    HW218813   3.584   2.779  10.728
 6143SOL     OW18814   2.721   3.236   9.326
 6143SOL    HW118815   2.675   3.251   9.414
 6143SOL    HW218816   2.765   3.321   9.296
 6144SOL     OW18817   2.523   3.652  10.263
 6144SOL    HW118818   2.477   3.740  10.250
 6144SOL    HW218819   2.622   3.664  10.256
 6145SOL     OW18820   2.721   2.818  10.171
 6145SOL    HW118821   2.775   2.749  10.219
 6145SOL    HW218822   2.689   2.887  10.237
 6146SOL     OW18823   2.945   2.846   9.397
 6146SOL    HW118824   2.922   2.899   9.315
 6146SOL    HW218825   3.026   2.790   9.378
 6147SOL     OW18826   3.723   3.431  10.161
 6147SOL    HW118827   3.652   3.419  10.091
 6147SOL    HW218828   3.724   3.352  10.221
 6148SOL     OW18829   2.083   3.176  11.154
 6148SOL    HW118830   2.018   3.103  11.133
 6148SOL    HW218831   2.087   3.190  11.252
 6149SOL     OW18832   1.941   3.102   9.963
 6149SOL    HW118833   1.940   3.055  10.051
 6149SOL    HW218834   2.023   3.074   9.912
 6150SOL     OW18835   2.534   3.253  10.934
 6150SOL    HW118836   2.456   3.203  10.972
 6150SOL    HW218837   2.531   3.348  10.965
 6151SOL     OW18838   3.686   2.054  10.537
 6151SOL    HW118839   3.682   1.964  10.581
 6151SOL    HW218840   3.689   2.043  10.438
 6152SOL     OW18841   2.290   2.286   9.830
 6152SOL    HW118842   2.320   2.214   9.768
 6152SOL    HW218843   2.251   2.246   9.913
 6153SOL     OW18844   3.567   3.349  10.414
 6153SOL    HW118845   3.474   3.324  10.387
 6153SOL    HW218846   3.593   3.299  10.496
 6154SOL     OW18847   2.179   2.409  10.590
 6154SOL    HW118848   2.217   2.350  10.662
 6154SOL    HW218849   2.219   2.383  10.502
 6155SOL     OW18850   2.674   3.448   9.997
 6155SOL    HW118851   2.706   3.458   9.903
 6155SOL    HW218852   2.595   3.386   9.999
 6156SOL     OW18853   3.286   2.076  10.422
 6156SOL    HW118854   3.338   2.011  10.477
 6156SOL    HW218855   3.237   2.139  10.483
 6157SOL     OW18856   2.863   1.896  10.464
 6157SOL    HW118857   2.800   1.824  10.433
 6157SOL    HW218858   2.956   1.860  10.464
 6158SOL     OW18859   2.632   3.192   9.611
 6158SOL    HW118860   2.586   3.105   9.628
 6158SOL    HW218861   2.723   3.189   9.652
 6159SOL     OW18862   2.480   3.429  10.594
 6159SOL    HW118863   2.475   3.511  10.651
 6159SOL    HW218864   2.569   3.426  10.549
 6160SOL     OW18865   3.214   1.914   9.478
 6160SOL    HW118866   3.249   1.873   9.394
 6160SOL    HW218867   3.124   1.876   9.498
 6161SOL     OW18868   3.162   2.315  10.001
 6161SOL    HW118869   3.103   2.395  10.005
 6161SOL    HW218870   3.177   2.280  10.094
 6162SOL     OW18871   3.455   2.083  10.192
 6162SOL    HW118872   3.371   2.082  10.246
 6162SOL    HW218873   3.457   2.166  10.136
 6163SOL     OW18874   1.901   2.939   9.610
 6163SOL    HW118875   2.000   2.928   9.601
 6163SOL    HW218876   1.861   2.853   9.642
 6164SOL     OW18877   2.737   3.508   9.647
 6164SOL    HW118878   2.660   3.473   9.593
 6164SOL    HW218879   2.705   3.579   9.709
 6165SOL     OW18880   2.092   2.490  11.285
 6165SOL    HW118881   1.999   2.488  11.322
 6165SOL    HW218882   2.093   2.451  11.193
 6166SOL     OW18883   1.881   2.230  11.819
 6166SOL    HW118884   1.799   2.273  11.858
 6166SOL    HW218885   1.853   2.157  11.756
 6167SOL     OW18886   2.431   3.137  12.337
 6167SOL    HW118887   2.338   3.130  12.300
 6167SOL    HW218888   2.442   3.226  12.381
 6168SOL     OW18889   3.417   3.373  11.875
 6168SOL    HW118890   3.360   3.357  11.956
 6168SOL    HW218891   3.358   3.383  11.795
 6169SOL     OW18892   2.997   2.565  11.889
 6169SOL    HW118893   3.054   2.643  11.864
 6169SOL    HW218894   2.937   2.591  11.965
 6170SOL     OW18895   3.617   2.469  11.403
 6170SOL    HW118896   3.605   2.456  11.304
 6170SOL    HW218897   3.587   2.388  11.452
 6171SOL     OW18898   2.630   3.006  12.195
 6171SOL    HW118899   2.552   3.023  12.255
 6171SOL    HW218900   2.664   3.093  12.159
 6172SOL     OW18901   2.712   2.660  12.995
 6172SOL    HW118902   2.708   2.736  13.060
 6172SOL    HW218903   2.734   2.696  12.904
 6173SOL     OW18904   2.547   2.874  11.837
 6173SOL    HW118905   2.616   2.858  11.907
 6173SOL    HW218906   2.474   2.931  11.875
 6174SOL     OW18907   2.548   3.023  12.975
 6174SOL    HW118908   2.608   3.102  12.989
 6174SOL    HW218909   2.462   3.054  12.934
 6175SOL     OW18910   2.197   3.297  12.233
 6175SOL    HW118911   2.119   3.266  12.180
 6175SOL    HW218912   2.255   3.355  12.176
 6176SOL     OW18913   3.322   3.367  12.511
 6176SOL    HW118914   3.346   3.461  12.537
 6176SOL    HW218915   3.306   3.313  12.593
 6177SOL     OW18916   2.300   2.254  12.671
 6177SOL    HW118917   2.382   2.198  12.680
 6177SOL    HW218918   2.219   2.196  12.675
 6178SOL     OW18919   3.465   2.309  11.909
 6178SOL    HW118920   3.391   2.355  11.859
 6178SOL    HW218921   3.516   2.377  11.962
 6179SOL     OW18922   2.093   3.575  11.655
 6179SOL    HW118923   2.127   3.652  11.709
 6179SOL    HW218924   2.137   3.575  11.565
 6180SOL     OW18925   2.989   3.203  12.862
 6180SOL    HW118926   3.036   3.203  12.950
 6180SOL    HW218927   2.941   3.116  12.851
 6181SOL     OW18928   2.092   3.296  11.710
 6181SOL    HW118929   2.066   3.392  11.710
 6181SOL    HW218930   2.021   3.242  11.755
 6182SOL     OW18931   2.102   2.953  12.058
 6182SOL    HW118932   2.116   2.869  12.110
 6182SOL    HW218933   2.047   3.017  12.113
 6183SOL     OW18934   2.482   3.648  12.611
 6183SOL    HW118935   2.390   3.631  12.646
 6183SOL    HW218936   2.510   3.740  12.637
 6184SOL     OW18937   2.468   2.826  11.295
 6184SOL    HW118938   2.475   2.910  11.241
 6184SOL    HW218939   2.514   2.839  11.383
 6185SOL     OW18940   3.456   1.976  12.652
 6185SOL    HW118941   3.438   2.043  12.580
 6185SOL    HW218942   3.453   2.022  12.741
 6186SOL     OW18943   1.984   2.505  11.735
 6186SOL    HW118944   1.939   2.417  11.752
 6186SOL    HW218945   1.983   2.559  11.819
 6187SOL     OW18946   3.704   3.629  11.531
 6187SOL    HW118947   3.758   3.600  11.611
 6187SOL    HW218948   3.734   3.719  11.502
 6188SOL     OW18949   1.889   3.458  11.289
 6188SOL    HW118950   1.870   3.362  11.310
 6188SOL    HW218951   1.856   3.516  11.364
 6189SOL     OW18952   3.551   2.784  11.784
 6189SOL    HW118953   3.646   2.755  11.792
 6189SOL    HW218954   3.543   2.849  11.709
 6190SOL     OW18955   3.503   2.970  11.604
 6190SOL    HW118956   3.589   2.972  11.552
 6190SOL    HW218957   3.517   3.017  11.692
 6191SOL     OW18958   1.975   2.599  12.769
 6191SOL    HW118959   2.063   2.586  12.814
 6191SOL    HW218960   1.962   2.696  12.747
 6192SOL     OW18961   2.475   3.227  11.898
 6192SOL    HW118962   2.426   3.140  11.907
 6192SOL    HW218963   2.452   3.270  11.811
 6193SOL     OW18964   3.155   3.090  12.595
 6193SOL    HW118965   3.192   3.017  12.537
 6193SOL    HW218966   3.207   3.095  12.680
 6194SOL     OW18967   2.671   1.866  11.674
 6194SOL    HW118968   2.711   1.957  11.665
 6194SOL    HW218969   2.571   1.874  11.680
 6195SOL     OW18970   2.059   2.838  12.436
 6195SOL    HW118971   2.148   2.793  12.422
 6195SOL    HW218972   1.986   2.773  12.417
 6196SOL     OW18973   3.387   2.861  11.362
 6196SOL    HW118974   3.324   2.785  11.375
 6196SOL    HW218975   3.435   2.879  11.448
 6197SOL     OW18976   3.049   3.654  12.788
 6197SOL    HW118977   3.073   3.714  12.712
 6197SOL    HW218978   3.056   3.559  12.758
 6198SOL     OW18979   2.179   2.113  12.973
 6198SOL    HW118980   2.250   2.184  12.979
 6198SOL    HW218981   2.091   2.152  13.001
 6199SOL     OW18982   3.328   3.279  12.125
 6199SOL    HW118983   3.269   3.285  12.205
 6199SOL    HW218984   3.313   3.191  12.079
 6200SOL     OW18985   3.529   3.576  11.744
 6200SOL    HW118986   3.488   3.553  11.656
 6200SOL    HW218987   3.511   3.502  11.809
 6201SOL     OW18988   2.460   2.591  11.442
 6201SOL    HW118989   2.484   2.660  11.374
 6201SOL    HW218990   2.382   2.624  11.496
 6202SOL     OW18991   3.143   2.207  12.116
 6202SOL    HW118992   3.057   2.157  12.103
 6202SOL    HW218993   3.205   2.153  12.172
 6203SOL     OW18994   3.438   3.524  11.479
 6203SOL    HW118995   3.527   3.570  11.482
 6203SOL    HW218996   3.417   3.500  11.384
 6204SOL     OW18997   2.669   2.467  12.637
 6204SOL    HW118998   2.622   2.464  12.726
 6204SOL    HW218999   2.618   2.412  12.571
 6205SOL     OW19000   3.256   2.331  12.846
 6205SOL    HW119001   3.236   2.374  12.934
 6205SOL    HW219002   3.334   2.269  12.855
 6206SOL     OW19003   2.835   2.752  12.744
 6206SOL    HW119004   2.881   2.668  12.715
 6206SOL    HW219005   2.779   2.786  12.669
 6207SOL     OW19006   2.853   2.272  12.414
 6207SOL    HW119007   2.776   2.306  12.468
 6207SOL    HW219008   2.819   2.221  12.335
 6208SOL     OW19009   2.903   2.563  11.601
 6208SOL    HW119010   2.929   2.559  11.697
 6208SOL    HW219011   2.818   2.512  11.587
 6209SOL     OW19012   1.938   2.673  11.961
 6209SOL    HW119013   2.037   2.661  11.970
 6209SOL    HW219014   1.914   2.768  11.982
 6210SOL     OW19015   1.992   3.683  12.743
 6210SOL    HW119016   1.982   3.668  12.842
 6210SOL    HW219017   1.906   3.719  12.707
 6211SOL     OW19018   2.727   2.210  11.367
 6211SOL    HW119019   2.786   2.273  11.318
 6211SOL    HW219020   2.746   2.116  11.338
 6212SOL     OW19021   3.581   2.447  13.003
 6212SOL    HW119022   3.555   2.536  12.967
 6212SOL    HW219023   3.579   2.379  12.930
 6213SOL     OW19024   3.224   3.006  11.717
 6213SOL    HW119025   3.307   2.977  11.669
 6213SOL    HW219026   3.175   3.073  11.661
 6214SOL     OW19027   2.412   2.058  12.057
 6214SOL    HW119028   2.407   2.053  12.157
 6214SOL    HW219029   2.414   2.154  12.028
 6215SOL     OW19030   2.870   3.318  11.649
 6215SOL    HW119031   2.824   3.390  11.597
 6215SOL    HW219032   2.866   3.338  11.747
 6216SOL     OW19033   2.213   3.663  12.025
 6216SOL    HW119034   2.263   3.577  12.031
 6216SOL    HW219035   2.278   3.740  12.022
 6217SOL     OW19036   3.657   2.928  12.045
 6217SOL    HW119037   3.595   2.913  11.969
 6217SOL    HW219038   3.605   2.939  12.130
 6218SOL     OW19039   3.089   3.412  12.678
 6218SOL    HW119040   3.095   3.335  12.742
 6218SOL    HW219041   3.037   3.386  12.598
 6219SOL     OW19042   2.183   2.805  11.414
 6219SOL    HW119043   2.265   2.844  11.372
 6219SOL    HW219044   2.156   2.723  11.365
 6220SOL     OW19045   3.320   2.597  11.900
 6220SOL    HW119046   3.315   2.532  11.975
 6220SOL    HW219047   3.400   2.656  11.913
 6221SOL     OW19048   2.323   3.128  12.899
 6221SOL    HW119049   2.273   3.129  12.813
 6221SOL    HW219050   2.260   3.110  12.975
 6222SOL     OW19051   2.973   3.638  11.409
 6222SOL    HW119052   2.913   3.576  11.459
 6222SOL    HW219053   3.004   3.594  11.324
 6223SOL     OW19054   3.494   3.239  11.253
 6223SOL    HW119055   3.462   3.333  11.243
 6223SOL    HW219056   3.418   3.176  11.241
 6224SOL     OW19057   2.326   3.605  11.495
 6224SOL    HW119058   2.359   3.644  11.581
 6224SOL    HW219059   2.402   3.598  11.430
 6225SOL     OW19060   3.262   1.969  11.598
 6225SOL    HW119061   3.238   1.932  11.508
 6225SOL    HW219062   3.361   1.985  11.602
 6226SOL     OW19063   2.111   3.647  12.413
 6226SOL    HW119064   2.168   3.582  12.463
 6226SOL    HW219065   2.095   3.614  12.320
 6227SOL     OW19066   2.802   3.560  12.076
 6227SOL    HW119067   2.882   3.503  12.097
 6227SOL    HW219068   2.753   3.520  11.999
 6228SOL     OW19069   2.244   2.562  11.652
 6228SOL    HW119070   2.289   2.472  11.649
 6228SOL    HW219071   2.150   2.551  11.685
 6229SOL     OW19072   3.409   2.084  12.901
 6229SOL    HW119073   3.404   2.121  12.993
 6229SOL    HW219074   3.337   2.015  12.889
 6230SOL     OW19075   2.476   1.984  11.289
 6230SOL    HW119076   2.574   1.962  11.296
 6230SOL    HW219077   2.445   1.967  11.196
 6231SOL     OW19078   2.643   2.126  12.921
 6231SOL    HW119079   2.710   2.065  12.964
 6231SOL    HW219080   2.570   2.145  12.986
 6232SOL     OW19081   2.750   3.376  12.367
 6232SOL    HW119082   2.727   3.351  12.273
 6232SOL    HW219083   2.811   3.307  12.406
 6233SOL     OW19084   3.213   2.452  12.605
 6233SOL    HW119085   3.241   2.409  12.690
 6233SOL    HW219086   3.238   2.548  12.606
 6234SOL     OW19087   2.665   3.264  12.096
 6234SOL    HW119088   2.755   3.278  12.054
 6234SOL    HW219089   2.594   3.266  12.025
 6235SOL     OW19090   2.784   2.365  12.071
 6235SOL    HW119091   2.759   2.356  11.975
 6235SOL    HW219092   2.832   2.283  12.102
 6236SOL     OW19093   2.401   1.926  11.684
 6236SOL    HW119094   2.320   1.927  11.742
 6236SOL    HW219095   2.404   2.009  11.629
 6237SOL     OW19096   3.296   3.050  11.213
 6237SOL    HW119097   3.328   2.974  11.270
 6237SOL    HW219098   3.204   3.077  11.243
 6238SOL     OW19099   2.797   2.098  11.652
 6238SOL    HW119100   2.749   2.139  11.574
 6238SOL    HW219101   2.896   2.096  11.633
 6239SOL     OW19102   2.938   2.545  12.636
 6239SOL    HW119103   2.858   2.484  12.639
 6239SOL    HW219104   3.019   2.492  12.612
 6240SOL     OW19105   3.089   3.432  11.965
 6240SOL    HW119106   3.110   3.506  11.900
 6240SOL    HW219107   3.157   3.432  12.038
 6241SOL     OW19108   2.321   3.014  11.913
 6241SOL    HW119109   2.250   2.987  11.978
 6241SOL    HW219110   2.295   2.986  11.820
 6242SOL     OW19111   3.133   3.659  11.763
 6242SOL    HW119112   3.177   3.723  11.699
 6242SOL    HW219113   3.083   3.711  11.833
 6243SOL     OW19114   2.894   2.411  11.188
 6243SOL    HW119115   2.853   2.493  11.149
 6243SOL    HW219116   2.958   2.437  11.261
 6244SOL     OW19117   1.940   2.418  12.558
 6244SOL    HW119118   2.032   2.417  12.517
 6244SOL    HW219119   1.934   2.492  12.625
 6245SOL     OW19120   2.423   2.084  12.319
 6245SOL    HW119121   2.461   2.000  12.356
 6245SOL    HW219122   2.335   2.103  12.363
 6246SOL     OW19123   2.728   2.316  11.814
 6246SOL    HW119124   2.696   2.388  11.752
 6246SOL    HW219125   2.752   2.235  11.761
 6247SOL     OW19126   2.879   1.901  11.925
 6247SOL    HW119127   2.807   1.906  11.856
 6247SOL    HW219128   2.855   1.832  11.994
 6248SOL     OW19129   3.291   3.035  12.039
 6248SOL    HW119130   3.236   2.951  12.032
 6248SOL    HW219131   3.317   3.064  11.947
 6249SOL     OW19132   3.328   2.452  12.164
 6249SOL    HW119133   3.298   2.357  12.171
 6249SOL    HW219134   3.401   2.468  12.230
 6250SOL     OW19135   3.719   2.695  11.549
 6250SOL    HW119136   3.761   2.631  11.613
 6250SOL    HW219137   3.681   2.644  11.471
 6251SOL     OW19138   2.350   3.247  11.346
 6251SOL    HW119139   2.263   3.232  11.393
 6251SOL    HW219140   2.333   3.273  11.251
 6252SOL     OW19141   3.526   3.142  11.829
 6252SOL    HW119142   3.625   3.150  11.843
 6252SOL    HW219143   3.481   3.226  11.860
 6253SOL     OW19144   3.252   2.437  11.250
 6253SOL    HW119145   3.198   2.416  11.331
 6253SOL    HW219146   3.343   2.396  11.259
 6254SOL     OW19147   2.389   2.118  11.500
 6254SOL    HW119148   2.416   2.059  11.425
 6254SOL    HW219149   2.389   2.213  11.469
 6255SOL     OW19150   3.616   3.085  12.760
 6255SOL    HW119151   3.707   3.046  12.747
 6255SOL    HW219152   3.624   3.181  12.784
 6256SOL     OW19153   2.926   3.209  12.512
 6256SOL    HW119154   2.846   3.186  12.567
 6256SOL    HW219155   3.009   3.183  12.561
 6257SOL     OW19156   3.454   3.491  12.797
 6257SOL    HW119157   3.481   3.525  12.707
 6257SOL    HW219158   3.533   3.453  12.843
 6258SOL     OW19159   2.973   3.057  12.272
 6258SOL    HW119160   2.933   3.101  12.353
 6258SOL    HW219161   2.932   3.094  12.189
 6259SOL     OW19162   3.500   2.961  12.251
 6259SOL    HW119163   3.505   3.042  12.310
 6259SOL    HW219164   3.414   2.963  12.200
 6260SOL     OW19165   2.777   1.951  12.574
 6260SOL    HW119166   2.802   1.931  12.479
 6260SOL    HW219167   2.849   2.007  12.616
 6261SOL     OW19168   2.842   2.978  12.891
 6261SOL    HW119169   2.743   2.984  12.901
 6261SOL    HW219170   2.865   2.898  12.835
 6262SOL     OW19171   2.567   2.912  11.540
 6262SOL    HW119172   2.553   2.919  11.639
 6262SOL    HW219173   2.651   2.861  11.522
 6263SOL     OW19174   2.272   2.675  12.423
 6263SOL    HW119175   2.358   2.687  12.473
 6263SOL    HW219176   2.230   2.588  12.450
 6264SOL     OW19177   3.136   2.248  12.434
 6264SOL    HW119178   3.157   2.322  12.498
 6264SOL    HW219179   3.047   2.265  12.391
 6265SOL     OW19180   1.926   3.426  12.503
 6265SOL    HW119181   1.880   3.508  12.469
 6265SOL    HW219182   2.024   3.445  12.512
 6266SOL     OW19183   2.229   2.962  11.673
 6266SOL    HW119184   2.222   3.045  11.617
 6266SOL    HW219185   2.233   2.882  11.613
 6267SOL     OW19186   2.428   2.399  12.037
 6267SOL    HW119187   2.440   2.465  11.963
 6267SOL    HW219188   2.474   2.433  12.120
 6268SOL     OW19189   3.114   3.210  11.560
 6268SOL    HW119190   3.164   3.287  11.600
 6268SOL    HW219191   3.019   3.212  11.592
 6269SOL     OW19192   3.134   3.307  12.314
 6269SOL    HW119193   3.181   3.320  12.401
 6269SOL    HW219194   3.068   3.233  12.323
 6270SOL     OW19195   3.444   2.501  11.644
 6270SOL    HW119196   3.413   2.562  11.717
 6270SOL    HW219197   3.494   2.553  11.575
 6271SOL     OW19198   2.216   3.372  12.501
 6271SOL    HW119199   2.195   3.328  12.414
 6271SOL    HW219200   2.313   3.398  12.504
 6272SOL     OW19201   2.264   2.613  12.770
 6272SOL    HW119202   2.332   2.668  12.723
 6272SOL    HW219203   2.304   2.525  12.797
 6273SOL     OW19204   3.449   2.641  12.842
 6273SOL    HW119205   3.357   2.679  12.837
 6273SOL    HW219206   3.509   2.688  12.777
 6274SOL     OW19207   2.875   1.967  12.942
 6274SOL    HW119208   2.881   2.052  12.890
 6274SOL    HW219209   2.907   1.891  12.885
 6275SOL     OW19210   2.366   1.912  12.912
 6275SOL    HW119211   2.324   1.855  12.842
 6275SOL    HW219212   2.300   1.981  12.944
 6276SOL     OW19213   2.435   2.732  12.201
 6276SOL    HW119214   2.479   2.821  12.192
 6276SOL    HW219215   2.372   2.732  12.278
 6277SOL     OW19216   3.222   2.724  12.217
 6277SOL    HW119217   3.147   2.724  12.151
 6277SOL    HW219218   3.259   2.632  12.226
 6278SOL     OW19219   3.071   2.387  11.447
 6278SOL    HW119220   3.084   2.303  11.501
 6278SOL    HW219221   3.042   2.461  11.507
 6279SOL     OW19222   1.899   3.172  12.454
 6279SOL    HW119223   1.952   3.123  12.522
 6279SOL    HW219224   1.921   3.270  12.459
 6280SOL     OW19225   2.594   2.496  12.236
 6280SOL    HW119226   2.653   2.470  12.160
 6280SOL    HW219227   2.566   2.592  12.225
 6281SOL     OW19228   3.590   2.797  13.026
 6281SOL    HW119229   3.544   2.790  12.937
 6281SOL    HW219230   3.528   2.841  13.092
 6282SOL     OW19231   3.484   2.229  11.546
 6282SOL    HW119232   3.486   2.153  11.610
 6282SOL    HW219233   3.436   2.306  11.586
 6283SOL     OW19234   2.885   2.628  12.138
 6283SOL    HW119235   2.900   2.649  12.234
 6283SOL    HW219236   2.855   2.533  12.129
 6284SOL     OW19237   2.842   3.435  12.872
 6284SOL    HW119238   2.822   3.479  12.784
 6284SOL    HW219239   2.881   3.344  12.856
 6285SOL     OW19240   3.721   3.380  12.777
 6285SOL    HW119241   3.735   3.407  12.682
 6285SOL    HW219242   3.804   3.402  12.830
 6286SOL     OW19243   2.212   2.760  12.976
 6286SOL    HW119244   2.288   2.804  13.024
 6286SOL    HW219245   2.247   2.713  12.894
 6287SOL     OW19246   3.402   2.136  11.297
 6287SOL    HW119247   3.341   2.061  11.320
 6287SOL    HW219248   3.424   2.188  11.380
 6288SOL     OW19249   3.165   2.700  11.214
 6288SOL    HW119250   3.199   2.607  11.229
 6288SOL    HW219251   3.183   2.727  11.119
 6289SOL     OW19252   2.930   3.195  12.021
 6289SOL    HW119253   2.937   3.111  11.966
 6289SOL    HW219254   2.992   3.264  11.985
 6290SOL     OW19255   2.181   2.672  12.121
 6290SOL    HW119256   2.274   2.708  12.126
 6290SOL    HW219257   2.175   2.587  12.173
 6291SOL     OW19258   2.201   2.371  12.178
 6291SOL    HW119259   2.149   2.288  12.161
 6291SOL    HW219260   2.278   2.376  12.114
 6292SOL     OW19261   3.000   2.242  12.850
 6292SOL    HW119262   2.955   2.305  12.914
 6292SOL    HW219263   3.093   2.273  12.833
 6293SOL     OW19264   3.022   2.069  12.649
 6293SOL    HW119265   3.022   2.133  12.726
 6293SOL    HW219266   3.050   2.117  12.566
 6294SOL     OW19267   1.870   3.188  11.372
 6294SOL    HW119268   1.777   3.209  11.341
 6294SOL    HW219269   1.880   3.089  11.385
 6295SOL     OW19270   1.950   3.663  12.099
 6295SOL    HW119271   1.908   3.577  12.072
 6295SOL    HW219272   2.044   3.666  12.065
 6296SOL     OW19273   2.366   3.430  12.082
 6296SOL    HW119274   2.432   3.504  12.091
 6296SOL    HW219275   2.410   3.351  12.040
 6297SOL     OW19276   2.864   2.658  12.410
 6297SOL    HW119277   2.905   2.626  12.496
 6297SOL    HW219278   2.768   2.631  12.407
 6298SOL     OW19279   1.902   2.406  12.286
 6298SOL    HW119280   1.987   2.373  12.245
 6298SOL    HW219281   1.915   2.421  12.384
 6299SOL     OW19282   2.051   2.382  12.894
 6299SOL    HW119283   2.110   2.342  12.824
 6299SOL    HW219284   1.993   2.453  12.853
 6300SOL     OW19285   3.231   2.812  12.832
 6300SOL    HW119286   3.270   2.901  12.852
 6300SOL    HW219287   3.241   2.792  12.735
 6301SOL     OW19288   2.677   2.434  11.497
 6301SOL    HW119289   2.684   2.345  11.451
 6301SOL    HW219290   2.583   2.468  11.489
 6302SOL     OW19291   3.519   2.466  12.378
 6302SOL    HW119292   3.481   2.397  12.440
 6302SOL    HW219293   3.601   2.430  12.334
 6303SOL     OW19294   2.114   3.426  12.916
 6303SOL    HW119295   2.084   3.483  12.992
 6303SOL    HW219296   2.107   3.329  12.942
 6304SOL     OW19297   2.533   2.326  12.441
 6304SOL    HW119298   2.499   2.237  12.411
 6304SOL    HW219299   2.559   2.380  12.361
 6305SOL     OW19300   2.792   3.540  12.637
 6305SOL    HW119301   2.768   3.522  12.542
 6305SOL    HW219302   2.822   3.634  12.647
 6306SOL     OW19303   2.335   2.362  11.363
 6306SOL    HW119304   2.396   2.442  11.367
 6306SOL    HW219305   2.240   2.393  11.370
 6307SOL     OW19306   2.021   2.999  12.638
 6307SOL    HW119307   2.043   2.938  12.714
 6307SOL    HW219308   2.031   2.950  12.552
 6308SOL     OW19309   3.209   2.921  12.406
 6308SOL    HW119310   3.233   2.858  12.332
 6308SOL    HW219311   3.119   2.961  12.388
 6309SOL     OW19312   3.164   2.717  11.481
 6309SOL    HW119313   3.078   2.686  11.523
 6309SOL    HW219314   3.160   2.703  11.382
 6310SOL     OW19315   3.621   3.609  12.326
 6310SOL    HW119316   3.682   3.639  12.253
 6310SOL    HW219317   3.583   3.520  12.304
 6311SOL     OW19318   3.114   3.593  12.300
 6311SOL    HW119319   3.198   3.598  12.246
 6311SOL    HW219320   3.091   3.497  12.318
 6312SOL     OW19321   1.945   3.120  12.194
 6312SOL    HW119322   1.940   3.119  12.294
 6312SOL    HW219323   1.862   3.079  12.156
 6313SOL     OW19324   2.550   3.524  12.888
 6313SOL    HW119325   2.494   3.605  12.897
 6313SOL    HW219326   2.602   3.528  12.802
 6314SOL     OW19327   3.588   1.997  11.695
 6314SOL    HW119328   3.661   1.980  11.628
 6314SOL    HW219329   3.557   1.910  11.733
 6315SOL     OW19330   3.250   3.435  11.649
 6315SOL    HW119331   3.317   3.447  11.575
 6315SOL    HW219332   3.210   3.524  11.672
 6316SOL     OW19333   1.992   3.656  13.023
 6316SOL    HW119334   1.951   3.582  13.076
 6316SOL    HW219335   2.056   3.707  13.081
 6317SOL     OW19336   3.142   2.789  11.844
 6317SOL    HW119337   3.202   2.708  11.846
 6317SOL    HW219338   3.182   2.858  11.784
 6318SOL     OW19339   2.692   3.135  12.594
 6318SOL    HW119340   2.687   3.168  12.689
 6318SOL    HW219341   2.606   3.154  12.548
 6319SOL     OW19342   2.534   3.478  11.326
 6319SOL    HW119343   2.543   3.488  11.227
 6319SOL    HW219344   2.494   3.389  11.347
 6320SOL     OW19345   3.512   3.582  12.566
 6320SOL    HW119346   3.565   3.592  12.482
 6320SOL    HW219347   3.485   3.672  12.600
 6321SOL     OW19348   3.703   2.037  12.135
 6321SOL    HW119349   3.742   1.952  12.099
 6321SOL    HW219350   3.605   2.039  12.116
 6322SOL     OW19351   3.056   3.474  11.203
 6322SOL    HW119352   3.062   3.381  11.240
 6322SOL    HW219353   2.997   3.474  11.123
 6323SOL     OW19354   2.684   2.864  12.544
 6323SOL    HW119355   2.724   2.863  12.452
 6323SOL    HW219356   2.694   2.956  12.584
 6324SOL     OW19357   2.778   2.772  11.463
 6324SOL    HW119358   2.841   2.810  11.395
 6324SOL    HW219359   2.818   2.689  11.502
 6325SOL     OW19360   3.366   3.469  11.216
 6325SOL    HW119361   3.274   3.506  11.223
 6325SOL    HW219362   3.404   3.489  11.126
 6326SOL     OW19363   2.234   3.150  12.662
 6326SOL    HW119364   2.221   3.243  12.628
 6326SOL    HW219365   2.150   3.098  12.649
 6327SOL     OW19366   3.476   3.154  12.461
 6327SOL    HW119367   3.536   3.157  12.541
 6327SOL    HW219368   3.401   3.218  12.474
 6328SOL     OW19369   2.901   2.960  11.868
 6328SOL    HW119370   2.831   2.913  11.922
 6328SOL    HW219371   2.960   2.892  11.825
 6329SOL     OW19372   2.876   2.098  12.143
 6329SOL    HW119373   2.868   2.062  12.050
 6329SOL    HW219374   2.874   2.022  12.208
 6330SOL     OW19375   2.452   3.349  11.663
 6330SOL    HW119376   2.494   3.291  11.593
 6330SOL    HW219377   2.408   3.428  11.619
 6331SOL     OW19378   3.571   2.247  12.553
 6331SOL    HW119379   3.644   2.316  12.557
 6331SOL    HW219380   3.599   2.172  12.494
 6332SOL     OW19381   2.117   3.210  11.462
 6332SOL    HW119382   2.021   3.211  11.435
 6332SOL    HW219383   2.129   3.263  11.546
 6333SOL     OW19384   1.967   2.875  12.898
 6333SOL    HW119385   1.890   2.842  12.952
 6333SOL    HW219386   2.052   2.845  12.940
 6334SOL     OW19387   2.534   2.065  12.661
 6334SOL    HW119388   2.624   2.049  12.621
 6334SOL    HW219389   2.542   2.070  12.760
 6335SOL     OW19390   3.302   2.718  12.570
 6335SOL    HW119391   3.245   2.770  12.507
 6335SOL    HW219392   3.398   2.730  12.546
 6336SOL     OW19393   3.045   3.197  11.291
 6336SOL    HW119394   2.946   3.186  11.293
 6336SOL    HW219395   3.079   3.212  11.384
 6337SOL     OW19396   2.475   2.704  12.603
 6337SOL    HW119397   2.531   2.785  12.586
 6337SOL    HW219398   2.534   2.624  12.606
 6338SOL     OW19399   3.355   3.629  12.131
 6338SOL    HW119400   3.388   3.693  12.062
 6338SOL    HW219401   3.421   3.623  12.206
 6339SOL     OW19402   2.578   2.427  12.880
 6339SOL    HW119403   2.597   2.492  12.954
 6339SOL    HW219404   2.638   2.347  12.889
 6340SOL     OW19405   3.312   3.082  12.805
 6340SOL    HW119406   3.303   3.072  12.904
 6340SOL    HW219407   3.408   3.075  12.779
 6341SOL     OW19408   2.252   3.603  12.732
 6341SOL    HW119409   2.161   3.644  12.730
 6341SOL    HW219410   2.245   3.509  12.764
 6342SOL     OW19411   3.536   2.745  12.426
 6342SOL    HW119412   3.509   2.656  12.389
 6342SOL    HW219413   3.537   2.813  12.353
 6343SOL     OW19414   3.087   2.187  11.621
 6343SOL    HW119415   3.152   2.113  11.610
 6343SOL    HW219416   3.107   2.237  11.705
 6344SOL     OW19417   2.456   2.607  11.824
 6344SOL    HW119418   2.506   2.692  11.805
 6344SOL    HW219419   2.368   2.609  11.776
 6345SOL     OW19420   3.639   2.204  12.814
 6345SOL    HW119421   3.622   2.235  12.720
 6345SOL    HW219422   3.555   2.167  12.852
 6346SOL     OW19423   3.592   2.796  12.689
 6346SOL    HW119424   3.630   2.887  12.704
 6346SOL    HW219425   3.584   2.779  12.590
 6347SOL     OW19426   2.721   3.236  11.188
 6347SOL    HW119427   2.675   3.251  11.276
 6347SOL    HW219428   2.765   3.321  11.158
 6348SOL     OW19429   2.523   3.652  12.125
 6348SOL    HW119430   2.477   3.740  12.112
 6348SOL    HW219431   2.622   3.664  12.118
 6349SOL     OW19432   2.721   2.818  12.033
 6349SOL    HW119433   2.775   2.749  12.081
 6349SOL    HW219434   2.689   2.887  12.099
 6350SOL     OW19435   2.945   2.846  11.259
 6350SOL    HW119436   2.922   2.899  11.177
 6350SOL    HW219437   3.026   2.790  11.240
 6351SOL     OW19438   3.723   3.431  12.023
 6351SOL    HW119439   3.652   3.419  11.953
 6351SOL    HW219440   3.724   3.352  12.083
 6352SOL     OW19441   2.083   3.176  13.016
 6352SOL    HW119442   2.018   3.103  12.995
 6352SOL    HW219443   2.087   3.190  13.114
 6353SOL     OW19444   1.941   3.102  11.825
 6353SOL    HW119445   1.940   3.055  11.913
 6353SOL    HW219446   2.023   3.074  11.774
 6354SOL     OW19447   2.534   3.253  12.796
 6354SOL    HW119448   2.456   3.203  12.834
 6354SOL    HW219449   2.531   3.348  12.827
 6355SOL     OW19450   3.686   2.054  12.399
 6355SOL    HW119451   3.682   1.964  12.443
 6355SOL    HW219452   3.689   2.043  12.300
 6356SOL     OW19453   2.290   2.286  11.692
 6356SOL    HW119454   2.320   2.214  11.630
 6356SOL    HW219455   2.251   2.246  11.775
 6357SOL     OW19456   3.567   3.349  12.276
 6357SOL    HW119457   3.474   3.324  12.249
 6357SOL    HW219458   3.593   3.299  12.358
 6358SOL     OW19459   2.179   2.409  12.452
 6358SOL    HW119460   2.217   2.350  12.524
 6358SOL    HW219461   2.219   2.383  12.364
 6359SOL     OW19462   2.674   3.448  11.859
 6359SOL    HW119463   2.706   3.458  11.765
 6359SOL    HW219464   2.595   3.386  11.861
 6360SOL     OW19465   3.286   2.076  12.284
 6360SOL    HW119466   3.338   2.011  12.339
 6360SOL    HW219467   3.237   2.139  12.345
 6361SOL     OW19468   2.863   1.896  12.326
 6361SOL    HW119469   2.800   1.824  12.295
 6361SOL    HW219470   2.956   1.860  12.326
 6362SOL     OW19471   2.632   3.192  11.473
 6362SOL    HW119472   2.586   3.105  11.490
 6362SOL    HW219473   2.723   3.189  11.514
 6363SOL     OW19474   2.480   3.429  12.456
 6363SOL    HW119475   2.475   3.511  12.513
 6363SOL    HW219476   2.569   3.426  12.411
 6364SOL     OW19477   3.214   1.914  11.340
 6364SOL    HW119478   3.249   1.873  11.256
 6364SOL    HW219479   3.124   1.876  11.360
 6365SOL     OW19480   3.162   2.315  11.863
 6365SOL    HW119481   3.103   2.395  11.867
 6365SOL    HW219482   3.177   2.280  11.956
 6366SOL     OW19483   3.455   2.083  12.054
 6366SOL    HW119484   3.371   2.082  12.108
 6366SOL    HW219485   3.457   2.166  11.998
 6367SOL     OW19486   1.901   2.939  11.472
 6367SOL    HW119487   2.000   2.928  11.463
 6367SOL    HW219488   1.861   2.853  11.504
 6368SOL     OW19489   2.737   3.508  11.509
 6368SOL    HW119490   2.660   3.473  11.455
 6368SOL    HW219491   2.705   3.579  11.571
 6369SOL     OW19492   2.092   2.490  13.147
 6369SOL    HW119493   1.999   2.488  13.184
 6369SOL    HW219494   2.093   2.451  13.055
 6370SOL     OW19495   1.881   2.230  13.681
 6370SOL    HW119496   1.799   2.273  13.720
 6370SOL    HW219497   1.853   2.157  13.618
 6371SOL     OW19498   3.417   3.373  13.737
 6371SOL    HW119499   3.360   3.357  13.818
 6371SOL    HW219500   3.358   3.383  13.657
 6372SOL     OW19501   2.997   2.565  13.751
 6372SOL    HW119502   3.054   2.643  13.726
 6372SOL    HW219503   2.937   2.591  13.827
 6373SOL     OW19504   3.617   2.469  13.265
 6373SOL    HW119505   3.605   2.456  13.166
 6373SOL    HW219506   3.587   2.388  13.314
 6374SOL     OW19507   2.547   2.874  13.699
 6374SOL    HW119508   2.616   2.858  13.769
 6374SOL    HW219509   2.474   2.931  13.737
 6375SOL     OW19510   3.465   2.309  13.771
 6375SOL    HW119511   3.391   2.355  13.721
 6375SOL    HW219512   3.516   2.377  13.824
 6376SOL     OW19513   2.093   3.575  13.517
 6376SOL    HW119514   2.127   3.652  13.571
 6376SOL    HW219515   2.137   3.575  13.427
 6377SOL     OW19516   2.092   3.296  13.572
 6377SOL    HW119517   2.066   3.392  13.572
 6377SOL    HW219518   2.021   3.242  13.617
 6378SOL     OW19519   2.102   2.953  13.920
 6378SOL    HW119520   2.116   2.869  13.972
 6378SOL    HW219521   2.047   3.017  13.975
 6379SOL     OW19522   2.468   2.826  13.157
 6379SOL    HW119523   2.475   2.910  13.103
 6379SOL    HW219524   2.514   2.839  13.245
 6380SOL     OW19525   1.984   2.505  13.597
 6380SOL    HW119526   1.939   2.417  13.614
 6380SOL    HW219527   1.983   2.559  13.681
 6381SOL     OW19528   3.704   3.629  13.393
 6381SOL    HW119529   3.758   3.600  13.473
 6381SOL    HW219530   3.734   3.719  13.364
 6382SOL     OW19531   1.889   3.458  13.151
 6382SOL    HW119532   1.870   3.362  13.172
 6382SOL    HW219533   1.856   3.516  13.226
 6383SOL     OW19534   3.551   2.784  13.646
 6383SOL    HW119535   3.646   2.755  13.654
 6383SOL    HW219536   3.543   2.849  13.571
 6384SOL     OW19537   3.503   2.970  13.466
 6384SOL    HW119538   3.589   2.972  13.414
 6384SOL    HW219539   3.517   3.017  13.554
 6385SOL     OW19540   2.475   3.227  13.760
 6385SOL    HW119541   2.426   3.140  13.769
 6385SOL    HW219542   2.452   3.270  13.673
 6386SOL     OW19543   2.671   1.866  13.536
 6386SOL    HW119544   2.711   1.957  13.527
 6386SOL    HW219545   2.571   1.874  13.542
 6387SOL     OW19546   3.387   2.861  13.224
 6387SOL    HW119547   3.324   2.785  13.237
 6387SOL    HW219548   3.435   2.879  13.310
 6388SOL     OW19549   3.529   3.576  13.606
 6388SOL    HW119550   3.488   3.553  13.518
 6388SOL    HW219551   3.511   3.502  13.671
 6389SOL     OW19552   2.460   2.591  13.304
 6389SOL    HW119553   2.484   2.660  13.236
 6389SOL    HW219554   2.382   2.624  13.358
 6390SOL     OW19555   3.143   2.207  13.978
 6390SOL    HW119556   3.057   2.157  13.965
 6390SOL    HW219557   3.205   2.153  14.034
 6391SOL     OW19558   3.438   3.524  13.341
 6391SOL    HW119559   3.527   3.570  13.344
 6391SOL    HW219560   3.417   3.500  13.246
 6392SOL     OW19561   2.903   2.563  13.463
 6392SOL    HW119562   2.929   2.559  13.559
 6392SOL    HW219563   2.818   2.512  13.449
 6393SOL     OW19564   1.938   2.673  13.823
 6393SOL    HW119565   2.037   2.661  13.832
 6393SOL    HW219566   1.914   2.768  13.844
 6394SOL     OW19567   2.727   2.210  13.229
 6394SOL    HW119568   2.786   2.273  13.180
 6394SOL    HW219569   2.746   2.116  13.200
 6395SOL     OW19570   3.224   3.006  13.579
 6395SOL    HW119571   3.307   2.977  13.531
 6395SOL    HW219572   3.175   3.073  13.523
 6396SOL     OW19573   2.870   3.318  13.511
 6396SOL    HW119574   2.824   3.390  13.459
 6396SOL    HW219575   2.866   3.338  13.609
 6397SOL     OW19576   2.213   3.663  13.887
 6397SOL    HW119577   2.263   3.577  13.893
 6397SOL    HW219578   2.278   3.740  13.884
 6398SOL     OW19579   3.657   2.928  13.907
 6398SOL    HW119580   3.595   2.913  13.831
 6398SOL    HW219581   3.605   2.939  13.992
 6399SOL     OW19582   2.183   2.805  13.276
 6399SOL    HW119583   2.265   2.844  13.234
 6399SOL    HW219584   2.156   2.723  13.227
 6400SOL     OW19585   3.320   2.597  13.762
 6400SOL    HW119586   3.315   2.532  13.837
 6400SOL    HW219587   3.400   2.656  13.775
 6401SOL     OW19588   2.973   3.638  13.271
 6401SOL    HW119589   2.913   3.576  13.321
 6401SOL    HW219590   3.004   3.594  13.186
 6402SOL     OW19591   3.494   3.239  13.115
 6402SOL    HW119592   3.462   3.333  13.105
 6402SOL    HW219593   3.418   3.176  13.103
 6403SOL     OW19594   2.326   3.605  13.357
 6403SOL    HW119595   2.359   3.644  13.443
 6403SOL    HW219596   2.402   3.598  13.292
 6404SOL     OW19597   3.262   1.969  13.460
 6404SOL    HW119598   3.238   1.932  13.370
 6404SOL    HW219599   3.361   1.985  13.464
 6405SOL     OW19600   2.802   3.560  13.938
 6405SOL    HW119601   2.882   3.503  13.959
 6405SOL    HW219602   2.753   3.520  13.861
 6406SOL     OW19603   2.244   2.562  13.514
 6406SOL    HW119604   2.289   2.472  13.511
 6406SOL    HW219605   2.150   2.551  13.547
 6407SOL     OW19606   2.476   1.984  13.151
 6407SOL    HW119607   2.574   1.962  13.158
 6407SOL    HW219608   2.445   1.967  13.058
 6408SOL     OW19609   2.401   1.926  13.546
 6408SOL    HW119610   2.320   1.927  13.604
 6408SOL    HW219611   2.404   2.009  13.491
 6409SOL     OW19612   3.296   3.050  13.075
 6409SOL    HW119613   3.328   2.974  13.132
 6409SOL    HW219614   3.204   3.077  13.105
 6410SOL     OW19615   2.797   2.098  13.514
 6410SOL    HW119616   2.749   2.139  13.436
 6410SOL    HW219617   2.896   2.096  13.495
 6411SOL     OW19618   2.321   3.014  13.775
 6411SOL    HW119619   2.250   2.987  13.840
 6411SOL    HW219620   2.295   2.986  13.682
 6412SOL     OW19621   3.133   3.659  13.625
 6412SOL    HW119622   3.177   3.723  13.561
 6412SOL    HW219623   3.083   3.711  13.695
 6413SOL     OW19624   2.894   2.411  13.050
 6413SOL    HW119625   2.853   2.493  13.011
 6413SOL    HW219626   2.958   2.437  13.123
 6414SOL     OW19627   2.728   2.316  13.676
 6414SOL    HW119628   2.696   2.388  13.614
 6414SOL    HW219629   2.752   2.235  13.623
 6415SOL     OW19630   2.879   1.901  13.787
 6415SOL    HW119631   2.807   1.906  13.718
 6415SOL    HW219632   2.855   1.832  13.856
 6416SOL     OW19633   3.719   2.695  13.411
 6416SOL    HW119634   3.761   2.631  13.475
 6416SOL    HW219635   3.681   2.644  13.333
 6417SOL     OW19636   2.350   3.247  13.208
 6417SOL    HW119637   2.263   3.232  13.255
 6417SOL    HW219638   2.333   3.273  13.113
 6418SOL     OW19639   3.526   3.142  13.691
 6418SOL    HW119640   3.625   3.150  13.705
 6418SOL    HW219641   3.481   3.226  13.722
 6419SOL     OW19642   3.252   2.437  13.112
 6419SOL    HW119643   3.198   2.416  13.193
 6419SOL    HW219644   3.343   2.396  13.121
 6420SOL     OW19645   2.389   2.118  13.362
 6420SOL    HW119646   2.416   2.059  13.287
 6420SOL    HW219647   2.389   2.213  13.331
 6421SOL     OW19648   2.567   2.912  13.402
 6421SOL    HW119649   2.553   2.919  13.501
 6421SOL    HW219650   2.651   2.861  13.384
 6422SOL     OW19651   2.229   2.962  13.535
 6422SOL    HW119652   2.222   3.045  13.479
 6422SOL    HW219653   2.233   2.882  13.475
 6423SOL     OW19654   2.428   2.399  13.899
 6423SOL    HW119655   2.440   2.465  13.825
 6423SOL    HW219656   2.474   2.433  13.982
 6424SOL     OW19657   3.114   3.210  13.422
 6424SOL    HW119658   3.164   3.287  13.462
 6424SOL    HW219659   3.019   3.212  13.454
 6425SOL     OW19660   3.444   2.501  13.506
 6425SOL    HW119661   3.413   2.562  13.579
 6425SOL    HW219662   3.494   2.553  13.437
 6426SOL     OW19663   3.071   2.387  13.309
 6426SOL    HW119664   3.084   2.303  13.363
 6426SOL    HW219665   3.042   2.461  13.369
 6427SOL     OW19666   3.484   2.229  13.408
 6427SOL    HW119667   3.486   2.153  13.472
 6427SOL    HW219668   3.436   2.306  13.448
 6428SOL     OW19669   3.402   2.136  13.159
 6428SOL    HW119670   3.341   2.061  13.182
 6428SOL    HW219671   3.424   2.188  13.242
 6429SOL     OW19672   3.165   2.700  13.076
 6429SOL    HW119673   3.199   2.607  13.091
 6429SOL    HW219674   3.183   2.727  12.981
 6430SOL     OW19675   1.870   3.188  13.234
 6430SOL    HW119676   1.777   3.209  13.203
 6430SOL    HW219677   1.880   3.089  13.247
 6431SOL     OW19678   2.677   2.434  13.359
 6431SOL    HW119679   2.684   2.345  13.313
 6431SOL    HW219680   2.583   2.468  13.351
 6432SOL     OW19681   2.335   2.362  13.225
 6432SOL    HW119682   2.396   2.442  13.229
 6432SOL    HW219683   2.240   2.393  13.232
 6433SOL     OW19684   3.164   2.717  13.343
 6433SOL    HW119685   3.078   2.686  13.385
 6433SOL    HW219686   3.160   2.703  13.244
 6434SOL     OW19687   3.588   1.997  13.557
 6434SOL    HW119688   3.661   1.980  13.490
 6434SOL    HW219689   3.557   1.910  13.595
 6435SOL     OW19690   3.250   3.435  13.511
 6435SOL    HW119691   3.317   3.447  13.437
 6435SOL    HW219692   3.210   3.524  13.534
 6436SOL     OW19693   3.142   2.789  13.706
 6436SOL    HW119694   3.202   2.708  13.708
 6436SOL    HW219695   3.182   2.858  13.646
 6437SOL     OW19696   2.534   3.478  13.188
 6437SOL    HW119697   2.543   3.488  13.089
 6437SOL    HW219698   2.494   3.389  13.209
 6438SOL     OW19699   3.703   2.037  13.997
 6438SOL    HW119700   3.742   1.952  13.961
 6438SOL    HW219701   3.605   2.039  13.978
 6439SOL     OW19702   2.125   2.188  13.754
 6439SOL    HW119703   2.046   2.239  13.720
 6439SOL    HW219704   2.116   2.173  13.852
 6440SOL     OW19705   3.056   3.474  13.065
 6440SOL    HW119706   3.062   3.381  13.102
 6440SOL    HW219707   2.997   3.474  12.985
 6441SOL     OW19708   2.778   2.772  13.325
 6441SOL    HW119709   2.841   2.810  13.257
 6441SOL    HW219710   2.818   2.689  13.364
 6442SOL     OW19711   3.366   3.469  13.078
 6442SOL    HW119712   3.274   3.506  13.085
 6442SOL    HW219713   3.404   3.489  12.988
 6443SOL     OW19714   2.901   2.960  13.730
 6443SOL    HW119715   2.831   2.913  13.784
 6443SOL    HW219716   2.960   2.892  13.687
 6444SOL     OW19717   2.452   3.349  13.525
 6444SOL    HW119718   2.494   3.291  13.455
 6444SOL    HW219719   2.408   3.428  13.481
 6445SOL     OW19720   2.117   3.210  13.324
 6445SOL    HW119721   2.021   3.211  13.297
 6445SOL    HW219722   2.129   3.263  13.408
 6446SOL     OW19723   3.045   3.197  13.153
 6446SOL    HW119724   2.946   3.186  13.155
 6446SOL    HW219725   3.079   3.212  13.246
 6447SOL     OW19726   3.087   2.187  13.483
 6447SOL    HW119727   3.152   2.113  13.472
 6447SOL    HW219728   3.107   2.237  13.567
 6448SOL     OW19729   2.456   2.607  13.686
 6448SOL    HW119730   2.506   2.692  13.667
 6448SOL    HW219731   2.368   2.609  13.638
 6449SOL     OW19732   2.721   3.236  13.050
 6449SOL    HW119733   2.675   3.251  13.138
 6449SOL    HW219734   2.765   3.321  13.020
 6450SOL     OW19735   2.523   3.652  13.987
 6450SOL    HW119736   2.477   3.740  13.974
 6450SOL    HW219737   2.622   3.664  13.980
 6451SOL     OW19738   2.721   2.818  13.895
 6451SOL    HW119739   2.775   2.749  13.943
 6451SOL    HW219740   2.689   2.887  13.961
 6452SOL     OW19741   2.945   2.846  13.121
 6452SOL    HW119742   2.922   2.899  13.039
 6452SOL    HW219743   3.026   2.790  13.102
 6453SOL     OW19744   1.941   3.102  13.687
 6453SOL    HW119745   1.940   3.055  13.775
 6453SOL    HW219746   2.023   3.074  13.636
 6454SOL     OW19747   2.290   2.286  13.554
 6454SOL    HW119748   2.320   2.214  13.492
 6454SOL    HW219749   2.251   2.246  13.637
 6455SOL     OW19750   3.567   3.349  14.138
 6455SOL    HW119751   3.474   3.324  14.111
 6455SOL    HW219752   3.593   3.299  14.220
 6456SOL     OW19753   2.674   3.448  13.721
 6456SOL    HW119754   2.706   3.458  13.627
 6456SOL    HW219755   2.595   3.386  13.723
 6457SOL     OW19756   2.632   3.192  13.335
 6457SOL    HW119757   2.586   3.105  13.352
 6457SOL    HW219758   2.723   3.189  13.376
 6458SOL     OW19759   3.214   1.914  13.202
 6458SOL    HW119760   3.249   1.873  13.118
 6458SOL    HW219761   3.124   1.876  13.222
 6459SOL     OW19762   3.162   2.315  13.725
 6459SOL    HW119763   3.103   2.395  13.729
 6459SOL    HW219764   3.177   2.280  13.818
 6460SOL     OW19765   1.901   2.939  13.334
 6460SOL    HW119766   2.000   2.928  13.325
 6460SOL    HW219767   1.861   2.853  13.366
 6461SOL     OW19768   2.737   3.508  13.371
 6461SOL    HW119769   2.660   3.473  13.317
 6461SOL    HW219770   2.705   3.579  13.433
 6462SOL     OW19771   2.087   3.999   0.996
 6462SOL    HW119772   2.122   3.982   1.088
 6462SOL    HW219773   1.999   3.954   0.984
 6463SOL     OW19774   1.881   4.092   0.647
 6463SOL    HW119775   1.799   4.135   0.686
 6463SOL    HW219776   1.853   4.019   0.584
 6464SOL     OW19777   3.617   4.331   0.231
 6464SOL    HW119778   3.605   4.318   0.132
 6464SOL    HW219779   3.587   4.250   0.280
 6465SOL     OW19780   2.300   4.116   1.499
 6465SOL    HW119781   2.382   4.060   1.508
 6465SOL    HW219782   2.219   4.058   1.503
 6466SOL     OW19783   3.456   3.838   1.480
 6466SOL    HW119784   3.438   3.905   1.408
 6466SOL    HW219785   3.453   3.884   1.569
 6467SOL     OW19786   2.671   3.728   0.502
 6467SOL    HW119787   2.711   3.819   0.493
 6467SOL    HW219788   2.571   3.736   0.508
 6468SOL     OW19789   3.143   4.069   0.944
 6468SOL    HW119790   3.057   4.019   0.931
 6468SOL    HW219791   3.205   4.015   1.000
 6469SOL     OW19792   2.412   3.920   0.885
 6469SOL    HW119793   2.407   3.915   0.985
 6469SOL    HW219794   2.414   4.016   0.856
 6470SOL     OW19795   2.064   4.009   1.498
 6470SOL    HW119796   1.984   4.069   1.485
 6470SOL    HW219797   2.054   3.960   1.584
 6471SOL     OW19798   3.262   3.831   0.426
 6471SOL    HW119799   3.238   3.794   0.336
 6471SOL    HW219800   3.361   3.847   0.430
 6472SOL     OW19801   3.409   3.946   1.729
 6472SOL    HW119802   3.404   3.983   1.821
 6472SOL    HW219803   3.337   3.877   1.717
 6473SOL     OW19804   2.643   3.988   1.749
 6473SOL    HW119805   2.710   3.927   1.792
 6473SOL    HW219806   2.570   4.007   1.814
 6474SOL     OW19807   2.401   3.788   0.512
 6474SOL    HW119808   2.320   3.789   0.570
 6474SOL    HW219809   2.404   3.871   0.457
 6475SOL     OW19810   2.159   3.759   0.171
 6475SOL    HW119811   2.208   3.843   0.150
 6475SOL    HW219812   2.221   3.694   0.216
 6476SOL     OW19813   2.423   3.946   1.147
 6476SOL    HW119814   2.461   3.862   1.184
 6476SOL    HW219815   2.335   3.965   1.191
 6477SOL     OW19816   2.879   3.763   0.753
 6477SOL    HW119817   2.807   3.768   0.684
 6477SOL    HW219818   2.855   3.694   0.822
 6478SOL     OW19819   2.777   3.813   1.402
 6478SOL    HW119820   2.802   3.793   1.307
 6478SOL    HW219821   2.849   3.869   1.444
 6479SOL     OW19822   3.136   4.110   1.262
 6479SOL    HW119823   3.157   4.184   1.326
 6479SOL    HW219824   3.047   4.127   1.219
 6480SOL     OW19825   2.366   3.774   1.740
 6480SOL    HW119826   2.324   3.717   1.670
 6480SOL    HW219827   2.300   3.843   1.772
 6481SOL     OW19828   2.169   3.937   1.231
 6481SOL    HW119829   2.146   3.974   1.321
 6481SOL    HW219830   2.139   3.842   1.225
 6482SOL     OW19831   3.402   3.998   0.125
 6482SOL    HW119832   3.341   3.923   0.148
 6482SOL    HW219833   3.424   4.050   0.208
 6483SOL     OW19834   3.022   3.931   1.477
 6483SOL    HW119835   3.022   3.995   1.554
 6483SOL    HW219836   3.050   3.979   1.394
 6484SOL     OW19837   2.765   3.810   0.133
 6484SOL    HW119838   2.816   3.811   0.047
 6484SOL    HW219839   2.821   3.768   0.204
 6485SOL     OW19840   3.588   3.859   0.523
 6485SOL    HW119841   3.661   3.842   0.456
 6485SOL    HW219842   3.557   3.772   0.561
 6486SOL     OW19843   3.703   3.899   0.963
 6486SOL    HW119844   3.742   3.814   0.927
 6486SOL    HW219845   3.605   3.901   0.944
 6487SOL     OW19846   2.534   3.927   1.489
 6487SOL    HW119847   2.624   3.911   1.449
 6487SOL    HW219848   2.542   3.932   1.588
 6488SOL     OW19849   1.934   3.890   0.318
 6488SOL    HW119850   1.917   3.973   0.264
 6488SOL    HW219851   2.024   3.853   0.296
 6489SOL     OW19852   3.087   4.049   0.449
 6489SOL    HW119853   3.152   3.975   0.438
 6489SOL    HW219854   3.107   4.099   0.533
 6490SOL     OW19855   3.639   4.066   1.642
 6490SOL    HW119856   3.622   4.097   1.548
 6490SOL    HW219857   3.555   4.029   1.680
 6491SOL     OW19858   3.686   3.916   1.227
 6491SOL    HW119859   3.682   3.826   1.271
 6491SOL    HW219860   3.689   3.905   1.128
 6492SOL     OW19861   3.286   3.938   1.112
 6492SOL    HW119862   3.338   3.873   1.167
 6492SOL    HW219863   3.237   4.001   1.173
 6493SOL     OW19864   2.863   3.758   1.154
 6493SOL    HW119865   2.800   3.686   1.123
 6493SOL    HW219866   2.956   3.722   1.154
 6494SOL     OW19867   3.214   3.776   0.168
 6494SOL    HW119868   3.249   3.735   0.084
 6494SOL    HW219869   3.124   3.738   0.188
 6495SOL     OW19870   3.162   4.177   0.691
 6495SOL    HW119871   3.103   4.257   0.695
 6495SOL    HW219872   3.177   4.142   0.784
 6496SOL     OW19873   3.455   3.945   0.882
 6496SOL    HW119874   3.371   3.944   0.936
 6496SOL    HW219875   3.457   4.028   0.826
 6497SOL     OW19876   2.087   3.999   2.858
 6497SOL    HW119877   2.122   3.982   2.950
 6497SOL    HW219878   1.999   3.954   2.846
 6498SOL     OW19879   1.881   4.092   2.509
 6498SOL    HW119880   1.799   4.135   2.548
 6498SOL    HW219881   1.853   4.019   2.446
 6499SOL     OW19882   3.617   4.331   2.093
 6499SOL    HW119883   3.605   4.318   1.994
 6499SOL    HW219884   3.587   4.250   2.142
 6500SOL     OW19885   2.300   4.116   3.361
 6500SOL    HW119886   2.382   4.060   3.370
 6500SOL    HW219887   2.219   4.058   3.365
 6501SOL     OW19888   3.456   3.838   3.342
 6501SOL    HW119889   3.438   3.905   3.270
 6501SOL    HW219890   3.453   3.884   3.431
 6502SOL     OW19891   2.671   3.728   2.364
 6502SOL    HW119892   2.711   3.819   2.355
 6502SOL    HW219893   2.571   3.736   2.370
 6503SOL     OW19894   3.143   4.069   2.806
 6503SOL    HW119895   3.057   4.019   2.793
 6503SOL    HW219896   3.205   4.015   2.862
 6504SOL     OW19897   2.412   3.920   2.747
 6504SOL    HW119898   2.407   3.915   2.847
 6504SOL    HW219899   2.414   4.016   2.718
 6505SOL     OW19900   2.064   4.009   3.360
 6505SOL    HW119901   1.984   4.069   3.347
 6505SOL    HW219902   2.054   3.960   3.446
 6506SOL     OW19903   3.262   3.831   2.288
 6506SOL    HW119904   3.238   3.794   2.198
 6506SOL    HW219905   3.361   3.847   2.292
 6507SOL     OW19906   3.409   3.946   3.591
 6507SOL    HW119907   3.404   3.983   3.683
 6507SOL    HW219908   3.337   3.877   3.579
 6508SOL     OW19909   2.476   3.846   1.979
 6508SOL    HW119910   2.574   3.824   1.986
 6508SOL    HW219911   2.445   3.829   1.886
 6509SOL     OW19912   2.643   3.988   3.611
 6509SOL    HW119913   2.710   3.927   3.654
 6509SOL    HW219914   2.570   4.007   3.676
 6510SOL     OW19915   2.401   3.788   2.374
 6510SOL    HW119916   2.320   3.789   2.432
 6510SOL    HW219917   2.404   3.871   2.319
 6511SOL     OW19918   2.159   3.759   2.033
 6511SOL    HW119919   2.208   3.843   2.012
 6511SOL    HW219920   2.221   3.694   2.078
 6512SOL     OW19921   2.423   3.946   3.009
 6512SOL    HW119922   2.461   3.862   3.046
 6512SOL    HW219923   2.335   3.965   3.053
 6513SOL     OW19924   2.879   3.763   2.615
 6513SOL    HW119925   2.807   3.768   2.546
 6513SOL    HW219926   2.855   3.694   2.684
 6514SOL     OW19927   2.777   3.813   3.264
 6514SOL    HW119928   2.802   3.793   3.169
 6514SOL    HW219929   2.849   3.869   3.306
 6515SOL     OW19930   3.136   4.110   3.124
 6515SOL    HW119931   3.157   4.184   3.188
 6515SOL    HW219932   3.047   4.127   3.081
 6516SOL     OW19933   2.366   3.774   3.602
 6516SOL    HW119934   2.324   3.717   3.532
 6516SOL    HW219935   2.300   3.843   3.634
 6517SOL     OW19936   2.169   3.937   3.093
 6517SOL    HW119937   2.146   3.974   3.183
 6517SOL    HW219938   2.139   3.842   3.087
 6518SOL     OW19939   3.402   3.998   1.987
 6518SOL    HW119940   3.341   3.923   2.010
 6518SOL    HW219941   3.424   4.050   2.070
 6519SOL     OW19942   3.022   3.931   3.339
 6519SOL    HW119943   3.022   3.995   3.416
 6519SOL    HW219944   3.050   3.979   3.256
 6520SOL     OW19945   2.765   3.810   1.995
 6520SOL    HW119946   2.816   3.811   1.909
 6520SOL    HW219947   2.821   3.768   2.066
 6521SOL     OW19948   3.588   3.859   2.385
 6521SOL    HW119949   3.661   3.842   2.318
 6521SOL    HW219950   3.557   3.772   2.423
 6522SOL     OW19951   3.703   3.899   2.825
 6522SOL    HW119952   3.742   3.814   2.789
 6522SOL    HW219953   3.605   3.901   2.806
 6523SOL     OW19954   2.534   3.927   3.351
 6523SOL    HW119955   2.624   3.911   3.311
 6523SOL    HW219956   2.542   3.932   3.450
 6524SOL     OW19957   1.937   4.069   1.895
 6524SOL    HW119958   1.845   4.041   1.866
 6524SOL    HW219959   1.968   4.146   1.839
 6525SOL     OW19960   1.934   3.890   2.180
 6525SOL    HW119961   1.917   3.973   2.126
 6525SOL    HW219962   2.024   3.853   2.158
 6526SOL     OW19963   3.087   4.049   2.311
 6526SOL    HW119964   3.152   3.975   2.300
 6526SOL    HW219965   3.107   4.099   2.395
 6527SOL     OW19966   3.639   4.066   3.504
 6527SOL    HW119967   3.622   4.097   3.410
 6527SOL    HW219968   3.555   4.029   3.542
 6528SOL     OW19969   3.686   3.916   3.089
 6528SOL    HW119970   3.682   3.826   3.133
 6528SOL    HW219971   3.689   3.905   2.990
 6529SOL     OW19972   3.286   3.938   2.974
 6529SOL    HW119973   3.338   3.873   3.029
 6529SOL    HW219974   3.237   4.001   3.035
 6530SOL     OW19975   2.863   3.758   3.016
 6530SOL    HW119976   2.800   3.686   2.985
 6530SOL    HW219977   2.956   3.722   3.016
 6531SOL     OW19978   3.214   3.776   2.030
 6531SOL    HW119979   3.249   3.735   1.946
 6531SOL    HW219980   3.124   3.738   2.050
 6532SOL     OW19981   3.162   4.177   2.553
 6532SOL    HW119982   3.103   4.257   2.557
 6532SOL    HW219983   3.177   4.142   2.646
 6533SOL     OW19984   3.455   3.945   2.744
 6533SOL    HW119985   3.371   3.944   2.798
 6533SOL    HW219986   3.457   4.028   2.688
 6534SOL     OW19987   2.087   3.999   4.720
 6534SOL    HW119988   2.122   3.982   4.812
 6534SOL    HW219989   1.999   3.954   4.708
 6535SOL     OW19990   1.881   4.092   4.371
 6535SOL    HW119991   1.799   4.135   4.410
 6535SOL    HW219992   1.853   4.019   4.308
 6536SOL     OW19993   3.617   4.331   3.955
 6536SOL    HW119994   3.605   4.318   3.856
 6536SOL    HW219995   3.587   4.250   4.004
 6537SOL     OW19996   2.300   4.116   5.223
 6537SOL    HW119997   2.382   4.060   5.232
 6537SOL    HW219998   2.219   4.058   5.227
 6538SOL     OW19999   3.456   3.838   5.204
 6538SOL    HW120000   3.438   3.905   5.132
 6538SOL    HW220001   3.453   3.884   5.293
 6539SOL     OW20002   2.671   3.728   4.226
 6539SOL    HW120003   2.711   3.819   4.217
 6539SOL    HW220004   2.571   3.736   4.232
 6540SOL     OW20005   3.143   4.069   4.668
 6540SOL    HW120006   3.057   4.019   4.655
 6540SOL    HW220007   3.205   4.015   4.724
 6541SOL     OW20008   2.412   3.920   4.609
 6541SOL    HW120009   2.407   3.915   4.709
 6541SOL    HW220010   2.414   4.016   4.580
 6542SOL     OW20011   2.064   4.009   5.222
 6542SOL    HW120012   1.984   4.069   5.209
 6542SOL    HW220013   2.054   3.960   5.308
 6543SOL     OW20014   3.262   3.831   4.150
 6543SOL    HW120015   3.238   3.794   4.060
 6543SOL    HW220016   3.361   3.847   4.154
 6544SOL     OW20017   3.409   3.946   5.453
 6544SOL    HW120018   3.404   3.983   5.545
 6544SOL    HW220019   3.337   3.877   5.441
 6545SOL     OW20020   2.476   3.846   3.841
 6545SOL    HW120021   2.574   3.824   3.848
 6545SOL    HW220022   2.445   3.829   3.748
 6546SOL     OW20023   2.643   3.988   5.473
 6546SOL    HW120024   2.710   3.927   5.516
 6546SOL    HW220025   2.570   4.007   5.538
 6547SOL     OW20026   2.401   3.788   4.236
 6547SOL    HW120027   2.320   3.789   4.294
 6547SOL    HW220028   2.404   3.871   4.181
 6548SOL     OW20029   2.159   3.759   3.895
 6548SOL    HW120030   2.208   3.843   3.874
 6548SOL    HW220031   2.221   3.694   3.940
 6549SOL     OW20032   2.423   3.946   4.871
 6549SOL    HW120033   2.461   3.862   4.908
 6549SOL    HW220034   2.335   3.965   4.915
 6550SOL     OW20035   2.879   3.763   4.477
 6550SOL    HW120036   2.807   3.768   4.408
 6550SOL    HW220037   2.855   3.694   4.546
 6551SOL     OW20038   2.777   3.813   5.126
 6551SOL    HW120039   2.802   3.793   5.031
 6551SOL    HW220040   2.849   3.869   5.168
 6552SOL     OW20041   3.136   4.110   4.986
 6552SOL    HW120042   3.157   4.184   5.050
 6552SOL    HW220043   3.047   4.127   4.943
 6553SOL     OW20044   2.366   3.774   5.464
 6553SOL    HW120045   2.324   3.717   5.394
 6553SOL    HW220046   2.300   3.843   5.496
 6554SOL     OW20047   2.169   3.937   4.955
 6554SOL    HW120048   2.146   3.974   5.045
 6554SOL    HW220049   2.139   3.842   4.949
 6555SOL     OW20050   3.402   3.998   3.849
 6555SOL    HW120051   3.341   3.923   3.872
 6555SOL    HW220052   3.424   4.050   3.932
 6556SOL     OW20053   3.022   3.931   5.201
 6556SOL    HW120054   3.022   3.995   5.278
 6556SOL    HW220055   3.050   3.979   5.118
 6557SOL     OW20056   2.765   3.810   3.857
 6557SOL    HW120057   2.816   3.811   3.771
 6557SOL    HW220058   2.821   3.768   3.928
 6558SOL     OW20059   3.588   3.859   4.247
 6558SOL    HW120060   3.661   3.842   4.180
 6558SOL    HW220061   3.557   3.772   4.285
 6559SOL     OW20062   3.703   3.899   4.687
 6559SOL    HW120063   3.742   3.814   4.651
 6559SOL    HW220064   3.605   3.901   4.668
 6560SOL     OW20065   2.534   3.927   5.213
 6560SOL    HW120066   2.624   3.911   5.173
 6560SOL    HW220067   2.542   3.932   5.312
 6561SOL     OW20068   1.937   4.069   3.757
 6561SOL    HW120069   1.845   4.041   3.728
 6561SOL    HW220070   1.968   4.146   3.701
 6562SOL     OW20071   1.934   3.890   4.042
 6562SOL    HW120072   1.917   3.973   3.988
 6562SOL    HW220073   2.024   3.853   4.020
 6563SOL     OW20074   3.087   4.049   4.173
 6563SOL    HW120075   3.152   3.975   4.162
 6563SOL    HW220076   3.107   4.099   4.257
 6564SOL     OW20077   3.639   4.066   5.366
 6564SOL    HW120078   3.622   4.097   5.272
 6564SOL    HW220079   3.555   4.029   5.404
 6565SOL     OW20080   3.686   3.916   4.951
 6565SOL    HW120081   3.682   3.826   4.995
 6565SOL    HW220082   3.689   3.905   4.852
 6566SOL     OW20083   3.286   3.938   4.836
 6566SOL    HW120084   3.338   3.873   4.891
 6566SOL    HW220085   3.237   4.001   4.897
 6567SOL     OW20086   2.863   3.758   4.878
 6567SOL    HW120087   2.800   3.686   4.847
 6567SOL    HW220088   2.956   3.722   4.878
 6568SOL     OW20089   3.214   3.776   3.892
 6568SOL    HW120090   3.249   3.735   3.808
 6568SOL    HW220091   3.124   3.738   3.912
 6569SOL     OW20092   3.162   4.177   4.415
 6569SOL    HW120093   3.103   4.257   4.419
 6569SOL    HW220094   3.177   4.142   4.508
 6570SOL     OW20095   3.455   3.945   4.606
 6570SOL    HW120096   3.371   3.944   4.660
 6570SOL    HW220097   3.457   4.028   4.550
 6571SOL     OW20098   2.087   3.999   6.582
 6571SOL    HW120099   2.122   3.982   6.674
 6571SOL    HW220100   1.999   3.954   6.570
 6572SOL     OW20101   1.881   4.092   6.233
 6572SOL    HW120102   1.799   4.135   6.272
 6572SOL    HW220103   1.853   4.019   6.170
 6573SOL     OW20104   3.617   4.331   5.817
 6573SOL    HW120105   3.605   4.318   5.718
 6573SOL    HW220106   3.587   4.250   5.866
 6574SOL     OW20107   2.300   4.116   7.085
 6574SOL    HW120108   2.382   4.060   7.094
 6574SOL    HW220109   2.219   4.058   7.089
 6575SOL     OW20110   3.456   3.838   7.066
 6575SOL    HW120111   3.438   3.905   6.994
 6575SOL    HW220112   3.453   3.884   7.155
 6576SOL     OW20113   2.671   3.728   6.088
 6576SOL    HW120114   2.711   3.819   6.079
 6576SOL    HW220115   2.571   3.736   6.094
 6577SOL     OW20116   3.143   4.069   6.530
 6577SOL    HW120117   3.057   4.019   6.517
 6577SOL    HW220118   3.205   4.015   6.586
 6578SOL     OW20119   2.412   3.920   6.471
 6578SOL    HW120120   2.407   3.915   6.571
 6578SOL    HW220121   2.414   4.016   6.442
 6579SOL     OW20122   2.064   4.009   7.084
 6579SOL    HW120123   1.984   4.069   7.071
 6579SOL    HW220124   2.054   3.960   7.170
 6580SOL     OW20125   3.262   3.831   6.012
 6580SOL    HW120126   3.238   3.794   5.922
 6580SOL    HW220127   3.361   3.847   6.016
 6581SOL     OW20128   3.409   3.946   7.315
 6581SOL    HW120129   3.404   3.983   7.407
 6581SOL    HW220130   3.337   3.877   7.303
 6582SOL     OW20131   2.476   3.846   5.703
 6582SOL    HW120132   2.574   3.824   5.710
 6582SOL    HW220133   2.445   3.829   5.610
 6583SOL     OW20134   2.643   3.988   7.335
 6583SOL    HW120135   2.710   3.927   7.378
 6583SOL    HW220136   2.570   4.007   7.400
 6584SOL     OW20137   2.401   3.788   6.098
 6584SOL    HW120138   2.320   3.789   6.156
 6584SOL    HW220139   2.404   3.871   6.043
 6585SOL     OW20140   2.159   3.759   5.757
 6585SOL    HW120141   2.208   3.843   5.736
 6585SOL    HW220142   2.221   3.694   5.802
 6586SOL     OW20143   2.423   3.946   6.733
 6586SOL    HW120144   2.461   3.862   6.770
 6586SOL    HW220145   2.335   3.965   6.777
 6587SOL     OW20146   2.879   3.763   6.339
 6587SOL    HW120147   2.807   3.768   6.270
 6587SOL    HW220148   2.855   3.694   6.408
 6588SOL     OW20149   2.777   3.813   6.988
 6588SOL    HW120150   2.802   3.793   6.893
 6588SOL    HW220151   2.849   3.869   7.030
 6589SOL     OW20152   3.136   4.110   6.848
 6589SOL    HW120153   3.157   4.184   6.912
 6589SOL    HW220154   3.047   4.127   6.805
 6590SOL     OW20155   2.366   3.774   7.326
 6590SOL    HW120156   2.324   3.717   7.256
 6590SOL    HW220157   2.300   3.843   7.358
 6591SOL     OW20158   2.169   3.937   6.817
 6591SOL    HW120159   2.146   3.974   6.907
 6591SOL    HW220160   2.139   3.842   6.811
 6592SOL     OW20161   3.402   3.998   5.711
 6592SOL    HW120162   3.341   3.923   5.734
 6592SOL    HW220163   3.424   4.050   5.794
 6593SOL     OW20164   3.022   3.931   7.063
 6593SOL    HW120165   3.022   3.995   7.140
 6593SOL    HW220166   3.050   3.979   6.980
 6594SOL     OW20167   2.765   3.810   5.719
 6594SOL    HW120168   2.816   3.811   5.633
 6594SOL    HW220169   2.821   3.768   5.790
 6595SOL     OW20170   3.588   3.859   6.109
 6595SOL    HW120171   3.661   3.842   6.042
 6595SOL    HW220172   3.557   3.772   6.147
 6596SOL     OW20173   3.703   3.899   6.549
 6596SOL    HW120174   3.742   3.814   6.513
 6596SOL    HW220175   3.605   3.901   6.530
 6597SOL     OW20176   2.534   3.927   7.075
 6597SOL    HW120177   2.624   3.911   7.035
 6597SOL    HW220178   2.542   3.932   7.174
 6598SOL     OW20179   1.937   4.069   5.619
 6598SOL    HW120180   1.845   4.041   5.590
 6598SOL    HW220181   1.968   4.146   5.563
 6599SOL     OW20182   1.934   3.890   5.904
 6599SOL    HW120183   1.917   3.973   5.850
 6599SOL    HW220184   2.024   3.853   5.882
 6600SOL     OW20185   3.087   4.049   6.035
 6600SOL    HW120186   3.152   3.975   6.024
 6600SOL    HW220187   3.107   4.099   6.119
 6601SOL     OW20188   3.639   4.066   7.228
 6601SOL    HW120189   3.622   4.097   7.134
 6601SOL    HW220190   3.555   4.029   7.266
 6602SOL     OW20191   3.686   3.916   6.813
 6602SOL    HW120192   3.682   3.826   6.857
 6602SOL    HW220193   3.689   3.905   6.714
 6603SOL     OW20194   3.286   3.938   6.698
 6603SOL    HW120195   3.338   3.873   6.753
 6603SOL    HW220196   3.237   4.001   6.759
 6604SOL     OW20197   2.863   3.758   6.740
 6604SOL    HW120198   2.800   3.686   6.709
 6604SOL    HW220199   2.956   3.722   6.740
 6605SOL     OW20200   3.214   3.776   5.754
 6605SOL    HW120201   3.249   3.735   5.670
 6605SOL    HW220202   3.124   3.738   5.774
 6606SOL     OW20203   3.162   4.177   6.277
 6606SOL    HW120204   3.103   4.257   6.281
 6606SOL    HW220205   3.177   4.142   6.370
 6607SOL     OW20206   3.455   3.945   6.468
 6607SOL    HW120207   3.371   3.944   6.522
 6607SOL    HW220208   3.457   4.028   6.412
 6608SOL     OW20209   2.087   3.999   8.444
 6608SOL    HW120210   2.122   3.982   8.536
 6608SOL    HW220211   1.999   3.954   8.432
 6609SOL     OW20212   1.881   4.092   8.095
 6609SOL    HW120213   1.799   4.135   8.134
 6609SOL    HW220214   1.853   4.019   8.032
 6610SOL     OW20215   3.617   4.331   7.679
 6610SOL    HW120216   3.605   4.318   7.580
 6610SOL    HW220217   3.587   4.250   7.728
 6611SOL     OW20218   2.300   4.116   8.947
 6611SOL    HW120219   2.382   4.060   8.956
 6611SOL    HW220220   2.219   4.058   8.951
 6612SOL     OW20221   3.456   3.838   8.928
 6612SOL    HW120222   3.438   3.905   8.856
 6612SOL    HW220223   3.453   3.884   9.017
 6613SOL     OW20224   2.671   3.728   7.950
 6613SOL    HW120225   2.711   3.819   7.941
 6613SOL    HW220226   2.571   3.736   7.956
 6614SOL     OW20227   3.143   4.069   8.392
 6614SOL    HW120228   3.057   4.019   8.379
 6614SOL    HW220229   3.205   4.015   8.448
 6615SOL     OW20230   2.412   3.920   8.333
 6615SOL    HW120231   2.407   3.915   8.433
 6615SOL    HW220232   2.414   4.016   8.304
 6616SOL     OW20233   2.064   4.009   8.946
 6616SOL    HW120234   1.984   4.069   8.933
 6616SOL    HW220235   2.054   3.960   9.032
 6617SOL     OW20236   3.262   3.831   7.874
 6617SOL    HW120237   3.238   3.794   7.784
 6617SOL    HW220238   3.361   3.847   7.878
 6618SOL     OW20239   3.409   3.946   9.177
 6618SOL    HW120240   3.404   3.983   9.269
 6618SOL    HW220241   3.337   3.877   9.165
 6619SOL     OW20242   2.476   3.846   7.565
 6619SOL    HW120243   2.574   3.824   7.572
 6619SOL    HW220244   2.445   3.829   7.472
 6620SOL     OW20245   2.643   3.988   9.197
 6620SOL    HW120246   2.710   3.927   9.240
 6620SOL    HW220247   2.570   4.007   9.262
 6621SOL     OW20248   2.401   3.788   7.960
 6621SOL    HW120249   2.320   3.789   8.018
 6621SOL    HW220250   2.404   3.871   7.905
 6622SOL     OW20251   2.159   3.759   7.619
 6622SOL    HW120252   2.208   3.843   7.598
 6622SOL    HW220253   2.221   3.694   7.664
 6623SOL     OW20254   2.423   3.946   8.595
 6623SOL    HW120255   2.461   3.862   8.632
 6623SOL    HW220256   2.335   3.965   8.639
 6624SOL     OW20257   2.879   3.763   8.201
 6624SOL    HW120258   2.807   3.768   8.132
 6624SOL    HW220259   2.855   3.694   8.270
 6625SOL     OW20260   2.777   3.813   8.850
 6625SOL    HW120261   2.802   3.793   8.755
 6625SOL    HW220262   2.849   3.869   8.892
 6626SOL     OW20263   3.136   4.110   8.710
 6626SOL    HW120264   3.157   4.184   8.774
 6626SOL    HW220265   3.047   4.127   8.667
 6627SOL     OW20266   2.366   3.774   9.188
 6627SOL    HW120267   2.324   3.717   9.118
 6627SOL    HW220268   2.300   3.843   9.220
 6628SOL     OW20269   2.169   3.937   8.679
 6628SOL    HW120270   2.146   3.974   8.769
 6628SOL    HW220271   2.139   3.842   8.673
 6629SOL     OW20272   3.402   3.998   7.573
 6629SOL    HW120273   3.341   3.923   7.596
 6629SOL    HW220274   3.424   4.050   7.656
 6630SOL     OW20275   3.022   3.931   8.925
 6630SOL    HW120276   3.022   3.995   9.002
 6630SOL    HW220277   3.050   3.979   8.842
 6631SOL     OW20278   2.765   3.810   7.581
 6631SOL    HW120279   2.816   3.811   7.495
 6631SOL    HW220280   2.821   3.768   7.652
 6632SOL     OW20281   3.588   3.859   7.971
 6632SOL    HW120282   3.661   3.842   7.904
 6632SOL    HW220283   3.557   3.772   8.009
 6633SOL     OW20284   3.703   3.899   8.411
 6633SOL    HW120285   3.742   3.814   8.375
 6633SOL    HW220286   3.605   3.901   8.392
 6634SOL     OW20287   2.534   3.927   8.937
 6634SOL    HW120288   2.624   3.911   8.897
 6634SOL    HW220289   2.542   3.932   9.036
 6635SOL     OW20290   1.937   4.069   7.481
 6635SOL    HW120291   1.845   4.041   7.452
 6635SOL    HW220292   1.968   4.146   7.425
 6636SOL     OW20293   1.934   3.890   7.766
 6636SOL    HW120294   1.917   3.973   7.712
 6636SOL    HW220295   2.024   3.853   7.744
 6637SOL     OW20296   3.087   4.049   7.897
 6637SOL    HW120297   3.152   3.975   7.886
 6637SOL    HW220298   3.107   4.099   7.981
 6638SOL     OW20299   3.639   4.066   9.090
 6638SOL    HW120300   3.622   4.097   8.996
 6638SOL    HW220301   3.555   4.029   9.128
 6639SOL     OW20302   3.686   3.916   8.675
 6639SOL    HW120303   3.682   3.826   8.719
 6639SOL    HW220304   3.689   3.905   8.576
 6640SOL     OW20305   3.286   3.938   8.560
 6640SOL    HW120306   3.338   3.873   8.615
 6640SOL    HW220307   3.237   4.001   8.621
 6641SOL     OW20308   2.863   3.758   8.602
 6641SOL    HW120309   2.800   3.686   8.571
 6641SOL    HW220310   2.956   3.722   8.602
 6642SOL     OW20311   3.214   3.776   7.616
 6642SOL    HW120312   3.249   3.735   7.532
 6642SOL    HW220313   3.124   3.738   7.636
 6643SOL     OW20314   3.162   4.177   8.139
 6643SOL    HW120315   3.103   4.257   8.143
 6643SOL    HW220316   3.177   4.142   8.232
 6644SOL     OW20317   3.455   3.945   8.330
 6644SOL    HW120318   3.371   3.944   8.384
 6644SOL    HW220319   3.457   4.028   8.274
 6645SOL     OW20320   2.087   3.999  10.306
 6645SOL    HW120321   2.122   3.982  10.398
 6645SOL    HW220322   1.999   3.954  10.294
 6646SOL     OW20323   1.881   4.092   9.957
 6646SOL    HW120324   1.799   4.135   9.996
 6646SOL    HW220325   1.853   4.019   9.894
 6647SOL     OW20326   3.617   4.331   9.541
 6647SOL    HW120327   3.605   4.318   9.442
 6647SOL    HW220328   3.587   4.250   9.590
 6648SOL     OW20329   2.300   4.116  10.809
 6648SOL    HW120330   2.382   4.060  10.818
 6648SOL    HW220331   2.219   4.058  10.813
 6649SOL     OW20332   3.456   3.838  10.790
 6649SOL    HW120333   3.438   3.905  10.718
 6649SOL    HW220334   3.453   3.884  10.879
 6650SOL     OW20335   2.671   3.728   9.812
 6650SOL    HW120336   2.711   3.819   9.803
 6650SOL    HW220337   2.571   3.736   9.818
 6651SOL     OW20338   3.143   4.069  10.254
 6651SOL    HW120339   3.057   4.019  10.241
 6651SOL    HW220340   3.205   4.015  10.310
 6652SOL     OW20341   2.412   3.920  10.195
 6652SOL    HW120342   2.407   3.915  10.295
 6652SOL    HW220343   2.414   4.016  10.166
 6653SOL     OW20344   2.064   4.009  10.808
 6653SOL    HW120345   1.984   4.069  10.795
 6653SOL    HW220346   2.054   3.960  10.894
 6654SOL     OW20347   3.262   3.831   9.736
 6654SOL    HW120348   3.238   3.794   9.646
 6654SOL    HW220349   3.361   3.847   9.740
 6655SOL     OW20350   3.409   3.946  11.039
 6655SOL    HW120351   3.404   3.983  11.131
 6655SOL    HW220352   3.337   3.877  11.027
 6656SOL     OW20353   2.476   3.846   9.427
 6656SOL    HW120354   2.574   3.824   9.434
 6656SOL    HW220355   2.445   3.829   9.334
 6657SOL     OW20356   2.643   3.988  11.059
 6657SOL    HW120357   2.710   3.927  11.102
 6657SOL    HW220358   2.570   4.007  11.124
 6658SOL     OW20359   2.401   3.788   9.822
 6658SOL    HW120360   2.320   3.789   9.880
 6658SOL    HW220361   2.404   3.871   9.767
 6659SOL     OW20362   2.159   3.759   9.481
 6659SOL    HW120363   2.208   3.843   9.460
 6659SOL    HW220364   2.221   3.694   9.526
 6660SOL     OW20365   2.423   3.946  10.457
 6660SOL    HW120366   2.461   3.862  10.494
 6660SOL    HW220367   2.335   3.965  10.501
 6661SOL     OW20368   2.879   3.763  10.063
 6661SOL    HW120369   2.807   3.768   9.994
 6661SOL    HW220370   2.855   3.694  10.132
 6662SOL     OW20371   2.777   3.813  10.712
 6662SOL    HW120372   2.802   3.793  10.617
 6662SOL    HW220373   2.849   3.869  10.754
 6663SOL     OW20374   3.136   4.110  10.572
 6663SOL    HW120375   3.157   4.184  10.636
 6663SOL    HW220376   3.047   4.127  10.529
 6664SOL     OW20377   2.366   3.774  11.050
 6664SOL    HW120378   2.324   3.717  10.980
 6664SOL    HW220379   2.300   3.843  11.082
 6665SOL     OW20380   2.169   3.937  10.541
 6665SOL    HW120381   2.146   3.974  10.631
 6665SOL    HW220382   2.139   3.842  10.535
 6666SOL     OW20383   3.402   3.998   9.435
 6666SOL    HW120384   3.341   3.923   9.458
 6666SOL    HW220385   3.424   4.050   9.518
 6667SOL     OW20386   3.022   3.931  10.787
 6667SOL    HW120387   3.022   3.995  10.864
 6667SOL    HW220388   3.050   3.979  10.704
 6668SOL     OW20389   2.765   3.810   9.443
 6668SOL    HW120390   2.816   3.811   9.357
 6668SOL    HW220391   2.821   3.768   9.514
 6669SOL     OW20392   3.588   3.859   9.833
 6669SOL    HW120393   3.661   3.842   9.766
 6669SOL    HW220394   3.557   3.772   9.871
 6670SOL     OW20395   3.703   3.899  10.273
 6670SOL    HW120396   3.742   3.814  10.237
 6670SOL    HW220397   3.605   3.901  10.254
 6671SOL     OW20398   2.534   3.927  10.799
 6671SOL    HW120399   2.624   3.911  10.759
 6671SOL    HW220400   2.542   3.932  10.898
 6672SOL     OW20401   1.937   4.069   9.343
 6672SOL    HW120402   1.845   4.041   9.314
 6672SOL    HW220403   1.968   4.146   9.287
 6673SOL     OW20404   1.934   3.890   9.628
 6673SOL    HW120405   1.917   3.973   9.574
 6673SOL    HW220406   2.024   3.853   9.606
 6674SOL     OW20407   3.087   4.049   9.759
 6674SOL    HW120408   3.152   3.975   9.748
 6674SOL    HW220409   3.107   4.099   9.843
 6675SOL     OW20410   3.639   4.066  10.952
 6675SOL    HW120411   3.622   4.097  10.858
 6675SOL    HW220412   3.555   4.029  10.990
 6676SOL     OW20413   3.686   3.916  10.537
 6676SOL    HW120414   3.682   3.826  10.581
 6676SOL    HW220415   3.689   3.905  10.438
 6677SOL     OW20416   3.286   3.938  10.422
 6677SOL    HW120417   3.338   3.873  10.477
 6677SOL    HW220418   3.237   4.001  10.483
 6678SOL     OW20419   2.863   3.758  10.464
 6678SOL    HW120420   2.800   3.686  10.433
 6678SOL    HW220421   2.956   3.722  10.464
 6679SOL     OW20422   3.214   3.776   9.478
 6679SOL    HW120423   3.249   3.735   9.394
 6679SOL    HW220424   3.124   3.738   9.498
 6680SOL     OW20425   3.162   4.177  10.001
 6680SOL    HW120426   3.103   4.257  10.005
 6680SOL    HW220427   3.177   4.142  10.094
 6681SOL     OW20428   3.455   3.945  10.192
 6681SOL    HW120429   3.371   3.944  10.246
 6681SOL    HW220430   3.457   4.028  10.136
 6682SOL     OW20431   2.087   3.999  12.168
 6682SOL    HW120432   2.122   3.982  12.260
 6682SOL    HW220433   1.999   3.954  12.156
 6683SOL     OW20434   1.881   4.092  11.819
 6683SOL    HW120435   1.799   4.135  11.858
 6683SOL    HW220436   1.853   4.019  11.756
 6684SOL     OW20437   3.617   4.331  11.403
 6684SOL    HW120438   3.605   4.318  11.304
 6684SOL    HW220439   3.587   4.250  11.452
 6685SOL     OW20440   2.300   4.116  12.671
 6685SOL    HW120441   2.382   4.060  12.680
 6685SOL    HW220442   2.219   4.058  12.675
 6686SOL     OW20443   3.456   3.838  12.652
 6686SOL    HW120444   3.438   3.905  12.580
 6686SOL    HW220445   3.453   3.884  12.741
 6687SOL     OW20446   2.671   3.728  11.674
 6687SOL    HW120447   2.711   3.819  11.665
 6687SOL    HW220448   2.571   3.736  11.680
 6688SOL     OW20449   3.143   4.069  12.116
 6688SOL    HW120450   3.057   4.019  12.103
 6688SOL    HW220451   3.205   4.015  12.172
 6689SOL     OW20452   2.412   3.920  12.057
 6689SOL    HW120453   2.407   3.915  12.157
 6689SOL    HW220454   2.414   4.016  12.028
 6690SOL     OW20455   2.064   4.009  12.670
 6690SOL    HW120456   1.984   4.069  12.657
 6690SOL    HW220457   2.054   3.960  12.756
 6691SOL     OW20458   3.262   3.831  11.598
 6691SOL    HW120459   3.238   3.794  11.508
 6691SOL    HW220460   3.361   3.847  11.602
 6692SOL     OW20461   3.409   3.946  12.901
 6692SOL    HW120462   3.404   3.983  12.993
 6692SOL    HW220463   3.337   3.877  12.889
 6693SOL     OW20464   2.476   3.846  11.289
 6693SOL    HW120465   2.574   3.824  11.296
 6693SOL    HW220466   2.445   3.829  11.196
 6694SOL     OW20467   2.643   3.988  12.921
 6694SOL    HW120468   2.710   3.927  12.964
 6694SOL    HW220469   2.570   4.007  12.986
 6695SOL     OW20470   2.401   3.788  11.684
 6695SOL    HW120471   2.320   3.789  11.742
 6695SOL    HW220472   2.404   3.871  11.629
 6696SOL     OW20473   2.159   3.759  11.343
 6696SOL    HW120474   2.208   3.843  11.322
 6696SOL    HW220475   2.221   3.694  11.388
 6697SOL     OW20476   2.423   3.946  12.319
 6697SOL    HW120477   2.461   3.862  12.356
 6697SOL    HW220478   2.335   3.965  12.363
 6698SOL     OW20479   2.879   3.763  11.925
 6698SOL    HW120480   2.807   3.768  11.856
 6698SOL    HW220481   2.855   3.694  11.994
 6699SOL     OW20482   2.777   3.813  12.574
 6699SOL    HW120483   2.802   3.793  12.479
 6699SOL    HW220484   2.849   3.869  12.616
 6700SOL     OW20485   3.136   4.110  12.434
 6700SOL    HW120486   3.157   4.184  12.498
 6700SOL    HW220487   3.047   4.127  12.391
 6701SOL     OW20488   2.366   3.774  12.912
 6701SOL    HW120489   2.324   3.717  12.842
 6701SOL    HW220490   2.300   3.843  12.944
 6702SOL     OW20491   2.169   3.937  12.403
 6702SOL    HW120492   2.146   3.974  12.493
 6702SOL    HW220493   2.139   3.842  12.397
 6703SOL     OW20494   3.402   3.998  11.297
 6703SOL    HW120495   3.341   3.923  11.320
 6703SOL    HW220496   3.424   4.050  11.380
 6704SOL     OW20497   3.022   3.931  12.649
 6704SOL    HW120498   3.022   3.995  12.726
 6704SOL    HW220499   3.050   3.979  12.566
 6705SOL     OW20500   2.765   3.810  11.305
 6705SOL    HW120501   2.816   3.811  11.219
 6705SOL    HW220502   2.821   3.768  11.376
 6706SOL     OW20503   3.588   3.859  11.695
 6706SOL    HW120504   3.661   3.842  11.628
 6706SOL    HW220505   3.557   3.772  11.733
 6707SOL     OW20506   3.703   3.899  12.135
 6707SOL    HW120507   3.742   3.814  12.099
 6707SOL    HW220508   3.605   3.901  12.116
 6708SOL     OW20509   2.534   3.927  12.661
 6708SOL    HW120510   2.624   3.911  12.621
 6708SOL    HW220511   2.542   3.932  12.760
 6709SOL     OW20512   1.937   4.069  11.205
 6709SOL    HW120513   1.845   4.041  11.176
 6709SOL    HW220514   1.968   4.146  11.149
 6710SOL     OW20515   1.934   3.890  11.490
 6710SOL    HW120516   1.917   3.973  11.436
 6710SOL    HW220517   2.024   3.853  11.468
 6711SOL     OW20518   3.087   4.049  11.621
 6711SOL    HW120519   3.152   3.975  11.610
 6711SOL    HW220520   3.107   4.099  11.705
 6712SOL     OW20521   3.639   4.066  12.814
 6712SOL    HW120522   3.622   4.097  12.720
 6712SOL    HW220523   3.555   4.029  12.852
 6713SOL     OW20524   3.686   3.916  12.399
 6713SOL    HW120525   3.682   3.826  12.443
 6713SOL    HW220526   3.689   3.905  12.300
 6714SOL     OW20527   3.286   3.938  12.284
 6714SOL    HW120528   3.338   3.873  12.339
 6714SOL    HW220529   3.237   4.001  12.345
 6715SOL     OW20530   2.863   3.758  12.326
 6715SOL    HW120531   2.800   3.686  12.295
 6715SOL    HW220532   2.956   3.722  12.326
 6716SOL     OW20533   3.214   3.776  11.340
 6716SOL    HW120534   3.249   3.735  11.256
 6716SOL    HW220535   3.124   3.738  11.360
 6717SOL     OW20536   3.162   4.177  11.863
 6717SOL    HW120537   3.103   4.257  11.867
 6717SOL    HW220538   3.177   4.142  11.956
 6718SOL     OW20539   3.455   3.945  12.054
 6718SOL    HW120540   3.371   3.944  12.108
 6718SOL    HW220541   3.457   4.028  11.998
 6719SOL     OW20542   1.881   4.092  13.681
 6719SOL    HW120543   1.799   4.135  13.720
 6719SOL    HW220544   1.853   4.019  13.618
 6720SOL     OW20545   3.617   4.331  13.265
 6720SOL    HW120546   3.605   4.318  13.166
 6720SOL    HW220547   3.587   4.250  13.314
 6721SOL     OW20548   3.465   4.171  13.771
 6721SOL    HW120549   3.391   4.217  13.721
 6721SOL    HW220550   3.516   4.239  13.824
 6722SOL     OW20551   2.671   3.728  13.536
 6722SOL    HW120552   2.711   3.819  13.527
 6722SOL    HW220553   2.571   3.736  13.542
 6723SOL     OW20554   3.262   3.831  13.460
 6723SOL    HW120555   3.238   3.794  13.370
 6723SOL    HW220556   3.361   3.847  13.464
 6724SOL     OW20557   2.476   3.846  13.151
 6724SOL    HW120558   2.574   3.824  13.158
 6724SOL    HW220559   2.445   3.829  13.058
 6725SOL     OW20560   2.401   3.788  13.546
 6725SOL    HW120561   2.320   3.789  13.604
 6725SOL    HW220562   2.404   3.871  13.491
 6726SOL     OW20563   2.159   3.759  13.205
 6726SOL    HW120564   2.208   3.843  13.184
 6726SOL    HW220565   2.221   3.694  13.250
 6727SOL     OW20566   2.879   3.763  13.787
 6727SOL    HW120567   2.807   3.768  13.718
 6727SOL    HW220568   2.855   3.694  13.856
 6728SOL     OW20569   3.402   3.998  13.159
 6728SOL    HW120570   3.341   3.923  13.182
 6728SOL    HW220571   3.424   4.050  13.242
 6729SOL     OW20572   2.765   3.810  13.167
 6729SOL    HW120573   2.816   3.811  13.081
 6729SOL    HW220574   2.821   3.768  13.238
 6730SOL     OW20575   3.588   3.859  13.557
 6730SOL    HW120576   3.661   3.842  13.490
 6730SOL    HW220577   3.557   3.772  13.595
 6731SOL     OW20578   3.703   3.899  13.997
 6731SOL    HW120579   3.742   3.814  13.961
 6731SOL    HW220580   3.605   3.901  13.978
 6732SOL     OW20581   1.937   4.069  13.067
 6732SOL    HW120582   1.845   4.041  13.038
 6732SOL    HW220583   1.968   4.146  13.011
 6733SOL     OW20584   1.934   3.890  13.352
 6733SOL    HW120585   1.917   3.973  13.298
 6733SOL    HW220586   2.024   3.853  13.330
 6734SOL     OW20587   3.087   4.049  13.483
 6734SOL    HW120588   3.152   3.975  13.472
 6734SOL    HW220589   3.107   4.099  13.567
 6735SOL     OW20590   3.214   3.776  13.202
 6735SOL    HW120591   3.249   3.735  13.118
 6735SOL    HW220592   3.124   3.738  13.222
 6736SOL     OW20593   3.162   4.177  13.725
 6736SOL    HW120594   3.103   4.257  13.729
 6736SOL    HW220595   3.177   4.142  13.818
 6737SOL     OW20596   3.954   0.628   0.113
 6737SOL    HW120597   3.861   0.626   0.150
 6737SOL    HW220598   3.955   0.589   0.021
 6738SOL     OW20599   3.949   0.275   0.996
 6738SOL    HW120600   3.984   0.258   1.088
 6738SOL    HW220601   3.861   0.230   0.984
 6739SOL     OW20602   3.743   0.368   0.647
 6739SOL    HW120603   3.661   0.411   0.686
 6739SOL    HW220604   3.715   0.295   0.584
 6740SOL     OW20605   4.059   1.435   1.061
 6740SOL    HW120606   3.981   1.404   1.008
 6740SOL    HW220607   4.117   1.493   1.004
 6741SOL     OW20608   3.955   1.713   0.483
 6741SOL    HW120609   3.989   1.790   0.537
 6741SOL    HW220610   3.999   1.713   0.393
 6742SOL     OW20611   3.954   1.434   0.538
 6742SOL    HW120612   3.928   1.530   0.538
 6742SOL    HW220613   3.883   1.380   0.583
 6743SOL     OW20614   3.846   0.643   0.563
 6743SOL    HW120615   3.801   0.555   0.580
 6743SOL    HW220616   3.845   0.697   0.647
 6744SOL     OW20617   3.751   1.596   0.117
 6744SOL    HW120618   3.732   1.500   0.138
 6744SOL    HW220619   3.718   1.654   0.192
 6745SOL     OW20620   3.837   0.737   1.597
 6745SOL    HW120621   3.925   0.724   1.642
 6745SOL    HW220622   3.824   0.834   1.575
 6746SOL     OW20623   3.800   0.811   0.789
 6746SOL    HW120624   3.899   0.799   0.798
 6746SOL    HW220625   3.776   0.906   0.810
 6747SOL     OW20626   3.854   1.821   1.571
 6747SOL    HW120627   3.844   1.806   1.670
 6747SOL    HW220628   3.768   1.857   1.535
 6748SOL     OW20629   3.926   0.285   1.498
 6748SOL    HW120630   3.846   0.345   1.485
 6748SOL    HW220631   3.916   0.236   1.584
 6749SOL     OW20632   3.802   0.556   1.386
 6749SOL    HW120633   3.894   0.555   1.345
 6749SOL    HW220634   3.796   0.630   1.453
 6750SOL     OW20635   3.788   1.564   1.331
 6750SOL    HW120636   3.742   1.646   1.297
 6750SOL    HW220637   3.886   1.583   1.340
 6751SOL     OW20638   4.091   1.100   0.501
 6751SOL    HW120639   4.084   1.183   0.445
 6751SOL    HW220640   4.095   1.020   0.441
 6752SOL     OW20641   4.031   0.213   1.231
 6752SOL    HW120642   4.008   0.250   1.321
 6752SOL    HW220643   4.001   0.118   1.225
 6753SOL     OW20644   3.761   1.310   1.282
 6753SOL    HW120645   3.814   1.261   1.350
 6753SOL    HW220646   3.783   1.408   1.287
 6754SOL     OW20647   3.732   1.326   0.200
 6754SOL    HW120648   3.639   1.347   0.169
 6754SOL    HW220649   3.742   1.227   0.213
 6755SOL     OW20650   3.812   1.801   0.927
 6755SOL    HW120651   3.770   1.715   0.900
 6755SOL    HW220652   3.906   1.804   0.893
 6756SOL     OW20653   4.228   1.568   0.910
 6756SOL    HW120654   4.294   1.642   0.919
 6756SOL    HW220655   4.272   1.489   0.868
 6757SOL     OW20656   3.764   0.544   1.114
 6757SOL    HW120657   3.849   0.511   1.073
 6757SOL    HW220658   3.777   0.559   1.212
 6758SOL     OW20659   3.913   0.520   1.722
 6758SOL    HW120660   3.972   0.480   1.652
 6758SOL    HW220661   3.855   0.591   1.681
 6759SOL     OW20662   3.976   1.564   1.744
 6759SOL    HW120663   3.946   1.621   1.820
 6759SOL    HW220664   3.969   1.467   1.770
 6760SOL     OW20665   3.883   1.137   1.466
 6760SOL    HW120666   3.905   1.076   1.542
 6760SOL    HW220667   3.893   1.088   1.380
 6761SOL     OW20668   3.807   1.258   1.022
 6761SOL    HW120669   3.802   1.257   1.122
 6761SOL    HW220670   3.724   1.217   0.984
 6762SOL     OW20671   3.854   1.794   1.851
 6762SOL    HW120672   3.813   1.720   1.904
 6762SOL    HW220673   3.918   1.845   1.909
 6763SOL     OW20674   3.799   0.345   0.033
 6763SOL    HW120675   3.707   0.317   0.004
 6763SOL    HW220676   3.830   0.422  -0.023
 6764SOL     OW20677   3.796   0.166   0.318
 6764SOL    HW120678   3.779   0.249   0.264
 6764SOL    HW220679   3.886   0.129   0.296
 6765SOL     OW20680   3.803   1.240   0.653
 6765SOL    HW120681   3.802   1.193   0.741
 6765SOL    HW220682   3.885   1.212   0.602
 6766SOL     OW20683   3.763   1.077   0.300
 6766SOL    HW120684   3.862   1.066   0.291
 6766SOL    HW220685   3.723   0.991   0.332
 6767SOL     OW20686   3.954   0.628   1.975
 6767SOL    HW120687   3.861   0.626   2.012
 6767SOL    HW220688   3.955   0.589   1.883
 6768SOL     OW20689   3.949   0.275   2.858
 6768SOL    HW120690   3.984   0.258   2.950
 6768SOL    HW220691   3.861   0.230   2.846
 6769SOL     OW20692   3.743   0.368   2.509
 6769SOL    HW120693   3.661   0.411   2.548
 6769SOL    HW220694   3.715   0.295   2.446
 6770SOL     OW20695   4.059   1.435   2.923
 6770SOL    HW120696   3.981   1.404   2.870
 6770SOL    HW220697   4.117   1.493   2.866
 6771SOL     OW20698   3.955   1.713   2.345
 6771SOL    HW120699   3.989   1.790   2.399
 6771SOL    HW220700   3.999   1.713   2.255
 6772SOL     OW20701   3.954   1.434   2.400
 6772SOL    HW120702   3.928   1.530   2.400
 6772SOL    HW220703   3.883   1.380   2.445
 6773SOL     OW20704   3.846   0.643   2.425
 6773SOL    HW120705   3.801   0.555   2.442
 6773SOL    HW220706   3.845   0.697   2.509
 6774SOL     OW20707   3.751   1.596   1.979
 6774SOL    HW120708   3.732   1.500   2.000
 6774SOL    HW220709   3.718   1.654   2.054
 6775SOL     OW20710   3.837   0.737   3.459
 6775SOL    HW120711   3.925   0.724   3.504
 6775SOL    HW220712   3.824   0.834   3.437
 6776SOL     OW20713   3.800   0.811   2.651
 6776SOL    HW120714   3.899   0.799   2.660
 6776SOL    HW220715   3.776   0.906   2.672
 6777SOL     OW20716   3.854   1.821   3.433
 6777SOL    HW120717   3.844   1.806   3.532
 6777SOL    HW220718   3.768   1.857   3.397
 6778SOL     OW20719   3.926   0.285   3.360
 6778SOL    HW120720   3.846   0.345   3.347
 6778SOL    HW220721   3.916   0.236   3.446
 6779SOL     OW20722   3.802   0.556   3.248
 6779SOL    HW120723   3.894   0.555   3.207
 6779SOL    HW220724   3.796   0.630   3.315
 6780SOL     OW20725   4.251   0.256   2.190
 6780SOL    HW120726   4.278   0.197   2.115
 6780SOL    HW220727   4.251   0.351   2.159
 6781SOL     OW20728   3.788   1.564   3.193
 6781SOL    HW120729   3.742   1.646   3.159
 6781SOL    HW220730   3.886   1.583   3.202
 6782SOL     OW20731   4.091   1.100   2.363
 6782SOL    HW120732   4.084   1.183   2.307
 6782SOL    HW220733   4.095   1.020   2.303
 6783SOL     OW20734   4.031   0.213   3.093
 6783SOL    HW120735   4.008   0.250   3.183
 6783SOL    HW220736   4.001   0.118   3.087
 6784SOL     OW20737   3.761   1.310   3.144
 6784SOL    HW120738   3.814   1.261   3.212
 6784SOL    HW220739   3.783   1.408   3.149
 6785SOL     OW20740   3.732   1.326   2.062
 6785SOL    HW120741   3.639   1.347   2.031
 6785SOL    HW220742   3.742   1.227   2.075
 6786SOL     OW20743   3.812   1.801   2.789
 6786SOL    HW120744   3.770   1.715   2.762
 6786SOL    HW220745   3.906   1.804   2.755
 6787SOL     OW20746   4.228   1.568   2.772
 6787SOL    HW120747   4.294   1.642   2.781
 6787SOL    HW220748   4.272   1.489   2.730
 6788SOL     OW20749   3.764   0.544   2.976
 6788SOL    HW120750   3.849   0.511   2.935
 6788SOL    HW220751   3.777   0.559   3.074
 6789SOL     OW20752   3.913   0.520   3.584
 6789SOL    HW120753   3.972   0.480   3.514
 6789SOL    HW220754   3.855   0.591   3.543
 6790SOL     OW20755   3.976   1.564   3.606
 6790SOL    HW120756   3.946   1.621   3.682
 6790SOL    HW220757   3.969   1.467   3.632
 6791SOL     OW20758   3.883   1.137   3.328
 6791SOL    HW120759   3.905   1.076   3.404
 6791SOL    HW220760   3.893   1.088   3.242
 6792SOL     OW20761   3.807   1.258   2.884
 6792SOL    HW120762   3.802   1.257   2.984
 6792SOL    HW220763   3.724   1.217   2.846
 6793SOL     OW20764   3.854   1.794   3.713
 6793SOL    HW120765   3.813   1.720   3.766
 6793SOL    HW220766   3.918   1.845   3.771
 6794SOL     OW20767   3.799   0.345   1.895
 6794SOL    HW120768   3.707   0.317   1.866
 6794SOL    HW220769   3.830   0.422   1.839
 6795SOL     OW20770   3.796   0.166   2.180
 6795SOL    HW120771   3.779   0.249   2.126
 6795SOL    HW220772   3.886   0.129   2.158
 6796SOL     OW20773   3.803   1.240   2.515
 6796SOL    HW120774   3.802   1.193   2.603
 6796SOL    HW220775   3.885   1.212   2.464
 6797SOL     OW20776   3.763   1.077   2.162
 6797SOL    HW120777   3.862   1.066   2.153
 6797SOL    HW220778   3.723   0.991   2.194
 6798SOL     OW20779   3.954   0.628   3.837
 6798SOL    HW120780   3.861   0.626   3.874
 6798SOL    HW220781   3.955   0.589   3.745
 6799SOL     OW20782   3.949   0.275   4.720
 6799SOL    HW120783   3.984   0.258   4.812
 6799SOL    HW220784   3.861   0.230   4.708
 6800SOL     OW20785   3.743   0.368   4.371
 6800SOL    HW120786   3.661   0.411   4.410
 6800SOL    HW220787   3.715   0.295   4.308
 6801SOL     OW20788   4.059   1.435   4.785
 6801SOL    HW120789   3.981   1.404   4.732
 6801SOL    HW220790   4.117   1.493   4.728
 6802SOL     OW20791   3.955   1.713   4.207
 6802SOL    HW120792   3.989   1.790   4.261
 6802SOL    HW220793   3.999   1.713   4.117
 6803SOL     OW20794   3.954   1.434   4.262
 6803SOL    HW120795   3.928   1.530   4.262
 6803SOL    HW220796   3.883   1.380   4.307
 6804SOL     OW20797   3.846   0.643   4.287
 6804SOL    HW120798   3.801   0.555   4.304
 6804SOL    HW220799   3.845   0.697   4.371
 6805SOL     OW20800   3.751   1.596   3.841
 6805SOL    HW120801   3.732   1.500   3.862
 6805SOL    HW220802   3.718   1.654   3.916
 6806SOL     OW20803   3.837   0.737   5.321
 6806SOL    HW120804   3.925   0.724   5.366
 6806SOL    HW220805   3.824   0.834   5.299
 6807SOL     OW20806   3.800   0.811   4.513
 6807SOL    HW120807   3.899   0.799   4.522
 6807SOL    HW220808   3.776   0.906   4.534
 6808SOL     OW20809   3.854   1.821   5.295
 6808SOL    HW120810   3.844   1.806   5.394
 6808SOL    HW220811   3.768   1.857   5.259
 6809SOL     OW20812   3.926   0.285   5.222
 6809SOL    HW120813   3.846   0.345   5.209
 6809SOL    HW220814   3.916   0.236   5.308
 6810SOL     OW20815   3.802   0.556   5.110
 6810SOL    HW120816   3.894   0.555   5.069
 6810SOL    HW220817   3.796   0.630   5.177
 6811SOL     OW20818   4.251   0.256   4.052
 6811SOL    HW120819   4.278   0.197   3.977
 6811SOL    HW220820   4.251   0.351   4.021
 6812SOL     OW20821   3.788   1.564   5.055
 6812SOL    HW120822   3.742   1.646   5.021
 6812SOL    HW220823   3.886   1.583   5.064
 6813SOL     OW20824   4.091   1.100   4.225
 6813SOL    HW120825   4.084   1.183   4.169
 6813SOL    HW220826   4.095   1.020   4.165
 6814SOL     OW20827   4.031   0.213   4.955
 6814SOL    HW120828   4.008   0.250   5.045
 6814SOL    HW220829   4.001   0.118   4.949
 6815SOL     OW20830   3.761   1.310   5.006
 6815SOL    HW120831   3.814   1.261   5.074
 6815SOL    HW220832   3.783   1.408   5.011
 6816SOL     OW20833   3.732   1.326   3.924
 6816SOL    HW120834   3.639   1.347   3.893
 6816SOL    HW220835   3.742   1.227   3.937
 6817SOL     OW20836   3.812   1.801   4.651
 6817SOL    HW120837   3.770   1.715   4.624
 6817SOL    HW220838   3.906   1.804   4.617
 6818SOL     OW20839   4.228   1.568   4.634
 6818SOL    HW120840   4.294   1.642   4.643
 6818SOL    HW220841   4.272   1.489   4.592
 6819SOL     OW20842   3.764   0.544   4.838
 6819SOL    HW120843   3.849   0.511   4.797
 6819SOL    HW220844   3.777   0.559   4.936
 6820SOL     OW20845   3.913   0.520   5.446
 6820SOL    HW120846   3.972   0.480   5.376
 6820SOL    HW220847   3.855   0.591   5.405
 6821SOL     OW20848   3.976   1.564   5.468
 6821SOL    HW120849   3.946   1.621   5.544
 6821SOL    HW220850   3.969   1.467   5.494
 6822SOL     OW20851   3.883   1.137   5.190
 6822SOL    HW120852   3.905   1.076   5.266
 6822SOL    HW220853   3.893   1.088   5.104
 6823SOL     OW20854   3.807   1.258   4.746
 6823SOL    HW120855   3.802   1.257   4.846
 6823SOL    HW220856   3.724   1.217   4.708
 6824SOL     OW20857   3.854   1.794   5.575
 6824SOL    HW120858   3.813   1.720   5.628
 6824SOL    HW220859   3.918   1.845   5.633
 6825SOL     OW20860   3.799   0.345   3.757
 6825SOL    HW120861   3.707   0.317   3.728
 6825SOL    HW220862   3.830   0.422   3.701
 6826SOL     OW20863   3.796   0.166   4.042
 6826SOL    HW120864   3.779   0.249   3.988
 6826SOL    HW220865   3.886   0.129   4.020
 6827SOL     OW20866   3.803   1.240   4.377
 6827SOL    HW120867   3.802   1.193   4.465
 6827SOL    HW220868   3.885   1.212   4.326
 6828SOL     OW20869   3.763   1.077   4.024
 6828SOL    HW120870   3.862   1.066   4.015
 6828SOL    HW220871   3.723   0.991   4.056
 6829SOL     OW20872   3.954   0.628   5.699
 6829SOL    HW120873   3.861   0.626   5.736
 6829SOL    HW220874   3.955   0.589   5.607
 6830SOL     OW20875   3.949   0.275   6.582
 6830SOL    HW120876   3.984   0.258   6.674
 6830SOL    HW220877   3.861   0.230   6.570
 6831SOL     OW20878   3.743   0.368   6.233
 6831SOL    HW120879   3.661   0.411   6.272
 6831SOL    HW220880   3.715   0.295   6.170
 6832SOL     OW20881   4.059   1.435   6.647
 6832SOL    HW120882   3.981   1.404   6.594
 6832SOL    HW220883   4.117   1.493   6.590
 6833SOL     OW20884   3.955   1.713   6.069
 6833SOL    HW120885   3.989   1.790   6.123
 6833SOL    HW220886   3.999   1.713   5.979
 6834SOL     OW20887   3.954   1.434   6.124
 6834SOL    HW120888   3.928   1.530   6.124
 6834SOL    HW220889   3.883   1.380   6.169
 6835SOL     OW20890   3.846   0.643   6.149
 6835SOL    HW120891   3.801   0.555   6.166
 6835SOL    HW220892   3.845   0.697   6.233
 6836SOL     OW20893   3.751   1.596   5.703
 6836SOL    HW120894   3.732   1.500   5.724
 6836SOL    HW220895   3.718   1.654   5.778
 6837SOL     OW20896   3.837   0.737   7.183
 6837SOL    HW120897   3.925   0.724   7.228
 6837SOL    HW220898   3.824   0.834   7.161
 6838SOL     OW20899   3.800   0.811   6.375
 6838SOL    HW120900   3.899   0.799   6.384
 6838SOL    HW220901   3.776   0.906   6.396
 6839SOL     OW20902   3.854   1.821   7.157
 6839SOL    HW120903   3.844   1.806   7.256
 6839SOL    HW220904   3.768   1.857   7.121
 6840SOL     OW20905   3.926   0.285   7.084
 6840SOL    HW120906   3.846   0.345   7.071
 6840SOL    HW220907   3.916   0.236   7.170
 6841SOL     OW20908   3.802   0.556   6.972
 6841SOL    HW120909   3.894   0.555   6.931
 6841SOL    HW220910   3.796   0.630   7.039
 6842SOL     OW20911   4.251   0.256   5.914
 6842SOL    HW120912   4.278   0.197   5.839
 6842SOL    HW220913   4.251   0.351   5.883
 6843SOL     OW20914   3.788   1.564   6.917
 6843SOL    HW120915   3.742   1.646   6.883
 6843SOL    HW220916   3.886   1.583   6.926
 6844SOL     OW20917   4.091   1.100   6.087
 6844SOL    HW120918   4.084   1.183   6.031
 6844SOL    HW220919   4.095   1.020   6.027
 6845SOL     OW20920   4.031   0.213   6.817
 6845SOL    HW120921   4.008   0.250   6.907
 6845SOL    HW220922   4.001   0.118   6.811
 6846SOL     OW20923   3.761   1.310   6.868
 6846SOL    HW120924   3.814   1.261   6.936
 6846SOL    HW220925   3.783   1.408   6.873
 6847SOL     OW20926   3.732   1.326   5.786
 6847SOL    HW120927   3.639   1.347   5.755
 6847SOL    HW220928   3.742   1.227   5.799
 6848SOL     OW20929   3.812   1.801   6.513
 6848SOL    HW120930   3.770   1.715   6.486
 6848SOL    HW220931   3.906   1.804   6.479
 6849SOL     OW20932   4.228   1.568   6.496
 6849SOL    HW120933   4.294   1.642   6.505
 6849SOL    HW220934   4.272   1.489   6.454
 6850SOL     OW20935   3.764   0.544   6.700
 6850SOL    HW120936   3.849   0.511   6.659
 6850SOL    HW220937   3.777   0.559   6.798
 6851SOL     OW20938   3.913   0.520   7.308
 6851SOL    HW120939   3.972   0.480   7.238
 6851SOL    HW220940   3.855   0.591   7.267
 6852SOL     OW20941   3.976   1.564   7.330
 6852SOL    HW120942   3.946   1.621   7.406
 6852SOL    HW220943   3.969   1.467   7.356
 6853SOL     OW20944   3.883   1.137   7.052
 6853SOL    HW120945   3.905   1.076   7.128
 6853SOL    HW220946   3.893   1.088   6.966
 6854SOL     OW20947   3.807   1.258   6.608
 6854SOL    HW120948   3.802   1.257   6.708
 6854SOL    HW220949   3.724   1.217   6.570
 6855SOL     OW20950   3.854   1.794   7.437
 6855SOL    HW120951   3.813   1.720   7.490
 6855SOL    HW220952   3.918   1.845   7.495
 6856SOL     OW20953   3.799   0.345   5.619
 6856SOL    HW120954   3.707   0.317   5.590
 6856SOL    HW220955   3.830   0.422   5.563
 6857SOL     OW20956   3.796   0.166   5.904
 6857SOL    HW120957   3.779   0.249   5.850
 6857SOL    HW220958   3.886   0.129   5.882
 6858SOL     OW20959   3.803   1.240   6.239
 6858SOL    HW120960   3.802   1.193   6.327
 6858SOL    HW220961   3.885   1.212   6.188
 6859SOL     OW20962   3.763   1.077   5.886
 6859SOL    HW120963   3.862   1.066   5.877
 6859SOL    HW220964   3.723   0.991   5.918
 6860SOL     OW20965   3.954   0.628   7.561
 6860SOL    HW120966   3.861   0.626   7.598
 6860SOL    HW220967   3.955   0.589   7.469
 6861SOL     OW20968   3.949   0.275   8.444
 6861SOL    HW120969   3.984   0.258   8.536
 6861SOL    HW220970   3.861   0.230   8.432
 6862SOL     OW20971   3.743   0.368   8.095
 6862SOL    HW120972   3.661   0.411   8.134
 6862SOL    HW220973   3.715   0.295   8.032
 6863SOL     OW20974   4.059   1.435   8.509
 6863SOL    HW120975   3.981   1.404   8.456
 6863SOL    HW220976   4.117   1.493   8.452
 6864SOL     OW20977   3.955   1.713   7.931
 6864SOL    HW120978   3.989   1.790   7.985
 6864SOL    HW220979   3.999   1.713   7.841
 6865SOL     OW20980   3.954   1.434   7.986
 6865SOL    HW120981   3.928   1.530   7.986
 6865SOL    HW220982   3.883   1.380   8.031
 6866SOL     OW20983   3.846   0.643   8.011
 6866SOL    HW120984   3.801   0.555   8.028
 6866SOL    HW220985   3.845   0.697   8.095
 6867SOL     OW20986   3.751   1.596   7.565
 6867SOL    HW120987   3.732   1.500   7.586
 6867SOL    HW220988   3.718   1.654   7.640
 6868SOL     OW20989   3.837   0.737   9.045
 6868SOL    HW120990   3.925   0.724   9.090
 6868SOL    HW220991   3.824   0.834   9.023
 6869SOL     OW20992   3.800   0.811   8.237
 6869SOL    HW120993   3.899   0.799   8.246
 6869SOL    HW220994   3.776   0.906   8.258
 6870SOL     OW20995   3.854   1.821   9.019
 6870SOL    HW120996   3.844   1.806   9.118
 6870SOL    HW220997   3.768   1.857   8.983
 6871SOL     OW20998   3.926   0.285   8.946
 6871SOL    HW120999   3.846   0.345   8.933
 6871SOL    HW221000   3.916   0.236   9.032
 6872SOL     OW21001   3.802   0.556   8.834
 6872SOL    HW121002   3.894   0.555   8.793
 6872SOL    HW221003   3.796   0.630   8.901
 6873SOL     OW21004   4.251   0.256   7.776
 6873SOL    HW121005   4.278   0.197   7.701
 6873SOL    HW221006   4.251   0.351   7.745
 6874SOL     OW21007   3.788   1.564   8.779
 6874SOL    HW121008   3.742   1.646   8.745
 6874SOL    HW221009   3.886   1.583   8.788
 6875SOL     OW21010   4.091   1.100   7.949
 6875SOL    HW121011   4.084   1.183   7.893
 6875SOL    HW221012   4.095   1.020   7.889
 6876SOL     OW21013   4.031   0.213   8.679
 6876SOL    HW121014   4.008   0.250   8.769
 6876SOL    HW221015   4.001   0.118   8.673
 6877SOL     OW21016   3.761   1.310   8.730
 6877SOL    HW121017   3.814   1.261   8.798
 6877SOL    HW221018   3.783   1.408   8.735
 6878SOL     OW21019   3.732   1.326   7.648
 6878SOL    HW121020   3.639   1.347   7.617
 6878SOL    HW221021   3.742   1.227   7.661
 6879SOL     OW21022   3.812   1.801   8.375
 6879SOL    HW121023   3.770   1.715   8.348
 6879SOL    HW221024   3.906   1.804   8.341
 6880SOL     OW21025   4.228   1.568   8.358
 6880SOL    HW121026   4.294   1.642   8.367
 6880SOL    HW221027   4.272   1.489   8.316
 6881SOL     OW21028   3.764   0.544   8.562
 6881SOL    HW121029   3.849   0.511   8.521
 6881SOL    HW221030   3.777   0.559   8.660
 6882SOL     OW21031   3.913   0.520   9.170
 6882SOL    HW121032   3.972   0.480   9.100
 6882SOL    HW221033   3.855   0.591   9.129
 6883SOL     OW21034   3.976   1.564   9.192
 6883SOL    HW121035   3.946   1.621   9.268
 6883SOL    HW221036   3.969   1.467   9.218
 6884SOL     OW21037   3.883   1.137   8.914
 6884SOL    HW121038   3.905   1.076   8.990
 6884SOL    HW221039   3.893   1.088   8.828
 6885SOL     OW21040   3.807   1.258   8.470
 6885SOL    HW121041   3.802   1.257   8.570
 6885SOL    HW221042   3.724   1.217   8.432
 6886SOL     OW21043   3.854   1.794   9.299
 6886SOL    HW121044   3.813   1.720   9.352
 6886SOL    HW221045   3.918   1.845   9.357
 6887SOL     OW21046   3.799   0.345   7.481
 6887SOL    HW121047   3.707   0.317   7.452
 6887SOL    HW221048   3.830   0.422   7.425
 6888SOL     OW21049   3.796   0.166   7.766
 6888SOL    HW121050   3.779   0.249   7.712
 6888SOL    HW221051   3.886   0.129   7.744
 6889SOL     OW21052   3.803   1.240   8.101
 6889SOL    HW121053   3.802   1.193   8.189
 6889SOL    HW221054   3.885   1.212   8.050
 6890SOL     OW21055   3.763   1.077   7.748
 6890SOL    HW121056   3.862   1.066   7.739
 6890SOL    HW221057   3.723   0.991   7.780
 6891SOL     OW21058   3.954   0.628   9.423
 6891SOL    HW121059   3.861   0.626   9.460
 6891SOL    HW221060   3.955   0.589   9.331
 6892SOL     OW21061   3.949   0.275  10.306
 6892SOL    HW121062   3.984   0.258  10.398
 6892SOL    HW221063   3.861   0.230  10.294
 6893SOL     OW21064   3.743   0.368   9.957
 6893SOL    HW121065   3.661   0.411   9.996
 6893SOL    HW221066   3.715   0.295   9.894
 6894SOL     OW21067   4.059   1.435  10.371
 6894SOL    HW121068   3.981   1.404  10.318
 6894SOL    HW221069   4.117   1.493  10.314
 6895SOL     OW21070   3.955   1.713   9.793
 6895SOL    HW121071   3.989   1.790   9.847
 6895SOL    HW221072   3.999   1.713   9.703
 6896SOL     OW21073   3.954   1.434   9.848
 6896SOL    HW121074   3.928   1.530   9.848
 6896SOL    HW221075   3.883   1.380   9.893
 6897SOL     OW21076   3.846   0.643   9.873
 6897SOL    HW121077   3.801   0.555   9.890
 6897SOL    HW221078   3.845   0.697   9.957
 6898SOL     OW21079   3.751   1.596   9.427
 6898SOL    HW121080   3.732   1.500   9.448
 6898SOL    HW221081   3.718   1.654   9.502
 6899SOL     OW21082   3.837   0.737  10.907
 6899SOL    HW121083   3.925   0.724  10.952
 6899SOL    HW221084   3.824   0.834  10.885
 6900SOL     OW21085   3.800   0.811  10.099
 6900SOL    HW121086   3.899   0.799  10.108
 6900SOL    HW221087   3.776   0.906  10.120
 6901SOL     OW21088   3.854   1.821  10.881
 6901SOL    HW121089   3.844   1.806  10.980
 6901SOL    HW221090   3.768   1.857  10.845
 6902SOL     OW21091   3.926   0.285  10.808
 6902SOL    HW121092   3.846   0.345  10.795
 6902SOL    HW221093   3.916   0.236  10.894
 6903SOL     OW21094   3.802   0.556  10.696
 6903SOL    HW121095   3.894   0.555  10.655
 6903SOL    HW221096   3.796   0.630  10.763
 6904SOL     OW21097   4.251   0.256   9.638
 6904SOL    HW121098   4.278   0.197   9.563
 6904SOL    HW221099   4.251   0.351   9.607
 6905SOL     OW21100   3.788   1.564  10.641
 6905SOL    HW121101   3.742   1.646  10.607
 6905SOL    HW221102   3.886   1.583  10.650
 6906SOL     OW21103   4.091   1.100   9.811
 6906SOL    HW121104   4.084   1.183   9.755
 6906SOL    HW221105   4.095   1.020   9.751
 6907SOL     OW21106   4.031   0.213  10.541
 6907SOL    HW121107   4.008   0.250  10.631
 6907SOL    HW221108   4.001   0.118  10.535
 6908SOL     OW21109   3.761   1.310  10.592
 6908SOL    HW121110   3.814   1.261  10.660
 6908SOL    HW221111   3.783   1.408  10.597
 6909SOL     OW21112   3.732   1.326   9.510
 6909SOL    HW121113   3.639   1.347   9.479
 6909SOL    HW221114   3.742   1.227   9.523
 6910SOL     OW21115   3.812   1.801  10.237
 6910SOL    HW121116   3.770   1.715  10.210
 6910SOL    HW221117   3.906   1.804  10.203
 6911SOL     OW21118   4.228   1.568  10.220
 6911SOL    HW121119   4.294   1.642  10.229
 6911SOL    HW221120   4.272   1.489  10.178
 6912SOL     OW21121   3.764   0.544  10.424
 6912SOL    HW121122   3.849   0.511  10.383
 6912SOL    HW221123   3.777   0.559  10.522
 6913SOL     OW21124   3.913   0.520  11.032
 6913SOL    HW121125   3.972   0.480  10.962
 6913SOL    HW221126   3.855   0.591  10.991
 6914SOL     OW21127   3.976   1.564  11.054
 6914SOL    HW121128   3.946   1.621  11.130
 6914SOL    HW221129   3.969   1.467  11.080
 6915SOL     OW21130   3.883   1.137  10.776
 6915SOL    HW121131   3.905   1.076  10.852
 6915SOL    HW221132   3.893   1.088  10.690
 6916SOL     OW21133   3.807   1.258  10.332
 6916SOL    HW121134   3.802   1.257  10.432
 6916SOL    HW221135   3.724   1.217  10.294
 6917SOL     OW21136   3.854   1.794  11.161
 6917SOL    HW121137   3.813   1.720  11.214
 6917SOL    HW221138   3.918   1.845  11.219
 6918SOL     OW21139   3.799   0.345   9.343
 6918SOL    HW121140   3.707   0.317   9.314
 6918SOL    HW221141   3.830   0.422   9.287
 6919SOL     OW21142   3.796   0.166   9.628
 6919SOL    HW121143   3.779   0.249   9.574
 6919SOL    HW221144   3.886   0.129   9.606
 6920SOL     OW21145   3.803   1.240   9.963
 6920SOL    HW121146   3.802   1.193  10.051
 6920SOL    HW221147   3.885   1.212   9.912
 6921SOL     OW21148   3.763   1.077   9.610
 6921SOL    HW121149   3.862   1.066   9.601
 6921SOL    HW221150   3.723   0.991   9.642
 6922SOL     OW21151   3.954   0.628  11.285
 6922SOL    HW121152   3.861   0.626  11.322
 6922SOL    HW221153   3.955   0.589  11.193
 6923SOL     OW21154   3.949   0.275  12.168
 6923SOL    HW121155   3.984   0.258  12.260
 6923SOL    HW221156   3.861   0.230  12.156
 6924SOL     OW21157   3.743   0.368  11.819
 6924SOL    HW121158   3.661   0.411  11.858
 6924SOL    HW221159   3.715   0.295  11.756
 6925SOL     OW21160   4.059   1.435  12.233
 6925SOL    HW121161   3.981   1.404  12.180
 6925SOL    HW221162   4.117   1.493  12.176
 6926SOL     OW21163   3.955   1.713  11.655
 6926SOL    HW121164   3.989   1.790  11.709
 6926SOL    HW221165   3.999   1.713  11.565
 6927SOL     OW21166   3.954   1.434  11.710
 6927SOL    HW121167   3.928   1.530  11.710
 6927SOL    HW221168   3.883   1.380  11.755
 6928SOL     OW21169   3.846   0.643  11.735
 6928SOL    HW121170   3.801   0.555  11.752
 6928SOL    HW221171   3.845   0.697  11.819
 6929SOL     OW21172   3.751   1.596  11.289
 6929SOL    HW121173   3.732   1.500  11.310
 6929SOL    HW221174   3.718   1.654  11.364
 6930SOL     OW21175   3.837   0.737  12.769
 6930SOL    HW121176   3.925   0.724  12.814
 6930SOL    HW221177   3.824   0.834  12.747
 6931SOL     OW21178   3.800   0.811  11.961
 6931SOL    HW121179   3.899   0.799  11.970
 6931SOL    HW221180   3.776   0.906  11.982
 6932SOL     OW21181   3.854   1.821  12.743
 6932SOL    HW121182   3.844   1.806  12.842
 6932SOL    HW221183   3.768   1.857  12.707
 6933SOL     OW21184   3.926   0.285  12.670
 6933SOL    HW121185   3.846   0.345  12.657
 6933SOL    HW221186   3.916   0.236  12.756
 6934SOL     OW21187   3.802   0.556  12.558
 6934SOL    HW121188   3.894   0.555  12.517
 6934SOL    HW221189   3.796   0.630  12.625
 6935SOL     OW21190   4.251   0.256  11.500
 6935SOL    HW121191   4.278   0.197  11.425
 6935SOL    HW221192   4.251   0.351  11.469
 6936SOL     OW21193   3.788   1.564  12.503
 6936SOL    HW121194   3.742   1.646  12.469
 6936SOL    HW221195   3.886   1.583  12.512
 6937SOL     OW21196   4.091   1.100  11.673
 6937SOL    HW121197   4.084   1.183  11.617
 6937SOL    HW221198   4.095   1.020  11.613
 6938SOL     OW21199   4.031   0.213  12.403
 6938SOL    HW121200   4.008   0.250  12.493
 6938SOL    HW221201   4.001   0.118  12.397
 6939SOL     OW21202   3.761   1.310  12.454
 6939SOL    HW121203   3.814   1.261  12.522
 6939SOL    HW221204   3.783   1.408  12.459
 6940SOL     OW21205   3.732   1.326  11.372
 6940SOL    HW121206   3.639   1.347  11.341
 6940SOL    HW221207   3.742   1.227  11.385
 6941SOL     OW21208   3.812   1.801  12.099
 6941SOL    HW121209   3.770   1.715  12.072
 6941SOL    HW221210   3.906   1.804  12.065
 6942SOL     OW21211   4.228   1.568  12.082
 6942SOL    HW121212   4.294   1.642  12.091
 6942SOL    HW221213   4.272   1.489  12.040
 6943SOL     OW21214   3.764   0.544  12.286
 6943SOL    HW121215   3.849   0.511  12.245
 6943SOL    HW221216   3.777   0.559  12.384
 6944SOL     OW21217   3.913   0.520  12.894
 6944SOL    HW121218   3.972   0.480  12.824
 6944SOL    HW221219   3.855   0.591  12.853
 6945SOL     OW21220   3.976   1.564  12.916
 6945SOL    HW121221   3.946   1.621  12.992
 6945SOL    HW221222   3.969   1.467  12.942
 6946SOL     OW21223   3.883   1.137  12.638
 6946SOL    HW121224   3.905   1.076  12.714
 6946SOL    HW221225   3.893   1.088  12.552
 6947SOL     OW21226   3.807   1.258  12.194
 6947SOL    HW121227   3.802   1.257  12.294
 6947SOL    HW221228   3.724   1.217  12.156
 6948SOL     OW21229   3.854   1.794  13.023
 6948SOL    HW121230   3.813   1.720  13.076
 6948SOL    HW221231   3.918   1.845  13.081
 6949SOL     OW21232   3.799   0.345  11.205
 6949SOL    HW121233   3.707   0.317  11.176
 6949SOL    HW221234   3.830   0.422  11.149
 6950SOL     OW21235   3.796   0.166  11.490
 6950SOL    HW121236   3.779   0.249  11.436
 6950SOL    HW221237   3.886   0.129  11.468
 6951SOL     OW21238   3.803   1.240  11.825
 6951SOL    HW121239   3.802   1.193  11.913
 6951SOL    HW221240   3.885   1.212  11.774
 6952SOL     OW21241   3.763   1.077  11.472
 6952SOL    HW121242   3.862   1.066  11.463
 6952SOL    HW221243   3.723   0.991  11.504
 6953SOL     OW21244   3.954   0.628  13.147
 6953SOL    HW121245   3.861   0.626  13.184
 6953SOL    HW221246   3.955   0.589  13.055
 6954SOL     OW21247   3.743   0.368  13.681
 6954SOL    HW121248   3.661   0.411  13.720
 6954SOL    HW221249   3.715   0.295  13.618
 6955SOL     OW21250   3.955   1.713  13.517
 6955SOL    HW121251   3.989   1.790  13.571
 6955SOL    HW221252   3.999   1.713  13.427
 6956SOL     OW21253   3.954   1.434  13.572
 6956SOL    HW121254   3.928   1.530  13.572
 6956SOL    HW221255   3.883   1.380  13.617
 6957SOL     OW21256   3.964   1.091  13.920
 6957SOL    HW121257   3.978   1.007  13.972
 6957SOL    HW221258   3.909   1.155  13.975
 6958SOL     OW21259   3.846   0.643  13.597
 6958SOL    HW121260   3.801   0.555  13.614
 6958SOL    HW221261   3.845   0.697  13.681
 6959SOL     OW21262   3.751   1.596  13.151
 6959SOL    HW121263   3.732   1.500  13.172
 6959SOL    HW221264   3.718   1.654  13.226
 6960SOL     OW21265   3.800   0.811  13.823
 6960SOL    HW121266   3.899   0.799  13.832
 6960SOL    HW221267   3.776   0.906  13.844
 6961SOL     OW21268   4.075   1.801  13.887
 6961SOL    HW121269   4.125   1.715  13.893
 6961SOL    HW221270   4.140   1.878  13.884
 6962SOL     OW21271   4.251   0.256  13.362
 6962SOL    HW121272   4.278   0.197  13.287
 6962SOL    HW221273   4.251   0.351  13.331
 6963SOL     OW21274   4.091   1.100  13.535
 6963SOL    HW121275   4.084   1.183  13.479
 6963SOL    HW221276   4.095   1.020  13.475
 6964SOL     OW21277   3.732   1.326  13.234
 6964SOL    HW121278   3.639   1.347  13.203
 6964SOL    HW221279   3.742   1.227  13.247
 6965SOL     OW21280   4.228   1.568  13.944
 6965SOL    HW121281   4.294   1.642  13.953
 6965SOL    HW221282   4.272   1.489  13.902
 6966SOL     OW21283   3.799   0.345  13.067
 6966SOL    HW121284   3.707   0.317  13.038
 6966SOL    HW221285   3.830   0.422  13.011
 6967SOL     OW21286   3.796   0.166  13.352
 6967SOL    HW121287   3.779   0.249  13.298
 6967SOL    HW221288   3.886   0.129  13.330
 6968SOL     OW21289   3.803   1.240  13.687
 6968SOL    HW121290   3.802   1.193  13.775
 6968SOL    HW221291   3.885   1.212  13.636
 6969SOL     OW21292   3.763   1.077  13.334
 6969SOL    HW121293   3.862   1.066  13.325
 6969SOL    HW221294   3.723   0.991  13.366
 6970SOL     OW21295   3.954   2.490   0.113
 6970SOL    HW121296   3.861   2.488   0.150
 6970SOL    HW221297   3.955   2.451   0.021
 6971SOL     OW21298   3.949   2.137   0.996
 6971SOL    HW121299   3.984   2.120   1.088
 6971SOL    HW221300   3.861   2.092   0.984
 6972SOL     OW21301   3.743   2.230   0.647
 6972SOL    HW121302   3.661   2.273   0.686
 6972SOL    HW221303   3.715   2.157   0.584
 6973SOL     OW21304   4.059   3.297   1.061
 6973SOL    HW121305   3.981   3.266   1.008
 6973SOL    HW221306   4.117   3.355   1.004
 6974SOL     OW21307   3.955   3.575   0.483
 6974SOL    HW121308   3.989   3.652   0.537
 6974SOL    HW221309   3.999   3.575   0.393
 6975SOL     OW21310   3.954   3.296   0.538
 6975SOL    HW121311   3.928   3.392   0.538
 6975SOL    HW221312   3.883   3.242   0.583
 6976SOL     OW21313   3.846   2.505   0.563
 6976SOL    HW121314   3.801   2.417   0.580
 6976SOL    HW221315   3.845   2.559   0.647
 6977SOL     OW21316   3.751   3.458   0.117
 6977SOL    HW121317   3.732   3.362   0.138
 6977SOL    HW221318   3.718   3.516   0.192
 6978SOL     OW21319   3.837   2.599   1.597
 6978SOL    HW121320   3.925   2.586   1.642
 6978SOL    HW221321   3.824   2.696   1.575
 6979SOL     OW21322   3.800   2.673   0.789
 6979SOL    HW121323   3.899   2.661   0.798
 6979SOL    HW221324   3.776   2.768   0.810
 6980SOL     OW21325   3.854   3.683   1.571
 6980SOL    HW121326   3.844   3.668   1.670
 6980SOL    HW221327   3.768   3.719   1.535
 6981SOL     OW21328   3.926   2.147   1.498
 6981SOL    HW121329   3.846   2.207   1.485
 6981SOL    HW221330   3.916   2.098   1.584
 6982SOL     OW21331   3.802   2.418   1.386
 6982SOL    HW121332   3.894   2.417   1.345
 6982SOL    HW221333   3.796   2.492   1.453
 6983SOL     OW21334   3.788   3.426   1.331
 6983SOL    HW121335   3.742   3.508   1.297
 6983SOL    HW221336   3.886   3.445   1.340
 6984SOL     OW21337   4.091   2.962   0.501
 6984SOL    HW121338   4.084   3.045   0.445
 6984SOL    HW221339   4.095   2.882   0.441
 6985SOL     OW21340   4.031   2.075   1.231
 6985SOL    HW121341   4.008   2.112   1.321
 6985SOL    HW221342   4.001   1.980   1.225
 6986SOL     OW21343   3.761   3.172   1.282
 6986SOL    HW121344   3.814   3.123   1.350
 6986SOL    HW221345   3.783   3.270   1.287
 6987SOL     OW21346   4.031   1.925   0.618
 6987SOL    HW121347   4.020   2.019   0.651
 6987SOL    HW221348   4.026   1.862   0.695
 6988SOL     OW21349   3.732   3.188   0.200
 6988SOL    HW121350   3.639   3.209   0.169
 6988SOL    HW221351   3.742   3.089   0.213
 6989SOL     OW21352   3.812   3.663   0.927
 6989SOL    HW121353   3.770   3.577   0.900
 6989SOL    HW221354   3.906   3.666   0.893
 6990SOL     OW21355   4.228   3.430   0.910
 6990SOL    HW121356   4.294   3.504   0.919
 6990SOL    HW221357   4.272   3.351   0.868
 6991SOL     OW21358   3.764   2.406   1.114
 6991SOL    HW121359   3.849   2.373   1.073
 6991SOL    HW221360   3.777   2.421   1.212
 6992SOL     OW21361   3.913   2.382   1.722
 6992SOL    HW121362   3.972   2.342   1.652
 6992SOL    HW221363   3.855   2.453   1.681
 6993SOL     OW21364   3.976   3.426   1.744
 6993SOL    HW121365   3.946   3.483   1.820
 6993SOL    HW221366   3.969   3.329   1.770
 6994SOL     OW21367   3.883   2.999   1.466
 6994SOL    HW121368   3.905   2.938   1.542
 6994SOL    HW221369   3.893   2.950   1.380
 6995SOL     OW21370   3.807   3.120   1.022
 6995SOL    HW121371   3.802   3.119   1.122
 6995SOL    HW221372   3.724   3.079   0.984
 6996SOL     OW21373   3.854   3.656   1.851
 6996SOL    HW121374   3.813   3.582   1.904
 6996SOL    HW221375   3.918   3.707   1.909
 6997SOL     OW21376   3.799   2.207   0.033
 6997SOL    HW121377   3.707   2.179   0.004
 6997SOL    HW221378   3.830   2.284  -0.023
 6998SOL     OW21379   3.796   2.028   0.318
 6998SOL    HW121380   3.779   2.111   0.264
 6998SOL    HW221381   3.886   1.991   0.296
 6999SOL     OW21382   3.803   3.102   0.653
 6999SOL    HW121383   3.802   3.055   0.741
 6999SOL    HW221384   3.885   3.074   0.602
 7000SOL     OW21385   3.763   2.939   0.300
 7000SOL    HW121386   3.862   2.928   0.291
 7000SOL    HW221387   3.723   2.853   0.332
 7001SOL     OW21388   3.954   2.490   1.975
 7001SOL    HW121389   3.861   2.488   2.012
 7001SOL    HW221390   3.955   2.451   1.883
 7002SOL     OW21391   3.949   2.137   2.858
 7002SOL    HW121392   3.984   2.120   2.950
 7002SOL    HW221393   3.861   2.092   2.846
 7003SOL     OW21394   3.743   2.230   2.509
 7003SOL    HW121395   3.661   2.273   2.548
 7003SOL    HW221396   3.715   2.157   2.446
 7004SOL     OW21397   4.059   3.297   2.923
 7004SOL    HW121398   3.981   3.266   2.870
 7004SOL    HW221399   4.117   3.355   2.866
 7005SOL     OW21400   3.955   3.575   2.345
 7005SOL    HW121401   3.989   3.652   2.399
 7005SOL    HW221402   3.999   3.575   2.255
 7006SOL     OW21403   3.954   3.296   2.400
 7006SOL    HW121404   3.928   3.392   2.400
 7006SOL    HW221405   3.883   3.242   2.445
 7007SOL     OW21406   3.846   2.505   2.425
 7007SOL    HW121407   3.801   2.417   2.442
 7007SOL    HW221408   3.845   2.559   2.509
 7008SOL     OW21409   3.751   3.458   1.979
 7008SOL    HW121410   3.732   3.362   2.000
 7008SOL    HW221411   3.718   3.516   2.054
 7009SOL     OW21412   3.837   2.599   3.459
 7009SOL    HW121413   3.925   2.586   3.504
 7009SOL    HW221414   3.824   2.696   3.437
 7010SOL     OW21415   3.800   2.673   2.651
 7010SOL    HW121416   3.899   2.661   2.660
 7010SOL    HW221417   3.776   2.768   2.672
 7011SOL     OW21418   3.854   3.683   3.433
 7011SOL    HW121419   3.844   3.668   3.532
 7011SOL    HW221420   3.768   3.719   3.397
 7012SOL     OW21421   3.926   2.147   3.360
 7012SOL    HW121422   3.846   2.207   3.347
 7012SOL    HW221423   3.916   2.098   3.446
 7013SOL     OW21424   4.021   1.897   2.033
 7013SOL    HW121425   4.070   1.981   2.012
 7013SOL    HW221426   4.083   1.832   2.078
 7014SOL     OW21427   3.802   2.418   3.248
 7014SOL    HW121428   3.894   2.417   3.207
 7014SOL    HW221429   3.796   2.492   3.315
 7015SOL     OW21430   4.251   2.118   2.190
 7015SOL    HW121431   4.278   2.059   2.115
 7015SOL    HW221432   4.251   2.213   2.159
 7016SOL     OW21433   3.788   3.426   3.193
 7016SOL    HW121434   3.742   3.508   3.159
 7016SOL    HW221435   3.886   3.445   3.202
 7017SOL     OW21436   4.091   2.962   2.363
 7017SOL    HW121437   4.084   3.045   2.307
 7017SOL    HW221438   4.095   2.882   2.303
 7018SOL     OW21439   4.031   2.075   3.093
 7018SOL    HW121440   4.008   2.112   3.183
 7018SOL    HW221441   4.001   1.980   3.087
 7019SOL     OW21442   3.761   3.172   3.144
 7019SOL    HW121443   3.814   3.123   3.212
 7019SOL    HW221444   3.783   3.270   3.149
 7020SOL     OW21445   4.031   1.925   2.480
 7020SOL    HW121446   4.020   2.019   2.513
 7020SOL    HW221447   4.026   1.862   2.557
 7021SOL     OW21448   3.732   3.188   2.062
 7021SOL    HW121449   3.639   3.209   2.031
 7021SOL    HW221450   3.742   3.089   2.075
 7022SOL     OW21451   3.812   3.663   2.789
 7022SOL    HW121452   3.770   3.577   2.762
 7022SOL    HW221453   3.906   3.666   2.755
 7023SOL     OW21454   4.228   3.430   2.772
 7023SOL    HW121455   4.294   3.504   2.781
 7023SOL    HW221456   4.272   3.351   2.730
 7024SOL     OW21457   3.764   2.406   2.976
 7024SOL    HW121458   3.849   2.373   2.935
 7024SOL    HW221459   3.777   2.421   3.074
 7025SOL     OW21460   3.913   2.382   3.584
 7025SOL    HW121461   3.972   2.342   3.514
 7025SOL    HW221462   3.855   2.453   3.543
 7026SOL     OW21463   3.976   3.426   3.606
 7026SOL    HW121464   3.946   3.483   3.682
 7026SOL    HW221465   3.969   3.329   3.632
 7027SOL     OW21466   3.883   2.999   3.328
 7027SOL    HW121467   3.905   2.938   3.404
 7027SOL    HW221468   3.893   2.950   3.242
 7028SOL     OW21469   3.807   3.120   2.884
 7028SOL    HW121470   3.802   3.119   2.984
 7028SOL    HW221471   3.724   3.079   2.846
 7029SOL     OW21472   3.854   3.656   3.713
 7029SOL    HW121473   3.813   3.582   3.766
 7029SOL    HW221474   3.918   3.707   3.771
 7030SOL     OW21475   3.799   2.207   1.895
 7030SOL    HW121476   3.707   2.179   1.866
 7030SOL    HW221477   3.830   2.284   1.839
 7031SOL     OW21478   3.796   2.028   2.180
 7031SOL    HW121479   3.779   2.111   2.126
 7031SOL    HW221480   3.886   1.991   2.158
 7032SOL     OW21481   3.803   3.102   2.515
 7032SOL    HW121482   3.802   3.055   2.603
 7032SOL    HW221483   3.885   3.074   2.464
 7033SOL     OW21484   3.763   2.939   2.162
 7033SOL    HW121485   3.862   2.928   2.153
 7033SOL    HW221486   3.723   2.853   2.194
 7034SOL     OW21487   3.954   2.490   3.837
 7034SOL    HW121488   3.861   2.488   3.874
 7034SOL    HW221489   3.955   2.451   3.745
 7035SOL     OW21490   3.949   2.137   4.720
 7035SOL    HW121491   3.984   2.120   4.812
 7035SOL    HW221492   3.861   2.092   4.708
 7036SOL     OW21493   3.743   2.230   4.371
 7036SOL    HW121494   3.661   2.273   4.410
 7036SOL    HW221495   3.715   2.157   4.308
 7037SOL     OW21496   4.059   3.297   4.785
 7037SOL    HW121497   3.981   3.266   4.732
 7037SOL    HW221498   4.117   3.355   4.728
 7038SOL     OW21499   3.955   3.575   4.207
 7038SOL    HW121500   3.989   3.652   4.261
 7038SOL    HW221501   3.999   3.575   4.117
 7039SOL     OW21502   3.954   3.296   4.262
 7039SOL    HW121503   3.928   3.392   4.262
 7039SOL    HW221504   3.883   3.242   4.307
 7040SOL     OW21505   3.846   2.505   4.287
 7040SOL    HW121506   3.801   2.417   4.304
 7040SOL    HW221507   3.845   2.559   4.371
 7041SOL     OW21508   3.751   3.458   3.841
 7041SOL    HW121509   3.732   3.362   3.862
 7041SOL    HW221510   3.718   3.516   3.916
 7042SOL     OW21511   3.837   2.599   5.321
 7042SOL    HW121512   3.925   2.586   5.366
 7042SOL    HW221513   3.824   2.696   5.299
 7043SOL     OW21514   3.800   2.673   4.513
 7043SOL    HW121515   3.899   2.661   4.522
 7043SOL    HW221516   3.776   2.768   4.534
 7044SOL     OW21517   3.854   3.683   5.295
 7044SOL    HW121518   3.844   3.668   5.394
 7044SOL    HW221519   3.768   3.719   5.259
 7045SOL     OW21520   3.926   2.147   5.222
 7045SOL    HW121521   3.846   2.207   5.209
 7045SOL    HW221522   3.916   2.098   5.308
 7046SOL     OW21523   4.021   1.897   3.895
 7046SOL    HW121524   4.070   1.981   3.874
 7046SOL    HW221525   4.083   1.832   3.940
 7047SOL     OW21526   3.802   2.418   5.110
 7047SOL    HW121527   3.894   2.417   5.069
 7047SOL    HW221528   3.796   2.492   5.177
 7048SOL     OW21529   4.251   2.118   4.052
 7048SOL    HW121530   4.278   2.059   3.977
 7048SOL    HW221531   4.251   2.213   4.021
 7049SOL     OW21532   3.788   3.426   5.055
 7049SOL    HW121533   3.742   3.508   5.021
 7049SOL    HW221534   3.886   3.445   5.064
 7050SOL     OW21535   4.091   2.962   4.225
 7050SOL    HW121536   4.084   3.045   4.169
 7050SOL    HW221537   4.095   2.882   4.165
 7051SOL     OW21538   4.031   2.075   4.955
 7051SOL    HW121539   4.008   2.112   5.045
 7051SOL    HW221540   4.001   1.980   4.949
 7052SOL     OW21541   3.761   3.172   5.006
 7052SOL    HW121542   3.814   3.123   5.074
 7052SOL    HW221543   3.783   3.270   5.011
 7053SOL     OW21544   4.031   1.925   4.342
 7053SOL    HW121545   4.020   2.019   4.375
 7053SOL    HW221546   4.026   1.862   4.419
 7054SOL     OW21547   3.732   3.188   3.924
 7054SOL    HW121548   3.639   3.209   3.893
 7054SOL    HW221549   3.742   3.089   3.937
 7055SOL     OW21550   3.812   3.663   4.651
 7055SOL    HW121551   3.770   3.577   4.624
 7055SOL    HW221552   3.906   3.666   4.617
 7056SOL     OW21553   4.228   3.430   4.634
 7056SOL    HW121554   4.294   3.504   4.643
 7056SOL    HW221555   4.272   3.351   4.592
 7057SOL     OW21556   3.764   2.406   4.838
 7057SOL    HW121557   3.849   2.373   4.797
 7057SOL    HW221558   3.777   2.421   4.936
 7058SOL     OW21559   3.913   2.382   5.446
 7058SOL    HW121560   3.972   2.342   5.376
 7058SOL    HW221561   3.855   2.453   5.405
 7059SOL     OW21562   3.976   3.426   5.468
 7059SOL    HW121563   3.946   3.483   5.544
 7059SOL    HW221564   3.969   3.329   5.494
 7060SOL     OW21565   3.883   2.999   5.190
 7060SOL    HW121566   3.905   2.938   5.266
 7060SOL    HW221567   3.893   2.950   5.104
 7061SOL     OW21568   3.807   3.120   4.746
 7061SOL    HW121569   3.802   3.119   4.846
 7061SOL    HW221570   3.724   3.079   4.708
 7062SOL     OW21571   3.854   3.656   5.575
 7062SOL    HW121572   3.813   3.582   5.628
 7062SOL    HW221573   3.918   3.707   5.633
 7063SOL     OW21574   3.799   2.207   3.757
 7063SOL    HW121575   3.707   2.179   3.728
 7063SOL    HW221576   3.830   2.284   3.701
 7064SOL     OW21577   3.796   2.028   4.042
 7064SOL    HW121578   3.779   2.111   3.988
 7064SOL    HW221579   3.886   1.991   4.020
 7065SOL     OW21580   3.803   3.102   4.377
 7065SOL    HW121581   3.802   3.055   4.465
 7065SOL    HW221582   3.885   3.074   4.326
 7066SOL     OW21583   3.763   2.939   4.024
 7066SOL    HW121584   3.862   2.928   4.015
 7066SOL    HW221585   3.723   2.853   4.056
 7067SOL     OW21586   3.954   2.490   5.699
 7067SOL    HW121587   3.861   2.488   5.736
 7067SOL    HW221588   3.955   2.451   5.607
 7068SOL     OW21589   3.949   2.137   6.582
 7068SOL    HW121590   3.984   2.120   6.674
 7068SOL    HW221591   3.861   2.092   6.570
 7069SOL     OW21592   3.743   2.230   6.233
 7069SOL    HW121593   3.661   2.273   6.272
 7069SOL    HW221594   3.715   2.157   6.170
 7070SOL     OW21595   4.059   3.297   6.647
 7070SOL    HW121596   3.981   3.266   6.594
 7070SOL    HW221597   4.117   3.355   6.590
 7071SOL     OW21598   3.955   3.575   6.069
 7071SOL    HW121599   3.989   3.652   6.123
 7071SOL    HW221600   3.999   3.575   5.979
 7072SOL     OW21601   3.954   3.296   6.124
 7072SOL    HW121602   3.928   3.392   6.124
 7072SOL    HW221603   3.883   3.242   6.169
 7073SOL     OW21604   3.846   2.505   6.149
 7073SOL    HW121605   3.801   2.417   6.166
 7073SOL    HW221606   3.845   2.559   6.233
 7074SOL     OW21607   3.751   3.458   5.703
 7074SOL    HW121608   3.732   3.362   5.724
 7074SOL    HW221609   3.718   3.516   5.778
 7075SOL     OW21610   3.837   2.599   7.183
 7075SOL    HW121611   3.925   2.586   7.228
 7075SOL    HW221612   3.824   2.696   7.161
 7076SOL     OW21613   3.800   2.673   6.375
 7076SOL    HW121614   3.899   2.661   6.384
 7076SOL    HW221615   3.776   2.768   6.396
 7077SOL     OW21616   3.854   3.683   7.157
 7077SOL    HW121617   3.844   3.668   7.256
 7077SOL    HW221618   3.768   3.719   7.121
 7078SOL     OW21619   3.926   2.147   7.084
 7078SOL    HW121620   3.846   2.207   7.071
 7078SOL    HW221621   3.916   2.098   7.170
 7079SOL     OW21622   4.021   1.897   5.757
 7079SOL    HW121623   4.070   1.981   5.736
 7079SOL    HW221624   4.083   1.832   5.802
 7080SOL     OW21625   3.802   2.418   6.972
 7080SOL    HW121626   3.894   2.417   6.931
 7080SOL    HW221627   3.796   2.492   7.039
 7081SOL     OW21628   4.251   2.118   5.914
 7081SOL    HW121629   4.278   2.059   5.839
 7081SOL    HW221630   4.251   2.213   5.883
 7082SOL     OW21631   3.788   3.426   6.917
 7082SOL    HW121632   3.742   3.508   6.883
 7082SOL    HW221633   3.886   3.445   6.926
 7083SOL     OW21634   4.091   2.962   6.087
 7083SOL    HW121635   4.084   3.045   6.031
 7083SOL    HW221636   4.095   2.882   6.027
 7084SOL     OW21637   4.031   2.075   6.817
 7084SOL    HW121638   4.008   2.112   6.907
 7084SOL    HW221639   4.001   1.980   6.811
 7085SOL     OW21640   3.761   3.172   6.868
 7085SOL    HW121641   3.814   3.123   6.936
 7085SOL    HW221642   3.783   3.270   6.873
 7086SOL     OW21643   4.031   1.925   6.204
 7086SOL    HW121644   4.020   2.019   6.237
 7086SOL    HW221645   4.026   1.862   6.281
 7087SOL     OW21646   3.732   3.188   5.786
 7087SOL    HW121647   3.639   3.209   5.755
 7087SOL    HW221648   3.742   3.089   5.799
 7088SOL     OW21649   3.812   3.663   6.513
 7088SOL    HW121650   3.770   3.577   6.486
 7088SOL    HW221651   3.906   3.666   6.479
 7089SOL     OW21652   4.228   3.430   6.496
 7089SOL    HW121653   4.294   3.504   6.505
 7089SOL    HW221654   4.272   3.351   6.454
 7090SOL     OW21655   3.764   2.406   6.700
 7090SOL    HW121656   3.849   2.373   6.659
 7090SOL    HW221657   3.777   2.421   6.798
 7091SOL     OW21658   3.913   2.382   7.308
 7091SOL    HW121659   3.972   2.342   7.238
 7091SOL    HW221660   3.855   2.453   7.267
 7092SOL     OW21661   3.976   3.426   7.330
 7092SOL    HW121662   3.946   3.483   7.406
 7092SOL    HW221663   3.969   3.329   7.356
 7093SOL     OW21664   3.883   2.999   7.052
 7093SOL    HW121665   3.905   2.938   7.128
 7093SOL    HW221666   3.893   2.950   6.966
 7094SOL     OW21667   3.807   3.120   6.608
 7094SOL    HW121668   3.802   3.119   6.708
 7094SOL    HW221669   3.724   3.079   6.570
 7095SOL     OW21670   3.854   3.656   7.437
 7095SOL    HW121671   3.813   3.582   7.490
 7095SOL    HW221672   3.918   3.707   7.495
 7096SOL     OW21673   3.799   2.207   5.619
 7096SOL    HW121674   3.707   2.179   5.590
 7096SOL    HW221675   3.830   2.284   5.563
 7097SOL     OW21676   3.796   2.028   5.904
 7097SOL    HW121677   3.779   2.111   5.850
 7097SOL    HW221678   3.886   1.991   5.882
 7098SOL     OW21679   3.803   3.102   6.239
 7098SOL    HW121680   3.802   3.055   6.327
 7098SOL    HW221681   3.885   3.074   6.188
 7099SOL     OW21682   3.763   2.939   5.886
 7099SOL    HW121683   3.862   2.928   5.877
 7099SOL    HW221684   3.723   2.853   5.918
 7100SOL     OW21685   3.954   2.490   7.561
 7100SOL    HW121686   3.861   2.488   7.598
 7100SOL    HW221687   3.955   2.451   7.469
 7101SOL     OW21688   3.949   2.137   8.444
 7101SOL    HW121689   3.984   2.120   8.536
 7101SOL    HW221690   3.861   2.092   8.432
 7102SOL     OW21691   3.743   2.230   8.095
 7102SOL    HW121692   3.661   2.273   8.134
 7102SOL    HW221693   3.715   2.157   8.032
 7103SOL     OW21694   4.059   3.297   8.509
 7103SOL    HW121695   3.981   3.266   8.456
 7103SOL    HW221696   4.117   3.355   8.452
 7104SOL     OW21697   3.955   3.575   7.931
 7104SOL    HW121698   3.989   3.652   7.985
 7104SOL    HW221699   3.999   3.575   7.841
 7105SOL     OW21700   3.954   3.296   7.986
 7105SOL    HW121701   3.928   3.392   7.986
 7105SOL    HW221702   3.883   3.242   8.031
 7106SOL     OW21703   3.846   2.505   8.011
 7106SOL    HW121704   3.801   2.417   8.028
 7106SOL    HW221705   3.845   2.559   8.095
 7107SOL     OW21706   3.751   3.458   7.565
 7107SOL    HW121707   3.732   3.362   7.586
 7107SOL    HW221708   3.718   3.516   7.640
 7108SOL     OW21709   3.837   2.599   9.045
 7108SOL    HW121710   3.925   2.586   9.090
 7108SOL    HW221711   3.824   2.696   9.023
 7109SOL     OW21712   3.800   2.673   8.237
 7109SOL    HW121713   3.899   2.661   8.246
 7109SOL    HW221714   3.776   2.768   8.258
 7110SOL     OW21715   3.854   3.683   9.019
 7110SOL    HW121716   3.844   3.668   9.118
 7110SOL    HW221717   3.768   3.719   8.983
 7111SOL     OW21718   3.926   2.147   8.946
 7111SOL    HW121719   3.846   2.207   8.933
 7111SOL    HW221720   3.916   2.098   9.032
 7112SOL     OW21721   4.021   1.897   7.619
 7112SOL    HW121722   4.070   1.981   7.598
 7112SOL    HW221723   4.083   1.832   7.664
 7113SOL     OW21724   3.802   2.418   8.834
 7113SOL    HW121725   3.894   2.417   8.793
 7113SOL    HW221726   3.796   2.492   8.901
 7114SOL     OW21727   4.251   2.118   7.776
 7114SOL    HW121728   4.278   2.059   7.701
 7114SOL    HW221729   4.251   2.213   7.745
 7115SOL     OW21730   3.788   3.426   8.779
 7115SOL    HW121731   3.742   3.508   8.745
 7115SOL    HW221732   3.886   3.445   8.788
 7116SOL     OW21733   4.091   2.962   7.949
 7116SOL    HW121734   4.084   3.045   7.893
 7116SOL    HW221735   4.095   2.882   7.889
 7117SOL     OW21736   4.031   2.075   8.679
 7117SOL    HW121737   4.008   2.112   8.769
 7117SOL    HW221738   4.001   1.980   8.673
 7118SOL     OW21739   3.761   3.172   8.730
 7118SOL    HW121740   3.814   3.123   8.798
 7118SOL    HW221741   3.783   3.270   8.735
 7119SOL     OW21742   4.031   1.925   8.066
 7119SOL    HW121743   4.020   2.019   8.099
 7119SOL    HW221744   4.026   1.862   8.143
 7120SOL     OW21745   3.732   3.188   7.648
 7120SOL    HW121746   3.639   3.209   7.617
 7120SOL    HW221747   3.742   3.089   7.661
 7121SOL     OW21748   3.812   3.663   8.375
 7121SOL    HW121749   3.770   3.577   8.348
 7121SOL    HW221750   3.906   3.666   8.341
 7122SOL     OW21751   4.228   3.430   8.358
 7122SOL    HW121752   4.294   3.504   8.367
 7122SOL    HW221753   4.272   3.351   8.316
 7123SOL     OW21754   3.764   2.406   8.562
 7123SOL    HW121755   3.849   2.373   8.521
 7123SOL    HW221756   3.777   2.421   8.660
 7124SOL     OW21757   3.913   2.382   9.170
 7124SOL    HW121758   3.972   2.342   9.100
 7124SOL    HW221759   3.855   2.453   9.129
 7125SOL     OW21760   3.976   3.426   9.192
 7125SOL    HW121761   3.946   3.483   9.268
 7125SOL    HW221762   3.969   3.329   9.218
 7126SOL     OW21763   3.883   2.999   8.914
 7126SOL    HW121764   3.905   2.938   8.990
 7126SOL    HW221765   3.893   2.950   8.828
 7127SOL     OW21766   3.807   3.120   8.470
 7127SOL    HW121767   3.802   3.119   8.570
 7127SOL    HW221768   3.724   3.079   8.432
 7128SOL     OW21769   3.854   3.656   9.299
 7128SOL    HW121770   3.813   3.582   9.352
 7128SOL    HW221771   3.918   3.707   9.357
 7129SOL     OW21772   3.799   2.207   7.481
 7129SOL    HW121773   3.707   2.179   7.452
 7129SOL    HW221774   3.830   2.284   7.425
 7130SOL     OW21775   3.796   2.028   7.766
 7130SOL    HW121776   3.779   2.111   7.712
 7130SOL    HW221777   3.886   1.991   7.744
 7131SOL     OW21778   3.803   3.102   8.101
 7131SOL    HW121779   3.802   3.055   8.189
 7131SOL    HW221780   3.885   3.074   8.050
 7132SOL     OW21781   3.763   2.939   7.748
 7132SOL    HW121782   3.862   2.928   7.739
 7132SOL    HW221783   3.723   2.853   7.780
 7133SOL     OW21784   3.954   2.490   9.423
 7133SOL    HW121785   3.861   2.488   9.460
 7133SOL    HW221786   3.955   2.451   9.331
 7134SOL     OW21787   3.949   2.137  10.306
 7134SOL    HW121788   3.984   2.120  10.398
 7134SOL    HW221789   3.861   2.092  10.294
 7135SOL     OW21790   3.743   2.230   9.957
 7135SOL    HW121791   3.661   2.273   9.996
 7135SOL    HW221792   3.715   2.157   9.894
 7136SOL     OW21793   4.059   3.297  10.371
 7136SOL    HW121794   3.981   3.266  10.318
 7136SOL    HW221795   4.117   3.355  10.314
 7137SOL     OW21796   3.955   3.575   9.793
 7137SOL    HW121797   3.989   3.652   9.847
 7137SOL    HW221798   3.999   3.575   9.703
 7138SOL     OW21799   3.954   3.296   9.848
 7138SOL    HW121800   3.928   3.392   9.848
 7138SOL    HW221801   3.883   3.242   9.893
 7139SOL     OW21802   3.846   2.505   9.873
 7139SOL    HW121803   3.801   2.417   9.890
 7139SOL    HW221804   3.845   2.559   9.957
 7140SOL     OW21805   3.751   3.458   9.427
 7140SOL    HW121806   3.732   3.362   9.448
 7140SOL    HW221807   3.718   3.516   9.502
 7141SOL     OW21808   3.837   2.599  10.907
 7141SOL    HW121809   3.925   2.586  10.952
 7141SOL    HW221810   3.824   2.696  10.885
 7142SOL     OW21811   3.800   2.673  10.099
 7142SOL    HW121812   3.899   2.661  10.108
 7142SOL    HW221813   3.776   2.768  10.120
 7143SOL     OW21814   3.854   3.683  10.881
 7143SOL    HW121815   3.844   3.668  10.980
 7143SOL    HW221816   3.768   3.719  10.845
 7144SOL     OW21817   3.926   2.147  10.808
 7144SOL    HW121818   3.846   2.207  10.795
 7144SOL    HW221819   3.916   2.098  10.894
 7145SOL     OW21820   4.021   1.897   9.481
 7145SOL    HW121821   4.070   1.981   9.460
 7145SOL    HW221822   4.083   1.832   9.526
 7146SOL     OW21823   3.802   2.418  10.696
 7146SOL    HW121824   3.894   2.417  10.655
 7146SOL    HW221825   3.796   2.492  10.763
 7147SOL     OW21826   4.251   2.118   9.638
 7147SOL    HW121827   4.278   2.059   9.563
 7147SOL    HW221828   4.251   2.213   9.607
 7148SOL     OW21829   3.788   3.426  10.641
 7148SOL    HW121830   3.742   3.508  10.607
 7148SOL    HW221831   3.886   3.445  10.650
 7149SOL     OW21832   4.091   2.962   9.811
 7149SOL    HW121833   4.084   3.045   9.755
 7149SOL    HW221834   4.095   2.882   9.751
 7150SOL     OW21835   4.031   2.075  10.541
 7150SOL    HW121836   4.008   2.112  10.631
 7150SOL    HW221837   4.001   1.980  10.535
 7151SOL     OW21838   3.761   3.172  10.592
 7151SOL    HW121839   3.814   3.123  10.660
 7151SOL    HW221840   3.783   3.270  10.597
 7152SOL     OW21841   4.031   1.925   9.928
 7152SOL    HW121842   4.020   2.019   9.961
 7152SOL    HW221843   4.026   1.862  10.005
 7153SOL     OW21844   3.732   3.188   9.510
 7153SOL    HW121845   3.639   3.209   9.479
 7153SOL    HW221846   3.742   3.089   9.523
 7154SOL     OW21847   3.812   3.663  10.237
 7154SOL    HW121848   3.770   3.577  10.210
 7154SOL    HW221849   3.906   3.666  10.203
 7155SOL     OW21850   4.228   3.430  10.220
 7155SOL    HW121851   4.294   3.504  10.229
 7155SOL    HW221852   4.272   3.351  10.178
 7156SOL     OW21853   3.764   2.406  10.424
 7156SOL    HW121854   3.849   2.373  10.383
 7156SOL    HW221855   3.777   2.421  10.522
 7157SOL     OW21856   3.913   2.382  11.032
 7157SOL    HW121857   3.972   2.342  10.962
 7157SOL    HW221858   3.855   2.453  10.991
 7158SOL     OW21859   3.976   3.426  11.054
 7158SOL    HW121860   3.946   3.483  11.130
 7158SOL    HW221861   3.969   3.329  11.080
 7159SOL     OW21862   3.883   2.999  10.776
 7159SOL    HW121863   3.905   2.938  10.852
 7159SOL    HW221864   3.893   2.950  10.690
 7160SOL     OW21865   3.807   3.120  10.332
 7160SOL    HW121866   3.802   3.119  10.432
 7160SOL    HW221867   3.724   3.079  10.294
 7161SOL     OW21868   3.854   3.656  11.161
 7161SOL    HW121869   3.813   3.582  11.214
 7161SOL    HW221870   3.918   3.707  11.219
 7162SOL     OW21871   3.799   2.207   9.343
 7162SOL    HW121872   3.707   2.179   9.314
 7162SOL    HW221873   3.830   2.284   9.287
 7163SOL     OW21874   3.796   2.028   9.628
 7163SOL    HW121875   3.779   2.111   9.574
 7163SOL    HW221876   3.886   1.991   9.606
 7164SOL     OW21877   3.803   3.102   9.963
 7164SOL    HW121878   3.802   3.055  10.051
 7164SOL    HW221879   3.885   3.074   9.912
 7165SOL     OW21880   3.763   2.939   9.610
 7165SOL    HW121881   3.862   2.928   9.601
 7165SOL    HW221882   3.723   2.853   9.642
 7166SOL     OW21883   3.954   2.490  11.285
 7166SOL    HW121884   3.861   2.488  11.322
 7166SOL    HW221885   3.955   2.451  11.193
 7167SOL     OW21886   3.949   2.137  12.168
 7167SOL    HW121887   3.984   2.120  12.260
 7167SOL    HW221888   3.861   2.092  12.156
 7168SOL     OW21889   3.743   2.230  11.819
 7168SOL    HW121890   3.661   2.273  11.858
 7168SOL    HW221891   3.715   2.157  11.756
 7169SOL     OW21892   4.059   3.297  12.233
 7169SOL    HW121893   3.981   3.266  12.180
 7169SOL    HW221894   4.117   3.355  12.176
 7170SOL     OW21895   3.955   3.575  11.655
 7170SOL    HW121896   3.989   3.652  11.709
 7170SOL    HW221897   3.999   3.575  11.565
 7171SOL     OW21898   3.954   3.296  11.710
 7171SOL    HW121899   3.928   3.392  11.710
 7171SOL    HW221900   3.883   3.242  11.755
 7172SOL     OW21901   3.846   2.505  11.735
 7172SOL    HW121902   3.801   2.417  11.752
 7172SOL    HW221903   3.845   2.559  11.819
 7173SOL     OW21904   3.751   3.458  11.289
 7173SOL    HW121905   3.732   3.362  11.310
 7173SOL    HW221906   3.718   3.516  11.364
 7174SOL     OW21907   3.837   2.599  12.769
 7174SOL    HW121908   3.925   2.586  12.814
 7174SOL    HW221909   3.824   2.696  12.747
 7175SOL     OW21910   3.800   2.673  11.961
 7175SOL    HW121911   3.899   2.661  11.970
 7175SOL    HW221912   3.776   2.768  11.982
 7176SOL     OW21913   3.854   3.683  12.743
 7176SOL    HW121914   3.844   3.668  12.842
 7176SOL    HW221915   3.768   3.719  12.707
 7177SOL     OW21916   3.926   2.147  12.670
 7177SOL    HW121917   3.846   2.207  12.657
 7177SOL    HW221918   3.916   2.098  12.756
 7178SOL     OW21919   4.021   1.897  11.343
 7178SOL    HW121920   4.070   1.981  11.322
 7178SOL    HW221921   4.083   1.832  11.388
 7179SOL     OW21922   3.802   2.418  12.558
 7179SOL    HW121923   3.894   2.417  12.517
 7179SOL    HW221924   3.796   2.492  12.625
 7180SOL     OW21925   4.251   2.118  11.500
 7180SOL    HW121926   4.278   2.059  11.425
 7180SOL    HW221927   4.251   2.213  11.469
 7181SOL     OW21928   3.788   3.426  12.503
 7181SOL    HW121929   3.742   3.508  12.469
 7181SOL    HW221930   3.886   3.445  12.512
 7182SOL     OW21931   4.091   2.962  11.673
 7182SOL    HW121932   4.084   3.045  11.617
 7182SOL    HW221933   4.095   2.882  11.613
 7183SOL     OW21934   4.031   2.075  12.403
 7183SOL    HW121935   4.008   2.112  12.493
 7183SOL    HW221936   4.001   1.980  12.397
 7184SOL     OW21937   3.761   3.172  12.454
 7184SOL    HW121938   3.814   3.123  12.522
 7184SOL    HW221939   3.783   3.270  12.459
 7185SOL     OW21940   4.031   1.925  11.790
 7185SOL    HW121941   4.020   2.019  11.823
 7185SOL    HW221942   4.026   1.862  11.867
 7186SOL     OW21943   3.732   3.188  11.372
 7186SOL    HW121944   3.639   3.209  11.341
 7186SOL    HW221945   3.742   3.089  11.385
 7187SOL     OW21946   3.812   3.663  12.099
 7187SOL    HW121947   3.770   3.577  12.072
 7187SOL    HW221948   3.906   3.666  12.065
 7188SOL     OW21949   4.228   3.430  12.082
 7188SOL    HW121950   4.294   3.504  12.091
 7188SOL    HW221951   4.272   3.351  12.040
 7189SOL     OW21952   3.764   2.406  12.286
 7189SOL    HW121953   3.849   2.373  12.245
 7189SOL    HW221954   3.777   2.421  12.384
 7190SOL     OW21955   3.913   2.382  12.894
 7190SOL    HW121956   3.972   2.342  12.824
 7190SOL    HW221957   3.855   2.453  12.853
 7191SOL     OW21958   3.976   3.426  12.916
 7191SOL    HW121959   3.946   3.483  12.992
 7191SOL    HW221960   3.969   3.329  12.942
 7192SOL     OW21961   3.883   2.999  12.638
 7192SOL    HW121962   3.905   2.938  12.714
 7192SOL    HW221963   3.893   2.950  12.552
 7193SOL     OW21964   3.807   3.120  12.194
 7193SOL    HW121965   3.802   3.119  12.294
 7193SOL    HW221966   3.724   3.079  12.156
 7194SOL     OW21967   3.854   3.656  13.023
 7194SOL    HW121968   3.813   3.582  13.076
 7194SOL    HW221969   3.918   3.707  13.081
 7195SOL     OW21970   3.799   2.207  11.205
 7195SOL    HW121971   3.707   2.179  11.176
 7195SOL    HW221972   3.830   2.284  11.149
 7196SOL     OW21973   3.796   2.028  11.490
 7196SOL    HW121974   3.779   2.111  11.436
 7196SOL    HW221975   3.886   1.991  11.468
 7197SOL     OW21976   3.803   3.102  11.825
 7197SOL    HW121977   3.802   3.055  11.913
 7197SOL    HW221978   3.885   3.074  11.774
 7198SOL     OW21979   3.763   2.939  11.472
 7198SOL    HW121980   3.862   2.928  11.463
 7198SOL    HW221981   3.723   2.853  11.504
 7199SOL     OW21982   3.954   2.490  13.147
 7199SOL    HW121983   3.861   2.488  13.184
 7199SOL    HW221984   3.955   2.451  13.055
 7200SOL     OW21985   3.743   2.230  13.681
 7200SOL    HW121986   3.661   2.273  13.720
 7200SOL    HW221987   3.715   2.157  13.618
 7201SOL     OW21988   3.955   3.575  13.517
 7201SOL    HW121989   3.989   3.652  13.571
 7201SOL    HW221990   3.999   3.575  13.427
 7202SOL     OW21991   3.954   3.296  13.572
 7202SOL    HW121992   3.928   3.392  13.572
 7202SOL    HW221993   3.883   3.242  13.617
 7203SOL     OW21994   3.964   2.953  13.920
 7203SOL    HW121995   3.978   2.869  13.972
 7203SOL    HW221996   3.909   3.017  13.975
 7204SOL     OW21997   3.846   2.505  13.597
 7204SOL    HW121998   3.801   2.417  13.614
 7204SOL    HW221999   3.845   2.559  13.681
 7205SOL     OW22000   3.751   3.458  13.151
 7205SOL    HW122001   3.732   3.362  13.172
 7205SOL    HW222002   3.718   3.516  13.226
 7206SOL     OW22003   3.800   2.673  13.823
 7206SOL    HW122004   3.899   2.661  13.832
 7206SOL    HW222005   3.776   2.768  13.844
 7207SOL     OW22006   4.075   3.663  13.887
 7207SOL    HW122007   4.125   3.577  13.893
 7207SOL    HW222008   4.140   3.740  13.884
 7208SOL     OW22009   4.021   1.897  13.205
 7208SOL    HW122010   4.070   1.981  13.184
 7208SOL    HW222011   4.083   1.832  13.250
 7209SOL     OW22012   4.251   2.118  13.362
 7209SOL    HW122013   4.278   2.059  13.287
 7209SOL    HW222014   4.251   2.213  13.331
 7210SOL     OW22015   4.091   2.962  13.535
 7210SOL    HW122016   4.084   3.045  13.479
 7210SOL    HW222017   4.095   2.882  13.475
 7211SOL     OW22018   4.031   1.925  13.652
 7211SOL    HW122019   4.020   2.019  13.685
 7211SOL    HW222020   4.026   1.862  13.729
 7212SOL     OW22021   3.732   3.188  13.234
 7212SOL    HW122022   3.639   3.209  13.203
 7212SOL    HW222023   3.742   3.089  13.247
 7213SOL     OW22024   4.228   3.430  13.944
 7213SOL    HW122025   4.294   3.504  13.953
 7213SOL    HW222026   4.272   3.351  13.902
 7214SOL     OW22027   3.799   2.207  13.067
 7214SOL    HW122028   3.707   2.179  13.038
 7214SOL    HW222029   3.830   2.284  13.011
 7215SOL     OW22030   3.796   2.028  13.352
 7215SOL    HW122031   3.779   2.111  13.298
 7215SOL    HW222032   3.886   1.991  13.330
 7216SOL     OW22033   3.803   3.102  13.687
 7216SOL    HW122034   3.802   3.055  13.775
 7216SOL    HW222035   3.885   3.074  13.636
 7217SOL     OW22036   3.763   2.939  13.334
 7217SOL    HW122037   3.862   2.928  13.325
 7217SOL    HW222038   3.723   2.853  13.366
 7218SOL     OW22039   3.949   3.999   0.996
 7218SOL    HW122040   3.984   3.982   1.088
 7218SOL    HW222041   3.861   3.954   0.984
 7219SOL     OW22042   3.743   4.092   0.647
 7219SOL    HW122043   3.661   4.135   0.686
 7219SOL    HW222044   3.715   4.019   0.584
 7220SOL     OW22045   3.926   4.009   1.498
 7220SOL    HW122046   3.846   4.069   1.485
 7220SOL    HW222047   3.916   3.960   1.584
 7221SOL     OW22048   4.021   3.759   0.171
 7221SOL    HW122049   4.070   3.843   0.150
 7221SOL    HW222050   4.083   3.694   0.216
 7222SOL     OW22051   4.031   3.937   1.231
 7222SOL    HW122052   4.008   3.974   1.321
 7222SOL    HW222053   4.001   3.842   1.225
 7223SOL     OW22054   4.031   3.787   0.618
 7223SOL    HW122055   4.020   3.881   0.651
 7223SOL    HW222056   4.026   3.724   0.695
 7224SOL     OW22057   3.796   3.890   0.318
 7224SOL    HW122058   3.779   3.973   0.264
 7224SOL    HW222059   3.886   3.853   0.296
 7225SOL     OW22060   3.949   3.999   2.858
 7225SOL    HW122061   3.984   3.982   2.950
 7225SOL    HW222062   3.861   3.954   2.846
 7226SOL     OW22063   3.743   4.092   2.509
 7226SOL    HW122064   3.661   4.135   2.548
 7226SOL    HW222065   3.715   4.019   2.446
 7227SOL     OW22066   3.926   4.009   3.360
 7227SOL    HW122067   3.846   4.069   3.347
 7227SOL    HW222068   3.916   3.960   3.446
 7228SOL     OW22069   4.021   3.759   2.033
 7228SOL    HW122070   4.070   3.843   2.012
 7228SOL    HW222071   4.083   3.694   2.078
 7229SOL     OW22072   4.031   3.937   3.093
 7229SOL    HW122073   4.008   3.974   3.183
 7229SOL    HW222074   4.001   3.842   3.087
 7230SOL     OW22075   4.031   3.787   2.480
 7230SOL    HW122076   4.020   3.881   2.513
 7230SOL    HW222077   4.026   3.724   2.557
 7231SOL     OW22078   3.799   4.069   1.895
 7231SOL    HW122079   3.707   4.041   1.866
 7231SOL    HW222080   3.830   4.146   1.839
 7232SOL     OW22081   3.796   3.890   2.180
 7232SOL    HW122082   3.779   3.973   2.126
 7232SOL    HW222083   3.886   3.853   2.158
 7233SOL     OW22084   3.949   3.999   4.720
 7233SOL    HW122085   3.984   3.982   4.812
 7233SOL    HW222086   3.861   3.954   4.708
 7234SOL     OW22087   3.743   4.092   4.371
 7234SOL    HW122088   3.661   4.135   4.410
 7234SOL    HW222089   3.715   4.019   4.308
 7235SOL     OW22090   3.926   4.009   5.222
 7235SOL    HW122091   3.846   4.069   5.209
 7235SOL    HW222092   3.916   3.960   5.308
 7236SOL     OW22093   4.021   3.759   3.895
 7236SOL    HW122094   4.070   3.843   3.874
 7236SOL    HW222095   4.083   3.694   3.940
 7237SOL     OW22096   4.031   3.937   4.955
 7237SOL    HW122097   4.008   3.974   5.045
 7237SOL    HW222098   4.001   3.842   4.949
 7238SOL     OW22099   4.031   3.787   4.342
 7238SOL    HW122100   4.020   3.881   4.375
 7238SOL    HW222101   4.026   3.724   4.419
 7239SOL     OW22102   3.799   4.069   3.757
 7239SOL    HW122103   3.707   4.041   3.728
 7239SOL    HW222104   3.830   4.146   3.701
 7240SOL     OW22105   3.796   3.890   4.042
 7240SOL    HW122106   3.779   3.973   3.988
 7240SOL    HW222107   3.886   3.853   4.020
 7241SOL     OW22108   3.949   3.999   6.582
 7241SOL    HW122109   3.984   3.982   6.674
 7241SOL    HW222110   3.861   3.954   6.570
 7242SOL     OW22111   3.743   4.092   6.233
 7242SOL    HW122112   3.661   4.135   6.272
 7242SOL    HW222113   3.715   4.019   6.170
 7243SOL     OW22114   3.926   4.009   7.084
 7243SOL    HW122115   3.846   4.069   7.071
 7243SOL    HW222116   3.916   3.960   7.170
 7244SOL     OW22117   4.021   3.759   5.757
 7244SOL    HW122118   4.070   3.843   5.736
 7244SOL    HW222119   4.083   3.694   5.802
 7245SOL     OW22120   4.031   3.937   6.817
 7245SOL    HW122121   4.008   3.974   6.907
 7245SOL    HW222122   4.001   3.842   6.811
 7246SOL     OW22123   4.031   3.787   6.204
 7246SOL    HW122124   4.020   3.881   6.237
 7246SOL    HW222125   4.026   3.724   6.281
 7247SOL     OW22126   3.799   4.069   5.619
 7247SOL    HW122127   3.707   4.041   5.590
 7247SOL    HW222128   3.830   4.146   5.563
 7248SOL     OW22129   3.796   3.890   5.904
 7248SOL    HW122130   3.779   3.973   5.850
 7248SOL    HW222131   3.886   3.853   5.882
 7249SOL     OW22132   3.949   3.999   8.444
 7249SOL    HW122133   3.984   3.982   8.536
 7249SOL    HW222134   3.861   3.954   8.432
 7250SOL     OW22135   3.743   4.092   8.095
 7250SOL    HW122136   3.661   4.135   8.134
 7250SOL    HW222137   3.715   4.019   8.032
 7251SOL     OW22138   3.926   4.009   8.946
 7251SOL    HW122139   3.846   4.069   8.933
 7251SOL    HW222140   3.916   3.960   9.032
 7252SOL     OW22141   4.021   3.759   7.619
 7252SOL    HW122142   4.070   3.843   7.598
 7252SOL    HW222143   4.083   3.694   7.664
 7253SOL     OW22144   4.031   3.937   8.679
 7253SOL    HW122145   4.008   3.974   8.769
 7253SOL    HW222146   4.001   3.842   8.673
 7254SOL     OW22147   4.031   3.787   8.066
 7254SOL    HW122148   4.020   3.881   8.099
 7254SOL    HW222149   4.026   3.724   8.143
 7255SOL     OW22150   3.799   4.069   7.481
 7255SOL    HW122151   3.707   4.041   7.452
 7255SOL    HW222152   3.830   4.146   7.425
 7256SOL     OW22153   3.796   3.890   7.766
 7256SOL    HW122154   3.779   3.973   7.712
 7256SOL    HW222155   3.886   3.853   7.744
 7257SOL     OW22156   3.949   3.999  10.306
 7257SOL    HW122157   3.984   3.982  10.398
 7257SOL    HW222158   3.861   3.954  10.294
 7258SOL     OW22159   3.743   4.092   9.957
 7258SOL    HW122160   3.661   4.135   9.996
 7258SOL    HW222161   3.715   4.019   9.894
 7259SOL     OW22162   3.926   4.009  10.808
 7259SOL    HW122163   3.846   4.069  10.795
 7259SOL    HW222164   3.916   3.960  10.894
 7260SOL     OW22165   4.021   3.759   9.481
 7260SOL    HW122166   4.070   3.843   9.460
 7260SOL    HW222167   4.083   3.694   9.526
 7261SOL     OW22168   4.031   3.937  10.541
 7261SOL    HW122169   4.008   3.974  10.631
 7261SOL    HW222170   4.001   3.842  10.535
 7262SOL     OW22171   4.031   3.787   9.928
 7262SOL    HW122172   4.020   3.881   9.961
 7262SOL    HW222173   4.026   3.724  10.005
 7263SOL     OW22174   3.799   4.069   9.343
 7263SOL    HW122175   3.707   4.041   9.314
 7263SOL    HW222176   3.830   4.146   9.287
 7264SOL     OW22177   3.796   3.890   9.628
 7264SOL    HW122178   3.779   3.973   9.574
 7264SOL    HW222179   3.886   3.853   9.606
 7265SOL     OW22180   3.949   3.999  12.168
 7265SOL    HW122181   3.984   3.982  12.260
 7265SOL    HW222182   3.861   3.954  12.156
 7266SOL     OW22183   3.743   4.092  11.819
 7266SOL    HW122184   3.661   4.135  11.858
 7266SOL    HW222185   3.715   4.019  11.756
 7267SOL     OW22186   3.926   4.009  12.670
 7267SOL    HW122187   3.846   4.069  12.657
 7267SOL    HW222188   3.916   3.960  12.756
 7268SOL     OW22189   4.021   3.759  11.343
 7268SOL    HW122190   4.070   3.843  11.322
 7268SOL    HW222191   4.083   3.694  11.388
 7269SOL     OW22192   4.031   3.937  12.403
 7269SOL    HW122193   4.008   3.974  12.493
 7269SOL    HW222194   4.001   3.842  12.397
 7270SOL     OW22195   4.031   3.787  11.790
 7270SOL    HW122196   4.020   3.881  11.823
 7270SOL    HW222197   4.026   3.724  11.867
 7271SOL     OW22198   3.799   4.069  11.205
 7271SOL    HW122199   3.707   4.041  11.176
 7271SOL    HW222200   3.830   4.146  11.149
 7272SOL     OW22201   3.796   3.890  11.490
 7272SOL    HW122202   3.779   3.973  11.436
 7272SOL    HW222203   3.886   3.853  11.468
 7273SOL     OW22204   3.743   4.092  13.681
 7273SOL    HW122205   3.661   4.135  13.720
 7273SOL    HW222206   3.715   4.019  13.618
 7274SOL     OW22207   4.021   3.759  13.205
 7274SOL    HW122208   4.070   3.843  13.184
 7274SOL    HW222209   4.083   3.694  13.250
 7275SOL     OW22210   4.031   3.787  13.652
 7275SOL    HW122211   4.020   3.881  13.685
 7275SOL    HW222212   4.026   3.724  13.729
 7276SOL     OW22213   3.799   4.069  13.067
 7276SOL    HW122214   3.707   4.041  13.038
 7276SOL    HW222215   3.830   4.146  13.011
 7277SOL     OW22216   3.796   3.890  13.352
 7277SOL    HW122217   3.779   3.973  13.298
 7277SOL    HW222218   3.886   3.853  13.330
   4.00000   4.00000  13.90000
