Built with Packmol
21795
    1LIG      O    1   2.227   2.220   0.013
    1LIG      C    2   2.292   2.270   0.132
    1LIG     C1    3   2.221   2.217   0.260
    1LIG     O1    4   2.285   2.267   0.382
    1LIG     C2    5   2.220   2.218   0.502
    1LIG     C3    6   2.291   2.273   0.627
    1LIG     O2    7   2.227   2.225   0.748
    1LIG     C4    8   2.290   2.275   0.869
    1LIG     C5    9   2.218   2.220   0.995
    1LIG     O3   10   2.281   2.270   1.116
    1LIG     C6   11   2.216   2.221   1.236
    1LIG     C7   12   2.288   2.277   1.361
    1LIG     O4   13   2.224   2.229   1.483
    1LIG     C8   14   2.288   2.279   1.603
    1LIG     C9   15   2.215   2.223   1.728
    1LIG     O5   16   2.279   2.273   1.848
    1LIG    C10   17   2.215   2.224   1.970
    1LIG    C11   18   2.287   2.280   2.094
    1LIG     O6   19   2.223   2.231   2.215
    1LIG    C12   20   2.286   2.280   2.336
    1LIG    C13   21   2.213   2.225   2.461
    1LIG     O7   22   2.277   2.274   2.582
    1LIG    C14   23   2.213   2.225   2.703
    1LIG    C15   24   2.285   2.280   2.829
    1LIG     O8   25   2.221   2.231   2.950
    1LIG    C16   26   2.285   2.281   3.070
    1LIG    C17   27   2.214   2.226   3.196
    1LIG     O9   28   2.277   2.275   3.318
    1LIG    C18   29   2.212   2.226   3.437
    1LIG    C19   30   2.284   2.281   3.562
    1LIG    O10   31   2.221   2.232   3.683
    1LIG    C20   32   2.285   2.282   3.804
    1LIG    C21   33   2.212   2.226   3.928
    1LIG    O11   34   2.276   2.275   4.049
    1LIG    C22   35   2.212   2.226   4.170
    1LIG    C23   36   2.284   2.282   4.295
    1LIG    O12   37   2.220   2.233   4.416
    1LIG    C24   38   2.284   2.282   4.537
    1LIG    C25   39   2.212   2.227   4.663
    1LIG    O13   40   2.275   2.276   4.784
    1LIG    C26   41   2.211   2.227   4.904
    1LIG    C27   42   2.283   2.282   5.029
    1LIG    O14   43   2.219   2.233   5.150
    1LIG    C28   44   2.284   2.282   5.271
    1LIG    C29   45   2.212   2.226   5.397
    1LIG    O15   46   2.276   2.275   5.518
    1LIG    C30   47   2.212   2.226   5.638
    1LIG    C31   48   2.284   2.281   5.763
    1LIG    O16   49   2.220   2.232   5.883
    1LIG    C32   50   2.284   2.281   6.004
    1LIG    C33   51   2.212   2.226   6.130
    1LIG    O17   52   2.276   2.275   6.251
    1LIG    C34   53   2.212   2.225   6.371
    1LIG    C35   54   2.284   2.280   6.496
    1LIG    O18   55   2.220   2.231   6.618
    1LIG    C36   56   2.284   2.280   6.738
    1LIG    C37   57   2.213   2.225   6.864
    1LIG    O19   58   2.277   2.274   6.985
    1LIG    C38   59   2.213   2.224   7.105
    1LIG    C39   60   2.284   2.279   7.231
    1LIG    O20   61   2.221   2.230   7.352
    1LIG    C40   62   2.285   2.279   7.472
    1LIG    C41   63   2.214   2.224   7.598
    1LIG    O21   64   2.277   2.273   7.719
    1LIG    C42   65   2.213   2.223   7.839
    1LIG    C43   66   2.285   2.278   7.964
    1LIG    O22   67   2.222   2.229   8.085
    1LIG    C44   68   2.286   2.278   8.206
    1LIG    C45   69   2.214   2.222   8.331
    1LIG    O23   70   2.278   2.271   8.452
    1LIG    C46   71   2.214   2.222   8.573
    1LIG    C47   72   2.287   2.278   8.698
    1LIG    O24   73   2.223   2.228   8.818
    1LIG    C48   74   2.286   2.277   8.939
    1LIG    C49   75   2.214   2.221   9.064
    1LIG    O25   76   2.278   2.270   9.185
    1LIG    C50   77   2.215   2.221   9.306
    1LIG    C51   78   2.287   2.277   9.431
    1LIG    O26   79   2.224   2.227   9.551
    1LIG    C52   80   2.287   2.276   9.672
    1LIG    C53   81   2.215   2.219   9.797
    1LIG    O27   82   2.279   2.269   9.917
    1LIG    C54   83   2.216   2.219  10.039
    1LIG    C55   84   2.288   2.275  10.165
    1LIG    O28   85   2.224   2.225  10.286
    1LIG    C56   86   2.288   2.274  10.407
    1LIG    C57   87   2.217   2.218  10.533
    1LIG    O29   88   2.281   2.267  10.654
    1LIG    C58   89   2.217   2.217  10.775
    1LIG    C59   90   2.288   2.272  10.901
    1LIG      H   91   2.289   2.380   0.131
    1LIG     H1   92   2.397   2.239   0.131
    1LIG     H2   93   2.224   2.108   0.260
    1LIG     H3   94   2.116   2.248   0.259
    1LIG     H4   95   2.223   2.108   0.504
    1LIG     H5   96   2.115   2.249   0.503
    1LIG     H6   97   2.289   2.383   0.625
    1LIG     H7   98   2.397   2.242   0.627
    1LIG     H8   99   2.288   2.384   0.870
    1LIG     H9  100   2.395   2.244   0.871
    1LIG    H10  101   2.221   2.111   0.994
    1LIG    H11  102   2.113   2.251   0.992
    1LIG    H12  103   2.219   2.112   1.238
    1LIG    H13  104   2.111   2.252   1.237
    1LIG    H14  105   2.285   2.387   1.359
    1LIG    H15  106   2.393   2.246   1.360
    1LIG    H16  107   2.285   2.388   1.604
    1LIG    H17  108   2.393   2.248   1.605
    1LIG    H18  109   2.218   2.114   1.726
    1LIG    H19  110   2.110   2.254   1.726
    1LIG    H20  111   2.217   2.114   1.971
    1LIG    H21  112   2.109   2.255   1.971
    1LIG    H22  113   2.284   2.389   2.093
    1LIG    H23  114   2.392   2.249   2.093
    1LIG    H24  115   2.283   2.389   2.337
    1LIG    H25  116   2.391   2.249   2.338
    1LIG    H26  117   2.216   2.115   2.460
    1LIG    H27  118   2.108   2.256   2.459
    1LIG    H28  119   2.216   2.115   2.704
    1LIG    H29  120   2.108   2.256   2.704
    1LIG    H30  121   2.282   2.390   2.827
    1LIG    H31  122   2.390   2.249   2.827
    1LIG    H32  123   2.282   2.391   3.071
    1LIG    H33  124   2.390   2.250   3.072
    1LIG    H34  125   2.216   2.117   3.194
    1LIG    H35  126   2.108   2.257   3.194
    1LIG    H36  127   2.215   2.116   3.439
    1LIG    H37  128   2.107   2.257   3.438
    1LIG    H38  129   2.281   2.391   3.560
    1LIG    H39  130   2.389   2.250   3.561
    1LIG    H40  131   2.282   2.391   3.805
    1LIG    H41  132   2.390   2.251   3.805
    1LIG    H42  133   2.215   2.117   3.927
    1LIG    H43  134   2.107   2.257   3.927
    1LIG    H44  135   2.215   2.117   4.172
    1LIG    H45  136   2.107   2.257   4.172
    1LIG    H46  137   2.281   2.392   4.293
    1LIG    H47  138   2.390   2.251   4.294
    1LIG    H48  139   2.281   2.391   4.539
    1LIG    H49  140   2.389   2.251   4.539
    1LIG    H50  141   2.215   2.117   4.661
    1LIG    H51  142   2.107   2.258   4.661
    1LIG    H52  143   2.214   2.117   4.906
    1LIG    H53  144   2.106   2.258   4.906
    1LIG    H54  145   2.280   2.392   5.028
    1LIG    H55  146   2.388   2.251   5.028
    1LIG    H56  147   2.281   2.391   5.273
    1LIG    H57  148   2.389   2.251   5.272
    1LIG    H58  149   2.215   2.117   5.395
    1LIG    H59  150   2.107   2.257   5.395
    1LIG    H60  151   2.215   2.116   5.639
    1LIG    H61  152   2.107   2.257   5.639
    1LIG    H62  153   2.281   2.391   5.761
    1LIG    H63  154   2.389   2.250   5.761
    1LIG    H64  155   2.281   2.390   6.006
    1LIG    H65  156   2.389   2.250   6.005
    1LIG    H66  157   2.215   2.116   6.128
    1LIG    H67  158   2.107   2.257   6.128
    1LIG    H68  159   2.215   2.116   6.372
    1LIG    H69  160   2.107   2.256   6.372
    1LIG    H70  161   2.281   2.390   6.495
    1LIG    H71  162   2.389   2.250   6.495
    1LIG    H72  163   2.281   2.390   6.739
    1LIG    H73  164   2.390   2.250   6.739
    1LIG    H74  165   2.216   2.116   6.862
    1LIG    H75  166   2.108   2.256   6.862
    1LIG    H76  167   2.216   2.115   7.106
    1LIG    H77  168   2.108   2.255   7.106
    1LIG    H78  169   2.281   2.388   7.230
    1LIG    H79  170   2.390   2.248   7.229
    1LIG    H80  171   2.282   2.389   7.474
    1LIG    H81  172   2.390   2.249   7.473
    1LIG    H82  173   2.217   2.114   7.596
    1LIG    H83  174   2.108   2.254   7.597
    1LIG    H84  175   2.217   2.113   7.840
    1LIG    H85  176   2.108   2.253   7.841
    1LIG    H86  177   2.282   2.388   7.963
    1LIG    H87  178   2.391   2.248   7.962
    1LIG    H88  179   2.283   2.388   8.208
    1LIG    H89  180   2.391   2.248   8.207
    1LIG    H90  181   2.217   2.113   8.329
    1LIG    H91  182   2.109   2.253   8.329
    1LIG    H92  183   2.218   2.112   8.574
    1LIG    H93  184   2.109   2.252   8.575
    1LIG    H94  185   2.283   2.387   8.696
    1LIG    H95  186   2.392   2.247   8.696
    1LIG    H96  187   2.283   2.386   8.941
    1LIG    H97  188   2.391   2.246   8.941
    1LIG    H98  189   2.218   2.111   9.062
    1LIG    H99  190   2.109   2.251   9.063
    1LIG   H100  191   2.218   2.111   9.307
    1LIG   H101  192   2.110   2.251   9.308
    1LIG   H102  193   2.284   2.386   9.429
    1LIG   H103  194   2.392   2.246   9.429
    1LIG   H104  195   2.284   2.385   9.674
    1LIG   H105  196   2.392   2.245   9.674
    1LIG   H106  197   2.219   2.110   9.795
    1LIG   H107  198   2.110   2.250   9.796
    1LIG   H108  199   2.220   2.110  10.040
    1LIG   H109  200   2.111   2.250  10.041
    1LIG   H110  201   2.284   2.384  10.164
    1LIG   H111  202   2.393   2.244  10.163
    1LIG   H112  203   2.285   2.384  10.408
    1LIG   H113  204   2.394   2.244  10.408
    1LIG   H114  205   2.221   2.109  10.531
    1LIG   H115  206   2.112   2.249  10.532
    1LIG   H116  207   2.221   2.107  10.775
    1LIG   H117  208   2.112   2.249  10.776
    1LIG   H118  209   2.393   2.242  10.900
    1LIG   H119  210   2.241   2.235  10.995
    1MOL     C1  211   2.803   2.247   5.479
    1MOL     H1  212   2.892   2.307   5.500
    1MOL     O1  213   2.777   2.174   5.597
    1MOL     C2  214   2.656   2.095   5.591
    1MOL     H2  215   2.571   2.159   5.566
    1MOL     C3  216   2.632   2.039   5.732
    1MOL     H3  217   2.728   2.036   5.785
    1MOL     H4  218   2.592   1.937   5.727
    1MOL     O2  219   2.543   2.121   5.808
    1MOL     H5  220   2.456   2.077   5.806
    1MOL     C4  221   2.825   2.151   5.361
    1MOL     H6  222   2.914   2.091   5.382
    1MOL     O3  223   2.850   2.219   5.239
    1MOL     H7  224   2.796   2.301   5.238
    1MOL     C5  225   2.704   2.059   5.348
    1MOL     H8  226   2.617   2.120   5.319
    1MOL     O4  227   2.726   1.958   5.249
    1MOL     H9  228   2.761   2.004   5.171
    1MOL     C6  229   2.670   1.990   5.480
    1MOL    H10  230   2.747   1.916   5.504
    1MOL     O5  231   2.544   1.925   5.457
    1MOL     C7  232   2.524   1.791   5.497
    1MOL    H11  233   2.619   1.743   5.522
    1MOL     O6  234   2.445   1.783   5.614
    1MOL     C8  235   2.316   1.847   5.603
    1MOL    H12  236   2.330   1.953   5.575
    1MOL     C9  237   2.253   1.843   5.740
    1MOL    H13  238   2.269   1.744   5.784
    1MOL    H14  239   2.145   1.861   5.732
    1MOL     O7  240   2.315   1.944   5.821
    1MOL    H15  241   2.292   1.929   5.914
    1MOL    C10  242   2.454   1.721   5.381
    1MOL    H16  243   2.443   1.615   5.406
    1MOL     O8  244   2.527   1.726   5.260
    1MOL    H17  245   2.573   1.813   5.254
    1MOL    C11  246   2.314   1.781   5.362
    1MOL    H18  247   2.325   1.885   5.331
    1MOL     O9  248   2.241   1.708   5.263
    1MOL    H19  249   2.302   1.698   5.188
    1MOL    C12  250   2.233   1.779   5.492
    1MOL    H20  251   2.210   1.676   5.520
    1MOL    O10  252   2.114   1.853   5.468
    1MOL    C13  253   1.986   1.793   5.487
    1MOL    H21  254   1.998   1.686   5.508
    1MOL    O11  255   1.920   1.847   5.600
    1MOL    C14  256   1.894   1.988   5.594
    1MOL    H22  257   1.990   2.042   5.595
    1MOL    C15  258   1.817   2.025   5.720
    1MOL    H23  259   1.813   2.135   5.726
    1MOL    H24  260   1.873   1.987   5.807
    1MOL    O12  261   1.687   1.969   5.713
    1MOL    H25  262   1.633   2.011   5.781
    1MOL    C16  263   1.904   1.817   5.360
    1MOL    H26  264   1.806   1.770   5.375
    1MOL    O13  265   1.959   1.759   5.244
    1MOL    H27  266   2.057   1.762   5.248
    1MOL    C17  267   1.884   1.967   5.342
    1MOL    H28  268   1.982   2.014   5.328
    1MOL    O14  269   1.801   1.994   5.229
    1MOL    H29  270   1.834   1.937   5.158
    1MOL    C18  271   1.818   2.028   5.465
    1MOL    H30  272   1.714   1.994   5.472
    1MOL    O15  273   1.824   2.170   5.450
    1MOL    C19  274   1.708   2.249   5.465
    1MOL    H31  275   1.619   2.186   5.479
    1MOL    O16  276   1.716   2.330   5.581
    1MOL    C20  277   1.831   2.417   5.585
    1MOL    H32  278   1.922   2.356   5.587
    1MOL    C21  279   1.824   2.496   5.715
    1MOL    H33  280   1.921   2.545   5.730
    1MOL    H34  281   1.807   2.425   5.798
    1MOL    O17  282   1.718   2.591   5.707
    1MOL    H35  283   1.726   2.650   5.783
    1MOL    C22  284   1.696   2.337   5.340
    1MOL    H36  285   1.607   2.399   5.350
    1MOL    O18  286   1.681   2.263   5.220
    1MOL    H37  287   1.738   2.184   5.224
    1MOL    C23  288   1.819   2.428   5.332
    1MOL    H38  289   1.908   2.365   5.318
    1MOL    O19  290   1.808   2.520   5.224
    1MOL    H39  291   1.779   2.468   5.148
    1MOL    C24  292   1.838   2.508   5.461
    1MOL    H40  293   1.761   2.585   5.467
    1MOL    O20  294   1.968   2.567   5.451
    1MOL    C25  295   1.990   2.700   5.492
    1MOL    H41  296   1.895   2.748   5.519
    1MOL    O21  297   2.071   2.706   5.607
    1MOL    C26  298   2.200   2.641   5.592
    1MOL    H42  299   2.182   2.537   5.563
    1MOL    C27  300   2.271   2.643   5.728
    1MOL    H43  301   2.328   2.551   5.741
    1MOL    H44  302   2.193   2.644   5.805
    1MOL    O22  303   2.354   2.756   5.749
    1MOL    H45  304   2.445   2.726   5.732
    1MOL    C28  305   2.057   2.772   5.374
    1MOL    H46  306   2.069   2.878   5.399
    1MOL    O23  307   1.980   2.768   5.255
    1MOL    H47  308   1.942   2.678   5.245
    1MOL    C29  309   2.196   2.711   5.351
    1MOL    H48  310   2.184   2.607   5.318
    1MOL    O24  311   2.268   2.785   5.252
    1MOL    H49  312   2.205   2.798   5.179
    1MOL    C30  313   2.277   2.712   5.479
    1MOL    H50  314   2.299   2.815   5.510
    1MOL    O25  315   2.399   2.643   5.450
    1MOL    C31  316   2.522   2.702   5.484
    1MOL    H51  317   2.509   2.808   5.509
    1MOL    O26  318   2.579   2.642   5.600
    1MOL    C32  319   2.600   2.499   5.590
    1MOL    H52  320   2.504   2.450   5.569
    1MOL    C33  321   2.650   2.451   5.727
    1MOL    H53  322   2.705   2.534   5.773
    1MOL    H54  323   2.720   2.368   5.714
    1MOL    O27  324   2.543   2.414   5.812
    1MOL    H55  325   2.538   2.316   5.812
    1MOL    C34  326   2.616   2.684   5.365
    1MOL    H56  327   2.711   2.735   5.387
    1MOL    O28  328   2.566   2.743   5.246
    1MOL    H57  329   2.468   2.735   5.245
    1MOL    C35  330   2.644   2.535   5.344
    1MOL    H58  331   2.549   2.487   5.318
    1MOL    O29  332   2.740   2.514   5.241
    1MOL    H59  333   2.712   2.570   5.167
    1MOL    C36  334   2.694   2.469   5.472
    1MOL    H60  335   2.797   2.503   5.493
    1MOL    O30  336   2.695   2.329   5.443
    2SOL     OW  337   0.230   0.628   0.113
    2SOL    HW1  338   0.137   0.626   0.150
    2SOL    HW2  339   0.231   0.589   0.021
    3SOL     OW  340   0.225   0.275   0.996
    3SOL    HW1  341   0.260   0.258   1.088
    3SOL    HW2  342   0.137   0.230   0.984
    4SOL     OW  343   0.019   0.368   0.647
    4SOL    HW1  344  -0.063   0.411   0.686
    4SOL    HW2  345  -0.009   0.295   0.584
    5SOL     OW  346   0.569   1.275   1.165
    5SOL    HW1  347   0.476   1.268   1.128
    5SOL    HW2  348   0.580   1.364   1.209
    6SOL     OW  349   1.555   1.511   0.703
    6SOL    HW1  350   1.498   1.495   0.784
    6SOL    HW2  351   1.496   1.521   0.623
    7SOL     OW  352   1.135   0.703   0.717
    7SOL    HW1  353   1.192   0.781   0.692
    7SOL    HW2  354   1.075   0.729   0.793
    8SOL     OW  355   1.755   0.607   0.231
    8SOL    HW1  356   1.743   0.594   0.132
    8SOL    HW2  357   1.725   0.526   0.280
    9SOL     OW  358   0.768   1.144   1.023
    9SOL    HW1  359   0.690   1.161   1.083
    9SOL    HW2  360   0.802   1.231   0.987
   10SOL     OW  361   0.850   0.798   1.823
   10SOL    HW1  362   0.846   0.874   1.888
   10SOL    HW2  363   0.872   0.834   1.732
   11SOL     OW  364   0.685   1.012   0.665
   11SOL    HW1  365   0.754   0.996   0.735
   11SOL    HW2  366   0.612   1.069   0.703
   12SOL     OW  367   0.686   1.161   1.803
   12SOL    HW1  368   0.746   1.240   1.817
   12SOL    HW2  369   0.600   1.192   1.762
   13SOL     OW  370   0.335   1.435   1.061
   13SOL    HW1  371   0.257   1.404   1.008
   13SOL    HW2  372   0.393   1.493   1.004
   14SOL     OW  373   1.460   1.505   1.339
   14SOL    HW1  374   1.484   1.599   1.365
   14SOL    HW2  375   1.444   1.451   1.421
   15SOL     OW  376   0.438   0.392   1.499
   15SOL    HW1  377   0.520   0.336   1.508
   15SOL    HW2  378   0.357   0.334   1.503
   16SOL     OW  379   1.603   0.447   0.737
   16SOL    HW1  380   1.529   0.493   0.687
   16SOL    HW2  381   1.654   0.515   0.790
   17SOL     OW  382   0.231   1.713   0.483
   17SOL    HW1  383   0.265   1.790   0.537
   17SOL    HW2  384   0.275   1.713   0.393
   18SOL     OW  385   1.127   1.341   1.690
   18SOL    HW1  386   1.174   1.341   1.778
   18SOL    HW2  387   1.079   1.254   1.679
   19SOL     OW  388   0.230   1.434   0.538
   19SOL    HW1  389   0.204   1.530   0.538
   19SOL    HW2  390   0.159   1.380   0.583
   20SOL     OW  391   0.240   1.091   0.886
   20SOL    HW1  392   0.254   1.007   0.938
   20SOL    HW2  393   0.185   1.155   0.941
   21SOL     OW  394   0.620   1.786   1.439
   21SOL    HW1  395   0.528   1.769   1.474
   21SOL    HW2  396   0.648   1.878   1.465
   22SOL     OW  397   0.606   0.964   0.123
   22SOL    HW1  398   0.613   1.048   0.069
   22SOL    HW2  399   0.652   0.977   0.211
   23SOL     OW  400   1.594   0.114   1.480
   23SOL    HW1  401   1.576   0.181   1.408
   23SOL    HW2  402   1.591   0.160   1.569
   24SOL     OW  403   0.122   0.643   0.563
   24SOL    HW1  404   0.077   0.555   0.580
   24SOL    HW2  405   0.121   0.697   0.647
   25SOL     OW  406   1.842   1.767   0.359
   25SOL    HW1  407   1.896   1.738   0.439
   25SOL    HW2  408   1.872   1.857   0.330
   26SOL     OW  409   0.027   1.596   0.117
   26SOL    HW1  410   0.008   1.500   0.138
   26SOL    HW2  411  -0.006   1.654   0.192
   27SOL     OW  412   1.689   0.922   0.612
   27SOL    HW1  413   1.784   0.893   0.620
   27SOL    HW2  414   1.681   0.987   0.537
   28SOL     OW  415   1.641   1.108   0.432
   28SOL    HW1  416   1.727   1.110   0.380
   28SOL    HW2  417   1.655   1.155   0.520
   29SOL     OW  418   0.113   0.737   1.597
   29SOL    HW1  419   0.201   0.724   1.642
   29SOL    HW2  420   0.100   0.834   1.575
   30SOL     OW  421   0.613   1.365   0.726
   30SOL    HW1  422   0.564   1.278   0.735
   30SOL    HW2  423   0.590   1.408   0.639
   31SOL     OW  424   1.293   1.228   1.423
   31SOL    HW1  425   1.330   1.155   1.365
   31SOL    HW2  426   1.345   1.233   1.508
   32SOL     OW  427   0.809   0.004   0.502
   32SOL    HW1  428   0.849   0.095   0.493
   32SOL    HW2  429   0.709   0.012   0.508
   33SOL     OW  430   0.197   0.976   1.264
   33SOL    HW1  431   0.286   0.931   1.250
   33SOL    HW2  432   0.124   0.911   1.245
   34SOL     OW  433   1.525   0.999   0.190
   34SOL    HW1  434   1.462   0.923   0.203
   34SOL    HW2  435   1.573   1.017   0.276
   35SOL     OW  436   1.187   1.792   1.616
   35SOL    HW1  437   1.211   1.852   1.540
   35SOL    HW2  438   1.194   1.697   1.586
   36SOL     OW  439   0.317   0.251   1.801
   36SOL    HW1  440   0.388   0.322   1.807
   36SOL    HW2  441   0.229   0.290   1.829
   37SOL     OW  442   1.466   1.417   0.953
   37SOL    HW1  443   1.407   1.423   1.033
   37SOL    HW2  444   1.451   1.329   0.907
   38SOL     OW  445   1.667   1.714   0.572
   38SOL    HW1  446   1.626   1.691   0.484
   38SOL    HW2  447   1.649   1.640   0.637
   39SOL     OW  448   0.598   0.729   0.270
   39SOL    HW1  449   0.622   0.798   0.202
   39SOL    HW2  450   0.520   0.762   0.324
   40SOL     OW  451   1.281   0.345   0.944
   40SOL    HW1  452   1.195   0.295   0.931
   40SOL    HW2  453   1.343   0.291   1.000
   41SOL     OW  454   1.576   1.662   0.307
   41SOL    HW1  455   1.665   1.708   0.310
   41SOL    HW2  456   1.555   1.638   0.212
   42SOL     OW  457   0.807   0.605   1.465
   42SOL    HW1  458   0.760   0.602   1.554
   42SOL    HW2  459   0.756   0.550   1.399
   43SOL     OW  460   1.394   0.469   1.674
   43SOL    HW1  461   1.374   0.512   1.762
   43SOL    HW2  462   1.472   0.407   1.683
   44SOL     OW  463   0.973   0.890   1.572
   44SOL    HW1  464   1.019   0.806   1.543
   44SOL    HW2  465   0.917   0.924   1.497
   45SOL     OW  466   0.991   0.410   1.242
   45SOL    HW1  467   0.914   0.444   1.296
   45SOL    HW2  468   0.957   0.359   1.163
   46SOL     OW  469   1.041   0.701   0.429
   46SOL    HW1  470   1.067   0.697   0.525
   46SOL    HW2  471   0.956   0.650   0.415
   47SOL     OW  472   0.076   0.811   0.789
   47SOL    HW1  473   0.175   0.799   0.798
   47SOL    HW2  474   0.052   0.906   0.810
   48SOL     OW  475   0.130   1.821   1.571
   48SOL    HW1  476   0.120   1.806   1.670
   48SOL    HW2  477   0.044   1.857   1.535
   49SOL     OW  478   0.865   0.348   0.195
   49SOL    HW1  479   0.924   0.411   0.146
   49SOL    HW2  480   0.884   0.254   0.166
   50SOL     OW  481   1.719   0.585   1.831
   50SOL    HW1  482   1.693   0.674   1.795
   50SOL    HW2  483   1.717   0.517   1.758
   51SOL     OW  484   1.362   1.144   0.545
   51SOL    HW1  485   1.445   1.115   0.497
   51SOL    HW2  486   1.313   1.211   0.489
   52SOL     OW  487   0.550   0.196   0.885
   52SOL    HW1  488   0.545   0.191   0.985
   52SOL    HW2  489   0.552   0.292   0.856
   53SOL     OW  490   1.008   1.456   0.477
   53SOL    HW1  491   0.962   1.528   0.425
   53SOL    HW2  492   1.004   1.476   0.575
   54SOL     OW  493   0.351   1.801   0.853
   54SOL    HW1  494   0.401   1.715   0.859
   54SOL    HW2  495   0.416   1.878   0.850
   55SOL     OW  496   1.795   1.066   0.873
   55SOL    HW1  497   1.733   1.051   0.797
   55SOL    HW2  498   1.743   1.077   0.958
   56SOL     OW  499   1.227   1.550   1.506
   56SOL    HW1  500   1.233   1.473   1.570
   56SOL    HW2  501   1.175   1.524   1.426
   57SOL     OW  502   0.321   0.943   0.242
   57SOL    HW1  503   0.403   0.982   0.200
   57SOL    HW2  504   0.294   0.861   0.193
   58SOL     OW  505   1.458   0.735   0.728
   58SOL    HW1  506   1.453   0.670   0.803
   58SOL    HW2  507   1.538   0.794   0.741
   59SOL     OW  508   0.461   1.266   1.727
   59SOL    HW1  509   0.411   1.267   1.641
   59SOL    HW2  510   0.398   1.248   1.803
   60SOL     OW  511   1.111   1.776   0.237
   60SOL    HW1  512   1.051   1.714   0.287
   60SOL    HW2  513   1.142   1.732   0.152
   61SOL     OW  514   0.202   0.285   1.498
   61SOL    HW1  515   0.122   0.345   1.485
   61SOL    HW2  516   0.192   0.236   1.584
   62SOL     OW  517   1.632   1.377   0.081
   62SOL    HW1  518   1.600   1.471   0.071
   62SOL    HW2  519   1.556   1.314   0.069
   63SOL     OW  520   0.464   1.743   0.323
   63SOL    HW1  521   0.497   1.782   0.409
   63SOL    HW2  522   0.540   1.736   0.258
   64SOL     OW  523   1.400   0.107   0.426
   64SOL    HW1  524   1.376   0.070   0.336
   64SOL    HW2  525   1.499   0.123   0.430
   65SOL     OW  526   0.249   1.785   1.241
   65SOL    HW1  527   0.306   1.720   1.291
   65SOL    HW2  528   0.233   1.752   1.148
   66SOL     OW  529   0.940   1.698   0.904
   66SOL    HW1  530   1.020   1.641   0.925
   66SOL    HW2  531   0.891   1.658   0.827
   67SOL     OW  532   0.382   0.700   0.480
   67SOL    HW1  533   0.427   0.610   0.477
   67SOL    HW2  534   0.288   0.689   0.513
   68SOL     OW  535   1.547   0.222   1.729
   68SOL    HW1  536   1.542   0.259   1.821
   68SOL    HW2  537   1.475   0.153   1.717
   69SOL     OW  538   0.614   0.122   0.117
   69SOL    HW1  539   0.712   0.100   0.124
   69SOL    HW2  540   0.583   0.105   0.024
   70SOL     OW  541   0.781   0.264   1.749
   70SOL    HW1  542   0.848   0.203   1.792
   70SOL    HW2  543   0.708   0.283   1.814
   71SOL     OW  544   0.888   1.514   1.195
   71SOL    HW1  545   0.865   1.489   1.101
   71SOL    HW2  546   0.949   1.445   1.234
   72SOL     OW  547   1.351   0.590   1.433
   72SOL    HW1  548   1.379   0.547   1.518
   72SOL    HW2  549   1.376   0.686   1.434
   73SOL     OW  550   0.803   1.402   0.924
   73SOL    HW1  551   0.893   1.416   0.882
   73SOL    HW2  552   0.732   1.404   0.853
   74SOL     OW  553   0.922   0.503   0.899
   74SOL    HW1  554   0.897   0.494   0.803
   74SOL    HW2  555   0.970   0.421   0.930
   75SOL     OW  556   0.539   0.064   0.512
   75SOL    HW1  557   0.458   0.065   0.570
   75SOL    HW2  558   0.542   0.147   0.457
   76SOL     OW  559   1.434   1.188   0.041
   76SOL    HW1  560   1.466   1.112   0.098
   76SOL    HW2  561   1.342   1.215   0.071
   77SOL     OW  562   0.297   0.035   0.171
   77SOL    HW1  563   0.346   0.119   0.150
   77SOL    HW2  564   0.359  -0.030   0.216
   78SOL     OW  565   0.935   0.236   0.480
   78SOL    HW1  566   0.887   0.277   0.402
   78SOL    HW2  567   1.034   0.234   0.461
   79SOL     OW  568   1.076   0.683   1.464
   79SOL    HW1  569   0.996   0.622   1.467
   79SOL    HW2  570   1.157   0.630   1.440
   80SOL     OW  571   1.227   1.570   0.793
   80SOL    HW1  572   1.248   1.644   0.728
   80SOL    HW2  573   1.295   1.570   0.866
   81SOL     OW  574   0.459   1.152   0.741
   81SOL    HW1  575   0.388   1.125   0.806
   81SOL    HW2  576   0.433   1.124   0.648
   82SOL     OW  577   1.271   1.797   0.591
   82SOL    HW1  578   1.315   1.861   0.527
   82SOL    HW2  579   1.221   1.849   0.661
   83SOL     OW  580   1.032   0.549   0.016
   83SOL    HW1  581   0.991   0.631  -0.023
   83SOL    HW2  582   1.096   0.575   0.089
   84SOL     OW  583   0.078   0.556   1.386
   84SOL    HW1  584   0.170   0.555   1.345
   84SOL    HW2  585   0.072   0.630   1.453
   85SOL     OW  586   0.561   0.222   1.147
   85SOL    HW1  587   0.599   0.138   1.184
   85SOL    HW2  588   0.473   0.241   1.191
   86SOL     OW  589   0.866   0.454   0.642
   86SOL    HW1  590   0.834   0.526   0.580
   86SOL    HW2  591   0.890   0.373   0.589
   87SOL     OW  592   1.017   0.039   0.753
   87SOL    HW1  593   0.945   0.044   0.684
   87SOL    HW2  594   0.993  -0.030   0.822
   88SOL     OW  595   1.429   1.173   0.867
   88SOL    HW1  596   1.374   1.089   0.860
   88SOL    HW2  597   1.455   1.202   0.775
   89SOL     OW  598   1.466   0.590   0.992
   89SOL    HW1  599   1.436   0.495   0.999
   89SOL    HW2  600   1.539   0.606   1.058
   90SOL     OW  601   1.857   0.833   0.377
   90SOL    HW1  602   1.899   0.769   0.441
   90SOL    HW2  603   1.819   0.782   0.299
   91SOL     OW  604   0.488   1.385   0.174
   91SOL    HW1  605   0.401   1.370   0.221
   91SOL    HW2  606   0.471   1.411   0.079
   92SOL     OW  607   1.664   1.280   0.657
   92SOL    HW1  608   1.763   1.288   0.671
   92SOL    HW2  609   1.619   1.364   0.688
   93SOL     OW  610   1.390   0.575   0.078
   93SOL    HW1  611   1.336   0.554   0.159
   93SOL    HW2  612   1.481   0.534   0.087
   94SOL     OW  613   0.527   0.256   0.328
   94SOL    HW1  614   0.554   0.197   0.253
   94SOL    HW2  615   0.527   0.351   0.297
   95SOL     OW  616   1.754   1.223   1.588
   95SOL    HW1  617   1.845   1.184   1.575
   95SOL    HW2  618   1.762   1.319   1.612
   96SOL     OW  619   1.064   1.347   1.340
   96SOL    HW1  620   0.984   1.324   1.395
   96SOL    HW2  621   1.147   1.321   1.389
   97SOL     OW  622   1.592   1.629   1.625
   97SOL    HW1  623   1.619   1.663   1.535
   97SOL    HW2  624   1.671   1.591   1.671
   98SOL     OW  625   1.111   1.195   1.100
   98SOL    HW1  626   1.071   1.239   1.181
   98SOL    HW2  627   1.070   1.232   1.017
   99SOL     OW  628   1.638   1.099   1.079
   99SOL    HW1  629   1.643   1.180   1.138
   99SOL    HW2  630   1.552   1.101   1.028
  100SOL     OW  631   0.915   0.089   1.402
  100SOL    HW1  632   0.940   0.069   1.307
  100SOL    HW2  633   0.987   0.145   1.444
  101SOL     OW  634   0.980   1.116   1.719
  101SOL    HW1  635   0.881   1.122   1.729
  101SOL    HW2  636   1.003   1.036   1.663
  102SOL     OW  637   0.705   1.050   0.368
  102SOL    HW1  638   0.691   1.057   0.467
  102SOL    HW2  639   0.789   0.999   0.350
  103SOL     OW  640   0.410   0.813   1.251
  103SOL    HW1  641   0.496   0.825   1.301
  103SOL    HW2  642   0.368   0.726   1.278
  104SOL     OW  643   1.274   0.386   1.262
  104SOL    HW1  644   1.295   0.460   1.326
  104SOL    HW2  645   1.185   0.403   1.219
  105SOL     OW  646   0.064   1.564   1.331
  105SOL    HW1  647   0.018   1.646   1.297
  105SOL    HW2  648   0.162   1.583   1.340
  106SOL     OW  649   0.367   1.100   0.501
  106SOL    HW1  650   0.360   1.183   0.445
  106SOL    HW2  651   0.371   1.020   0.441
  107SOL     OW  652   0.566   0.537   0.865
  107SOL    HW1  653   0.578   0.603   0.791
  107SOL    HW2  654   0.612   0.571   0.948
  108SOL     OW  655   1.252   1.348   0.388
  108SOL    HW1  656   1.302   1.425   0.428
  108SOL    HW2  657   1.157   1.350   0.420
  109SOL     OW  658   1.272   1.445   1.142
  109SOL    HW1  659   1.319   1.458   1.229
  109SOL    HW2  660   1.206   1.371   1.151
  110SOL     OW  661   1.582   0.639   0.472
  110SOL    HW1  662   1.551   0.700   0.545
  110SOL    HW2  663   1.632   0.691   0.403
  111SOL     OW  664   0.354   1.510   1.329
  111SOL    HW1  665   0.333   1.466   1.242
  111SOL    HW2  666   0.451   1.536   1.332
  112SOL     OW  667   0.402   0.751   1.598
  112SOL    HW1  668   0.470   0.806   1.551
  112SOL    HW2  669   0.442   0.663   1.625
  113SOL     OW  670   1.587   0.779   1.670
  113SOL    HW1  671   1.495   0.817   1.665
  113SOL    HW2  672   1.647   0.826   1.605
  114SOL     OW  673   1.013   0.105   1.770
  114SOL    HW1  674   1.019   0.190   1.718
  114SOL    HW2  675   1.045   0.029   1.713
  115SOL     OW  676   0.504   0.050   1.740
  115SOL    HW1  677   0.462  -0.007   1.670
  115SOL    HW2  678   0.438   0.119   1.772
  116SOL     OW  679   0.573   0.870   1.029
  116SOL    HW1  680   0.617   0.959   1.020
  116SOL    HW2  681   0.510   0.870   1.106
  117SOL     OW  682   1.360   0.862   1.045
  117SOL    HW1  683   1.285   0.862   0.979
  117SOL    HW2  684   1.397   0.770   1.054
  118SOL     OW  685   1.209   0.525   0.275
  118SOL    HW1  686   1.222   0.441   0.329
  118SOL    HW2  687   1.180   0.599   0.335
  119SOL     OW  688   0.307   0.213   1.231
  119SOL    HW1  689   0.284   0.250   1.321
  119SOL    HW2  690   0.277   0.118   1.225
  120SOL     OW  691   0.037   1.310   1.282
  120SOL    HW1  692   0.090   1.261   1.350
  120SOL    HW2  693   0.059   1.408   1.287
  121SOL     OW  694   0.732   0.634   1.064
  121SOL    HW1  695   0.791   0.608   0.988
  121SOL    HW2  696   0.704   0.730   1.053
  122SOL     OW  697   1.728   0.935   1.854
  122SOL    HW1  698   1.682   0.928   1.765
  122SOL    HW2  699   1.666   0.979   1.920
  123SOL     OW  700   0.307   0.063   0.618
  123SOL    HW1  701   0.296   0.157   0.651
  123SOL    HW2  702   0.302   0.000   0.695
  124SOL     OW  703   1.622   0.367   0.374
  124SOL    HW1  704   1.624   0.291   0.438
  124SOL    HW2  705   1.574   0.444   0.414
  125SOL     OW  706   1.023   0.766   0.966
  125SOL    HW1  707   1.038   0.787   1.062
  125SOL    HW2  708   0.993   0.671   0.957
  126SOL     OW  709   0.980   1.573   1.700
  126SOL    HW1  710   0.960   1.617   1.612
  126SOL    HW2  711   1.019   1.482   1.684
  127SOL     OW  712   1.859   1.518   1.605
  127SOL    HW1  713   1.873   1.545   1.510
  127SOL    HW2  714   1.942   1.540   1.658
  128SOL     OW  715   0.350   0.898   1.804
  128SOL    HW1  716   0.426   0.942   1.852
  128SOL    HW2  717   0.385   0.851   1.722
  129SOL     OW  718   1.540   0.274   0.125
  129SOL    HW1  719   1.479   0.199   0.148
  129SOL    HW2  720   1.562   0.326   0.208
  130SOL     OW  721   1.303   0.838   0.042
  130SOL    HW1  722   1.337   0.745   0.057
  130SOL    HW2  723   1.321   0.865  -0.053
  131SOL     OW  724   1.068   1.333   0.849
  131SOL    HW1  725   1.075   1.249   0.794
  131SOL    HW2  726   1.130   1.402   0.813
  132SOL     OW  727   0.319   0.810   0.949
  132SOL    HW1  728   0.412   0.846   0.954
  132SOL    HW2  729   0.313   0.725   1.001
  133SOL     OW  730   0.339   0.509   1.006
  133SOL    HW1  731   0.287   0.426   0.989
  133SOL    HW2  732   0.416   0.514   0.942
  134SOL     OW  733   1.138   0.380   1.678
  134SOL    HW1  734   1.093   0.443   1.742
  134SOL    HW2  735   1.231   0.411   1.661
  135SOL     OW  736   1.160   0.207   1.477
  135SOL    HW1  737   1.160   0.271   1.554
  135SOL    HW2  738   1.188   0.255   1.394
  136SOL     OW  739   0.008   1.326   0.200
  136SOL    HW1  740  -0.085   1.347   0.169
  136SOL    HW2  741   0.018   1.227   0.213
  137SOL     OW  742   0.088   1.801   0.927
  137SOL    HW1  743   0.046   1.715   0.900
  137SOL    HW2  744   0.182   1.804   0.893
  138SOL     OW  745   0.504   1.568   0.910
  138SOL    HW1  746   0.570   1.642   0.919
  138SOL    HW2  747   0.548   1.489   0.868
  139SOL     OW  748   1.002   0.796   1.238
  139SOL    HW1  749   1.043   0.764   1.324
  139SOL    HW2  750   0.906   0.769   1.235
  140SOL     OW  751   0.040   0.544   1.114
  140SOL    HW1  752   0.125   0.511   1.073
  140SOL    HW2  753   0.053   0.559   1.212
  141SOL     OW  754   0.189   0.520   1.722
  141SOL    HW1  755   0.248   0.480   1.652
  141SOL    HW2  756   0.131   0.591   1.681
  142SOL     OW  757   1.369   0.950   1.660
  142SOL    HW1  758   1.408   1.039   1.680
  142SOL    HW2  759   1.379   0.930   1.563
  143SOL     OW  760   0.815   0.572   0.325
  143SOL    HW1  761   0.822   0.483   0.279
  143SOL    HW2  762   0.721   0.606   0.317
  144SOL     OW  763   1.657   0.604   1.206
  144SOL    HW1  764   1.619   0.535   1.268
  144SOL    HW2  765   1.739   0.568   1.162
  145SOL     OW  766   0.252   1.564   1.744
  145SOL    HW1  767   0.222   1.621   1.820
  145SOL    HW2  768   0.245   1.467   1.770
  146SOL     OW  769   0.671   0.464   1.269
  146SOL    HW1  770   0.637   0.375   1.239
  146SOL    HW2  771   0.697   0.518   1.189
  147SOL     OW  772   0.930   1.678   1.465
  147SOL    HW1  773   0.906   1.660   1.370
  147SOL    HW2  774   0.960   1.772   1.475
  148SOL     OW  775   0.473   0.500   0.191
  148SOL    HW1  776   0.534   0.580   0.195
  148SOL    HW2  777   0.378   0.531   0.198
  149SOL     OW  778   0.159   1.137   1.466
  149SOL    HW1  779   0.181   1.076   1.542
  149SOL    HW2  780   0.169   1.088   1.380
  150SOL     OW  781   1.347   1.059   1.234
  150SOL    HW1  782   1.371   0.996   1.160
  150SOL    HW2  783   1.257   1.099   1.216
  151SOL     OW  784   1.302   0.855   0.309
  151SOL    HW1  785   1.216   0.824   0.351
  151SOL    HW2  786   1.298   0.841   0.210
  152SOL     OW  787   1.759   1.747   1.154
  152SOL    HW1  788   1.820   1.777   1.081
  152SOL    HW2  789   1.721   1.658   1.132
  153SOL     OW  790   1.252   1.731   1.128
  153SOL    HW1  791   1.336   1.736   1.074
  153SOL    HW2  792   1.229   1.635   1.146
  154SOL     OW  793   0.083   1.258   1.022
  154SOL    HW1  794   0.078   1.257   1.122
  154SOL    HW2  795   0.000   1.217   0.984
  155SOL     OW  796   0.688   1.662   1.716
  155SOL    HW1  797   0.632   1.743   1.725
  155SOL    HW2  798   0.740   1.666   1.630
  156SOL     OW  799   0.903   0.086   0.133
  156SOL    HW1  800   0.954   0.087   0.047
  156SOL    HW2  801   0.959   0.044   0.204
  157SOL     OW  802   1.726   0.135   0.523
  157SOL    HW1  803   1.799   0.118   0.456
  157SOL    HW2  804   1.695   0.048   0.561
  158SOL     OW  805   1.388   1.573   0.477
  158SOL    HW1  806   1.455   1.585   0.403
  158SOL    HW2  807   1.348   1.662   0.500
  159SOL     OW  808   0.130   1.794   1.851
  159SOL    HW1  809   0.089   1.720   1.904
  159SOL    HW2  810   0.194   1.845   1.909
  160SOL     OW  811   1.280   0.927   0.672
  160SOL    HW1  812   1.340   0.846   0.674
  160SOL    HW2  813   1.320   0.996   0.612
  161SOL     OW  814   0.830   1.273   1.422
  161SOL    HW1  815   0.825   1.306   1.517
  161SOL    HW2  816   0.744   1.292   1.376
  162SOL     OW  817   0.672   1.616   0.154
  162SOL    HW1  818   0.681   1.626   0.055
  162SOL    HW2  819   0.632   1.527   0.175
  163SOL     OW  820   1.650   1.720   1.394
  163SOL    HW1  821   1.703   1.730   1.310
  163SOL    HW2  822   1.623   1.810   1.428
  164SOL     OW  823   1.841   0.175   0.963
  164SOL    HW1  824   1.880   0.090   0.927
  164SOL    HW2  825   1.743   0.177   0.944
  165SOL     OW  826   0.263   0.326   0.720
  165SOL    HW1  827   0.184   0.377   0.686
  165SOL    HW2  828   0.254   0.311   0.818
  166SOL     OW  829   1.194   1.612   0.031
  166SOL    HW1  830   1.200   1.519   0.068
  166SOL    HW2  831   1.135   1.612  -0.049
  167SOL     OW  832   0.822   1.002   1.372
  167SOL    HW1  833   0.862   1.001   1.280
  167SOL    HW2  834   0.832   1.094   1.412
  168SOL     OW  835   0.916   0.910   0.291
  168SOL    HW1  836   0.979   0.948   0.223
  168SOL    HW2  837   0.956   0.827   0.330
  169SOL     OW  838   1.504   1.607   0.044
  169SOL    HW1  839   1.412   1.644   0.051
  169SOL    HW2  840   1.542   1.627  -0.046
  170SOL     OW  841   0.372   1.288   1.490
  170SOL    HW1  842   0.359   1.381   1.456
  170SOL    HW2  843   0.288   1.236   1.477
  171SOL     OW  844   1.614   1.292   1.289
  171SOL    HW1  845   1.674   1.295   1.369
  171SOL    HW2  846   1.539   1.356   1.302
  172SOL     OW  847   1.039   1.098   0.696
  172SOL    HW1  848   0.969   1.051   0.750
  172SOL    HW2  849   1.098   1.030   0.653
  173SOL     OW  850   1.014   0.236   0.971
  173SOL    HW1  851   1.006   0.200   0.878
  173SOL    HW2  852   1.012   0.160   1.036
  174SOL     OW  853   0.590   1.487   0.491
  174SOL    HW1  854   0.632   1.429   0.421
  174SOL    HW2  855   0.546   1.566   0.447
  175SOL     OW  856   1.709   0.385   1.381
  175SOL    HW1  857   1.782   0.454   1.385
  175SOL    HW2  858   1.737   0.310   1.322
  176SOL     OW  859   0.255   1.348   0.290
  176SOL    HW1  860   0.159   1.349   0.263
  176SOL    HW2  861   0.267   1.401   0.374
  177SOL     OW  862   0.105   1.013   1.726
  177SOL    HW1  863   0.028   0.980   1.780
  177SOL    HW2  864   0.190   0.983   1.768
  178SOL     OW  865   0.672   0.203   1.489
  178SOL    HW1  866   0.762   0.187   1.449
  178SOL    HW2  867   0.680   0.208   1.588
  179SOL     OW  868   0.075   0.345   0.033
  179SOL    HW1  869  -0.017   0.317   0.004
  179SOL    HW2  870   0.106   0.422  -0.023
  180SOL     OW  871   1.440   0.856   1.398
  180SOL    HW1  872   1.383   0.908   1.335
  180SOL    HW2  873   1.536   0.868   1.374
  181SOL     OW  874   0.072   0.166   0.318
  181SOL    HW1  875   0.055   0.249   0.264
  181SOL    HW2  876   0.162   0.129   0.296
  182SOL     OW  877   1.183   1.335   0.119
  182SOL    HW1  878   1.084   1.324   0.121
  182SOL    HW2  879   1.217   1.350   0.212
  183SOL     OW  880   0.613   0.842   1.431
  183SOL    HW1  881   0.669   0.923   1.414
  183SOL    HW2  882   0.672   0.762   1.434
  184SOL     OW  883   1.493   1.767   0.959
  184SOL    HW1  884   1.526   1.831   0.890
  184SOL    HW2  885   1.559   1.761   1.034
  185SOL     OW  886   0.716   0.565   1.708
  185SOL    HW1  887   0.735   0.630   1.782
  185SOL    HW2  888   0.776   0.485   1.717
  186SOL     OW  889   1.450   1.220   1.633
  186SOL    HW1  890   1.441   1.210   1.732
  186SOL    HW2  891   1.546   1.213   1.607
  187SOL     OW  892   0.390   1.741   1.560
  187SOL    HW1  893   0.299   1.782   1.558
  187SOL    HW2  894   0.383   1.647   1.592
  188SOL     OW  895   1.674   0.883   1.254
  188SOL    HW1  896   1.647   0.794   1.217
  188SOL    HW2  897   1.675   0.951   1.181
  189SOL     OW  898   1.225   0.325   0.449
  189SOL    HW1  899   1.290   0.251   0.438
  189SOL    HW2  900   1.245   0.375   0.533
  190SOL     OW  901   0.594   0.745   0.652
  190SOL    HW1  902   0.644   0.830   0.633
  190SOL    HW2  903   0.506   0.747   0.604
  191SOL     OW  904   1.777   0.342   1.642
  191SOL    HW1  905   1.760   0.373   1.548
  191SOL    HW2  906   1.693   0.305   1.680
  192SOL     OW  907   1.730   0.934   1.517
  192SOL    HW1  908   1.768   1.025   1.532
  192SOL    HW2  909   1.722   0.917   1.418
  193SOL     OW  910   0.859   1.374   0.016
  193SOL    HW1  911   0.813   1.389   0.104
  193SOL    HW2  912   0.903   1.459  -0.014
  194SOL     OW  913   0.661   1.790   0.953
  194SOL    HW1  914   0.615   1.878   0.940
  194SOL    HW2  915   0.760   1.802   0.946
  195SOL     OW  916   0.859   0.956   0.861
  195SOL    HW1  917   0.913   0.887   0.909
  195SOL    HW2  918   0.827   1.025   0.927
  196SOL     OW  919   1.083   0.984   0.087
  196SOL    HW1  920   1.060   1.037   0.005
  196SOL    HW2  921   1.164   0.928   0.068
  197SOL     OW  922   1.861   1.569   0.851
  197SOL    HW1  923   1.790   1.557   0.781
  197SOL    HW2  924   1.862   1.490   0.911
  198SOL     OW  925   0.221   1.314   1.844
  198SOL    HW1  926   0.156   1.241   1.823
  198SOL    HW2  927   0.225   1.328   1.942
  199SOL     OW  928   0.079   1.240   0.653
  199SOL    HW1  929   0.078   1.193   0.741
  199SOL    HW2  930   0.161   1.212   0.602
  200SOL     OW  931   0.672   1.391   1.624
  200SOL    HW1  932   0.594   1.341   1.662
  200SOL    HW2  933   0.669   1.486   1.655
  201SOL     OW  934   1.824   0.192   1.227
  201SOL    HW1  935   1.820   0.102   1.271
  201SOL    HW2  936   1.827   0.181   1.128
  202SOL     OW  937   0.428   0.424   0.520
  202SOL    HW1  938   0.458   0.352   0.458
  202SOL    HW2  939   0.389   0.384   0.603
  203SOL     OW  940   1.705   1.487   1.104
  203SOL    HW1  941   1.612   1.462   1.077
  203SOL    HW2  942   1.731   1.437   1.186
  204SOL     OW  943   0.317   0.547   1.280
  204SOL    HW1  944   0.355   0.488   1.352
  204SOL    HW2  945   0.357   0.521   1.192
  205SOL     OW  946   0.812   1.586   0.687
  205SOL    HW1  947   0.844   1.596   0.593
  205SOL    HW2  948   0.733   1.524   0.689
  206SOL     OW  949   1.424   0.214   1.112
  206SOL    HW1  950   1.476   0.149   1.167
  206SOL    HW2  951   1.375   0.277   1.173
  207SOL     OW  952   1.001   0.034   1.154
  207SOL    HW1  953   0.938  -0.038   1.123
  207SOL    HW2  954   1.094  -0.002   1.154
  208SOL     OW  955   0.770   1.330   0.301
  208SOL    HW1  956   0.724   1.243   0.318
  208SOL    HW2  957   0.861   1.327   0.342
  209SOL     OW  958   0.618   1.567   1.284
  209SOL    HW1  959   0.613   1.649   1.341
  209SOL    HW2  960   0.707   1.564   1.239
  210SOL     OW  961   1.352   0.052   0.168
  210SOL    HW1  962   1.387   0.011   0.084
  210SOL    HW2  963   1.262   0.014   0.188
  211SOL     OW  964   1.300   0.453   0.691
  211SOL    HW1  965   1.241   0.533   0.695
  211SOL    HW2  966   1.315   0.418   0.784
  212SOL     OW  967   1.593   0.221   0.882
  212SOL    HW1  968   1.509   0.220   0.936
  212SOL    HW2  969   1.595   0.304   0.826
  213SOL     OW  970   0.039   1.077   0.300
  213SOL    HW1  971   0.138   1.066   0.291
  213SOL    HW2  972  -0.001   0.991   0.332
  214SOL     OW  973   0.875   1.646   0.337
  214SOL    HW1  974   0.798   1.611   0.283
  214SOL    HW2  975   0.843   1.717   0.399
  215SOL     OW  976   0.230   0.628   1.975
  215SOL    HW1  977   0.137   0.626   2.012
  215SOL    HW2  978   0.231   0.589   1.883
  216SOL     OW  979   0.225   0.275   2.858
  216SOL    HW1  980   0.260   0.258   2.950
  216SOL    HW2  981   0.137   0.230   2.846
  217SOL     OW  982   0.019   0.368   2.509
  217SOL    HW1  983  -0.063   0.411   2.548
  217SOL    HW2  984  -0.009   0.295   2.446
  218SOL     OW  985   0.569   1.275   3.027
  218SOL    HW1  986   0.476   1.268   2.990
  218SOL    HW2  987   0.580   1.364   3.071
  219SOL     OW  988   1.555   1.511   2.565
  219SOL    HW1  989   1.498   1.495   2.646
  219SOL    HW2  990   1.496   1.521   2.485
  220SOL     OW  991   1.135   0.703   2.579
  220SOL    HW1  992   1.192   0.781   2.554
  220SOL    HW2  993   1.075   0.729   2.655
  221SOL     OW  994   1.755   0.607   2.093
  221SOL    HW1  995   1.743   0.594   1.994
  221SOL    HW2  996   1.725   0.526   2.142
  222SOL     OW  997   0.768   1.144   2.885
  222SOL    HW1  998   0.690   1.161   2.945
  222SOL    HW2  999   0.802   1.231   2.849
  223SOL     OW 1000   0.850   0.798   3.685
  223SOL    HW1 1001   0.846   0.874   3.750
  223SOL    HW2 1002   0.872   0.834   3.594
  224SOL     OW 1003   0.685   1.012   2.527
  224SOL    HW1 1004   0.754   0.996   2.597
  224SOL    HW2 1005   0.612   1.069   2.565
  225SOL     OW 1006   0.686   1.161   3.665
  225SOL    HW1 1007   0.746   1.240   3.679
  225SOL    HW2 1008   0.600   1.192   3.624
  226SOL     OW 1009   0.335   1.435   2.923
  226SOL    HW1 1010   0.257   1.404   2.870
  226SOL    HW2 1011   0.393   1.493   2.866
  227SOL     OW 1012   1.460   1.505   3.201
  227SOL    HW1 1013   1.484   1.599   3.227
  227SOL    HW2 1014   1.444   1.451   3.283
  228SOL     OW 1015   0.438   0.392   3.361
  228SOL    HW1 1016   0.520   0.336   3.370
  228SOL    HW2 1017   0.357   0.334   3.365
  229SOL     OW 1018   1.603   0.447   2.599
  229SOL    HW1 1019   1.529   0.493   2.549
  229SOL    HW2 1020   1.654   0.515   2.652
  230SOL     OW 1021   0.231   1.713   2.345
  230SOL    HW1 1022   0.265   1.790   2.399
  230SOL    HW2 1023   0.275   1.713   2.255
  231SOL     OW 1024   1.127   1.341   3.552
  231SOL    HW1 1025   1.174   1.341   3.640
  231SOL    HW2 1026   1.079   1.254   3.541
  232SOL     OW 1027   0.230   1.434   2.400
  232SOL    HW1 1028   0.204   1.530   2.400
  232SOL    HW2 1029   0.159   1.380   2.445
  233SOL     OW 1030   0.240   1.091   2.748
  233SOL    HW1 1031   0.254   1.007   2.800
  233SOL    HW2 1032   0.185   1.155   2.803
  234SOL     OW 1033   0.620   1.786   3.301
  234SOL    HW1 1034   0.528   1.769   3.336
  234SOL    HW2 1035   0.648   1.878   3.327
  235SOL     OW 1036   0.606   0.964   1.985
  235SOL    HW1 1037   0.613   1.048   1.931
  235SOL    HW2 1038   0.652   0.977   2.073
  236SOL     OW 1039   1.594   0.114   3.342
  236SOL    HW1 1040   1.576   0.181   3.270
  236SOL    HW2 1041   1.591   0.160   3.431
  237SOL     OW 1042   0.122   0.643   2.425
  237SOL    HW1 1043   0.077   0.555   2.442
  237SOL    HW2 1044   0.121   0.697   2.509
  238SOL     OW 1045   1.842   1.767   2.221
  238SOL    HW1 1046   1.896   1.738   2.301
  238SOL    HW2 1047   1.872   1.857   2.192
  239SOL     OW 1048   0.027   1.596   1.979
  239SOL    HW1 1049   0.008   1.500   2.000
  239SOL    HW2 1050  -0.006   1.654   2.054
  240SOL     OW 1051   1.689   0.922   2.474
  240SOL    HW1 1052   1.784   0.893   2.482
  240SOL    HW2 1053   1.681   0.987   2.399
  241SOL     OW 1054   1.641   1.108   2.294
  241SOL    HW1 1055   1.727   1.110   2.242
  241SOL    HW2 1056   1.655   1.155   2.382
  242SOL     OW 1057   0.113   0.737   3.459
  242SOL    HW1 1058   0.201   0.724   3.504
  242SOL    HW2 1059   0.100   0.834   3.437
  243SOL     OW 1060   0.613   1.365   2.588
  243SOL    HW1 1061   0.564   1.278   2.597
  243SOL    HW2 1062   0.590   1.408   2.501
  244SOL     OW 1063   1.293   1.228   3.285
  244SOL    HW1 1064   1.330   1.155   3.227
  244SOL    HW2 1065   1.345   1.233   3.370
  245SOL     OW 1066   0.809   0.004   2.364
  245SOL    HW1 1067   0.849   0.095   2.355
  245SOL    HW2 1068   0.709   0.012   2.370
  246SOL     OW 1069   0.197   0.976   3.126
  246SOL    HW1 1070   0.286   0.931   3.112
  246SOL    HW2 1071   0.124   0.911   3.107
  247SOL     OW 1072   1.525   0.999   2.052
  247SOL    HW1 1073   1.462   0.923   2.065
  247SOL    HW2 1074   1.573   1.017   2.138
  248SOL     OW 1075   1.187   1.792   3.478
  248SOL    HW1 1076   1.211   1.852   3.402
  248SOL    HW2 1077   1.194   1.697   3.448
  249SOL     OW 1078   0.317   0.251   3.663
  249SOL    HW1 1079   0.388   0.322   3.669
  249SOL    HW2 1080   0.229   0.290   3.691
  250SOL     OW 1081   1.466   1.417   2.815
  250SOL    HW1 1082   1.407   1.423   2.895
  250SOL    HW2 1083   1.451   1.329   2.769
  251SOL     OW 1084   1.667   1.714   2.434
  251SOL    HW1 1085   1.626   1.691   2.346
  251SOL    HW2 1086   1.649   1.640   2.499
  252SOL     OW 1087   0.598   0.729   2.132
  252SOL    HW1 1088   0.622   0.798   2.064
  252SOL    HW2 1089   0.520   0.762   2.186
  253SOL     OW 1090   1.281   0.345   2.806
  253SOL    HW1 1091   1.195   0.295   2.793
  253SOL    HW2 1092   1.343   0.291   2.862
  254SOL     OW 1093   1.576   1.662   2.169
  254SOL    HW1 1094   1.665   1.708   2.172
  254SOL    HW2 1095   1.555   1.638   2.074
  255SOL     OW 1096   0.807   0.605   3.327
  255SOL    HW1 1097   0.760   0.602   3.416
  255SOL    HW2 1098   0.756   0.550   3.261
  256SOL     OW 1099   1.394   0.469   3.536
  256SOL    HW1 1100   1.374   0.512   3.624
  256SOL    HW2 1101   1.472   0.407   3.545
  257SOL     OW 1102   0.973   0.890   3.434
  257SOL    HW1 1103   1.019   0.806   3.405
  257SOL    HW2 1104   0.917   0.924   3.359
  258SOL     OW 1105   0.991   0.410   3.104
  258SOL    HW1 1106   0.914   0.444   3.158
  258SOL    HW2 1107   0.957   0.359   3.025
  259SOL     OW 1108   1.041   0.701   2.291
  259SOL    HW1 1109   1.067   0.697   2.387
  259SOL    HW2 1110   0.956   0.650   2.277
  260SOL     OW 1111   0.076   0.811   2.651
  260SOL    HW1 1112   0.175   0.799   2.660
  260SOL    HW2 1113   0.052   0.906   2.672
  261SOL     OW 1114   0.130   1.821   3.433
  261SOL    HW1 1115   0.120   1.806   3.532
  261SOL    HW2 1116   0.044   1.857   3.397
  262SOL     OW 1117   0.865   0.348   2.057
  262SOL    HW1 1118   0.924   0.411   2.008
  262SOL    HW2 1119   0.884   0.254   2.028
  263SOL     OW 1120   1.719   0.585   3.693
  263SOL    HW1 1121   1.693   0.674   3.657
  263SOL    HW2 1122   1.717   0.517   3.620
  264SOL     OW 1123   1.362   1.144   2.407
  264SOL    HW1 1124   1.445   1.115   2.359
  264SOL    HW2 1125   1.313   1.211   2.351
  265SOL     OW 1126   0.550   0.196   2.747
  265SOL    HW1 1127   0.545   0.191   2.847
  265SOL    HW2 1128   0.552   0.292   2.718
  266SOL     OW 1129   1.008   1.456   2.339
  266SOL    HW1 1130   0.962   1.528   2.287
  266SOL    HW2 1131   1.004   1.476   2.437
  267SOL     OW 1132   0.351   1.801   2.715
  267SOL    HW1 1133   0.401   1.715   2.721
  267SOL    HW2 1134   0.416   1.878   2.712
  268SOL     OW 1135   1.795   1.066   2.735
  268SOL    HW1 1136   1.733   1.051   2.659
  268SOL    HW2 1137   1.743   1.077   2.820
  269SOL     OW 1138   1.227   1.550   3.368
  269SOL    HW1 1139   1.233   1.473   3.432
  269SOL    HW2 1140   1.175   1.524   3.288
  270SOL     OW 1141   0.321   0.943   2.104
  270SOL    HW1 1142   0.403   0.982   2.062
  270SOL    HW2 1143   0.294   0.861   2.055
  271SOL     OW 1144   1.458   0.735   2.590
  271SOL    HW1 1145   1.453   0.670   2.665
  271SOL    HW2 1146   1.538   0.794   2.603
  272SOL     OW 1147   0.461   1.266   3.589
  272SOL    HW1 1148   0.411   1.267   3.503
  272SOL    HW2 1149   0.398   1.248   3.665
  273SOL     OW 1150   1.111   1.776   2.099
  273SOL    HW1 1151   1.051   1.714   2.149
  273SOL    HW2 1152   1.142   1.732   2.014
  274SOL     OW 1153   0.202   0.285   3.360
  274SOL    HW1 1154   0.122   0.345   3.347
  274SOL    HW2 1155   0.192   0.236   3.446
  275SOL     OW 1156   1.632   1.377   1.943
  275SOL    HW1 1157   1.600   1.471   1.933
  275SOL    HW2 1158   1.556   1.314   1.931
  276SOL     OW 1159   0.464   1.743   2.185
  276SOL    HW1 1160   0.497   1.782   2.271
  276SOL    HW2 1161   0.540   1.736   2.120
  277SOL     OW 1162   1.400   0.107   2.288
  277SOL    HW1 1163   1.376   0.070   2.198
  277SOL    HW2 1164   1.499   0.123   2.292
  278SOL     OW 1165   0.249   1.785   3.103
  278SOL    HW1 1166   0.306   1.720   3.153
  278SOL    HW2 1167   0.233   1.752   3.010
  279SOL     OW 1168   0.940   1.698   2.766
  279SOL    HW1 1169   1.020   1.641   2.787
  279SOL    HW2 1170   0.891   1.658   2.689
  280SOL     OW 1171   0.382   0.700   2.342
  280SOL    HW1 1172   0.427   0.610   2.339
  280SOL    HW2 1173   0.288   0.689   2.375
  281SOL     OW 1174   1.547   0.222   3.591
  281SOL    HW1 1175   1.542   0.259   3.683
  281SOL    HW2 1176   1.475   0.153   3.579
  282SOL     OW 1177   0.614   0.122   1.979
  282SOL    HW1 1178   0.712   0.100   1.986
  282SOL    HW2 1179   0.583   0.105   1.886
  283SOL     OW 1180   0.781   0.264   3.611
  283SOL    HW1 1181   0.848   0.203   3.654
  283SOL    HW2 1182   0.708   0.283   3.676
  284SOL     OW 1183   0.888   1.514   3.057
  284SOL    HW1 1184   0.865   1.489   2.963
  284SOL    HW2 1185   0.949   1.445   3.096
  285SOL     OW 1186   1.351   0.590   3.295
  285SOL    HW1 1187   1.379   0.547   3.380
  285SOL    HW2 1188   1.376   0.686   3.296
  286SOL     OW 1189   0.803   1.402   2.786
  286SOL    HW1 1190   0.893   1.416   2.744
  286SOL    HW2 1191   0.732   1.404   2.715
  287SOL     OW 1192   0.922   0.503   2.761
  287SOL    HW1 1193   0.897   0.494   2.665
  287SOL    HW2 1194   0.970   0.421   2.792
  288SOL     OW 1195   0.539   0.064   2.374
  288SOL    HW1 1196   0.458   0.065   2.432
  288SOL    HW2 1197   0.542   0.147   2.319
  289SOL     OW 1198   1.434   1.188   1.903
  289SOL    HW1 1199   1.466   1.112   1.960
  289SOL    HW2 1200   1.342   1.215   1.933
  290SOL     OW 1201   0.297   0.035   2.033
  290SOL    HW1 1202   0.346   0.119   2.012
  290SOL    HW2 1203   0.359  -0.030   2.078
  291SOL     OW 1204   0.935   0.236   2.342
  291SOL    HW1 1205   0.887   0.277   2.264
  291SOL    HW2 1206   1.034   0.234   2.323
  292SOL     OW 1207   1.076   0.683   3.326
  292SOL    HW1 1208   0.996   0.622   3.329
  292SOL    HW2 1209   1.157   0.630   3.302
  293SOL     OW 1210   1.227   1.570   2.655
  293SOL    HW1 1211   1.248   1.644   2.590
  293SOL    HW2 1212   1.295   1.570   2.728
  294SOL     OW 1213   0.459   1.152   2.603
  294SOL    HW1 1214   0.388   1.125   2.668
  294SOL    HW2 1215   0.433   1.124   2.510
  295SOL     OW 1216   1.271   1.797   2.453
  295SOL    HW1 1217   1.315   1.861   2.389
  295SOL    HW2 1218   1.221   1.849   2.523
  296SOL     OW 1219   1.032   0.549   1.878
  296SOL    HW1 1220   0.991   0.631   1.839
  296SOL    HW2 1221   1.096   0.575   1.951
  297SOL     OW 1222   0.078   0.556   3.248
  297SOL    HW1 1223   0.170   0.555   3.207
  297SOL    HW2 1224   0.072   0.630   3.315
  298SOL     OW 1225   0.561   0.222   3.009
  298SOL    HW1 1226   0.599   0.138   3.046
  298SOL    HW2 1227   0.473   0.241   3.053
  299SOL     OW 1228   0.866   0.454   2.504
  299SOL    HW1 1229   0.834   0.526   2.442
  299SOL    HW2 1230   0.890   0.373   2.451
  300SOL     OW 1231   1.017   0.039   2.615
  300SOL    HW1 1232   0.945   0.044   2.546
  300SOL    HW2 1233   0.993  -0.030   2.684
  301SOL     OW 1234   1.429   1.173   2.729
  301SOL    HW1 1235   1.374   1.089   2.722
  301SOL    HW2 1236   1.455   1.202   2.637
  302SOL     OW 1237   1.466   0.590   2.854
  302SOL    HW1 1238   1.436   0.495   2.861
  302SOL    HW2 1239   1.539   0.606   2.920
  303SOL     OW 1240   1.857   0.833   2.239
  303SOL    HW1 1241   1.899   0.769   2.303
  303SOL    HW2 1242   1.819   0.782   2.161
  304SOL     OW 1243   0.488   1.385   2.036
  304SOL    HW1 1244   0.401   1.370   2.083
  304SOL    HW2 1245   0.471   1.411   1.941
  305SOL     OW 1246   1.664   1.280   2.519
  305SOL    HW1 1247   1.763   1.288   2.533
  305SOL    HW2 1248   1.619   1.364   2.550
  306SOL     OW 1249   1.390   0.575   1.940
  306SOL    HW1 1250   1.336   0.554   2.021
  306SOL    HW2 1251   1.481   0.534   1.949
  307SOL     OW 1252   0.527   0.256   2.190
  307SOL    HW1 1253   0.554   0.197   2.115
  307SOL    HW2 1254   0.527   0.351   2.159
  308SOL     OW 1255   1.754   1.223   3.450
  308SOL    HW1 1256   1.845   1.184   3.437
  308SOL    HW2 1257   1.762   1.319   3.474
  309SOL     OW 1258   1.064   1.347   3.202
  309SOL    HW1 1259   0.984   1.324   3.257
  309SOL    HW2 1260   1.147   1.321   3.251
  310SOL     OW 1261   1.592   1.629   3.487
  310SOL    HW1 1262   1.619   1.663   3.397
  310SOL    HW2 1263   1.671   1.591   3.533
  311SOL     OW 1264   1.111   1.195   2.962
  311SOL    HW1 1265   1.071   1.239   3.043
  311SOL    HW2 1266   1.070   1.232   2.879
  312SOL     OW 1267   1.638   1.099   2.941
  312SOL    HW1 1268   1.643   1.180   3.000
  312SOL    HW2 1269   1.552   1.101   2.890
  313SOL     OW 1270   0.915   0.089   3.264
  313SOL    HW1 1271   0.940   0.069   3.169
  313SOL    HW2 1272   0.987   0.145   3.306
  314SOL     OW 1273   0.980   1.116   3.581
  314SOL    HW1 1274   0.881   1.122   3.591
  314SOL    HW2 1275   1.003   1.036   3.525
  315SOL     OW 1276   0.705   1.050   2.230
  315SOL    HW1 1277   0.691   1.057   2.329
  315SOL    HW2 1278   0.789   0.999   2.212
  316SOL     OW 1279   0.410   0.813   3.113
  316SOL    HW1 1280   0.496   0.825   3.163
  316SOL    HW2 1281   0.368   0.726   3.140
  317SOL     OW 1282   1.274   0.386   3.124
  317SOL    HW1 1283   1.295   0.460   3.188
  317SOL    HW2 1284   1.185   0.403   3.081
  318SOL     OW 1285   0.064   1.564   3.193
  318SOL    HW1 1286   0.018   1.646   3.159
  318SOL    HW2 1287   0.162   1.583   3.202
  319SOL     OW 1288   0.367   1.100   2.363
  319SOL    HW1 1289   0.360   1.183   2.307
  319SOL    HW2 1290   0.371   1.020   2.303
  320SOL     OW 1291   0.566   0.537   2.727
  320SOL    HW1 1292   0.578   0.603   2.653
  320SOL    HW2 1293   0.612   0.571   2.810
  321SOL     OW 1294   1.252   1.348   2.250
  321SOL    HW1 1295   1.302   1.425   2.290
  321SOL    HW2 1296   1.157   1.350   2.282
  322SOL     OW 1297   1.272   1.445   3.004
  322SOL    HW1 1298   1.319   1.458   3.091
  322SOL    HW2 1299   1.206   1.371   3.013
  323SOL     OW 1300   1.582   0.639   2.334
  323SOL    HW1 1301   1.551   0.700   2.407
  323SOL    HW2 1302   1.632   0.691   2.265
  324SOL     OW 1303   0.354   1.510   3.191
  324SOL    HW1 1304   0.333   1.466   3.104
  324SOL    HW2 1305   0.451   1.536   3.194
  325SOL     OW 1306   0.402   0.751   3.460
  325SOL    HW1 1307   0.470   0.806   3.413
  325SOL    HW2 1308   0.442   0.663   3.487
  326SOL     OW 1309   1.587   0.779   3.532
  326SOL    HW1 1310   1.495   0.817   3.527
  326SOL    HW2 1311   1.647   0.826   3.467
  327SOL     OW 1312   1.013   0.105   3.632
  327SOL    HW1 1313   1.019   0.190   3.580
  327SOL    HW2 1314   1.045   0.029   3.575
  328SOL     OW 1315   0.504   0.050   3.602
  328SOL    HW1 1316   0.462  -0.007   3.532
  328SOL    HW2 1317   0.438   0.119   3.634
  329SOL     OW 1318   0.573   0.870   2.891
  329SOL    HW1 1319   0.617   0.959   2.882
  329SOL    HW2 1320   0.510   0.870   2.968
  330SOL     OW 1321   1.360   0.862   2.907
  330SOL    HW1 1322   1.285   0.862   2.841
  330SOL    HW2 1323   1.397   0.770   2.916
  331SOL     OW 1324   1.209   0.525   2.137
  331SOL    HW1 1325   1.222   0.441   2.191
  331SOL    HW2 1326   1.180   0.599   2.197
  332SOL     OW 1327   0.307   0.213   3.093
  332SOL    HW1 1328   0.284   0.250   3.183
  332SOL    HW2 1329   0.277   0.118   3.087
  333SOL     OW 1330   0.037   1.310   3.144
  333SOL    HW1 1331   0.090   1.261   3.212
  333SOL    HW2 1332   0.059   1.408   3.149
  334SOL     OW 1333   0.732   0.634   2.926
  334SOL    HW1 1334   0.791   0.608   2.850
  334SOL    HW2 1335   0.704   0.730   2.915
  335SOL     OW 1336   1.728   0.935   3.716
  335SOL    HW1 1337   1.682   0.928   3.627
  335SOL    HW2 1338   1.666   0.979   3.782
  336SOL     OW 1339   0.307   0.063   2.480
  336SOL    HW1 1340   0.296   0.157   2.513
  336SOL    HW2 1341   0.302   0.000   2.557
  337SOL     OW 1342   1.622   0.367   2.236
  337SOL    HW1 1343   1.624   0.291   2.300
  337SOL    HW2 1344   1.574   0.444   2.276
  338SOL     OW 1345   1.023   0.766   2.828
  338SOL    HW1 1346   1.038   0.787   2.924
  338SOL    HW2 1347   0.993   0.671   2.819
  339SOL     OW 1348   0.980   1.573   3.562
  339SOL    HW1 1349   0.960   1.617   3.474
  339SOL    HW2 1350   1.019   1.482   3.546
  340SOL     OW 1351   1.859   1.518   3.467
  340SOL    HW1 1352   1.873   1.545   3.372
  340SOL    HW2 1353   1.942   1.540   3.520
  341SOL     OW 1354   0.350   0.898   3.666
  341SOL    HW1 1355   0.426   0.942   3.714
  341SOL    HW2 1356   0.385   0.851   3.584
  342SOL     OW 1357   1.540   0.274   1.987
  342SOL    HW1 1358   1.479   0.199   2.010
  342SOL    HW2 1359   1.562   0.326   2.070
  343SOL     OW 1360   1.303   0.838   1.904
  343SOL    HW1 1361   1.337   0.745   1.919
  343SOL    HW2 1362   1.321   0.865   1.809
  344SOL     OW 1363   1.068   1.333   2.711
  344SOL    HW1 1364   1.075   1.249   2.656
  344SOL    HW2 1365   1.130   1.402   2.675
  345SOL     OW 1366   0.319   0.810   2.811
  345SOL    HW1 1367   0.412   0.846   2.816
  345SOL    HW2 1368   0.313   0.725   2.863
  346SOL     OW 1369   0.339   0.509   2.868
  346SOL    HW1 1370   0.287   0.426   2.851
  346SOL    HW2 1371   0.416   0.514   2.804
  347SOL     OW 1372   1.138   0.380   3.540
  347SOL    HW1 1373   1.093   0.443   3.604
  347SOL    HW2 1374   1.231   0.411   3.523
  348SOL     OW 1375   1.160   0.207   3.339
  348SOL    HW1 1376   1.160   0.271   3.416
  348SOL    HW2 1377   1.188   0.255   3.256
  349SOL     OW 1378   0.008   1.326   2.062
  349SOL    HW1 1379  -0.085   1.347   2.031
  349SOL    HW2 1380   0.018   1.227   2.075
  350SOL     OW 1381   0.088   1.801   2.789
  350SOL    HW1 1382   0.046   1.715   2.762
  350SOL    HW2 1383   0.182   1.804   2.755
  351SOL     OW 1384   0.504   1.568   2.772
  351SOL    HW1 1385   0.570   1.642   2.781
  351SOL    HW2 1386   0.548   1.489   2.730
  352SOL     OW 1387   1.002   0.796   3.100
  352SOL    HW1 1388   1.043   0.764   3.186
  352SOL    HW2 1389   0.906   0.769   3.097
  353SOL     OW 1390   0.040   0.544   2.976
  353SOL    HW1 1391   0.125   0.511   2.935
  353SOL    HW2 1392   0.053   0.559   3.074
  354SOL     OW 1393   0.189   0.520   3.584
  354SOL    HW1 1394   0.248   0.480   3.514
  354SOL    HW2 1395   0.131   0.591   3.543
  355SOL     OW 1396   1.369   0.950   3.522
  355SOL    HW1 1397   1.408   1.039   3.542
  355SOL    HW2 1398   1.379   0.930   3.425
  356SOL     OW 1399   0.815   0.572   2.187
  356SOL    HW1 1400   0.822   0.483   2.141
  356SOL    HW2 1401   0.721   0.606   2.179
  357SOL     OW 1402   1.657   0.604   3.068
  357SOL    HW1 1403   1.619   0.535   3.130
  357SOL    HW2 1404   1.739   0.568   3.024
  358SOL     OW 1405   0.252   1.564   3.606
  358SOL    HW1 1406   0.222   1.621   3.682
  358SOL    HW2 1407   0.245   1.467   3.632
  359SOL     OW 1408   0.671   0.464   3.131
  359SOL    HW1 1409   0.637   0.375   3.101
  359SOL    HW2 1410   0.697   0.518   3.051
  360SOL     OW 1411   0.930   1.678   3.327
  360SOL    HW1 1412   0.906   1.660   3.232
  360SOL    HW2 1413   0.960   1.772   3.337
  361SOL     OW 1414   0.473   0.500   2.053
  361SOL    HW1 1415   0.534   0.580   2.057
  361SOL    HW2 1416   0.378   0.531   2.060
  362SOL     OW 1417   0.159   1.137   3.328
  362SOL    HW1 1418   0.181   1.076   3.404
  362SOL    HW2 1419   0.169   1.088   3.242
  363SOL     OW 1420   1.347   1.059   3.096
  363SOL    HW1 1421   1.371   0.996   3.022
  363SOL    HW2 1422   1.257   1.099   3.078
  364SOL     OW 1423   1.302   0.855   2.171
  364SOL    HW1 1424   1.216   0.824   2.213
  364SOL    HW2 1425   1.298   0.841   2.072
  365SOL     OW 1426   1.759   1.747   3.016
  365SOL    HW1 1427   1.820   1.777   2.943
  365SOL    HW2 1428   1.721   1.658   2.994
  366SOL     OW 1429   1.252   1.731   2.990
  366SOL    HW1 1430   1.336   1.736   2.936
  366SOL    HW2 1431   1.229   1.635   3.008
  367SOL     OW 1432   0.083   1.258   2.884
  367SOL    HW1 1433   0.078   1.257   2.984
  367SOL    HW2 1434   0.000   1.217   2.846
  368SOL     OW 1435   0.688   1.662   3.578
  368SOL    HW1 1436   0.632   1.743   3.587
  368SOL    HW2 1437   0.740   1.666   3.492
  369SOL     OW 1438   1.726   0.135   2.385
  369SOL    HW1 1439   1.799   0.118   2.318
  369SOL    HW2 1440   1.695   0.048   2.423
  370SOL     OW 1441   1.388   1.573   2.339
  370SOL    HW1 1442   1.455   1.585   2.265
  370SOL    HW2 1443   1.348   1.662   2.362
  371SOL     OW 1444   0.130   1.794   3.713
  371SOL    HW1 1445   0.089   1.720   3.766
  371SOL    HW2 1446   0.194   1.845   3.771
  372SOL     OW 1447   1.280   0.927   2.534
  372SOL    HW1 1448   1.340   0.846   2.536
  372SOL    HW2 1449   1.320   0.996   2.474
  373SOL     OW 1450   0.830   1.273   3.284
  373SOL    HW1 1451   0.825   1.306   3.379
  373SOL    HW2 1452   0.744   1.292   3.238
  374SOL     OW 1453   0.672   1.616   2.016
  374SOL    HW1 1454   0.681   1.626   1.917
  374SOL    HW2 1455   0.632   1.527   2.037
  375SOL     OW 1456   1.650   1.720   3.256
  375SOL    HW1 1457   1.703   1.730   3.172
  375SOL    HW2 1458   1.623   1.810   3.290
  376SOL     OW 1459   1.841   0.175   2.825
  376SOL    HW1 1460   1.880   0.090   2.789
  376SOL    HW2 1461   1.743   0.177   2.806
  377SOL     OW 1462   0.263   0.326   2.582
  377SOL    HW1 1463   0.184   0.377   2.548
  377SOL    HW2 1464   0.254   0.311   2.680
  378SOL     OW 1465   1.194   1.612   1.893
  378SOL    HW1 1466   1.200   1.519   1.930
  378SOL    HW2 1467   1.135   1.612   1.813
  379SOL     OW 1468   0.822   1.002   3.234
  379SOL    HW1 1469   0.862   1.001   3.142
  379SOL    HW2 1470   0.832   1.094   3.274
  380SOL     OW 1471   0.916   0.910   2.153
  380SOL    HW1 1472   0.979   0.948   2.085
  380SOL    HW2 1473   0.956   0.827   2.192
  381SOL     OW 1474   1.504   1.607   1.906
  381SOL    HW1 1475   1.412   1.644   1.913
  381SOL    HW2 1476   1.542   1.627   1.816
  382SOL     OW 1477   0.372   1.288   3.352
  382SOL    HW1 1478   0.359   1.381   3.318
  382SOL    HW2 1479   0.288   1.236   3.339
  383SOL     OW 1480   1.614   1.292   3.151
  383SOL    HW1 1481   1.674   1.295   3.231
  383SOL    HW2 1482   1.539   1.356   3.164
  384SOL     OW 1483   1.039   1.098   2.558
  384SOL    HW1 1484   0.969   1.051   2.612
  384SOL    HW2 1485   1.098   1.030   2.515
  385SOL     OW 1486   1.014   0.236   2.833
  385SOL    HW1 1487   1.006   0.200   2.740
  385SOL    HW2 1488   1.012   0.160   2.898
  386SOL     OW 1489   0.590   1.487   2.353
  386SOL    HW1 1490   0.632   1.429   2.283
  386SOL    HW2 1491   0.546   1.566   2.309
  387SOL     OW 1492   1.709   0.385   3.243
  387SOL    HW1 1493   1.782   0.454   3.247
  387SOL    HW2 1494   1.737   0.310   3.184
  388SOL     OW 1495   0.255   1.348   2.152
  388SOL    HW1 1496   0.159   1.349   2.125
  388SOL    HW2 1497   0.267   1.401   2.236
  389SOL     OW 1498   0.105   1.013   3.588
  389SOL    HW1 1499   0.028   0.980   3.642
  389SOL    HW2 1500   0.190   0.983   3.630
  390SOL     OW 1501   0.672   0.203   3.351
  390SOL    HW1 1502   0.762   0.187   3.311
  390SOL    HW2 1503   0.680   0.208   3.450
  391SOL     OW 1504   0.075   0.345   1.895
  391SOL    HW1 1505  -0.017   0.317   1.866
  391SOL    HW2 1506   0.106   0.422   1.839
  392SOL     OW 1507   1.440   0.856   3.260
  392SOL    HW1 1508   1.383   0.908   3.197
  392SOL    HW2 1509   1.536   0.868   3.236
  393SOL     OW 1510   0.072   0.166   2.180
  393SOL    HW1 1511   0.055   0.249   2.126
  393SOL    HW2 1512   0.162   0.129   2.158
  394SOL     OW 1513   1.183   1.335   1.981
  394SOL    HW1 1514   1.084   1.324   1.983
  394SOL    HW2 1515   1.217   1.350   2.074
  395SOL     OW 1516   0.613   0.842   3.293
  395SOL    HW1 1517   0.669   0.923   3.276
  395SOL    HW2 1518   0.672   0.762   3.296
  396SOL     OW 1519   1.493   1.767   2.821
  396SOL    HW1 1520   1.526   1.831   2.752
  396SOL    HW2 1521   1.559   1.761   2.896
  397SOL     OW 1522   0.716   0.565   3.570
  397SOL    HW1 1523   0.735   0.630   3.644
  397SOL    HW2 1524   0.776   0.485   3.579
  398SOL     OW 1525   1.450   1.220   3.495
  398SOL    HW1 1526   1.441   1.210   3.594
  398SOL    HW2 1527   1.546   1.213   3.469
  399SOL     OW 1528   0.390   1.741   3.422
  399SOL    HW1 1529   0.299   1.782   3.420
  399SOL    HW2 1530   0.383   1.647   3.454
  400SOL     OW 1531   1.674   0.883   3.116
  400SOL    HW1 1532   1.647   0.794   3.079
  400SOL    HW2 1533   1.675   0.951   3.043
  401SOL     OW 1534   1.225   0.325   2.311
  401SOL    HW1 1535   1.290   0.251   2.300
  401SOL    HW2 1536   1.245   0.375   2.395
  402SOL     OW 1537   0.594   0.745   2.514
  402SOL    HW1 1538   0.644   0.830   2.495
  402SOL    HW2 1539   0.506   0.747   2.466
  403SOL     OW 1540   1.777   0.342   3.504
  403SOL    HW1 1541   1.760   0.373   3.410
  403SOL    HW2 1542   1.693   0.305   3.542
  404SOL     OW 1543   1.730   0.934   3.379
  404SOL    HW1 1544   1.768   1.025   3.394
  404SOL    HW2 1545   1.722   0.917   3.280
  405SOL     OW 1546   0.859   1.374   1.878
  405SOL    HW1 1547   0.813   1.389   1.966
  405SOL    HW2 1548   0.903   1.459   1.848
  406SOL     OW 1549   0.661   1.790   2.815
  406SOL    HW1 1550   0.615   1.878   2.802
  406SOL    HW2 1551   0.760   1.802   2.808
  407SOL     OW 1552   0.859   0.956   2.723
  407SOL    HW1 1553   0.913   0.887   2.771
  407SOL    HW2 1554   0.827   1.025   2.789
  408SOL     OW 1555   1.083   0.984   1.949
  408SOL    HW1 1556   1.060   1.037   1.867
  408SOL    HW2 1557   1.164   0.928   1.930
  409SOL     OW 1558   1.861   1.569   2.713
  409SOL    HW1 1559   1.790   1.557   2.643
  409SOL    HW2 1560   1.862   1.490   2.773
  410SOL     OW 1561   0.221   1.314   3.706
  410SOL    HW1 1562   0.156   1.241   3.685
  410SOL    HW2 1563   0.225   1.328   3.804
  411SOL     OW 1564   0.079   1.240   2.515
  411SOL    HW1 1565   0.078   1.193   2.603
  411SOL    HW2 1566   0.161   1.212   2.464
  412SOL     OW 1567   0.672   1.391   3.486
  412SOL    HW1 1568   0.594   1.341   3.524
  412SOL    HW2 1569   0.669   1.486   3.517
  413SOL     OW 1570   1.824   0.192   3.089
  413SOL    HW1 1571   1.820   0.102   3.133
  413SOL    HW2 1572   1.827   0.181   2.990
  414SOL     OW 1573   0.428   0.424   2.382
  414SOL    HW1 1574   0.458   0.352   2.320
  414SOL    HW2 1575   0.389   0.384   2.465
  415SOL     OW 1576   1.705   1.487   2.966
  415SOL    HW1 1577   1.612   1.462   2.939
  415SOL    HW2 1578   1.731   1.437   3.048
  416SOL     OW 1579   0.317   0.547   3.142
  416SOL    HW1 1580   0.355   0.488   3.214
  416SOL    HW2 1581   0.357   0.521   3.054
  417SOL     OW 1582   0.812   1.586   2.549
  417SOL    HW1 1583   0.844   1.596   2.455
  417SOL    HW2 1584   0.733   1.524   2.551
  418SOL     OW 1585   1.424   0.214   2.974
  418SOL    HW1 1586   1.476   0.149   3.029
  418SOL    HW2 1587   1.375   0.277   3.035
  419SOL     OW 1588   1.001   0.034   3.016
  419SOL    HW1 1589   0.938  -0.038   2.985
  419SOL    HW2 1590   1.094  -0.002   3.016
  420SOL     OW 1591   0.770   1.330   2.163
  420SOL    HW1 1592   0.724   1.243   2.180
  420SOL    HW2 1593   0.861   1.327   2.204
  421SOL     OW 1594   0.618   1.567   3.146
  421SOL    HW1 1595   0.613   1.649   3.203
  421SOL    HW2 1596   0.707   1.564   3.101
  422SOL     OW 1597   1.352   0.052   2.030
  422SOL    HW1 1598   1.387   0.011   1.946
  422SOL    HW2 1599   1.262   0.014   2.050
  423SOL     OW 1600   1.300   0.453   2.553
  423SOL    HW1 1601   1.241   0.533   2.557
  423SOL    HW2 1602   1.315   0.418   2.646
  424SOL     OW 1603   1.593   0.221   2.744
  424SOL    HW1 1604   1.509   0.220   2.798
  424SOL    HW2 1605   1.595   0.304   2.688
  425SOL     OW 1606   0.039   1.077   2.162
  425SOL    HW1 1607   0.138   1.066   2.153
  425SOL    HW2 1608  -0.001   0.991   2.194
  426SOL     OW 1609   0.875   1.646   2.199
  426SOL    HW1 1610   0.798   1.611   2.145
  426SOL    HW2 1611   0.843   1.717   2.261
  427SOL     OW 1612   0.230   0.628   3.837
  427SOL    HW1 1613   0.137   0.626   3.874
  427SOL    HW2 1614   0.231   0.589   3.745
  428SOL     OW 1615   0.225   0.275   4.720
  428SOL    HW1 1616   0.260   0.258   4.812
  428SOL    HW2 1617   0.137   0.230   4.708
  429SOL     OW 1618   0.019   0.368   4.371
  429SOL    HW1 1619  -0.063   0.411   4.410
  429SOL    HW2 1620  -0.009   0.295   4.308
  430SOL     OW 1621   0.569   1.275   4.889
  430SOL    HW1 1622   0.476   1.268   4.852
  430SOL    HW2 1623   0.580   1.364   4.933
  431SOL     OW 1624   1.555   1.511   4.427
  431SOL    HW1 1625   1.498   1.495   4.508
  431SOL    HW2 1626   1.496   1.521   4.347
  432SOL     OW 1627   1.135   0.703   4.441
  432SOL    HW1 1628   1.192   0.781   4.416
  432SOL    HW2 1629   1.075   0.729   4.517
  433SOL     OW 1630   1.755   0.607   3.955
  433SOL    HW1 1631   1.743   0.594   3.856
  433SOL    HW2 1632   1.725   0.526   4.004
  434SOL     OW 1633   0.768   1.144   4.747
  434SOL    HW1 1634   0.690   1.161   4.807
  434SOL    HW2 1635   0.802   1.231   4.711
  435SOL     OW 1636   0.850   0.798   5.547
  435SOL    HW1 1637   0.846   0.874   5.612
  435SOL    HW2 1638   0.872   0.834   5.456
  436SOL     OW 1639   0.685   1.012   4.389
  436SOL    HW1 1640   0.754   0.996   4.459
  436SOL    HW2 1641   0.612   1.069   4.427
  437SOL     OW 1642   0.686   1.161   5.527
  437SOL    HW1 1643   0.746   1.240   5.541
  437SOL    HW2 1644   0.600   1.192   5.486
  438SOL     OW 1645   0.335   1.435   4.785
  438SOL    HW1 1646   0.257   1.404   4.732
  438SOL    HW2 1647   0.393   1.493   4.728
  439SOL     OW 1648   1.460   1.505   5.063
  439SOL    HW1 1649   1.484   1.599   5.089
  439SOL    HW2 1650   1.444   1.451   5.145
  440SOL     OW 1651   0.438   0.392   5.223
  440SOL    HW1 1652   0.520   0.336   5.232
  440SOL    HW2 1653   0.357   0.334   5.227
  441SOL     OW 1654   1.603   0.447   4.461
  441SOL    HW1 1655   1.529   0.493   4.411
  441SOL    HW2 1656   1.654   0.515   4.514
  442SOL     OW 1657   0.231   1.713   4.207
  442SOL    HW1 1658   0.265   1.790   4.261
  442SOL    HW2 1659   0.275   1.713   4.117
  443SOL     OW 1660   1.127   1.341   5.414
  443SOL    HW1 1661   1.174   1.341   5.502
  443SOL    HW2 1662   1.079   1.254   5.403
  444SOL     OW 1663   0.230   1.434   4.262
  444SOL    HW1 1664   0.204   1.530   4.262
  444SOL    HW2 1665   0.159   1.380   4.307
  445SOL     OW 1666   0.240   1.091   4.610
  445SOL    HW1 1667   0.254   1.007   4.662
  445SOL    HW2 1668   0.185   1.155   4.665
  446SOL     OW 1669   0.620   1.786   5.163
  446SOL    HW1 1670   0.528   1.769   5.198
  446SOL    HW2 1671   0.648   1.878   5.189
  447SOL     OW 1672   0.606   0.964   3.847
  447SOL    HW1 1673   0.613   1.048   3.793
  447SOL    HW2 1674   0.652   0.977   3.935
  448SOL     OW 1675   1.594   0.114   5.204
  448SOL    HW1 1676   1.576   0.181   5.132
  448SOL    HW2 1677   1.591   0.160   5.293
  449SOL     OW 1678   0.122   0.643   4.287
  449SOL    HW1 1679   0.077   0.555   4.304
  449SOL    HW2 1680   0.121   0.697   4.371
  450SOL     OW 1681   1.842   1.767   4.083
  450SOL    HW1 1682   1.896   1.738   4.163
  450SOL    HW2 1683   1.872   1.857   4.054
  451SOL     OW 1684   0.027   1.596   3.841
  451SOL    HW1 1685   0.008   1.500   3.862
  451SOL    HW2 1686  -0.006   1.654   3.916
  452SOL     OW 1687   1.689   0.922   4.336
  452SOL    HW1 1688   1.784   0.893   4.344
  452SOL    HW2 1689   1.681   0.987   4.261
  453SOL     OW 1690   1.641   1.108   4.156
  453SOL    HW1 1691   1.727   1.110   4.104
  453SOL    HW2 1692   1.655   1.155   4.244
  454SOL     OW 1693   0.113   0.737   5.321
  454SOL    HW1 1694   0.201   0.724   5.366
  454SOL    HW2 1695   0.100   0.834   5.299
  455SOL     OW 1696   0.613   1.365   4.450
  455SOL    HW1 1697   0.564   1.278   4.459
  455SOL    HW2 1698   0.590   1.408   4.363
  456SOL     OW 1699   1.293   1.228   5.147
  456SOL    HW1 1700   1.330   1.155   5.089
  456SOL    HW2 1701   1.345   1.233   5.232
  457SOL     OW 1702   0.809   0.004   4.226
  457SOL    HW1 1703   0.849   0.095   4.217
  457SOL    HW2 1704   0.709   0.012   4.232
  458SOL     OW 1705   0.197   0.976   4.988
  458SOL    HW1 1706   0.286   0.931   4.974
  458SOL    HW2 1707   0.124   0.911   4.969
  459SOL     OW 1708   1.525   0.999   3.914
  459SOL    HW1 1709   1.462   0.923   3.927
  459SOL    HW2 1710   1.573   1.017   4.000
  460SOL     OW 1711   1.187   1.792   5.340
  460SOL    HW1 1712   1.211   1.852   5.264
  460SOL    HW2 1713   1.194   1.697   5.310
  461SOL     OW 1714   0.317   0.251   5.525
  461SOL    HW1 1715   0.388   0.322   5.531
  461SOL    HW2 1716   0.229   0.290   5.553
  462SOL     OW 1717   1.466   1.417   4.677
  462SOL    HW1 1718   1.407   1.423   4.757
  462SOL    HW2 1719   1.451   1.329   4.631
  463SOL     OW 1720   1.667   1.714   4.296
  463SOL    HW1 1721   1.626   1.691   4.208
  463SOL    HW2 1722   1.649   1.640   4.361
  464SOL     OW 1723   0.598   0.729   3.994
  464SOL    HW1 1724   0.622   0.798   3.926
  464SOL    HW2 1725   0.520   0.762   4.048
  465SOL     OW 1726   1.281   0.345   4.668
  465SOL    HW1 1727   1.195   0.295   4.655
  465SOL    HW2 1728   1.343   0.291   4.724
  466SOL     OW 1729   1.576   1.662   4.031
  466SOL    HW1 1730   1.665   1.708   4.034
  466SOL    HW2 1731   1.555   1.638   3.936
  467SOL     OW 1732   0.807   0.605   5.189
  467SOL    HW1 1733   0.760   0.602   5.278
  467SOL    HW2 1734   0.756   0.550   5.123
  468SOL     OW 1735   1.394   0.469   5.398
  468SOL    HW1 1736   1.374   0.512   5.486
  468SOL    HW2 1737   1.472   0.407   5.407
  469SOL     OW 1738   0.973   0.890   5.296
  469SOL    HW1 1739   1.019   0.806   5.267
  469SOL    HW2 1740   0.917   0.924   5.221
  470SOL     OW 1741   0.991   0.410   4.966
  470SOL    HW1 1742   0.914   0.444   5.020
  470SOL    HW2 1743   0.957   0.359   4.887
  471SOL     OW 1744   1.041   0.701   4.153
  471SOL    HW1 1745   1.067   0.697   4.249
  471SOL    HW2 1746   0.956   0.650   4.139
  472SOL     OW 1747   0.076   0.811   4.513
  472SOL    HW1 1748   0.175   0.799   4.522
  472SOL    HW2 1749   0.052   0.906   4.534
  473SOL     OW 1750   0.130   1.821   5.295
  473SOL    HW1 1751   0.120   1.806   5.394
  473SOL    HW2 1752   0.044   1.857   5.259
  474SOL     OW 1753   0.865   0.348   3.919
  474SOL    HW1 1754   0.924   0.411   3.870
  474SOL    HW2 1755   0.884   0.254   3.890
  475SOL     OW 1756   1.719   0.585   5.555
  475SOL    HW1 1757   1.693   0.674   5.519
  475SOL    HW2 1758   1.717   0.517   5.482
  476SOL     OW 1759   1.362   1.144   4.269
  476SOL    HW1 1760   1.445   1.115   4.221
  476SOL    HW2 1761   1.313   1.211   4.213
  477SOL     OW 1762   0.550   0.196   4.609
  477SOL    HW1 1763   0.545   0.191   4.709
  477SOL    HW2 1764   0.552   0.292   4.580
  478SOL     OW 1765   1.008   1.456   4.201
  478SOL    HW1 1766   0.962   1.528   4.149
  478SOL    HW2 1767   1.004   1.476   4.299
  479SOL     OW 1768   0.351   1.801   4.577
  479SOL    HW1 1769   0.401   1.715   4.583
  479SOL    HW2 1770   0.416   1.878   4.574
  480SOL     OW 1771   1.795   1.066   4.597
  480SOL    HW1 1772   1.733   1.051   4.521
  480SOL    HW2 1773   1.743   1.077   4.682
  481SOL     OW 1774   1.227   1.550   5.230
  481SOL    HW1 1775   1.233   1.473   5.294
  481SOL    HW2 1776   1.175   1.524   5.150
  482SOL     OW 1777   0.321   0.943   3.966
  482SOL    HW1 1778   0.403   0.982   3.924
  482SOL    HW2 1779   0.294   0.861   3.917
  483SOL     OW 1780   1.458   0.735   4.452
  483SOL    HW1 1781   1.453   0.670   4.527
  483SOL    HW2 1782   1.538   0.794   4.465
  484SOL     OW 1783   0.461   1.266   5.451
  484SOL    HW1 1784   0.411   1.267   5.365
  484SOL    HW2 1785   0.398   1.248   5.527
  485SOL     OW 1786   1.111   1.776   3.961
  485SOL    HW1 1787   1.051   1.714   4.011
  485SOL    HW2 1788   1.142   1.732   3.876
  486SOL     OW 1789   0.202   0.285   5.222
  486SOL    HW1 1790   0.122   0.345   5.209
  486SOL    HW2 1791   0.192   0.236   5.308
  487SOL     OW 1792   1.632   1.377   3.805
  487SOL    HW1 1793   1.600   1.471   3.795
  487SOL    HW2 1794   1.556   1.314   3.793
  488SOL     OW 1795   0.464   1.743   4.047
  488SOL    HW1 1796   0.497   1.782   4.133
  488SOL    HW2 1797   0.540   1.736   3.982
  489SOL     OW 1798   1.400   0.107   4.150
  489SOL    HW1 1799   1.376   0.070   4.060
  489SOL    HW2 1800   1.499   0.123   4.154
  490SOL     OW 1801   0.249   1.785   4.965
  490SOL    HW1 1802   0.306   1.720   5.015
  490SOL    HW2 1803   0.233   1.752   4.872
  491SOL     OW 1804   0.940   1.698   4.628
  491SOL    HW1 1805   1.020   1.641   4.649
  491SOL    HW2 1806   0.891   1.658   4.551
  492SOL     OW 1807   0.382   0.700   4.204
  492SOL    HW1 1808   0.427   0.610   4.201
  492SOL    HW2 1809   0.288   0.689   4.237
  493SOL     OW 1810   1.547   0.222   5.453
  493SOL    HW1 1811   1.542   0.259   5.545
  493SOL    HW2 1812   1.475   0.153   5.441
  494SOL     OW 1813   0.614   0.122   3.841
  494SOL    HW1 1814   0.712   0.100   3.848
  494SOL    HW2 1815   0.583   0.105   3.748
  495SOL     OW 1816   0.781   0.264   5.473
  495SOL    HW1 1817   0.848   0.203   5.516
  495SOL    HW2 1818   0.708   0.283   5.538
  496SOL     OW 1819   0.888   1.514   4.919
  496SOL    HW1 1820   0.865   1.489   4.825
  496SOL    HW2 1821   0.949   1.445   4.958
  497SOL     OW 1822   1.351   0.590   5.157
  497SOL    HW1 1823   1.379   0.547   5.242
  497SOL    HW2 1824   1.376   0.686   5.158
  498SOL     OW 1825   0.803   1.402   4.648
  498SOL    HW1 1826   0.893   1.416   4.606
  498SOL    HW2 1827   0.732   1.404   4.577
  499SOL     OW 1828   0.922   0.503   4.623
  499SOL    HW1 1829   0.897   0.494   4.527
  499SOL    HW2 1830   0.970   0.421   4.654
  500SOL     OW 1831   0.539   0.064   4.236
  500SOL    HW1 1832   0.458   0.065   4.294
  500SOL    HW2 1833   0.542   0.147   4.181
  501SOL     OW 1834   1.434   1.188   3.765
  501SOL    HW1 1835   1.466   1.112   3.822
  501SOL    HW2 1836   1.342   1.215   3.795
  502SOL     OW 1837   0.297   0.035   3.895
  502SOL    HW1 1838   0.346   0.119   3.874
  502SOL    HW2 1839   0.359  -0.030   3.940
  503SOL     OW 1840   0.935   0.236   4.204
  503SOL    HW1 1841   0.887   0.277   4.126
  503SOL    HW2 1842   1.034   0.234   4.185
  504SOL     OW 1843   1.076   0.683   5.188
  504SOL    HW1 1844   0.996   0.622   5.191
  504SOL    HW2 1845   1.157   0.630   5.164
  505SOL     OW 1846   1.227   1.570   4.517
  505SOL    HW1 1847   1.248   1.644   4.452
  505SOL    HW2 1848   1.295   1.570   4.590
  506SOL     OW 1849   0.459   1.152   4.465
  506SOL    HW1 1850   0.388   1.125   4.530
  506SOL    HW2 1851   0.433   1.124   4.372
  507SOL     OW 1852   1.271   1.797   4.315
  507SOL    HW1 1853   1.315   1.861   4.251
  507SOL    HW2 1854   1.221   1.849   4.385
  508SOL     OW 1855   1.032   0.549   3.740
  508SOL    HW1 1856   0.991   0.631   3.701
  508SOL    HW2 1857   1.096   0.575   3.813
  509SOL     OW 1858   0.078   0.556   5.110
  509SOL    HW1 1859   0.170   0.555   5.069
  509SOL    HW2 1860   0.072   0.630   5.177
  510SOL     OW 1861   0.561   0.222   4.871
  510SOL    HW1 1862   0.599   0.138   4.908
  510SOL    HW2 1863   0.473   0.241   4.915
  511SOL     OW 1864   0.866   0.454   4.366
  511SOL    HW1 1865   0.834   0.526   4.304
  511SOL    HW2 1866   0.890   0.373   4.313
  512SOL     OW 1867   1.017   0.039   4.477
  512SOL    HW1 1868   0.945   0.044   4.408
  512SOL    HW2 1869   0.993  -0.030   4.546
  513SOL     OW 1870   1.429   1.173   4.591
  513SOL    HW1 1871   1.374   1.089   4.584
  513SOL    HW2 1872   1.455   1.202   4.499
  514SOL     OW 1873   1.466   0.590   4.716
  514SOL    HW1 1874   1.436   0.495   4.723
  514SOL    HW2 1875   1.539   0.606   4.782
  515SOL     OW 1876   1.857   0.833   4.101
  515SOL    HW1 1877   1.899   0.769   4.165
  515SOL    HW2 1878   1.819   0.782   4.023
  516SOL     OW 1879   0.488   1.385   3.898
  516SOL    HW1 1880   0.401   1.370   3.945
  516SOL    HW2 1881   0.471   1.411   3.803
  517SOL     OW 1882   1.664   1.280   4.381
  517SOL    HW1 1883   1.763   1.288   4.395
  517SOL    HW2 1884   1.619   1.364   4.412
  518SOL     OW 1885   1.390   0.575   3.802
  518SOL    HW1 1886   1.336   0.554   3.883
  518SOL    HW2 1887   1.481   0.534   3.811
  519SOL     OW 1888   0.527   0.256   4.052
  519SOL    HW1 1889   0.554   0.197   3.977
  519SOL    HW2 1890   0.527   0.351   4.021
  520SOL     OW 1891   1.754   1.223   5.312
  520SOL    HW1 1892   1.845   1.184   5.299
  520SOL    HW2 1893   1.762   1.319   5.336
  521SOL     OW 1894   1.064   1.347   5.064
  521SOL    HW1 1895   0.984   1.324   5.119
  521SOL    HW2 1896   1.147   1.321   5.113
  522SOL     OW 1897   1.592   1.629   5.349
  522SOL    HW1 1898   1.619   1.663   5.259
  522SOL    HW2 1899   1.671   1.591   5.395
  523SOL     OW 1900   1.111   1.195   4.824
  523SOL    HW1 1901   1.071   1.239   4.905
  523SOL    HW2 1902   1.070   1.232   4.741
  524SOL     OW 1903   1.638   1.099   4.803
  524SOL    HW1 1904   1.643   1.180   4.862
  524SOL    HW2 1905   1.552   1.101   4.752
  525SOL     OW 1906   0.915   0.089   5.126
  525SOL    HW1 1907   0.940   0.069   5.031
  525SOL    HW2 1908   0.987   0.145   5.168
  526SOL     OW 1909   0.980   1.116   5.443
  526SOL    HW1 1910   0.881   1.122   5.453
  526SOL    HW2 1911   1.003   1.036   5.387
  527SOL     OW 1912   0.705   1.050   4.092
  527SOL    HW1 1913   0.691   1.057   4.191
  527SOL    HW2 1914   0.789   0.999   4.074
  528SOL     OW 1915   0.410   0.813   4.975
  528SOL    HW1 1916   0.496   0.825   5.025
  528SOL    HW2 1917   0.368   0.726   5.002
  529SOL     OW 1918   1.274   0.386   4.986
  529SOL    HW1 1919   1.295   0.460   5.050
  529SOL    HW2 1920   1.185   0.403   4.943
  530SOL     OW 1921   0.064   1.564   5.055
  530SOL    HW1 1922   0.018   1.646   5.021
  530SOL    HW2 1923   0.162   1.583   5.064
  531SOL     OW 1924   0.367   1.100   4.225
  531SOL    HW1 1925   0.360   1.183   4.169
  531SOL    HW2 1926   0.371   1.020   4.165
  532SOL     OW 1927   0.566   0.537   4.589
  532SOL    HW1 1928   0.578   0.603   4.515
  532SOL    HW2 1929   0.612   0.571   4.672
  533SOL     OW 1930   1.252   1.348   4.112
  533SOL    HW1 1931   1.302   1.425   4.152
  533SOL    HW2 1932   1.157   1.350   4.144
  534SOL     OW 1933   1.272   1.445   4.866
  534SOL    HW1 1934   1.319   1.458   4.953
  534SOL    HW2 1935   1.206   1.371   4.875
  535SOL     OW 1936   1.582   0.639   4.196
  535SOL    HW1 1937   1.551   0.700   4.269
  535SOL    HW2 1938   1.632   0.691   4.127
  536SOL     OW 1939   0.354   1.510   5.053
  536SOL    HW1 1940   0.333   1.466   4.966
  536SOL    HW2 1941   0.451   1.536   5.056
  537SOL     OW 1942   0.402   0.751   5.322
  537SOL    HW1 1943   0.470   0.806   5.275
  537SOL    HW2 1944   0.442   0.663   5.349
  538SOL     OW 1945   1.587   0.779   5.394
  538SOL    HW1 1946   1.495   0.817   5.389
  538SOL    HW2 1947   1.647   0.826   5.329
  539SOL     OW 1948   1.013   0.105   5.494
  539SOL    HW1 1949   1.019   0.190   5.442
  539SOL    HW2 1950   1.045   0.029   5.437
  540SOL     OW 1951   0.504   0.050   5.464
  540SOL    HW1 1952   0.462  -0.007   5.394
  540SOL    HW2 1953   0.438   0.119   5.496
  541SOL     OW 1954   0.573   0.870   4.753
  541SOL    HW1 1955   0.617   0.959   4.744
  541SOL    HW2 1956   0.510   0.870   4.830
  542SOL     OW 1957   1.360   0.862   4.769
  542SOL    HW1 1958   1.285   0.862   4.703
  542SOL    HW2 1959   1.397   0.770   4.778
  543SOL     OW 1960   1.209   0.525   3.999
  543SOL    HW1 1961   1.222   0.441   4.053
  543SOL    HW2 1962   1.180   0.599   4.059
  544SOL     OW 1963   0.307   0.213   4.955
  544SOL    HW1 1964   0.284   0.250   5.045
  544SOL    HW2 1965   0.277   0.118   4.949
  545SOL     OW 1966   0.037   1.310   5.006
  545SOL    HW1 1967   0.090   1.261   5.074
  545SOL    HW2 1968   0.059   1.408   5.011
  546SOL     OW 1969   0.732   0.634   4.788
  546SOL    HW1 1970   0.791   0.608   4.712
  546SOL    HW2 1971   0.704   0.730   4.777
  547SOL     OW 1972   1.728   0.935   5.578
  547SOL    HW1 1973   1.682   0.928   5.489
  547SOL    HW2 1974   1.666   0.979   5.644
  548SOL     OW 1975   0.307   0.063   4.342
  548SOL    HW1 1976   0.296   0.157   4.375
  548SOL    HW2 1977   0.302   0.000   4.419
  549SOL     OW 1978   1.622   0.367   4.098
  549SOL    HW1 1979   1.624   0.291   4.162
  549SOL    HW2 1980   1.574   0.444   4.138
  550SOL     OW 1981   1.023   0.766   4.690
  550SOL    HW1 1982   1.038   0.787   4.786
  550SOL    HW2 1983   0.993   0.671   4.681
  551SOL     OW 1984   0.980   1.573   5.424
  551SOL    HW1 1985   0.960   1.617   5.336
  551SOL    HW2 1986   1.019   1.482   5.408
  552SOL     OW 1987   1.859   1.518   5.329
  552SOL    HW1 1988   1.873   1.545   5.234
  552SOL    HW2 1989   1.942   1.540   5.382
  553SOL     OW 1990   0.350   0.898   5.528
  553SOL    HW1 1991   0.426   0.942   5.576
  553SOL    HW2 1992   0.385   0.851   5.446
  554SOL     OW 1993   1.540   0.274   3.849
  554SOL    HW1 1994   1.479   0.199   3.872
  554SOL    HW2 1995   1.562   0.326   3.932
  555SOL     OW 1996   1.303   0.838   3.766
  555SOL    HW1 1997   1.337   0.745   3.781
  555SOL    HW2 1998   1.321   0.865   3.671
  556SOL     OW 1999   1.068   1.333   4.573
  556SOL    HW1 2000   1.075   1.249   4.518
  556SOL    HW2 2001   1.130   1.402   4.537
  557SOL     OW 2002   0.319   0.810   4.673
  557SOL    HW1 2003   0.412   0.846   4.678
  557SOL    HW2 2004   0.313   0.725   4.725
  558SOL     OW 2005   0.339   0.509   4.730
  558SOL    HW1 2006   0.287   0.426   4.713
  558SOL    HW2 2007   0.416   0.514   4.666
  559SOL     OW 2008   1.138   0.380   5.402
  559SOL    HW1 2009   1.093   0.443   5.466
  559SOL    HW2 2010   1.231   0.411   5.385
  560SOL     OW 2011   1.160   0.207   5.201
  560SOL    HW1 2012   1.160   0.271   5.278
  560SOL    HW2 2013   1.188   0.255   5.118
  561SOL     OW 2014   0.008   1.326   3.924
  561SOL    HW1 2015  -0.085   1.347   3.893
  561SOL    HW2 2016   0.018   1.227   3.937
  562SOL     OW 2017   0.088   1.801   4.651
  562SOL    HW1 2018   0.046   1.715   4.624
  562SOL    HW2 2019   0.182   1.804   4.617
  563SOL     OW 2020   0.504   1.568   4.634
  563SOL    HW1 2021   0.570   1.642   4.643
  563SOL    HW2 2022   0.548   1.489   4.592
  564SOL     OW 2023   1.002   0.796   4.962
  564SOL    HW1 2024   1.043   0.764   5.048
  564SOL    HW2 2025   0.906   0.769   4.959
  565SOL     OW 2026   0.040   0.544   4.838
  565SOL    HW1 2027   0.125   0.511   4.797
  565SOL    HW2 2028   0.053   0.559   4.936
  566SOL     OW 2029   0.189   0.520   5.446
  566SOL    HW1 2030   0.248   0.480   5.376
  566SOL    HW2 2031   0.131   0.591   5.405
  567SOL     OW 2032   1.369   0.950   5.384
  567SOL    HW1 2033   1.408   1.039   5.404
  567SOL    HW2 2034   1.379   0.930   5.287
  568SOL     OW 2035   0.815   0.572   4.049
  568SOL    HW1 2036   0.822   0.483   4.003
  568SOL    HW2 2037   0.721   0.606   4.041
  569SOL     OW 2038   1.657   0.604   4.930
  569SOL    HW1 2039   1.619   0.535   4.992
  569SOL    HW2 2040   1.739   0.568   4.886
  570SOL     OW 2041   0.252   1.564   5.468
  570SOL    HW1 2042   0.222   1.621   5.544
  570SOL    HW2 2043   0.245   1.467   5.494
  571SOL     OW 2044   0.671   0.464   4.993
  571SOL    HW1 2045   0.637   0.375   4.963
  571SOL    HW2 2046   0.697   0.518   4.913
  572SOL     OW 2047   0.930   1.678   5.189
  572SOL    HW1 2048   0.906   1.660   5.094
  572SOL    HW2 2049   0.960   1.772   5.199
  573SOL     OW 2050   0.473   0.500   3.915
  573SOL    HW1 2051   0.534   0.580   3.919
  573SOL    HW2 2052   0.378   0.531   3.922
  574SOL     OW 2053   0.159   1.137   5.190
  574SOL    HW1 2054   0.181   1.076   5.266
  574SOL    HW2 2055   0.169   1.088   5.104
  575SOL     OW 2056   1.347   1.059   4.958
  575SOL    HW1 2057   1.371   0.996   4.884
  575SOL    HW2 2058   1.257   1.099   4.940
  576SOL     OW 2059   1.302   0.855   4.033
  576SOL    HW1 2060   1.216   0.824   4.075
  576SOL    HW2 2061   1.298   0.841   3.934
  577SOL     OW 2062   1.759   1.747   4.878
  577SOL    HW1 2063   1.820   1.777   4.805
  577SOL    HW2 2064   1.721   1.658   4.856
  578SOL     OW 2065   1.252   1.731   4.852
  578SOL    HW1 2066   1.336   1.736   4.798
  578SOL    HW2 2067   1.229   1.635   4.870
  579SOL     OW 2068   0.083   1.258   4.746
  579SOL    HW1 2069   0.078   1.257   4.846
  579SOL    HW2 2070   0.000   1.217   4.708
  580SOL     OW 2071   0.688   1.662   5.440
  580SOL    HW1 2072   0.632   1.743   5.449
  580SOL    HW2 2073   0.740   1.666   5.354
  581SOL     OW 2074   1.726   0.135   4.247
  581SOL    HW1 2075   1.799   0.118   4.180
  581SOL    HW2 2076   1.695   0.048   4.285
  582SOL     OW 2077   1.388   1.573   4.201
  582SOL    HW1 2078   1.455   1.585   4.127
  582SOL    HW2 2079   1.348   1.662   4.224
  583SOL     OW 2080   0.130   1.794   5.575
  583SOL    HW1 2081   0.089   1.720   5.628
  583SOL    HW2 2082   0.194   1.845   5.633
  584SOL     OW 2083   1.280   0.927   4.396
  584SOL    HW1 2084   1.340   0.846   4.398
  584SOL    HW2 2085   1.320   0.996   4.336
  585SOL     OW 2086   0.830   1.273   5.146
  585SOL    HW1 2087   0.825   1.306   5.241
  585SOL    HW2 2088   0.744   1.292   5.100
  586SOL     OW 2089   0.672   1.616   3.878
  586SOL    HW1 2090   0.681   1.626   3.779
  586SOL    HW2 2091   0.632   1.527   3.899
  587SOL     OW 2092   1.650   1.720   5.118
  587SOL    HW1 2093   1.703   1.730   5.034
  587SOL    HW2 2094   1.623   1.810   5.152
  588SOL     OW 2095   1.841   0.175   4.687
  588SOL    HW1 2096   1.880   0.090   4.651
  588SOL    HW2 2097   1.743   0.177   4.668
  589SOL     OW 2098   0.263   0.326   4.444
  589SOL    HW1 2099   0.184   0.377   4.410
  589SOL    HW2 2100   0.254   0.311   4.542
  590SOL     OW 2101   1.194   1.612   3.755
  590SOL    HW1 2102   1.200   1.519   3.792
  590SOL    HW2 2103   1.135   1.612   3.675
  591SOL     OW 2104   0.822   1.002   5.096
  591SOL    HW1 2105   0.862   1.001   5.004
  591SOL    HW2 2106   0.832   1.094   5.136
  592SOL     OW 2107   0.916   0.910   4.015
  592SOL    HW1 2108   0.979   0.948   3.947
  592SOL    HW2 2109   0.956   0.827   4.054
  593SOL     OW 2110   1.504   1.607   3.768
  593SOL    HW1 2111   1.412   1.644   3.775
  593SOL    HW2 2112   1.542   1.627   3.678
  594SOL     OW 2113   0.372   1.288   5.214
  594SOL    HW1 2114   0.359   1.381   5.180
  594SOL    HW2 2115   0.288   1.236   5.201
  595SOL     OW 2116   1.614   1.292   5.013
  595SOL    HW1 2117   1.674   1.295   5.093
  595SOL    HW2 2118   1.539   1.356   5.026
  596SOL     OW 2119   1.039   1.098   4.420
  596SOL    HW1 2120   0.969   1.051   4.474
  596SOL    HW2 2121   1.098   1.030   4.377
  597SOL     OW 2122   1.014   0.236   4.695
  597SOL    HW1 2123   1.006   0.200   4.602
  597SOL    HW2 2124   1.012   0.160   4.760
  598SOL     OW 2125   0.590   1.487   4.215
  598SOL    HW1 2126   0.632   1.429   4.145
  598SOL    HW2 2127   0.546   1.566   4.171
  599SOL     OW 2128   1.709   0.385   5.105
  599SOL    HW1 2129   1.782   0.454   5.109
  599SOL    HW2 2130   1.737   0.310   5.046
  600SOL     OW 2131   0.255   1.348   4.014
  600SOL    HW1 2132   0.159   1.349   3.987
  600SOL    HW2 2133   0.267   1.401   4.098
  601SOL     OW 2134   0.105   1.013   5.450
  601SOL    HW1 2135   0.028   0.980   5.504
  601SOL    HW2 2136   0.190   0.983   5.492
  602SOL     OW 2137   0.672   0.203   5.213
  602SOL    HW1 2138   0.762   0.187   5.173
  602SOL    HW2 2139   0.680   0.208   5.312
  603SOL     OW 2140   0.075   0.345   3.757
  603SOL    HW1 2141  -0.017   0.317   3.728
  603SOL    HW2 2142   0.106   0.422   3.701
  604SOL     OW 2143   1.440   0.856   5.122
  604SOL    HW1 2144   1.383   0.908   5.059
  604SOL    HW2 2145   1.536   0.868   5.098
  605SOL     OW 2146   0.072   0.166   4.042
  605SOL    HW1 2147   0.055   0.249   3.988
  605SOL    HW2 2148   0.162   0.129   4.020
  606SOL     OW 2149   1.183   1.335   3.843
  606SOL    HW1 2150   1.084   1.324   3.845
  606SOL    HW2 2151   1.217   1.350   3.936
  607SOL     OW 2152   0.613   0.842   5.155
  607SOL    HW1 2153   0.669   0.923   5.138
  607SOL    HW2 2154   0.672   0.762   5.158
  608SOL     OW 2155   1.493   1.767   4.683
  608SOL    HW1 2156   1.526   1.831   4.614
  608SOL    HW2 2157   1.559   1.761   4.758
  609SOL     OW 2158   0.716   0.565   5.432
  609SOL    HW1 2159   0.735   0.630   5.506
  609SOL    HW2 2160   0.776   0.485   5.441
  610SOL     OW 2161   1.450   1.220   5.357
  610SOL    HW1 2162   1.441   1.210   5.456
  610SOL    HW2 2163   1.546   1.213   5.331
  611SOL     OW 2164   0.390   1.741   5.284
  611SOL    HW1 2165   0.299   1.782   5.282
  611SOL    HW2 2166   0.383   1.647   5.316
  612SOL     OW 2167   1.674   0.883   4.978
  612SOL    HW1 2168   1.647   0.794   4.941
  612SOL    HW2 2169   1.675   0.951   4.905
  613SOL     OW 2170   1.225   0.325   4.173
  613SOL    HW1 2171   1.290   0.251   4.162
  613SOL    HW2 2172   1.245   0.375   4.257
  614SOL     OW 2173   0.594   0.745   4.376
  614SOL    HW1 2174   0.644   0.830   4.357
  614SOL    HW2 2175   0.506   0.747   4.328
  615SOL     OW 2176   1.777   0.342   5.366
  615SOL    HW1 2177   1.760   0.373   5.272
  615SOL    HW2 2178   1.693   0.305   5.404
  616SOL     OW 2179   1.730   0.934   5.241
  616SOL    HW1 2180   1.768   1.025   5.256
  616SOL    HW2 2181   1.722   0.917   5.142
  617SOL     OW 2182   0.859   1.374   3.740
  617SOL    HW1 2183   0.813   1.389   3.828
  617SOL    HW2 2184   0.903   1.459   3.710
  618SOL     OW 2185   0.661   1.790   4.677
  618SOL    HW1 2186   0.615   1.878   4.664
  618SOL    HW2 2187   0.760   1.802   4.670
  619SOL     OW 2188   0.859   0.956   4.585
  619SOL    HW1 2189   0.913   0.887   4.633
  619SOL    HW2 2190   0.827   1.025   4.651
  620SOL     OW 2191   1.083   0.984   3.811
  620SOL    HW1 2192   1.060   1.037   3.729
  620SOL    HW2 2193   1.164   0.928   3.792
  621SOL     OW 2194   1.861   1.569   4.575
  621SOL    HW1 2195   1.790   1.557   4.505
  621SOL    HW2 2196   1.862   1.490   4.635
  622SOL     OW 2197   0.221   1.314   5.568
  622SOL    HW1 2198   0.156   1.241   5.547
  622SOL    HW2 2199   0.225   1.328   5.666
  623SOL     OW 2200   0.079   1.240   4.377
  623SOL    HW1 2201   0.078   1.193   4.465
  623SOL    HW2 2202   0.161   1.212   4.326
  624SOL     OW 2203   0.672   1.391   5.348
  624SOL    HW1 2204   0.594   1.341   5.386
  624SOL    HW2 2205   0.669   1.486   5.379
  625SOL     OW 2206   1.824   0.192   4.951
  625SOL    HW1 2207   1.820   0.102   4.995
  625SOL    HW2 2208   1.827   0.181   4.852
  626SOL     OW 2209   0.428   0.424   4.244
  626SOL    HW1 2210   0.458   0.352   4.182
  626SOL    HW2 2211   0.389   0.384   4.327
  627SOL     OW 2212   1.705   1.487   4.828
  627SOL    HW1 2213   1.612   1.462   4.801
  627SOL    HW2 2214   1.731   1.437   4.910
  628SOL     OW 2215   0.317   0.547   5.004
  628SOL    HW1 2216   0.355   0.488   5.076
  628SOL    HW2 2217   0.357   0.521   4.916
  629SOL     OW 2218   0.812   1.586   4.411
  629SOL    HW1 2219   0.844   1.596   4.317
  629SOL    HW2 2220   0.733   1.524   4.413
  630SOL     OW 2221   1.424   0.214   4.836
  630SOL    HW1 2222   1.476   0.149   4.891
  630SOL    HW2 2223   1.375   0.277   4.897
  631SOL     OW 2224   1.001   0.034   4.878
  631SOL    HW1 2225   0.938  -0.038   4.847
  631SOL    HW2 2226   1.094  -0.002   4.878
  632SOL     OW 2227   0.770   1.330   4.025
  632SOL    HW1 2228   0.724   1.243   4.042
  632SOL    HW2 2229   0.861   1.327   4.066
  633SOL     OW 2230   0.618   1.567   5.008
  633SOL    HW1 2231   0.613   1.649   5.065
  633SOL    HW2 2232   0.707   1.564   4.963
  634SOL     OW 2233   1.352   0.052   3.892
  634SOL    HW1 2234   1.387   0.011   3.808
  634SOL    HW2 2235   1.262   0.014   3.912
  635SOL     OW 2236   1.300   0.453   4.415
  635SOL    HW1 2237   1.241   0.533   4.419
  635SOL    HW2 2238   1.315   0.418   4.508
  636SOL     OW 2239   1.593   0.221   4.606
  636SOL    HW1 2240   1.509   0.220   4.660
  636SOL    HW2 2241   1.595   0.304   4.550
  637SOL     OW 2242   0.039   1.077   4.024
  637SOL    HW1 2243   0.138   1.066   4.015
  637SOL    HW2 2244  -0.001   0.991   4.056
  638SOL     OW 2245   0.875   1.646   4.061
  638SOL    HW1 2246   0.798   1.611   4.007
  638SOL    HW2 2247   0.843   1.717   4.123
  639SOL     OW 2248   0.230   0.628   5.699
  639SOL    HW1 2249   0.137   0.626   5.736
  639SOL    HW2 2250   0.231   0.589   5.607
  640SOL     OW 2251   0.225   0.275   6.582
  640SOL    HW1 2252   0.260   0.258   6.674
  640SOL    HW2 2253   0.137   0.230   6.570
  641SOL     OW 2254   0.019   0.368   6.233
  641SOL    HW1 2255  -0.063   0.411   6.272
  641SOL    HW2 2256  -0.009   0.295   6.170
  642SOL     OW 2257   0.569   1.275   6.751
  642SOL    HW1 2258   0.476   1.268   6.714
  642SOL    HW2 2259   0.580   1.364   6.795
  643SOL     OW 2260   1.555   1.511   6.289
  643SOL    HW1 2261   1.498   1.495   6.370
  643SOL    HW2 2262   1.496   1.521   6.209
  644SOL     OW 2263   1.135   0.703   6.303
  644SOL    HW1 2264   1.192   0.781   6.278
  644SOL    HW2 2265   1.075   0.729   6.379
  645SOL     OW 2266   1.755   0.607   5.817
  645SOL    HW1 2267   1.743   0.594   5.718
  645SOL    HW2 2268   1.725   0.526   5.866
  646SOL     OW 2269   0.768   1.144   6.609
  646SOL    HW1 2270   0.690   1.161   6.669
  646SOL    HW2 2271   0.802   1.231   6.573
  647SOL     OW 2272   0.850   0.798   7.409
  647SOL    HW1 2273   0.846   0.874   7.474
  647SOL    HW2 2274   0.872   0.834   7.318
  648SOL     OW 2275   0.685   1.012   6.251
  648SOL    HW1 2276   0.754   0.996   6.321
  648SOL    HW2 2277   0.612   1.069   6.289
  649SOL     OW 2278   0.686   1.161   7.389
  649SOL    HW1 2279   0.746   1.240   7.403
  649SOL    HW2 2280   0.600   1.192   7.348
  650SOL     OW 2281   0.335   1.435   6.647
  650SOL    HW1 2282   0.257   1.404   6.594
  650SOL    HW2 2283   0.393   1.493   6.590
  651SOL     OW 2284   1.460   1.505   6.925
  651SOL    HW1 2285   1.484   1.599   6.951
  651SOL    HW2 2286   1.444   1.451   7.007
  652SOL     OW 2287   0.438   0.392   7.085
  652SOL    HW1 2288   0.520   0.336   7.094
  652SOL    HW2 2289   0.357   0.334   7.089
  653SOL     OW 2290   1.603   0.447   6.323
  653SOL    HW1 2291   1.529   0.493   6.273
  653SOL    HW2 2292   1.654   0.515   6.376
  654SOL     OW 2293   0.231   1.713   6.069
  654SOL    HW1 2294   0.265   1.790   6.123
  654SOL    HW2 2295   0.275   1.713   5.979
  655SOL     OW 2296   1.127   1.341   7.276
  655SOL    HW1 2297   1.174   1.341   7.364
  655SOL    HW2 2298   1.079   1.254   7.265
  656SOL     OW 2299   0.230   1.434   6.124
  656SOL    HW1 2300   0.204   1.530   6.124
  656SOL    HW2 2301   0.159   1.380   6.169
  657SOL     OW 2302   0.240   1.091   6.472
  657SOL    HW1 2303   0.254   1.007   6.524
  657SOL    HW2 2304   0.185   1.155   6.527
  658SOL     OW 2305   0.620   1.786   7.025
  658SOL    HW1 2306   0.528   1.769   7.060
  658SOL    HW2 2307   0.648   1.878   7.051
  659SOL     OW 2308   0.606   0.964   5.709
  659SOL    HW1 2309   0.613   1.048   5.655
  659SOL    HW2 2310   0.652   0.977   5.797
  660SOL     OW 2311   1.594   0.114   7.066
  660SOL    HW1 2312   1.576   0.181   6.994
  660SOL    HW2 2313   1.591   0.160   7.155
  661SOL     OW 2314   0.122   0.643   6.149
  661SOL    HW1 2315   0.077   0.555   6.166
  661SOL    HW2 2316   0.121   0.697   6.233
  662SOL     OW 2317   1.842   1.767   5.945
  662SOL    HW1 2318   1.896   1.738   6.025
  662SOL    HW2 2319   1.872   1.857   5.916
  663SOL     OW 2320   0.027   1.596   5.703
  663SOL    HW1 2321   0.008   1.500   5.724
  663SOL    HW2 2322  -0.006   1.654   5.778
  664SOL     OW 2323   1.689   0.922   6.198
  664SOL    HW1 2324   1.784   0.893   6.206
  664SOL    HW2 2325   1.681   0.987   6.123
  665SOL     OW 2326   1.641   1.108   6.018
  665SOL    HW1 2327   1.727   1.110   5.966
  665SOL    HW2 2328   1.655   1.155   6.106
  666SOL     OW 2329   0.113   0.737   7.183
  666SOL    HW1 2330   0.201   0.724   7.228
  666SOL    HW2 2331   0.100   0.834   7.161
  667SOL     OW 2332   0.613   1.365   6.312
  667SOL    HW1 2333   0.564   1.278   6.321
  667SOL    HW2 2334   0.590   1.408   6.225
  668SOL     OW 2335   1.293   1.228   7.009
  668SOL    HW1 2336   1.330   1.155   6.951
  668SOL    HW2 2337   1.345   1.233   7.094
  669SOL     OW 2338   0.809   0.004   6.088
  669SOL    HW1 2339   0.849   0.095   6.079
  669SOL    HW2 2340   0.709   0.012   6.094
  670SOL     OW 2341   0.197   0.976   6.850
  670SOL    HW1 2342   0.286   0.931   6.836
  670SOL    HW2 2343   0.124   0.911   6.831
  671SOL     OW 2344   1.525   0.999   5.776
  671SOL    HW1 2345   1.462   0.923   5.789
  671SOL    HW2 2346   1.573   1.017   5.862
  672SOL     OW 2347   1.187   1.792   7.202
  672SOL    HW1 2348   1.211   1.852   7.126
  672SOL    HW2 2349   1.194   1.697   7.172
  673SOL     OW 2350   0.317   0.251   7.387
  673SOL    HW1 2351   0.388   0.322   7.393
  673SOL    HW2 2352   0.229   0.290   7.415
  674SOL     OW 2353   1.466   1.417   6.539
  674SOL    HW1 2354   1.407   1.423   6.619
  674SOL    HW2 2355   1.451   1.329   6.493
  675SOL     OW 2356   1.667   1.714   6.158
  675SOL    HW1 2357   1.626   1.691   6.070
  675SOL    HW2 2358   1.649   1.640   6.223
  676SOL     OW 2359   0.598   0.729   5.856
  676SOL    HW1 2360   0.622   0.798   5.788
  676SOL    HW2 2361   0.520   0.762   5.910
  677SOL     OW 2362   1.281   0.345   6.530
  677SOL    HW1 2363   1.195   0.295   6.517
  677SOL    HW2 2364   1.343   0.291   6.586
  678SOL     OW 2365   1.576   1.662   5.893
  678SOL    HW1 2366   1.665   1.708   5.896
  678SOL    HW2 2367   1.555   1.638   5.798
  679SOL     OW 2368   0.807   0.605   7.051
  679SOL    HW1 2369   0.760   0.602   7.140
  679SOL    HW2 2370   0.756   0.550   6.985
  680SOL     OW 2371   1.394   0.469   7.260
  680SOL    HW1 2372   1.374   0.512   7.348
  680SOL    HW2 2373   1.472   0.407   7.269
  681SOL     OW 2374   0.973   0.890   7.158
  681SOL    HW1 2375   1.019   0.806   7.129
  681SOL    HW2 2376   0.917   0.924   7.083
  682SOL     OW 2377   0.991   0.410   6.828
  682SOL    HW1 2378   0.914   0.444   6.882
  682SOL    HW2 2379   0.957   0.359   6.749
  683SOL     OW 2380   1.041   0.701   6.015
  683SOL    HW1 2381   1.067   0.697   6.111
  683SOL    HW2 2382   0.956   0.650   6.001
  684SOL     OW 2383   0.076   0.811   6.375
  684SOL    HW1 2384   0.175   0.799   6.384
  684SOL    HW2 2385   0.052   0.906   6.396
  685SOL     OW 2386   0.130   1.821   7.157
  685SOL    HW1 2387   0.120   1.806   7.256
  685SOL    HW2 2388   0.044   1.857   7.121
  686SOL     OW 2389   0.865   0.348   5.781
  686SOL    HW1 2390   0.924   0.411   5.732
  686SOL    HW2 2391   0.884   0.254   5.752
  687SOL     OW 2392   1.719   0.585   7.417
  687SOL    HW1 2393   1.693   0.674   7.381
  687SOL    HW2 2394   1.717   0.517   7.344
  688SOL     OW 2395   1.362   1.144   6.131
  688SOL    HW1 2396   1.445   1.115   6.083
  688SOL    HW2 2397   1.313   1.211   6.075
  689SOL     OW 2398   0.550   0.196   6.471
  689SOL    HW1 2399   0.545   0.191   6.571
  689SOL    HW2 2400   0.552   0.292   6.442
  690SOL     OW 2401   1.008   1.456   6.063
  690SOL    HW1 2402   0.962   1.528   6.011
  690SOL    HW2 2403   1.004   1.476   6.161
  691SOL     OW 2404   0.351   1.801   6.439
  691SOL    HW1 2405   0.401   1.715   6.445
  691SOL    HW2 2406   0.416   1.878   6.436
  692SOL     OW 2407   1.795   1.066   6.459
  692SOL    HW1 2408   1.733   1.051   6.383
  692SOL    HW2 2409   1.743   1.077   6.544
  693SOL     OW 2410   1.227   1.550   7.092
  693SOL    HW1 2411   1.233   1.473   7.156
  693SOL    HW2 2412   1.175   1.524   7.012
  694SOL     OW 2413   0.321   0.943   5.828
  694SOL    HW1 2414   0.403   0.982   5.786
  694SOL    HW2 2415   0.294   0.861   5.779
  695SOL     OW 2416   1.458   0.735   6.314
  695SOL    HW1 2417   1.453   0.670   6.389
  695SOL    HW2 2418   1.538   0.794   6.327
  696SOL     OW 2419   0.461   1.266   7.313
  696SOL    HW1 2420   0.411   1.267   7.227
  696SOL    HW2 2421   0.398   1.248   7.389
  697SOL     OW 2422   1.111   1.776   5.823
  697SOL    HW1 2423   1.051   1.714   5.873
  697SOL    HW2 2424   1.142   1.732   5.738
  698SOL     OW 2425   0.202   0.285   7.084
  698SOL    HW1 2426   0.122   0.345   7.071
  698SOL    HW2 2427   0.192   0.236   7.170
  699SOL     OW 2428   1.632   1.377   5.667
  699SOL    HW1 2429   1.600   1.471   5.657
  699SOL    HW2 2430   1.556   1.314   5.655
  700SOL     OW 2431   0.464   1.743   5.909
  700SOL    HW1 2432   0.497   1.782   5.995
  700SOL    HW2 2433   0.540   1.736   5.844
  701SOL     OW 2434   1.400   0.107   6.012
  701SOL    HW1 2435   1.376   0.070   5.922
  701SOL    HW2 2436   1.499   0.123   6.016
  702SOL     OW 2437   0.249   1.785   6.827
  702SOL    HW1 2438   0.306   1.720   6.877
  702SOL    HW2 2439   0.233   1.752   6.734
  703SOL     OW 2440   0.940   1.698   6.490
  703SOL    HW1 2441   1.020   1.641   6.511
  703SOL    HW2 2442   0.891   1.658   6.413
  704SOL     OW 2443   0.382   0.700   6.066
  704SOL    HW1 2444   0.427   0.610   6.063
  704SOL    HW2 2445   0.288   0.689   6.099
  705SOL     OW 2446   1.547   0.222   7.315
  705SOL    HW1 2447   1.542   0.259   7.407
  705SOL    HW2 2448   1.475   0.153   7.303
  706SOL     OW 2449   0.614   0.122   5.703
  706SOL    HW1 2450   0.712   0.100   5.710
  706SOL    HW2 2451   0.583   0.105   5.610
  707SOL     OW 2452   0.781   0.264   7.335
  707SOL    HW1 2453   0.848   0.203   7.378
  707SOL    HW2 2454   0.708   0.283   7.400
  708SOL     OW 2455   0.888   1.514   6.781
  708SOL    HW1 2456   0.865   1.489   6.687
  708SOL    HW2 2457   0.949   1.445   6.820
  709SOL     OW 2458   1.351   0.590   7.019
  709SOL    HW1 2459   1.379   0.547   7.104
  709SOL    HW2 2460   1.376   0.686   7.020
  710SOL     OW 2461   0.803   1.402   6.510
  710SOL    HW1 2462   0.893   1.416   6.468
  710SOL    HW2 2463   0.732   1.404   6.439
  711SOL     OW 2464   0.922   0.503   6.485
  711SOL    HW1 2465   0.897   0.494   6.389
  711SOL    HW2 2466   0.970   0.421   6.516
  712SOL     OW 2467   0.539   0.064   6.098
  712SOL    HW1 2468   0.458   0.065   6.156
  712SOL    HW2 2469   0.542   0.147   6.043
  713SOL     OW 2470   1.434   1.188   5.627
  713SOL    HW1 2471   1.466   1.112   5.684
  713SOL    HW2 2472   1.342   1.215   5.657
  714SOL     OW 2473   0.297   0.035   5.757
  714SOL    HW1 2474   0.346   0.119   5.736
  714SOL    HW2 2475   0.359  -0.030   5.802
  715SOL     OW 2476   0.935   0.236   6.066
  715SOL    HW1 2477   0.887   0.277   5.988
  715SOL    HW2 2478   1.034   0.234   6.047
  716SOL     OW 2479   1.076   0.683   7.050
  716SOL    HW1 2480   0.996   0.622   7.053
  716SOL    HW2 2481   1.157   0.630   7.026
  717SOL     OW 2482   1.227   1.570   6.379
  717SOL    HW1 2483   1.248   1.644   6.314
  717SOL    HW2 2484   1.295   1.570   6.452
  718SOL     OW 2485   0.459   1.152   6.327
  718SOL    HW1 2486   0.388   1.125   6.392
  718SOL    HW2 2487   0.433   1.124   6.234
  719SOL     OW 2488   1.271   1.797   6.177
  719SOL    HW1 2489   1.315   1.861   6.113
  719SOL    HW2 2490   1.221   1.849   6.247
  720SOL     OW 2491   1.032   0.549   5.602
  720SOL    HW1 2492   0.991   0.631   5.563
  720SOL    HW2 2493   1.096   0.575   5.675
  721SOL     OW 2494   0.078   0.556   6.972
  721SOL    HW1 2495   0.170   0.555   6.931
  721SOL    HW2 2496   0.072   0.630   7.039
  722SOL     OW 2497   0.561   0.222   6.733
  722SOL    HW1 2498   0.599   0.138   6.770
  722SOL    HW2 2499   0.473   0.241   6.777
  723SOL     OW 2500   0.866   0.454   6.228
  723SOL    HW1 2501   0.834   0.526   6.166
  723SOL    HW2 2502   0.890   0.373   6.175
  724SOL     OW 2503   1.017   0.039   6.339
  724SOL    HW1 2504   0.945   0.044   6.270
  724SOL    HW2 2505   0.993  -0.030   6.408
  725SOL     OW 2506   1.429   1.173   6.453
  725SOL    HW1 2507   1.374   1.089   6.446
  725SOL    HW2 2508   1.455   1.202   6.361
  726SOL     OW 2509   1.466   0.590   6.578
  726SOL    HW1 2510   1.436   0.495   6.585
  726SOL    HW2 2511   1.539   0.606   6.644
  727SOL     OW 2512   1.857   0.833   5.963
  727SOL    HW1 2513   1.899   0.769   6.027
  727SOL    HW2 2514   1.819   0.782   5.885
  728SOL     OW 2515   0.488   1.385   5.760
  728SOL    HW1 2516   0.401   1.370   5.807
  728SOL    HW2 2517   0.471   1.411   5.665
  729SOL     OW 2518   1.664   1.280   6.243
  729SOL    HW1 2519   1.763   1.288   6.257
  729SOL    HW2 2520   1.619   1.364   6.274
  730SOL     OW 2521   1.390   0.575   5.664
  730SOL    HW1 2522   1.336   0.554   5.745
  730SOL    HW2 2523   1.481   0.534   5.673
  731SOL     OW 2524   0.527   0.256   5.914
  731SOL    HW1 2525   0.554   0.197   5.839
  731SOL    HW2 2526   0.527   0.351   5.883
  732SOL     OW 2527   1.754   1.223   7.174
  732SOL    HW1 2528   1.845   1.184   7.161
  732SOL    HW2 2529   1.762   1.319   7.198
  733SOL     OW 2530   1.064   1.347   6.926
  733SOL    HW1 2531   0.984   1.324   6.981
  733SOL    HW2 2532   1.147   1.321   6.975
  734SOL     OW 2533   1.592   1.629   7.211
  734SOL    HW1 2534   1.619   1.663   7.121
  734SOL    HW2 2535   1.671   1.591   7.257
  735SOL     OW 2536   1.111   1.195   6.686
  735SOL    HW1 2537   1.071   1.239   6.767
  735SOL    HW2 2538   1.070   1.232   6.603
  736SOL     OW 2539   1.638   1.099   6.665
  736SOL    HW1 2540   1.643   1.180   6.724
  736SOL    HW2 2541   1.552   1.101   6.614
  737SOL     OW 2542   0.915   0.089   6.988
  737SOL    HW1 2543   0.940   0.069   6.893
  737SOL    HW2 2544   0.987   0.145   7.030
  738SOL     OW 2545   0.980   1.116   7.305
  738SOL    HW1 2546   0.881   1.122   7.315
  738SOL    HW2 2547   1.003   1.036   7.249
  739SOL     OW 2548   0.705   1.050   5.954
  739SOL    HW1 2549   0.691   1.057   6.053
  739SOL    HW2 2550   0.789   0.999   5.936
  740SOL     OW 2551   0.410   0.813   6.837
  740SOL    HW1 2552   0.496   0.825   6.887
  740SOL    HW2 2553   0.368   0.726   6.864
  741SOL     OW 2554   1.274   0.386   6.848
  741SOL    HW1 2555   1.295   0.460   6.912
  741SOL    HW2 2556   1.185   0.403   6.805
  742SOL     OW 2557   0.064   1.564   6.917
  742SOL    HW1 2558   0.018   1.646   6.883
  742SOL    HW2 2559   0.162   1.583   6.926
  743SOL     OW 2560   0.367   1.100   6.087
  743SOL    HW1 2561   0.360   1.183   6.031
  743SOL    HW2 2562   0.371   1.020   6.027
  744SOL     OW 2563   0.566   0.537   6.451
  744SOL    HW1 2564   0.578   0.603   6.377
  744SOL    HW2 2565   0.612   0.571   6.534
  745SOL     OW 2566   1.252   1.348   5.974
  745SOL    HW1 2567   1.302   1.425   6.014
  745SOL    HW2 2568   1.157   1.350   6.006
  746SOL     OW 2569   1.272   1.445   6.728
  746SOL    HW1 2570   1.319   1.458   6.815
  746SOL    HW2 2571   1.206   1.371   6.737
  747SOL     OW 2572   1.582   0.639   6.058
  747SOL    HW1 2573   1.551   0.700   6.131
  747SOL    HW2 2574   1.632   0.691   5.989
  748SOL     OW 2575   0.354   1.510   6.915
  748SOL    HW1 2576   0.333   1.466   6.828
  748SOL    HW2 2577   0.451   1.536   6.918
  749SOL     OW 2578   0.402   0.751   7.184
  749SOL    HW1 2579   0.470   0.806   7.137
  749SOL    HW2 2580   0.442   0.663   7.211
  750SOL     OW 2581   1.587   0.779   7.256
  750SOL    HW1 2582   1.495   0.817   7.251
  750SOL    HW2 2583   1.647   0.826   7.191
  751SOL     OW 2584   1.013   0.105   7.356
  751SOL    HW1 2585   1.019   0.190   7.304
  751SOL    HW2 2586   1.045   0.029   7.299
  752SOL     OW 2587   0.504   0.050   7.326
  752SOL    HW1 2588   0.462  -0.007   7.256
  752SOL    HW2 2589   0.438   0.119   7.358
  753SOL     OW 2590   0.573   0.870   6.615
  753SOL    HW1 2591   0.617   0.959   6.606
  753SOL    HW2 2592   0.510   0.870   6.692
  754SOL     OW 2593   1.360   0.862   6.631
  754SOL    HW1 2594   1.285   0.862   6.565
  754SOL    HW2 2595   1.397   0.770   6.640
  755SOL     OW 2596   1.209   0.525   5.861
  755SOL    HW1 2597   1.222   0.441   5.915
  755SOL    HW2 2598   1.180   0.599   5.921
  756SOL     OW 2599   0.307   0.213   6.817
  756SOL    HW1 2600   0.284   0.250   6.907
  756SOL    HW2 2601   0.277   0.118   6.811
  757SOL     OW 2602   0.037   1.310   6.868
  757SOL    HW1 2603   0.090   1.261   6.936
  757SOL    HW2 2604   0.059   1.408   6.873
  758SOL     OW 2605   0.732   0.634   6.650
  758SOL    HW1 2606   0.791   0.608   6.574
  758SOL    HW2 2607   0.704   0.730   6.639
  759SOL     OW 2608   1.728   0.935   7.440
  759SOL    HW1 2609   1.682   0.928   7.351
  759SOL    HW2 2610   1.666   0.979   7.506
  760SOL     OW 2611   0.307   0.063   6.204
  760SOL    HW1 2612   0.296   0.157   6.237
  760SOL    HW2 2613   0.302   0.000   6.281
  761SOL     OW 2614   1.622   0.367   5.960
  761SOL    HW1 2615   1.624   0.291   6.024
  761SOL    HW2 2616   1.574   0.444   6.000
  762SOL     OW 2617   1.023   0.766   6.552
  762SOL    HW1 2618   1.038   0.787   6.648
  762SOL    HW2 2619   0.993   0.671   6.543
  763SOL     OW 2620   0.980   1.573   7.286
  763SOL    HW1 2621   0.960   1.617   7.198
  763SOL    HW2 2622   1.019   1.482   7.270
  764SOL     OW 2623   1.859   1.518   7.191
  764SOL    HW1 2624   1.873   1.545   7.096
  764SOL    HW2 2625   1.942   1.540   7.244
  765SOL     OW 2626   0.350   0.898   7.390
  765SOL    HW1 2627   0.426   0.942   7.438
  765SOL    HW2 2628   0.385   0.851   7.308
  766SOL     OW 2629   1.540   0.274   5.711
  766SOL    HW1 2630   1.479   0.199   5.734
  766SOL    HW2 2631   1.562   0.326   5.794
  767SOL     OW 2632   1.303   0.838   5.628
  767SOL    HW1 2633   1.337   0.745   5.643
  767SOL    HW2 2634   1.321   0.865   5.533
  768SOL     OW 2635   1.068   1.333   6.435
  768SOL    HW1 2636   1.075   1.249   6.380
  768SOL    HW2 2637   1.130   1.402   6.399
  769SOL     OW 2638   0.319   0.810   6.535
  769SOL    HW1 2639   0.412   0.846   6.540
  769SOL    HW2 2640   0.313   0.725   6.587
  770SOL     OW 2641   0.339   0.509   6.592
  770SOL    HW1 2642   0.287   0.426   6.575
  770SOL    HW2 2643   0.416   0.514   6.528
  771SOL     OW 2644   1.138   0.380   7.264
  771SOL    HW1 2645   1.093   0.443   7.328
  771SOL    HW2 2646   1.231   0.411   7.247
  772SOL     OW 2647   1.160   0.207   7.063
  772SOL    HW1 2648   1.160   0.271   7.140
  772SOL    HW2 2649   1.188   0.255   6.980
  773SOL     OW 2650   0.008   1.326   5.786
  773SOL    HW1 2651  -0.085   1.347   5.755
  773SOL    HW2 2652   0.018   1.227   5.799
  774SOL     OW 2653   0.088   1.801   6.513
  774SOL    HW1 2654   0.046   1.715   6.486
  774SOL    HW2 2655   0.182   1.804   6.479
  775SOL     OW 2656   0.504   1.568   6.496
  775SOL    HW1 2657   0.570   1.642   6.505
  775SOL    HW2 2658   0.548   1.489   6.454
  776SOL     OW 2659   1.002   0.796   6.824
  776SOL    HW1 2660   1.043   0.764   6.910
  776SOL    HW2 2661   0.906   0.769   6.821
  777SOL     OW 2662   0.040   0.544   6.700
  777SOL    HW1 2663   0.125   0.511   6.659
  777SOL    HW2 2664   0.053   0.559   6.798
  778SOL     OW 2665   0.189   0.520   7.308
  778SOL    HW1 2666   0.248   0.480   7.238
  778SOL    HW2 2667   0.131   0.591   7.267
  779SOL     OW 2668   1.369   0.950   7.246
  779SOL    HW1 2669   1.408   1.039   7.266
  779SOL    HW2 2670   1.379   0.930   7.149
  780SOL     OW 2671   0.815   0.572   5.911
  780SOL    HW1 2672   0.822   0.483   5.865
  780SOL    HW2 2673   0.721   0.606   5.903
  781SOL     OW 2674   1.657   0.604   6.792
  781SOL    HW1 2675   1.619   0.535   6.854
  781SOL    HW2 2676   1.739   0.568   6.748
  782SOL     OW 2677   0.252   1.564   7.330
  782SOL    HW1 2678   0.222   1.621   7.406
  782SOL    HW2 2679   0.245   1.467   7.356
  783SOL     OW 2680   0.671   0.464   6.855
  783SOL    HW1 2681   0.637   0.375   6.825
  783SOL    HW2 2682   0.697   0.518   6.775
  784SOL     OW 2683   0.930   1.678   7.051
  784SOL    HW1 2684   0.906   1.660   6.956
  784SOL    HW2 2685   0.960   1.772   7.061
  785SOL     OW 2686   0.473   0.500   5.777
  785SOL    HW1 2687   0.534   0.580   5.781
  785SOL    HW2 2688   0.378   0.531   5.784
  786SOL     OW 2689   0.159   1.137   7.052
  786SOL    HW1 2690   0.181   1.076   7.128
  786SOL    HW2 2691   0.169   1.088   6.966
  787SOL     OW 2692   1.347   1.059   6.820
  787SOL    HW1 2693   1.371   0.996   6.746
  787SOL    HW2 2694   1.257   1.099   6.802
  788SOL     OW 2695   1.302   0.855   5.895
  788SOL    HW1 2696   1.216   0.824   5.937
  788SOL    HW2 2697   1.298   0.841   5.796
  789SOL     OW 2698   1.759   1.747   6.740
  789SOL    HW1 2699   1.820   1.777   6.667
  789SOL    HW2 2700   1.721   1.658   6.718
  790SOL     OW 2701   1.252   1.731   6.714
  790SOL    HW1 2702   1.336   1.736   6.660
  790SOL    HW2 2703   1.229   1.635   6.732
  791SOL     OW 2704   0.083   1.258   6.608
  791SOL    HW1 2705   0.078   1.257   6.708
  791SOL    HW2 2706   0.000   1.217   6.570
  792SOL     OW 2707   0.688   1.662   7.302
  792SOL    HW1 2708   0.632   1.743   7.311
  792SOL    HW2 2709   0.740   1.666   7.216
  793SOL     OW 2710   1.726   0.135   6.109
  793SOL    HW1 2711   1.799   0.118   6.042
  793SOL    HW2 2712   1.695   0.048   6.147
  794SOL     OW 2713   1.388   1.573   6.063
  794SOL    HW1 2714   1.455   1.585   5.989
  794SOL    HW2 2715   1.348   1.662   6.086
  795SOL     OW 2716   0.130   1.794   7.437
  795SOL    HW1 2717   0.089   1.720   7.490
  795SOL    HW2 2718   0.194   1.845   7.495
  796SOL     OW 2719   1.280   0.927   6.258
  796SOL    HW1 2720   1.340   0.846   6.260
  796SOL    HW2 2721   1.320   0.996   6.198
  797SOL     OW 2722   0.830   1.273   7.008
  797SOL    HW1 2723   0.825   1.306   7.103
  797SOL    HW2 2724   0.744   1.292   6.962
  798SOL     OW 2725   0.672   1.616   5.740
  798SOL    HW1 2726   0.681   1.626   5.641
  798SOL    HW2 2727   0.632   1.527   5.761
  799SOL     OW 2728   1.650   1.720   6.980
  799SOL    HW1 2729   1.703   1.730   6.896
  799SOL    HW2 2730   1.623   1.810   7.014
  800SOL     OW 2731   1.841   0.175   6.549
  800SOL    HW1 2732   1.880   0.090   6.513
  800SOL    HW2 2733   1.743   0.177   6.530
  801SOL     OW 2734   0.263   0.326   6.306
  801SOL    HW1 2735   0.184   0.377   6.272
  801SOL    HW2 2736   0.254   0.311   6.404
  802SOL     OW 2737   1.194   1.612   5.617
  802SOL    HW1 2738   1.200   1.519   5.654
  802SOL    HW2 2739   1.135   1.612   5.537
  803SOL     OW 2740   0.822   1.002   6.958
  803SOL    HW1 2741   0.862   1.001   6.866
  803SOL    HW2 2742   0.832   1.094   6.998
  804SOL     OW 2743   0.916   0.910   5.877
  804SOL    HW1 2744   0.979   0.948   5.809
  804SOL    HW2 2745   0.956   0.827   5.916
  805SOL     OW 2746   1.504   1.607   5.630
  805SOL    HW1 2747   1.412   1.644   5.637
  805SOL    HW2 2748   1.542   1.627   5.540
  806SOL     OW 2749   0.372   1.288   7.076
  806SOL    HW1 2750   0.359   1.381   7.042
  806SOL    HW2 2751   0.288   1.236   7.063
  807SOL     OW 2752   1.614   1.292   6.875
  807SOL    HW1 2753   1.674   1.295   6.955
  807SOL    HW2 2754   1.539   1.356   6.888
  808SOL     OW 2755   1.039   1.098   6.282
  808SOL    HW1 2756   0.969   1.051   6.336
  808SOL    HW2 2757   1.098   1.030   6.239
  809SOL     OW 2758   1.014   0.236   6.557
  809SOL    HW1 2759   1.006   0.200   6.464
  809SOL    HW2 2760   1.012   0.160   6.622
  810SOL     OW 2761   0.590   1.487   6.077
  810SOL    HW1 2762   0.632   1.429   6.007
  810SOL    HW2 2763   0.546   1.566   6.033
  811SOL     OW 2764   1.709   0.385   6.967
  811SOL    HW1 2765   1.782   0.454   6.971
  811SOL    HW2 2766   1.737   0.310   6.908
  812SOL     OW 2767   0.255   1.348   5.876
  812SOL    HW1 2768   0.159   1.349   5.849
  812SOL    HW2 2769   0.267   1.401   5.960
  813SOL     OW 2770   0.105   1.013   7.312
  813SOL    HW1 2771   0.028   0.980   7.366
  813SOL    HW2 2772   0.190   0.983   7.354
  814SOL     OW 2773   0.672   0.203   7.075
  814SOL    HW1 2774   0.762   0.187   7.035
  814SOL    HW2 2775   0.680   0.208   7.174
  815SOL     OW 2776   0.075   0.345   5.619
  815SOL    HW1 2777  -0.017   0.317   5.590
  815SOL    HW2 2778   0.106   0.422   5.563
  816SOL     OW 2779   1.440   0.856   6.984
  816SOL    HW1 2780   1.383   0.908   6.921
  816SOL    HW2 2781   1.536   0.868   6.960
  817SOL     OW 2782   0.072   0.166   5.904
  817SOL    HW1 2783   0.055   0.249   5.850
  817SOL    HW2 2784   0.162   0.129   5.882
  818SOL     OW 2785   1.183   1.335   5.705
  818SOL    HW1 2786   1.084   1.324   5.707
  818SOL    HW2 2787   1.217   1.350   5.798
  819SOL     OW 2788   0.613   0.842   7.017
  819SOL    HW1 2789   0.669   0.923   7.000
  819SOL    HW2 2790   0.672   0.762   7.020
  820SOL     OW 2791   1.493   1.767   6.545
  820SOL    HW1 2792   1.526   1.831   6.476
  820SOL    HW2 2793   1.559   1.761   6.620
  821SOL     OW 2794   0.716   0.565   7.294
  821SOL    HW1 2795   0.735   0.630   7.368
  821SOL    HW2 2796   0.776   0.485   7.303
  822SOL     OW 2797   1.450   1.220   7.219
  822SOL    HW1 2798   1.441   1.210   7.318
  822SOL    HW2 2799   1.546   1.213   7.193
  823SOL     OW 2800   0.390   1.741   7.146
  823SOL    HW1 2801   0.299   1.782   7.144
  823SOL    HW2 2802   0.383   1.647   7.178
  824SOL     OW 2803   1.674   0.883   6.840
  824SOL    HW1 2804   1.647   0.794   6.803
  824SOL    HW2 2805   1.675   0.951   6.767
  825SOL     OW 2806   1.225   0.325   6.035
  825SOL    HW1 2807   1.290   0.251   6.024
  825SOL    HW2 2808   1.245   0.375   6.119
  826SOL     OW 2809   0.594   0.745   6.238
  826SOL    HW1 2810   0.644   0.830   6.219
  826SOL    HW2 2811   0.506   0.747   6.190
  827SOL     OW 2812   1.777   0.342   7.228
  827SOL    HW1 2813   1.760   0.373   7.134
  827SOL    HW2 2814   1.693   0.305   7.266
  828SOL     OW 2815   1.730   0.934   7.103
  828SOL    HW1 2816   1.768   1.025   7.118
  828SOL    HW2 2817   1.722   0.917   7.004
  829SOL     OW 2818   0.859   1.374   5.602
  829SOL    HW1 2819   0.813   1.389   5.690
  829SOL    HW2 2820   0.903   1.459   5.572
  830SOL     OW 2821   0.661   1.790   6.539
  830SOL    HW1 2822   0.615   1.878   6.526
  830SOL    HW2 2823   0.760   1.802   6.532
  831SOL     OW 2824   0.859   0.956   6.447
  831SOL    HW1 2825   0.913   0.887   6.495
  831SOL    HW2 2826   0.827   1.025   6.513
  832SOL     OW 2827   1.083   0.984   5.673
  832SOL    HW1 2828   1.060   1.037   5.591
  832SOL    HW2 2829   1.164   0.928   5.654
  833SOL     OW 2830   1.861   1.569   6.437
  833SOL    HW1 2831   1.790   1.557   6.367
  833SOL    HW2 2832   1.862   1.490   6.497
  834SOL     OW 2833   0.221   1.314   7.430
  834SOL    HW1 2834   0.156   1.241   7.409
  834SOL    HW2 2835   0.225   1.328   7.528
  835SOL     OW 2836   0.079   1.240   6.239
  835SOL    HW1 2837   0.078   1.193   6.327
  835SOL    HW2 2838   0.161   1.212   6.188
  836SOL     OW 2839   0.672   1.391   7.210
  836SOL    HW1 2840   0.594   1.341   7.248
  836SOL    HW2 2841   0.669   1.486   7.241
  837SOL     OW 2842   1.824   0.192   6.813
  837SOL    HW1 2843   1.820   0.102   6.857
  837SOL    HW2 2844   1.827   0.181   6.714
  838SOL     OW 2845   0.428   0.424   6.106
  838SOL    HW1 2846   0.458   0.352   6.044
  838SOL    HW2 2847   0.389   0.384   6.189
  839SOL     OW 2848   1.705   1.487   6.690
  839SOL    HW1 2849   1.612   1.462   6.663
  839SOL    HW2 2850   1.731   1.437   6.772
  840SOL     OW 2851   0.317   0.547   6.866
  840SOL    HW1 2852   0.355   0.488   6.938
  840SOL    HW2 2853   0.357   0.521   6.778
  841SOL     OW 2854   0.812   1.586   6.273
  841SOL    HW1 2855   0.844   1.596   6.179
  841SOL    HW2 2856   0.733   1.524   6.275
  842SOL     OW 2857   1.424   0.214   6.698
  842SOL    HW1 2858   1.476   0.149   6.753
  842SOL    HW2 2859   1.375   0.277   6.759
  843SOL     OW 2860   1.001   0.034   6.740
  843SOL    HW1 2861   0.938  -0.038   6.709
  843SOL    HW2 2862   1.094  -0.002   6.740
  844SOL     OW 2863   0.770   1.330   5.887
  844SOL    HW1 2864   0.724   1.243   5.904
  844SOL    HW2 2865   0.861   1.327   5.928
  845SOL     OW 2866   0.618   1.567   6.870
  845SOL    HW1 2867   0.613   1.649   6.927
  845SOL    HW2 2868   0.707   1.564   6.825
  846SOL     OW 2869   1.352   0.052   5.754
  846SOL    HW1 2870   1.387   0.011   5.670
  846SOL    HW2 2871   1.262   0.014   5.774
  847SOL     OW 2872   1.300   0.453   6.277
  847SOL    HW1 2873   1.241   0.533   6.281
  847SOL    HW2 2874   1.315   0.418   6.370
  848SOL     OW 2875   1.593   0.221   6.468
  848SOL    HW1 2876   1.509   0.220   6.522
  848SOL    HW2 2877   1.595   0.304   6.412
  849SOL     OW 2878   0.039   1.077   5.886
  849SOL    HW1 2879   0.138   1.066   5.877
  849SOL    HW2 2880  -0.001   0.991   5.918
  850SOL     OW 2881   0.875   1.646   5.923
  850SOL    HW1 2882   0.798   1.611   5.869
  850SOL    HW2 2883   0.843   1.717   5.985
  851SOL     OW 2884   0.230   0.628   7.561
  851SOL    HW1 2885   0.137   0.626   7.598
  851SOL    HW2 2886   0.231   0.589   7.469
  852SOL     OW 2887   0.225   0.275   8.444
  852SOL    HW1 2888   0.260   0.258   8.536
  852SOL    HW2 2889   0.137   0.230   8.432
  853SOL     OW 2890   0.019   0.368   8.095
  853SOL    HW1 2891  -0.063   0.411   8.134
  853SOL    HW2 2892  -0.009   0.295   8.032
  854SOL     OW 2893   0.569   1.275   8.613
  854SOL    HW1 2894   0.476   1.268   8.576
  854SOL    HW2 2895   0.580   1.364   8.657
  855SOL     OW 2896   1.555   1.511   8.151
  855SOL    HW1 2897   1.498   1.495   8.232
  855SOL    HW2 2898   1.496   1.521   8.071
  856SOL     OW 2899   1.135   0.703   8.165
  856SOL    HW1 2900   1.192   0.781   8.140
  856SOL    HW2 2901   1.075   0.729   8.241
  857SOL     OW 2902   1.755   0.607   7.679
  857SOL    HW1 2903   1.743   0.594   7.580
  857SOL    HW2 2904   1.725   0.526   7.728
  858SOL     OW 2905   0.768   1.144   8.471
  858SOL    HW1 2906   0.690   1.161   8.531
  858SOL    HW2 2907   0.802   1.231   8.435
  859SOL     OW 2908   0.850   0.798   9.271
  859SOL    HW1 2909   0.846   0.874   9.336
  859SOL    HW2 2910   0.872   0.834   9.180
  860SOL     OW 2911   0.685   1.012   8.113
  860SOL    HW1 2912   0.754   0.996   8.183
  860SOL    HW2 2913   0.612   1.069   8.151
  861SOL     OW 2914   0.686   1.161   9.251
  861SOL    HW1 2915   0.746   1.240   9.265
  861SOL    HW2 2916   0.600   1.192   9.210
  862SOL     OW 2917   0.335   1.435   8.509
  862SOL    HW1 2918   0.257   1.404   8.456
  862SOL    HW2 2919   0.393   1.493   8.452
  863SOL     OW 2920   1.460   1.505   8.787
  863SOL    HW1 2921   1.484   1.599   8.813
  863SOL    HW2 2922   1.444   1.451   8.869
  864SOL     OW 2923   0.438   0.392   8.947
  864SOL    HW1 2924   0.520   0.336   8.956
  864SOL    HW2 2925   0.357   0.334   8.951
  865SOL     OW 2926   1.603   0.447   8.185
  865SOL    HW1 2927   1.529   0.493   8.135
  865SOL    HW2 2928   1.654   0.515   8.238
  866SOL     OW 2929   0.231   1.713   7.931
  866SOL    HW1 2930   0.265   1.790   7.985
  866SOL    HW2 2931   0.275   1.713   7.841
  867SOL     OW 2932   1.127   1.341   9.138
  867SOL    HW1 2933   1.174   1.341   9.226
  867SOL    HW2 2934   1.079   1.254   9.127
  868SOL     OW 2935   0.230   1.434   7.986
  868SOL    HW1 2936   0.204   1.530   7.986
  868SOL    HW2 2937   0.159   1.380   8.031
  869SOL     OW 2938   0.240   1.091   8.334
  869SOL    HW1 2939   0.254   1.007   8.386
  869SOL    HW2 2940   0.185   1.155   8.389
  870SOL     OW 2941   0.620   1.786   8.887
  870SOL    HW1 2942   0.528   1.769   8.922
  870SOL    HW2 2943   0.648   1.878   8.913
  871SOL     OW 2944   0.606   0.964   7.571
  871SOL    HW1 2945   0.613   1.048   7.517
  871SOL    HW2 2946   0.652   0.977   7.659
  872SOL     OW 2947   1.594   0.114   8.928
  872SOL    HW1 2948   1.576   0.181   8.856
  872SOL    HW2 2949   1.591   0.160   9.017
  873SOL     OW 2950   0.122   0.643   8.011
  873SOL    HW1 2951   0.077   0.555   8.028
  873SOL    HW2 2952   0.121   0.697   8.095
  874SOL     OW 2953   1.842   1.767   7.807
  874SOL    HW1 2954   1.896   1.738   7.887
  874SOL    HW2 2955   1.872   1.857   7.778
  875SOL     OW 2956   0.027   1.596   7.565
  875SOL    HW1 2957   0.008   1.500   7.586
  875SOL    HW2 2958  -0.006   1.654   7.640
  876SOL     OW 2959   1.689   0.922   8.060
  876SOL    HW1 2960   1.784   0.893   8.068
  876SOL    HW2 2961   1.681   0.987   7.985
  877SOL     OW 2962   1.641   1.108   7.880
  877SOL    HW1 2963   1.727   1.110   7.828
  877SOL    HW2 2964   1.655   1.155   7.968
  878SOL     OW 2965   0.113   0.737   9.045
  878SOL    HW1 2966   0.201   0.724   9.090
  878SOL    HW2 2967   0.100   0.834   9.023
  879SOL     OW 2968   0.613   1.365   8.174
  879SOL    HW1 2969   0.564   1.278   8.183
  879SOL    HW2 2970   0.590   1.408   8.087
  880SOL     OW 2971   1.293   1.228   8.871
  880SOL    HW1 2972   1.330   1.155   8.813
  880SOL    HW2 2973   1.345   1.233   8.956
  881SOL     OW 2974   0.809   0.004   7.950
  881SOL    HW1 2975   0.849   0.095   7.941
  881SOL    HW2 2976   0.709   0.012   7.956
  882SOL     OW 2977   0.197   0.976   8.712
  882SOL    HW1 2978   0.286   0.931   8.698
  882SOL    HW2 2979   0.124   0.911   8.693
  883SOL     OW 2980   1.525   0.999   7.638
  883SOL    HW1 2981   1.462   0.923   7.651
  883SOL    HW2 2982   1.573   1.017   7.724
  884SOL     OW 2983   1.187   1.792   9.064
  884SOL    HW1 2984   1.211   1.852   8.988
  884SOL    HW2 2985   1.194   1.697   9.034
  885SOL     OW 2986   0.317   0.251   9.249
  885SOL    HW1 2987   0.388   0.322   9.255
  885SOL    HW2 2988   0.229   0.290   9.277
  886SOL     OW 2989   1.466   1.417   8.401
  886SOL    HW1 2990   1.407   1.423   8.481
  886SOL    HW2 2991   1.451   1.329   8.355
  887SOL     OW 2992   1.667   1.714   8.020
  887SOL    HW1 2993   1.626   1.691   7.932
  887SOL    HW2 2994   1.649   1.640   8.085
  888SOL     OW 2995   0.598   0.729   7.718
  888SOL    HW1 2996   0.622   0.798   7.650
  888SOL    HW2 2997   0.520   0.762   7.772
  889SOL     OW 2998   1.281   0.345   8.392
  889SOL    HW1 2999   1.195   0.295   8.379
  889SOL    HW2 3000   1.343   0.291   8.448
  890SOL     OW 3001   1.576   1.662   7.755
  890SOL    HW1 3002   1.665   1.708   7.758
  890SOL    HW2 3003   1.555   1.638   7.660
  891SOL     OW 3004   0.807   0.605   8.913
  891SOL    HW1 3005   0.760   0.602   9.002
  891SOL    HW2 3006   0.756   0.550   8.847
  892SOL     OW 3007   1.394   0.469   9.122
  892SOL    HW1 3008   1.374   0.512   9.210
  892SOL    HW2 3009   1.472   0.407   9.131
  893SOL     OW 3010   0.973   0.890   9.020
  893SOL    HW1 3011   1.019   0.806   8.991
  893SOL    HW2 3012   0.917   0.924   8.945
  894SOL     OW 3013   0.991   0.410   8.690
  894SOL    HW1 3014   0.914   0.444   8.744
  894SOL    HW2 3015   0.957   0.359   8.611
  895SOL     OW 3016   1.041   0.701   7.877
  895SOL    HW1 3017   1.067   0.697   7.973
  895SOL    HW2 3018   0.956   0.650   7.863
  896SOL     OW 3019   0.076   0.811   8.237
  896SOL    HW1 3020   0.175   0.799   8.246
  896SOL    HW2 3021   0.052   0.906   8.258
  897SOL     OW 3022   0.130   1.821   9.019
  897SOL    HW1 3023   0.120   1.806   9.118
  897SOL    HW2 3024   0.044   1.857   8.983
  898SOL     OW 3025   0.865   0.348   7.643
  898SOL    HW1 3026   0.924   0.411   7.594
  898SOL    HW2 3027   0.884   0.254   7.614
  899SOL     OW 3028   1.719   0.585   9.279
  899SOL    HW1 3029   1.693   0.674   9.243
  899SOL    HW2 3030   1.717   0.517   9.206
  900SOL     OW 3031   1.362   1.144   7.993
  900SOL    HW1 3032   1.445   1.115   7.945
  900SOL    HW2 3033   1.313   1.211   7.937
  901SOL     OW 3034   0.550   0.196   8.333
  901SOL    HW1 3035   0.545   0.191   8.433
  901SOL    HW2 3036   0.552   0.292   8.304
  902SOL     OW 3037   1.008   1.456   7.925
  902SOL    HW1 3038   0.962   1.528   7.873
  902SOL    HW2 3039   1.004   1.476   8.023
  903SOL     OW 3040   0.351   1.801   8.301
  903SOL    HW1 3041   0.401   1.715   8.307
  903SOL    HW2 3042   0.416   1.878   8.298
  904SOL     OW 3043   1.795   1.066   8.321
  904SOL    HW1 3044   1.733   1.051   8.245
  904SOL    HW2 3045   1.743   1.077   8.406
  905SOL     OW 3046   1.227   1.550   8.954
  905SOL    HW1 3047   1.233   1.473   9.018
  905SOL    HW2 3048   1.175   1.524   8.874
  906SOL     OW 3049   0.321   0.943   7.690
  906SOL    HW1 3050   0.403   0.982   7.648
  906SOL    HW2 3051   0.294   0.861   7.641
  907SOL     OW 3052   1.458   0.735   8.176
  907SOL    HW1 3053   1.453   0.670   8.251
  907SOL    HW2 3054   1.538   0.794   8.189
  908SOL     OW 3055   0.461   1.266   9.175
  908SOL    HW1 3056   0.411   1.267   9.089
  908SOL    HW2 3057   0.398   1.248   9.251
  909SOL     OW 3058   1.111   1.776   7.685
  909SOL    HW1 3059   1.051   1.714   7.735
  909SOL    HW2 3060   1.142   1.732   7.600
  910SOL     OW 3061   0.202   0.285   8.946
  910SOL    HW1 3062   0.122   0.345   8.933
  910SOL    HW2 3063   0.192   0.236   9.032
  911SOL     OW 3064   1.632   1.377   7.529
  911SOL    HW1 3065   1.600   1.471   7.519
  911SOL    HW2 3066   1.556   1.314   7.517
  912SOL     OW 3067   0.464   1.743   7.771
  912SOL    HW1 3068   0.497   1.782   7.857
  912SOL    HW2 3069   0.540   1.736   7.706
  913SOL     OW 3070   1.400   0.107   7.874
  913SOL    HW1 3071   1.376   0.070   7.784
  913SOL    HW2 3072   1.499   0.123   7.878
  914SOL     OW 3073   0.249   1.785   8.689
  914SOL    HW1 3074   0.306   1.720   8.739
  914SOL    HW2 3075   0.233   1.752   8.596
  915SOL     OW 3076   0.940   1.698   8.352
  915SOL    HW1 3077   1.020   1.641   8.373
  915SOL    HW2 3078   0.891   1.658   8.275
  916SOL     OW 3079   0.382   0.700   7.928
  916SOL    HW1 3080   0.427   0.610   7.925
  916SOL    HW2 3081   0.288   0.689   7.961
  917SOL     OW 3082   1.547   0.222   9.177
  917SOL    HW1 3083   1.542   0.259   9.269
  917SOL    HW2 3084   1.475   0.153   9.165
  918SOL     OW 3085   0.614   0.122   7.565
  918SOL    HW1 3086   0.712   0.100   7.572
  918SOL    HW2 3087   0.583   0.105   7.472
  919SOL     OW 3088   0.781   0.264   9.197
  919SOL    HW1 3089   0.848   0.203   9.240
  919SOL    HW2 3090   0.708   0.283   9.262
  920SOL     OW 3091   0.888   1.514   8.643
  920SOL    HW1 3092   0.865   1.489   8.549
  920SOL    HW2 3093   0.949   1.445   8.682
  921SOL     OW 3094   1.351   0.590   8.881
  921SOL    HW1 3095   1.379   0.547   8.966
  921SOL    HW2 3096   1.376   0.686   8.882
  922SOL     OW 3097   0.803   1.402   8.372
  922SOL    HW1 3098   0.893   1.416   8.330
  922SOL    HW2 3099   0.732   1.404   8.301
  923SOL     OW 3100   0.922   0.503   8.347
  923SOL    HW1 3101   0.897   0.494   8.251
  923SOL    HW2 3102   0.970   0.421   8.378
  924SOL     OW 3103   0.539   0.064   7.960
  924SOL    HW1 3104   0.458   0.065   8.018
  924SOL    HW2 3105   0.542   0.147   7.905
  925SOL     OW 3106   1.434   1.188   7.489
  925SOL    HW1 3107   1.466   1.112   7.546
  925SOL    HW2 3108   1.342   1.215   7.519
  926SOL     OW 3109   0.297   0.035   7.619
  926SOL    HW1 3110   0.346   0.119   7.598
  926SOL    HW2 3111   0.359  -0.030   7.664
  927SOL     OW 3112   0.935   0.236   7.928
  927SOL    HW1 3113   0.887   0.277   7.850
  927SOL    HW2 3114   1.034   0.234   7.909
  928SOL     OW 3115   1.076   0.683   8.912
  928SOL    HW1 3116   0.996   0.622   8.915
  928SOL    HW2 3117   1.157   0.630   8.888
  929SOL     OW 3118   1.227   1.570   8.241
  929SOL    HW1 3119   1.248   1.644   8.176
  929SOL    HW2 3120   1.295   1.570   8.314
  930SOL     OW 3121   0.459   1.152   8.189
  930SOL    HW1 3122   0.388   1.125   8.254
  930SOL    HW2 3123   0.433   1.124   8.096
  931SOL     OW 3124   1.271   1.797   8.039
  931SOL    HW1 3125   1.315   1.861   7.975
  931SOL    HW2 3126   1.221   1.849   8.109
  932SOL     OW 3127   1.032   0.549   7.464
  932SOL    HW1 3128   0.991   0.631   7.425
  932SOL    HW2 3129   1.096   0.575   7.537
  933SOL     OW 3130   0.078   0.556   8.834
  933SOL    HW1 3131   0.170   0.555   8.793
  933SOL    HW2 3132   0.072   0.630   8.901
  934SOL     OW 3133   0.561   0.222   8.595
  934SOL    HW1 3134   0.599   0.138   8.632
  934SOL    HW2 3135   0.473   0.241   8.639
  935SOL     OW 3136   0.866   0.454   8.090
  935SOL    HW1 3137   0.834   0.526   8.028
  935SOL    HW2 3138   0.890   0.373   8.037
  936SOL     OW 3139   1.017   0.039   8.201
  936SOL    HW1 3140   0.945   0.044   8.132
  936SOL    HW2 3141   0.993  -0.030   8.270
  937SOL     OW 3142   1.429   1.173   8.315
  937SOL    HW1 3143   1.374   1.089   8.308
  937SOL    HW2 3144   1.455   1.202   8.223
  938SOL     OW 3145   1.466   0.590   8.440
  938SOL    HW1 3146   1.436   0.495   8.447
  938SOL    HW2 3147   1.539   0.606   8.506
  939SOL     OW 3148   1.857   0.833   7.825
  939SOL    HW1 3149   1.899   0.769   7.889
  939SOL    HW2 3150   1.819   0.782   7.747
  940SOL     OW 3151   0.488   1.385   7.622
  940SOL    HW1 3152   0.401   1.370   7.669
  940SOL    HW2 3153   0.471   1.411   7.527
  941SOL     OW 3154   1.664   1.280   8.105
  941SOL    HW1 3155   1.763   1.288   8.119
  941SOL    HW2 3156   1.619   1.364   8.136
  942SOL     OW 3157   1.390   0.575   7.526
  942SOL    HW1 3158   1.336   0.554   7.607
  942SOL    HW2 3159   1.481   0.534   7.535
  943SOL     OW 3160   0.527   0.256   7.776
  943SOL    HW1 3161   0.554   0.197   7.701
  943SOL    HW2 3162   0.527   0.351   7.745
  944SOL     OW 3163   1.754   1.223   9.036
  944SOL    HW1 3164   1.845   1.184   9.023
  944SOL    HW2 3165   1.762   1.319   9.060
  945SOL     OW 3166   1.064   1.347   8.788
  945SOL    HW1 3167   0.984   1.324   8.843
  945SOL    HW2 3168   1.147   1.321   8.837
  946SOL     OW 3169   1.592   1.629   9.073
  946SOL    HW1 3170   1.619   1.663   8.983
  946SOL    HW2 3171   1.671   1.591   9.119
  947SOL     OW 3172   1.111   1.195   8.548
  947SOL    HW1 3173   1.071   1.239   8.629
  947SOL    HW2 3174   1.070   1.232   8.465
  948SOL     OW 3175   1.638   1.099   8.527
  948SOL    HW1 3176   1.643   1.180   8.586
  948SOL    HW2 3177   1.552   1.101   8.476
  949SOL     OW 3178   0.915   0.089   8.850
  949SOL    HW1 3179   0.940   0.069   8.755
  949SOL    HW2 3180   0.987   0.145   8.892
  950SOL     OW 3181   0.980   1.116   9.167
  950SOL    HW1 3182   0.881   1.122   9.177
  950SOL    HW2 3183   1.003   1.036   9.111
  951SOL     OW 3184   0.705   1.050   7.816
  951SOL    HW1 3185   0.691   1.057   7.915
  951SOL    HW2 3186   0.789   0.999   7.798
  952SOL     OW 3187   0.410   0.813   8.699
  952SOL    HW1 3188   0.496   0.825   8.749
  952SOL    HW2 3189   0.368   0.726   8.726
  953SOL     OW 3190   1.274   0.386   8.710
  953SOL    HW1 3191   1.295   0.460   8.774
  953SOL    HW2 3192   1.185   0.403   8.667
  954SOL     OW 3193   0.064   1.564   8.779
  954SOL    HW1 3194   0.018   1.646   8.745
  954SOL    HW2 3195   0.162   1.583   8.788
  955SOL     OW 3196   0.367   1.100   7.949
  955SOL    HW1 3197   0.360   1.183   7.893
  955SOL    HW2 3198   0.371   1.020   7.889
  956SOL     OW 3199   0.566   0.537   8.313
  956SOL    HW1 3200   0.578   0.603   8.239
  956SOL    HW2 3201   0.612   0.571   8.396
  957SOL     OW 3202   1.252   1.348   7.836
  957SOL    HW1 3203   1.302   1.425   7.876
  957SOL    HW2 3204   1.157   1.350   7.868
  958SOL     OW 3205   1.272   1.445   8.590
  958SOL    HW1 3206   1.319   1.458   8.677
  958SOL    HW2 3207   1.206   1.371   8.599
  959SOL     OW 3208   1.582   0.639   7.920
  959SOL    HW1 3209   1.551   0.700   7.993
  959SOL    HW2 3210   1.632   0.691   7.851
  960SOL     OW 3211   0.354   1.510   8.777
  960SOL    HW1 3212   0.333   1.466   8.690
  960SOL    HW2 3213   0.451   1.536   8.780
  961SOL     OW 3214   0.402   0.751   9.046
  961SOL    HW1 3215   0.470   0.806   8.999
  961SOL    HW2 3216   0.442   0.663   9.073
  962SOL     OW 3217   1.587   0.779   9.118
  962SOL    HW1 3218   1.495   0.817   9.113
  962SOL    HW2 3219   1.647   0.826   9.053
  963SOL     OW 3220   1.013   0.105   9.218
  963SOL    HW1 3221   1.019   0.190   9.166
  963SOL    HW2 3222   1.045   0.029   9.161
  964SOL     OW 3223   0.504   0.050   9.188
  964SOL    HW1 3224   0.462  -0.007   9.118
  964SOL    HW2 3225   0.438   0.119   9.220
  965SOL     OW 3226   0.573   0.870   8.477
  965SOL    HW1 3227   0.617   0.959   8.468
  965SOL    HW2 3228   0.510   0.870   8.554
  966SOL     OW 3229   1.360   0.862   8.493
  966SOL    HW1 3230   1.285   0.862   8.427
  966SOL    HW2 3231   1.397   0.770   8.502
  967SOL     OW 3232   1.209   0.525   7.723
  967SOL    HW1 3233   1.222   0.441   7.777
  967SOL    HW2 3234   1.180   0.599   7.783
  968SOL     OW 3235   0.307   0.213   8.679
  968SOL    HW1 3236   0.284   0.250   8.769
  968SOL    HW2 3237   0.277   0.118   8.673
  969SOL     OW 3238   0.037   1.310   8.730
  969SOL    HW1 3239   0.090   1.261   8.798
  969SOL    HW2 3240   0.059   1.408   8.735
  970SOL     OW 3241   0.732   0.634   8.512
  970SOL    HW1 3242   0.791   0.608   8.436
  970SOL    HW2 3243   0.704   0.730   8.501
  971SOL     OW 3244   1.728   0.935   9.302
  971SOL    HW1 3245   1.682   0.928   9.213
  971SOL    HW2 3246   1.666   0.979   9.368
  972SOL     OW 3247   0.307   0.063   8.066
  972SOL    HW1 3248   0.296   0.157   8.099
  972SOL    HW2 3249   0.302   0.000   8.143
  973SOL     OW 3250   1.622   0.367   7.822
  973SOL    HW1 3251   1.624   0.291   7.886
  973SOL    HW2 3252   1.574   0.444   7.862
  974SOL     OW 3253   1.023   0.766   8.414
  974SOL    HW1 3254   1.038   0.787   8.510
  974SOL    HW2 3255   0.993   0.671   8.405
  975SOL     OW 3256   0.980   1.573   9.148
  975SOL    HW1 3257   0.960   1.617   9.060
  975SOL    HW2 3258   1.019   1.482   9.132
  976SOL     OW 3259   1.859   1.518   9.053
  976SOL    HW1 3260   1.873   1.545   8.958
  976SOL    HW2 3261   1.942   1.540   9.106
  977SOL     OW 3262   0.350   0.898   9.252
  977SOL    HW1 3263   0.426   0.942   9.300
  977SOL    HW2 3264   0.385   0.851   9.170
  978SOL     OW 3265   1.540   0.274   7.573
  978SOL    HW1 3266   1.479   0.199   7.596
  978SOL    HW2 3267   1.562   0.326   7.656
  979SOL     OW 3268   1.303   0.838   7.490
  979SOL    HW1 3269   1.337   0.745   7.505
  979SOL    HW2 3270   1.321   0.865   7.395
  980SOL     OW 3271   1.068   1.333   8.297
  980SOL    HW1 3272   1.075   1.249   8.242
  980SOL    HW2 3273   1.130   1.402   8.261
  981SOL     OW 3274   0.319   0.810   8.397
  981SOL    HW1 3275   0.412   0.846   8.402
  981SOL    HW2 3276   0.313   0.725   8.449
  982SOL     OW 3277   0.339   0.509   8.454
  982SOL    HW1 3278   0.287   0.426   8.437
  982SOL    HW2 3279   0.416   0.514   8.390
  983SOL     OW 3280   1.138   0.380   9.126
  983SOL    HW1 3281   1.093   0.443   9.190
  983SOL    HW2 3282   1.231   0.411   9.109
  984SOL     OW 3283   1.160   0.207   8.925
  984SOL    HW1 3284   1.160   0.271   9.002
  984SOL    HW2 3285   1.188   0.255   8.842
  985SOL     OW 3286   0.008   1.326   7.648
  985SOL    HW1 3287  -0.085   1.347   7.617
  985SOL    HW2 3288   0.018   1.227   7.661
  986SOL     OW 3289   0.088   1.801   8.375
  986SOL    HW1 3290   0.046   1.715   8.348
  986SOL    HW2 3291   0.182   1.804   8.341
  987SOL     OW 3292   0.504   1.568   8.358
  987SOL    HW1 3293   0.570   1.642   8.367
  987SOL    HW2 3294   0.548   1.489   8.316
  988SOL     OW 3295   1.002   0.796   8.686
  988SOL    HW1 3296   1.043   0.764   8.772
  988SOL    HW2 3297   0.906   0.769   8.683
  989SOL     OW 3298   0.040   0.544   8.562
  989SOL    HW1 3299   0.125   0.511   8.521
  989SOL    HW2 3300   0.053   0.559   8.660
  990SOL     OW 3301   0.189   0.520   9.170
  990SOL    HW1 3302   0.248   0.480   9.100
  990SOL    HW2 3303   0.131   0.591   9.129
  991SOL     OW 3304   1.369   0.950   9.108
  991SOL    HW1 3305   1.408   1.039   9.128
  991SOL    HW2 3306   1.379   0.930   9.011
  992SOL     OW 3307   0.815   0.572   7.773
  992SOL    HW1 3308   0.822   0.483   7.727
  992SOL    HW2 3309   0.721   0.606   7.765
  993SOL     OW 3310   1.657   0.604   8.654
  993SOL    HW1 3311   1.619   0.535   8.716
  993SOL    HW2 3312   1.739   0.568   8.610
  994SOL     OW 3313   0.252   1.564   9.192
  994SOL    HW1 3314   0.222   1.621   9.268
  994SOL    HW2 3315   0.245   1.467   9.218
  995SOL     OW 3316   0.671   0.464   8.717
  995SOL    HW1 3317   0.637   0.375   8.687
  995SOL    HW2 3318   0.697   0.518   8.637
  996SOL     OW 3319   0.930   1.678   8.913
  996SOL    HW1 3320   0.906   1.660   8.818
  996SOL    HW2 3321   0.960   1.772   8.923
  997SOL     OW 3322   0.473   0.500   7.639
  997SOL    HW1 3323   0.534   0.580   7.643
  997SOL    HW2 3324   0.378   0.531   7.646
  998SOL     OW 3325   0.159   1.137   8.914
  998SOL    HW1 3326   0.181   1.076   8.990
  998SOL    HW2 3327   0.169   1.088   8.828
  999SOL     OW 3328   1.347   1.059   8.682
  999SOL    HW1 3329   1.371   0.996   8.608
  999SOL    HW2 3330   1.257   1.099   8.664
 1000SOL     OW 3331   1.302   0.855   7.757
 1000SOL    HW1 3332   1.216   0.824   7.799
 1000SOL    HW2 3333   1.298   0.841   7.658
 1001SOL     OW 3334   1.759   1.747   8.602
 1001SOL    HW1 3335   1.820   1.777   8.529
 1001SOL    HW2 3336   1.721   1.658   8.580
 1002SOL     OW 3337   1.252   1.731   8.576
 1002SOL    HW1 3338   1.336   1.736   8.522
 1002SOL    HW2 3339   1.229   1.635   8.594
 1003SOL     OW 3340   0.083   1.258   8.470
 1003SOL    HW1 3341   0.078   1.257   8.570
 1003SOL    HW2 3342   0.000   1.217   8.432
 1004SOL     OW 3343   0.688   1.662   9.164
 1004SOL    HW1 3344   0.632   1.743   9.173
 1004SOL    HW2 3345   0.740   1.666   9.078
 1005SOL     OW 3346   1.726   0.135   7.971
 1005SOL    HW1 3347   1.799   0.118   7.904
 1005SOL    HW2 3348   1.695   0.048   8.009
 1006SOL     OW 3349   1.388   1.573   7.925
 1006SOL    HW1 3350   1.455   1.585   7.851
 1006SOL    HW2 3351   1.348   1.662   7.948
 1007SOL     OW 3352   0.130   1.794   9.299
 1007SOL    HW1 3353   0.089   1.720   9.352
 1007SOL    HW2 3354   0.194   1.845   9.357
 1008SOL     OW 3355   1.280   0.927   8.120
 1008SOL    HW1 3356   1.340   0.846   8.122
 1008SOL    HW2 3357   1.320   0.996   8.060
 1009SOL     OW 3358   0.830   1.273   8.870
 1009SOL    HW1 3359   0.825   1.306   8.965
 1009SOL    HW2 3360   0.744   1.292   8.824
 1010SOL     OW 3361   0.672   1.616   7.602
 1010SOL    HW1 3362   0.681   1.626   7.503
 1010SOL    HW2 3363   0.632   1.527   7.623
 1011SOL     OW 3364   1.650   1.720   8.842
 1011SOL    HW1 3365   1.703   1.730   8.758
 1011SOL    HW2 3366   1.623   1.810   8.876
 1012SOL     OW 3367   1.841   0.175   8.411
 1012SOL    HW1 3368   1.880   0.090   8.375
 1012SOL    HW2 3369   1.743   0.177   8.392
 1013SOL     OW 3370   0.263   0.326   8.168
 1013SOL    HW1 3371   0.184   0.377   8.134
 1013SOL    HW2 3372   0.254   0.311   8.266
 1014SOL     OW 3373   1.194   1.612   7.479
 1014SOL    HW1 3374   1.200   1.519   7.516
 1014SOL    HW2 3375   1.135   1.612   7.399
 1015SOL     OW 3376   0.822   1.002   8.820
 1015SOL    HW1 3377   0.862   1.001   8.728
 1015SOL    HW2 3378   0.832   1.094   8.860
 1016SOL     OW 3379   0.916   0.910   7.739
 1016SOL    HW1 3380   0.979   0.948   7.671
 1016SOL    HW2 3381   0.956   0.827   7.778
 1017SOL     OW 3382   1.504   1.607   7.492
 1017SOL    HW1 3383   1.412   1.644   7.499
 1017SOL    HW2 3384   1.542   1.627   7.402
 1018SOL     OW 3385   0.372   1.288   8.938
 1018SOL    HW1 3386   0.359   1.381   8.904
 1018SOL    HW2 3387   0.288   1.236   8.925
 1019SOL     OW 3388   1.614   1.292   8.737
 1019SOL    HW1 3389   1.674   1.295   8.817
 1019SOL    HW2 3390   1.539   1.356   8.750
 1020SOL     OW 3391   1.039   1.098   8.144
 1020SOL    HW1 3392   0.969   1.051   8.198
 1020SOL    HW2 3393   1.098   1.030   8.101
 1021SOL     OW 3394   1.014   0.236   8.419
 1021SOL    HW1 3395   1.006   0.200   8.326
 1021SOL    HW2 3396   1.012   0.160   8.484
 1022SOL     OW 3397   0.590   1.487   7.939
 1022SOL    HW1 3398   0.632   1.429   7.869
 1022SOL    HW2 3399   0.546   1.566   7.895
 1023SOL     OW 3400   1.709   0.385   8.829
 1023SOL    HW1 3401   1.782   0.454   8.833
 1023SOL    HW2 3402   1.737   0.310   8.770
 1024SOL     OW 3403   0.255   1.348   7.738
 1024SOL    HW1 3404   0.159   1.349   7.711
 1024SOL    HW2 3405   0.267   1.401   7.822
 1025SOL     OW 3406   0.105   1.013   9.174
 1025SOL    HW1 3407   0.028   0.980   9.228
 1025SOL    HW2 3408   0.190   0.983   9.216
 1026SOL     OW 3409   0.672   0.203   8.937
 1026SOL    HW1 3410   0.762   0.187   8.897
 1026SOL    HW2 3411   0.680   0.208   9.036
 1027SOL     OW 3412   0.075   0.345   7.481
 1027SOL    HW1 3413  -0.017   0.317   7.452
 1027SOL    HW2 3414   0.106   0.422   7.425
 1028SOL     OW 3415   1.440   0.856   8.846
 1028SOL    HW1 3416   1.383   0.908   8.783
 1028SOL    HW2 3417   1.536   0.868   8.822
 1029SOL     OW 3418   0.072   0.166   7.766
 1029SOL    HW1 3419   0.055   0.249   7.712
 1029SOL    HW2 3420   0.162   0.129   7.744
 1030SOL     OW 3421   1.183   1.335   7.567
 1030SOL    HW1 3422   1.084   1.324   7.569
 1030SOL    HW2 3423   1.217   1.350   7.660
 1031SOL     OW 3424   0.613   0.842   8.879
 1031SOL    HW1 3425   0.669   0.923   8.862
 1031SOL    HW2 3426   0.672   0.762   8.882
 1032SOL     OW 3427   1.493   1.767   8.407
 1032SOL    HW1 3428   1.526   1.831   8.338
 1032SOL    HW2 3429   1.559   1.761   8.482
 1033SOL     OW 3430   0.716   0.565   9.156
 1033SOL    HW1 3431   0.735   0.630   9.230
 1033SOL    HW2 3432   0.776   0.485   9.165
 1034SOL     OW 3433   1.450   1.220   9.081
 1034SOL    HW1 3434   1.441   1.210   9.180
 1034SOL    HW2 3435   1.546   1.213   9.055
 1035SOL     OW 3436   0.390   1.741   9.008
 1035SOL    HW1 3437   0.299   1.782   9.006
 1035SOL    HW2 3438   0.383   1.647   9.040
 1036SOL     OW 3439   1.674   0.883   8.702
 1036SOL    HW1 3440   1.647   0.794   8.665
 1036SOL    HW2 3441   1.675   0.951   8.629
 1037SOL     OW 3442   1.225   0.325   7.897
 1037SOL    HW1 3443   1.290   0.251   7.886
 1037SOL    HW2 3444   1.245   0.375   7.981
 1038SOL     OW 3445   0.594   0.745   8.100
 1038SOL    HW1 3446   0.644   0.830   8.081
 1038SOL    HW2 3447   0.506   0.747   8.052
 1039SOL     OW 3448   1.777   0.342   9.090
 1039SOL    HW1 3449   1.760   0.373   8.996
 1039SOL    HW2 3450   1.693   0.305   9.128
 1040SOL     OW 3451   1.730   0.934   8.965
 1040SOL    HW1 3452   1.768   1.025   8.980
 1040SOL    HW2 3453   1.722   0.917   8.866
 1041SOL     OW 3454   0.859   1.374   7.464
 1041SOL    HW1 3455   0.813   1.389   7.552
 1041SOL    HW2 3456   0.903   1.459   7.434
 1042SOL     OW 3457   0.661   1.790   8.401
 1042SOL    HW1 3458   0.615   1.878   8.388
 1042SOL    HW2 3459   0.760   1.802   8.394
 1043SOL     OW 3460   0.859   0.956   8.309
 1043SOL    HW1 3461   0.913   0.887   8.357
 1043SOL    HW2 3462   0.827   1.025   8.375
 1044SOL     OW 3463   1.083   0.984   7.535
 1044SOL    HW1 3464   1.060   1.037   7.453
 1044SOL    HW2 3465   1.164   0.928   7.516
 1045SOL     OW 3466   1.861   1.569   8.299
 1045SOL    HW1 3467   1.790   1.557   8.229
 1045SOL    HW2 3468   1.862   1.490   8.359
 1046SOL     OW 3469   0.221   1.314   9.292
 1046SOL    HW1 3470   0.156   1.241   9.271
 1046SOL    HW2 3471   0.225   1.328   9.390
 1047SOL     OW 3472   0.079   1.240   8.101
 1047SOL    HW1 3473   0.078   1.193   8.189
 1047SOL    HW2 3474   0.161   1.212   8.050
 1048SOL     OW 3475   0.672   1.391   9.072
 1048SOL    HW1 3476   0.594   1.341   9.110
 1048SOL    HW2 3477   0.669   1.486   9.103
 1049SOL     OW 3478   1.824   0.192   8.675
 1049SOL    HW1 3479   1.820   0.102   8.719
 1049SOL    HW2 3480   1.827   0.181   8.576
 1050SOL     OW 3481   0.428   0.424   7.968
 1050SOL    HW1 3482   0.458   0.352   7.906
 1050SOL    HW2 3483   0.389   0.384   8.051
 1051SOL     OW 3484   1.705   1.487   8.552
 1051SOL    HW1 3485   1.612   1.462   8.525
 1051SOL    HW2 3486   1.731   1.437   8.634
 1052SOL     OW 3487   0.317   0.547   8.728
 1052SOL    HW1 3488   0.355   0.488   8.800
 1052SOL    HW2 3489   0.357   0.521   8.640
 1053SOL     OW 3490   0.812   1.586   8.135
 1053SOL    HW1 3491   0.844   1.596   8.041
 1053SOL    HW2 3492   0.733   1.524   8.137
 1054SOL     OW 3493   1.424   0.214   8.560
 1054SOL    HW1 3494   1.476   0.149   8.615
 1054SOL    HW2 3495   1.375   0.277   8.621
 1055SOL     OW 3496   1.001   0.034   8.602
 1055SOL    HW1 3497   0.938  -0.038   8.571
 1055SOL    HW2 3498   1.094  -0.002   8.602
 1056SOL     OW 3499   0.770   1.330   7.749
 1056SOL    HW1 3500   0.724   1.243   7.766
 1056SOL    HW2 3501   0.861   1.327   7.790
 1057SOL     OW 3502   0.618   1.567   8.732
 1057SOL    HW1 3503   0.613   1.649   8.789
 1057SOL    HW2 3504   0.707   1.564   8.687
 1058SOL     OW 3505   1.352   0.052   7.616
 1058SOL    HW1 3506   1.387   0.011   7.532
 1058SOL    HW2 3507   1.262   0.014   7.636
 1059SOL     OW 3508   1.300   0.453   8.139
 1059SOL    HW1 3509   1.241   0.533   8.143
 1059SOL    HW2 3510   1.315   0.418   8.232
 1060SOL     OW 3511   1.593   0.221   8.330
 1060SOL    HW1 3512   1.509   0.220   8.384
 1060SOL    HW2 3513   1.595   0.304   8.274
 1061SOL     OW 3514   0.039   1.077   7.748
 1061SOL    HW1 3515   0.138   1.066   7.739
 1061SOL    HW2 3516  -0.001   0.991   7.780
 1062SOL     OW 3517   0.875   1.646   7.785
 1062SOL    HW1 3518   0.798   1.611   7.731
 1062SOL    HW2 3519   0.843   1.717   7.847
 1063SOL     OW 3520   0.230   0.628   9.423
 1063SOL    HW1 3521   0.137   0.626   9.460
 1063SOL    HW2 3522   0.231   0.589   9.331
 1064SOL     OW 3523   0.225   0.275  10.306
 1064SOL    HW1 3524   0.260   0.258  10.398
 1064SOL    HW2 3525   0.137   0.230  10.294
 1065SOL     OW 3526   0.019   0.368   9.957
 1065SOL    HW1 3527  -0.063   0.411   9.996
 1065SOL    HW2 3528  -0.009   0.295   9.894
 1066SOL     OW 3529   0.569   1.275  10.475
 1066SOL    HW1 3530   0.476   1.268  10.438
 1066SOL    HW2 3531   0.580   1.364  10.519
 1067SOL     OW 3532   1.555   1.511  10.013
 1067SOL    HW1 3533   1.498   1.495  10.094
 1067SOL    HW2 3534   1.496   1.521   9.933
 1068SOL     OW 3535   1.135   0.703  10.027
 1068SOL    HW1 3536   1.192   0.781  10.002
 1068SOL    HW2 3537   1.075   0.729  10.103
 1069SOL     OW 3538   1.755   0.607   9.541
 1069SOL    HW1 3539   1.743   0.594   9.442
 1069SOL    HW2 3540   1.725   0.526   9.590
 1070SOL     OW 3541   0.768   1.144  10.333
 1070SOL    HW1 3542   0.690   1.161  10.393
 1070SOL    HW2 3543   0.802   1.231  10.297
 1071SOL     OW 3544   0.685   1.012   9.975
 1071SOL    HW1 3545   0.754   0.996  10.045
 1071SOL    HW2 3546   0.612   1.069  10.013
 1072SOL     OW 3547   0.335   1.435  10.371
 1072SOL    HW1 3548   0.257   1.404  10.318
 1072SOL    HW2 3549   0.393   1.493  10.314
 1073SOL     OW 3550   1.460   1.505  10.649
 1073SOL    HW1 3551   1.484   1.599  10.675
 1073SOL    HW2 3552   1.444   1.451  10.731
 1074SOL     OW 3553   0.438   0.392  10.809
 1074SOL    HW1 3554   0.520   0.336  10.818
 1074SOL    HW2 3555   0.357   0.334  10.813
 1075SOL     OW 3556   1.603   0.447  10.047
 1075SOL    HW1 3557   1.529   0.493   9.997
 1075SOL    HW2 3558   1.654   0.515  10.100
 1076SOL     OW 3559   0.231   1.713   9.793
 1076SOL    HW1 3560   0.265   1.790   9.847
 1076SOL    HW2 3561   0.275   1.713   9.703
 1077SOL     OW 3562   0.230   1.434   9.848
 1077SOL    HW1 3563   0.204   1.530   9.848
 1077SOL    HW2 3564   0.159   1.380   9.893
 1078SOL     OW 3565   0.240   1.091  10.196
 1078SOL    HW1 3566   0.254   1.007  10.248
 1078SOL    HW2 3567   0.185   1.155  10.251
 1079SOL     OW 3568   0.620   1.786  10.749
 1079SOL    HW1 3569   0.528   1.769  10.784
 1079SOL    HW2 3570   0.648   1.878  10.775
 1080SOL     OW 3571   0.606   0.964   9.433
 1080SOL    HW1 3572   0.613   1.048   9.379
 1080SOL    HW2 3573   0.652   0.977   9.521
 1081SOL     OW 3574   1.594   0.114  10.790
 1081SOL    HW1 3575   1.576   0.181  10.718
 1081SOL    HW2 3576   1.591   0.160  10.879
 1082SOL     OW 3577   0.122   0.643   9.873
 1082SOL    HW1 3578   0.077   0.555   9.890
 1082SOL    HW2 3579   0.121   0.697   9.957
 1083SOL     OW 3580   1.842   1.767   9.669
 1083SOL    HW1 3581   1.896   1.738   9.749
 1083SOL    HW2 3582   1.872   1.857   9.640
 1084SOL     OW 3583   0.027   1.596   9.427
 1084SOL    HW1 3584   0.008   1.500   9.448
 1084SOL    HW2 3585  -0.006   1.654   9.502
 1085SOL     OW 3586   1.689   0.922   9.922
 1085SOL    HW1 3587   1.784   0.893   9.930
 1085SOL    HW2 3588   1.681   0.987   9.847
 1086SOL     OW 3589   1.641   1.108   9.742
 1086SOL    HW1 3590   1.727   1.110   9.690
 1086SOL    HW2 3591   1.655   1.155   9.830
 1087SOL     OW 3592   0.113   0.737  10.907
 1087SOL    HW1 3593   0.201   0.724  10.952
 1087SOL    HW2 3594   0.100   0.834  10.885
 1088SOL     OW 3595   0.613   1.365  10.036
 1088SOL    HW1 3596   0.564   1.278  10.045
 1088SOL    HW2 3597   0.590   1.408   9.949
 1089SOL     OW 3598   1.293   1.228  10.733
 1089SOL    HW1 3599   1.330   1.155  10.675
 1089SOL    HW2 3600   1.345   1.233  10.818
 1090SOL     OW 3601   0.809   0.004   9.812
 1090SOL    HW1 3602   0.849   0.095   9.803
 1090SOL    HW2 3603   0.709   0.012   9.818
 1091SOL     OW 3604   0.197   0.976  10.574
 1091SOL    HW1 3605   0.286   0.931  10.560
 1091SOL    HW2 3606   0.124   0.911  10.555
 1092SOL     OW 3607   1.525   0.999   9.500
 1092SOL    HW1 3608   1.462   0.923   9.513
 1092SOL    HW2 3609   1.573   1.017   9.586
 1093SOL     OW 3610   1.466   1.417  10.263
 1093SOL    HW1 3611   1.407   1.423  10.343
 1093SOL    HW2 3612   1.451   1.329  10.217
 1094SOL     OW 3613   1.667   1.714   9.882
 1094SOL    HW1 3614   1.626   1.691   9.794
 1094SOL    HW2 3615   1.649   1.640   9.947
 1095SOL     OW 3616   0.598   0.729   9.580
 1095SOL    HW1 3617   0.622   0.798   9.512
 1095SOL    HW2 3618   0.520   0.762   9.634
 1096SOL     OW 3619   1.281   0.345  10.254
 1096SOL    HW1 3620   1.195   0.295  10.241
 1096SOL    HW2 3621   1.343   0.291  10.310
 1097SOL     OW 3622   1.576   1.662   9.617
 1097SOL    HW1 3623   1.665   1.708   9.620
 1097SOL    HW2 3624   1.555   1.638   9.522
 1098SOL     OW 3625   0.807   0.605  10.775
 1098SOL    HW1 3626   0.760   0.602  10.864
 1098SOL    HW2 3627   0.756   0.550  10.709
 1099SOL     OW 3628   0.973   0.890  10.882
 1099SOL    HW1 3629   1.019   0.806  10.853
 1099SOL    HW2 3630   0.917   0.924  10.807
 1100SOL     OW 3631   0.991   0.410  10.552
 1100SOL    HW1 3632   0.914   0.444  10.606
 1100SOL    HW2 3633   0.957   0.359  10.473
 1101SOL     OW 3634   1.041   0.701   9.739
 1101SOL    HW1 3635   1.067   0.697   9.835
 1101SOL    HW2 3636   0.956   0.650   9.725
 1102SOL     OW 3637   0.076   0.811  10.099
 1102SOL    HW1 3638   0.175   0.799  10.108
 1102SOL    HW2 3639   0.052   0.906  10.120
 1103SOL     OW 3640   0.130   1.821  10.881
 1103SOL    HW1 3641   0.120   1.806  10.980
 1103SOL    HW2 3642   0.044   1.857  10.845
 1104SOL     OW 3643   0.865   0.348   9.505
 1104SOL    HW1 3644   0.924   0.411   9.456
 1104SOL    HW2 3645   0.884   0.254   9.476
 1105SOL     OW 3646   1.362   1.144   9.855
 1105SOL    HW1 3647   1.445   1.115   9.807
 1105SOL    HW2 3648   1.313   1.211   9.799
 1106SOL     OW 3649   0.550   0.196  10.195
 1106SOL    HW1 3650   0.545   0.191  10.295
 1106SOL    HW2 3651   0.552   0.292  10.166
 1107SOL     OW 3652   1.008   1.456   9.787
 1107SOL    HW1 3653   0.962   1.528   9.735
 1107SOL    HW2 3654   1.004   1.476   9.885
 1108SOL     OW 3655   0.351   1.801  10.163
 1108SOL    HW1 3656   0.401   1.715  10.169
 1108SOL    HW2 3657   0.416   1.878  10.160
 1109SOL     OW 3658   1.795   1.066  10.183
 1109SOL    HW1 3659   1.733   1.051  10.107
 1109SOL    HW2 3660   1.743   1.077  10.268
 1110SOL     OW 3661   1.227   1.550  10.816
 1110SOL    HW1 3662   1.233   1.473  10.880
 1110SOL    HW2 3663   1.175   1.524  10.736
 1111SOL     OW 3664   0.321   0.943   9.552
 1111SOL    HW1 3665   0.403   0.982   9.510
 1111SOL    HW2 3666   0.294   0.861   9.503
 1112SOL     OW 3667   1.458   0.735  10.038
 1112SOL    HW1 3668   1.453   0.670  10.113
 1112SOL    HW2 3669   1.538   0.794  10.051
 1113SOL     OW 3670   1.111   1.776   9.547
 1113SOL    HW1 3671   1.051   1.714   9.597
 1113SOL    HW2 3672   1.142   1.732   9.462
 1114SOL     OW 3673   0.202   0.285  10.808
 1114SOL    HW1 3674   0.122   0.345  10.795
 1114SOL    HW2 3675   0.192   0.236  10.894
 1115SOL     OW 3676   1.632   1.377   9.391
 1115SOL    HW1 3677   1.600   1.471   9.381
 1115SOL    HW2 3678   1.556   1.314   9.379
 1116SOL     OW 3679   0.464   1.743   9.633
 1116SOL    HW1 3680   0.497   1.782   9.719
 1116SOL    HW2 3681   0.540   1.736   9.568
 1117SOL     OW 3682   1.400   0.107   9.736
 1117SOL    HW1 3683   1.376   0.070   9.646
 1117SOL    HW2 3684   1.499   0.123   9.740
 1118SOL     OW 3685   0.249   1.785  10.551
 1118SOL    HW1 3686   0.306   1.720  10.601
 1118SOL    HW2 3687   0.233   1.752  10.458
 1119SOL     OW 3688   0.940   1.698  10.214
 1119SOL    HW1 3689   1.020   1.641  10.235
 1119SOL    HW2 3690   0.891   1.658  10.137
 1120SOL     OW 3691   0.382   0.700   9.790
 1120SOL    HW1 3692   0.427   0.610   9.787
 1120SOL    HW2 3693   0.288   0.689   9.823
 1121SOL     OW 3694   0.614   0.122   9.427
 1121SOL    HW1 3695   0.712   0.100   9.434
 1121SOL    HW2 3696   0.583   0.105   9.334
 1122SOL     OW 3697   0.888   1.514  10.505
 1122SOL    HW1 3698   0.865   1.489  10.411
 1122SOL    HW2 3699   0.949   1.445  10.544
 1123SOL     OW 3700   1.351   0.590  10.743
 1123SOL    HW1 3701   1.379   0.547  10.828
 1123SOL    HW2 3702   1.376   0.686  10.744
 1124SOL     OW 3703   0.803   1.402  10.234
 1124SOL    HW1 3704   0.893   1.416  10.192
 1124SOL    HW2 3705   0.732   1.404  10.163
 1125SOL     OW 3706   0.922   0.503  10.209
 1125SOL    HW1 3707   0.897   0.494  10.113
 1125SOL    HW2 3708   0.970   0.421  10.240
 1126SOL     OW 3709   0.539   0.064   9.822
 1126SOL    HW1 3710   0.458   0.065   9.880
 1126SOL    HW2 3711   0.542   0.147   9.767
 1127SOL     OW 3712   1.434   1.188   9.351
 1127SOL    HW1 3713   1.466   1.112   9.408
 1127SOL    HW2 3714   1.342   1.215   9.381
 1128SOL     OW 3715   0.297   0.035   9.481
 1128SOL    HW1 3716   0.346   0.119   9.460
 1128SOL    HW2 3717   0.359  -0.030   9.526
 1129SOL     OW 3718   0.935   0.236   9.790
 1129SOL    HW1 3719   0.887   0.277   9.712
 1129SOL    HW2 3720   1.034   0.234   9.771
 1130SOL     OW 3721   1.076   0.683  10.774
 1130SOL    HW1 3722   0.996   0.622  10.777
 1130SOL    HW2 3723   1.157   0.630  10.750
 1131SOL     OW 3724   1.227   1.570  10.103
 1131SOL    HW1 3725   1.248   1.644  10.038
 1131SOL    HW2 3726   1.295   1.570  10.176
 1132SOL     OW 3727   0.459   1.152  10.051
 1132SOL    HW1 3728   0.388   1.125  10.116
 1132SOL    HW2 3729   0.433   1.124   9.958
 1133SOL     OW 3730   1.271   1.797   9.901
 1133SOL    HW1 3731   1.315   1.861   9.837
 1133SOL    HW2 3732   1.221   1.849   9.971
 1134SOL     OW 3733   1.032   0.549   9.326
 1134SOL    HW1 3734   0.991   0.631   9.287
 1134SOL    HW2 3735   1.096   0.575   9.399
 1135SOL     OW 3736   0.078   0.556  10.696
 1135SOL    HW1 3737   0.170   0.555  10.655
 1135SOL    HW2 3738   0.072   0.630  10.763
 1136SOL     OW 3739   0.561   0.222  10.457
 1136SOL    HW1 3740   0.599   0.138  10.494
 1136SOL    HW2 3741   0.473   0.241  10.501
 1137SOL     OW 3742   0.866   0.454   9.952
 1137SOL    HW1 3743   0.834   0.526   9.890
 1137SOL    HW2 3744   0.890   0.373   9.899
 1138SOL     OW 3745   1.017   0.039  10.063
 1138SOL    HW1 3746   0.945   0.044   9.994
 1138SOL    HW2 3747   0.993  -0.030  10.132
 1139SOL     OW 3748   1.429   1.173  10.177
 1139SOL    HW1 3749   1.374   1.089  10.170
 1139SOL    HW2 3750   1.455   1.202  10.085
 1140SOL     OW 3751   1.466   0.590  10.302
 1140SOL    HW1 3752   1.436   0.495  10.309
 1140SOL    HW2 3753   1.539   0.606  10.368
 1141SOL     OW 3754   1.857   0.833   9.687
 1141SOL    HW1 3755   1.899   0.769   9.751
 1141SOL    HW2 3756   1.819   0.782   9.609
 1142SOL     OW 3757   0.488   1.385   9.484
 1142SOL    HW1 3758   0.401   1.370   9.531
 1142SOL    HW2 3759   0.471   1.411   9.389
 1143SOL     OW 3760   1.664   1.280   9.967
 1143SOL    HW1 3761   1.763   1.288   9.981
 1143SOL    HW2 3762   1.619   1.364   9.998
 1144SOL     OW 3763   1.390   0.575   9.388
 1144SOL    HW1 3764   1.336   0.554   9.469
 1144SOL    HW2 3765   1.481   0.534   9.397
 1145SOL     OW 3766   0.527   0.256   9.638
 1145SOL    HW1 3767   0.554   0.197   9.563
 1145SOL    HW2 3768   0.527   0.351   9.607
 1146SOL     OW 3769   1.754   1.223  10.898
 1146SOL    HW1 3770   1.845   1.184  10.885
 1146SOL    HW2 3771   1.762   1.319  10.922
 1147SOL     OW 3772   1.064   1.347  10.650
 1147SOL    HW1 3773   0.984   1.324  10.705
 1147SOL    HW2 3774   1.147   1.321  10.699
 1148SOL     OW 3775   1.111   1.195  10.410
 1148SOL    HW1 3776   1.071   1.239  10.491
 1148SOL    HW2 3777   1.070   1.232  10.327
 1149SOL     OW 3778   1.638   1.099  10.389
 1149SOL    HW1 3779   1.643   1.180  10.448
 1149SOL    HW2 3780   1.552   1.101  10.338
 1150SOL     OW 3781   0.915   0.089  10.712
 1150SOL    HW1 3782   0.940   0.069  10.617
 1150SOL    HW2 3783   0.987   0.145  10.754
 1151SOL     OW 3784   0.705   1.050   9.678
 1151SOL    HW1 3785   0.691   1.057   9.777
 1151SOL    HW2 3786   0.789   0.999   9.660
 1152SOL     OW 3787   0.410   0.813  10.561
 1152SOL    HW1 3788   0.496   0.825  10.611
 1152SOL    HW2 3789   0.368   0.726  10.588
 1153SOL     OW 3790   1.274   0.386  10.572
 1153SOL    HW1 3791   1.295   0.460  10.636
 1153SOL    HW2 3792   1.185   0.403  10.529
 1154SOL     OW 3793   0.064   1.564  10.641
 1154SOL    HW1 3794   0.018   1.646  10.607
 1154SOL    HW2 3795   0.162   1.583  10.650
 1155SOL     OW 3796   0.367   1.100   9.811
 1155SOL    HW1 3797   0.360   1.183   9.755
 1155SOL    HW2 3798   0.371   1.020   9.751
 1156SOL     OW 3799   0.566   0.537  10.175
 1156SOL    HW1 3800   0.578   0.603  10.101
 1156SOL    HW2 3801   0.612   0.571  10.258
 1157SOL     OW 3802   1.252   1.348   9.698
 1157SOL    HW1 3803   1.302   1.425   9.738
 1157SOL    HW2 3804   1.157   1.350   9.730
 1158SOL     OW 3805   1.272   1.445  10.452
 1158SOL    HW1 3806   1.319   1.458  10.539
 1158SOL    HW2 3807   1.206   1.371  10.461
 1159SOL     OW 3808   1.582   0.639   9.782
 1159SOL    HW1 3809   1.551   0.700   9.855
 1159SOL    HW2 3810   1.632   0.691   9.713
 1160SOL     OW 3811   0.354   1.510  10.639
 1160SOL    HW1 3812   0.333   1.466  10.552
 1160SOL    HW2 3813   0.451   1.536  10.642
 1161SOL     OW 3814   0.402   0.751  10.908
 1161SOL    HW1 3815   0.470   0.806  10.861
 1161SOL    HW2 3816   0.442   0.663  10.935
 1162SOL     OW 3817   1.587   0.779  10.980
 1162SOL    HW1 3818   1.495   0.817  10.975
 1162SOL    HW2 3819   1.647   0.826  10.915
 1163SOL     OW 3820   0.573   0.870  10.339
 1163SOL    HW1 3821   0.617   0.959  10.330
 1163SOL    HW2 3822   0.510   0.870  10.416
 1164SOL     OW 3823   1.360   0.862  10.355
 1164SOL    HW1 3824   1.285   0.862  10.289
 1164SOL    HW2 3825   1.397   0.770  10.364
 1165SOL     OW 3826   1.209   0.525   9.585
 1165SOL    HW1 3827   1.222   0.441   9.639
 1165SOL    HW2 3828   1.180   0.599   9.645
 1166SOL     OW 3829   0.307   0.213  10.541
 1166SOL    HW1 3830   0.284   0.250  10.631
 1166SOL    HW2 3831   0.277   0.118  10.535
 1167SOL     OW 3832   0.037   1.310  10.592
 1167SOL    HW1 3833   0.090   1.261  10.660
 1167SOL    HW2 3834   0.059   1.408  10.597
 1168SOL     OW 3835   0.732   0.634  10.374
 1168SOL    HW1 3836   0.791   0.608  10.298
 1168SOL    HW2 3837   0.704   0.730  10.363
 1169SOL     OW 3838   0.307   0.063   9.928
 1169SOL    HW1 3839   0.296   0.157   9.961
 1169SOL    HW2 3840   0.302   0.000  10.005
 1170SOL     OW 3841   1.622   0.367   9.684
 1170SOL    HW1 3842   1.624   0.291   9.748
 1170SOL    HW2 3843   1.574   0.444   9.724
 1171SOL     OW 3844   1.023   0.766  10.276
 1171SOL    HW1 3845   1.038   0.787  10.372
 1171SOL    HW2 3846   0.993   0.671  10.267
 1172SOL     OW 3847   1.540   0.274   9.435
 1172SOL    HW1 3848   1.479   0.199   9.458
 1172SOL    HW2 3849   1.562   0.326   9.518
 1173SOL     OW 3850   1.303   0.838   9.352
 1173SOL    HW1 3851   1.337   0.745   9.367
 1173SOL    HW2 3852   1.321   0.865   9.257
 1174SOL     OW 3853   1.068   1.333  10.159
 1174SOL    HW1 3854   1.075   1.249  10.104
 1174SOL    HW2 3855   1.130   1.402  10.123
 1175SOL     OW 3856   0.319   0.810  10.259
 1175SOL    HW1 3857   0.412   0.846  10.264
 1175SOL    HW2 3858   0.313   0.725  10.311
 1176SOL     OW 3859   0.339   0.509  10.316
 1176SOL    HW1 3860   0.287   0.426  10.299
 1176SOL    HW2 3861   0.416   0.514  10.252
 1177SOL     OW 3862   1.160   0.207  10.787
 1177SOL    HW1 3863   1.160   0.271  10.864
 1177SOL    HW2 3864   1.188   0.255  10.704
 1178SOL     OW 3865   0.008   1.326   9.510
 1178SOL    HW1 3866  -0.085   1.347   9.479
 1178SOL    HW2 3867   0.018   1.227   9.523
 1179SOL     OW 3868   0.088   1.801  10.237
 1179SOL    HW1 3869   0.046   1.715  10.210
 1179SOL    HW2 3870   0.182   1.804  10.203
 1180SOL     OW 3871   0.504   1.568  10.220
 1180SOL    HW1 3872   0.570   1.642  10.229
 1180SOL    HW2 3873   0.548   1.489  10.178
 1181SOL     OW 3874   1.002   0.796  10.548
 1181SOL    HW1 3875   1.043   0.764  10.634
 1181SOL    HW2 3876   0.906   0.769  10.545
 1182SOL     OW 3877   0.040   0.544  10.424
 1182SOL    HW1 3878   0.125   0.511  10.383
 1182SOL    HW2 3879   0.053   0.559  10.522
 1183SOL     OW 3880   0.815   0.572   9.635
 1183SOL    HW1 3881   0.822   0.483   9.589
 1183SOL    HW2 3882   0.721   0.606   9.627
 1184SOL     OW 3883   1.657   0.604  10.516
 1184SOL    HW1 3884   1.619   0.535  10.578
 1184SOL    HW2 3885   1.739   0.568  10.472
 1185SOL     OW 3886   0.252   1.564  11.054
 1185SOL    HW1 3887   0.222   1.621  11.130
 1185SOL    HW2 3888   0.245   1.467  11.080
 1186SOL     OW 3889   0.671   0.464  10.579
 1186SOL    HW1 3890   0.637   0.375  10.549
 1186SOL    HW2 3891   0.697   0.518  10.499
 1187SOL     OW 3892   0.930   1.678  10.775
 1187SOL    HW1 3893   0.906   1.660  10.680
 1187SOL    HW2 3894   0.960   1.772  10.785
 1188SOL     OW 3895   0.473   0.500   9.501
 1188SOL    HW1 3896   0.534   0.580   9.505
 1188SOL    HW2 3897   0.378   0.531   9.508
 1189SOL     OW 3898   0.159   1.137  10.776
 1189SOL    HW1 3899   0.181   1.076  10.852
 1189SOL    HW2 3900   0.169   1.088  10.690
 1190SOL     OW 3901   1.347   1.059  10.544
 1190SOL    HW1 3902   1.371   0.996  10.470
 1190SOL    HW2 3903   1.257   1.099  10.526
 1191SOL     OW 3904   1.302   0.855   9.619
 1191SOL    HW1 3905   1.216   0.824   9.661
 1191SOL    HW2 3906   1.298   0.841   9.520
 1192SOL     OW 3907   1.759   1.747  10.464
 1192SOL    HW1 3908   1.820   1.777  10.391
 1192SOL    HW2 3909   1.721   1.658  10.442
 1193SOL     OW 3910   1.252   1.731  10.438
 1193SOL    HW1 3911   1.336   1.736  10.384
 1193SOL    HW2 3912   1.229   1.635  10.456
 1194SOL     OW 3913   0.083   1.258  10.332
 1194SOL    HW1 3914   0.078   1.257  10.432
 1194SOL    HW2 3915   0.000   1.217  10.294
 1195SOL     OW 3916   1.726   0.135   9.833
 1195SOL    HW1 3917   1.799   0.118   9.766
 1195SOL    HW2 3918   1.695   0.048   9.871
 1196SOL     OW 3919   1.388   1.573   9.787
 1196SOL    HW1 3920   1.455   1.585   9.713
 1196SOL    HW2 3921   1.348   1.662   9.810
 1197SOL     OW 3922   1.280   0.927   9.982
 1197SOL    HW1 3923   1.340   0.846   9.984
 1197SOL    HW2 3924   1.320   0.996   9.922
 1198SOL     OW 3925   0.830   1.273  10.732
 1198SOL    HW1 3926   0.825   1.306  10.827
 1198SOL    HW2 3927   0.744   1.292  10.686
 1199SOL     OW 3928   0.672   1.616   9.464
 1199SOL    HW1 3929   0.681   1.626   9.365
 1199SOL    HW2 3930   0.632   1.527   9.485
 1200SOL     OW 3931   1.650   1.720  10.704
 1200SOL    HW1 3932   1.703   1.730  10.620
 1200SOL    HW2 3933   1.623   1.810  10.738
 1201SOL     OW 3934   1.841   0.175  10.273
 1201SOL    HW1 3935   1.880   0.090  10.237
 1201SOL    HW2 3936   1.743   0.177  10.254
 1202SOL     OW 3937   0.263   0.326  10.030
 1202SOL    HW1 3938   0.184   0.377   9.996
 1202SOL    HW2 3939   0.254   0.311  10.128
 1203SOL     OW 3940   1.194   1.612   9.341
 1203SOL    HW1 3941   1.200   1.519   9.378
 1203SOL    HW2 3942   1.135   1.612   9.261
 1204SOL     OW 3943   0.822   1.002  10.682
 1204SOL    HW1 3944   0.862   1.001  10.590
 1204SOL    HW2 3945   0.832   1.094  10.722
 1205SOL     OW 3946   0.916   0.910   9.601
 1205SOL    HW1 3947   0.979   0.948   9.533
 1205SOL    HW2 3948   0.956   0.827   9.640
 1206SOL     OW 3949   1.504   1.607   9.354
 1206SOL    HW1 3950   1.412   1.644   9.361
 1206SOL    HW2 3951   1.542   1.627   9.264
 1207SOL     OW 3952   0.372   1.288  10.800
 1207SOL    HW1 3953   0.359   1.381  10.766
 1207SOL    HW2 3954   0.288   1.236  10.787
 1208SOL     OW 3955   1.614   1.292  10.599
 1208SOL    HW1 3956   1.674   1.295  10.679
 1208SOL    HW2 3957   1.539   1.356  10.612
 1209SOL     OW 3958   1.039   1.098  10.006
 1209SOL    HW1 3959   0.969   1.051  10.060
 1209SOL    HW2 3960   1.098   1.030   9.963
 1210SOL     OW 3961   1.014   0.236  10.281
 1210SOL    HW1 3962   1.006   0.200  10.188
 1210SOL    HW2 3963   1.012   0.160  10.346
 1211SOL     OW 3964   0.590   1.487   9.801
 1211SOL    HW1 3965   0.632   1.429   9.731
 1211SOL    HW2 3966   0.546   1.566   9.757
 1212SOL     OW 3967   1.709   0.385  10.691
 1212SOL    HW1 3968   1.782   0.454  10.695
 1212SOL    HW2 3969   1.737   0.310  10.632
 1213SOL     OW 3970   0.255   1.348   9.600
 1213SOL    HW1 3971   0.159   1.349   9.573
 1213SOL    HW2 3972   0.267   1.401   9.684
 1214SOL     OW 3973   0.105   1.013  11.036
 1214SOL    HW1 3974   0.028   0.980  11.090
 1214SOL    HW2 3975   0.190   0.983  11.078
 1215SOL     OW 3976   0.672   0.203  10.799
 1215SOL    HW1 3977   0.762   0.187  10.759
 1215SOL    HW2 3978   0.680   0.208  10.898
 1216SOL     OW 3979   0.075   0.345   9.343
 1216SOL    HW1 3980  -0.017   0.317   9.314
 1216SOL    HW2 3981   0.106   0.422   9.287
 1217SOL     OW 3982   1.440   0.856  10.708
 1217SOL    HW1 3983   1.383   0.908  10.645
 1217SOL    HW2 3984   1.536   0.868  10.684
 1218SOL     OW 3985   0.072   0.166   9.628
 1218SOL    HW1 3986   0.055   0.249   9.574
 1218SOL    HW2 3987   0.162   0.129   9.606
 1219SOL     OW 3988   1.183   1.335   9.429
 1219SOL    HW1 3989   1.084   1.324   9.431
 1219SOL    HW2 3990   1.217   1.350   9.522
 1220SOL     OW 3991   0.613   0.842  10.741
 1220SOL    HW1 3992   0.669   0.923  10.724
 1220SOL    HW2 3993   0.672   0.762  10.744
 1221SOL     OW 3994   1.493   1.767  10.269
 1221SOL    HW1 3995   1.526   1.831  10.200
 1221SOL    HW2 3996   1.559   1.761  10.344
 1222SOL     OW 3997   0.716   0.565  11.018
 1222SOL    HW1 3998   0.735   0.630  11.092
 1222SOL    HW2 3999   0.776   0.485  11.027
 1223SOL     OW 4000   0.390   1.741  10.870
 1223SOL    HW1 4001   0.299   1.782  10.868
 1223SOL    HW2 4002   0.383   1.647  10.902
 1224SOL     OW 4003   1.674   0.883  10.564
 1224SOL    HW1 4004   1.647   0.794  10.527
 1224SOL    HW2 4005   1.675   0.951  10.491
 1225SOL     OW 4006   1.225   0.325   9.759
 1225SOL    HW1 4007   1.290   0.251   9.748
 1225SOL    HW2 4008   1.245   0.375   9.843
 1226SOL     OW 4009   0.594   0.745   9.962
 1226SOL    HW1 4010   0.644   0.830   9.943
 1226SOL    HW2 4011   0.506   0.747   9.914
 1227SOL     OW 4012   1.777   0.342  10.952
 1227SOL    HW1 4013   1.760   0.373  10.858
 1227SOL    HW2 4014   1.693   0.305  10.990
 1228SOL     OW 4015   1.730   0.934  10.827
 1228SOL    HW1 4016   1.768   1.025  10.842
 1228SOL    HW2 4017   1.722   0.917  10.728
 1229SOL     OW 4018   0.859   1.374   9.326
 1229SOL    HW1 4019   0.813   1.389   9.414
 1229SOL    HW2 4020   0.903   1.459   9.296
 1230SOL     OW 4021   0.661   1.790  10.263
 1230SOL    HW1 4022   0.615   1.878  10.250
 1230SOL    HW2 4023   0.760   1.802  10.256
 1231SOL     OW 4024   0.859   0.956  10.171
 1231SOL    HW1 4025   0.913   0.887  10.219
 1231SOL    HW2 4026   0.827   1.025  10.237
 1232SOL     OW 4027   1.083   0.984   9.397
 1232SOL    HW1 4028   1.060   1.037   9.315
 1232SOL    HW2 4029   1.164   0.928   9.378
 1233SOL     OW 4030   1.861   1.569  10.161
 1233SOL    HW1 4031   1.790   1.557  10.091
 1233SOL    HW2 4032   1.862   1.490  10.221
 1234SOL     OW 4033   0.079   1.240   9.963
 1234SOL    HW1 4034   0.078   1.193  10.051
 1234SOL    HW2 4035   0.161   1.212   9.912
 1235SOL     OW 4036   0.672   1.391  10.934
 1235SOL    HW1 4037   0.594   1.341  10.972
 1235SOL    HW2 4038   0.669   1.486  10.965
 1236SOL     OW 4039   1.824   0.192  10.537
 1236SOL    HW1 4040   1.820   0.102  10.581
 1236SOL    HW2 4041   1.827   0.181  10.438
 1237SOL     OW 4042   0.428   0.424   9.830
 1237SOL    HW1 4043   0.458   0.352   9.768
 1237SOL    HW2 4044   0.389   0.384   9.913
 1238SOL     OW 4045   1.705   1.487  10.414
 1238SOL    HW1 4046   1.612   1.462  10.387
 1238SOL    HW2 4047   1.731   1.437  10.496
 1239SOL     OW 4048   0.317   0.547  10.590
 1239SOL    HW1 4049   0.355   0.488  10.662
 1239SOL    HW2 4050   0.357   0.521  10.502
 1240SOL     OW 4051   0.812   1.586   9.997
 1240SOL    HW1 4052   0.844   1.596   9.903
 1240SOL    HW2 4053   0.733   1.524   9.999
 1241SOL     OW 4054   1.424   0.214  10.422
 1241SOL    HW1 4055   1.476   0.149  10.477
 1241SOL    HW2 4056   1.375   0.277  10.483
 1242SOL     OW 4057   1.001   0.034  10.464
 1242SOL    HW1 4058   0.938  -0.038  10.433
 1242SOL    HW2 4059   1.094  -0.002  10.464
 1243SOL     OW 4060   0.770   1.330   9.611
 1243SOL    HW1 4061   0.724   1.243   9.628
 1243SOL    HW2 4062   0.861   1.327   9.652
 1244SOL     OW 4063   0.618   1.567  10.594
 1244SOL    HW1 4064   0.613   1.649  10.651
 1244SOL    HW2 4065   0.707   1.564  10.549
 1245SOL     OW 4066   1.352   0.052   9.478
 1245SOL    HW1 4067   1.387   0.011   9.394
 1245SOL    HW2 4068   1.262   0.014   9.498
 1246SOL     OW 4069   1.300   0.453  10.001
 1246SOL    HW1 4070   1.241   0.533  10.005
 1246SOL    HW2 4071   1.315   0.418  10.094
 1247SOL     OW 4072   1.593   0.221  10.192
 1247SOL    HW1 4073   1.509   0.220  10.246
 1247SOL    HW2 4074   1.595   0.304  10.136
 1248SOL     OW 4075   0.039   1.077   9.610
 1248SOL    HW1 4076   0.138   1.066   9.601
 1248SOL    HW2 4077  -0.001   0.991   9.642
 1249SOL     OW 4078   0.875   1.646   9.647
 1249SOL    HW1 4079   0.798   1.611   9.593
 1249SOL    HW2 4080   0.843   1.717   9.709
 1250SOL     OW 4081   0.230   2.490   0.113
 1250SOL    HW1 4082   0.137   2.488   0.150
 1250SOL    HW2 4083   0.231   2.451   0.021
 1251SOL     OW 4084   0.225   2.137   0.996
 1251SOL    HW1 4085   0.260   2.120   1.088
 1251SOL    HW2 4086   0.137   2.092   0.984
 1252SOL     OW 4087   0.019   2.230   0.647
 1252SOL    HW1 4088  -0.063   2.273   0.686
 1252SOL    HW2 4089  -0.009   2.157   0.584
 1253SOL     OW 4090   0.569   3.137   1.165
 1253SOL    HW1 4091   0.476   3.130   1.128
 1253SOL    HW2 4092   0.580   3.226   1.209
 1254SOL     OW 4093   1.555   3.373   0.703
 1254SOL    HW1 4094   1.498   3.357   0.784
 1254SOL    HW2 4095   1.496   3.383   0.623
 1255SOL     OW 4096   1.135   2.565   0.717
 1255SOL    HW1 4097   1.192   2.643   0.692
 1255SOL    HW2 4098   1.075   2.591   0.793
 1256SOL     OW 4099   1.755   2.469   0.231
 1256SOL    HW1 4100   1.743   2.456   0.132
 1256SOL    HW2 4101   1.725   2.388   0.280
 1257SOL     OW 4102   0.768   3.006   1.023
 1257SOL    HW1 4103   0.690   3.023   1.083
 1257SOL    HW2 4104   0.802   3.093   0.987
 1258SOL     OW 4105   0.850   2.660   1.823
 1258SOL    HW1 4106   0.846   2.736   1.888
 1258SOL    HW2 4107   0.872   2.696   1.732
 1259SOL     OW 4108   0.685   2.874   0.665
 1259SOL    HW1 4109   0.754   2.858   0.735
 1259SOL    HW2 4110   0.612   2.931   0.703
 1260SOL     OW 4111   0.686   3.023   1.803
 1260SOL    HW1 4112   0.746   3.102   1.817
 1260SOL    HW2 4113   0.600   3.054   1.762
 1261SOL     OW 4114   0.335   3.297   1.061
 1261SOL    HW1 4115   0.257   3.266   1.008
 1261SOL    HW2 4116   0.393   3.355   1.004
 1262SOL     OW 4117   1.460   3.367   1.339
 1262SOL    HW1 4118   1.484   3.461   1.365
 1262SOL    HW2 4119   1.444   3.313   1.421
 1263SOL     OW 4120   0.438   2.254   1.499
 1263SOL    HW1 4121   0.520   2.198   1.508
 1263SOL    HW2 4122   0.357   2.196   1.503
 1264SOL     OW 4123   1.603   2.309   0.737
 1264SOL    HW1 4124   1.529   2.355   0.687
 1264SOL    HW2 4125   1.654   2.377   0.790
 1265SOL     OW 4126   0.231   3.575   0.483
 1265SOL    HW1 4127   0.265   3.652   0.537
 1265SOL    HW2 4128   0.275   3.575   0.393
 1266SOL     OW 4129   1.127   3.203   1.690
 1266SOL    HW1 4130   1.174   3.203   1.778
 1266SOL    HW2 4131   1.079   3.116   1.679
 1267SOL     OW 4132   0.230   3.296   0.538
 1267SOL    HW1 4133   0.204   3.392   0.538
 1267SOL    HW2 4134   0.159   3.242   0.583
 1268SOL     OW 4135   0.240   2.953   0.886
 1268SOL    HW1 4136   0.254   2.869   0.938
 1268SOL    HW2 4137   0.185   3.017   0.941
 1269SOL     OW 4138   0.620   3.648   1.439
 1269SOL    HW1 4139   0.528   3.631   1.474
 1269SOL    HW2 4140   0.648   3.740   1.465
 1270SOL     OW 4141   0.606   2.826   0.123
 1270SOL    HW1 4142   0.613   2.910   0.069
 1270SOL    HW2 4143   0.652   2.839   0.211
 1271SOL     OW 4144   1.594   1.976   1.480
 1271SOL    HW1 4145   1.576   2.043   1.408
 1271SOL    HW2 4146   1.591   2.022   1.569
 1272SOL     OW 4147   0.122   2.505   0.563
 1272SOL    HW1 4148   0.077   2.417   0.580
 1272SOL    HW2 4149   0.121   2.559   0.647
 1273SOL     OW 4150   1.842   3.629   0.359
 1273SOL    HW1 4151   1.896   3.600   0.439
 1273SOL    HW2 4152   1.872   3.719   0.330
 1274SOL     OW 4153   0.027   3.458   0.117
 1274SOL    HW1 4154   0.008   3.362   0.138
 1274SOL    HW2 4155  -0.006   3.516   0.192
 1275SOL     OW 4156   1.689   2.784   0.612
 1275SOL    HW1 4157   1.784   2.755   0.620
 1275SOL    HW2 4158   1.681   2.849   0.537
 1276SOL     OW 4159   1.641   2.970   0.432
 1276SOL    HW1 4160   1.727   2.972   0.380
 1276SOL    HW2 4161   1.655   3.017   0.520
 1277SOL     OW 4162   0.113   2.599   1.597
 1277SOL    HW1 4163   0.201   2.586   1.642
 1277SOL    HW2 4164   0.100   2.696   1.575
 1278SOL     OW 4165   0.613   3.227   0.726
 1278SOL    HW1 4166   0.564   3.140   0.735
 1278SOL    HW2 4167   0.590   3.270   0.639
 1279SOL     OW 4168   1.293   3.090   1.423
 1279SOL    HW1 4169   1.330   3.017   1.365
 1279SOL    HW2 4170   1.345   3.095   1.508
 1280SOL     OW 4171   0.809   1.866   0.502
 1280SOL    HW1 4172   0.849   1.957   0.493
 1280SOL    HW2 4173   0.709   1.874   0.508
 1281SOL     OW 4174   0.197   2.838   1.264
 1281SOL    HW1 4175   0.286   2.793   1.250
 1281SOL    HW2 4176   0.124   2.773   1.245
 1282SOL     OW 4177   1.525   2.861   0.190
 1282SOL    HW1 4178   1.462   2.785   0.203
 1282SOL    HW2 4179   1.573   2.879   0.276
 1283SOL     OW 4180   1.187   3.654   1.616
 1283SOL    HW1 4181   1.211   3.714   1.540
 1283SOL    HW2 4182   1.194   3.559   1.586
 1284SOL     OW 4183   0.317   2.113   1.801
 1284SOL    HW1 4184   0.388   2.184   1.807
 1284SOL    HW2 4185   0.229   2.152   1.829
 1285SOL     OW 4186   1.466   3.279   0.953
 1285SOL    HW1 4187   1.407   3.285   1.033
 1285SOL    HW2 4188   1.451   3.191   0.907
 1286SOL     OW 4189   1.667   3.576   0.572
 1286SOL    HW1 4190   1.626   3.553   0.484
 1286SOL    HW2 4191   1.649   3.502   0.637
 1287SOL     OW 4192   0.598   2.591   0.270
 1287SOL    HW1 4193   0.622   2.660   0.202
 1287SOL    HW2 4194   0.520   2.624   0.324
 1288SOL     OW 4195   1.281   2.207   0.944
 1288SOL    HW1 4196   1.195   2.157   0.931
 1288SOL    HW2 4197   1.343   2.153   1.000
 1289SOL     OW 4198   1.576   3.524   0.307
 1289SOL    HW1 4199   1.665   3.570   0.310
 1289SOL    HW2 4200   1.555   3.500   0.212
 1290SOL     OW 4201   0.807   2.467   1.465
 1290SOL    HW1 4202   0.760   2.464   1.554
 1290SOL    HW2 4203   0.756   2.412   1.399
 1291SOL     OW 4204   1.394   2.331   1.674
 1291SOL    HW1 4205   1.374   2.374   1.762
 1291SOL    HW2 4206   1.472   2.269   1.683
 1292SOL     OW 4207   0.973   2.752   1.572
 1292SOL    HW1 4208   1.019   2.668   1.543
 1292SOL    HW2 4209   0.917   2.786   1.497
 1293SOL     OW 4210   0.991   2.272   1.242
 1293SOL    HW1 4211   0.914   2.306   1.296
 1293SOL    HW2 4212   0.957   2.221   1.163
 1294SOL     OW 4213   1.041   2.563   0.429
 1294SOL    HW1 4214   1.067   2.559   0.525
 1294SOL    HW2 4215   0.956   2.512   0.415
 1295SOL     OW 4216   0.076   2.673   0.789
 1295SOL    HW1 4217   0.175   2.661   0.798
 1295SOL    HW2 4218   0.052   2.768   0.810
 1296SOL     OW 4219   0.130   3.683   1.571
 1296SOL    HW1 4220   0.120   3.668   1.670
 1296SOL    HW2 4221   0.044   3.719   1.535
 1297SOL     OW 4222   0.865   2.210   0.195
 1297SOL    HW1 4223   0.924   2.273   0.146
 1297SOL    HW2 4224   0.884   2.116   0.166
 1298SOL     OW 4225   1.719   2.447   1.831
 1298SOL    HW1 4226   1.693   2.536   1.795
 1298SOL    HW2 4227   1.717   2.379   1.758
 1299SOL     OW 4228   1.362   3.006   0.545
 1299SOL    HW1 4229   1.445   2.977   0.497
 1299SOL    HW2 4230   1.313   3.073   0.489
 1300SOL     OW 4231   0.550   2.058   0.885
 1300SOL    HW1 4232   0.545   2.053   0.985
 1300SOL    HW2 4233   0.552   2.154   0.856
 1301SOL     OW 4234   1.008   3.318   0.477
 1301SOL    HW1 4235   0.962   3.390   0.425
 1301SOL    HW2 4236   1.004   3.338   0.575
 1302SOL     OW 4237   0.351   3.663   0.853
 1302SOL    HW1 4238   0.401   3.577   0.859
 1302SOL    HW2 4239   0.416   3.740   0.850
 1303SOL     OW 4240   1.795   2.928   0.873
 1303SOL    HW1 4241   1.733   2.913   0.797
 1303SOL    HW2 4242   1.743   2.939   0.958
 1304SOL     OW 4243   1.227   3.412   1.506
 1304SOL    HW1 4244   1.233   3.335   1.570
 1304SOL    HW2 4245   1.175   3.386   1.426
 1305SOL     OW 4246   0.321   2.805   0.242
 1305SOL    HW1 4247   0.403   2.844   0.200
 1305SOL    HW2 4248   0.294   2.723   0.193
 1306SOL     OW 4249   1.458   2.597   0.728
 1306SOL    HW1 4250   1.453   2.532   0.803
 1306SOL    HW2 4251   1.538   2.656   0.741
 1307SOL     OW 4252   0.461   3.128   1.727
 1307SOL    HW1 4253   0.411   3.129   1.641
 1307SOL    HW2 4254   0.398   3.110   1.803
 1308SOL     OW 4255   1.111   3.638   0.237
 1308SOL    HW1 4256   1.051   3.576   0.287
 1308SOL    HW2 4257   1.142   3.594   0.152
 1309SOL     OW 4258   0.202   2.147   1.498
 1309SOL    HW1 4259   0.122   2.207   1.485
 1309SOL    HW2 4260   0.192   2.098   1.584
 1310SOL     OW 4261   1.632   3.239   0.081
 1310SOL    HW1 4262   1.600   3.333   0.071
 1310SOL    HW2 4263   1.556   3.176   0.069
 1311SOL     OW 4264   0.464   3.605   0.323
 1311SOL    HW1 4265   0.497   3.644   0.409
 1311SOL    HW2 4266   0.540   3.598   0.258
 1312SOL     OW 4267   1.400   1.969   0.426
 1312SOL    HW1 4268   1.376   1.932   0.336
 1312SOL    HW2 4269   1.499   1.985   0.430
 1313SOL     OW 4270   0.249   3.647   1.241
 1313SOL    HW1 4271   0.306   3.582   1.291
 1313SOL    HW2 4272   0.233   3.614   1.148
 1314SOL     OW 4273   0.940   3.560   0.904
 1314SOL    HW1 4274   1.020   3.503   0.925
 1314SOL    HW2 4275   0.891   3.520   0.827
 1315SOL     OW 4276   0.382   2.562   0.480
 1315SOL    HW1 4277   0.427   2.472   0.477
 1315SOL    HW2 4278   0.288   2.551   0.513
 1316SOL     OW 4279   1.547   2.084   1.729
 1316SOL    HW1 4280   1.542   2.121   1.821
 1316SOL    HW2 4281   1.475   2.015   1.717
 1317SOL     OW 4282   0.614   1.984   0.117
 1317SOL    HW1 4283   0.712   1.962   0.124
 1317SOL    HW2 4284   0.583   1.967   0.024
 1318SOL     OW 4285   0.781   2.126   1.749
 1318SOL    HW1 4286   0.848   2.065   1.792
 1318SOL    HW2 4287   0.708   2.145   1.814
 1319SOL     OW 4288   0.888   3.376   1.195
 1319SOL    HW1 4289   0.865   3.351   1.101
 1319SOL    HW2 4290   0.949   3.307   1.234
 1320SOL     OW 4291   1.351   2.452   1.433
 1320SOL    HW1 4292   1.379   2.409   1.518
 1320SOL    HW2 4293   1.376   2.548   1.434
 1321SOL     OW 4294   0.803   3.264   0.924
 1321SOL    HW1 4295   0.893   3.278   0.882
 1321SOL    HW2 4296   0.732   3.266   0.853
 1322SOL     OW 4297   0.922   2.365   0.899
 1322SOL    HW1 4298   0.897   2.356   0.803
 1322SOL    HW2 4299   0.970   2.283   0.930
 1323SOL     OW 4300   0.539   1.926   0.512
 1323SOL    HW1 4301   0.458   1.927   0.570
 1323SOL    HW2 4302   0.542   2.009   0.457
 1324SOL     OW 4303   1.434   3.050   0.041
 1324SOL    HW1 4304   1.466   2.974   0.098
 1324SOL    HW2 4305   1.342   3.077   0.071
 1325SOL     OW 4306   0.297   1.897   0.171
 1325SOL    HW1 4307   0.346   1.981   0.150
 1325SOL    HW2 4308   0.359   1.832   0.216
 1326SOL     OW 4309   0.935   2.098   0.480
 1326SOL    HW1 4310   0.887   2.139   0.402
 1326SOL    HW2 4311   1.034   2.096   0.461
 1327SOL     OW 4312   1.076   2.545   1.464
 1327SOL    HW1 4313   0.996   2.484   1.467
 1327SOL    HW2 4314   1.157   2.492   1.440
 1328SOL     OW 4315   1.227   3.432   0.793
 1328SOL    HW1 4316   1.248   3.506   0.728
 1328SOL    HW2 4317   1.295   3.432   0.866
 1329SOL     OW 4318   0.459   3.014   0.741
 1329SOL    HW1 4319   0.388   2.987   0.806
 1329SOL    HW2 4320   0.433   2.986   0.648
 1330SOL     OW 4321   1.271   3.659   0.591
 1330SOL    HW1 4322   1.315   3.723   0.527
 1330SOL    HW2 4323   1.221   3.711   0.661
 1331SOL     OW 4324   1.032   2.411   0.016
 1331SOL    HW1 4325   0.991   2.493  -0.023
 1331SOL    HW2 4326   1.096   2.437   0.089
 1332SOL     OW 4327   0.078   2.418   1.386
 1332SOL    HW1 4328   0.170   2.417   1.345
 1332SOL    HW2 4329   0.072   2.492   1.453
 1333SOL     OW 4330   0.561   2.084   1.147
 1333SOL    HW1 4331   0.599   2.000   1.184
 1333SOL    HW2 4332   0.473   2.103   1.191
 1334SOL     OW 4333   0.866   2.316   0.642
 1334SOL    HW1 4334   0.834   2.388   0.580
 1334SOL    HW2 4335   0.890   2.235   0.589
 1335SOL     OW 4336   1.017   1.901   0.753
 1335SOL    HW1 4337   0.945   1.906   0.684
 1335SOL    HW2 4338   0.993   1.832   0.822
 1336SOL     OW 4339   1.429   3.035   0.867
 1336SOL    HW1 4340   1.374   2.951   0.860
 1336SOL    HW2 4341   1.455   3.064   0.775
 1337SOL     OW 4342   1.466   2.452   0.992
 1337SOL    HW1 4343   1.436   2.357   0.999
 1337SOL    HW2 4344   1.539   2.468   1.058
 1338SOL     OW 4345   1.857   2.695   0.377
 1338SOL    HW1 4346   1.899   2.631   0.441
 1338SOL    HW2 4347   1.819   2.644   0.299
 1339SOL     OW 4348   0.488   3.247   0.174
 1339SOL    HW1 4349   0.401   3.232   0.221
 1339SOL    HW2 4350   0.471   3.273   0.079
 1340SOL     OW 4351   1.664   3.142   0.657
 1340SOL    HW1 4352   1.763   3.150   0.671
 1340SOL    HW2 4353   1.619   3.226   0.688
 1341SOL     OW 4354   1.390   2.437   0.078
 1341SOL    HW1 4355   1.336   2.416   0.159
 1341SOL    HW2 4356   1.481   2.396   0.087
 1342SOL     OW 4357   0.527   2.118   0.328
 1342SOL    HW1 4358   0.554   2.059   0.253
 1342SOL    HW2 4359   0.527   2.213   0.297
 1343SOL     OW 4360   1.754   3.085   1.588
 1343SOL    HW1 4361   1.845   3.046   1.575
 1343SOL    HW2 4362   1.762   3.181   1.612
 1344SOL     OW 4363   1.064   3.209   1.340
 1344SOL    HW1 4364   0.984   3.186   1.395
 1344SOL    HW2 4365   1.147   3.183   1.389
 1345SOL     OW 4366   1.592   3.491   1.625
 1345SOL    HW1 4367   1.619   3.525   1.535
 1345SOL    HW2 4368   1.671   3.453   1.671
 1346SOL     OW 4369   1.111   3.057   1.100
 1346SOL    HW1 4370   1.071   3.101   1.181
 1346SOL    HW2 4371   1.070   3.094   1.017
 1347SOL     OW 4372   1.638   2.961   1.079
 1347SOL    HW1 4373   1.643   3.042   1.138
 1347SOL    HW2 4374   1.552   2.963   1.028
 1348SOL     OW 4375   0.915   1.951   1.402
 1348SOL    HW1 4376   0.940   1.931   1.307
 1348SOL    HW2 4377   0.987   2.007   1.444
 1349SOL     OW 4378   0.980   2.978   1.719
 1349SOL    HW1 4379   0.881   2.984   1.729
 1349SOL    HW2 4380   1.003   2.898   1.663
 1350SOL     OW 4381   0.705   2.912   0.368
 1350SOL    HW1 4382   0.691   2.919   0.467
 1350SOL    HW2 4383   0.789   2.861   0.350
 1351SOL     OW 4384   0.410   2.675   1.251
 1351SOL    HW1 4385   0.496   2.687   1.301
 1351SOL    HW2 4386   0.368   2.588   1.278
 1352SOL     OW 4387   1.274   2.248   1.262
 1352SOL    HW1 4388   1.295   2.322   1.326
 1352SOL    HW2 4389   1.185   2.265   1.219
 1353SOL     OW 4390   0.064   3.426   1.331
 1353SOL    HW1 4391   0.018   3.508   1.297
 1353SOL    HW2 4392   0.162   3.445   1.340
 1354SOL     OW 4393   0.367   2.962   0.501
 1354SOL    HW1 4394   0.360   3.045   0.445
 1354SOL    HW2 4395   0.371   2.882   0.441
 1355SOL     OW 4396   0.566   2.399   0.865
 1355SOL    HW1 4397   0.578   2.465   0.791
 1355SOL    HW2 4398   0.612   2.433   0.948
 1356SOL     OW 4399   1.252   3.210   0.388
 1356SOL    HW1 4400   1.302   3.287   0.428
 1356SOL    HW2 4401   1.157   3.212   0.420
 1357SOL     OW 4402   1.272   3.307   1.142
 1357SOL    HW1 4403   1.319   3.320   1.229
 1357SOL    HW2 4404   1.206   3.233   1.151
 1358SOL     OW 4405   1.582   2.501   0.472
 1358SOL    HW1 4406   1.551   2.562   0.545
 1358SOL    HW2 4407   1.632   2.553   0.403
 1359SOL     OW 4408   0.354   3.372   1.329
 1359SOL    HW1 4409   0.333   3.328   1.242
 1359SOL    HW2 4410   0.451   3.398   1.332
 1360SOL     OW 4411   0.402   2.613   1.598
 1360SOL    HW1 4412   0.470   2.668   1.551
 1360SOL    HW2 4413   0.442   2.525   1.625
 1361SOL     OW 4414   1.587   2.641   1.670
 1361SOL    HW1 4415   1.495   2.679   1.665
 1361SOL    HW2 4416   1.647   2.688   1.605
 1362SOL     OW 4417   1.013   1.967   1.770
 1362SOL    HW1 4418   1.019   2.052   1.718
 1362SOL    HW2 4419   1.045   1.891   1.713
 1363SOL     OW 4420   0.504   1.912   1.740
 1363SOL    HW1 4421   0.462   1.855   1.670
 1363SOL    HW2 4422   0.438   1.981   1.772
 1364SOL     OW 4423   0.573   2.732   1.029
 1364SOL    HW1 4424   0.617   2.821   1.020
 1364SOL    HW2 4425   0.510   2.732   1.106
 1365SOL     OW 4426   1.360   2.724   1.045
 1365SOL    HW1 4427   1.285   2.724   0.979
 1365SOL    HW2 4428   1.397   2.632   1.054
 1366SOL     OW 4429   1.209   2.387   0.275
 1366SOL    HW1 4430   1.222   2.303   0.329
 1366SOL    HW2 4431   1.180   2.461   0.335
 1367SOL     OW 4432   0.307   2.075   1.231
 1367SOL    HW1 4433   0.284   2.112   1.321
 1367SOL    HW2 4434   0.277   1.980   1.225
 1368SOL     OW 4435   0.037   3.172   1.282
 1368SOL    HW1 4436   0.090   3.123   1.350
 1368SOL    HW2 4437   0.059   3.270   1.287
 1369SOL     OW 4438   0.732   2.496   1.064
 1369SOL    HW1 4439   0.791   2.470   0.988
 1369SOL    HW2 4440   0.704   2.592   1.053
 1370SOL     OW 4441   1.728   2.797   1.854
 1370SOL    HW1 4442   1.682   2.790   1.765
 1370SOL    HW2 4443   1.666   2.841   1.920
 1371SOL     OW 4444   0.307   1.925   0.618
 1371SOL    HW1 4445   0.296   2.019   0.651
 1371SOL    HW2 4446   0.302   1.862   0.695
 1372SOL     OW 4447   1.622   2.229   0.374
 1372SOL    HW1 4448   1.624   2.153   0.438
 1372SOL    HW2 4449   1.574   2.306   0.414
 1373SOL     OW 4450   1.023   2.628   0.966
 1373SOL    HW1 4451   1.038   2.649   1.062
 1373SOL    HW2 4452   0.993   2.533   0.957
 1374SOL     OW 4453   0.980   3.435   1.700
 1374SOL    HW1 4454   0.960   3.479   1.612
 1374SOL    HW2 4455   1.019   3.344   1.684
 1375SOL     OW 4456   1.859   3.380   1.605
 1375SOL    HW1 4457   1.873   3.407   1.510
 1375SOL    HW2 4458   1.942   3.402   1.658
 1376SOL     OW 4459   0.350   2.760   1.804
 1376SOL    HW1 4460   0.426   2.804   1.852
 1376SOL    HW2 4461   0.385   2.713   1.722
 1377SOL     OW 4462   1.540   2.136   0.125
 1377SOL    HW1 4463   1.479   2.061   0.148
 1377SOL    HW2 4464   1.562   2.188   0.208
 1378SOL     OW 4465   1.303   2.700   0.042
 1378SOL    HW1 4466   1.337   2.607   0.057
 1378SOL    HW2 4467   1.321   2.727  -0.053
 1379SOL     OW 4468   1.068   3.195   0.849
 1379SOL    HW1 4469   1.075   3.111   0.794
 1379SOL    HW2 4470   1.130   3.264   0.813
 1380SOL     OW 4471   0.319   2.672   0.949
 1380SOL    HW1 4472   0.412   2.708   0.954
 1380SOL    HW2 4473   0.313   2.587   1.001
 1381SOL     OW 4474   0.339   2.371   1.006
 1381SOL    HW1 4475   0.287   2.288   0.989
 1381SOL    HW2 4476   0.416   2.376   0.942
 1382SOL     OW 4477   1.138   2.242   1.678
 1382SOL    HW1 4478   1.093   2.305   1.742
 1382SOL    HW2 4479   1.231   2.273   1.661
 1383SOL     OW 4480   1.160   2.069   1.477
 1383SOL    HW1 4481   1.160   2.133   1.554
 1383SOL    HW2 4482   1.188   2.117   1.394
 1384SOL     OW 4483   0.008   3.188   0.200
 1384SOL    HW1 4484  -0.085   3.209   0.169
 1384SOL    HW2 4485   0.018   3.089   0.213
 1385SOL     OW 4486   0.088   3.663   0.927
 1385SOL    HW1 4487   0.046   3.577   0.900
 1385SOL    HW2 4488   0.182   3.666   0.893
 1386SOL     OW 4489   0.504   3.430   0.910
 1386SOL    HW1 4490   0.570   3.504   0.919
 1386SOL    HW2 4491   0.548   3.351   0.868
 1387SOL     OW 4492   1.002   2.658   1.238
 1387SOL    HW1 4493   1.043   2.626   1.324
 1387SOL    HW2 4494   0.906   2.631   1.235
 1388SOL     OW 4495   0.040   2.406   1.114
 1388SOL    HW1 4496   0.125   2.373   1.073
 1388SOL    HW2 4497   0.053   2.421   1.212
 1389SOL     OW 4498   0.189   2.382   1.722
 1389SOL    HW1 4499   0.248   2.342   1.652
 1389SOL    HW2 4500   0.131   2.453   1.681
 1390SOL     OW 4501   1.369   2.812   1.660
 1390SOL    HW1 4502   1.408   2.901   1.680
 1390SOL    HW2 4503   1.379   2.792   1.563
 1391SOL     OW 4504   0.815   2.434   0.325
 1391SOL    HW1 4505   0.822   2.345   0.279
 1391SOL    HW2 4506   0.721   2.468   0.317
 1392SOL     OW 4507   1.657   2.466   1.206
 1392SOL    HW1 4508   1.619   2.397   1.268
 1392SOL    HW2 4509   1.739   2.430   1.162
 1393SOL     OW 4510   0.252   3.426   1.744
 1393SOL    HW1 4511   0.222   3.483   1.820
 1393SOL    HW2 4512   0.245   3.329   1.770
 1394SOL     OW 4513   0.671   2.326   1.269
 1394SOL    HW1 4514   0.637   2.237   1.239
 1394SOL    HW2 4515   0.697   2.380   1.189
 1395SOL     OW 4516   0.930   3.540   1.465
 1395SOL    HW1 4517   0.906   3.522   1.370
 1395SOL    HW2 4518   0.960   3.634   1.475
 1396SOL     OW 4519   0.473   2.362   0.191
 1396SOL    HW1 4520   0.534   2.442   0.195
 1396SOL    HW2 4521   0.378   2.393   0.198
 1397SOL     OW 4522   0.159   2.999   1.466
 1397SOL    HW1 4523   0.181   2.938   1.542
 1397SOL    HW2 4524   0.169   2.950   1.380
 1398SOL     OW 4525   1.347   2.921   1.234
 1398SOL    HW1 4526   1.371   2.858   1.160
 1398SOL    HW2 4527   1.257   2.961   1.216
 1399SOL     OW 4528   1.302   2.717   0.309
 1399SOL    HW1 4529   1.216   2.686   0.351
 1399SOL    HW2 4530   1.298   2.703   0.210
 1400SOL     OW 4531   1.759   3.609   1.154
 1400SOL    HW1 4532   1.820   3.639   1.081
 1400SOL    HW2 4533   1.721   3.520   1.132
 1401SOL     OW 4534   1.252   3.593   1.128
 1401SOL    HW1 4535   1.336   3.598   1.074
 1401SOL    HW2 4536   1.229   3.497   1.146
 1402SOL     OW 4537   0.083   3.120   1.022
 1402SOL    HW1 4538   0.078   3.119   1.122
 1402SOL    HW2 4539   0.000   3.079   0.984
 1403SOL     OW 4540   0.688   3.524   1.716
 1403SOL    HW1 4541   0.632   3.605   1.725
 1403SOL    HW2 4542   0.740   3.528   1.630
 1404SOL     OW 4543   0.903   1.948   0.133
 1404SOL    HW1 4544   0.954   1.949   0.047
 1404SOL    HW2 4545   0.959   1.906   0.204
 1405SOL     OW 4546   1.726   1.997   0.523
 1405SOL    HW1 4547   1.799   1.980   0.456
 1405SOL    HW2 4548   1.695   1.910   0.561
 1406SOL     OW 4549   1.388   3.435   0.477
 1406SOL    HW1 4550   1.455   3.447   0.403
 1406SOL    HW2 4551   1.348   3.524   0.500
 1407SOL     OW 4552   0.130   3.656   1.851
 1407SOL    HW1 4553   0.089   3.582   1.904
 1407SOL    HW2 4554   0.194   3.707   1.909
 1408SOL     OW 4555   1.280   2.789   0.672
 1408SOL    HW1 4556   1.340   2.708   0.674
 1408SOL    HW2 4557   1.320   2.858   0.612
 1409SOL     OW 4558   0.830   3.135   1.422
 1409SOL    HW1 4559   0.825   3.168   1.517
 1409SOL    HW2 4560   0.744   3.154   1.376
 1410SOL     OW 4561   0.672   3.478   0.154
 1410SOL    HW1 4562   0.681   3.488   0.055
 1410SOL    HW2 4563   0.632   3.389   0.175
 1411SOL     OW 4564   1.650   3.582   1.394
 1411SOL    HW1 4565   1.703   3.592   1.310
 1411SOL    HW2 4566   1.623   3.672   1.428
 1412SOL     OW 4567   1.841   2.037   0.963
 1412SOL    HW1 4568   1.880   1.952   0.927
 1412SOL    HW2 4569   1.743   2.039   0.944
 1413SOL     OW 4570   0.263   2.188   0.720
 1413SOL    HW1 4571   0.184   2.239   0.686
 1413SOL    HW2 4572   0.254   2.173   0.818
 1414SOL     OW 4573   1.194   3.474   0.031
 1414SOL    HW1 4574   1.200   3.381   0.068
 1414SOL    HW2 4575   1.135   3.474  -0.049
 1415SOL     OW 4576   0.822   2.864   1.372
 1415SOL    HW1 4577   0.862   2.863   1.280
 1415SOL    HW2 4578   0.832   2.956   1.412
 1416SOL     OW 4579   0.916   2.772   0.291
 1416SOL    HW1 4580   0.979   2.810   0.223
 1416SOL    HW2 4581   0.956   2.689   0.330
 1417SOL     OW 4582   1.504   3.469   0.044
 1417SOL    HW1 4583   1.412   3.506   0.051
 1417SOL    HW2 4584   1.542   3.489  -0.046
 1418SOL     OW 4585   0.372   3.150   1.490
 1418SOL    HW1 4586   0.359   3.243   1.456
 1418SOL    HW2 4587   0.288   3.098   1.477
 1419SOL     OW 4588   1.614   3.154   1.289
 1419SOL    HW1 4589   1.674   3.157   1.369
 1419SOL    HW2 4590   1.539   3.218   1.302
 1420SOL     OW 4591   1.039   2.960   0.696
 1420SOL    HW1 4592   0.969   2.913   0.750
 1420SOL    HW2 4593   1.098   2.892   0.653
 1421SOL     OW 4594   1.014   2.098   0.971
 1421SOL    HW1 4595   1.006   2.062   0.878
 1421SOL    HW2 4596   1.012   2.022   1.036
 1422SOL     OW 4597   0.590   3.349   0.491
 1422SOL    HW1 4598   0.632   3.291   0.421
 1422SOL    HW2 4599   0.546   3.428   0.447
 1423SOL     OW 4600   1.709   2.247   1.381
 1423SOL    HW1 4601   1.782   2.316   1.385
 1423SOL    HW2 4602   1.737   2.172   1.322
 1424SOL     OW 4603   0.255   3.210   0.290
 1424SOL    HW1 4604   0.159   3.211   0.263
 1424SOL    HW2 4605   0.267   3.263   0.374
 1425SOL     OW 4606   0.105   2.875   1.726
 1425SOL    HW1 4607   0.028   2.842   1.780
 1425SOL    HW2 4608   0.190   2.845   1.768
 1426SOL     OW 4609   0.672   2.065   1.489
 1426SOL    HW1 4610   0.762   2.049   1.449
 1426SOL    HW2 4611   0.680   2.070   1.588
 1427SOL     OW 4612   0.075   2.207   0.033
 1427SOL    HW1 4613  -0.017   2.179   0.004
 1427SOL    HW2 4614   0.106   2.284  -0.023
 1428SOL     OW 4615   1.440   2.718   1.398
 1428SOL    HW1 4616   1.383   2.770   1.335
 1428SOL    HW2 4617   1.536   2.730   1.374
 1429SOL     OW 4618   0.072   2.028   0.318
 1429SOL    HW1 4619   0.055   2.111   0.264
 1429SOL    HW2 4620   0.162   1.991   0.296
 1430SOL     OW 4621   1.183   3.197   0.119
 1430SOL    HW1 4622   1.084   3.186   0.121
 1430SOL    HW2 4623   1.217   3.212   0.212
 1431SOL     OW 4624   0.613   2.704   1.431
 1431SOL    HW1 4625   0.669   2.785   1.414
 1431SOL    HW2 4626   0.672   2.624   1.434
 1432SOL     OW 4627   1.493   3.629   0.959
 1432SOL    HW1 4628   1.526   3.693   0.890
 1432SOL    HW2 4629   1.559   3.623   1.034
 1433SOL     OW 4630   0.716   2.427   1.708
 1433SOL    HW1 4631   0.735   2.492   1.782
 1433SOL    HW2 4632   0.776   2.347   1.717
 1434SOL     OW 4633   1.450   3.082   1.633
 1434SOL    HW1 4634   1.441   3.072   1.732
 1434SOL    HW2 4635   1.546   3.075   1.607
 1435SOL     OW 4636   0.390   3.603   1.560
 1435SOL    HW1 4637   0.299   3.644   1.558
 1435SOL    HW2 4638   0.383   3.509   1.592
 1436SOL     OW 4639   1.674   2.745   1.254
 1436SOL    HW1 4640   1.647   2.656   1.217
 1436SOL    HW2 4641   1.675   2.813   1.181
 1437SOL     OW 4642   1.225   2.187   0.449
 1437SOL    HW1 4643   1.290   2.113   0.438
 1437SOL    HW2 4644   1.245   2.237   0.533
 1438SOL     OW 4645   0.594   2.607   0.652
 1438SOL    HW1 4646   0.644   2.692   0.633
 1438SOL    HW2 4647   0.506   2.609   0.604
 1439SOL     OW 4648   1.777   2.204   1.642
 1439SOL    HW1 4649   1.760   2.235   1.548
 1439SOL    HW2 4650   1.693   2.167   1.680
 1440SOL     OW 4651   1.730   2.796   1.517
 1440SOL    HW1 4652   1.768   2.887   1.532
 1440SOL    HW2 4653   1.722   2.779   1.418
 1441SOL     OW 4654   0.859   3.236   0.016
 1441SOL    HW1 4655   0.813   3.251   0.104
 1441SOL    HW2 4656   0.903   3.321  -0.014
 1442SOL     OW 4657   0.661   3.652   0.953
 1442SOL    HW1 4658   0.615   3.740   0.940
 1442SOL    HW2 4659   0.760   3.664   0.946
 1443SOL     OW 4660   0.859   2.818   0.861
 1443SOL    HW1 4661   0.913   2.749   0.909
 1443SOL    HW2 4662   0.827   2.887   0.927
 1444SOL     OW 4663   1.083   2.846   0.087
 1444SOL    HW1 4664   1.060   2.899   0.005
 1444SOL    HW2 4665   1.164   2.790   0.068
 1445SOL     OW 4666   1.861   3.431   0.851
 1445SOL    HW1 4667   1.790   3.419   0.781
 1445SOL    HW2 4668   1.862   3.352   0.911
 1446SOL     OW 4669   0.221   3.176   1.844
 1446SOL    HW1 4670   0.156   3.103   1.823
 1446SOL    HW2 4671   0.225   3.190   1.942
 1447SOL     OW 4672   0.079   3.102   0.653
 1447SOL    HW1 4673   0.078   3.055   0.741
 1447SOL    HW2 4674   0.161   3.074   0.602
 1448SOL     OW 4675   0.672   3.253   1.624
 1448SOL    HW1 4676   0.594   3.203   1.662
 1448SOL    HW2 4677   0.669   3.348   1.655
 1449SOL     OW 4678   1.824   2.054   1.227
 1449SOL    HW1 4679   1.820   1.964   1.271
 1449SOL    HW2 4680   1.827   2.043   1.128
 1450SOL     OW 4681   0.428   2.286   0.520
 1450SOL    HW1 4682   0.458   2.214   0.458
 1450SOL    HW2 4683   0.389   2.246   0.603
 1451SOL     OW 4684   1.705   3.349   1.104
 1451SOL    HW1 4685   1.612   3.324   1.077
 1451SOL    HW2 4686   1.731   3.299   1.186
 1452SOL     OW 4687   0.317   2.409   1.280
 1452SOL    HW1 4688   0.355   2.350   1.352
 1452SOL    HW2 4689   0.357   2.383   1.192
 1453SOL     OW 4690   0.812   3.448   0.687
 1453SOL    HW1 4691   0.844   3.458   0.593
 1453SOL    HW2 4692   0.733   3.386   0.689
 1454SOL     OW 4693   1.424   2.076   1.112
 1454SOL    HW1 4694   1.476   2.011   1.167
 1454SOL    HW2 4695   1.375   2.139   1.173
 1455SOL     OW 4696   1.001   1.896   1.154
 1455SOL    HW1 4697   0.938   1.824   1.123
 1455SOL    HW2 4698   1.094   1.860   1.154
 1456SOL     OW 4699   0.770   3.192   0.301
 1456SOL    HW1 4700   0.724   3.105   0.318
 1456SOL    HW2 4701   0.861   3.189   0.342
 1457SOL     OW 4702   0.618   3.429   1.284
 1457SOL    HW1 4703   0.613   3.511   1.341
 1457SOL    HW2 4704   0.707   3.426   1.239
 1458SOL     OW 4705   1.352   1.914   0.168
 1458SOL    HW1 4706   1.387   1.873   0.084
 1458SOL    HW2 4707   1.262   1.876   0.188
 1459SOL     OW 4708   1.300   2.315   0.691
 1459SOL    HW1 4709   1.241   2.395   0.695
 1459SOL    HW2 4710   1.315   2.280   0.784
 1460SOL     OW 4711   1.593   2.083   0.882
 1460SOL    HW1 4712   1.509   2.082   0.936
 1460SOL    HW2 4713   1.595   2.166   0.826
 1461SOL     OW 4714   0.039   2.939   0.300
 1461SOL    HW1 4715   0.138   2.928   0.291
 1461SOL    HW2 4716  -0.001   2.853   0.332
 1462SOL     OW 4717   0.875   3.508   0.337
 1462SOL    HW1 4718   0.798   3.473   0.283
 1462SOL    HW2 4719   0.843   3.579   0.399
 1463SOL     OW 4720   0.230   2.490   1.975
 1463SOL    HW1 4721   0.137   2.488   2.012
 1463SOL    HW2 4722   0.231   2.451   1.883
 1464SOL     OW 4723   0.225   2.137   2.858
 1464SOL    HW1 4724   0.260   2.120   2.950
 1464SOL    HW2 4725   0.137   2.092   2.846
 1465SOL     OW 4726   0.019   2.230   2.509
 1465SOL    HW1 4727  -0.063   2.273   2.548
 1465SOL    HW2 4728  -0.009   2.157   2.446
 1466SOL     OW 4729   0.569   3.137   3.027
 1466SOL    HW1 4730   0.476   3.130   2.990
 1466SOL    HW2 4731   0.580   3.226   3.071
 1467SOL     OW 4732   1.555   3.373   2.565
 1467SOL    HW1 4733   1.498   3.357   2.646
 1467SOL    HW2 4734   1.496   3.383   2.485
 1468SOL     OW 4735   1.135   2.565   2.579
 1468SOL    HW1 4736   1.192   2.643   2.554
 1468SOL    HW2 4737   1.075   2.591   2.655
 1469SOL     OW 4738   1.755   2.469   2.093
 1469SOL    HW1 4739   1.743   2.456   1.994
 1469SOL    HW2 4740   1.725   2.388   2.142
 1470SOL     OW 4741   0.768   3.006   2.885
 1470SOL    HW1 4742   0.690   3.023   2.945
 1470SOL    HW2 4743   0.802   3.093   2.849
 1471SOL     OW 4744   0.850   2.660   3.685
 1471SOL    HW1 4745   0.846   2.736   3.750
 1471SOL    HW2 4746   0.872   2.696   3.594
 1472SOL     OW 4747   0.685   2.874   2.527
 1472SOL    HW1 4748   0.754   2.858   2.597
 1472SOL    HW2 4749   0.612   2.931   2.565
 1473SOL     OW 4750   0.686   3.023   3.665
 1473SOL    HW1 4751   0.746   3.102   3.679
 1473SOL    HW2 4752   0.600   3.054   3.624
 1474SOL     OW 4753   0.335   3.297   2.923
 1474SOL    HW1 4754   0.257   3.266   2.870
 1474SOL    HW2 4755   0.393   3.355   2.866
 1475SOL     OW 4756   1.460   3.367   3.201
 1475SOL    HW1 4757   1.484   3.461   3.227
 1475SOL    HW2 4758   1.444   3.313   3.283
 1476SOL     OW 4759   0.438   2.254   3.361
 1476SOL    HW1 4760   0.520   2.198   3.370
 1476SOL    HW2 4761   0.357   2.196   3.365
 1477SOL     OW 4762   1.603   2.309   2.599
 1477SOL    HW1 4763   1.529   2.355   2.549
 1477SOL    HW2 4764   1.654   2.377   2.652
 1478SOL     OW 4765   0.231   3.575   2.345
 1478SOL    HW1 4766   0.265   3.652   2.399
 1478SOL    HW2 4767   0.275   3.575   2.255
 1479SOL     OW 4768   1.127   3.203   3.552
 1479SOL    HW1 4769   1.174   3.203   3.640
 1479SOL    HW2 4770   1.079   3.116   3.541
 1480SOL     OW 4771   0.230   3.296   2.400
 1480SOL    HW1 4772   0.204   3.392   2.400
 1480SOL    HW2 4773   0.159   3.242   2.445
 1481SOL     OW 4774   0.240   2.953   2.748
 1481SOL    HW1 4775   0.254   2.869   2.800
 1481SOL    HW2 4776   0.185   3.017   2.803
 1482SOL     OW 4777   0.620   3.648   3.301
 1482SOL    HW1 4778   0.528   3.631   3.336
 1482SOL    HW2 4779   0.648   3.740   3.327
 1483SOL     OW 4780   0.606   2.826   1.985
 1483SOL    HW1 4781   0.613   2.910   1.931
 1483SOL    HW2 4782   0.652   2.839   2.073
 1484SOL     OW 4783   1.594   1.976   3.342
 1484SOL    HW1 4784   1.576   2.043   3.270
 1484SOL    HW2 4785   1.591   2.022   3.431
 1485SOL     OW 4786   0.122   2.505   2.425
 1485SOL    HW1 4787   0.077   2.417   2.442
 1485SOL    HW2 4788   0.121   2.559   2.509
 1486SOL     OW 4789   1.842   3.629   2.221
 1486SOL    HW1 4790   1.896   3.600   2.301
 1486SOL    HW2 4791   1.872   3.719   2.192
 1487SOL     OW 4792   0.027   3.458   1.979
 1487SOL    HW1 4793   0.008   3.362   2.000
 1487SOL    HW2 4794  -0.006   3.516   2.054
 1488SOL     OW 4795   1.689   2.784   2.474
 1488SOL    HW1 4796   1.784   2.755   2.482
 1488SOL    HW2 4797   1.681   2.849   2.399
 1489SOL     OW 4798   1.641   2.970   2.294
 1489SOL    HW1 4799   1.727   2.972   2.242
 1489SOL    HW2 4800   1.655   3.017   2.382
 1490SOL     OW 4801   0.113   2.599   3.459
 1490SOL    HW1 4802   0.201   2.586   3.504
 1490SOL    HW2 4803   0.100   2.696   3.437
 1491SOL     OW 4804   0.613   3.227   2.588
 1491SOL    HW1 4805   0.564   3.140   2.597
 1491SOL    HW2 4806   0.590   3.270   2.501
 1492SOL     OW 4807   1.293   3.090   3.285
 1492SOL    HW1 4808   1.330   3.017   3.227
 1492SOL    HW2 4809   1.345   3.095   3.370
 1493SOL     OW 4810   0.809   1.866   2.364
 1493SOL    HW1 4811   0.849   1.957   2.355
 1493SOL    HW2 4812   0.709   1.874   2.370
 1494SOL     OW 4813   0.197   2.838   3.126
 1494SOL    HW1 4814   0.286   2.793   3.112
 1494SOL    HW2 4815   0.124   2.773   3.107
 1495SOL     OW 4816   1.525   2.861   2.052
 1495SOL    HW1 4817   1.462   2.785   2.065
 1495SOL    HW2 4818   1.573   2.879   2.138
 1496SOL     OW 4819   1.187   3.654   3.478
 1496SOL    HW1 4820   1.211   3.714   3.402
 1496SOL    HW2 4821   1.194   3.559   3.448
 1497SOL     OW 4822   0.317   2.113   3.663
 1497SOL    HW1 4823   0.388   2.184   3.669
 1497SOL    HW2 4824   0.229   2.152   3.691
 1498SOL     OW 4825   1.466   3.279   2.815
 1498SOL    HW1 4826   1.407   3.285   2.895
 1498SOL    HW2 4827   1.451   3.191   2.769
 1499SOL     OW 4828   1.667   3.576   2.434
 1499SOL    HW1 4829   1.626   3.553   2.346
 1499SOL    HW2 4830   1.649   3.502   2.499
 1500SOL     OW 4831   0.598   2.591   2.132
 1500SOL    HW1 4832   0.622   2.660   2.064
 1500SOL    HW2 4833   0.520   2.624   2.186
 1501SOL     OW 4834   1.281   2.207   2.806
 1501SOL    HW1 4835   1.195   2.157   2.793
 1501SOL    HW2 4836   1.343   2.153   2.862
 1502SOL     OW 4837   1.576   3.524   2.169
 1502SOL    HW1 4838   1.665   3.570   2.172
 1502SOL    HW2 4839   1.555   3.500   2.074
 1503SOL     OW 4840   0.807   2.467   3.327
 1503SOL    HW1 4841   0.760   2.464   3.416
 1503SOL    HW2 4842   0.756   2.412   3.261
 1504SOL     OW 4843   1.394   2.331   3.536
 1504SOL    HW1 4844   1.374   2.374   3.624
 1504SOL    HW2 4845   1.472   2.269   3.545
 1505SOL     OW 4846   0.973   2.752   3.434
 1505SOL    HW1 4847   1.019   2.668   3.405
 1505SOL    HW2 4848   0.917   2.786   3.359
 1506SOL     OW 4849   0.991   2.272   3.104
 1506SOL    HW1 4850   0.914   2.306   3.158
 1506SOL    HW2 4851   0.957   2.221   3.025
 1507SOL     OW 4852   1.041   2.563   2.291
 1507SOL    HW1 4853   1.067   2.559   2.387
 1507SOL    HW2 4854   0.956   2.512   2.277
 1508SOL     OW 4855   0.076   2.673   2.651
 1508SOL    HW1 4856   0.175   2.661   2.660
 1508SOL    HW2 4857   0.052   2.768   2.672
 1509SOL     OW 4858   0.130   3.683   3.433
 1509SOL    HW1 4859   0.120   3.668   3.532
 1509SOL    HW2 4860   0.044   3.719   3.397
 1510SOL     OW 4861   0.865   2.210   2.057
 1510SOL    HW1 4862   0.924   2.273   2.008
 1510SOL    HW2 4863   0.884   2.116   2.028
 1511SOL     OW 4864   1.719   2.447   3.693
 1511SOL    HW1 4865   1.693   2.536   3.657
 1511SOL    HW2 4866   1.717   2.379   3.620
 1512SOL     OW 4867   1.362   3.006   2.407
 1512SOL    HW1 4868   1.445   2.977   2.359
 1512SOL    HW2 4869   1.313   3.073   2.351
 1513SOL     OW 4870   0.550   2.058   2.747
 1513SOL    HW1 4871   0.545   2.053   2.847
 1513SOL    HW2 4872   0.552   2.154   2.718
 1514SOL     OW 4873   1.008   3.318   2.339
 1514SOL    HW1 4874   0.962   3.390   2.287
 1514SOL    HW2 4875   1.004   3.338   2.437
 1515SOL     OW 4876   0.351   3.663   2.715
 1515SOL    HW1 4877   0.401   3.577   2.721
 1515SOL    HW2 4878   0.416   3.740   2.712
 1516SOL     OW 4879   1.795   2.928   2.735
 1516SOL    HW1 4880   1.733   2.913   2.659
 1516SOL    HW2 4881   1.743   2.939   2.820
 1517SOL     OW 4882   1.227   3.412   3.368
 1517SOL    HW1 4883   1.233   3.335   3.432
 1517SOL    HW2 4884   1.175   3.386   3.288
 1518SOL     OW 4885   0.321   2.805   2.104
 1518SOL    HW1 4886   0.403   2.844   2.062
 1518SOL    HW2 4887   0.294   2.723   2.055
 1519SOL     OW 4888   1.458   2.597   2.590
 1519SOL    HW1 4889   1.453   2.532   2.665
 1519SOL    HW2 4890   1.538   2.656   2.603
 1520SOL     OW 4891   0.461   3.128   3.589
 1520SOL    HW1 4892   0.411   3.129   3.503
 1520SOL    HW2 4893   0.398   3.110   3.665
 1521SOL     OW 4894   1.111   3.638   2.099
 1521SOL    HW1 4895   1.051   3.576   2.149
 1521SOL    HW2 4896   1.142   3.594   2.014
 1522SOL     OW 4897   0.202   2.147   3.360
 1522SOL    HW1 4898   0.122   2.207   3.347
 1522SOL    HW2 4899   0.192   2.098   3.446
 1523SOL     OW 4900   1.632   3.239   1.943
 1523SOL    HW1 4901   1.600   3.333   1.933
 1523SOL    HW2 4902   1.556   3.176   1.931
 1524SOL     OW 4903   0.464   3.605   2.185
 1524SOL    HW1 4904   0.497   3.644   2.271
 1524SOL    HW2 4905   0.540   3.598   2.120
 1525SOL     OW 4906   1.400   1.969   2.288
 1525SOL    HW1 4907   1.376   1.932   2.198
 1525SOL    HW2 4908   1.499   1.985   2.292
 1526SOL     OW 4909   0.249   3.647   3.103
 1526SOL    HW1 4910   0.306   3.582   3.153
 1526SOL    HW2 4911   0.233   3.614   3.010
 1527SOL     OW 4912   0.940   3.560   2.766
 1527SOL    HW1 4913   1.020   3.503   2.787
 1527SOL    HW2 4914   0.891   3.520   2.689
 1528SOL     OW 4915   0.382   2.562   2.342
 1528SOL    HW1 4916   0.427   2.472   2.339
 1528SOL    HW2 4917   0.288   2.551   2.375
 1529SOL     OW 4918   1.547   2.084   3.591
 1529SOL    HW1 4919   1.542   2.121   3.683
 1529SOL    HW2 4920   1.475   2.015   3.579
 1530SOL     OW 4921   0.614   1.984   1.979
 1530SOL    HW1 4922   0.712   1.962   1.986
 1530SOL    HW2 4923   0.583   1.967   1.886
 1531SOL     OW 4924   0.781   2.126   3.611
 1531SOL    HW1 4925   0.848   2.065   3.654
 1531SOL    HW2 4926   0.708   2.145   3.676
 1532SOL     OW 4927   0.888   3.376   3.057
 1532SOL    HW1 4928   0.865   3.351   2.963
 1532SOL    HW2 4929   0.949   3.307   3.096
 1533SOL     OW 4930   1.351   2.452   3.295
 1533SOL    HW1 4931   1.379   2.409   3.380
 1533SOL    HW2 4932   1.376   2.548   3.296
 1534SOL     OW 4933   0.803   3.264   2.786
 1534SOL    HW1 4934   0.893   3.278   2.744
 1534SOL    HW2 4935   0.732   3.266   2.715
 1535SOL     OW 4936   0.922   2.365   2.761
 1535SOL    HW1 4937   0.897   2.356   2.665
 1535SOL    HW2 4938   0.970   2.283   2.792
 1536SOL     OW 4939   0.539   1.926   2.374
 1536SOL    HW1 4940   0.458   1.927   2.432
 1536SOL    HW2 4941   0.542   2.009   2.319
 1537SOL     OW 4942   1.434   3.050   1.903
 1537SOL    HW1 4943   1.466   2.974   1.960
 1537SOL    HW2 4944   1.342   3.077   1.933
 1538SOL     OW 4945   0.297   1.897   2.033
 1538SOL    HW1 4946   0.346   1.981   2.012
 1538SOL    HW2 4947   0.359   1.832   2.078
 1539SOL     OW 4948   0.935   2.098   2.342
 1539SOL    HW1 4949   0.887   2.139   2.264
 1539SOL    HW2 4950   1.034   2.096   2.323
 1540SOL     OW 4951   1.076   2.545   3.326
 1540SOL    HW1 4952   0.996   2.484   3.329
 1540SOL    HW2 4953   1.157   2.492   3.302
 1541SOL     OW 4954   1.227   3.432   2.655
 1541SOL    HW1 4955   1.248   3.506   2.590
 1541SOL    HW2 4956   1.295   3.432   2.728
 1542SOL     OW 4957   0.459   3.014   2.603
 1542SOL    HW1 4958   0.388   2.987   2.668
 1542SOL    HW2 4959   0.433   2.986   2.510
 1543SOL     OW 4960   1.271   3.659   2.453
 1543SOL    HW1 4961   1.315   3.723   2.389
 1543SOL    HW2 4962   1.221   3.711   2.523
 1544SOL     OW 4963   1.032   2.411   1.878
 1544SOL    HW1 4964   0.991   2.493   1.839
 1544SOL    HW2 4965   1.096   2.437   1.951
 1545SOL     OW 4966   0.078   2.418   3.248
 1545SOL    HW1 4967   0.170   2.417   3.207
 1545SOL    HW2 4968   0.072   2.492   3.315
 1546SOL     OW 4969   0.561   2.084   3.009
 1546SOL    HW1 4970   0.599   2.000   3.046
 1546SOL    HW2 4971   0.473   2.103   3.053
 1547SOL     OW 4972   0.866   2.316   2.504
 1547SOL    HW1 4973   0.834   2.388   2.442
 1547SOL    HW2 4974   0.890   2.235   2.451
 1548SOL     OW 4975   1.017   1.901   2.615
 1548SOL    HW1 4976   0.945   1.906   2.546
 1548SOL    HW2 4977   0.993   1.832   2.684
 1549SOL     OW 4978   1.429   3.035   2.729
 1549SOL    HW1 4979   1.374   2.951   2.722
 1549SOL    HW2 4980   1.455   3.064   2.637
 1550SOL     OW 4981   1.466   2.452   2.854
 1550SOL    HW1 4982   1.436   2.357   2.861
 1550SOL    HW2 4983   1.539   2.468   2.920
 1551SOL     OW 4984   1.857   2.695   2.239
 1551SOL    HW1 4985   1.899   2.631   2.303
 1551SOL    HW2 4986   1.819   2.644   2.161
 1552SOL     OW 4987   0.488   3.247   2.036
 1552SOL    HW1 4988   0.401   3.232   2.083
 1552SOL    HW2 4989   0.471   3.273   1.941
 1553SOL     OW 4990   1.664   3.142   2.519
 1553SOL    HW1 4991   1.763   3.150   2.533
 1553SOL    HW2 4992   1.619   3.226   2.550
 1554SOL     OW 4993   1.390   2.437   1.940
 1554SOL    HW1 4994   1.336   2.416   2.021
 1554SOL    HW2 4995   1.481   2.396   1.949
 1555SOL     OW 4996   0.527   2.118   2.190
 1555SOL    HW1 4997   0.554   2.059   2.115
 1555SOL    HW2 4998   0.527   2.213   2.159
 1556SOL     OW 4999   1.754   3.085   3.450
 1556SOL    HW1 5000   1.845   3.046   3.437
 1556SOL    HW2 5001   1.762   3.181   3.474
 1557SOL     OW 5002   1.064   3.209   3.202
 1557SOL    HW1 5003   0.984   3.186   3.257
 1557SOL    HW2 5004   1.147   3.183   3.251
 1558SOL     OW 5005   1.592   3.491   3.487
 1558SOL    HW1 5006   1.619   3.525   3.397
 1558SOL    HW2 5007   1.671   3.453   3.533
 1559SOL     OW 5008   1.111   3.057   2.962
 1559SOL    HW1 5009   1.071   3.101   3.043
 1559SOL    HW2 5010   1.070   3.094   2.879
 1560SOL     OW 5011   1.638   2.961   2.941
 1560SOL    HW1 5012   1.643   3.042   3.000
 1560SOL    HW2 5013   1.552   2.963   2.890
 1561SOL     OW 5014   0.915   1.951   3.264
 1561SOL    HW1 5015   0.940   1.931   3.169
 1561SOL    HW2 5016   0.987   2.007   3.306
 1562SOL     OW 5017   0.980   2.978   3.581
 1562SOL    HW1 5018   0.881   2.984   3.591
 1562SOL    HW2 5019   1.003   2.898   3.525
 1563SOL     OW 5020   0.705   2.912   2.230
 1563SOL    HW1 5021   0.691   2.919   2.329
 1563SOL    HW2 5022   0.789   2.861   2.212
 1564SOL     OW 5023   0.410   2.675   3.113
 1564SOL    HW1 5024   0.496   2.687   3.163
 1564SOL    HW2 5025   0.368   2.588   3.140
 1565SOL     OW 5026   1.274   2.248   3.124
 1565SOL    HW1 5027   1.295   2.322   3.188
 1565SOL    HW2 5028   1.185   2.265   3.081
 1566SOL     OW 5029   0.064   3.426   3.193
 1566SOL    HW1 5030   0.018   3.508   3.159
 1566SOL    HW2 5031   0.162   3.445   3.202
 1567SOL     OW 5032   0.367   2.962   2.363
 1567SOL    HW1 5033   0.360   3.045   2.307
 1567SOL    HW2 5034   0.371   2.882   2.303
 1568SOL     OW 5035   0.566   2.399   2.727
 1568SOL    HW1 5036   0.578   2.465   2.653
 1568SOL    HW2 5037   0.612   2.433   2.810
 1569SOL     OW 5038   1.252   3.210   2.250
 1569SOL    HW1 5039   1.302   3.287   2.290
 1569SOL    HW2 5040   1.157   3.212   2.282
 1570SOL     OW 5041   1.272   3.307   3.004
 1570SOL    HW1 5042   1.319   3.320   3.091
 1570SOL    HW2 5043   1.206   3.233   3.013
 1571SOL     OW 5044   1.582   2.501   2.334
 1571SOL    HW1 5045   1.551   2.562   2.407
 1571SOL    HW2 5046   1.632   2.553   2.265
 1572SOL     OW 5047   0.354   3.372   3.191
 1572SOL    HW1 5048   0.333   3.328   3.104
 1572SOL    HW2 5049   0.451   3.398   3.194
 1573SOL     OW 5050   0.402   2.613   3.460
 1573SOL    HW1 5051   0.470   2.668   3.413
 1573SOL    HW2 5052   0.442   2.525   3.487
 1574SOL     OW 5053   1.587   2.641   3.532
 1574SOL    HW1 5054   1.495   2.679   3.527
 1574SOL    HW2 5055   1.647   2.688   3.467
 1575SOL     OW 5056   1.013   1.967   3.632
 1575SOL    HW1 5057   1.019   2.052   3.580
 1575SOL    HW2 5058   1.045   1.891   3.575
 1576SOL     OW 5059   0.504   1.912   3.602
 1576SOL    HW1 5060   0.462   1.855   3.532
 1576SOL    HW2 5061   0.438   1.981   3.634
 1577SOL     OW 5062   0.573   2.732   2.891
 1577SOL    HW1 5063   0.617   2.821   2.882
 1577SOL    HW2 5064   0.510   2.732   2.968
 1578SOL     OW 5065   1.360   2.724   2.907
 1578SOL    HW1 5066   1.285   2.724   2.841
 1578SOL    HW2 5067   1.397   2.632   2.916
 1579SOL     OW 5068   1.209   2.387   2.137
 1579SOL    HW1 5069   1.222   2.303   2.191
 1579SOL    HW2 5070   1.180   2.461   2.197
 1580SOL     OW 5071   0.307   2.075   3.093
 1580SOL    HW1 5072   0.284   2.112   3.183
 1580SOL    HW2 5073   0.277   1.980   3.087
 1581SOL     OW 5074   0.037   3.172   3.144
 1581SOL    HW1 5075   0.090   3.123   3.212
 1581SOL    HW2 5076   0.059   3.270   3.149
 1582SOL     OW 5077   0.732   2.496   2.926
 1582SOL    HW1 5078   0.791   2.470   2.850
 1582SOL    HW2 5079   0.704   2.592   2.915
 1583SOL     OW 5080   1.728   2.797   3.716
 1583SOL    HW1 5081   1.682   2.790   3.627
 1583SOL    HW2 5082   1.666   2.841   3.782
 1584SOL     OW 5083   0.307   1.925   2.480
 1584SOL    HW1 5084   0.296   2.019   2.513
 1584SOL    HW2 5085   0.302   1.862   2.557
 1585SOL     OW 5086   1.622   2.229   2.236
 1585SOL    HW1 5087   1.624   2.153   2.300
 1585SOL    HW2 5088   1.574   2.306   2.276
 1586SOL     OW 5089   1.023   2.628   2.828
 1586SOL    HW1 5090   1.038   2.649   2.924
 1586SOL    HW2 5091   0.993   2.533   2.819
 1587SOL     OW 5092   0.980   3.435   3.562
 1587SOL    HW1 5093   0.960   3.479   3.474
 1587SOL    HW2 5094   1.019   3.344   3.546
 1588SOL     OW 5095   1.859   3.380   3.467
 1588SOL    HW1 5096   1.873   3.407   3.372
 1588SOL    HW2 5097   1.942   3.402   3.520
 1589SOL     OW 5098   0.350   2.760   3.666
 1589SOL    HW1 5099   0.426   2.804   3.714
 1589SOL    HW2 5100   0.385   2.713   3.584
 1590SOL     OW 5101   1.540   2.136   1.987
 1590SOL    HW1 5102   1.479   2.061   2.010
 1590SOL    HW2 5103   1.562   2.188   2.070
 1591SOL     OW 5104   1.303   2.700   1.904
 1591SOL    HW1 5105   1.337   2.607   1.919
 1591SOL    HW2 5106   1.321   2.727   1.809
 1592SOL     OW 5107   1.068   3.195   2.711
 1592SOL    HW1 5108   1.075   3.111   2.656
 1592SOL    HW2 5109   1.130   3.264   2.675
 1593SOL     OW 5110   0.319   2.672   2.811
 1593SOL    HW1 5111   0.412   2.708   2.816
 1593SOL    HW2 5112   0.313   2.587   2.863
 1594SOL     OW 5113   0.339   2.371   2.868
 1594SOL    HW1 5114   0.287   2.288   2.851
 1594SOL    HW2 5115   0.416   2.376   2.804
 1595SOL     OW 5116   1.138   2.242   3.540
 1595SOL    HW1 5117   1.093   2.305   3.604
 1595SOL    HW2 5118   1.231   2.273   3.523
 1596SOL     OW 5119   1.160   2.069   3.339
 1596SOL    HW1 5120   1.160   2.133   3.416
 1596SOL    HW2 5121   1.188   2.117   3.256
 1597SOL     OW 5122   0.008   3.188   2.062
 1597SOL    HW1 5123  -0.085   3.209   2.031
 1597SOL    HW2 5124   0.018   3.089   2.075
 1598SOL     OW 5125   0.088   3.663   2.789
 1598SOL    HW1 5126   0.046   3.577   2.762
 1598SOL    HW2 5127   0.182   3.666   2.755
 1599SOL     OW 5128   0.504   3.430   2.772
 1599SOL    HW1 5129   0.570   3.504   2.781
 1599SOL    HW2 5130   0.548   3.351   2.730
 1600SOL     OW 5131   1.002   2.658   3.100
 1600SOL    HW1 5132   1.043   2.626   3.186
 1600SOL    HW2 5133   0.906   2.631   3.097
 1601SOL     OW 5134   0.040   2.406   2.976
 1601SOL    HW1 5135   0.125   2.373   2.935
 1601SOL    HW2 5136   0.053   2.421   3.074
 1602SOL     OW 5137   0.189   2.382   3.584
 1602SOL    HW1 5138   0.248   2.342   3.514
 1602SOL    HW2 5139   0.131   2.453   3.543
 1603SOL     OW 5140   1.369   2.812   3.522
 1603SOL    HW1 5141   1.408   2.901   3.542
 1603SOL    HW2 5142   1.379   2.792   3.425
 1604SOL     OW 5143   0.815   2.434   2.187
 1604SOL    HW1 5144   0.822   2.345   2.141
 1604SOL    HW2 5145   0.721   2.468   2.179
 1605SOL     OW 5146   1.657   2.466   3.068
 1605SOL    HW1 5147   1.619   2.397   3.130
 1605SOL    HW2 5148   1.739   2.430   3.024
 1606SOL     OW 5149   0.252   3.426   3.606
 1606SOL    HW1 5150   0.222   3.483   3.682
 1606SOL    HW2 5151   0.245   3.329   3.632
 1607SOL     OW 5152   0.671   2.326   3.131
 1607SOL    HW1 5153   0.637   2.237   3.101
 1607SOL    HW2 5154   0.697   2.380   3.051
 1608SOL     OW 5155   0.930   3.540   3.327
 1608SOL    HW1 5156   0.906   3.522   3.232
 1608SOL    HW2 5157   0.960   3.634   3.337
 1609SOL     OW 5158   0.473   2.362   2.053
 1609SOL    HW1 5159   0.534   2.442   2.057
 1609SOL    HW2 5160   0.378   2.393   2.060
 1610SOL     OW 5161   0.159   2.999   3.328
 1610SOL    HW1 5162   0.181   2.938   3.404
 1610SOL    HW2 5163   0.169   2.950   3.242
 1611SOL     OW 5164   1.347   2.921   3.096
 1611SOL    HW1 5165   1.371   2.858   3.022
 1611SOL    HW2 5166   1.257   2.961   3.078
 1612SOL     OW 5167   1.302   2.717   2.171
 1612SOL    HW1 5168   1.216   2.686   2.213
 1612SOL    HW2 5169   1.298   2.703   2.072
 1613SOL     OW 5170   1.759   3.609   3.016
 1613SOL    HW1 5171   1.820   3.639   2.943
 1613SOL    HW2 5172   1.721   3.520   2.994
 1614SOL     OW 5173   1.252   3.593   2.990
 1614SOL    HW1 5174   1.336   3.598   2.936
 1614SOL    HW2 5175   1.229   3.497   3.008
 1615SOL     OW 5176   0.083   3.120   2.884
 1615SOL    HW1 5177   0.078   3.119   2.984
 1615SOL    HW2 5178   0.000   3.079   2.846
 1616SOL     OW 5179   0.688   3.524   3.578
 1616SOL    HW1 5180   0.632   3.605   3.587
 1616SOL    HW2 5181   0.740   3.528   3.492
 1617SOL     OW 5182   1.726   1.997   2.385
 1617SOL    HW1 5183   1.799   1.980   2.318
 1617SOL    HW2 5184   1.695   1.910   2.423
 1618SOL     OW 5185   1.388   3.435   2.339
 1618SOL    HW1 5186   1.455   3.447   2.265
 1618SOL    HW2 5187   1.348   3.524   2.362
 1619SOL     OW 5188   0.130   3.656   3.713
 1619SOL    HW1 5189   0.089   3.582   3.766
 1619SOL    HW2 5190   0.194   3.707   3.771
 1620SOL     OW 5191   1.280   2.789   2.534
 1620SOL    HW1 5192   1.340   2.708   2.536
 1620SOL    HW2 5193   1.320   2.858   2.474
 1621SOL     OW 5194   0.830   3.135   3.284
 1621SOL    HW1 5195   0.825   3.168   3.379
 1621SOL    HW2 5196   0.744   3.154   3.238
 1622SOL     OW 5197   0.672   3.478   2.016
 1622SOL    HW1 5198   0.681   3.488   1.917
 1622SOL    HW2 5199   0.632   3.389   2.037
 1623SOL     OW 5200   1.650   3.582   3.256
 1623SOL    HW1 5201   1.703   3.592   3.172
 1623SOL    HW2 5202   1.623   3.672   3.290
 1624SOL     OW 5203   1.841   2.037   2.825
 1624SOL    HW1 5204   1.880   1.952   2.789
 1624SOL    HW2 5205   1.743   2.039   2.806
 1625SOL     OW 5206   0.263   2.188   2.582
 1625SOL    HW1 5207   0.184   2.239   2.548
 1625SOL    HW2 5208   0.254   2.173   2.680
 1626SOL     OW 5209   1.194   3.474   1.893
 1626SOL    HW1 5210   1.200   3.381   1.930
 1626SOL    HW2 5211   1.135   3.474   1.813
 1627SOL     OW 5212   0.822   2.864   3.234
 1627SOL    HW1 5213   0.862   2.863   3.142
 1627SOL    HW2 5214   0.832   2.956   3.274
 1628SOL     OW 5215   0.916   2.772   2.153
 1628SOL    HW1 5216   0.979   2.810   2.085
 1628SOL    HW2 5217   0.956   2.689   2.192
 1629SOL     OW 5218   1.504   3.469   1.906
 1629SOL    HW1 5219   1.412   3.506   1.913
 1629SOL    HW2 5220   1.542   3.489   1.816
 1630SOL     OW 5221   0.372   3.150   3.352
 1630SOL    HW1 5222   0.359   3.243   3.318
 1630SOL    HW2 5223   0.288   3.098   3.339
 1631SOL     OW 5224   1.614   3.154   3.151
 1631SOL    HW1 5225   1.674   3.157   3.231
 1631SOL    HW2 5226   1.539   3.218   3.164
 1632SOL     OW 5227   1.039   2.960   2.558
 1632SOL    HW1 5228   0.969   2.913   2.612
 1632SOL    HW2 5229   1.098   2.892   2.515
 1633SOL     OW 5230   1.014   2.098   2.833
 1633SOL    HW1 5231   1.006   2.062   2.740
 1633SOL    HW2 5232   1.012   2.022   2.898
 1634SOL     OW 5233   0.590   3.349   2.353
 1634SOL    HW1 5234   0.632   3.291   2.283
 1634SOL    HW2 5235   0.546   3.428   2.309
 1635SOL     OW 5236   1.709   2.247   3.243
 1635SOL    HW1 5237   1.782   2.316   3.247
 1635SOL    HW2 5238   1.737   2.172   3.184
 1636SOL     OW 5239   0.255   3.210   2.152
 1636SOL    HW1 5240   0.159   3.211   2.125
 1636SOL    HW2 5241   0.267   3.263   2.236
 1637SOL     OW 5242   0.105   2.875   3.588
 1637SOL    HW1 5243   0.028   2.842   3.642
 1637SOL    HW2 5244   0.190   2.845   3.630
 1638SOL     OW 5245   0.672   2.065   3.351
 1638SOL    HW1 5246   0.762   2.049   3.311
 1638SOL    HW2 5247   0.680   2.070   3.450
 1639SOL     OW 5248   0.075   2.207   1.895
 1639SOL    HW1 5249  -0.017   2.179   1.866
 1639SOL    HW2 5250   0.106   2.284   1.839
 1640SOL     OW 5251   1.440   2.718   3.260
 1640SOL    HW1 5252   1.383   2.770   3.197
 1640SOL    HW2 5253   1.536   2.730   3.236
 1641SOL     OW 5254   0.072   2.028   2.180
 1641SOL    HW1 5255   0.055   2.111   2.126
 1641SOL    HW2 5256   0.162   1.991   2.158
 1642SOL     OW 5257   1.183   3.197   1.981
 1642SOL    HW1 5258   1.084   3.186   1.983
 1642SOL    HW2 5259   1.217   3.212   2.074
 1643SOL     OW 5260   0.613   2.704   3.293
 1643SOL    HW1 5261   0.669   2.785   3.276
 1643SOL    HW2 5262   0.672   2.624   3.296
 1644SOL     OW 5263   1.493   3.629   2.821
 1644SOL    HW1 5264   1.526   3.693   2.752
 1644SOL    HW2 5265   1.559   3.623   2.896
 1645SOL     OW 5266   0.716   2.427   3.570
 1645SOL    HW1 5267   0.735   2.492   3.644
 1645SOL    HW2 5268   0.776   2.347   3.579
 1646SOL     OW 5269   1.450   3.082   3.495
 1646SOL    HW1 5270   1.441   3.072   3.594
 1646SOL    HW2 5271   1.546   3.075   3.469
 1647SOL     OW 5272   0.390   3.603   3.422
 1647SOL    HW1 5273   0.299   3.644   3.420
 1647SOL    HW2 5274   0.383   3.509   3.454
 1648SOL     OW 5275   1.674   2.745   3.116
 1648SOL    HW1 5276   1.647   2.656   3.079
 1648SOL    HW2 5277   1.675   2.813   3.043
 1649SOL     OW 5278   1.225   2.187   2.311
 1649SOL    HW1 5279   1.290   2.113   2.300
 1649SOL    HW2 5280   1.245   2.237   2.395
 1650SOL     OW 5281   0.594   2.607   2.514
 1650SOL    HW1 5282   0.644   2.692   2.495
 1650SOL    HW2 5283   0.506   2.609   2.466
 1651SOL     OW 5284   1.777   2.204   3.504
 1651SOL    HW1 5285   1.760   2.235   3.410
 1651SOL    HW2 5286   1.693   2.167   3.542
 1652SOL     OW 5287   1.730   2.796   3.379
 1652SOL    HW1 5288   1.768   2.887   3.394
 1652SOL    HW2 5289   1.722   2.779   3.280
 1653SOL     OW 5290   0.859   3.236   1.878
 1653SOL    HW1 5291   0.813   3.251   1.966
 1653SOL    HW2 5292   0.903   3.321   1.848
 1654SOL     OW 5293   0.661   3.652   2.815
 1654SOL    HW1 5294   0.615   3.740   2.802
 1654SOL    HW2 5295   0.760   3.664   2.808
 1655SOL     OW 5296   0.859   2.818   2.723
 1655SOL    HW1 5297   0.913   2.749   2.771
 1655SOL    HW2 5298   0.827   2.887   2.789
 1656SOL     OW 5299   1.083   2.846   1.949
 1656SOL    HW1 5300   1.060   2.899   1.867
 1656SOL    HW2 5301   1.164   2.790   1.930
 1657SOL     OW 5302   1.861   3.431   2.713
 1657SOL    HW1 5303   1.790   3.419   2.643
 1657SOL    HW2 5304   1.862   3.352   2.773
 1658SOL     OW 5305   0.221   3.176   3.706
 1658SOL    HW1 5306   0.156   3.103   3.685
 1658SOL    HW2 5307   0.225   3.190   3.804
 1659SOL     OW 5308   0.079   3.102   2.515
 1659SOL    HW1 5309   0.078   3.055   2.603
 1659SOL    HW2 5310   0.161   3.074   2.464
 1660SOL     OW 5311   0.672   3.253   3.486
 1660SOL    HW1 5312   0.594   3.203   3.524
 1660SOL    HW2 5313   0.669   3.348   3.517
 1661SOL     OW 5314   1.824   2.054   3.089
 1661SOL    HW1 5315   1.820   1.964   3.133
 1661SOL    HW2 5316   1.827   2.043   2.990
 1662SOL     OW 5317   0.428   2.286   2.382
 1662SOL    HW1 5318   0.458   2.214   2.320
 1662SOL    HW2 5319   0.389   2.246   2.465
 1663SOL     OW 5320   1.705   3.349   2.966
 1663SOL    HW1 5321   1.612   3.324   2.939
 1663SOL    HW2 5322   1.731   3.299   3.048
 1664SOL     OW 5323   0.317   2.409   3.142
 1664SOL    HW1 5324   0.355   2.350   3.214
 1664SOL    HW2 5325   0.357   2.383   3.054
 1665SOL     OW 5326   0.812   3.448   2.549
 1665SOL    HW1 5327   0.844   3.458   2.455
 1665SOL    HW2 5328   0.733   3.386   2.551
 1666SOL     OW 5329   1.424   2.076   2.974
 1666SOL    HW1 5330   1.476   2.011   3.029
 1666SOL    HW2 5331   1.375   2.139   3.035
 1667SOL     OW 5332   1.001   1.896   3.016
 1667SOL    HW1 5333   0.938   1.824   2.985
 1667SOL    HW2 5334   1.094   1.860   3.016
 1668SOL     OW 5335   0.770   3.192   2.163
 1668SOL    HW1 5336   0.724   3.105   2.180
 1668SOL    HW2 5337   0.861   3.189   2.204
 1669SOL     OW 5338   0.618   3.429   3.146
 1669SOL    HW1 5339   0.613   3.511   3.203
 1669SOL    HW2 5340   0.707   3.426   3.101
 1670SOL     OW 5341   1.352   1.914   2.030
 1670SOL    HW1 5342   1.387   1.873   1.946
 1670SOL    HW2 5343   1.262   1.876   2.050
 1671SOL     OW 5344   1.300   2.315   2.553
 1671SOL    HW1 5345   1.241   2.395   2.557
 1671SOL    HW2 5346   1.315   2.280   2.646
 1672SOL     OW 5347   1.593   2.083   2.744
 1672SOL    HW1 5348   1.509   2.082   2.798
 1672SOL    HW2 5349   1.595   2.166   2.688
 1673SOL     OW 5350   0.039   2.939   2.162
 1673SOL    HW1 5351   0.138   2.928   2.153
 1673SOL    HW2 5352  -0.001   2.853   2.194
 1674SOL     OW 5353   0.875   3.508   2.199
 1674SOL    HW1 5354   0.798   3.473   2.145
 1674SOL    HW2 5355   0.843   3.579   2.261
 1675SOL     OW 5356   0.230   2.490   3.837
 1675SOL    HW1 5357   0.137   2.488   3.874
 1675SOL    HW2 5358   0.231   2.451   3.745
 1676SOL     OW 5359   0.225   2.137   4.720
 1676SOL    HW1 5360   0.260   2.120   4.812
 1676SOL    HW2 5361   0.137   2.092   4.708
 1677SOL     OW 5362   0.019   2.230   4.371
 1677SOL    HW1 5363  -0.063   2.273   4.410
 1677SOL    HW2 5364  -0.009   2.157   4.308
 1678SOL     OW 5365   0.569   3.137   4.889
 1678SOL    HW1 5366   0.476   3.130   4.852
 1678SOL    HW2 5367   0.580   3.226   4.933
 1679SOL     OW 5368   1.555   3.373   4.427
 1679SOL    HW1 5369   1.498   3.357   4.508
 1679SOL    HW2 5370   1.496   3.383   4.347
 1680SOL     OW 5371   1.135   2.565   4.441
 1680SOL    HW1 5372   1.192   2.643   4.416
 1680SOL    HW2 5373   1.075   2.591   4.517
 1681SOL     OW 5374   1.755   2.469   3.955
 1681SOL    HW1 5375   1.743   2.456   3.856
 1681SOL    HW2 5376   1.725   2.388   4.004
 1682SOL     OW 5377   0.768   3.006   4.747
 1682SOL    HW1 5378   0.690   3.023   4.807
 1682SOL    HW2 5379   0.802   3.093   4.711
 1683SOL     OW 5380   0.850   2.660   5.547
 1683SOL    HW1 5381   0.846   2.736   5.612
 1683SOL    HW2 5382   0.872   2.696   5.456
 1684SOL     OW 5383   0.685   2.874   4.389
 1684SOL    HW1 5384   0.754   2.858   4.459
 1684SOL    HW2 5385   0.612   2.931   4.427
 1685SOL     OW 5386   0.686   3.023   5.527
 1685SOL    HW1 5387   0.746   3.102   5.541
 1685SOL    HW2 5388   0.600   3.054   5.486
 1686SOL     OW 5389   0.335   3.297   4.785
 1686SOL    HW1 5390   0.257   3.266   4.732
 1686SOL    HW2 5391   0.393   3.355   4.728
 1687SOL     OW 5392   1.460   3.367   5.063
 1687SOL    HW1 5393   1.484   3.461   5.089
 1687SOL    HW2 5394   1.444   3.313   5.145
 1688SOL     OW 5395   0.438   2.254   5.223
 1688SOL    HW1 5396   0.520   2.198   5.232
 1688SOL    HW2 5397   0.357   2.196   5.227
 1689SOL     OW 5398   1.603   2.309   4.461
 1689SOL    HW1 5399   1.529   2.355   4.411
 1689SOL    HW2 5400   1.654   2.377   4.514
 1690SOL     OW 5401   0.231   3.575   4.207
 1690SOL    HW1 5402   0.265   3.652   4.261
 1690SOL    HW2 5403   0.275   3.575   4.117
 1691SOL     OW 5404   1.127   3.203   5.414
 1691SOL    HW1 5405   1.174   3.203   5.502
 1691SOL    HW2 5406   1.079   3.116   5.403
 1692SOL     OW 5407   0.230   3.296   4.262
 1692SOL    HW1 5408   0.204   3.392   4.262
 1692SOL    HW2 5409   0.159   3.242   4.307
 1693SOL     OW 5410   0.240   2.953   4.610
 1693SOL    HW1 5411   0.254   2.869   4.662
 1693SOL    HW2 5412   0.185   3.017   4.665
 1694SOL     OW 5413   0.620   3.648   5.163
 1694SOL    HW1 5414   0.528   3.631   5.198
 1694SOL    HW2 5415   0.648   3.740   5.189
 1695SOL     OW 5416   0.606   2.826   3.847
 1695SOL    HW1 5417   0.613   2.910   3.793
 1695SOL    HW2 5418   0.652   2.839   3.935
 1696SOL     OW 5419   1.594   1.976   5.204
 1696SOL    HW1 5420   1.576   2.043   5.132
 1696SOL    HW2 5421   1.591   2.022   5.293
 1697SOL     OW 5422   0.122   2.505   4.287
 1697SOL    HW1 5423   0.077   2.417   4.304
 1697SOL    HW2 5424   0.121   2.559   4.371
 1698SOL     OW 5425   1.842   3.629   4.083
 1698SOL    HW1 5426   1.896   3.600   4.163
 1698SOL    HW2 5427   1.872   3.719   4.054
 1699SOL     OW 5428   0.027   3.458   3.841
 1699SOL    HW1 5429   0.008   3.362   3.862
 1699SOL    HW2 5430  -0.006   3.516   3.916
 1700SOL     OW 5431   1.689   2.784   4.336
 1700SOL    HW1 5432   1.784   2.755   4.344
 1700SOL    HW2 5433   1.681   2.849   4.261
 1701SOL     OW 5434   1.641   2.970   4.156
 1701SOL    HW1 5435   1.727   2.972   4.104
 1701SOL    HW2 5436   1.655   3.017   4.244
 1702SOL     OW 5437   0.113   2.599   5.321
 1702SOL    HW1 5438   0.201   2.586   5.366
 1702SOL    HW2 5439   0.100   2.696   5.299
 1703SOL     OW 5440   0.613   3.227   4.450
 1703SOL    HW1 5441   0.564   3.140   4.459
 1703SOL    HW2 5442   0.590   3.270   4.363
 1704SOL     OW 5443   1.293   3.090   5.147
 1704SOL    HW1 5444   1.330   3.017   5.089
 1704SOL    HW2 5445   1.345   3.095   5.232
 1705SOL     OW 5446   0.809   1.866   4.226
 1705SOL    HW1 5447   0.849   1.957   4.217
 1705SOL    HW2 5448   0.709   1.874   4.232
 1706SOL     OW 5449   0.197   2.838   4.988
 1706SOL    HW1 5450   0.286   2.793   4.974
 1706SOL    HW2 5451   0.124   2.773   4.969
 1707SOL     OW 5452   1.525   2.861   3.914
 1707SOL    HW1 5453   1.462   2.785   3.927
 1707SOL    HW2 5454   1.573   2.879   4.000
 1708SOL     OW 5455   1.187   3.654   5.340
 1708SOL    HW1 5456   1.211   3.714   5.264
 1708SOL    HW2 5457   1.194   3.559   5.310
 1709SOL     OW 5458   0.317   2.113   5.525
 1709SOL    HW1 5459   0.388   2.184   5.531
 1709SOL    HW2 5460   0.229   2.152   5.553
 1710SOL     OW 5461   1.466   3.279   4.677
 1710SOL    HW1 5462   1.407   3.285   4.757
 1710SOL    HW2 5463   1.451   3.191   4.631
 1711SOL     OW 5464   1.667   3.576   4.296
 1711SOL    HW1 5465   1.626   3.553   4.208
 1711SOL    HW2 5466   1.649   3.502   4.361
 1712SOL     OW 5467   0.598   2.591   3.994
 1712SOL    HW1 5468   0.622   2.660   3.926
 1712SOL    HW2 5469   0.520   2.624   4.048
 1713SOL     OW 5470   1.281   2.207   4.668
 1713SOL    HW1 5471   1.195   2.157   4.655
 1713SOL    HW2 5472   1.343   2.153   4.724
 1714SOL     OW 5473   1.576   3.524   4.031
 1714SOL    HW1 5474   1.665   3.570   4.034
 1714SOL    HW2 5475   1.555   3.500   3.936
 1715SOL     OW 5476   0.807   2.467   5.189
 1715SOL    HW1 5477   0.760   2.464   5.278
 1715SOL    HW2 5478   0.756   2.412   5.123
 1716SOL     OW 5479   1.394   2.331   5.398
 1716SOL    HW1 5480   1.374   2.374   5.486
 1716SOL    HW2 5481   1.472   2.269   5.407
 1717SOL     OW 5482   0.973   2.752   5.296
 1717SOL    HW1 5483   1.019   2.668   5.267
 1717SOL    HW2 5484   0.917   2.786   5.221
 1718SOL     OW 5485   0.991   2.272   4.966
 1718SOL    HW1 5486   0.914   2.306   5.020
 1718SOL    HW2 5487   0.957   2.221   4.887
 1719SOL     OW 5488   1.041   2.563   4.153
 1719SOL    HW1 5489   1.067   2.559   4.249
 1719SOL    HW2 5490   0.956   2.512   4.139
 1720SOL     OW 5491   0.076   2.673   4.513
 1720SOL    HW1 5492   0.175   2.661   4.522
 1720SOL    HW2 5493   0.052   2.768   4.534
 1721SOL     OW 5494   0.130   3.683   5.295
 1721SOL    HW1 5495   0.120   3.668   5.394
 1721SOL    HW2 5496   0.044   3.719   5.259
 1722SOL     OW 5497   0.865   2.210   3.919
 1722SOL    HW1 5498   0.924   2.273   3.870
 1722SOL    HW2 5499   0.884   2.116   3.890
 1723SOL     OW 5500   1.362   3.006   4.269
 1723SOL    HW1 5501   1.445   2.977   4.221
 1723SOL    HW2 5502   1.313   3.073   4.213
 1724SOL     OW 5503   0.550   2.058   4.609
 1724SOL    HW1 5504   0.545   2.053   4.709
 1724SOL    HW2 5505   0.552   2.154   4.580
 1725SOL     OW 5506   1.008   3.318   4.201
 1725SOL    HW1 5507   0.962   3.390   4.149
 1725SOL    HW2 5508   1.004   3.338   4.299
 1726SOL     OW 5509   0.351   3.663   4.577
 1726SOL    HW1 5510   0.401   3.577   4.583
 1726SOL    HW2 5511   0.416   3.740   4.574
 1727SOL     OW 5512   1.795   2.928   4.597
 1727SOL    HW1 5513   1.733   2.913   4.521
 1727SOL    HW2 5514   1.743   2.939   4.682
 1728SOL     OW 5515   1.227   3.412   5.230
 1728SOL    HW1 5516   1.233   3.335   5.294
 1728SOL    HW2 5517   1.175   3.386   5.150
 1729SOL     OW 5518   0.321   2.805   3.966
 1729SOL    HW1 5519   0.403   2.844   3.924
 1729SOL    HW2 5520   0.294   2.723   3.917
 1730SOL     OW 5521   1.458   2.597   4.452
 1730SOL    HW1 5522   1.453   2.532   4.527
 1730SOL    HW2 5523   1.538   2.656   4.465
 1731SOL     OW 5524   0.461   3.128   5.451
 1731SOL    HW1 5525   0.411   3.129   5.365
 1731SOL    HW2 5526   0.398   3.110   5.527
 1732SOL     OW 5527   1.111   3.638   3.961
 1732SOL    HW1 5528   1.051   3.576   4.011
 1732SOL    HW2 5529   1.142   3.594   3.876
 1733SOL     OW 5530   0.202   2.147   5.222
 1733SOL    HW1 5531   0.122   2.207   5.209
 1733SOL    HW2 5532   0.192   2.098   5.308
 1734SOL     OW 5533   1.632   3.239   3.805
 1734SOL    HW1 5534   1.600   3.333   3.795
 1734SOL    HW2 5535   1.556   3.176   3.793
 1735SOL     OW 5536   0.464   3.605   4.047
 1735SOL    HW1 5537   0.497   3.644   4.133
 1735SOL    HW2 5538   0.540   3.598   3.982
 1736SOL     OW 5539   1.400   1.969   4.150
 1736SOL    HW1 5540   1.376   1.932   4.060
 1736SOL    HW2 5541   1.499   1.985   4.154
 1737SOL     OW 5542   0.249   3.647   4.965
 1737SOL    HW1 5543   0.306   3.582   5.015
 1737SOL    HW2 5544   0.233   3.614   4.872
 1738SOL     OW 5545   0.940   3.560   4.628
 1738SOL    HW1 5546   1.020   3.503   4.649
 1738SOL    HW2 5547   0.891   3.520   4.551
 1739SOL     OW 5548   0.382   2.562   4.204
 1739SOL    HW1 5549   0.427   2.472   4.201
 1739SOL    HW2 5550   0.288   2.551   4.237
 1740SOL     OW 5551   0.614   1.984   3.841
 1740SOL    HW1 5552   0.712   1.962   3.848
 1740SOL    HW2 5553   0.583   1.967   3.748
 1741SOL     OW 5554   0.781   2.126   5.473
 1741SOL    HW1 5555   0.848   2.065   5.516
 1741SOL    HW2 5556   0.708   2.145   5.538
 1742SOL     OW 5557   0.888   3.376   4.919
 1742SOL    HW1 5558   0.865   3.351   4.825
 1742SOL    HW2 5559   0.949   3.307   4.958
 1743SOL     OW 5560   1.351   2.452   5.157
 1743SOL    HW1 5561   1.379   2.409   5.242
 1743SOL    HW2 5562   1.376   2.548   5.158
 1744SOL     OW 5563   0.803   3.264   4.648
 1744SOL    HW1 5564   0.893   3.278   4.606
 1744SOL    HW2 5565   0.732   3.266   4.577
 1745SOL     OW 5566   0.922   2.365   4.623
 1745SOL    HW1 5567   0.897   2.356   4.527
 1745SOL    HW2 5568   0.970   2.283   4.654
 1746SOL     OW 5569   0.539   1.926   4.236
 1746SOL    HW1 5570   0.458   1.927   4.294
 1746SOL    HW2 5571   0.542   2.009   4.181
 1747SOL     OW 5572   1.434   3.050   3.765
 1747SOL    HW1 5573   1.466   2.974   3.822
 1747SOL    HW2 5574   1.342   3.077   3.795
 1748SOL     OW 5575   0.297   1.897   3.895
 1748SOL    HW1 5576   0.346   1.981   3.874
 1748SOL    HW2 5577   0.359   1.832   3.940
 1749SOL     OW 5578   0.935   2.098   4.204
 1749SOL    HW1 5579   0.887   2.139   4.126
 1749SOL    HW2 5580   1.034   2.096   4.185
 1750SOL     OW 5581   1.076   2.545   5.188
 1750SOL    HW1 5582   0.996   2.484   5.191
 1750SOL    HW2 5583   1.157   2.492   5.164
 1751SOL     OW 5584   1.227   3.432   4.517
 1751SOL    HW1 5585   1.248   3.506   4.452
 1751SOL    HW2 5586   1.295   3.432   4.590
 1752SOL     OW 5587   0.459   3.014   4.465
 1752SOL    HW1 5588   0.388   2.987   4.530
 1752SOL    HW2 5589   0.433   2.986   4.372
 1753SOL     OW 5590   1.271   3.659   4.315
 1753SOL    HW1 5591   1.315   3.723   4.251
 1753SOL    HW2 5592   1.221   3.711   4.385
 1754SOL     OW 5593   1.032   2.411   3.740
 1754SOL    HW1 5594   0.991   2.493   3.701
 1754SOL    HW2 5595   1.096   2.437   3.813
 1755SOL     OW 5596   0.078   2.418   5.110
 1755SOL    HW1 5597   0.170   2.417   5.069
 1755SOL    HW2 5598   0.072   2.492   5.177
 1756SOL     OW 5599   0.561   2.084   4.871
 1756SOL    HW1 5600   0.599   2.000   4.908
 1756SOL    HW2 5601   0.473   2.103   4.915
 1757SOL     OW 5602   0.866   2.316   4.366
 1757SOL    HW1 5603   0.834   2.388   4.304
 1757SOL    HW2 5604   0.890   2.235   4.313
 1758SOL     OW 5605   1.017   1.901   4.477
 1758SOL    HW1 5606   0.945   1.906   4.408
 1758SOL    HW2 5607   0.993   1.832   4.546
 1759SOL     OW 5608   1.429   3.035   4.591
 1759SOL    HW1 5609   1.374   2.951   4.584
 1759SOL    HW2 5610   1.455   3.064   4.499
 1760SOL     OW 5611   1.466   2.452   4.716
 1760SOL    HW1 5612   1.436   2.357   4.723
 1760SOL    HW2 5613   1.539   2.468   4.782
 1761SOL     OW 5614   1.857   2.695   4.101
 1761SOL    HW1 5615   1.899   2.631   4.165
 1761SOL    HW2 5616   1.819   2.644   4.023
 1762SOL     OW 5617   0.488   3.247   3.898
 1762SOL    HW1 5618   0.401   3.232   3.945
 1762SOL    HW2 5619   0.471   3.273   3.803
 1763SOL     OW 5620   1.664   3.142   4.381
 1763SOL    HW1 5621   1.763   3.150   4.395
 1763SOL    HW2 5622   1.619   3.226   4.412
 1764SOL     OW 5623   1.390   2.437   3.802
 1764SOL    HW1 5624   1.336   2.416   3.883
 1764SOL    HW2 5625   1.481   2.396   3.811
 1765SOL     OW 5626   0.527   2.118   4.052
 1765SOL    HW1 5627   0.554   2.059   3.977
 1765SOL    HW2 5628   0.527   2.213   4.021
 1766SOL     OW 5629   1.754   3.085   5.312
 1766SOL    HW1 5630   1.845   3.046   5.299
 1766SOL    HW2 5631   1.762   3.181   5.336
 1767SOL     OW 5632   1.064   3.209   5.064
 1767SOL    HW1 5633   0.984   3.186   5.119
 1767SOL    HW2 5634   1.147   3.183   5.113
 1768SOL     OW 5635   1.592   3.491   5.349
 1768SOL    HW1 5636   1.619   3.525   5.259
 1768SOL    HW2 5637   1.671   3.453   5.395
 1769SOL     OW 5638   1.111   3.057   4.824
 1769SOL    HW1 5639   1.071   3.101   4.905
 1769SOL    HW2 5640   1.070   3.094   4.741
 1770SOL     OW 5641   1.638   2.961   4.803
 1770SOL    HW1 5642   1.643   3.042   4.862
 1770SOL    HW2 5643   1.552   2.963   4.752
 1771SOL     OW 5644   0.915   1.951   5.126
 1771SOL    HW1 5645   0.940   1.931   5.031
 1771SOL    HW2 5646   0.987   2.007   5.168
 1772SOL     OW 5647   0.980   2.978   5.443
 1772SOL    HW1 5648   0.881   2.984   5.453
 1772SOL    HW2 5649   1.003   2.898   5.387
 1773SOL     OW 5650   0.705   2.912   4.092
 1773SOL    HW1 5651   0.691   2.919   4.191
 1773SOL    HW2 5652   0.789   2.861   4.074
 1774SOL     OW 5653   0.410   2.675   4.975
 1774SOL    HW1 5654   0.496   2.687   5.025
 1774SOL    HW2 5655   0.368   2.588   5.002
 1775SOL     OW 5656   1.274   2.248   4.986
 1775SOL    HW1 5657   1.295   2.322   5.050
 1775SOL    HW2 5658   1.185   2.265   4.943
 1776SOL     OW 5659   0.064   3.426   5.055
 1776SOL    HW1 5660   0.018   3.508   5.021
 1776SOL    HW2 5661   0.162   3.445   5.064
 1777SOL     OW 5662   0.367   2.962   4.225
 1777SOL    HW1 5663   0.360   3.045   4.169
 1777SOL    HW2 5664   0.371   2.882   4.165
 1778SOL     OW 5665   0.566   2.399   4.589
 1778SOL    HW1 5666   0.578   2.465   4.515
 1778SOL    HW2 5667   0.612   2.433   4.672
 1779SOL     OW 5668   1.252   3.210   4.112
 1779SOL    HW1 5669   1.302   3.287   4.152
 1779SOL    HW2 5670   1.157   3.212   4.144
 1780SOL     OW 5671   1.272   3.307   4.866
 1780SOL    HW1 5672   1.319   3.320   4.953
 1780SOL    HW2 5673   1.206   3.233   4.875
 1781SOL     OW 5674   1.582   2.501   4.196
 1781SOL    HW1 5675   1.551   2.562   4.269
 1781SOL    HW2 5676   1.632   2.553   4.127
 1782SOL     OW 5677   0.354   3.372   5.053
 1782SOL    HW1 5678   0.333   3.328   4.966
 1782SOL    HW2 5679   0.451   3.398   5.056
 1783SOL     OW 5680   0.402   2.613   5.322
 1783SOL    HW1 5681   0.470   2.668   5.275
 1783SOL    HW2 5682   0.442   2.525   5.349
 1784SOL     OW 5683   1.587   2.641   5.394
 1784SOL    HW1 5684   1.495   2.679   5.389
 1784SOL    HW2 5685   1.647   2.688   5.329
 1785SOL     OW 5686   1.013   1.967   5.494
 1785SOL    HW1 5687   1.019   2.052   5.442
 1785SOL    HW2 5688   1.045   1.891   5.437
 1786SOL     OW 5689   0.504   1.912   5.464
 1786SOL    HW1 5690   0.462   1.855   5.394
 1786SOL    HW2 5691   0.438   1.981   5.496
 1787SOL     OW 5692   0.573   2.732   4.753
 1787SOL    HW1 5693   0.617   2.821   4.744
 1787SOL    HW2 5694   0.510   2.732   4.830
 1788SOL     OW 5695   1.360   2.724   4.769
 1788SOL    HW1 5696   1.285   2.724   4.703
 1788SOL    HW2 5697   1.397   2.632   4.778
 1789SOL     OW 5698   1.209   2.387   3.999
 1789SOL    HW1 5699   1.222   2.303   4.053
 1789SOL    HW2 5700   1.180   2.461   4.059
 1790SOL     OW 5701   0.307   2.075   4.955
 1790SOL    HW1 5702   0.284   2.112   5.045
 1790SOL    HW2 5703   0.277   1.980   4.949
 1791SOL     OW 5704   0.037   3.172   5.006
 1791SOL    HW1 5705   0.090   3.123   5.074
 1791SOL    HW2 5706   0.059   3.270   5.011
 1792SOL     OW 5707   0.732   2.496   4.788
 1792SOL    HW1 5708   0.791   2.470   4.712
 1792SOL    HW2 5709   0.704   2.592   4.777
 1793SOL     OW 5710   1.728   2.797   5.578
 1793SOL    HW1 5711   1.682   2.790   5.489
 1793SOL    HW2 5712   1.666   2.841   5.644
 1794SOL     OW 5713   0.307   1.925   4.342
 1794SOL    HW1 5714   0.296   2.019   4.375
 1794SOL    HW2 5715   0.302   1.862   4.419
 1795SOL     OW 5716   1.622   2.229   4.098
 1795SOL    HW1 5717   1.624   2.153   4.162
 1795SOL    HW2 5718   1.574   2.306   4.138
 1796SOL     OW 5719   1.023   2.628   4.690
 1796SOL    HW1 5720   1.038   2.649   4.786
 1796SOL    HW2 5721   0.993   2.533   4.681
 1797SOL     OW 5722   0.980   3.435   5.424
 1797SOL    HW1 5723   0.960   3.479   5.336
 1797SOL    HW2 5724   1.019   3.344   5.408
 1798SOL     OW 5725   1.859   3.380   5.329
 1798SOL    HW1 5726   1.873   3.407   5.234
 1798SOL    HW2 5727   1.942   3.402   5.382
 1799SOL     OW 5728   0.350   2.760   5.528
 1799SOL    HW1 5729   0.426   2.804   5.576
 1799SOL    HW2 5730   0.385   2.713   5.446
 1800SOL     OW 5731   1.540   2.136   3.849
 1800SOL    HW1 5732   1.479   2.061   3.872
 1800SOL    HW2 5733   1.562   2.188   3.932
 1801SOL     OW 5734   1.303   2.700   3.766
 1801SOL    HW1 5735   1.337   2.607   3.781
 1801SOL    HW2 5736   1.321   2.727   3.671
 1802SOL     OW 5737   1.068   3.195   4.573
 1802SOL    HW1 5738   1.075   3.111   4.518
 1802SOL    HW2 5739   1.130   3.264   4.537
 1803SOL     OW 5740   0.319   2.672   4.673
 1803SOL    HW1 5741   0.412   2.708   4.678
 1803SOL    HW2 5742   0.313   2.587   4.725
 1804SOL     OW 5743   0.339   2.371   4.730
 1804SOL    HW1 5744   0.287   2.288   4.713
 1804SOL    HW2 5745   0.416   2.376   4.666
 1805SOL     OW 5746   1.138   2.242   5.402
 1805SOL    HW1 5747   1.093   2.305   5.466
 1805SOL    HW2 5748   1.231   2.273   5.385
 1806SOL     OW 5749   1.160   2.069   5.201
 1806SOL    HW1 5750   1.160   2.133   5.278
 1806SOL    HW2 5751   1.188   2.117   5.118
 1807SOL     OW 5752   0.008   3.188   3.924
 1807SOL    HW1 5753  -0.085   3.209   3.893
 1807SOL    HW2 5754   0.018   3.089   3.937
 1808SOL     OW 5755   0.088   3.663   4.651
 1808SOL    HW1 5756   0.046   3.577   4.624
 1808SOL    HW2 5757   0.182   3.666   4.617
 1809SOL     OW 5758   0.504   3.430   4.634
 1809SOL    HW1 5759   0.570   3.504   4.643
 1809SOL    HW2 5760   0.548   3.351   4.592
 1810SOL     OW 5761   1.002   2.658   4.962
 1810SOL    HW1 5762   1.043   2.626   5.048
 1810SOL    HW2 5763   0.906   2.631   4.959
 1811SOL     OW 5764   0.040   2.406   4.838
 1811SOL    HW1 5765   0.125   2.373   4.797
 1811SOL    HW2 5766   0.053   2.421   4.936
 1812SOL     OW 5767   0.189   2.382   5.446
 1812SOL    HW1 5768   0.248   2.342   5.376
 1812SOL    HW2 5769   0.131   2.453   5.405
 1813SOL     OW 5770   1.369   2.812   5.384
 1813SOL    HW1 5771   1.408   2.901   5.404
 1813SOL    HW2 5772   1.379   2.792   5.287
 1814SOL     OW 5773   0.815   2.434   4.049
 1814SOL    HW1 5774   0.822   2.345   4.003
 1814SOL    HW2 5775   0.721   2.468   4.041
 1815SOL     OW 5776   1.657   2.466   4.930
 1815SOL    HW1 5777   1.619   2.397   4.992
 1815SOL    HW2 5778   1.739   2.430   4.886
 1816SOL     OW 5779   0.252   3.426   5.468
 1816SOL    HW1 5780   0.222   3.483   5.544
 1816SOL    HW2 5781   0.245   3.329   5.494
 1817SOL     OW 5782   0.671   2.326   4.993
 1817SOL    HW1 5783   0.637   2.237   4.963
 1817SOL    HW2 5784   0.697   2.380   4.913
 1818SOL     OW 5785   0.930   3.540   5.189
 1818SOL    HW1 5786   0.906   3.522   5.094
 1818SOL    HW2 5787   0.960   3.634   5.199
 1819SOL     OW 5788   0.473   2.362   3.915
 1819SOL    HW1 5789   0.534   2.442   3.919
 1819SOL    HW2 5790   0.378   2.393   3.922
 1820SOL     OW 5791   0.159   2.999   5.190
 1820SOL    HW1 5792   0.181   2.938   5.266
 1820SOL    HW2 5793   0.169   2.950   5.104
 1821SOL     OW 5794   1.347   2.921   4.958
 1821SOL    HW1 5795   1.371   2.858   4.884
 1821SOL    HW2 5796   1.257   2.961   4.940
 1822SOL     OW 5797   1.302   2.717   4.033
 1822SOL    HW1 5798   1.216   2.686   4.075
 1822SOL    HW2 5799   1.298   2.703   3.934
 1823SOL     OW 5800   1.759   3.609   4.878
 1823SOL    HW1 5801   1.820   3.639   4.805
 1823SOL    HW2 5802   1.721   3.520   4.856
 1824SOL     OW 5803   1.252   3.593   4.852
 1824SOL    HW1 5804   1.336   3.598   4.798
 1824SOL    HW2 5805   1.229   3.497   4.870
 1825SOL     OW 5806   0.083   3.120   4.746
 1825SOL    HW1 5807   0.078   3.119   4.846
 1825SOL    HW2 5808   0.000   3.079   4.708
 1826SOL     OW 5809   0.688   3.524   5.440
 1826SOL    HW1 5810   0.632   3.605   5.449
 1826SOL    HW2 5811   0.740   3.528   5.354
 1827SOL     OW 5812   1.726   1.997   4.247
 1827SOL    HW1 5813   1.799   1.980   4.180
 1827SOL    HW2 5814   1.695   1.910   4.285
 1828SOL     OW 5815   1.388   3.435   4.201
 1828SOL    HW1 5816   1.455   3.447   4.127
 1828SOL    HW2 5817   1.348   3.524   4.224
 1829SOL     OW 5818   0.130   3.656   5.575
 1829SOL    HW1 5819   0.089   3.582   5.628
 1829SOL    HW2 5820   0.194   3.707   5.633
 1830SOL     OW 5821   1.280   2.789   4.396
 1830SOL    HW1 5822   1.340   2.708   4.398
 1830SOL    HW2 5823   1.320   2.858   4.336
 1831SOL     OW 5824   0.830   3.135   5.146
 1831SOL    HW1 5825   0.825   3.168   5.241
 1831SOL    HW2 5826   0.744   3.154   5.100
 1832SOL     OW 5827   0.672   3.478   3.878
 1832SOL    HW1 5828   0.681   3.488   3.779
 1832SOL    HW2 5829   0.632   3.389   3.899
 1833SOL     OW 5830   1.650   3.582   5.118
 1833SOL    HW1 5831   1.703   3.592   5.034
 1833SOL    HW2 5832   1.623   3.672   5.152
 1834SOL     OW 5833   1.841   2.037   4.687
 1834SOL    HW1 5834   1.880   1.952   4.651
 1834SOL    HW2 5835   1.743   2.039   4.668
 1835SOL     OW 5836   0.263   2.188   4.444
 1835SOL    HW1 5837   0.184   2.239   4.410
 1835SOL    HW2 5838   0.254   2.173   4.542
 1836SOL     OW 5839   1.194   3.474   3.755
 1836SOL    HW1 5840   1.200   3.381   3.792
 1836SOL    HW2 5841   1.135   3.474   3.675
 1837SOL     OW 5842   0.822   2.864   5.096
 1837SOL    HW1 5843   0.862   2.863   5.004
 1837SOL    HW2 5844   0.832   2.956   5.136
 1838SOL     OW 5845   0.916   2.772   4.015
 1838SOL    HW1 5846   0.979   2.810   3.947
 1838SOL    HW2 5847   0.956   2.689   4.054
 1839SOL     OW 5848   1.504   3.469   3.768
 1839SOL    HW1 5849   1.412   3.506   3.775
 1839SOL    HW2 5850   1.542   3.489   3.678
 1840SOL     OW 5851   0.372   3.150   5.214
 1840SOL    HW1 5852   0.359   3.243   5.180
 1840SOL    HW2 5853   0.288   3.098   5.201
 1841SOL     OW 5854   1.614   3.154   5.013
 1841SOL    HW1 5855   1.674   3.157   5.093
 1841SOL    HW2 5856   1.539   3.218   5.026
 1842SOL     OW 5857   1.039   2.960   4.420
 1842SOL    HW1 5858   0.969   2.913   4.474
 1842SOL    HW2 5859   1.098   2.892   4.377
 1843SOL     OW 5860   1.014   2.098   4.695
 1843SOL    HW1 5861   1.006   2.062   4.602
 1843SOL    HW2 5862   1.012   2.022   4.760
 1844SOL     OW 5863   0.590   3.349   4.215
 1844SOL    HW1 5864   0.632   3.291   4.145
 1844SOL    HW2 5865   0.546   3.428   4.171
 1845SOL     OW 5866   0.255   3.210   4.014
 1845SOL    HW1 5867   0.159   3.211   3.987
 1845SOL    HW2 5868   0.267   3.263   4.098
 1846SOL     OW 5869   0.105   2.875   5.450
 1846SOL    HW1 5870   0.028   2.842   5.504
 1846SOL    HW2 5871   0.190   2.845   5.492
 1847SOL     OW 5872   0.672   2.065   5.213
 1847SOL    HW1 5873   0.762   2.049   5.173
 1847SOL    HW2 5874   0.680   2.070   5.312
 1848SOL     OW 5875   0.075   2.207   3.757
 1848SOL    HW1 5876  -0.017   2.179   3.728
 1848SOL    HW2 5877   0.106   2.284   3.701
 1849SOL     OW 5878   1.440   2.718   5.122
 1849SOL    HW1 5879   1.383   2.770   5.059
 1849SOL    HW2 5880   1.536   2.730   5.098
 1850SOL     OW 5881   0.072   2.028   4.042
 1850SOL    HW1 5882   0.055   2.111   3.988
 1850SOL    HW2 5883   0.162   1.991   4.020
 1851SOL     OW 5884   1.183   3.197   3.843
 1851SOL    HW1 5885   1.084   3.186   3.845
 1851SOL    HW2 5886   1.217   3.212   3.936
 1852SOL     OW 5887   0.613   2.704   5.155
 1852SOL    HW1 5888   0.669   2.785   5.138
 1852SOL    HW2 5889   0.672   2.624   5.158
 1853SOL     OW 5890   1.493   3.629   4.683
 1853SOL    HW1 5891   1.526   3.693   4.614
 1853SOL    HW2 5892   1.559   3.623   4.758
 1854SOL     OW 5893   0.716   2.427   5.432
 1854SOL    HW1 5894   0.735   2.492   5.506
 1854SOL    HW2 5895   0.776   2.347   5.441
 1855SOL     OW 5896   1.450   3.082   5.357
 1855SOL    HW1 5897   1.441   3.072   5.456
 1855SOL    HW2 5898   1.546   3.075   5.331
 1856SOL     OW 5899   0.390   3.603   5.284
 1856SOL    HW1 5900   0.299   3.644   5.282
 1856SOL    HW2 5901   0.383   3.509   5.316
 1857SOL     OW 5902   1.674   2.745   4.978
 1857SOL    HW1 5903   1.647   2.656   4.941
 1857SOL    HW2 5904   1.675   2.813   4.905
 1858SOL     OW 5905   1.225   2.187   4.173
 1858SOL    HW1 5906   1.290   2.113   4.162
 1858SOL    HW2 5907   1.245   2.237   4.257
 1859SOL     OW 5908   0.594   2.607   4.376
 1859SOL    HW1 5909   0.644   2.692   4.357
 1859SOL    HW2 5910   0.506   2.609   4.328
 1860SOL     OW 5911   1.730   2.796   5.241
 1860SOL    HW1 5912   1.768   2.887   5.256
 1860SOL    HW2 5913   1.722   2.779   5.142
 1861SOL     OW 5914   0.859   3.236   3.740
 1861SOL    HW1 5915   0.813   3.251   3.828
 1861SOL    HW2 5916   0.903   3.321   3.710
 1862SOL     OW 5917   0.661   3.652   4.677
 1862SOL    HW1 5918   0.615   3.740   4.664
 1862SOL    HW2 5919   0.760   3.664   4.670
 1863SOL     OW 5920   0.859   2.818   4.585
 1863SOL    HW1 5921   0.913   2.749   4.633
 1863SOL    HW2 5922   0.827   2.887   4.651
 1864SOL     OW 5923   1.083   2.846   3.811
 1864SOL    HW1 5924   1.060   2.899   3.729
 1864SOL    HW2 5925   1.164   2.790   3.792
 1865SOL     OW 5926   1.861   3.431   4.575
 1865SOL    HW1 5927   1.790   3.419   4.505
 1865SOL    HW2 5928   1.862   3.352   4.635
 1866SOL     OW 5929   0.221   3.176   5.568
 1866SOL    HW1 5930   0.156   3.103   5.547
 1866SOL    HW2 5931   0.225   3.190   5.666
 1867SOL     OW 5932   0.079   3.102   4.377
 1867SOL    HW1 5933   0.078   3.055   4.465
 1867SOL    HW2 5934   0.161   3.074   4.326
 1868SOL     OW 5935   0.672   3.253   5.348
 1868SOL    HW1 5936   0.594   3.203   5.386
 1868SOL    HW2 5937   0.669   3.348   5.379
 1869SOL     OW 5938   1.824   2.054   4.951
 1869SOL    HW1 5939   1.820   1.964   4.995
 1869SOL    HW2 5940   1.827   2.043   4.852
 1870SOL     OW 5941   0.428   2.286   4.244
 1870SOL    HW1 5942   0.458   2.214   4.182
 1870SOL    HW2 5943   0.389   2.246   4.327
 1871SOL     OW 5944   1.705   3.349   4.828
 1871SOL    HW1 5945   1.612   3.324   4.801
 1871SOL    HW2 5946   1.731   3.299   4.910
 1872SOL     OW 5947   0.317   2.409   5.004
 1872SOL    HW1 5948   0.355   2.350   5.076
 1872SOL    HW2 5949   0.357   2.383   4.916
 1873SOL     OW 5950   0.812   3.448   4.411
 1873SOL    HW1 5951   0.844   3.458   4.317
 1873SOL    HW2 5952   0.733   3.386   4.413
 1874SOL     OW 5953   1.424   2.076   4.836
 1874SOL    HW1 5954   1.476   2.011   4.891
 1874SOL    HW2 5955   1.375   2.139   4.897
 1875SOL     OW 5956   1.001   1.896   4.878
 1875SOL    HW1 5957   0.938   1.824   4.847
 1875SOL    HW2 5958   1.094   1.860   4.878
 1876SOL     OW 5959   0.770   3.192   4.025
 1876SOL    HW1 5960   0.724   3.105   4.042
 1876SOL    HW2 5961   0.861   3.189   4.066
 1877SOL     OW 5962   0.618   3.429   5.008
 1877SOL    HW1 5963   0.613   3.511   5.065
 1877SOL    HW2 5964   0.707   3.426   4.963
 1878SOL     OW 5965   1.352   1.914   3.892
 1878SOL    HW1 5966   1.387   1.873   3.808
 1878SOL    HW2 5967   1.262   1.876   3.912
 1879SOL     OW 5968   1.300   2.315   4.415
 1879SOL    HW1 5969   1.241   2.395   4.419
 1879SOL    HW2 5970   1.315   2.280   4.508
 1880SOL     OW 5971   1.593   2.083   4.606
 1880SOL    HW1 5972   1.509   2.082   4.660
 1880SOL    HW2 5973   1.595   2.166   4.550
 1881SOL     OW 5974   0.039   2.939   4.024
 1881SOL    HW1 5975   0.138   2.928   4.015
 1881SOL    HW2 5976  -0.001   2.853   4.056
 1882SOL     OW 5977   0.875   3.508   4.061
 1882SOL    HW1 5978   0.798   3.473   4.007
 1882SOL    HW2 5979   0.843   3.579   4.123
 1883SOL     OW 5980   0.230   2.490   5.699
 1883SOL    HW1 5981   0.137   2.488   5.736
 1883SOL    HW2 5982   0.231   2.451   5.607
 1884SOL     OW 5983   0.225   2.137   6.582
 1884SOL    HW1 5984   0.260   2.120   6.674
 1884SOL    HW2 5985   0.137   2.092   6.570
 1885SOL     OW 5986   0.019   2.230   6.233
 1885SOL    HW1 5987  -0.063   2.273   6.272
 1885SOL    HW2 5988  -0.009   2.157   6.170
 1886SOL     OW 5989   0.569   3.137   6.751
 1886SOL    HW1 5990   0.476   3.130   6.714
 1886SOL    HW2 5991   0.580   3.226   6.795
 1887SOL     OW 5992   1.555   3.373   6.289
 1887SOL    HW1 5993   1.498   3.357   6.370
 1887SOL    HW2 5994   1.496   3.383   6.209
 1888SOL     OW 5995   1.135   2.565   6.303
 1888SOL    HW1 5996   1.192   2.643   6.278
 1888SOL    HW2 5997   1.075   2.591   6.379
 1889SOL     OW 5998   0.768   3.006   6.609
 1889SOL    HW1 5999   0.690   3.023   6.669
 1889SOL    HW2 6000   0.802   3.093   6.573
 1890SOL     OW 6001   0.850   2.660   7.409
 1890SOL    HW1 6002   0.846   2.736   7.474
 1890SOL    HW2 6003   0.872   2.696   7.318
 1891SOL     OW 6004   0.685   2.874   6.251
 1891SOL    HW1 6005   0.754   2.858   6.321
 1891SOL    HW2 6006   0.612   2.931   6.289
 1892SOL     OW 6007   0.686   3.023   7.389
 1892SOL    HW1 6008   0.746   3.102   7.403
 1892SOL    HW2 6009   0.600   3.054   7.348
 1893SOL     OW 6010   0.335   3.297   6.647
 1893SOL    HW1 6011   0.257   3.266   6.594
 1893SOL    HW2 6012   0.393   3.355   6.590
 1894SOL     OW 6013   1.460   3.367   6.925
 1894SOL    HW1 6014   1.484   3.461   6.951
 1894SOL    HW2 6015   1.444   3.313   7.007
 1895SOL     OW 6016   0.438   2.254   7.085
 1895SOL    HW1 6017   0.520   2.198   7.094
 1895SOL    HW2 6018   0.357   2.196   7.089
 1896SOL     OW 6019   1.603   2.309   6.323
 1896SOL    HW1 6020   1.529   2.355   6.273
 1896SOL    HW2 6021   1.654   2.377   6.376
 1897SOL     OW 6022   0.231   3.575   6.069
 1897SOL    HW1 6023   0.265   3.652   6.123
 1897SOL    HW2 6024   0.275   3.575   5.979
 1898SOL     OW 6025   1.127   3.203   7.276
 1898SOL    HW1 6026   1.174   3.203   7.364
 1898SOL    HW2 6027   1.079   3.116   7.265
 1899SOL     OW 6028   0.230   3.296   6.124
 1899SOL    HW1 6029   0.204   3.392   6.124
 1899SOL    HW2 6030   0.159   3.242   6.169
 1900SOL     OW 6031   0.240   2.953   6.472
 1900SOL    HW1 6032   0.254   2.869   6.524
 1900SOL    HW2 6033   0.185   3.017   6.527
 1901SOL     OW 6034   0.620   3.648   7.025
 1901SOL    HW1 6035   0.528   3.631   7.060
 1901SOL    HW2 6036   0.648   3.740   7.051
 1902SOL     OW 6037   0.606   2.826   5.709
 1902SOL    HW1 6038   0.613   2.910   5.655
 1902SOL    HW2 6039   0.652   2.839   5.797
 1903SOL     OW 6040   1.594   1.976   7.066
 1903SOL    HW1 6041   1.576   2.043   6.994
 1903SOL    HW2 6042   1.591   2.022   7.155
 1904SOL     OW 6043   0.122   2.505   6.149
 1904SOL    HW1 6044   0.077   2.417   6.166
 1904SOL    HW2 6045   0.121   2.559   6.233
 1905SOL     OW 6046   1.842   3.629   5.945
 1905SOL    HW1 6047   1.896   3.600   6.025
 1905SOL    HW2 6048   1.872   3.719   5.916
 1906SOL     OW 6049   0.027   3.458   5.703
 1906SOL    HW1 6050   0.008   3.362   5.724
 1906SOL    HW2 6051  -0.006   3.516   5.778
 1907SOL     OW 6052   1.689   2.784   6.198
 1907SOL    HW1 6053   1.784   2.755   6.206
 1907SOL    HW2 6054   1.681   2.849   6.123
 1908SOL     OW 6055   1.641   2.970   6.018
 1908SOL    HW1 6056   1.727   2.972   5.966
 1908SOL    HW2 6057   1.655   3.017   6.106
 1909SOL     OW 6058   0.113   2.599   7.183
 1909SOL    HW1 6059   0.201   2.586   7.228
 1909SOL    HW2 6060   0.100   2.696   7.161
 1910SOL     OW 6061   0.613   3.227   6.312
 1910SOL    HW1 6062   0.564   3.140   6.321
 1910SOL    HW2 6063   0.590   3.270   6.225
 1911SOL     OW 6064   1.293   3.090   7.009
 1911SOL    HW1 6065   1.330   3.017   6.951
 1911SOL    HW2 6066   1.345   3.095   7.094
 1912SOL     OW 6067   0.809   1.866   6.088
 1912SOL    HW1 6068   0.849   1.957   6.079
 1912SOL    HW2 6069   0.709   1.874   6.094
 1913SOL     OW 6070   0.197   2.838   6.850
 1913SOL    HW1 6071   0.286   2.793   6.836
 1913SOL    HW2 6072   0.124   2.773   6.831
 1914SOL     OW 6073   1.525   2.861   5.776
 1914SOL    HW1 6074   1.462   2.785   5.789
 1914SOL    HW2 6075   1.573   2.879   5.862
 1915SOL     OW 6076   1.187   3.654   7.202
 1915SOL    HW1 6077   1.211   3.714   7.126
 1915SOL    HW2 6078   1.194   3.559   7.172
 1916SOL     OW 6079   0.317   2.113   7.387
 1916SOL    HW1 6080   0.388   2.184   7.393
 1916SOL    HW2 6081   0.229   2.152   7.415
 1917SOL     OW 6082   1.466   3.279   6.539
 1917SOL    HW1 6083   1.407   3.285   6.619
 1917SOL    HW2 6084   1.451   3.191   6.493
 1918SOL     OW 6085   1.667   3.576   6.158
 1918SOL    HW1 6086   1.626   3.553   6.070
 1918SOL    HW2 6087   1.649   3.502   6.223
 1919SOL     OW 6088   0.598   2.591   5.856
 1919SOL    HW1 6089   0.622   2.660   5.788
 1919SOL    HW2 6090   0.520   2.624   5.910
 1920SOL     OW 6091   1.281   2.207   6.530
 1920SOL    HW1 6092   1.195   2.157   6.517
 1920SOL    HW2 6093   1.343   2.153   6.586
 1921SOL     OW 6094   1.576   3.524   5.893
 1921SOL    HW1 6095   1.665   3.570   5.896
 1921SOL    HW2 6096   1.555   3.500   5.798
 1922SOL     OW 6097   0.807   2.467   7.051
 1922SOL    HW1 6098   0.760   2.464   7.140
 1922SOL    HW2 6099   0.756   2.412   6.985
 1923SOL     OW 6100   1.394   2.331   7.260
 1923SOL    HW1 6101   1.374   2.374   7.348
 1923SOL    HW2 6102   1.472   2.269   7.269
 1924SOL     OW 6103   0.973   2.752   7.158
 1924SOL    HW1 6104   1.019   2.668   7.129
 1924SOL    HW2 6105   0.917   2.786   7.083
 1925SOL     OW 6106   0.991   2.272   6.828
 1925SOL    HW1 6107   0.914   2.306   6.882
 1925SOL    HW2 6108   0.957   2.221   6.749
 1926SOL     OW 6109   1.041   2.563   6.015
 1926SOL    HW1 6110   1.067   2.559   6.111
 1926SOL    HW2 6111   0.956   2.512   6.001
 1927SOL     OW 6112   0.076   2.673   6.375
 1927SOL    HW1 6113   0.175   2.661   6.384
 1927SOL    HW2 6114   0.052   2.768   6.396
 1928SOL     OW 6115   0.130   3.683   7.157
 1928SOL    HW1 6116   0.120   3.668   7.256
 1928SOL    HW2 6117   0.044   3.719   7.121
 1929SOL     OW 6118   0.865   2.210   5.781
 1929SOL    HW1 6119   0.924   2.273   5.732
 1929SOL    HW2 6120   0.884   2.116   5.752
 1930SOL     OW 6121   1.719   2.447   7.417
 1930SOL    HW1 6122   1.693   2.536   7.381
 1930SOL    HW2 6123   1.717   2.379   7.344
 1931SOL     OW 6124   1.362   3.006   6.131
 1931SOL    HW1 6125   1.445   2.977   6.083
 1931SOL    HW2 6126   1.313   3.073   6.075
 1932SOL     OW 6127   0.550   2.058   6.471
 1932SOL    HW1 6128   0.545   2.053   6.571
 1932SOL    HW2 6129   0.552   2.154   6.442
 1933SOL     OW 6130   1.008   3.318   6.063
 1933SOL    HW1 6131   0.962   3.390   6.011
 1933SOL    HW2 6132   1.004   3.338   6.161
 1934SOL     OW 6133   0.351   3.663   6.439
 1934SOL    HW1 6134   0.401   3.577   6.445
 1934SOL    HW2 6135   0.416   3.740   6.436
 1935SOL     OW 6136   1.795   2.928   6.459
 1935SOL    HW1 6137   1.733   2.913   6.383
 1935SOL    HW2 6138   1.743   2.939   6.544
 1936SOL     OW 6139   1.227   3.412   7.092
 1936SOL    HW1 6140   1.233   3.335   7.156
 1936SOL    HW2 6141   1.175   3.386   7.012
 1937SOL     OW 6142   0.321   2.805   5.828
 1937SOL    HW1 6143   0.403   2.844   5.786
 1937SOL    HW2 6144   0.294   2.723   5.779
 1938SOL     OW 6145   1.458   2.597   6.314
 1938SOL    HW1 6146   1.453   2.532   6.389
 1938SOL    HW2 6147   1.538   2.656   6.327
 1939SOL     OW 6148   0.461   3.128   7.313
 1939SOL    HW1 6149   0.411   3.129   7.227
 1939SOL    HW2 6150   0.398   3.110   7.389
 1940SOL     OW 6151   1.111   3.638   5.823
 1940SOL    HW1 6152   1.051   3.576   5.873
 1940SOL    HW2 6153   1.142   3.594   5.738
 1941SOL     OW 6154   0.202   2.147   7.084
 1941SOL    HW1 6155   0.122   2.207   7.071
 1941SOL    HW2 6156   0.192   2.098   7.170
 1942SOL     OW 6157   1.632   3.239   5.667
 1942SOL    HW1 6158   1.600   3.333   5.657
 1942SOL    HW2 6159   1.556   3.176   5.655
 1943SOL     OW 6160   0.464   3.605   5.909
 1943SOL    HW1 6161   0.497   3.644   5.995
 1943SOL    HW2 6162   0.540   3.598   5.844
 1944SOL     OW 6163   1.400   1.969   6.012
 1944SOL    HW1 6164   1.376   1.932   5.922
 1944SOL    HW2 6165   1.499   1.985   6.016
 1945SOL     OW 6166   0.249   3.647   6.827
 1945SOL    HW1 6167   0.306   3.582   6.877
 1945SOL    HW2 6168   0.233   3.614   6.734
 1946SOL     OW 6169   0.940   3.560   6.490
 1946SOL    HW1 6170   1.020   3.503   6.511
 1946SOL    HW2 6171   0.891   3.520   6.413
 1947SOL     OW 6172   0.382   2.562   6.066
 1947SOL    HW1 6173   0.427   2.472   6.063
 1947SOL    HW2 6174   0.288   2.551   6.099
 1948SOL     OW 6175   1.547   2.084   7.315
 1948SOL    HW1 6176   1.542   2.121   7.407
 1948SOL    HW2 6177   1.475   2.015   7.303
 1949SOL     OW 6178   0.614   1.984   5.703
 1949SOL    HW1 6179   0.712   1.962   5.710
 1949SOL    HW2 6180   0.583   1.967   5.610
 1950SOL     OW 6181   0.781   2.126   7.335
 1950SOL    HW1 6182   0.848   2.065   7.378
 1950SOL    HW2 6183   0.708   2.145   7.400
 1951SOL     OW 6184   0.888   3.376   6.781
 1951SOL    HW1 6185   0.865   3.351   6.687
 1951SOL    HW2 6186   0.949   3.307   6.820
 1952SOL     OW 6187   1.351   2.452   7.019
 1952SOL    HW1 6188   1.379   2.409   7.104
 1952SOL    HW2 6189   1.376   2.548   7.020
 1953SOL     OW 6190   0.803   3.264   6.510
 1953SOL    HW1 6191   0.893   3.278   6.468
 1953SOL    HW2 6192   0.732   3.266   6.439
 1954SOL     OW 6193   0.922   2.365   6.485
 1954SOL    HW1 6194   0.897   2.356   6.389
 1954SOL    HW2 6195   0.970   2.283   6.516
 1955SOL     OW 6196   0.539   1.926   6.098
 1955SOL    HW1 6197   0.458   1.927   6.156
 1955SOL    HW2 6198   0.542   2.009   6.043
 1956SOL     OW 6199   1.434   3.050   5.627
 1956SOL    HW1 6200   1.466   2.974   5.684
 1956SOL    HW2 6201   1.342   3.077   5.657
 1957SOL     OW 6202   0.297   1.897   5.757
 1957SOL    HW1 6203   0.346   1.981   5.736
 1957SOL    HW2 6204   0.359   1.832   5.802
 1958SOL     OW 6205   0.935   2.098   6.066
 1958SOL    HW1 6206   0.887   2.139   5.988
 1958SOL    HW2 6207   1.034   2.096   6.047
 1959SOL     OW 6208   1.076   2.545   7.050
 1959SOL    HW1 6209   0.996   2.484   7.053
 1959SOL    HW2 6210   1.157   2.492   7.026
 1960SOL     OW 6211   1.227   3.432   6.379
 1960SOL    HW1 6212   1.248   3.506   6.314
 1960SOL    HW2 6213   1.295   3.432   6.452
 1961SOL     OW 6214   0.459   3.014   6.327
 1961SOL    HW1 6215   0.388   2.987   6.392
 1961SOL    HW2 6216   0.433   2.986   6.234
 1962SOL     OW 6217   1.271   3.659   6.177
 1962SOL    HW1 6218   1.315   3.723   6.113
 1962SOL    HW2 6219   1.221   3.711   6.247
 1963SOL     OW 6220   1.032   2.411   5.602
 1963SOL    HW1 6221   0.991   2.493   5.563
 1963SOL    HW2 6222   1.096   2.437   5.675
 1964SOL     OW 6223   0.078   2.418   6.972
 1964SOL    HW1 6224   0.170   2.417   6.931
 1964SOL    HW2 6225   0.072   2.492   7.039
 1965SOL     OW 6226   0.561   2.084   6.733
 1965SOL    HW1 6227   0.599   2.000   6.770
 1965SOL    HW2 6228   0.473   2.103   6.777
 1966SOL     OW 6229   0.866   2.316   6.228
 1966SOL    HW1 6230   0.834   2.388   6.166
 1966SOL    HW2 6231   0.890   2.235   6.175
 1967SOL     OW 6232   1.017   1.901   6.339
 1967SOL    HW1 6233   0.945   1.906   6.270
 1967SOL    HW2 6234   0.993   1.832   6.408
 1968SOL     OW 6235   1.429   3.035   6.453
 1968SOL    HW1 6236   1.374   2.951   6.446
 1968SOL    HW2 6237   1.455   3.064   6.361
 1969SOL     OW 6238   1.466   2.452   6.578
 1969SOL    HW1 6239   1.436   2.357   6.585
 1969SOL    HW2 6240   1.539   2.468   6.644
 1970SOL     OW 6241   1.857   2.695   5.963
 1970SOL    HW1 6242   1.899   2.631   6.027
 1970SOL    HW2 6243   1.819   2.644   5.885
 1971SOL     OW 6244   0.488   3.247   5.760
 1971SOL    HW1 6245   0.401   3.232   5.807
 1971SOL    HW2 6246   0.471   3.273   5.665
 1972SOL     OW 6247   1.664   3.142   6.243
 1972SOL    HW1 6248   1.763   3.150   6.257
 1972SOL    HW2 6249   1.619   3.226   6.274
 1973SOL     OW 6250   1.390   2.437   5.664
 1973SOL    HW1 6251   1.336   2.416   5.745
 1973SOL    HW2 6252   1.481   2.396   5.673
 1974SOL     OW 6253   0.527   2.118   5.914
 1974SOL    HW1 6254   0.554   2.059   5.839
 1974SOL    HW2 6255   0.527   2.213   5.883
 1975SOL     OW 6256   1.754   3.085   7.174
 1975SOL    HW1 6257   1.845   3.046   7.161
 1975SOL    HW2 6258   1.762   3.181   7.198
 1976SOL     OW 6259   1.064   3.209   6.926
 1976SOL    HW1 6260   0.984   3.186   6.981
 1976SOL    HW2 6261   1.147   3.183   6.975
 1977SOL     OW 6262   1.592   3.491   7.211
 1977SOL    HW1 6263   1.619   3.525   7.121
 1977SOL    HW2 6264   1.671   3.453   7.257
 1978SOL     OW 6265   1.111   3.057   6.686
 1978SOL    HW1 6266   1.071   3.101   6.767
 1978SOL    HW2 6267   1.070   3.094   6.603
 1979SOL     OW 6268   1.638   2.961   6.665
 1979SOL    HW1 6269   1.643   3.042   6.724
 1979SOL    HW2 6270   1.552   2.963   6.614
 1980SOL     OW 6271   0.915   1.951   6.988
 1980SOL    HW1 6272   0.940   1.931   6.893
 1980SOL    HW2 6273   0.987   2.007   7.030
 1981SOL     OW 6274   0.980   2.978   7.305
 1981SOL    HW1 6275   0.881   2.984   7.315
 1981SOL    HW2 6276   1.003   2.898   7.249
 1982SOL     OW 6277   0.705   2.912   5.954
 1982SOL    HW1 6278   0.691   2.919   6.053
 1982SOL    HW2 6279   0.789   2.861   5.936
 1983SOL     OW 6280   0.410   2.675   6.837
 1983SOL    HW1 6281   0.496   2.687   6.887
 1983SOL    HW2 6282   0.368   2.588   6.864
 1984SOL     OW 6283   1.274   2.248   6.848
 1984SOL    HW1 6284   1.295   2.322   6.912
 1984SOL    HW2 6285   1.185   2.265   6.805
 1985SOL     OW 6286   0.064   3.426   6.917
 1985SOL    HW1 6287   0.018   3.508   6.883
 1985SOL    HW2 6288   0.162   3.445   6.926
 1986SOL     OW 6289   0.367   2.962   6.087
 1986SOL    HW1 6290   0.360   3.045   6.031
 1986SOL    HW2 6291   0.371   2.882   6.027
 1987SOL     OW 6292   0.566   2.399   6.451
 1987SOL    HW1 6293   0.578   2.465   6.377
 1987SOL    HW2 6294   0.612   2.433   6.534
 1988SOL     OW 6295   1.252   3.210   5.974
 1988SOL    HW1 6296   1.302   3.287   6.014
 1988SOL    HW2 6297   1.157   3.212   6.006
 1989SOL     OW 6298   1.272   3.307   6.728
 1989SOL    HW1 6299   1.319   3.320   6.815
 1989SOL    HW2 6300   1.206   3.233   6.737
 1990SOL     OW 6301   1.582   2.501   6.058
 1990SOL    HW1 6302   1.551   2.562   6.131
 1990SOL    HW2 6303   1.632   2.553   5.989
 1991SOL     OW 6304   0.354   3.372   6.915
 1991SOL    HW1 6305   0.333   3.328   6.828
 1991SOL    HW2 6306   0.451   3.398   6.918
 1992SOL     OW 6307   0.402   2.613   7.184
 1992SOL    HW1 6308   0.470   2.668   7.137
 1992SOL    HW2 6309   0.442   2.525   7.211
 1993SOL     OW 6310   1.587   2.641   7.256
 1993SOL    HW1 6311   1.495   2.679   7.251
 1993SOL    HW2 6312   1.647   2.688   7.191
 1994SOL     OW 6313   1.013   1.967   7.356
 1994SOL    HW1 6314   1.019   2.052   7.304
 1994SOL    HW2 6315   1.045   1.891   7.299
 1995SOL     OW 6316   0.504   1.912   7.326
 1995SOL    HW1 6317   0.462   1.855   7.256
 1995SOL    HW2 6318   0.438   1.981   7.358
 1996SOL     OW 6319   0.573   2.732   6.615
 1996SOL    HW1 6320   0.617   2.821   6.606
 1996SOL    HW2 6321   0.510   2.732   6.692
 1997SOL     OW 6322   1.360   2.724   6.631
 1997SOL    HW1 6323   1.285   2.724   6.565
 1997SOL    HW2 6324   1.397   2.632   6.640
 1998SOL     OW 6325   1.209   2.387   5.861
 1998SOL    HW1 6326   1.222   2.303   5.915
 1998SOL    HW2 6327   1.180   2.461   5.921
 1999SOL     OW 6328   0.307   2.075   6.817
 1999SOL    HW1 6329   0.284   2.112   6.907
 1999SOL    HW2 6330   0.277   1.980   6.811
 2000SOL     OW 6331   0.037   3.172   6.868
 2000SOL    HW1 6332   0.090   3.123   6.936
 2000SOL    HW2 6333   0.059   3.270   6.873
 2001SOL     OW 6334   0.732   2.496   6.650
 2001SOL    HW1 6335   0.791   2.470   6.574
 2001SOL    HW2 6336   0.704   2.592   6.639
 2002SOL     OW 6337   1.728   2.797   7.440
 2002SOL    HW1 6338   1.682   2.790   7.351
 2002SOL    HW2 6339   1.666   2.841   7.506
 2003SOL     OW 6340   0.307   1.925   6.204
 2003SOL    HW1 6341   0.296   2.019   6.237
 2003SOL    HW2 6342   0.302   1.862   6.281
 2004SOL     OW 6343   1.622   2.229   5.960
 2004SOL    HW1 6344   1.624   2.153   6.024
 2004SOL    HW2 6345   1.574   2.306   6.000
 2005SOL     OW 6346   1.023   2.628   6.552
 2005SOL    HW1 6347   1.038   2.649   6.648
 2005SOL    HW2 6348   0.993   2.533   6.543
 2006SOL     OW 6349   0.980   3.435   7.286
 2006SOL    HW1 6350   0.960   3.479   7.198
 2006SOL    HW2 6351   1.019   3.344   7.270
 2007SOL     OW 6352   1.859   3.380   7.191
 2007SOL    HW1 6353   1.873   3.407   7.096
 2007SOL    HW2 6354   1.942   3.402   7.244
 2008SOL     OW 6355   0.350   2.760   7.390
 2008SOL    HW1 6356   0.426   2.804   7.438
 2008SOL    HW2 6357   0.385   2.713   7.308
 2009SOL     OW 6358   1.540   2.136   5.711
 2009SOL    HW1 6359   1.479   2.061   5.734
 2009SOL    HW2 6360   1.562   2.188   5.794
 2010SOL     OW 6361   1.303   2.700   5.628
 2010SOL    HW1 6362   1.337   2.607   5.643
 2010SOL    HW2 6363   1.321   2.727   5.533
 2011SOL     OW 6364   1.068   3.195   6.435
 2011SOL    HW1 6365   1.075   3.111   6.380
 2011SOL    HW2 6366   1.130   3.264   6.399
 2012SOL     OW 6367   0.319   2.672   6.535
 2012SOL    HW1 6368   0.412   2.708   6.540
 2012SOL    HW2 6369   0.313   2.587   6.587
 2013SOL     OW 6370   0.339   2.371   6.592
 2013SOL    HW1 6371   0.287   2.288   6.575
 2013SOL    HW2 6372   0.416   2.376   6.528
 2014SOL     OW 6373   1.138   2.242   7.264
 2014SOL    HW1 6374   1.093   2.305   7.328
 2014SOL    HW2 6375   1.231   2.273   7.247
 2015SOL     OW 6376   1.160   2.069   7.063
 2015SOL    HW1 6377   1.160   2.133   7.140
 2015SOL    HW2 6378   1.188   2.117   6.980
 2016SOL     OW 6379   0.008   3.188   5.786
 2016SOL    HW1 6380  -0.085   3.209   5.755
 2016SOL    HW2 6381   0.018   3.089   5.799
 2017SOL     OW 6382   0.088   3.663   6.513
 2017SOL    HW1 6383   0.046   3.577   6.486
 2017SOL    HW2 6384   0.182   3.666   6.479
 2018SOL     OW 6385   0.504   3.430   6.496
 2018SOL    HW1 6386   0.570   3.504   6.505
 2018SOL    HW2 6387   0.548   3.351   6.454
 2019SOL     OW 6388   1.002   2.658   6.824
 2019SOL    HW1 6389   1.043   2.626   6.910
 2019SOL    HW2 6390   0.906   2.631   6.821
 2020SOL     OW 6391   0.040   2.406   6.700
 2020SOL    HW1 6392   0.125   2.373   6.659
 2020SOL    HW2 6393   0.053   2.421   6.798
 2021SOL     OW 6394   0.189   2.382   7.308
 2021SOL    HW1 6395   0.248   2.342   7.238
 2021SOL    HW2 6396   0.131   2.453   7.267
 2022SOL     OW 6397   1.369   2.812   7.246
 2022SOL    HW1 6398   1.408   2.901   7.266
 2022SOL    HW2 6399   1.379   2.792   7.149
 2023SOL     OW 6400   0.815   2.434   5.911
 2023SOL    HW1 6401   0.822   2.345   5.865
 2023SOL    HW2 6402   0.721   2.468   5.903
 2024SOL     OW 6403   1.657   2.466   6.792
 2024SOL    HW1 6404   1.619   2.397   6.854
 2024SOL    HW2 6405   1.739   2.430   6.748
 2025SOL     OW 6406   0.252   3.426   7.330
 2025SOL    HW1 6407   0.222   3.483   7.406
 2025SOL    HW2 6408   0.245   3.329   7.356
 2026SOL     OW 6409   0.671   2.326   6.855
 2026SOL    HW1 6410   0.637   2.237   6.825
 2026SOL    HW2 6411   0.697   2.380   6.775
 2027SOL     OW 6412   0.930   3.540   7.051
 2027SOL    HW1 6413   0.906   3.522   6.956
 2027SOL    HW2 6414   0.960   3.634   7.061
 2028SOL     OW 6415   0.473   2.362   5.777
 2028SOL    HW1 6416   0.534   2.442   5.781
 2028SOL    HW2 6417   0.378   2.393   5.784
 2029SOL     OW 6418   0.159   2.999   7.052
 2029SOL    HW1 6419   0.181   2.938   7.128
 2029SOL    HW2 6420   0.169   2.950   6.966
 2030SOL     OW 6421   1.347   2.921   6.820
 2030SOL    HW1 6422   1.371   2.858   6.746
 2030SOL    HW2 6423   1.257   2.961   6.802
 2031SOL     OW 6424   1.302   2.717   5.895
 2031SOL    HW1 6425   1.216   2.686   5.937
 2031SOL    HW2 6426   1.298   2.703   5.796
 2032SOL     OW 6427   1.759   3.609   6.740
 2032SOL    HW1 6428   1.820   3.639   6.667
 2032SOL    HW2 6429   1.721   3.520   6.718
 2033SOL     OW 6430   1.252   3.593   6.714
 2033SOL    HW1 6431   1.336   3.598   6.660
 2033SOL    HW2 6432   1.229   3.497   6.732
 2034SOL     OW 6433   0.083   3.120   6.608
 2034SOL    HW1 6434   0.078   3.119   6.708
 2034SOL    HW2 6435   0.000   3.079   6.570
 2035SOL     OW 6436   0.688   3.524   7.302
 2035SOL    HW1 6437   0.632   3.605   7.311
 2035SOL    HW2 6438   0.740   3.528   7.216
 2036SOL     OW 6439   1.726   1.997   6.109
 2036SOL    HW1 6440   1.799   1.980   6.042
 2036SOL    HW2 6441   1.695   1.910   6.147
 2037SOL     OW 6442   1.388   3.435   6.063
 2037SOL    HW1 6443   1.455   3.447   5.989
 2037SOL    HW2 6444   1.348   3.524   6.086
 2038SOL     OW 6445   0.130   3.656   7.437
 2038SOL    HW1 6446   0.089   3.582   7.490
 2038SOL    HW2 6447   0.194   3.707   7.495
 2039SOL     OW 6448   1.280   2.789   6.258
 2039SOL    HW1 6449   1.340   2.708   6.260
 2039SOL    HW2 6450   1.320   2.858   6.198
 2040SOL     OW 6451   0.830   3.135   7.008
 2040SOL    HW1 6452   0.825   3.168   7.103
 2040SOL    HW2 6453   0.744   3.154   6.962
 2041SOL     OW 6454   0.672   3.478   5.740
 2041SOL    HW1 6455   0.681   3.488   5.641
 2041SOL    HW2 6456   0.632   3.389   5.761
 2042SOL     OW 6457   1.650   3.582   6.980
 2042SOL    HW1 6458   1.703   3.592   6.896
 2042SOL    HW2 6459   1.623   3.672   7.014
 2043SOL     OW 6460   1.841   2.037   6.549
 2043SOL    HW1 6461   1.880   1.952   6.513
 2043SOL    HW2 6462   1.743   2.039   6.530
 2044SOL     OW 6463   0.263   2.188   6.306
 2044SOL    HW1 6464   0.184   2.239   6.272
 2044SOL    HW2 6465   0.254   2.173   6.404
 2045SOL     OW 6466   1.194   3.474   5.617
 2045SOL    HW1 6467   1.200   3.381   5.654
 2045SOL    HW2 6468   1.135   3.474   5.537
 2046SOL     OW 6469   0.822   2.864   6.958
 2046SOL    HW1 6470   0.862   2.863   6.866
 2046SOL    HW2 6471   0.832   2.956   6.998
 2047SOL     OW 6472   0.916   2.772   5.877
 2047SOL    HW1 6473   0.979   2.810   5.809
 2047SOL    HW2 6474   0.956   2.689   5.916
 2048SOL     OW 6475   1.504   3.469   5.630
 2048SOL    HW1 6476   1.412   3.506   5.637
 2048SOL    HW2 6477   1.542   3.489   5.540
 2049SOL     OW 6478   0.372   3.150   7.076
 2049SOL    HW1 6479   0.359   3.243   7.042
 2049SOL    HW2 6480   0.288   3.098   7.063
 2050SOL     OW 6481   1.614   3.154   6.875
 2050SOL    HW1 6482   1.674   3.157   6.955
 2050SOL    HW2 6483   1.539   3.218   6.888
 2051SOL     OW 6484   1.039   2.960   6.282
 2051SOL    HW1 6485   0.969   2.913   6.336
 2051SOL    HW2 6486   1.098   2.892   6.239
 2052SOL     OW 6487   1.014   2.098   6.557
 2052SOL    HW1 6488   1.006   2.062   6.464
 2052SOL    HW2 6489   1.012   2.022   6.622
 2053SOL     OW 6490   0.590   3.349   6.077
 2053SOL    HW1 6491   0.632   3.291   6.007
 2053SOL    HW2 6492   0.546   3.428   6.033
 2054SOL     OW 6493   1.709   2.247   6.967
 2054SOL    HW1 6494   1.782   2.316   6.971
 2054SOL    HW2 6495   1.737   2.172   6.908
 2055SOL     OW 6496   0.255   3.210   5.876
 2055SOL    HW1 6497   0.159   3.211   5.849
 2055SOL    HW2 6498   0.267   3.263   5.960
 2056SOL     OW 6499   0.105   2.875   7.312
 2056SOL    HW1 6500   0.028   2.842   7.366
 2056SOL    HW2 6501   0.190   2.845   7.354
 2057SOL     OW 6502   0.672   2.065   7.075
 2057SOL    HW1 6503   0.762   2.049   7.035
 2057SOL    HW2 6504   0.680   2.070   7.174
 2058SOL     OW 6505   0.075   2.207   5.619
 2058SOL    HW1 6506  -0.017   2.179   5.590
 2058SOL    HW2 6507   0.106   2.284   5.563
 2059SOL     OW 6508   1.440   2.718   6.984
 2059SOL    HW1 6509   1.383   2.770   6.921
 2059SOL    HW2 6510   1.536   2.730   6.960
 2060SOL     OW 6511   0.072   2.028   5.904
 2060SOL    HW1 6512   0.055   2.111   5.850
 2060SOL    HW2 6513   0.162   1.991   5.882
 2061SOL     OW 6514   1.183   3.197   5.705
 2061SOL    HW1 6515   1.084   3.186   5.707
 2061SOL    HW2 6516   1.217   3.212   5.798
 2062SOL     OW 6517   0.613   2.704   7.017
 2062SOL    HW1 6518   0.669   2.785   7.000
 2062SOL    HW2 6519   0.672   2.624   7.020
 2063SOL     OW 6520   1.493   3.629   6.545
 2063SOL    HW1 6521   1.526   3.693   6.476
 2063SOL    HW2 6522   1.559   3.623   6.620
 2064SOL     OW 6523   0.716   2.427   7.294
 2064SOL    HW1 6524   0.735   2.492   7.368
 2064SOL    HW2 6525   0.776   2.347   7.303
 2065SOL     OW 6526   1.450   3.082   7.219
 2065SOL    HW1 6527   1.441   3.072   7.318
 2065SOL    HW2 6528   1.546   3.075   7.193
 2066SOL     OW 6529   0.390   3.603   7.146
 2066SOL    HW1 6530   0.299   3.644   7.144
 2066SOL    HW2 6531   0.383   3.509   7.178
 2067SOL     OW 6532   1.674   2.745   6.840
 2067SOL    HW1 6533   1.647   2.656   6.803
 2067SOL    HW2 6534   1.675   2.813   6.767
 2068SOL     OW 6535   1.225   2.187   6.035
 2068SOL    HW1 6536   1.290   2.113   6.024
 2068SOL    HW2 6537   1.245   2.237   6.119
 2069SOL     OW 6538   0.594   2.607   6.238
 2069SOL    HW1 6539   0.644   2.692   6.219
 2069SOL    HW2 6540   0.506   2.609   6.190
 2070SOL     OW 6541   1.777   2.204   7.228
 2070SOL    HW1 6542   1.760   2.235   7.134
 2070SOL    HW2 6543   1.693   2.167   7.266
 2071SOL     OW 6544   1.730   2.796   7.103
 2071SOL    HW1 6545   1.768   2.887   7.118
 2071SOL    HW2 6546   1.722   2.779   7.004
 2072SOL     OW 6547   0.859   3.236   5.602
 2072SOL    HW1 6548   0.813   3.251   5.690
 2072SOL    HW2 6549   0.903   3.321   5.572
 2073SOL     OW 6550   0.661   3.652   6.539
 2073SOL    HW1 6551   0.615   3.740   6.526
 2073SOL    HW2 6552   0.760   3.664   6.532
 2074SOL     OW 6553   0.859   2.818   6.447
 2074SOL    HW1 6554   0.913   2.749   6.495
 2074SOL    HW2 6555   0.827   2.887   6.513
 2075SOL     OW 6556   1.083   2.846   5.673
 2075SOL    HW1 6557   1.060   2.899   5.591
 2075SOL    HW2 6558   1.164   2.790   5.654
 2076SOL     OW 6559   1.861   3.431   6.437
 2076SOL    HW1 6560   1.790   3.419   6.367
 2076SOL    HW2 6561   1.862   3.352   6.497
 2077SOL     OW 6562   0.221   3.176   7.430
 2077SOL    HW1 6563   0.156   3.103   7.409
 2077SOL    HW2 6564   0.225   3.190   7.528
 2078SOL     OW 6565   0.079   3.102   6.239
 2078SOL    HW1 6566   0.078   3.055   6.327
 2078SOL    HW2 6567   0.161   3.074   6.188
 2079SOL     OW 6568   0.672   3.253   7.210
 2079SOL    HW1 6569   0.594   3.203   7.248
 2079SOL    HW2 6570   0.669   3.348   7.241
 2080SOL     OW 6571   1.824   2.054   6.813
 2080SOL    HW1 6572   1.820   1.964   6.857
 2080SOL    HW2 6573   1.827   2.043   6.714
 2081SOL     OW 6574   0.428   2.286   6.106
 2081SOL    HW1 6575   0.458   2.214   6.044
 2081SOL    HW2 6576   0.389   2.246   6.189
 2082SOL     OW 6577   1.705   3.349   6.690
 2082SOL    HW1 6578   1.612   3.324   6.663
 2082SOL    HW2 6579   1.731   3.299   6.772
 2083SOL     OW 6580   0.317   2.409   6.866
 2083SOL    HW1 6581   0.355   2.350   6.938
 2083SOL    HW2 6582   0.357   2.383   6.778
 2084SOL     OW 6583   0.812   3.448   6.273
 2084SOL    HW1 6584   0.844   3.458   6.179
 2084SOL    HW2 6585   0.733   3.386   6.275
 2085SOL     OW 6586   1.424   2.076   6.698
 2085SOL    HW1 6587   1.476   2.011   6.753
 2085SOL    HW2 6588   1.375   2.139   6.759
 2086SOL     OW 6589   1.001   1.896   6.740
 2086SOL    HW1 6590   0.938   1.824   6.709
 2086SOL    HW2 6591   1.094   1.860   6.740
 2087SOL     OW 6592   0.770   3.192   5.887
 2087SOL    HW1 6593   0.724   3.105   5.904
 2087SOL    HW2 6594   0.861   3.189   5.928
 2088SOL     OW 6595   0.618   3.429   6.870
 2088SOL    HW1 6596   0.613   3.511   6.927
 2088SOL    HW2 6597   0.707   3.426   6.825
 2089SOL     OW 6598   1.352   1.914   5.754
 2089SOL    HW1 6599   1.387   1.873   5.670
 2089SOL    HW2 6600   1.262   1.876   5.774
 2090SOL     OW 6601   1.300   2.315   6.277
 2090SOL    HW1 6602   1.241   2.395   6.281
 2090SOL    HW2 6603   1.315   2.280   6.370
 2091SOL     OW 6604   1.593   2.083   6.468
 2091SOL    HW1 6605   1.509   2.082   6.522
 2091SOL    HW2 6606   1.595   2.166   6.412
 2092SOL     OW 6607   0.039   2.939   5.886
 2092SOL    HW1 6608   0.138   2.928   5.877
 2092SOL    HW2 6609  -0.001   2.853   5.918
 2093SOL     OW 6610   0.875   3.508   5.923
 2093SOL    HW1 6611   0.798   3.473   5.869
 2093SOL    HW2 6612   0.843   3.579   5.985
 2094SOL     OW 6613   0.230   2.490   7.561
 2094SOL    HW1 6614   0.137   2.488   7.598
 2094SOL    HW2 6615   0.231   2.451   7.469
 2095SOL     OW 6616   0.225   2.137   8.444
 2095SOL    HW1 6617   0.260   2.120   8.536
 2095SOL    HW2 6618   0.137   2.092   8.432
 2096SOL     OW 6619   0.019   2.230   8.095
 2096SOL    HW1 6620  -0.063   2.273   8.134
 2096SOL    HW2 6621  -0.009   2.157   8.032
 2097SOL     OW 6622   0.569   3.137   8.613
 2097SOL    HW1 6623   0.476   3.130   8.576
 2097SOL    HW2 6624   0.580   3.226   8.657
 2098SOL     OW 6625   1.555   3.373   8.151
 2098SOL    HW1 6626   1.498   3.357   8.232
 2098SOL    HW2 6627   1.496   3.383   8.071
 2099SOL     OW 6628   1.135   2.565   8.165
 2099SOL    HW1 6629   1.192   2.643   8.140
 2099SOL    HW2 6630   1.075   2.591   8.241
 2100SOL     OW 6631   1.755   2.469   7.679
 2100SOL    HW1 6632   1.743   2.456   7.580
 2100SOL    HW2 6633   1.725   2.388   7.728
 2101SOL     OW 6634   0.768   3.006   8.471
 2101SOL    HW1 6635   0.690   3.023   8.531
 2101SOL    HW2 6636   0.802   3.093   8.435
 2102SOL     OW 6637   0.850   2.660   9.271
 2102SOL    HW1 6638   0.846   2.736   9.336
 2102SOL    HW2 6639   0.872   2.696   9.180
 2103SOL     OW 6640   0.685   2.874   8.113
 2103SOL    HW1 6641   0.754   2.858   8.183
 2103SOL    HW2 6642   0.612   2.931   8.151
 2104SOL     OW 6643   0.686   3.023   9.251
 2104SOL    HW1 6644   0.746   3.102   9.265
 2104SOL    HW2 6645   0.600   3.054   9.210
 2105SOL     OW 6646   0.335   3.297   8.509
 2105SOL    HW1 6647   0.257   3.266   8.456
 2105SOL    HW2 6648   0.393   3.355   8.452
 2106SOL     OW 6649   1.460   3.367   8.787
 2106SOL    HW1 6650   1.484   3.461   8.813
 2106SOL    HW2 6651   1.444   3.313   8.869
 2107SOL     OW 6652   0.438   2.254   8.947
 2107SOL    HW1 6653   0.520   2.198   8.956
 2107SOL    HW2 6654   0.357   2.196   8.951
 2108SOL     OW 6655   1.603   2.309   8.185
 2108SOL    HW1 6656   1.529   2.355   8.135
 2108SOL    HW2 6657   1.654   2.377   8.238
 2109SOL     OW 6658   0.231   3.575   7.931
 2109SOL    HW1 6659   0.265   3.652   7.985
 2109SOL    HW2 6660   0.275   3.575   7.841
 2110SOL     OW 6661   1.127   3.203   9.138
 2110SOL    HW1 6662   1.174   3.203   9.226
 2110SOL    HW2 6663   1.079   3.116   9.127
 2111SOL     OW 6664   0.230   3.296   7.986
 2111SOL    HW1 6665   0.204   3.392   7.986
 2111SOL    HW2 6666   0.159   3.242   8.031
 2112SOL     OW 6667   0.240   2.953   8.334
 2112SOL    HW1 6668   0.254   2.869   8.386
 2112SOL    HW2 6669   0.185   3.017   8.389
 2113SOL     OW 6670   0.620   3.648   8.887
 2113SOL    HW1 6671   0.528   3.631   8.922
 2113SOL    HW2 6672   0.648   3.740   8.913
 2114SOL     OW 6673   0.606   2.826   7.571
 2114SOL    HW1 6674   0.613   2.910   7.517
 2114SOL    HW2 6675   0.652   2.839   7.659
 2115SOL     OW 6676   1.594   1.976   8.928
 2115SOL    HW1 6677   1.576   2.043   8.856
 2115SOL    HW2 6678   1.591   2.022   9.017
 2116SOL     OW 6679   0.122   2.505   8.011
 2116SOL    HW1 6680   0.077   2.417   8.028
 2116SOL    HW2 6681   0.121   2.559   8.095
 2117SOL     OW 6682   1.842   3.629   7.807
 2117SOL    HW1 6683   1.896   3.600   7.887
 2117SOL    HW2 6684   1.872   3.719   7.778
 2118SOL     OW 6685   0.027   3.458   7.565
 2118SOL    HW1 6686   0.008   3.362   7.586
 2118SOL    HW2 6687  -0.006   3.516   7.640
 2119SOL     OW 6688   1.689   2.784   8.060
 2119SOL    HW1 6689   1.784   2.755   8.068
 2119SOL    HW2 6690   1.681   2.849   7.985
 2120SOL     OW 6691   1.641   2.970   7.880
 2120SOL    HW1 6692   1.727   2.972   7.828
 2120SOL    HW2 6693   1.655   3.017   7.968
 2121SOL     OW 6694   0.113   2.599   9.045
 2121SOL    HW1 6695   0.201   2.586   9.090
 2121SOL    HW2 6696   0.100   2.696   9.023
 2122SOL     OW 6697   0.613   3.227   8.174
 2122SOL    HW1 6698   0.564   3.140   8.183
 2122SOL    HW2 6699   0.590   3.270   8.087
 2123SOL     OW 6700   1.293   3.090   8.871
 2123SOL    HW1 6701   1.330   3.017   8.813
 2123SOL    HW2 6702   1.345   3.095   8.956
 2124SOL     OW 6703   0.809   1.866   7.950
 2124SOL    HW1 6704   0.849   1.957   7.941
 2124SOL    HW2 6705   0.709   1.874   7.956
 2125SOL     OW 6706   0.197   2.838   8.712
 2125SOL    HW1 6707   0.286   2.793   8.698
 2125SOL    HW2 6708   0.124   2.773   8.693
 2126SOL     OW 6709   1.525   2.861   7.638
 2126SOL    HW1 6710   1.462   2.785   7.651
 2126SOL    HW2 6711   1.573   2.879   7.724
 2127SOL     OW 6712   1.187   3.654   9.064
 2127SOL    HW1 6713   1.211   3.714   8.988
 2127SOL    HW2 6714   1.194   3.559   9.034
 2128SOL     OW 6715   0.317   2.113   9.249
 2128SOL    HW1 6716   0.388   2.184   9.255
 2128SOL    HW2 6717   0.229   2.152   9.277
 2129SOL     OW 6718   1.466   3.279   8.401
 2129SOL    HW1 6719   1.407   3.285   8.481
 2129SOL    HW2 6720   1.451   3.191   8.355
 2130SOL     OW 6721   1.667   3.576   8.020
 2130SOL    HW1 6722   1.626   3.553   7.932
 2130SOL    HW2 6723   1.649   3.502   8.085
 2131SOL     OW 6724   0.598   2.591   7.718
 2131SOL    HW1 6725   0.622   2.660   7.650
 2131SOL    HW2 6726   0.520   2.624   7.772
 2132SOL     OW 6727   1.281   2.207   8.392
 2132SOL    HW1 6728   1.195   2.157   8.379
 2132SOL    HW2 6729   1.343   2.153   8.448
 2133SOL     OW 6730   1.576   3.524   7.755
 2133SOL    HW1 6731   1.665   3.570   7.758
 2133SOL    HW2 6732   1.555   3.500   7.660
 2134SOL     OW 6733   0.807   2.467   8.913
 2134SOL    HW1 6734   0.760   2.464   9.002
 2134SOL    HW2 6735   0.756   2.412   8.847
 2135SOL     OW 6736   1.394   2.331   9.122
 2135SOL    HW1 6737   1.374   2.374   9.210
 2135SOL    HW2 6738   1.472   2.269   9.131
 2136SOL     OW 6739   0.973   2.752   9.020
 2136SOL    HW1 6740   1.019   2.668   8.991
 2136SOL    HW2 6741   0.917   2.786   8.945
 2137SOL     OW 6742   0.991   2.272   8.690
 2137SOL    HW1 6743   0.914   2.306   8.744
 2137SOL    HW2 6744   0.957   2.221   8.611
 2138SOL     OW 6745   1.041   2.563   7.877
 2138SOL    HW1 6746   1.067   2.559   7.973
 2138SOL    HW2 6747   0.956   2.512   7.863
 2139SOL     OW 6748   0.076   2.673   8.237
 2139SOL    HW1 6749   0.175   2.661   8.246
 2139SOL    HW2 6750   0.052   2.768   8.258
 2140SOL     OW 6751   0.130   3.683   9.019
 2140SOL    HW1 6752   0.120   3.668   9.118
 2140SOL    HW2 6753   0.044   3.719   8.983
 2141SOL     OW 6754   0.865   2.210   7.643
 2141SOL    HW1 6755   0.924   2.273   7.594
 2141SOL    HW2 6756   0.884   2.116   7.614
 2142SOL     OW 6757   1.719   2.447   9.279
 2142SOL    HW1 6758   1.693   2.536   9.243
 2142SOL    HW2 6759   1.717   2.379   9.206
 2143SOL     OW 6760   1.362   3.006   7.993
 2143SOL    HW1 6761   1.445   2.977   7.945
 2143SOL    HW2 6762   1.313   3.073   7.937
 2144SOL     OW 6763   0.550   2.058   8.333
 2144SOL    HW1 6764   0.545   2.053   8.433
 2144SOL    HW2 6765   0.552   2.154   8.304
 2145SOL     OW 6766   1.008   3.318   7.925
 2145SOL    HW1 6767   0.962   3.390   7.873
 2145SOL    HW2 6768   1.004   3.338   8.023
 2146SOL     OW 6769   0.351   3.663   8.301
 2146SOL    HW1 6770   0.401   3.577   8.307
 2146SOL    HW2 6771   0.416   3.740   8.298
 2147SOL     OW 6772   1.795   2.928   8.321
 2147SOL    HW1 6773   1.733   2.913   8.245
 2147SOL    HW2 6774   1.743   2.939   8.406
 2148SOL     OW 6775   1.227   3.412   8.954
 2148SOL    HW1 6776   1.233   3.335   9.018
 2148SOL    HW2 6777   1.175   3.386   8.874
 2149SOL     OW 6778   0.321   2.805   7.690
 2149SOL    HW1 6779   0.403   2.844   7.648
 2149SOL    HW2 6780   0.294   2.723   7.641
 2150SOL     OW 6781   1.458   2.597   8.176
 2150SOL    HW1 6782   1.453   2.532   8.251
 2150SOL    HW2 6783   1.538   2.656   8.189
 2151SOL     OW 6784   0.461   3.128   9.175
 2151SOL    HW1 6785   0.411   3.129   9.089
 2151SOL    HW2 6786   0.398   3.110   9.251
 2152SOL     OW 6787   1.111   3.638   7.685
 2152SOL    HW1 6788   1.051   3.576   7.735
 2152SOL    HW2 6789   1.142   3.594   7.600
 2153SOL     OW 6790   0.202   2.147   8.946
 2153SOL    HW1 6791   0.122   2.207   8.933
 2153SOL    HW2 6792   0.192   2.098   9.032
 2154SOL     OW 6793   1.632   3.239   7.529
 2154SOL    HW1 6794   1.600   3.333   7.519
 2154SOL    HW2 6795   1.556   3.176   7.517
 2155SOL     OW 6796   0.464   3.605   7.771
 2155SOL    HW1 6797   0.497   3.644   7.857
 2155SOL    HW2 6798   0.540   3.598   7.706
 2156SOL     OW 6799   1.400   1.969   7.874
 2156SOL    HW1 6800   1.376   1.932   7.784
 2156SOL    HW2 6801   1.499   1.985   7.878
 2157SOL     OW 6802   0.249   3.647   8.689
 2157SOL    HW1 6803   0.306   3.582   8.739
 2157SOL    HW2 6804   0.233   3.614   8.596
 2158SOL     OW 6805   0.940   3.560   8.352
 2158SOL    HW1 6806   1.020   3.503   8.373
 2158SOL    HW2 6807   0.891   3.520   8.275
 2159SOL     OW 6808   0.382   2.562   7.928
 2159SOL    HW1 6809   0.427   2.472   7.925
 2159SOL    HW2 6810   0.288   2.551   7.961
 2160SOL     OW 6811   1.547   2.084   9.177
 2160SOL    HW1 6812   1.542   2.121   9.269
 2160SOL    HW2 6813   1.475   2.015   9.165
 2161SOL     OW 6814   0.614   1.984   7.565
 2161SOL    HW1 6815   0.712   1.962   7.572
 2161SOL    HW2 6816   0.583   1.967   7.472
 2162SOL     OW 6817   0.781   2.126   9.197
 2162SOL    HW1 6818   0.848   2.065   9.240
 2162SOL    HW2 6819   0.708   2.145   9.262
 2163SOL     OW 6820   0.888   3.376   8.643
 2163SOL    HW1 6821   0.865   3.351   8.549
 2163SOL    HW2 6822   0.949   3.307   8.682
 2164SOL     OW 6823   1.351   2.452   8.881
 2164SOL    HW1 6824   1.379   2.409   8.966
 2164SOL    HW2 6825   1.376   2.548   8.882
 2165SOL     OW 6826   0.803   3.264   8.372
 2165SOL    HW1 6827   0.893   3.278   8.330
 2165SOL    HW2 6828   0.732   3.266   8.301
 2166SOL     OW 6829   0.922   2.365   8.347
 2166SOL    HW1 6830   0.897   2.356   8.251
 2166SOL    HW2 6831   0.970   2.283   8.378
 2167SOL     OW 6832   0.539   1.926   7.960
 2167SOL    HW1 6833   0.458   1.927   8.018
 2167SOL    HW2 6834   0.542   2.009   7.905
 2168SOL     OW 6835   1.434   3.050   7.489
 2168SOL    HW1 6836   1.466   2.974   7.546
 2168SOL    HW2 6837   1.342   3.077   7.519
 2169SOL     OW 6838   0.297   1.897   7.619
 2169SOL    HW1 6839   0.346   1.981   7.598
 2169SOL    HW2 6840   0.359   1.832   7.664
 2170SOL     OW 6841   0.935   2.098   7.928
 2170SOL    HW1 6842   0.887   2.139   7.850
 2170SOL    HW2 6843   1.034   2.096   7.909
 2171SOL     OW 6844   1.076   2.545   8.912
 2171SOL    HW1 6845   0.996   2.484   8.915
 2171SOL    HW2 6846   1.157   2.492   8.888
 2172SOL     OW 6847   1.227   3.432   8.241
 2172SOL    HW1 6848   1.248   3.506   8.176
 2172SOL    HW2 6849   1.295   3.432   8.314
 2173SOL     OW 6850   0.459   3.014   8.189
 2173SOL    HW1 6851   0.388   2.987   8.254
 2173SOL    HW2 6852   0.433   2.986   8.096
 2174SOL     OW 6853   1.271   3.659   8.039
 2174SOL    HW1 6854   1.315   3.723   7.975
 2174SOL    HW2 6855   1.221   3.711   8.109
 2175SOL     OW 6856   1.032   2.411   7.464
 2175SOL    HW1 6857   0.991   2.493   7.425
 2175SOL    HW2 6858   1.096   2.437   7.537
 2176SOL     OW 6859   0.078   2.418   8.834
 2176SOL    HW1 6860   0.170   2.417   8.793
 2176SOL    HW2 6861   0.072   2.492   8.901
 2177SOL     OW 6862   0.561   2.084   8.595
 2177SOL    HW1 6863   0.599   2.000   8.632
 2177SOL    HW2 6864   0.473   2.103   8.639
 2178SOL     OW 6865   0.866   2.316   8.090
 2178SOL    HW1 6866   0.834   2.388   8.028
 2178SOL    HW2 6867   0.890   2.235   8.037
 2179SOL     OW 6868   1.017   1.901   8.201
 2179SOL    HW1 6869   0.945   1.906   8.132
 2179SOL    HW2 6870   0.993   1.832   8.270
 2180SOL     OW 6871   1.429   3.035   8.315
 2180SOL    HW1 6872   1.374   2.951   8.308
 2180SOL    HW2 6873   1.455   3.064   8.223
 2181SOL     OW 6874   1.466   2.452   8.440
 2181SOL    HW1 6875   1.436   2.357   8.447
 2181SOL    HW2 6876   1.539   2.468   8.506
 2182SOL     OW 6877   1.857   2.695   7.825
 2182SOL    HW1 6878   1.899   2.631   7.889
 2182SOL    HW2 6879   1.819   2.644   7.747
 2183SOL     OW 6880   0.488   3.247   7.622
 2183SOL    HW1 6881   0.401   3.232   7.669
 2183SOL    HW2 6882   0.471   3.273   7.527
 2184SOL     OW 6883   1.664   3.142   8.105
 2184SOL    HW1 6884   1.763   3.150   8.119
 2184SOL    HW2 6885   1.619   3.226   8.136
 2185SOL     OW 6886   1.390   2.437   7.526
 2185SOL    HW1 6887   1.336   2.416   7.607
 2185SOL    HW2 6888   1.481   2.396   7.535
 2186SOL     OW 6889   0.527   2.118   7.776
 2186SOL    HW1 6890   0.554   2.059   7.701
 2186SOL    HW2 6891   0.527   2.213   7.745
 2187SOL     OW 6892   1.754   3.085   9.036
 2187SOL    HW1 6893   1.845   3.046   9.023
 2187SOL    HW2 6894   1.762   3.181   9.060
 2188SOL     OW 6895   1.064   3.209   8.788
 2188SOL    HW1 6896   0.984   3.186   8.843
 2188SOL    HW2 6897   1.147   3.183   8.837
 2189SOL     OW 6898   1.592   3.491   9.073
 2189SOL    HW1 6899   1.619   3.525   8.983
 2189SOL    HW2 6900   1.671   3.453   9.119
 2190SOL     OW 6901   1.111   3.057   8.548
 2190SOL    HW1 6902   1.071   3.101   8.629
 2190SOL    HW2 6903   1.070   3.094   8.465
 2191SOL     OW 6904   1.638   2.961   8.527
 2191SOL    HW1 6905   1.643   3.042   8.586
 2191SOL    HW2 6906   1.552   2.963   8.476
 2192SOL     OW 6907   0.915   1.951   8.850
 2192SOL    HW1 6908   0.940   1.931   8.755
 2192SOL    HW2 6909   0.987   2.007   8.892
 2193SOL     OW 6910   0.980   2.978   9.167
 2193SOL    HW1 6911   0.881   2.984   9.177
 2193SOL    HW2 6912   1.003   2.898   9.111
 2194SOL     OW 6913   0.705   2.912   7.816
 2194SOL    HW1 6914   0.691   2.919   7.915
 2194SOL    HW2 6915   0.789   2.861   7.798
 2195SOL     OW 6916   0.410   2.675   8.699
 2195SOL    HW1 6917   0.496   2.687   8.749
 2195SOL    HW2 6918   0.368   2.588   8.726
 2196SOL     OW 6919   1.274   2.248   8.710
 2196SOL    HW1 6920   1.295   2.322   8.774
 2196SOL    HW2 6921   1.185   2.265   8.667
 2197SOL     OW 6922   0.064   3.426   8.779
 2197SOL    HW1 6923   0.018   3.508   8.745
 2197SOL    HW2 6924   0.162   3.445   8.788
 2198SOL     OW 6925   0.367   2.962   7.949
 2198SOL    HW1 6926   0.360   3.045   7.893
 2198SOL    HW2 6927   0.371   2.882   7.889
 2199SOL     OW 6928   0.566   2.399   8.313
 2199SOL    HW1 6929   0.578   2.465   8.239
 2199SOL    HW2 6930   0.612   2.433   8.396
 2200SOL     OW 6931   1.252   3.210   7.836
 2200SOL    HW1 6932   1.302   3.287   7.876
 2200SOL    HW2 6933   1.157   3.212   7.868
 2201SOL     OW 6934   1.272   3.307   8.590
 2201SOL    HW1 6935   1.319   3.320   8.677
 2201SOL    HW2 6936   1.206   3.233   8.599
 2202SOL     OW 6937   1.582   2.501   7.920
 2202SOL    HW1 6938   1.551   2.562   7.993
 2202SOL    HW2 6939   1.632   2.553   7.851
 2203SOL     OW 6940   0.354   3.372   8.777
 2203SOL    HW1 6941   0.333   3.328   8.690
 2203SOL    HW2 6942   0.451   3.398   8.780
 2204SOL     OW 6943   0.402   2.613   9.046
 2204SOL    HW1 6944   0.470   2.668   8.999
 2204SOL    HW2 6945   0.442   2.525   9.073
 2205SOL     OW 6946   1.587   2.641   9.118
 2205SOL    HW1 6947   1.495   2.679   9.113
 2205SOL    HW2 6948   1.647   2.688   9.053
 2206SOL     OW 6949   1.013   1.967   9.218
 2206SOL    HW1 6950   1.019   2.052   9.166
 2206SOL    HW2 6951   1.045   1.891   9.161
 2207SOL     OW 6952   0.504   1.912   9.188
 2207SOL    HW1 6953   0.462   1.855   9.118
 2207SOL    HW2 6954   0.438   1.981   9.220
 2208SOL     OW 6955   0.573   2.732   8.477
 2208SOL    HW1 6956   0.617   2.821   8.468
 2208SOL    HW2 6957   0.510   2.732   8.554
 2209SOL     OW 6958   1.360   2.724   8.493
 2209SOL    HW1 6959   1.285   2.724   8.427
 2209SOL    HW2 6960   1.397   2.632   8.502
 2210SOL     OW 6961   1.209   2.387   7.723
 2210SOL    HW1 6962   1.222   2.303   7.777
 2210SOL    HW2 6963   1.180   2.461   7.783
 2211SOL     OW 6964   0.307   2.075   8.679
 2211SOL    HW1 6965   0.284   2.112   8.769
 2211SOL    HW2 6966   0.277   1.980   8.673
 2212SOL     OW 6967   0.037   3.172   8.730
 2212SOL    HW1 6968   0.090   3.123   8.798
 2212SOL    HW2 6969   0.059   3.270   8.735
 2213SOL     OW 6970   0.732   2.496   8.512
 2213SOL    HW1 6971   0.791   2.470   8.436
 2213SOL    HW2 6972   0.704   2.592   8.501
 2214SOL     OW 6973   1.728   2.797   9.302
 2214SOL    HW1 6974   1.682   2.790   9.213
 2214SOL    HW2 6975   1.666   2.841   9.368
 2215SOL     OW 6976   0.307   1.925   8.066
 2215SOL    HW1 6977   0.296   2.019   8.099
 2215SOL    HW2 6978   0.302   1.862   8.143
 2216SOL     OW 6979   1.622   2.229   7.822
 2216SOL    HW1 6980   1.624   2.153   7.886
 2216SOL    HW2 6981   1.574   2.306   7.862
 2217SOL     OW 6982   1.023   2.628   8.414
 2217SOL    HW1 6983   1.038   2.649   8.510
 2217SOL    HW2 6984   0.993   2.533   8.405
 2218SOL     OW 6985   0.980   3.435   9.148
 2218SOL    HW1 6986   0.960   3.479   9.060
 2218SOL    HW2 6987   1.019   3.344   9.132
 2219SOL     OW 6988   1.859   3.380   9.053
 2219SOL    HW1 6989   1.873   3.407   8.958
 2219SOL    HW2 6990   1.942   3.402   9.106
 2220SOL     OW 6991   0.350   2.760   9.252
 2220SOL    HW1 6992   0.426   2.804   9.300
 2220SOL    HW2 6993   0.385   2.713   9.170
 2221SOL     OW 6994   1.540   2.136   7.573
 2221SOL    HW1 6995   1.479   2.061   7.596
 2221SOL    HW2 6996   1.562   2.188   7.656
 2222SOL     OW 6997   1.303   2.700   7.490
 2222SOL    HW1 6998   1.337   2.607   7.505
 2222SOL    HW2 6999   1.321   2.727   7.395
 2223SOL     OW 7000   1.068   3.195   8.297
 2223SOL    HW1 7001   1.075   3.111   8.242
 2223SOL    HW2 7002   1.130   3.264   8.261
 2224SOL     OW 7003   0.319   2.672   8.397
 2224SOL    HW1 7004   0.412   2.708   8.402
 2224SOL    HW2 7005   0.313   2.587   8.449
 2225SOL     OW 7006   0.339   2.371   8.454
 2225SOL    HW1 7007   0.287   2.288   8.437
 2225SOL    HW2 7008   0.416   2.376   8.390
 2226SOL     OW 7009   1.138   2.242   9.126
 2226SOL    HW1 7010   1.093   2.305   9.190
 2226SOL    HW2 7011   1.231   2.273   9.109
 2227SOL     OW 7012   1.160   2.069   8.925
 2227SOL    HW1 7013   1.160   2.133   9.002
 2227SOL    HW2 7014   1.188   2.117   8.842
 2228SOL     OW 7015   0.008   3.188   7.648
 2228SOL    HW1 7016  -0.085   3.209   7.617
 2228SOL    HW2 7017   0.018   3.089   7.661
 2229SOL     OW 7018   0.088   3.663   8.375
 2229SOL    HW1 7019   0.046   3.577   8.348
 2229SOL    HW2 7020   0.182   3.666   8.341
 2230SOL     OW 7021   0.504   3.430   8.358
 2230SOL    HW1 7022   0.570   3.504   8.367
 2230SOL    HW2 7023   0.548   3.351   8.316
 2231SOL     OW 7024   1.002   2.658   8.686
 2231SOL    HW1 7025   1.043   2.626   8.772
 2231SOL    HW2 7026   0.906   2.631   8.683
 2232SOL     OW 7027   0.040   2.406   8.562
 2232SOL    HW1 7028   0.125   2.373   8.521
 2232SOL    HW2 7029   0.053   2.421   8.660
 2233SOL     OW 7030   0.189   2.382   9.170
 2233SOL    HW1 7031   0.248   2.342   9.100
 2233SOL    HW2 7032   0.131   2.453   9.129
 2234SOL     OW 7033   1.369   2.812   9.108
 2234SOL    HW1 7034   1.408   2.901   9.128
 2234SOL    HW2 7035   1.379   2.792   9.011
 2235SOL     OW 7036   0.815   2.434   7.773
 2235SOL    HW1 7037   0.822   2.345   7.727
 2235SOL    HW2 7038   0.721   2.468   7.765
 2236SOL     OW 7039   1.657   2.466   8.654
 2236SOL    HW1 7040   1.619   2.397   8.716
 2236SOL    HW2 7041   1.739   2.430   8.610
 2237SOL     OW 7042   0.252   3.426   9.192
 2237SOL    HW1 7043   0.222   3.483   9.268
 2237SOL    HW2 7044   0.245   3.329   9.218
 2238SOL     OW 7045   0.671   2.326   8.717
 2238SOL    HW1 7046   0.637   2.237   8.687
 2238SOL    HW2 7047   0.697   2.380   8.637
 2239SOL     OW 7048   0.930   3.540   8.913
 2239SOL    HW1 7049   0.906   3.522   8.818
 2239SOL    HW2 7050   0.960   3.634   8.923
 2240SOL     OW 7051   0.473   2.362   7.639
 2240SOL    HW1 7052   0.534   2.442   7.643
 2240SOL    HW2 7053   0.378   2.393   7.646
 2241SOL     OW 7054   0.159   2.999   8.914
 2241SOL    HW1 7055   0.181   2.938   8.990
 2241SOL    HW2 7056   0.169   2.950   8.828
 2242SOL     OW 7057   1.347   2.921   8.682
 2242SOL    HW1 7058   1.371   2.858   8.608
 2242SOL    HW2 7059   1.257   2.961   8.664
 2243SOL     OW 7060   1.302   2.717   7.757
 2243SOL    HW1 7061   1.216   2.686   7.799
 2243SOL    HW2 7062   1.298   2.703   7.658
 2244SOL     OW 7063   1.759   3.609   8.602
 2244SOL    HW1 7064   1.820   3.639   8.529
 2244SOL    HW2 7065   1.721   3.520   8.580
 2245SOL     OW 7066   1.252   3.593   8.576
 2245SOL    HW1 7067   1.336   3.598   8.522
 2245SOL    HW2 7068   1.229   3.497   8.594
 2246SOL     OW 7069   0.083   3.120   8.470
 2246SOL    HW1 7070   0.078   3.119   8.570
 2246SOL    HW2 7071   0.000   3.079   8.432
 2247SOL     OW 7072   0.688   3.524   9.164
 2247SOL    HW1 7073   0.632   3.605   9.173
 2247SOL    HW2 7074   0.740   3.528   9.078
 2248SOL     OW 7075   1.726   1.997   7.971
 2248SOL    HW1 7076   1.799   1.980   7.904
 2248SOL    HW2 7077   1.695   1.910   8.009
 2249SOL     OW 7078   1.388   3.435   7.925
 2249SOL    HW1 7079   1.455   3.447   7.851
 2249SOL    HW2 7080   1.348   3.524   7.948
 2250SOL     OW 7081   0.130   3.656   9.299
 2250SOL    HW1 7082   0.089   3.582   9.352
 2250SOL    HW2 7083   0.194   3.707   9.357
 2251SOL     OW 7084   1.280   2.789   8.120
 2251SOL    HW1 7085   1.340   2.708   8.122
 2251SOL    HW2 7086   1.320   2.858   8.060
 2252SOL     OW 7087   0.830   3.135   8.870
 2252SOL    HW1 7088   0.825   3.168   8.965
 2252SOL    HW2 7089   0.744   3.154   8.824
 2253SOL     OW 7090   0.672   3.478   7.602
 2253SOL    HW1 7091   0.681   3.488   7.503
 2253SOL    HW2 7092   0.632   3.389   7.623
 2254SOL     OW 7093   1.650   3.582   8.842
 2254SOL    HW1 7094   1.703   3.592   8.758
 2254SOL    HW2 7095   1.623   3.672   8.876
 2255SOL     OW 7096   1.841   2.037   8.411
 2255SOL    HW1 7097   1.880   1.952   8.375
 2255SOL    HW2 7098   1.743   2.039   8.392
 2256SOL     OW 7099   0.263   2.188   8.168
 2256SOL    HW1 7100   0.184   2.239   8.134
 2256SOL    HW2 7101   0.254   2.173   8.266
 2257SOL     OW 7102   1.194   3.474   7.479
 2257SOL    HW1 7103   1.200   3.381   7.516
 2257SOL    HW2 7104   1.135   3.474   7.399
 2258SOL     OW 7105   0.822   2.864   8.820
 2258SOL    HW1 7106   0.862   2.863   8.728
 2258SOL    HW2 7107   0.832   2.956   8.860
 2259SOL     OW 7108   0.916   2.772   7.739
 2259SOL    HW1 7109   0.979   2.810   7.671
 2259SOL    HW2 7110   0.956   2.689   7.778
 2260SOL     OW 7111   1.504   3.469   7.492
 2260SOL    HW1 7112   1.412   3.506   7.499
 2260SOL    HW2 7113   1.542   3.489   7.402
 2261SOL     OW 7114   0.372   3.150   8.938
 2261SOL    HW1 7115   0.359   3.243   8.904
 2261SOL    HW2 7116   0.288   3.098   8.925
 2262SOL     OW 7117   1.614   3.154   8.737
 2262SOL    HW1 7118   1.674   3.157   8.817
 2262SOL    HW2 7119   1.539   3.218   8.750
 2263SOL     OW 7120   1.039   2.960   8.144
 2263SOL    HW1 7121   0.969   2.913   8.198
 2263SOL    HW2 7122   1.098   2.892   8.101
 2264SOL     OW 7123   1.014   2.098   8.419
 2264SOL    HW1 7124   1.006   2.062   8.326
 2264SOL    HW2 7125   1.012   2.022   8.484
 2265SOL     OW 7126   0.590   3.349   7.939
 2265SOL    HW1 7127   0.632   3.291   7.869
 2265SOL    HW2 7128   0.546   3.428   7.895
 2266SOL     OW 7129   1.709   2.247   8.829
 2266SOL    HW1 7130   1.782   2.316   8.833
 2266SOL    HW2 7131   1.737   2.172   8.770
 2267SOL     OW 7132   0.255   3.210   7.738
 2267SOL    HW1 7133   0.159   3.211   7.711
 2267SOL    HW2 7134   0.267   3.263   7.822
 2268SOL     OW 7135   0.105   2.875   9.174
 2268SOL    HW1 7136   0.028   2.842   9.228
 2268SOL    HW2 7137   0.190   2.845   9.216
 2269SOL     OW 7138   0.672   2.065   8.937
 2269SOL    HW1 7139   0.762   2.049   8.897
 2269SOL    HW2 7140   0.680   2.070   9.036
 2270SOL     OW 7141   0.075   2.207   7.481
 2270SOL    HW1 7142  -0.017   2.179   7.452
 2270SOL    HW2 7143   0.106   2.284   7.425
 2271SOL     OW 7144   1.440   2.718   8.846
 2271SOL    HW1 7145   1.383   2.770   8.783
 2271SOL    HW2 7146   1.536   2.730   8.822
 2272SOL     OW 7147   0.072   2.028   7.766
 2272SOL    HW1 7148   0.055   2.111   7.712
 2272SOL    HW2 7149   0.162   1.991   7.744
 2273SOL     OW 7150   1.183   3.197   7.567
 2273SOL    HW1 7151   1.084   3.186   7.569
 2273SOL    HW2 7152   1.217   3.212   7.660
 2274SOL     OW 7153   0.613   2.704   8.879
 2274SOL    HW1 7154   0.669   2.785   8.862
 2274SOL    HW2 7155   0.672   2.624   8.882
 2275SOL     OW 7156   1.493   3.629   8.407
 2275SOL    HW1 7157   1.526   3.693   8.338
 2275SOL    HW2 7158   1.559   3.623   8.482
 2276SOL     OW 7159   0.716   2.427   9.156
 2276SOL    HW1 7160   0.735   2.492   9.230
 2276SOL    HW2 7161   0.776   2.347   9.165
 2277SOL     OW 7162   1.450   3.082   9.081
 2277SOL    HW1 7163   1.441   3.072   9.180
 2277SOL    HW2 7164   1.546   3.075   9.055
 2278SOL     OW 7165   0.390   3.603   9.008
 2278SOL    HW1 7166   0.299   3.644   9.006
 2278SOL    HW2 7167   0.383   3.509   9.040
 2279SOL     OW 7168   1.674   2.745   8.702
 2279SOL    HW1 7169   1.647   2.656   8.665
 2279SOL    HW2 7170   1.675   2.813   8.629
 2280SOL     OW 7171   1.225   2.187   7.897
 2280SOL    HW1 7172   1.290   2.113   7.886
 2280SOL    HW2 7173   1.245   2.237   7.981
 2281SOL     OW 7174   0.594   2.607   8.100
 2281SOL    HW1 7175   0.644   2.692   8.081
 2281SOL    HW2 7176   0.506   2.609   8.052
 2282SOL     OW 7177   1.777   2.204   9.090
 2282SOL    HW1 7178   1.760   2.235   8.996
 2282SOL    HW2 7179   1.693   2.167   9.128
 2283SOL     OW 7180   1.730   2.796   8.965
 2283SOL    HW1 7181   1.768   2.887   8.980
 2283SOL    HW2 7182   1.722   2.779   8.866
 2284SOL     OW 7183   0.859   3.236   7.464
 2284SOL    HW1 7184   0.813   3.251   7.552
 2284SOL    HW2 7185   0.903   3.321   7.434
 2285SOL     OW 7186   0.661   3.652   8.401
 2285SOL    HW1 7187   0.615   3.740   8.388
 2285SOL    HW2 7188   0.760   3.664   8.394
 2286SOL     OW 7189   0.859   2.818   8.309
 2286SOL    HW1 7190   0.913   2.749   8.357
 2286SOL    HW2 7191   0.827   2.887   8.375
 2287SOL     OW 7192   1.083   2.846   7.535
 2287SOL    HW1 7193   1.060   2.899   7.453
 2287SOL    HW2 7194   1.164   2.790   7.516
 2288SOL     OW 7195   1.861   3.431   8.299
 2288SOL    HW1 7196   1.790   3.419   8.229
 2288SOL    HW2 7197   1.862   3.352   8.359
 2289SOL     OW 7198   0.221   3.176   9.292
 2289SOL    HW1 7199   0.156   3.103   9.271
 2289SOL    HW2 7200   0.225   3.190   9.390
 2290SOL     OW 7201   0.079   3.102   8.101
 2290SOL    HW1 7202   0.078   3.055   8.189
 2290SOL    HW2 7203   0.161   3.074   8.050
 2291SOL     OW 7204   0.672   3.253   9.072
 2291SOL    HW1 7205   0.594   3.203   9.110
 2291SOL    HW2 7206   0.669   3.348   9.103
 2292SOL     OW 7207   1.824   2.054   8.675
 2292SOL    HW1 7208   1.820   1.964   8.719
 2292SOL    HW2 7209   1.827   2.043   8.576
 2293SOL     OW 7210   0.428   2.286   7.968
 2293SOL    HW1 7211   0.458   2.214   7.906
 2293SOL    HW2 7212   0.389   2.246   8.051
 2294SOL     OW 7213   1.705   3.349   8.552
 2294SOL    HW1 7214   1.612   3.324   8.525
 2294SOL    HW2 7215   1.731   3.299   8.634
 2295SOL     OW 7216   0.317   2.409   8.728
 2295SOL    HW1 7217   0.355   2.350   8.800
 2295SOL    HW2 7218   0.357   2.383   8.640
 2296SOL     OW 7219   0.812   3.448   8.135
 2296SOL    HW1 7220   0.844   3.458   8.041
 2296SOL    HW2 7221   0.733   3.386   8.137
 2297SOL     OW 7222   1.424   2.076   8.560
 2297SOL    HW1 7223   1.476   2.011   8.615
 2297SOL    HW2 7224   1.375   2.139   8.621
 2298SOL     OW 7225   1.001   1.896   8.602
 2298SOL    HW1 7226   0.938   1.824   8.571
 2298SOL    HW2 7227   1.094   1.860   8.602
 2299SOL     OW 7228   0.770   3.192   7.749
 2299SOL    HW1 7229   0.724   3.105   7.766
 2299SOL    HW2 7230   0.861   3.189   7.790
 2300SOL     OW 7231   0.618   3.429   8.732
 2300SOL    HW1 7232   0.613   3.511   8.789
 2300SOL    HW2 7233   0.707   3.426   8.687
 2301SOL     OW 7234   1.352   1.914   7.616
 2301SOL    HW1 7235   1.387   1.873   7.532
 2301SOL    HW2 7236   1.262   1.876   7.636
 2302SOL     OW 7237   1.300   2.315   8.139
 2302SOL    HW1 7238   1.241   2.395   8.143
 2302SOL    HW2 7239   1.315   2.280   8.232
 2303SOL     OW 7240   1.593   2.083   8.330
 2303SOL    HW1 7241   1.509   2.082   8.384
 2303SOL    HW2 7242   1.595   2.166   8.274
 2304SOL     OW 7243   0.039   2.939   7.748
 2304SOL    HW1 7244   0.138   2.928   7.739
 2304SOL    HW2 7245  -0.001   2.853   7.780
 2305SOL     OW 7246   0.875   3.508   7.785
 2305SOL    HW1 7247   0.798   3.473   7.731
 2305SOL    HW2 7248   0.843   3.579   7.847
 2306SOL     OW 7249   0.230   2.490   9.423
 2306SOL    HW1 7250   0.137   2.488   9.460
 2306SOL    HW2 7251   0.231   2.451   9.331
 2307SOL     OW 7252   0.225   2.137  10.306
 2307SOL    HW1 7253   0.260   2.120  10.398
 2307SOL    HW2 7254   0.137   2.092  10.294
 2308SOL     OW 7255   0.019   2.230   9.957
 2308SOL    HW1 7256  -0.063   2.273   9.996
 2308SOL    HW2 7257  -0.009   2.157   9.894
 2309SOL     OW 7258   0.569   3.137  10.475
 2309SOL    HW1 7259   0.476   3.130  10.438
 2309SOL    HW2 7260   0.580   3.226  10.519
 2310SOL     OW 7261   1.555   3.373  10.013
 2310SOL    HW1 7262   1.498   3.357  10.094
 2310SOL    HW2 7263   1.496   3.383   9.933
 2311SOL     OW 7264   1.135   2.565  10.027
 2311SOL    HW1 7265   1.192   2.643  10.002
 2311SOL    HW2 7266   1.075   2.591  10.103
 2312SOL     OW 7267   1.755   2.469   9.541
 2312SOL    HW1 7268   1.743   2.456   9.442
 2312SOL    HW2 7269   1.725   2.388   9.590
 2313SOL     OW 7270   0.768   3.006  10.333
 2313SOL    HW1 7271   0.690   3.023  10.393
 2313SOL    HW2 7272   0.802   3.093  10.297
 2314SOL     OW 7273   0.685   2.874   9.975
 2314SOL    HW1 7274   0.754   2.858  10.045
 2314SOL    HW2 7275   0.612   2.931  10.013
 2315SOL     OW 7276   0.335   3.297  10.371
 2315SOL    HW1 7277   0.257   3.266  10.318
 2315SOL    HW2 7278   0.393   3.355  10.314
 2316SOL     OW 7279   1.460   3.367  10.649
 2316SOL    HW1 7280   1.484   3.461  10.675
 2316SOL    HW2 7281   1.444   3.313  10.731
 2317SOL     OW 7282   0.438   2.254  10.809
 2317SOL    HW1 7283   0.520   2.198  10.818
 2317SOL    HW2 7284   0.357   2.196  10.813
 2318SOL     OW 7285   1.603   2.309  10.047
 2318SOL    HW1 7286   1.529   2.355   9.997
 2318SOL    HW2 7287   1.654   2.377  10.100
 2319SOL     OW 7288   0.231   3.575   9.793
 2319SOL    HW1 7289   0.265   3.652   9.847
 2319SOL    HW2 7290   0.275   3.575   9.703
 2320SOL     OW 7291   0.230   3.296   9.848
 2320SOL    HW1 7292   0.204   3.392   9.848
 2320SOL    HW2 7293   0.159   3.242   9.893
 2321SOL     OW 7294   0.240   2.953  10.196
 2321SOL    HW1 7295   0.254   2.869  10.248
 2321SOL    HW2 7296   0.185   3.017  10.251
 2322SOL     OW 7297   0.620   3.648  10.749
 2322SOL    HW1 7298   0.528   3.631  10.784
 2322SOL    HW2 7299   0.648   3.740  10.775
 2323SOL     OW 7300   0.606   2.826   9.433
 2323SOL    HW1 7301   0.613   2.910   9.379
 2323SOL    HW2 7302   0.652   2.839   9.521
 2324SOL     OW 7303   1.594   1.976  10.790
 2324SOL    HW1 7304   1.576   2.043  10.718
 2324SOL    HW2 7305   1.591   2.022  10.879
 2325SOL     OW 7306   0.122   2.505   9.873
 2325SOL    HW1 7307   0.077   2.417   9.890
 2325SOL    HW2 7308   0.121   2.559   9.957
 2326SOL     OW 7309   1.842   3.629   9.669
 2326SOL    HW1 7310   1.896   3.600   9.749
 2326SOL    HW2 7311   1.872   3.719   9.640
 2327SOL     OW 7312   0.027   3.458   9.427
 2327SOL    HW1 7313   0.008   3.362   9.448
 2327SOL    HW2 7314  -0.006   3.516   9.502
 2328SOL     OW 7315   1.689   2.784   9.922
 2328SOL    HW1 7316   1.784   2.755   9.930
 2328SOL    HW2 7317   1.681   2.849   9.847
 2329SOL     OW 7318   1.641   2.970   9.742
 2329SOL    HW1 7319   1.727   2.972   9.690
 2329SOL    HW2 7320   1.655   3.017   9.830
 2330SOL     OW 7321   0.113   2.599  10.907
 2330SOL    HW1 7322   0.201   2.586  10.952
 2330SOL    HW2 7323   0.100   2.696  10.885
 2331SOL     OW 7324   0.613   3.227  10.036
 2331SOL    HW1 7325   0.564   3.140  10.045
 2331SOL    HW2 7326   0.590   3.270   9.949
 2332SOL     OW 7327   1.293   3.090  10.733
 2332SOL    HW1 7328   1.330   3.017  10.675
 2332SOL    HW2 7329   1.345   3.095  10.818
 2333SOL     OW 7330   0.809   1.866   9.812
 2333SOL    HW1 7331   0.849   1.957   9.803
 2333SOL    HW2 7332   0.709   1.874   9.818
 2334SOL     OW 7333   0.197   2.838  10.574
 2334SOL    HW1 7334   0.286   2.793  10.560
 2334SOL    HW2 7335   0.124   2.773  10.555
 2335SOL     OW 7336   1.525   2.861   9.500
 2335SOL    HW1 7337   1.462   2.785   9.513
 2335SOL    HW2 7338   1.573   2.879   9.586
 2336SOL     OW 7339   1.466   3.279  10.263
 2336SOL    HW1 7340   1.407   3.285  10.343
 2336SOL    HW2 7341   1.451   3.191  10.217
 2337SOL     OW 7342   1.667   3.576   9.882
 2337SOL    HW1 7343   1.626   3.553   9.794
 2337SOL    HW2 7344   1.649   3.502   9.947
 2338SOL     OW 7345   0.598   2.591   9.580
 2338SOL    HW1 7346   0.622   2.660   9.512
 2338SOL    HW2 7347   0.520   2.624   9.634
 2339SOL     OW 7348   1.281   2.207  10.254
 2339SOL    HW1 7349   1.195   2.157  10.241
 2339SOL    HW2 7350   1.343   2.153  10.310
 2340SOL     OW 7351   1.576   3.524   9.617
 2340SOL    HW1 7352   1.665   3.570   9.620
 2340SOL    HW2 7353   1.555   3.500   9.522
 2341SOL     OW 7354   0.807   2.467  10.775
 2341SOL    HW1 7355   0.760   2.464  10.864
 2341SOL    HW2 7356   0.756   2.412  10.709
 2342SOL     OW 7357   0.973   2.752  10.882
 2342SOL    HW1 7358   1.019   2.668  10.853
 2342SOL    HW2 7359   0.917   2.786  10.807
 2343SOL     OW 7360   0.991   2.272  10.552
 2343SOL    HW1 7361   0.914   2.306  10.606
 2343SOL    HW2 7362   0.957   2.221  10.473
 2344SOL     OW 7363   1.041   2.563   9.739
 2344SOL    HW1 7364   1.067   2.559   9.835
 2344SOL    HW2 7365   0.956   2.512   9.725
 2345SOL     OW 7366   0.076   2.673  10.099
 2345SOL    HW1 7367   0.175   2.661  10.108
 2345SOL    HW2 7368   0.052   2.768  10.120
 2346SOL     OW 7369   0.130   3.683  10.881
 2346SOL    HW1 7370   0.120   3.668  10.980
 2346SOL    HW2 7371   0.044   3.719  10.845
 2347SOL     OW 7372   0.865   2.210   9.505
 2347SOL    HW1 7373   0.924   2.273   9.456
 2347SOL    HW2 7374   0.884   2.116   9.476
 2348SOL     OW 7375   1.362   3.006   9.855
 2348SOL    HW1 7376   1.445   2.977   9.807
 2348SOL    HW2 7377   1.313   3.073   9.799
 2349SOL     OW 7378   0.550   2.058  10.195
 2349SOL    HW1 7379   0.545   2.053  10.295
 2349SOL    HW2 7380   0.552   2.154  10.166
 2350SOL     OW 7381   1.008   3.318   9.787
 2350SOL    HW1 7382   0.962   3.390   9.735
 2350SOL    HW2 7383   1.004   3.338   9.885
 2351SOL     OW 7384   0.351   3.663  10.163
 2351SOL    HW1 7385   0.401   3.577  10.169
 2351SOL    HW2 7386   0.416   3.740  10.160
 2352SOL     OW 7387   1.795   2.928  10.183
 2352SOL    HW1 7388   1.733   2.913  10.107
 2352SOL    HW2 7389   1.743   2.939  10.268
 2353SOL     OW 7390   1.227   3.412  10.816
 2353SOL    HW1 7391   1.233   3.335  10.880
 2353SOL    HW2 7392   1.175   3.386  10.736
 2354SOL     OW 7393   0.321   2.805   9.552
 2354SOL    HW1 7394   0.403   2.844   9.510
 2354SOL    HW2 7395   0.294   2.723   9.503
 2355SOL     OW 7396   1.458   2.597  10.038
 2355SOL    HW1 7397   1.453   2.532  10.113
 2355SOL    HW2 7398   1.538   2.656  10.051
 2356SOL     OW 7399   1.111   3.638   9.547
 2356SOL    HW1 7400   1.051   3.576   9.597
 2356SOL    HW2 7401   1.142   3.594   9.462
 2357SOL     OW 7402   0.202   2.147  10.808
 2357SOL    HW1 7403   0.122   2.207  10.795
 2357SOL    HW2 7404   0.192   2.098  10.894
 2358SOL     OW 7405   1.632   3.239   9.391
 2358SOL    HW1 7406   1.600   3.333   9.381
 2358SOL    HW2 7407   1.556   3.176   9.379
 2359SOL     OW 7408   0.464   3.605   9.633
 2359SOL    HW1 7409   0.497   3.644   9.719
 2359SOL    HW2 7410   0.540   3.598   9.568
 2360SOL     OW 7411   1.400   1.969   9.736
 2360SOL    HW1 7412   1.376   1.932   9.646
 2360SOL    HW2 7413   1.499   1.985   9.740
 2361SOL     OW 7414   0.249   3.647  10.551
 2361SOL    HW1 7415   0.306   3.582  10.601
 2361SOL    HW2 7416   0.233   3.614  10.458
 2362SOL     OW 7417   0.940   3.560  10.214
 2362SOL    HW1 7418   1.020   3.503  10.235
 2362SOL    HW2 7419   0.891   3.520  10.137
 2363SOL     OW 7420   0.382   2.562   9.790
 2363SOL    HW1 7421   0.427   2.472   9.787
 2363SOL    HW2 7422   0.288   2.551   9.823
 2364SOL     OW 7423   0.614   1.984   9.427
 2364SOL    HW1 7424   0.712   1.962   9.434
 2364SOL    HW2 7425   0.583   1.967   9.334
 2365SOL     OW 7426   0.888   3.376  10.505
 2365SOL    HW1 7427   0.865   3.351  10.411
 2365SOL    HW2 7428   0.949   3.307  10.544
 2366SOL     OW 7429   1.351   2.452  10.743
 2366SOL    HW1 7430   1.379   2.409  10.828
 2366SOL    HW2 7431   1.376   2.548  10.744
 2367SOL     OW 7432   0.803   3.264  10.234
 2367SOL    HW1 7433   0.893   3.278  10.192
 2367SOL    HW2 7434   0.732   3.266  10.163
 2368SOL     OW 7435   0.922   2.365  10.209
 2368SOL    HW1 7436   0.897   2.356  10.113
 2368SOL    HW2 7437   0.970   2.283  10.240
 2369SOL     OW 7438   0.539   1.926   9.822
 2369SOL    HW1 7439   0.458   1.927   9.880
 2369SOL    HW2 7440   0.542   2.009   9.767
 2370SOL     OW 7441   1.434   3.050   9.351
 2370SOL    HW1 7442   1.466   2.974   9.408
 2370SOL    HW2 7443   1.342   3.077   9.381
 2371SOL     OW 7444   0.297   1.897   9.481
 2371SOL    HW1 7445   0.346   1.981   9.460
 2371SOL    HW2 7446   0.359   1.832   9.526
 2372SOL     OW 7447   0.935   2.098   9.790
 2372SOL    HW1 7448   0.887   2.139   9.712
 2372SOL    HW2 7449   1.034   2.096   9.771
 2373SOL     OW 7450   1.076   2.545  10.774
 2373SOL    HW1 7451   0.996   2.484  10.777
 2373SOL    HW2 7452   1.157   2.492  10.750
 2374SOL     OW 7453   1.227   3.432  10.103
 2374SOL    HW1 7454   1.248   3.506  10.038
 2374SOL    HW2 7455   1.295   3.432  10.176
 2375SOL     OW 7456   0.459   3.014  10.051
 2375SOL    HW1 7457   0.388   2.987  10.116
 2375SOL    HW2 7458   0.433   2.986   9.958
 2376SOL     OW 7459   1.271   3.659   9.901
 2376SOL    HW1 7460   1.315   3.723   9.837
 2376SOL    HW2 7461   1.221   3.711   9.971
 2377SOL     OW 7462   1.032   2.411   9.326
 2377SOL    HW1 7463   0.991   2.493   9.287
 2377SOL    HW2 7464   1.096   2.437   9.399
 2378SOL     OW 7465   0.078   2.418  10.696
 2378SOL    HW1 7466   0.170   2.417  10.655
 2378SOL    HW2 7467   0.072   2.492  10.763
 2379SOL     OW 7468   0.561   2.084  10.457
 2379SOL    HW1 7469   0.599   2.000  10.494
 2379SOL    HW2 7470   0.473   2.103  10.501
 2380SOL     OW 7471   0.866   2.316   9.952
 2380SOL    HW1 7472   0.834   2.388   9.890
 2380SOL    HW2 7473   0.890   2.235   9.899
 2381SOL     OW 7474   1.017   1.901  10.063
 2381SOL    HW1 7475   0.945   1.906   9.994
 2381SOL    HW2 7476   0.993   1.832  10.132
 2382SOL     OW 7477   1.429   3.035  10.177
 2382SOL    HW1 7478   1.374   2.951  10.170
 2382SOL    HW2 7479   1.455   3.064  10.085
 2383SOL     OW 7480   1.466   2.452  10.302
 2383SOL    HW1 7481   1.436   2.357  10.309
 2383SOL    HW2 7482   1.539   2.468  10.368
 2384SOL     OW 7483   1.857   2.695   9.687
 2384SOL    HW1 7484   1.899   2.631   9.751
 2384SOL    HW2 7485   1.819   2.644   9.609
 2385SOL     OW 7486   0.488   3.247   9.484
 2385SOL    HW1 7487   0.401   3.232   9.531
 2385SOL    HW2 7488   0.471   3.273   9.389
 2386SOL     OW 7489   1.664   3.142   9.967
 2386SOL    HW1 7490   1.763   3.150   9.981
 2386SOL    HW2 7491   1.619   3.226   9.998
 2387SOL     OW 7492   1.390   2.437   9.388
 2387SOL    HW1 7493   1.336   2.416   9.469
 2387SOL    HW2 7494   1.481   2.396   9.397
 2388SOL     OW 7495   0.527   2.118   9.638
 2388SOL    HW1 7496   0.554   2.059   9.563
 2388SOL    HW2 7497   0.527   2.213   9.607
 2389SOL     OW 7498   1.754   3.085  10.898
 2389SOL    HW1 7499   1.845   3.046  10.885
 2389SOL    HW2 7500   1.762   3.181  10.922
 2390SOL     OW 7501   1.064   3.209  10.650
 2390SOL    HW1 7502   0.984   3.186  10.705
 2390SOL    HW2 7503   1.147   3.183  10.699
 2391SOL     OW 7504   1.111   3.057  10.410
 2391SOL    HW1 7505   1.071   3.101  10.491
 2391SOL    HW2 7506   1.070   3.094  10.327
 2392SOL     OW 7507   1.638   2.961  10.389
 2392SOL    HW1 7508   1.643   3.042  10.448
 2392SOL    HW2 7509   1.552   2.963  10.338
 2393SOL     OW 7510   0.915   1.951  10.712
 2393SOL    HW1 7511   0.940   1.931  10.617
 2393SOL    HW2 7512   0.987   2.007  10.754
 2394SOL     OW 7513   0.705   2.912   9.678
 2394SOL    HW1 7514   0.691   2.919   9.777
 2394SOL    HW2 7515   0.789   2.861   9.660
 2395SOL     OW 7516   0.410   2.675  10.561
 2395SOL    HW1 7517   0.496   2.687  10.611
 2395SOL    HW2 7518   0.368   2.588  10.588
 2396SOL     OW 7519   1.274   2.248  10.572
 2396SOL    HW1 7520   1.295   2.322  10.636
 2396SOL    HW2 7521   1.185   2.265  10.529
 2397SOL     OW 7522   0.064   3.426  10.641
 2397SOL    HW1 7523   0.018   3.508  10.607
 2397SOL    HW2 7524   0.162   3.445  10.650
 2398SOL     OW 7525   0.367   2.962   9.811
 2398SOL    HW1 7526   0.360   3.045   9.755
 2398SOL    HW2 7527   0.371   2.882   9.751
 2399SOL     OW 7528   0.566   2.399  10.175
 2399SOL    HW1 7529   0.578   2.465  10.101
 2399SOL    HW2 7530   0.612   2.433  10.258
 2400SOL     OW 7531   1.252   3.210   9.698
 2400SOL    HW1 7532   1.302   3.287   9.738
 2400SOL    HW2 7533   1.157   3.212   9.730
 2401SOL     OW 7534   1.272   3.307  10.452
 2401SOL    HW1 7535   1.319   3.320  10.539
 2401SOL    HW2 7536   1.206   3.233  10.461
 2402SOL     OW 7537   1.582   2.501   9.782
 2402SOL    HW1 7538   1.551   2.562   9.855
 2402SOL    HW2 7539   1.632   2.553   9.713
 2403SOL     OW 7540   0.354   3.372  10.639
 2403SOL    HW1 7541   0.333   3.328  10.552
 2403SOL    HW2 7542   0.451   3.398  10.642
 2404SOL     OW 7543   0.402   2.613  10.908
 2404SOL    HW1 7544   0.470   2.668  10.861
 2404SOL    HW2 7545   0.442   2.525  10.935
 2405SOL     OW 7546   1.587   2.641  10.980
 2405SOL    HW1 7547   1.495   2.679  10.975
 2405SOL    HW2 7548   1.647   2.688  10.915
 2406SOL     OW 7549   0.573   2.732  10.339
 2406SOL    HW1 7550   0.617   2.821  10.330
 2406SOL    HW2 7551   0.510   2.732  10.416
 2407SOL     OW 7552   1.360   2.724  10.355
 2407SOL    HW1 7553   1.285   2.724  10.289
 2407SOL    HW2 7554   1.397   2.632  10.364
 2408SOL     OW 7555   1.209   2.387   9.585
 2408SOL    HW1 7556   1.222   2.303   9.639
 2408SOL    HW2 7557   1.180   2.461   9.645
 2409SOL     OW 7558   0.307   2.075  10.541
 2409SOL    HW1 7559   0.284   2.112  10.631
 2409SOL    HW2 7560   0.277   1.980  10.535
 2410SOL     OW 7561   0.037   3.172  10.592
 2410SOL    HW1 7562   0.090   3.123  10.660
 2410SOL    HW2 7563   0.059   3.270  10.597
 2411SOL     OW 7564   0.732   2.496  10.374
 2411SOL    HW1 7565   0.791   2.470  10.298
 2411SOL    HW2 7566   0.704   2.592  10.363
 2412SOL     OW 7567   0.307   1.925   9.928
 2412SOL    HW1 7568   0.296   2.019   9.961
 2412SOL    HW2 7569   0.302   1.862  10.005
 2413SOL     OW 7570   1.622   2.229   9.684
 2413SOL    HW1 7571   1.624   2.153   9.748
 2413SOL    HW2 7572   1.574   2.306   9.724
 2414SOL     OW 7573   1.023   2.628  10.276
 2414SOL    HW1 7574   1.038   2.649  10.372
 2414SOL    HW2 7575   0.993   2.533  10.267
 2415SOL     OW 7576   1.540   2.136   9.435
 2415SOL    HW1 7577   1.479   2.061   9.458
 2415SOL    HW2 7578   1.562   2.188   9.518
 2416SOL     OW 7579   1.303   2.700   9.352
 2416SOL    HW1 7580   1.337   2.607   9.367
 2416SOL    HW2 7581   1.321   2.727   9.257
 2417SOL     OW 7582   1.068   3.195  10.159
 2417SOL    HW1 7583   1.075   3.111  10.104
 2417SOL    HW2 7584   1.130   3.264  10.123
 2418SOL     OW 7585   0.319   2.672  10.259
 2418SOL    HW1 7586   0.412   2.708  10.264
 2418SOL    HW2 7587   0.313   2.587  10.311
 2419SOL     OW 7588   0.339   2.371  10.316
 2419SOL    HW1 7589   0.287   2.288  10.299
 2419SOL    HW2 7590   0.416   2.376  10.252
 2420SOL     OW 7591   1.160   2.069  10.787
 2420SOL    HW1 7592   1.160   2.133  10.864
 2420SOL    HW2 7593   1.188   2.117  10.704
 2421SOL     OW 7594   0.008   3.188   9.510
 2421SOL    HW1 7595  -0.085   3.209   9.479
 2421SOL    HW2 7596   0.018   3.089   9.523
 2422SOL     OW 7597   0.088   3.663  10.237
 2422SOL    HW1 7598   0.046   3.577  10.210
 2422SOL    HW2 7599   0.182   3.666  10.203
 2423SOL     OW 7600   0.504   3.430  10.220
 2423SOL    HW1 7601   0.570   3.504  10.229
 2423SOL    HW2 7602   0.548   3.351  10.178
 2424SOL     OW 7603   1.002   2.658  10.548
 2424SOL    HW1 7604   1.043   2.626  10.634
 2424SOL    HW2 7605   0.906   2.631  10.545
 2425SOL     OW 7606   0.040   2.406  10.424
 2425SOL    HW1 7607   0.125   2.373  10.383
 2425SOL    HW2 7608   0.053   2.421  10.522
 2426SOL     OW 7609   0.815   2.434   9.635
 2426SOL    HW1 7610   0.822   2.345   9.589
 2426SOL    HW2 7611   0.721   2.468   9.627
 2427SOL     OW 7612   1.657   2.466  10.516
 2427SOL    HW1 7613   1.619   2.397  10.578
 2427SOL    HW2 7614   1.739   2.430  10.472
 2428SOL     OW 7615   0.252   3.426  11.054
 2428SOL    HW1 7616   0.222   3.483  11.130
 2428SOL    HW2 7617   0.245   3.329  11.080
 2429SOL     OW 7618   0.671   2.326  10.579
 2429SOL    HW1 7619   0.637   2.237  10.549
 2429SOL    HW2 7620   0.697   2.380  10.499
 2430SOL     OW 7621   0.930   3.540  10.775
 2430SOL    HW1 7622   0.906   3.522  10.680
 2430SOL    HW2 7623   0.960   3.634  10.785
 2431SOL     OW 7624   0.473   2.362   9.501
 2431SOL    HW1 7625   0.534   2.442   9.505
 2431SOL    HW2 7626   0.378   2.393   9.508
 2432SOL     OW 7627   0.159   2.999  10.776
 2432SOL    HW1 7628   0.181   2.938  10.852
 2432SOL    HW2 7629   0.169   2.950  10.690
 2433SOL     OW 7630   1.347   2.921  10.544
 2433SOL    HW1 7631   1.371   2.858  10.470
 2433SOL    HW2 7632   1.257   2.961  10.526
 2434SOL     OW 7633   1.302   2.717   9.619
 2434SOL    HW1 7634   1.216   2.686   9.661
 2434SOL    HW2 7635   1.298   2.703   9.520
 2435SOL     OW 7636   1.759   3.609  10.464
 2435SOL    HW1 7637   1.820   3.639  10.391
 2435SOL    HW2 7638   1.721   3.520  10.442
 2436SOL     OW 7639   1.252   3.593  10.438
 2436SOL    HW1 7640   1.336   3.598  10.384
 2436SOL    HW2 7641   1.229   3.497  10.456
 2437SOL     OW 7642   0.083   3.120  10.332
 2437SOL    HW1 7643   0.078   3.119  10.432
 2437SOL    HW2 7644   0.000   3.079  10.294
 2438SOL     OW 7645   1.726   1.997   9.833
 2438SOL    HW1 7646   1.799   1.980   9.766
 2438SOL    HW2 7647   1.695   1.910   9.871
 2439SOL     OW 7648   1.388   3.435   9.787
 2439SOL    HW1 7649   1.455   3.447   9.713
 2439SOL    HW2 7650   1.348   3.524   9.810
 2440SOL     OW 7651   1.280   2.789   9.982
 2440SOL    HW1 7652   1.340   2.708   9.984
 2440SOL    HW2 7653   1.320   2.858   9.922
 2441SOL     OW 7654   0.830   3.135  10.732
 2441SOL    HW1 7655   0.825   3.168  10.827
 2441SOL    HW2 7656   0.744   3.154  10.686
 2442SOL     OW 7657   0.672   3.478   9.464
 2442SOL    HW1 7658   0.681   3.488   9.365
 2442SOL    HW2 7659   0.632   3.389   9.485
 2443SOL     OW 7660   1.650   3.582  10.704
 2443SOL    HW1 7661   1.703   3.592  10.620
 2443SOL    HW2 7662   1.623   3.672  10.738
 2444SOL     OW 7663   1.841   2.037  10.273
 2444SOL    HW1 7664   1.880   1.952  10.237
 2444SOL    HW2 7665   1.743   2.039  10.254
 2445SOL     OW 7666   0.263   2.188  10.030
 2445SOL    HW1 7667   0.184   2.239   9.996
 2445SOL    HW2 7668   0.254   2.173  10.128
 2446SOL     OW 7669   1.194   3.474   9.341
 2446SOL    HW1 7670   1.200   3.381   9.378
 2446SOL    HW2 7671   1.135   3.474   9.261
 2447SOL     OW 7672   0.822   2.864  10.682
 2447SOL    HW1 7673   0.862   2.863  10.590
 2447SOL    HW2 7674   0.832   2.956  10.722
 2448SOL     OW 7675   0.916   2.772   9.601
 2448SOL    HW1 7676   0.979   2.810   9.533
 2448SOL    HW2 7677   0.956   2.689   9.640
 2449SOL     OW 7678   1.504   3.469   9.354
 2449SOL    HW1 7679   1.412   3.506   9.361
 2449SOL    HW2 7680   1.542   3.489   9.264
 2450SOL     OW 7681   0.372   3.150  10.800
 2450SOL    HW1 7682   0.359   3.243  10.766
 2450SOL    HW2 7683   0.288   3.098  10.787
 2451SOL     OW 7684   1.614   3.154  10.599
 2451SOL    HW1 7685   1.674   3.157  10.679
 2451SOL    HW2 7686   1.539   3.218  10.612
 2452SOL     OW 7687   1.039   2.960  10.006
 2452SOL    HW1 7688   0.969   2.913  10.060
 2452SOL    HW2 7689   1.098   2.892   9.963
 2453SOL     OW 7690   1.014   2.098  10.281
 2453SOL    HW1 7691   1.006   2.062  10.188
 2453SOL    HW2 7692   1.012   2.022  10.346
 2454SOL     OW 7693   0.590   3.349   9.801
 2454SOL    HW1 7694   0.632   3.291   9.731
 2454SOL    HW2 7695   0.546   3.428   9.757
 2455SOL     OW 7696   1.709   2.247  10.691
 2455SOL    HW1 7697   1.782   2.316  10.695
 2455SOL    HW2 7698   1.737   2.172  10.632
 2456SOL     OW 7699   0.255   3.210   9.600
 2456SOL    HW1 7700   0.159   3.211   9.573
 2456SOL    HW2 7701   0.267   3.263   9.684
 2457SOL     OW 7702   0.105   2.875  11.036
 2457SOL    HW1 7703   0.028   2.842  11.090
 2457SOL    HW2 7704   0.190   2.845  11.078
 2458SOL     OW 7705   0.672   2.065  10.799
 2458SOL    HW1 7706   0.762   2.049  10.759
 2458SOL    HW2 7707   0.680   2.070  10.898
 2459SOL     OW 7708   0.075   2.207   9.343
 2459SOL    HW1 7709  -0.017   2.179   9.314
 2459SOL    HW2 7710   0.106   2.284   9.287
 2460SOL     OW 7711   1.440   2.718  10.708
 2460SOL    HW1 7712   1.383   2.770  10.645
 2460SOL    HW2 7713   1.536   2.730  10.684
 2461SOL     OW 7714   0.072   2.028   9.628
 2461SOL    HW1 7715   0.055   2.111   9.574
 2461SOL    HW2 7716   0.162   1.991   9.606
 2462SOL     OW 7717   1.183   3.197   9.429
 2462SOL    HW1 7718   1.084   3.186   9.431
 2462SOL    HW2 7719   1.217   3.212   9.522
 2463SOL     OW 7720   0.613   2.704  10.741
 2463SOL    HW1 7721   0.669   2.785  10.724
 2463SOL    HW2 7722   0.672   2.624  10.744
 2464SOL     OW 7723   1.493   3.629  10.269
 2464SOL    HW1 7724   1.526   3.693  10.200
 2464SOL    HW2 7725   1.559   3.623  10.344
 2465SOL     OW 7726   0.716   2.427  11.018
 2465SOL    HW1 7727   0.735   2.492  11.092
 2465SOL    HW2 7728   0.776   2.347  11.027
 2466SOL     OW 7729   0.390   3.603  10.870
 2466SOL    HW1 7730   0.299   3.644  10.868
 2466SOL    HW2 7731   0.383   3.509  10.902
 2467SOL     OW 7732   1.674   2.745  10.564
 2467SOL    HW1 7733   1.647   2.656  10.527
 2467SOL    HW2 7734   1.675   2.813  10.491
 2468SOL     OW 7735   1.225   2.187   9.759
 2468SOL    HW1 7736   1.290   2.113   9.748
 2468SOL    HW2 7737   1.245   2.237   9.843
 2469SOL     OW 7738   0.594   2.607   9.962
 2469SOL    HW1 7739   0.644   2.692   9.943
 2469SOL    HW2 7740   0.506   2.609   9.914
 2470SOL     OW 7741   1.777   2.204  10.952
 2470SOL    HW1 7742   1.760   2.235  10.858
 2470SOL    HW2 7743   1.693   2.167  10.990
 2471SOL     OW 7744   1.730   2.796  10.827
 2471SOL    HW1 7745   1.768   2.887  10.842
 2471SOL    HW2 7746   1.722   2.779  10.728
 2472SOL     OW 7747   0.859   3.236   9.326
 2472SOL    HW1 7748   0.813   3.251   9.414
 2472SOL    HW2 7749   0.903   3.321   9.296
 2473SOL     OW 7750   0.661   3.652  10.263
 2473SOL    HW1 7751   0.615   3.740  10.250
 2473SOL    HW2 7752   0.760   3.664  10.256
 2474SOL     OW 7753   0.859   2.818  10.171
 2474SOL    HW1 7754   0.913   2.749  10.219
 2474SOL    HW2 7755   0.827   2.887  10.237
 2475SOL     OW 7756   1.083   2.846   9.397
 2475SOL    HW1 7757   1.060   2.899   9.315
 2475SOL    HW2 7758   1.164   2.790   9.378
 2476SOL     OW 7759   1.861   3.431  10.161
 2476SOL    HW1 7760   1.790   3.419  10.091
 2476SOL    HW2 7761   1.862   3.352  10.221
 2477SOL     OW 7762   0.079   3.102   9.963
 2477SOL    HW1 7763   0.078   3.055  10.051
 2477SOL    HW2 7764   0.161   3.074   9.912
 2478SOL     OW 7765   0.672   3.253  10.934
 2478SOL    HW1 7766   0.594   3.203  10.972
 2478SOL    HW2 7767   0.669   3.348  10.965
 2479SOL     OW 7768   1.824   2.054  10.537
 2479SOL    HW1 7769   1.820   1.964  10.581
 2479SOL    HW2 7770   1.827   2.043  10.438
 2480SOL     OW 7771   0.428   2.286   9.830
 2480SOL    HW1 7772   0.458   2.214   9.768
 2480SOL    HW2 7773   0.389   2.246   9.913
 2481SOL     OW 7774   1.705   3.349  10.414
 2481SOL    HW1 7775   1.612   3.324  10.387
 2481SOL    HW2 7776   1.731   3.299  10.496
 2482SOL     OW 7777   0.317   2.409  10.590
 2482SOL    HW1 7778   0.355   2.350  10.662
 2482SOL    HW2 7779   0.357   2.383  10.502
 2483SOL     OW 7780   0.812   3.448   9.997
 2483SOL    HW1 7781   0.844   3.458   9.903
 2483SOL    HW2 7782   0.733   3.386   9.999
 2484SOL     OW 7783   1.424   2.076  10.422
 2484SOL    HW1 7784   1.476   2.011  10.477
 2484SOL    HW2 7785   1.375   2.139  10.483
 2485SOL     OW 7786   1.001   1.896  10.464
 2485SOL    HW1 7787   0.938   1.824  10.433
 2485SOL    HW2 7788   1.094   1.860  10.464
 2486SOL     OW 7789   0.770   3.192   9.611
 2486SOL    HW1 7790   0.724   3.105   9.628
 2486SOL    HW2 7791   0.861   3.189   9.652
 2487SOL     OW 7792   0.618   3.429  10.594
 2487SOL    HW1 7793   0.613   3.511  10.651
 2487SOL    HW2 7794   0.707   3.426  10.549
 2488SOL     OW 7795   1.352   1.914   9.478
 2488SOL    HW1 7796   1.387   1.873   9.394
 2488SOL    HW2 7797   1.262   1.876   9.498
 2489SOL     OW 7798   1.300   2.315  10.001
 2489SOL    HW1 7799   1.241   2.395  10.005
 2489SOL    HW2 7800   1.315   2.280  10.094
 2490SOL     OW 7801   1.593   2.083  10.192
 2490SOL    HW1 7802   1.509   2.082  10.246
 2490SOL    HW2 7803   1.595   2.166  10.136
 2491SOL     OW 7804   0.039   2.939   9.610
 2491SOL    HW1 7805   0.138   2.928   9.601
 2491SOL    HW2 7806  -0.001   2.853   9.642
 2492SOL     OW 7807   0.875   3.508   9.647
 2492SOL    HW1 7808   0.798   3.473   9.593
 2492SOL    HW2 7809   0.843   3.579   9.709
 2493SOL     OW 7810   0.230   4.352   0.113
 2493SOL    HW1 7811   0.137   4.350   0.150
 2493SOL    HW2 7812   0.231   4.313   0.021
 2494SOL     OW 7813   0.225   3.999   0.996
 2494SOL    HW1 7814   0.260   3.982   1.088
 2494SOL    HW2 7815   0.137   3.954   0.984
 2495SOL     OW 7816   0.019   4.092   0.647
 2495SOL    HW1 7817  -0.063   4.135   0.686
 2495SOL    HW2 7818  -0.009   4.019   0.584
 2496SOL     OW 7819   1.755   4.331   0.231
 2496SOL    HW1 7820   1.743   4.318   0.132
 2496SOL    HW2 7821   1.725   4.250   0.280
 2497SOL     OW 7822   0.685   4.736   0.665
 2497SOL    HW1 7823   0.754   4.720   0.735
 2497SOL    HW2 7824   0.612   4.793   0.703
 2498SOL     OW 7825   0.438   4.116   1.499
 2498SOL    HW1 7826   0.520   4.060   1.508
 2498SOL    HW2 7827   0.357   4.058   1.503
 2499SOL     OW 7828   1.603   4.171   0.737
 2499SOL    HW1 7829   1.529   4.217   0.687
 2499SOL    HW2 7830   1.654   4.239   0.790
 2500SOL     OW 7831   1.594   3.838   1.480
 2500SOL    HW1 7832   1.576   3.905   1.408
 2500SOL    HW2 7833   1.591   3.884   1.569
 2501SOL     OW 7834   0.122   4.367   0.563
 2501SOL    HW1 7835   0.077   4.279   0.580
 2501SOL    HW2 7836   0.121   4.421   0.647
 2502SOL     OW 7837   0.113   4.461   1.597
 2502SOL    HW1 7838   0.201   4.448   1.642
 2502SOL    HW2 7839   0.100   4.558   1.575
 2503SOL     OW 7840   0.809   3.728   0.502
 2503SOL    HW1 7841   0.849   3.819   0.493
 2503SOL    HW2 7842   0.709   3.736   0.508
 2504SOL     OW 7843   0.317   3.975   1.801
 2504SOL    HW1 7844   0.388   4.046   1.807
 2504SOL    HW2 7845   0.229   4.014   1.829
 2505SOL     OW 7846   1.281   4.069   0.944
 2505SOL    HW1 7847   1.195   4.019   0.931
 2505SOL    HW2 7848   1.343   4.015   1.000
 2506SOL     OW 7849   0.807   4.329   1.465
 2506SOL    HW1 7850   0.760   4.326   1.554
 2506SOL    HW2 7851   0.756   4.274   1.399
 2507SOL     OW 7852   1.394   4.193   1.674
 2507SOL    HW1 7853   1.374   4.236   1.762
 2507SOL    HW2 7854   1.472   4.131   1.683
 2508SOL     OW 7855   0.991   4.134   1.242
 2508SOL    HW1 7856   0.914   4.168   1.296
 2508SOL    HW2 7857   0.957   4.083   1.163
 2509SOL     OW 7858   1.041   4.425   0.429
 2509SOL    HW1 7859   1.067   4.421   0.525
 2509SOL    HW2 7860   0.956   4.374   0.415
 2510SOL     OW 7861   0.076   4.535   0.789
 2510SOL    HW1 7862   0.175   4.523   0.798
 2510SOL    HW2 7863   0.052   4.630   0.810
 2511SOL     OW 7864   0.865   4.072   0.195
 2511SOL    HW1 7865   0.924   4.135   0.146
 2511SOL    HW2 7866   0.884   3.978   0.166
 2512SOL     OW 7867   1.719   4.309   1.831
 2512SOL    HW1 7868   1.693   4.398   1.795
 2512SOL    HW2 7869   1.717   4.241   1.758
 2513SOL     OW 7870   0.550   3.920   0.885
 2513SOL    HW1 7871   0.545   3.915   0.985
 2513SOL    HW2 7872   0.552   4.016   0.856
 2514SOL     OW 7873   1.458   4.459   0.728
 2514SOL    HW1 7874   1.453   4.394   0.803
 2514SOL    HW2 7875   1.538   4.518   0.741
 2515SOL     OW 7876   0.202   4.009   1.498
 2515SOL    HW1 7877   0.122   4.069   1.485
 2515SOL    HW2 7878   0.192   3.960   1.584
 2516SOL     OW 7879   1.400   3.831   0.426
 2516SOL    HW1 7880   1.376   3.794   0.336
 2516SOL    HW2 7881   1.499   3.847   0.430
 2517SOL     OW 7882   0.382   4.424   0.480
 2517SOL    HW1 7883   0.427   4.334   0.477
 2517SOL    HW2 7884   0.288   4.413   0.513
 2518SOL     OW 7885   1.547   3.946   1.729
 2518SOL    HW1 7886   1.542   3.983   1.821
 2518SOL    HW2 7887   1.475   3.877   1.717
 2519SOL     OW 7888   0.614   3.846   0.117
 2519SOL    HW1 7889   0.712   3.824   0.124
 2519SOL    HW2 7890   0.583   3.829   0.024
 2520SOL     OW 7891   0.781   3.988   1.749
 2520SOL    HW1 7892   0.848   3.927   1.792
 2520SOL    HW2 7893   0.708   4.007   1.814
 2521SOL     OW 7894   1.351   4.314   1.433
 2521SOL    HW1 7895   1.379   4.271   1.518
 2521SOL    HW2 7896   1.376   4.410   1.434
 2522SOL     OW 7897   0.922   4.227   0.899
 2522SOL    HW1 7898   0.897   4.218   0.803
 2522SOL    HW2 7899   0.970   4.145   0.930
 2523SOL     OW 7900   0.539   3.788   0.512
 2523SOL    HW1 7901   0.458   3.789   0.570
 2523SOL    HW2 7902   0.542   3.871   0.457
 2524SOL     OW 7903   0.297   3.759   0.171
 2524SOL    HW1 7904   0.346   3.843   0.150
 2524SOL    HW2 7905   0.359   3.694   0.216
 2525SOL     OW 7906   0.935   3.960   0.480
 2525SOL    HW1 7907   0.887   4.001   0.402
 2525SOL    HW2 7908   1.034   3.958   0.461
 2526SOL     OW 7909   1.076   4.407   1.464
 2526SOL    HW1 7910   0.996   4.346   1.467
 2526SOL    HW2 7911   1.157   4.354   1.440
 2527SOL     OW 7912   1.032   4.273   0.016
 2527SOL    HW1 7913   0.991   4.355  -0.023
 2527SOL    HW2 7914   1.096   4.299   0.089
 2528SOL     OW 7915   0.078   4.280   1.386
 2528SOL    HW1 7916   0.170   4.279   1.345
 2528SOL    HW2 7917   0.072   4.354   1.453
 2529SOL     OW 7918   0.561   3.946   1.147
 2529SOL    HW1 7919   0.599   3.862   1.184
 2529SOL    HW2 7920   0.473   3.965   1.191
 2530SOL     OW 7921   0.866   4.178   0.642
 2530SOL    HW1 7922   0.834   4.250   0.580
 2530SOL    HW2 7923   0.890   4.097   0.589
 2531SOL     OW 7924   1.017   3.763   0.753
 2531SOL    HW1 7925   0.945   3.768   0.684
 2531SOL    HW2 7926   0.993   3.694   0.822
 2532SOL     OW 7927   1.466   4.314   0.992
 2532SOL    HW1 7928   1.436   4.219   0.999
 2532SOL    HW2 7929   1.539   4.330   1.058
 2533SOL     OW 7930   1.390   4.299   0.078
 2533SOL    HW1 7931   1.336   4.278   0.159
 2533SOL    HW2 7932   1.481   4.258   0.087
 2534SOL     OW 7933   0.527   3.980   0.328
 2534SOL    HW1 7934   0.554   3.921   0.253
 2534SOL    HW2 7935   0.527   4.075   0.297
 2535SOL     OW 7936   0.915   3.813   1.402
 2535SOL    HW1 7937   0.940   3.793   1.307
 2535SOL    HW2 7938   0.987   3.869   1.444
 2536SOL     OW 7939   0.410   4.537   1.251
 2536SOL    HW1 7940   0.496   4.549   1.301
 2536SOL    HW2 7941   0.368   4.450   1.278
 2537SOL     OW 7942   1.274   4.110   1.262
 2537SOL    HW1 7943   1.295   4.184   1.326
 2537SOL    HW2 7944   1.185   4.127   1.219
 2538SOL     OW 7945   0.566   4.261   0.865
 2538SOL    HW1 7946   0.578   4.327   0.791
 2538SOL    HW2 7947   0.612   4.295   0.948
 2539SOL     OW 7948   1.582   4.363   0.472
 2539SOL    HW1 7949   1.551   4.424   0.545
 2539SOL    HW2 7950   1.632   4.415   0.403
 2540SOL     OW 7951   1.013   3.829   1.770
 2540SOL    HW1 7952   1.019   3.914   1.718
 2540SOL    HW2 7953   1.045   3.753   1.713
 2541SOL     OW 7954   0.504   3.774   1.740
 2541SOL    HW1 7955   0.462   3.717   1.670
 2541SOL    HW2 7956   0.438   3.843   1.772
 2542SOL     OW 7957   1.209   4.249   0.275
 2542SOL    HW1 7958   1.222   4.165   0.329
 2542SOL    HW2 7959   1.180   4.323   0.335
 2543SOL     OW 7960   0.307   3.937   1.231
 2543SOL    HW1 7961   0.284   3.974   1.321
 2543SOL    HW2 7962   0.277   3.842   1.225
 2544SOL     OW 7963   0.732   4.358   1.064
 2544SOL    HW1 7964   0.791   4.332   0.988
 2544SOL    HW2 7965   0.704   4.454   1.053
 2545SOL     OW 7966   1.728   4.659   1.854
 2545SOL    HW1 7967   1.682   4.652   1.765
 2545SOL    HW2 7968   1.666   4.703   1.920
 2546SOL     OW 7969   0.307   3.787   0.618
 2546SOL    HW1 7970   0.296   3.881   0.651
 2546SOL    HW2 7971   0.302   3.724   0.695
 2547SOL     OW 7972   1.622   4.091   0.374
 2547SOL    HW1 7973   1.624   4.015   0.438
 2547SOL    HW2 7974   1.574   4.168   0.414
 2548SOL     OW 7975   1.540   3.998   0.125
 2548SOL    HW1 7976   1.479   3.923   0.148
 2548SOL    HW2 7977   1.562   4.050   0.208
 2549SOL     OW 7978   0.319   4.534   0.949
 2549SOL    HW1 7979   0.412   4.570   0.954
 2549SOL    HW2 7980   0.313   4.449   1.001
 2550SOL     OW 7981   0.339   4.233   1.006
 2550SOL    HW1 7982   0.287   4.150   0.989
 2550SOL    HW2 7983   0.416   4.238   0.942
 2551SOL     OW 7984   1.138   4.104   1.678
 2551SOL    HW1 7985   1.093   4.167   1.742
 2551SOL    HW2 7986   1.231   4.135   1.661
 2552SOL     OW 7987   1.160   3.931   1.477
 2552SOL    HW1 7988   1.160   3.995   1.554
 2552SOL    HW2 7989   1.188   3.979   1.394
 2553SOL     OW 7990   0.040   4.268   1.114
 2553SOL    HW1 7991   0.125   4.235   1.073
 2553SOL    HW2 7992   0.053   4.283   1.212
 2554SOL     OW 7993   0.189   4.244   1.722
 2554SOL    HW1 7994   0.248   4.204   1.652
 2554SOL    HW2 7995   0.131   4.315   1.681
 2555SOL     OW 7996   0.815   4.296   0.325
 2555SOL    HW1 7997   0.822   4.207   0.279
 2555SOL    HW2 7998   0.721   4.330   0.317
 2556SOL     OW 7999   1.657   4.328   1.206
 2556SOL    HW1 8000   1.619   4.259   1.268
 2556SOL    HW2 8001   1.739   4.292   1.162
 2557SOL     OW 8002   0.671   4.188   1.269
 2557SOL    HW1 8003   0.637   4.099   1.239
 2557SOL    HW2 8004   0.697   4.242   1.189
 2558SOL     OW 8005   0.473   4.224   0.191
 2558SOL    HW1 8006   0.534   4.304   0.195
 2558SOL    HW2 8007   0.378   4.255   0.198
 2559SOL     OW 8008   0.903   3.810   0.133
 2559SOL    HW1 8009   0.954   3.811   0.047
 2559SOL    HW2 8010   0.959   3.768   0.204
 2560SOL     OW 8011   1.726   3.859   0.523
 2560SOL    HW1 8012   1.799   3.842   0.456
 2560SOL    HW2 8013   1.695   3.772   0.561
 2561SOL     OW 8014   1.280   4.651   0.672
 2561SOL    HW1 8015   1.340   4.570   0.674
 2561SOL    HW2 8016   1.320   4.720   0.612
 2562SOL     OW 8017   1.841   3.899   0.963
 2562SOL    HW1 8018   1.880   3.814   0.927
 2562SOL    HW2 8019   1.743   3.901   0.944
 2563SOL     OW 8020   0.263   4.050   0.720
 2563SOL    HW1 8021   0.184   4.101   0.686
 2563SOL    HW2 8022   0.254   4.035   0.818
 2564SOL     OW 8023   1.039   4.822   0.696
 2564SOL    HW1 8024   0.969   4.775   0.750
 2564SOL    HW2 8025   1.098   4.754   0.653
 2565SOL     OW 8026   1.014   3.960   0.971
 2565SOL    HW1 8027   1.006   3.924   0.878
 2565SOL    HW2 8028   1.012   3.884   1.036
 2566SOL     OW 8029   1.709   4.109   1.381
 2566SOL    HW1 8030   1.782   4.178   1.385
 2566SOL    HW2 8031   1.737   4.034   1.322
 2567SOL     OW 8032   0.672   3.927   1.489
 2567SOL    HW1 8033   0.762   3.911   1.449
 2567SOL    HW2 8034   0.680   3.932   1.588
 2568SOL     OW 8035   0.075   4.069   0.033
 2568SOL    HW1 8036  -0.017   4.041   0.004
 2568SOL    HW2 8037   0.106   4.146  -0.023
 2569SOL     OW 8038   0.072   3.890   0.318
 2569SOL    HW1 8039   0.055   3.973   0.264
 2569SOL    HW2 8040   0.162   3.853   0.296
 2570SOL     OW 8041   0.716   4.289   1.708
 2570SOL    HW1 8042   0.735   4.354   1.782
 2570SOL    HW2 8043   0.776   4.209   1.717
 2571SOL     OW 8044   1.225   4.049   0.449
 2571SOL    HW1 8045   1.290   3.975   0.438
 2571SOL    HW2 8046   1.245   4.099   0.533
 2572SOL     OW 8047   1.777   4.066   1.642
 2572SOL    HW1 8048   1.760   4.097   1.548
 2572SOL    HW2 8049   1.693   4.029   1.680
 2573SOL     OW 8050   1.083   4.708   0.087
 2573SOL    HW1 8051   1.060   4.761   0.005
 2573SOL    HW2 8052   1.164   4.652   0.068
 2574SOL     OW 8053   1.824   3.916   1.227
 2574SOL    HW1 8054   1.820   3.826   1.271
 2574SOL    HW2 8055   1.827   3.905   1.128
 2575SOL     OW 8056   0.428   4.148   0.520
 2575SOL    HW1 8057   0.458   4.076   0.458
 2575SOL    HW2 8058   0.389   4.108   0.603
 2576SOL     OW 8059   0.317   4.271   1.280
 2576SOL    HW1 8060   0.355   4.212   1.352
 2576SOL    HW2 8061   0.357   4.245   1.192
 2577SOL     OW 8062   1.424   3.938   1.112
 2577SOL    HW1 8063   1.476   3.873   1.167
 2577SOL    HW2 8064   1.375   4.001   1.173
 2578SOL     OW 8065   1.001   3.758   1.154
 2578SOL    HW1 8066   0.938   3.686   1.123
 2578SOL    HW2 8067   1.094   3.722   1.154
 2579SOL     OW 8068   1.352   3.776   0.168
 2579SOL    HW1 8069   1.387   3.735   0.084
 2579SOL    HW2 8070   1.262   3.738   0.188
 2580SOL     OW 8071   1.300   4.177   0.691
 2580SOL    HW1 8072   1.241   4.257   0.695
 2580SOL    HW2 8073   1.315   4.142   0.784
 2581SOL     OW 8074   1.593   3.945   0.882
 2581SOL    HW1 8075   1.509   3.944   0.936
 2581SOL    HW2 8076   1.595   4.028   0.826
 2582SOL     OW 8077   0.230   4.352   1.975
 2582SOL    HW1 8078   0.137   4.350   2.012
 2582SOL    HW2 8079   0.231   4.313   1.883
 2583SOL     OW 8080   0.225   3.999   2.858
 2583SOL    HW1 8081   0.260   3.982   2.950
 2583SOL    HW2 8082   0.137   3.954   2.846
 2584SOL     OW 8083   0.019   4.092   2.509
 2584SOL    HW1 8084  -0.063   4.135   2.548
 2584SOL    HW2 8085  -0.009   4.019   2.446
 2585SOL     OW 8086   1.755   4.331   2.093
 2585SOL    HW1 8087   1.743   4.318   1.994
 2585SOL    HW2 8088   1.725   4.250   2.142
 2586SOL     OW 8089   0.685   4.736   2.527
 2586SOL    HW1 8090   0.754   4.720   2.597
 2586SOL    HW2 8091   0.612   4.793   2.565
 2587SOL     OW 8092   0.438   4.116   3.361
 2587SOL    HW1 8093   0.520   4.060   3.370
 2587SOL    HW2 8094   0.357   4.058   3.365
 2588SOL     OW 8095   1.603   4.171   2.599
 2588SOL    HW1 8096   1.529   4.217   2.549
 2588SOL    HW2 8097   1.654   4.239   2.652
 2589SOL     OW 8098   1.594   3.838   3.342
 2589SOL    HW1 8099   1.576   3.905   3.270
 2589SOL    HW2 8100   1.591   3.884   3.431
 2590SOL     OW 8101   0.122   4.367   2.425
 2590SOL    HW1 8102   0.077   4.279   2.442
 2590SOL    HW2 8103   0.121   4.421   2.509
 2591SOL     OW 8104   0.113   4.461   3.459
 2591SOL    HW1 8105   0.201   4.448   3.504
 2591SOL    HW2 8106   0.100   4.558   3.437
 2592SOL     OW 8107   0.809   3.728   2.364
 2592SOL    HW1 8108   0.849   3.819   2.355
 2592SOL    HW2 8109   0.709   3.736   2.370
 2593SOL     OW 8110   0.317   3.975   3.663
 2593SOL    HW1 8111   0.388   4.046   3.669
 2593SOL    HW2 8112   0.229   4.014   3.691
 2594SOL     OW 8113   1.281   4.069   2.806
 2594SOL    HW1 8114   1.195   4.019   2.793
 2594SOL    HW2 8115   1.343   4.015   2.862
 2595SOL     OW 8116   0.807   4.329   3.327
 2595SOL    HW1 8117   0.760   4.326   3.416
 2595SOL    HW2 8118   0.756   4.274   3.261
 2596SOL     OW 8119   1.394   4.193   3.536
 2596SOL    HW1 8120   1.374   4.236   3.624
 2596SOL    HW2 8121   1.472   4.131   3.545
 2597SOL     OW 8122   0.991   4.134   3.104
 2597SOL    HW1 8123   0.914   4.168   3.158
 2597SOL    HW2 8124   0.957   4.083   3.025
 2598SOL     OW 8125   1.041   4.425   2.291
 2598SOL    HW1 8126   1.067   4.421   2.387
 2598SOL    HW2 8127   0.956   4.374   2.277
 2599SOL     OW 8128   0.076   4.535   2.651
 2599SOL    HW1 8129   0.175   4.523   2.660
 2599SOL    HW2 8130   0.052   4.630   2.672
 2600SOL     OW 8131   0.865   4.072   2.057
 2600SOL    HW1 8132   0.924   4.135   2.008
 2600SOL    HW2 8133   0.884   3.978   2.028
 2601SOL     OW 8134   1.719   4.309   3.693
 2601SOL    HW1 8135   1.693   4.398   3.657
 2601SOL    HW2 8136   1.717   4.241   3.620
 2602SOL     OW 8137   0.550   3.920   2.747
 2602SOL    HW1 8138   0.545   3.915   2.847
 2602SOL    HW2 8139   0.552   4.016   2.718
 2603SOL     OW 8140   1.458   4.459   2.590
 2603SOL    HW1 8141   1.453   4.394   2.665
 2603SOL    HW2 8142   1.538   4.518   2.603
 2604SOL     OW 8143   0.202   4.009   3.360
 2604SOL    HW1 8144   0.122   4.069   3.347
 2604SOL    HW2 8145   0.192   3.960   3.446
 2605SOL     OW 8146   1.400   3.831   2.288
 2605SOL    HW1 8147   1.376   3.794   2.198
 2605SOL    HW2 8148   1.499   3.847   2.292
 2606SOL     OW 8149   0.382   4.424   2.342
 2606SOL    HW1 8150   0.427   4.334   2.339
 2606SOL    HW2 8151   0.288   4.413   2.375
 2607SOL     OW 8152   1.547   3.946   3.591
 2607SOL    HW1 8153   1.542   3.983   3.683
 2607SOL    HW2 8154   1.475   3.877   3.579
 2608SOL     OW 8155   0.614   3.846   1.979
 2608SOL    HW1 8156   0.712   3.824   1.986
 2608SOL    HW2 8157   0.583   3.829   1.886
 2609SOL     OW 8158   0.781   3.988   3.611
 2609SOL    HW1 8159   0.848   3.927   3.654
 2609SOL    HW2 8160   0.708   4.007   3.676
 2610SOL     OW 8161   1.351   4.314   3.295
 2610SOL    HW1 8162   1.379   4.271   3.380
 2610SOL    HW2 8163   1.376   4.410   3.296
 2611SOL     OW 8164   0.922   4.227   2.761
 2611SOL    HW1 8165   0.897   4.218   2.665
 2611SOL    HW2 8166   0.970   4.145   2.792
 2612SOL     OW 8167   0.539   3.788   2.374
 2612SOL    HW1 8168   0.458   3.789   2.432
 2612SOL    HW2 8169   0.542   3.871   2.319
 2613SOL     OW 8170   0.297   3.759   2.033
 2613SOL    HW1 8171   0.346   3.843   2.012
 2613SOL    HW2 8172   0.359   3.694   2.078
 2614SOL     OW 8173   0.935   3.960   2.342
 2614SOL    HW1 8174   0.887   4.001   2.264
 2614SOL    HW2 8175   1.034   3.958   2.323
 2615SOL     OW 8176   1.076   4.407   3.326
 2615SOL    HW1 8177   0.996   4.346   3.329
 2615SOL    HW2 8178   1.157   4.354   3.302
 2616SOL     OW 8179   1.032   4.273   1.878
 2616SOL    HW1 8180   0.991   4.355   1.839
 2616SOL    HW2 8181   1.096   4.299   1.951
 2617SOL     OW 8182   0.078   4.280   3.248
 2617SOL    HW1 8183   0.170   4.279   3.207
 2617SOL    HW2 8184   0.072   4.354   3.315
 2618SOL     OW 8185   0.561   3.946   3.009
 2618SOL    HW1 8186   0.599   3.862   3.046
 2618SOL    HW2 8187   0.473   3.965   3.053
 2619SOL     OW 8188   0.866   4.178   2.504
 2619SOL    HW1 8189   0.834   4.250   2.442
 2619SOL    HW2 8190   0.890   4.097   2.451
 2620SOL     OW 8191   1.017   3.763   2.615
 2620SOL    HW1 8192   0.945   3.768   2.546
 2620SOL    HW2 8193   0.993   3.694   2.684
 2621SOL     OW 8194   1.466   4.314   2.854
 2621SOL    HW1 8195   1.436   4.219   2.861
 2621SOL    HW2 8196   1.539   4.330   2.920
 2622SOL     OW 8197   1.390   4.299   1.940
 2622SOL    HW1 8198   1.336   4.278   2.021
 2622SOL    HW2 8199   1.481   4.258   1.949
 2623SOL     OW 8200   0.527   3.980   2.190
 2623SOL    HW1 8201   0.554   3.921   2.115
 2623SOL    HW2 8202   0.527   4.075   2.159
 2624SOL     OW 8203   0.915   3.813   3.264
 2624SOL    HW1 8204   0.940   3.793   3.169
 2624SOL    HW2 8205   0.987   3.869   3.306
 2625SOL     OW 8206   0.410   4.537   3.113
 2625SOL    HW1 8207   0.496   4.549   3.163
 2625SOL    HW2 8208   0.368   4.450   3.140
 2626SOL     OW 8209   1.274   4.110   3.124
 2626SOL    HW1 8210   1.295   4.184   3.188
 2626SOL    HW2 8211   1.185   4.127   3.081
 2627SOL     OW 8212   0.566   4.261   2.727
 2627SOL    HW1 8213   0.578   4.327   2.653
 2627SOL    HW2 8214   0.612   4.295   2.810
 2628SOL     OW 8215   1.582   4.363   2.334
 2628SOL    HW1 8216   1.551   4.424   2.407
 2628SOL    HW2 8217   1.632   4.415   2.265
 2629SOL     OW 8218   1.013   3.829   3.632
 2629SOL    HW1 8219   1.019   3.914   3.580
 2629SOL    HW2 8220   1.045   3.753   3.575
 2630SOL     OW 8221   0.504   3.774   3.602
 2630SOL    HW1 8222   0.462   3.717   3.532
 2630SOL    HW2 8223   0.438   3.843   3.634
 2631SOL     OW 8224   1.209   4.249   2.137
 2631SOL    HW1 8225   1.222   4.165   2.191
 2631SOL    HW2 8226   1.180   4.323   2.197
 2632SOL     OW 8227   0.307   3.937   3.093
 2632SOL    HW1 8228   0.284   3.974   3.183
 2632SOL    HW2 8229   0.277   3.842   3.087
 2633SOL     OW 8230   0.732   4.358   2.926
 2633SOL    HW1 8231   0.791   4.332   2.850
 2633SOL    HW2 8232   0.704   4.454   2.915
 2634SOL     OW 8233   1.728   4.659   3.716
 2634SOL    HW1 8234   1.682   4.652   3.627
 2634SOL    HW2 8235   1.666   4.703   3.782
 2635SOL     OW 8236   0.307   3.787   2.480
 2635SOL    HW1 8237   0.296   3.881   2.513
 2635SOL    HW2 8238   0.302   3.724   2.557
 2636SOL     OW 8239   1.622   4.091   2.236
 2636SOL    HW1 8240   1.624   4.015   2.300
 2636SOL    HW2 8241   1.574   4.168   2.276
 2637SOL     OW 8242   1.540   3.998   1.987
 2637SOL    HW1 8243   1.479   3.923   2.010
 2637SOL    HW2 8244   1.562   4.050   2.070
 2638SOL     OW 8245   0.319   4.534   2.811
 2638SOL    HW1 8246   0.412   4.570   2.816
 2638SOL    HW2 8247   0.313   4.449   2.863
 2639SOL     OW 8248   0.339   4.233   2.868
 2639SOL    HW1 8249   0.287   4.150   2.851
 2639SOL    HW2 8250   0.416   4.238   2.804
 2640SOL     OW 8251   1.138   4.104   3.540
 2640SOL    HW1 8252   1.093   4.167   3.604
 2640SOL    HW2 8253   1.231   4.135   3.523
 2641SOL     OW 8254   1.160   3.931   3.339
 2641SOL    HW1 8255   1.160   3.995   3.416
 2641SOL    HW2 8256   1.188   3.979   3.256
 2642SOL     OW 8257   0.040   4.268   2.976
 2642SOL    HW1 8258   0.125   4.235   2.935
 2642SOL    HW2 8259   0.053   4.283   3.074
 2643SOL     OW 8260   0.189   4.244   3.584
 2643SOL    HW1 8261   0.248   4.204   3.514
 2643SOL    HW2 8262   0.131   4.315   3.543
 2644SOL     OW 8263   0.815   4.296   2.187
 2644SOL    HW1 8264   0.822   4.207   2.141
 2644SOL    HW2 8265   0.721   4.330   2.179
 2645SOL     OW 8266   1.657   4.328   3.068
 2645SOL    HW1 8267   1.619   4.259   3.130
 2645SOL    HW2 8268   1.739   4.292   3.024
 2646SOL     OW 8269   0.671   4.188   3.131
 2646SOL    HW1 8270   0.637   4.099   3.101
 2646SOL    HW2 8271   0.697   4.242   3.051
 2647SOL     OW 8272   0.473   4.224   2.053
 2647SOL    HW1 8273   0.534   4.304   2.057
 2647SOL    HW2 8274   0.378   4.255   2.060
 2648SOL     OW 8275   1.726   3.859   2.385
 2648SOL    HW1 8276   1.799   3.842   2.318
 2648SOL    HW2 8277   1.695   3.772   2.423
 2649SOL     OW 8278   1.280   4.651   2.534
 2649SOL    HW1 8279   1.340   4.570   2.536
 2649SOL    HW2 8280   1.320   4.720   2.474
 2650SOL     OW 8281   1.841   3.899   2.825
 2650SOL    HW1 8282   1.880   3.814   2.789
 2650SOL    HW2 8283   1.743   3.901   2.806
 2651SOL     OW 8284   0.263   4.050   2.582
 2651SOL    HW1 8285   0.184   4.101   2.548
 2651SOL    HW2 8286   0.254   4.035   2.680
 2652SOL     OW 8287   0.916   4.634   2.153
 2652SOL    HW1 8288   0.979   4.672   2.085
 2652SOL    HW2 8289   0.956   4.551   2.192
 2653SOL     OW 8290   1.039   4.822   2.558
 2653SOL    HW1 8291   0.969   4.775   2.612
 2653SOL    HW2 8292   1.098   4.754   2.515
 2654SOL     OW 8293   1.014   3.960   2.833
 2654SOL    HW1 8294   1.006   3.924   2.740
 2654SOL    HW2 8295   1.012   3.884   2.898
 2655SOL     OW 8296   1.709   4.109   3.243
 2655SOL    HW1 8297   1.782   4.178   3.247
 2655SOL    HW2 8298   1.737   4.034   3.184
 2656SOL     OW 8299   0.672   3.927   3.351
 2656SOL    HW1 8300   0.762   3.911   3.311
 2656SOL    HW2 8301   0.680   3.932   3.450
 2657SOL     OW 8302   0.075   4.069   1.895
 2657SOL    HW1 8303  -0.017   4.041   1.866
 2657SOL    HW2 8304   0.106   4.146   1.839
 2658SOL     OW 8305   0.072   3.890   2.180
 2658SOL    HW1 8306   0.055   3.973   2.126
 2658SOL    HW2 8307   0.162   3.853   2.158
 2659SOL     OW 8308   0.716   4.289   3.570
 2659SOL    HW1 8309   0.735   4.354   3.644
 2659SOL    HW2 8310   0.776   4.209   3.579
 2660SOL     OW 8311   1.225   4.049   2.311
 2660SOL    HW1 8312   1.290   3.975   2.300
 2660SOL    HW2 8313   1.245   4.099   2.395
 2661SOL     OW 8314   1.777   4.066   3.504
 2661SOL    HW1 8315   1.760   4.097   3.410
 2661SOL    HW2 8316   1.693   4.029   3.542
 2662SOL     OW 8317   1.083   4.708   1.949
 2662SOL    HW1 8318   1.060   4.761   1.867
 2662SOL    HW2 8319   1.164   4.652   1.930
 2663SOL     OW 8320   1.824   3.916   3.089
 2663SOL    HW1 8321   1.820   3.826   3.133
 2663SOL    HW2 8322   1.827   3.905   2.990
 2664SOL     OW 8323   0.428   4.148   2.382
 2664SOL    HW1 8324   0.458   4.076   2.320
 2664SOL    HW2 8325   0.389   4.108   2.465
 2665SOL     OW 8326   0.317   4.271   3.142
 2665SOL    HW1 8327   0.355   4.212   3.214
 2665SOL    HW2 8328   0.357   4.245   3.054
 2666SOL     OW 8329   1.424   3.938   2.974
 2666SOL    HW1 8330   1.476   3.873   3.029
 2666SOL    HW2 8331   1.375   4.001   3.035
 2667SOL     OW 8332   1.001   3.758   3.016
 2667SOL    HW1 8333   0.938   3.686   2.985
 2667SOL    HW2 8334   1.094   3.722   3.016
 2668SOL     OW 8335   1.352   3.776   2.030
 2668SOL    HW1 8336   1.387   3.735   1.946
 2668SOL    HW2 8337   1.262   3.738   2.050
 2669SOL     OW 8338   1.300   4.177   2.553
 2669SOL    HW1 8339   1.241   4.257   2.557
 2669SOL    HW2 8340   1.315   4.142   2.646
 2670SOL     OW 8341   1.593   3.945   2.744
 2670SOL    HW1 8342   1.509   3.944   2.798
 2670SOL    HW2 8343   1.595   4.028   2.688
 2671SOL     OW 8344   0.230   4.352   3.837
 2671SOL    HW1 8345   0.137   4.350   3.874
 2671SOL    HW2 8346   0.231   4.313   3.745
 2672SOL     OW 8347   0.225   3.999   4.720
 2672SOL    HW1 8348   0.260   3.982   4.812
 2672SOL    HW2 8349   0.137   3.954   4.708
 2673SOL     OW 8350   0.019   4.092   4.371
 2673SOL    HW1 8351  -0.063   4.135   4.410
 2673SOL    HW2 8352  -0.009   4.019   4.308
 2674SOL     OW 8353   1.755   4.331   3.955
 2674SOL    HW1 8354   1.743   4.318   3.856
 2674SOL    HW2 8355   1.725   4.250   4.004
 2675SOL     OW 8356   0.685   4.736   4.389
 2675SOL    HW1 8357   0.754   4.720   4.459
 2675SOL    HW2 8358   0.612   4.793   4.427
 2676SOL     OW 8359   0.438   4.116   5.223
 2676SOL    HW1 8360   0.520   4.060   5.232
 2676SOL    HW2 8361   0.357   4.058   5.227
 2677SOL     OW 8362   1.603   4.171   4.461
 2677SOL    HW1 8363   1.529   4.217   4.411
 2677SOL    HW2 8364   1.654   4.239   4.514
 2678SOL     OW 8365   1.594   3.838   5.204
 2678SOL    HW1 8366   1.576   3.905   5.132
 2678SOL    HW2 8367   1.591   3.884   5.293
 2679SOL     OW 8368   0.122   4.367   4.287
 2679SOL    HW1 8369   0.077   4.279   4.304
 2679SOL    HW2 8370   0.121   4.421   4.371
 2680SOL     OW 8371   0.113   4.461   5.321
 2680SOL    HW1 8372   0.201   4.448   5.366
 2680SOL    HW2 8373   0.100   4.558   5.299
 2681SOL     OW 8374   0.809   3.728   4.226
 2681SOL    HW1 8375   0.849   3.819   4.217
 2681SOL    HW2 8376   0.709   3.736   4.232
 2682SOL     OW 8377   0.317   3.975   5.525
 2682SOL    HW1 8378   0.388   4.046   5.531
 2682SOL    HW2 8379   0.229   4.014   5.553
 2683SOL     OW 8380   1.281   4.069   4.668
 2683SOL    HW1 8381   1.195   4.019   4.655
 2683SOL    HW2 8382   1.343   4.015   4.724
 2684SOL     OW 8383   0.807   4.329   5.189
 2684SOL    HW1 8384   0.760   4.326   5.278
 2684SOL    HW2 8385   0.756   4.274   5.123
 2685SOL     OW 8386   1.394   4.193   5.398
 2685SOL    HW1 8387   1.374   4.236   5.486
 2685SOL    HW2 8388   1.472   4.131   5.407
 2686SOL     OW 8389   0.991   4.134   4.966
 2686SOL    HW1 8390   0.914   4.168   5.020
 2686SOL    HW2 8391   0.957   4.083   4.887
 2687SOL     OW 8392   1.041   4.425   4.153
 2687SOL    HW1 8393   1.067   4.421   4.249
 2687SOL    HW2 8394   0.956   4.374   4.139
 2688SOL     OW 8395   0.076   4.535   4.513
 2688SOL    HW1 8396   0.175   4.523   4.522
 2688SOL    HW2 8397   0.052   4.630   4.534
 2689SOL     OW 8398   0.865   4.072   3.919
 2689SOL    HW1 8399   0.924   4.135   3.870
 2689SOL    HW2 8400   0.884   3.978   3.890
 2690SOL     OW 8401   1.719   4.309   5.555
 2690SOL    HW1 8402   1.693   4.398   5.519
 2690SOL    HW2 8403   1.717   4.241   5.482
 2691SOL     OW 8404   0.550   3.920   4.609
 2691SOL    HW1 8405   0.545   3.915   4.709
 2691SOL    HW2 8406   0.552   4.016   4.580
 2692SOL     OW 8407   1.458   4.459   4.452
 2692SOL    HW1 8408   1.453   4.394   4.527
 2692SOL    HW2 8409   1.538   4.518   4.465
 2693SOL     OW 8410   0.202   4.009   5.222
 2693SOL    HW1 8411   0.122   4.069   5.209
 2693SOL    HW2 8412   0.192   3.960   5.308
 2694SOL     OW 8413   1.400   3.831   4.150
 2694SOL    HW1 8414   1.376   3.794   4.060
 2694SOL    HW2 8415   1.499   3.847   4.154
 2695SOL     OW 8416   0.382   4.424   4.204
 2695SOL    HW1 8417   0.427   4.334   4.201
 2695SOL    HW2 8418   0.288   4.413   4.237
 2696SOL     OW 8419   1.547   3.946   5.453
 2696SOL    HW1 8420   1.542   3.983   5.545
 2696SOL    HW2 8421   1.475   3.877   5.441
 2697SOL     OW 8422   0.614   3.846   3.841
 2697SOL    HW1 8423   0.712   3.824   3.848
 2697SOL    HW2 8424   0.583   3.829   3.748
 2698SOL     OW 8425   0.781   3.988   5.473
 2698SOL    HW1 8426   0.848   3.927   5.516
 2698SOL    HW2 8427   0.708   4.007   5.538
 2699SOL     OW 8428   1.351   4.314   5.157
 2699SOL    HW1 8429   1.379   4.271   5.242
 2699SOL    HW2 8430   1.376   4.410   5.158
 2700SOL     OW 8431   0.922   4.227   4.623
 2700SOL    HW1 8432   0.897   4.218   4.527
 2700SOL    HW2 8433   0.970   4.145   4.654
 2701SOL     OW 8434   0.539   3.788   4.236
 2701SOL    HW1 8435   0.458   3.789   4.294
 2701SOL    HW2 8436   0.542   3.871   4.181
 2702SOL     OW 8437   0.297   3.759   3.895
 2702SOL    HW1 8438   0.346   3.843   3.874
 2702SOL    HW2 8439   0.359   3.694   3.940
 2703SOL     OW 8440   0.935   3.960   4.204
 2703SOL    HW1 8441   0.887   4.001   4.126
 2703SOL    HW2 8442   1.034   3.958   4.185
 2704SOL     OW 8443   1.076   4.407   5.188
 2704SOL    HW1 8444   0.996   4.346   5.191
 2704SOL    HW2 8445   1.157   4.354   5.164
 2705SOL     OW 8446   1.032   4.273   3.740
 2705SOL    HW1 8447   0.991   4.355   3.701
 2705SOL    HW2 8448   1.096   4.299   3.813
 2706SOL     OW 8449   0.078   4.280   5.110
 2706SOL    HW1 8450   0.170   4.279   5.069
 2706SOL    HW2 8451   0.072   4.354   5.177
 2707SOL     OW 8452   0.561   3.946   4.871
 2707SOL    HW1 8453   0.599   3.862   4.908
 2707SOL    HW2 8454   0.473   3.965   4.915
 2708SOL     OW 8455   0.866   4.178   4.366
 2708SOL    HW1 8456   0.834   4.250   4.304
 2708SOL    HW2 8457   0.890   4.097   4.313
 2709SOL     OW 8458   1.017   3.763   4.477
 2709SOL    HW1 8459   0.945   3.768   4.408
 2709SOL    HW2 8460   0.993   3.694   4.546
 2710SOL     OW 8461   1.466   4.314   4.716
 2710SOL    HW1 8462   1.436   4.219   4.723
 2710SOL    HW2 8463   1.539   4.330   4.782
 2711SOL     OW 8464   1.390   4.299   3.802
 2711SOL    HW1 8465   1.336   4.278   3.883
 2711SOL    HW2 8466   1.481   4.258   3.811
 2712SOL     OW 8467   0.527   3.980   4.052
 2712SOL    HW1 8468   0.554   3.921   3.977
 2712SOL    HW2 8469   0.527   4.075   4.021
 2713SOL     OW 8470   0.915   3.813   5.126
 2713SOL    HW1 8471   0.940   3.793   5.031
 2713SOL    HW2 8472   0.987   3.869   5.168
 2714SOL     OW 8473   0.410   4.537   4.975
 2714SOL    HW1 8474   0.496   4.549   5.025
 2714SOL    HW2 8475   0.368   4.450   5.002
 2715SOL     OW 8476   1.274   4.110   4.986
 2715SOL    HW1 8477   1.295   4.184   5.050
 2715SOL    HW2 8478   1.185   4.127   4.943
 2716SOL     OW 8479   0.566   4.261   4.589
 2716SOL    HW1 8480   0.578   4.327   4.515
 2716SOL    HW2 8481   0.612   4.295   4.672
 2717SOL     OW 8482   1.582   4.363   4.196
 2717SOL    HW1 8483   1.551   4.424   4.269
 2717SOL    HW2 8484   1.632   4.415   4.127
 2718SOL     OW 8485   1.013   3.829   5.494
 2718SOL    HW1 8486   1.019   3.914   5.442
 2718SOL    HW2 8487   1.045   3.753   5.437
 2719SOL     OW 8488   0.504   3.774   5.464
 2719SOL    HW1 8489   0.462   3.717   5.394
 2719SOL    HW2 8490   0.438   3.843   5.496
 2720SOL     OW 8491   1.209   4.249   3.999
 2720SOL    HW1 8492   1.222   4.165   4.053
 2720SOL    HW2 8493   1.180   4.323   4.059
 2721SOL     OW 8494   0.307   3.937   4.955
 2721SOL    HW1 8495   0.284   3.974   5.045
 2721SOL    HW2 8496   0.277   3.842   4.949
 2722SOL     OW 8497   0.732   4.358   4.788
 2722SOL    HW1 8498   0.791   4.332   4.712
 2722SOL    HW2 8499   0.704   4.454   4.777
 2723SOL     OW 8500   1.728   4.659   5.578
 2723SOL    HW1 8501   1.682   4.652   5.489
 2723SOL    HW2 8502   1.666   4.703   5.644
 2724SOL     OW 8503   0.307   3.787   4.342
 2724SOL    HW1 8504   0.296   3.881   4.375
 2724SOL    HW2 8505   0.302   3.724   4.419
 2725SOL     OW 8506   1.622   4.091   4.098
 2725SOL    HW1 8507   1.624   4.015   4.162
 2725SOL    HW2 8508   1.574   4.168   4.138
 2726SOL     OW 8509   1.540   3.998   3.849
 2726SOL    HW1 8510   1.479   3.923   3.872
 2726SOL    HW2 8511   1.562   4.050   3.932
 2727SOL     OW 8512   0.319   4.534   4.673
 2727SOL    HW1 8513   0.412   4.570   4.678
 2727SOL    HW2 8514   0.313   4.449   4.725
 2728SOL     OW 8515   0.339   4.233   4.730
 2728SOL    HW1 8516   0.287   4.150   4.713
 2728SOL    HW2 8517   0.416   4.238   4.666
 2729SOL     OW 8518   1.138   4.104   5.402
 2729SOL    HW1 8519   1.093   4.167   5.466
 2729SOL    HW2 8520   1.231   4.135   5.385
 2730SOL     OW 8521   1.160   3.931   5.201
 2730SOL    HW1 8522   1.160   3.995   5.278
 2730SOL    HW2 8523   1.188   3.979   5.118
 2731SOL     OW 8524   0.040   4.268   4.838
 2731SOL    HW1 8525   0.125   4.235   4.797
 2731SOL    HW2 8526   0.053   4.283   4.936
 2732SOL     OW 8527   0.189   4.244   5.446
 2732SOL    HW1 8528   0.248   4.204   5.376
 2732SOL    HW2 8529   0.131   4.315   5.405
 2733SOL     OW 8530   0.815   4.296   4.049
 2733SOL    HW1 8531   0.822   4.207   4.003
 2733SOL    HW2 8532   0.721   4.330   4.041
 2734SOL     OW 8533   1.657   4.328   4.930
 2734SOL    HW1 8534   1.619   4.259   4.992
 2734SOL    HW2 8535   1.739   4.292   4.886
 2735SOL     OW 8536   0.671   4.188   4.993
 2735SOL    HW1 8537   0.637   4.099   4.963
 2735SOL    HW2 8538   0.697   4.242   4.913
 2736SOL     OW 8539   0.473   4.224   3.915
 2736SOL    HW1 8540   0.534   4.304   3.919
 2736SOL    HW2 8541   0.378   4.255   3.922
 2737SOL     OW 8542   1.726   3.859   4.247
 2737SOL    HW1 8543   1.799   3.842   4.180
 2737SOL    HW2 8544   1.695   3.772   4.285
 2738SOL     OW 8545   1.280   4.651   4.396
 2738SOL    HW1 8546   1.340   4.570   4.398
 2738SOL    HW2 8547   1.320   4.720   4.336
 2739SOL     OW 8548   1.841   3.899   4.687
 2739SOL    HW1 8549   1.880   3.814   4.651
 2739SOL    HW2 8550   1.743   3.901   4.668
 2740SOL     OW 8551   0.263   4.050   4.444
 2740SOL    HW1 8552   0.184   4.101   4.410
 2740SOL    HW2 8553   0.254   4.035   4.542
 2741SOL     OW 8554   0.916   4.634   4.015
 2741SOL    HW1 8555   0.979   4.672   3.947
 2741SOL    HW2 8556   0.956   4.551   4.054
 2742SOL     OW 8557   1.039   4.822   4.420
 2742SOL    HW1 8558   0.969   4.775   4.474
 2742SOL    HW2 8559   1.098   4.754   4.377
 2743SOL     OW 8560   1.014   3.960   4.695
 2743SOL    HW1 8561   1.006   3.924   4.602
 2743SOL    HW2 8562   1.012   3.884   4.760
 2744SOL     OW 8563   1.709   4.109   5.105
 2744SOL    HW1 8564   1.782   4.178   5.109
 2744SOL    HW2 8565   1.737   4.034   5.046
 2745SOL     OW 8566   0.672   3.927   5.213
 2745SOL    HW1 8567   0.762   3.911   5.173
 2745SOL    HW2 8568   0.680   3.932   5.312
 2746SOL     OW 8569   0.075   4.069   3.757
 2746SOL    HW1 8570  -0.017   4.041   3.728
 2746SOL    HW2 8571   0.106   4.146   3.701
 2747SOL     OW 8572   0.072   3.890   4.042
 2747SOL    HW1 8573   0.055   3.973   3.988
 2747SOL    HW2 8574   0.162   3.853   4.020
 2748SOL     OW 8575   0.716   4.289   5.432
 2748SOL    HW1 8576   0.735   4.354   5.506
 2748SOL    HW2 8577   0.776   4.209   5.441
 2749SOL     OW 8578   1.225   4.049   4.173
 2749SOL    HW1 8579   1.290   3.975   4.162
 2749SOL    HW2 8580   1.245   4.099   4.257
 2750SOL     OW 8581   1.777   4.066   5.366
 2750SOL    HW1 8582   1.760   4.097   5.272
 2750SOL    HW2 8583   1.693   4.029   5.404
 2751SOL     OW 8584   1.083   4.708   3.811
 2751SOL    HW1 8585   1.060   4.761   3.729
 2751SOL    HW2 8586   1.164   4.652   3.792
 2752SOL     OW 8587   1.824   3.916   4.951
 2752SOL    HW1 8588   1.820   3.826   4.995
 2752SOL    HW2 8589   1.827   3.905   4.852
 2753SOL     OW 8590   0.428   4.148   4.244
 2753SOL    HW1 8591   0.458   4.076   4.182
 2753SOL    HW2 8592   0.389   4.108   4.327
 2754SOL     OW 8593   0.317   4.271   5.004
 2754SOL    HW1 8594   0.355   4.212   5.076
 2754SOL    HW2 8595   0.357   4.245   4.916
 2755SOL     OW 8596   1.424   3.938   4.836
 2755SOL    HW1 8597   1.476   3.873   4.891
 2755SOL    HW2 8598   1.375   4.001   4.897
 2756SOL     OW 8599   1.001   3.758   4.878
 2756SOL    HW1 8600   0.938   3.686   4.847
 2756SOL    HW2 8601   1.094   3.722   4.878
 2757SOL     OW 8602   1.352   3.776   3.892
 2757SOL    HW1 8603   1.387   3.735   3.808
 2757SOL    HW2 8604   1.262   3.738   3.912
 2758SOL     OW 8605   1.300   4.177   4.415
 2758SOL    HW1 8606   1.241   4.257   4.419
 2758SOL    HW2 8607   1.315   4.142   4.508
 2759SOL     OW 8608   1.593   3.945   4.606
 2759SOL    HW1 8609   1.509   3.944   4.660
 2759SOL    HW2 8610   1.595   4.028   4.550
 2760SOL     OW 8611   0.230   4.352   5.699
 2760SOL    HW1 8612   0.137   4.350   5.736
 2760SOL    HW2 8613   0.231   4.313   5.607
 2761SOL     OW 8614   0.225   3.999   6.582
 2761SOL    HW1 8615   0.260   3.982   6.674
 2761SOL    HW2 8616   0.137   3.954   6.570
 2762SOL     OW 8617   0.019   4.092   6.233
 2762SOL    HW1 8618  -0.063   4.135   6.272
 2762SOL    HW2 8619  -0.009   4.019   6.170
 2763SOL     OW 8620   1.755   4.331   5.817
 2763SOL    HW1 8621   1.743   4.318   5.718
 2763SOL    HW2 8622   1.725   4.250   5.866
 2764SOL     OW 8623   0.685   4.736   6.251
 2764SOL    HW1 8624   0.754   4.720   6.321
 2764SOL    HW2 8625   0.612   4.793   6.289
 2765SOL     OW 8626   0.438   4.116   7.085
 2765SOL    HW1 8627   0.520   4.060   7.094
 2765SOL    HW2 8628   0.357   4.058   7.089
 2766SOL     OW 8629   1.603   4.171   6.323
 2766SOL    HW1 8630   1.529   4.217   6.273
 2766SOL    HW2 8631   1.654   4.239   6.376
 2767SOL     OW 8632   1.594   3.838   7.066
 2767SOL    HW1 8633   1.576   3.905   6.994
 2767SOL    HW2 8634   1.591   3.884   7.155
 2768SOL     OW 8635   0.122   4.367   6.149
 2768SOL    HW1 8636   0.077   4.279   6.166
 2768SOL    HW2 8637   0.121   4.421   6.233
 2769SOL     OW 8638   0.113   4.461   7.183
 2769SOL    HW1 8639   0.201   4.448   7.228
 2769SOL    HW2 8640   0.100   4.558   7.161
 2770SOL     OW 8641   0.809   3.728   6.088
 2770SOL    HW1 8642   0.849   3.819   6.079
 2770SOL    HW2 8643   0.709   3.736   6.094
 2771SOL     OW 8644   0.317   3.975   7.387
 2771SOL    HW1 8645   0.388   4.046   7.393
 2771SOL    HW2 8646   0.229   4.014   7.415
 2772SOL     OW 8647   1.281   4.069   6.530
 2772SOL    HW1 8648   1.195   4.019   6.517
 2772SOL    HW2 8649   1.343   4.015   6.586
 2773SOL     OW 8650   0.807   4.329   7.051
 2773SOL    HW1 8651   0.760   4.326   7.140
 2773SOL    HW2 8652   0.756   4.274   6.985
 2774SOL     OW 8653   1.394   4.193   7.260
 2774SOL    HW1 8654   1.374   4.236   7.348
 2774SOL    HW2 8655   1.472   4.131   7.269
 2775SOL     OW 8656   0.991   4.134   6.828
 2775SOL    HW1 8657   0.914   4.168   6.882
 2775SOL    HW2 8658   0.957   4.083   6.749
 2776SOL     OW 8659   1.041   4.425   6.015
 2776SOL    HW1 8660   1.067   4.421   6.111
 2776SOL    HW2 8661   0.956   4.374   6.001
 2777SOL     OW 8662   0.076   4.535   6.375
 2777SOL    HW1 8663   0.175   4.523   6.384
 2777SOL    HW2 8664   0.052   4.630   6.396
 2778SOL     OW 8665   0.865   4.072   5.781
 2778SOL    HW1 8666   0.924   4.135   5.732
 2778SOL    HW2 8667   0.884   3.978   5.752
 2779SOL     OW 8668   1.719   4.309   7.417
 2779SOL    HW1 8669   1.693   4.398   7.381
 2779SOL    HW2 8670   1.717   4.241   7.344
 2780SOL     OW 8671   0.550   3.920   6.471
 2780SOL    HW1 8672   0.545   3.915   6.571
 2780SOL    HW2 8673   0.552   4.016   6.442
 2781SOL     OW 8674   1.458   4.459   6.314
 2781SOL    HW1 8675   1.453   4.394   6.389
 2781SOL    HW2 8676   1.538   4.518   6.327
 2782SOL     OW 8677   0.202   4.009   7.084
 2782SOL    HW1 8678   0.122   4.069   7.071
 2782SOL    HW2 8679   0.192   3.960   7.170
 2783SOL     OW 8680   1.400   3.831   6.012
 2783SOL    HW1 8681   1.376   3.794   5.922
 2783SOL    HW2 8682   1.499   3.847   6.016
 2784SOL     OW 8683   0.382   4.424   6.066
 2784SOL    HW1 8684   0.427   4.334   6.063
 2784SOL    HW2 8685   0.288   4.413   6.099
 2785SOL     OW 8686   1.547   3.946   7.315
 2785SOL    HW1 8687   1.542   3.983   7.407
 2785SOL    HW2 8688   1.475   3.877   7.303
 2786SOL     OW 8689   0.614   3.846   5.703
 2786SOL    HW1 8690   0.712   3.824   5.710
 2786SOL    HW2 8691   0.583   3.829   5.610
 2787SOL     OW 8692   0.781   3.988   7.335
 2787SOL    HW1 8693   0.848   3.927   7.378
 2787SOL    HW2 8694   0.708   4.007   7.400
 2788SOL     OW 8695   1.351   4.314   7.019
 2788SOL    HW1 8696   1.379   4.271   7.104
 2788SOL    HW2 8697   1.376   4.410   7.020
 2789SOL     OW 8698   0.922   4.227   6.485
 2789SOL    HW1 8699   0.897   4.218   6.389
 2789SOL    HW2 8700   0.970   4.145   6.516
 2790SOL     OW 8701   0.539   3.788   6.098
 2790SOL    HW1 8702   0.458   3.789   6.156
 2790SOL    HW2 8703   0.542   3.871   6.043
 2791SOL     OW 8704   0.297   3.759   5.757
 2791SOL    HW1 8705   0.346   3.843   5.736
 2791SOL    HW2 8706   0.359   3.694   5.802
 2792SOL     OW 8707   0.935   3.960   6.066
 2792SOL    HW1 8708   0.887   4.001   5.988
 2792SOL    HW2 8709   1.034   3.958   6.047
 2793SOL     OW 8710   1.076   4.407   7.050
 2793SOL    HW1 8711   0.996   4.346   7.053
 2793SOL    HW2 8712   1.157   4.354   7.026
 2794SOL     OW 8713   1.032   4.273   5.602
 2794SOL    HW1 8714   0.991   4.355   5.563
 2794SOL    HW2 8715   1.096   4.299   5.675
 2795SOL     OW 8716   0.078   4.280   6.972
 2795SOL    HW1 8717   0.170   4.279   6.931
 2795SOL    HW2 8718   0.072   4.354   7.039
 2796SOL     OW 8719   0.561   3.946   6.733
 2796SOL    HW1 8720   0.599   3.862   6.770
 2796SOL    HW2 8721   0.473   3.965   6.777
 2797SOL     OW 8722   0.866   4.178   6.228
 2797SOL    HW1 8723   0.834   4.250   6.166
 2797SOL    HW2 8724   0.890   4.097   6.175
 2798SOL     OW 8725   1.017   3.763   6.339
 2798SOL    HW1 8726   0.945   3.768   6.270
 2798SOL    HW2 8727   0.993   3.694   6.408
 2799SOL     OW 8728   1.466   4.314   6.578
 2799SOL    HW1 8729   1.436   4.219   6.585
 2799SOL    HW2 8730   1.539   4.330   6.644
 2800SOL     OW 8731   1.390   4.299   5.664
 2800SOL    HW1 8732   1.336   4.278   5.745
 2800SOL    HW2 8733   1.481   4.258   5.673
 2801SOL     OW 8734   0.527   3.980   5.914
 2801SOL    HW1 8735   0.554   3.921   5.839
 2801SOL    HW2 8736   0.527   4.075   5.883
 2802SOL     OW 8737   0.915   3.813   6.988
 2802SOL    HW1 8738   0.940   3.793   6.893
 2802SOL    HW2 8739   0.987   3.869   7.030
 2803SOL     OW 8740   0.410   4.537   6.837
 2803SOL    HW1 8741   0.496   4.549   6.887
 2803SOL    HW2 8742   0.368   4.450   6.864
 2804SOL     OW 8743   1.274   4.110   6.848
 2804SOL    HW1 8744   1.295   4.184   6.912
 2804SOL    HW2 8745   1.185   4.127   6.805
 2805SOL     OW 8746   0.566   4.261   6.451
 2805SOL    HW1 8747   0.578   4.327   6.377
 2805SOL    HW2 8748   0.612   4.295   6.534
 2806SOL     OW 8749   1.582   4.363   6.058
 2806SOL    HW1 8750   1.551   4.424   6.131
 2806SOL    HW2 8751   1.632   4.415   5.989
 2807SOL     OW 8752   1.013   3.829   7.356
 2807SOL    HW1 8753   1.019   3.914   7.304
 2807SOL    HW2 8754   1.045   3.753   7.299
 2808SOL     OW 8755   0.504   3.774   7.326
 2808SOL    HW1 8756   0.462   3.717   7.256
 2808SOL    HW2 8757   0.438   3.843   7.358
 2809SOL     OW 8758   1.209   4.249   5.861
 2809SOL    HW1 8759   1.222   4.165   5.915
 2809SOL    HW2 8760   1.180   4.323   5.921
 2810SOL     OW 8761   0.307   3.937   6.817
 2810SOL    HW1 8762   0.284   3.974   6.907
 2810SOL    HW2 8763   0.277   3.842   6.811
 2811SOL     OW 8764   0.732   4.358   6.650
 2811SOL    HW1 8765   0.791   4.332   6.574
 2811SOL    HW2 8766   0.704   4.454   6.639
 2812SOL     OW 8767   1.728   4.659   7.440
 2812SOL    HW1 8768   1.682   4.652   7.351
 2812SOL    HW2 8769   1.666   4.703   7.506
 2813SOL     OW 8770   0.307   3.787   6.204
 2813SOL    HW1 8771   0.296   3.881   6.237
 2813SOL    HW2 8772   0.302   3.724   6.281
 2814SOL     OW 8773   1.622   4.091   5.960
 2814SOL    HW1 8774   1.624   4.015   6.024
 2814SOL    HW2 8775   1.574   4.168   6.000
 2815SOL     OW 8776   1.540   3.998   5.711
 2815SOL    HW1 8777   1.479   3.923   5.734
 2815SOL    HW2 8778   1.562   4.050   5.794
 2816SOL     OW 8779   0.319   4.534   6.535
 2816SOL    HW1 8780   0.412   4.570   6.540
 2816SOL    HW2 8781   0.313   4.449   6.587
 2817SOL     OW 8782   0.339   4.233   6.592
 2817SOL    HW1 8783   0.287   4.150   6.575
 2817SOL    HW2 8784   0.416   4.238   6.528
 2818SOL     OW 8785   1.138   4.104   7.264
 2818SOL    HW1 8786   1.093   4.167   7.328
 2818SOL    HW2 8787   1.231   4.135   7.247
 2819SOL     OW 8788   1.160   3.931   7.063
 2819SOL    HW1 8789   1.160   3.995   7.140
 2819SOL    HW2 8790   1.188   3.979   6.980
 2820SOL     OW 8791   0.040   4.268   6.700
 2820SOL    HW1 8792   0.125   4.235   6.659
 2820SOL    HW2 8793   0.053   4.283   6.798
 2821SOL     OW 8794   0.189   4.244   7.308
 2821SOL    HW1 8795   0.248   4.204   7.238
 2821SOL    HW2 8796   0.131   4.315   7.267
 2822SOL     OW 8797   0.815   4.296   5.911
 2822SOL    HW1 8798   0.822   4.207   5.865
 2822SOL    HW2 8799   0.721   4.330   5.903
 2823SOL     OW 8800   1.657   4.328   6.792
 2823SOL    HW1 8801   1.619   4.259   6.854
 2823SOL    HW2 8802   1.739   4.292   6.748
 2824SOL     OW 8803   0.671   4.188   6.855
 2824SOL    HW1 8804   0.637   4.099   6.825
 2824SOL    HW2 8805   0.697   4.242   6.775
 2825SOL     OW 8806   0.473   4.224   5.777
 2825SOL    HW1 8807   0.534   4.304   5.781
 2825SOL    HW2 8808   0.378   4.255   5.784
 2826SOL     OW 8809   1.726   3.859   6.109
 2826SOL    HW1 8810   1.799   3.842   6.042
 2826SOL    HW2 8811   1.695   3.772   6.147
 2827SOL     OW 8812   1.280   4.651   6.258
 2827SOL    HW1 8813   1.340   4.570   6.260
 2827SOL    HW2 8814   1.320   4.720   6.198
 2828SOL     OW 8815   1.841   3.899   6.549
 2828SOL    HW1 8816   1.880   3.814   6.513
 2828SOL    HW2 8817   1.743   3.901   6.530
 2829SOL     OW 8818   0.263   4.050   6.306
 2829SOL    HW1 8819   0.184   4.101   6.272
 2829SOL    HW2 8820   0.254   4.035   6.404
 2830SOL     OW 8821   0.916   4.634   5.877
 2830SOL    HW1 8822   0.979   4.672   5.809
 2830SOL    HW2 8823   0.956   4.551   5.916
 2831SOL     OW 8824   1.039   4.822   6.282
 2831SOL    HW1 8825   0.969   4.775   6.336
 2831SOL    HW2 8826   1.098   4.754   6.239
 2832SOL     OW 8827   1.014   3.960   6.557
 2832SOL    HW1 8828   1.006   3.924   6.464
 2832SOL    HW2 8829   1.012   3.884   6.622
 2833SOL     OW 8830   1.709   4.109   6.967
 2833SOL    HW1 8831   1.782   4.178   6.971
 2833SOL    HW2 8832   1.737   4.034   6.908
 2834SOL     OW 8833   0.672   3.927   7.075
 2834SOL    HW1 8834   0.762   3.911   7.035
 2834SOL    HW2 8835   0.680   3.932   7.174
 2835SOL     OW 8836   0.075   4.069   5.619
 2835SOL    HW1 8837  -0.017   4.041   5.590
 2835SOL    HW2 8838   0.106   4.146   5.563
 2836SOL     OW 8839   0.072   3.890   5.904
 2836SOL    HW1 8840   0.055   3.973   5.850
 2836SOL    HW2 8841   0.162   3.853   5.882
 2837SOL     OW 8842   0.716   4.289   7.294
 2837SOL    HW1 8843   0.735   4.354   7.368
 2837SOL    HW2 8844   0.776   4.209   7.303
 2838SOL     OW 8845   1.225   4.049   6.035
 2838SOL    HW1 8846   1.290   3.975   6.024
 2838SOL    HW2 8847   1.245   4.099   6.119
 2839SOL     OW 8848   1.777   4.066   7.228
 2839SOL    HW1 8849   1.760   4.097   7.134
 2839SOL    HW2 8850   1.693   4.029   7.266
 2840SOL     OW 8851   1.083   4.708   5.673
 2840SOL    HW1 8852   1.060   4.761   5.591
 2840SOL    HW2 8853   1.164   4.652   5.654
 2841SOL     OW 8854   1.824   3.916   6.813
 2841SOL    HW1 8855   1.820   3.826   6.857
 2841SOL    HW2 8856   1.827   3.905   6.714
 2842SOL     OW 8857   0.428   4.148   6.106
 2842SOL    HW1 8858   0.458   4.076   6.044
 2842SOL    HW2 8859   0.389   4.108   6.189
 2843SOL     OW 8860   0.317   4.271   6.866
 2843SOL    HW1 8861   0.355   4.212   6.938
 2843SOL    HW2 8862   0.357   4.245   6.778
 2844SOL     OW 8863   1.424   3.938   6.698
 2844SOL    HW1 8864   1.476   3.873   6.753
 2844SOL    HW2 8865   1.375   4.001   6.759
 2845SOL     OW 8866   1.001   3.758   6.740
 2845SOL    HW1 8867   0.938   3.686   6.709
 2845SOL    HW2 8868   1.094   3.722   6.740
 2846SOL     OW 8869   1.352   3.776   5.754
 2846SOL    HW1 8870   1.387   3.735   5.670
 2846SOL    HW2 8871   1.262   3.738   5.774
 2847SOL     OW 8872   1.300   4.177   6.277
 2847SOL    HW1 8873   1.241   4.257   6.281
 2847SOL    HW2 8874   1.315   4.142   6.370
 2848SOL     OW 8875   1.593   3.945   6.468
 2848SOL    HW1 8876   1.509   3.944   6.522
 2848SOL    HW2 8877   1.595   4.028   6.412
 2849SOL     OW 8878   0.230   4.352   7.561
 2849SOL    HW1 8879   0.137   4.350   7.598
 2849SOL    HW2 8880   0.231   4.313   7.469
 2850SOL     OW 8881   0.225   3.999   8.444
 2850SOL    HW1 8882   0.260   3.982   8.536
 2850SOL    HW2 8883   0.137   3.954   8.432
 2851SOL     OW 8884   0.019   4.092   8.095
 2851SOL    HW1 8885  -0.063   4.135   8.134
 2851SOL    HW2 8886  -0.009   4.019   8.032
 2852SOL     OW 8887   1.755   4.331   7.679
 2852SOL    HW1 8888   1.743   4.318   7.580
 2852SOL    HW2 8889   1.725   4.250   7.728
 2853SOL     OW 8890   0.685   4.736   8.113
 2853SOL    HW1 8891   0.754   4.720   8.183
 2853SOL    HW2 8892   0.612   4.793   8.151
 2854SOL     OW 8893   0.438   4.116   8.947
 2854SOL    HW1 8894   0.520   4.060   8.956
 2854SOL    HW2 8895   0.357   4.058   8.951
 2855SOL     OW 8896   1.603   4.171   8.185
 2855SOL    HW1 8897   1.529   4.217   8.135
 2855SOL    HW2 8898   1.654   4.239   8.238
 2856SOL     OW 8899   1.594   3.838   8.928
 2856SOL    HW1 8900   1.576   3.905   8.856
 2856SOL    HW2 8901   1.591   3.884   9.017
 2857SOL     OW 8902   0.122   4.367   8.011
 2857SOL    HW1 8903   0.077   4.279   8.028
 2857SOL    HW2 8904   0.121   4.421   8.095
 2858SOL     OW 8905   0.113   4.461   9.045
 2858SOL    HW1 8906   0.201   4.448   9.090
 2858SOL    HW2 8907   0.100   4.558   9.023
 2859SOL     OW 8908   0.809   3.728   7.950
 2859SOL    HW1 8909   0.849   3.819   7.941
 2859SOL    HW2 8910   0.709   3.736   7.956
 2860SOL     OW 8911   0.317   3.975   9.249
 2860SOL    HW1 8912   0.388   4.046   9.255
 2860SOL    HW2 8913   0.229   4.014   9.277
 2861SOL     OW 8914   1.281   4.069   8.392
 2861SOL    HW1 8915   1.195   4.019   8.379
 2861SOL    HW2 8916   1.343   4.015   8.448
 2862SOL     OW 8917   0.807   4.329   8.913
 2862SOL    HW1 8918   0.760   4.326   9.002
 2862SOL    HW2 8919   0.756   4.274   8.847
 2863SOL     OW 8920   1.394   4.193   9.122
 2863SOL    HW1 8921   1.374   4.236   9.210
 2863SOL    HW2 8922   1.472   4.131   9.131
 2864SOL     OW 8923   0.991   4.134   8.690
 2864SOL    HW1 8924   0.914   4.168   8.744
 2864SOL    HW2 8925   0.957   4.083   8.611
 2865SOL     OW 8926   1.041   4.425   7.877
 2865SOL    HW1 8927   1.067   4.421   7.973
 2865SOL    HW2 8928   0.956   4.374   7.863
 2866SOL     OW 8929   0.076   4.535   8.237
 2866SOL    HW1 8930   0.175   4.523   8.246
 2866SOL    HW2 8931   0.052   4.630   8.258
 2867SOL     OW 8932   0.865   4.072   7.643
 2867SOL    HW1 8933   0.924   4.135   7.594
 2867SOL    HW2 8934   0.884   3.978   7.614
 2868SOL     OW 8935   1.719   4.309   9.279
 2868SOL    HW1 8936   1.693   4.398   9.243
 2868SOL    HW2 8937   1.717   4.241   9.206
 2869SOL     OW 8938   0.550   3.920   8.333
 2869SOL    HW1 8939   0.545   3.915   8.433
 2869SOL    HW2 8940   0.552   4.016   8.304
 2870SOL     OW 8941   1.458   4.459   8.176
 2870SOL    HW1 8942   1.453   4.394   8.251
 2870SOL    HW2 8943   1.538   4.518   8.189
 2871SOL     OW 8944   0.202   4.009   8.946
 2871SOL    HW1 8945   0.122   4.069   8.933
 2871SOL    HW2 8946   0.192   3.960   9.032
 2872SOL     OW 8947   1.400   3.831   7.874
 2872SOL    HW1 8948   1.376   3.794   7.784
 2872SOL    HW2 8949   1.499   3.847   7.878
 2873SOL     OW 8950   0.382   4.424   7.928
 2873SOL    HW1 8951   0.427   4.334   7.925
 2873SOL    HW2 8952   0.288   4.413   7.961
 2874SOL     OW 8953   1.547   3.946   9.177
 2874SOL    HW1 8954   1.542   3.983   9.269
 2874SOL    HW2 8955   1.475   3.877   9.165
 2875SOL     OW 8956   0.614   3.846   7.565
 2875SOL    HW1 8957   0.712   3.824   7.572
 2875SOL    HW2 8958   0.583   3.829   7.472
 2876SOL     OW 8959   0.781   3.988   9.197
 2876SOL    HW1 8960   0.848   3.927   9.240
 2876SOL    HW2 8961   0.708   4.007   9.262
 2877SOL     OW 8962   1.351   4.314   8.881
 2877SOL    HW1 8963   1.379   4.271   8.966
 2877SOL    HW2 8964   1.376   4.410   8.882
 2878SOL     OW 8965   0.922   4.227   8.347
 2878SOL    HW1 8966   0.897   4.218   8.251
 2878SOL    HW2 8967   0.970   4.145   8.378
 2879SOL     OW 8968   0.539   3.788   7.960
 2879SOL    HW1 8969   0.458   3.789   8.018
 2879SOL    HW2 8970   0.542   3.871   7.905
 2880SOL     OW 8971   0.297   3.759   7.619
 2880SOL    HW1 8972   0.346   3.843   7.598
 2880SOL    HW2 8973   0.359   3.694   7.664
 2881SOL     OW 8974   0.935   3.960   7.928
 2881SOL    HW1 8975   0.887   4.001   7.850
 2881SOL    HW2 8976   1.034   3.958   7.909
 2882SOL     OW 8977   1.076   4.407   8.912
 2882SOL    HW1 8978   0.996   4.346   8.915
 2882SOL    HW2 8979   1.157   4.354   8.888
 2883SOL     OW 8980   1.032   4.273   7.464
 2883SOL    HW1 8981   0.991   4.355   7.425
 2883SOL    HW2 8982   1.096   4.299   7.537
 2884SOL     OW 8983   0.078   4.280   8.834
 2884SOL    HW1 8984   0.170   4.279   8.793
 2884SOL    HW2 8985   0.072   4.354   8.901
 2885SOL     OW 8986   0.561   3.946   8.595
 2885SOL    HW1 8987   0.599   3.862   8.632
 2885SOL    HW2 8988   0.473   3.965   8.639
 2886SOL     OW 8989   0.866   4.178   8.090
 2886SOL    HW1 8990   0.834   4.250   8.028
 2886SOL    HW2 8991   0.890   4.097   8.037
 2887SOL     OW 8992   1.017   3.763   8.201
 2887SOL    HW1 8993   0.945   3.768   8.132
 2887SOL    HW2 8994   0.993   3.694   8.270
 2888SOL     OW 8995   1.466   4.314   8.440
 2888SOL    HW1 8996   1.436   4.219   8.447
 2888SOL    HW2 8997   1.539   4.330   8.506
 2889SOL     OW 8998   1.390   4.299   7.526
 2889SOL    HW1 8999   1.336   4.278   7.607
 2889SOL    HW2 9000   1.481   4.258   7.535
 2890SOL     OW 9001   0.527   3.980   7.776
 2890SOL    HW1 9002   0.554   3.921   7.701
 2890SOL    HW2 9003   0.527   4.075   7.745
 2891SOL     OW 9004   0.915   3.813   8.850
 2891SOL    HW1 9005   0.940   3.793   8.755
 2891SOL    HW2 9006   0.987   3.869   8.892
 2892SOL     OW 9007   0.410   4.537   8.699
 2892SOL    HW1 9008   0.496   4.549   8.749
 2892SOL    HW2 9009   0.368   4.450   8.726
 2893SOL     OW 9010   1.274   4.110   8.710
 2893SOL    HW1 9011   1.295   4.184   8.774
 2893SOL    HW2 9012   1.185   4.127   8.667
 2894SOL     OW 9013   0.566   4.261   8.313
 2894SOL    HW1 9014   0.578   4.327   8.239
 2894SOL    HW2 9015   0.612   4.295   8.396
 2895SOL     OW 9016   1.582   4.363   7.920
 2895SOL    HW1 9017   1.551   4.424   7.993
 2895SOL    HW2 9018   1.632   4.415   7.851
 2896SOL     OW 9019   1.013   3.829   9.218
 2896SOL    HW1 9020   1.019   3.914   9.166
 2896SOL    HW2 9021   1.045   3.753   9.161
 2897SOL     OW 9022   0.504   3.774   9.188
 2897SOL    HW1 9023   0.462   3.717   9.118
 2897SOL    HW2 9024   0.438   3.843   9.220
 2898SOL     OW 9025   1.209   4.249   7.723
 2898SOL    HW1 9026   1.222   4.165   7.777
 2898SOL    HW2 9027   1.180   4.323   7.783
 2899SOL     OW 9028   0.307   3.937   8.679
 2899SOL    HW1 9029   0.284   3.974   8.769
 2899SOL    HW2 9030   0.277   3.842   8.673
 2900SOL     OW 9031   0.732   4.358   8.512
 2900SOL    HW1 9032   0.791   4.332   8.436
 2900SOL    HW2 9033   0.704   4.454   8.501
 2901SOL     OW 9034   1.728   4.659   9.302
 2901SOL    HW1 9035   1.682   4.652   9.213
 2901SOL    HW2 9036   1.666   4.703   9.368
 2902SOL     OW 9037   0.307   3.787   8.066
 2902SOL    HW1 9038   0.296   3.881   8.099
 2902SOL    HW2 9039   0.302   3.724   8.143
 2903SOL     OW 9040   1.622   4.091   7.822
 2903SOL    HW1 9041   1.624   4.015   7.886
 2903SOL    HW2 9042   1.574   4.168   7.862
 2904SOL     OW 9043   1.540   3.998   7.573
 2904SOL    HW1 9044   1.479   3.923   7.596
 2904SOL    HW2 9045   1.562   4.050   7.656
 2905SOL     OW 9046   0.319   4.534   8.397
 2905SOL    HW1 9047   0.412   4.570   8.402
 2905SOL    HW2 9048   0.313   4.449   8.449
 2906SOL     OW 9049   0.339   4.233   8.454
 2906SOL    HW1 9050   0.287   4.150   8.437
 2906SOL    HW2 9051   0.416   4.238   8.390
 2907SOL     OW 9052   1.138   4.104   9.126
 2907SOL    HW1 9053   1.093   4.167   9.190
 2907SOL    HW2 9054   1.231   4.135   9.109
 2908SOL     OW 9055   1.160   3.931   8.925
 2908SOL    HW1 9056   1.160   3.995   9.002
 2908SOL    HW2 9057   1.188   3.979   8.842
 2909SOL     OW 9058   0.040   4.268   8.562
 2909SOL    HW1 9059   0.125   4.235   8.521
 2909SOL    HW2 9060   0.053   4.283   8.660
 2910SOL     OW 9061   0.189   4.244   9.170
 2910SOL    HW1 9062   0.248   4.204   9.100
 2910SOL    HW2 9063   0.131   4.315   9.129
 2911SOL     OW 9064   0.815   4.296   7.773
 2911SOL    HW1 9065   0.822   4.207   7.727
 2911SOL    HW2 9066   0.721   4.330   7.765
 2912SOL     OW 9067   1.657   4.328   8.654
 2912SOL    HW1 9068   1.619   4.259   8.716
 2912SOL    HW2 9069   1.739   4.292   8.610
 2913SOL     OW 9070   0.671   4.188   8.717
 2913SOL    HW1 9071   0.637   4.099   8.687
 2913SOL    HW2 9072   0.697   4.242   8.637
 2914SOL     OW 9073   0.473   4.224   7.639
 2914SOL    HW1 9074   0.534   4.304   7.643
 2914SOL    HW2 9075   0.378   4.255   7.646
 2915SOL     OW 9076   1.726   3.859   7.971
 2915SOL    HW1 9077   1.799   3.842   7.904
 2915SOL    HW2 9078   1.695   3.772   8.009
 2916SOL     OW 9079   1.280   4.651   8.120
 2916SOL    HW1 9080   1.340   4.570   8.122
 2916SOL    HW2 9081   1.320   4.720   8.060
 2917SOL     OW 9082   1.841   3.899   8.411
 2917SOL    HW1 9083   1.880   3.814   8.375
 2917SOL    HW2 9084   1.743   3.901   8.392
 2918SOL     OW 9085   0.263   4.050   8.168
 2918SOL    HW1 9086   0.184   4.101   8.134
 2918SOL    HW2 9087   0.254   4.035   8.266
 2919SOL     OW 9088   0.916   4.634   7.739
 2919SOL    HW1 9089   0.979   4.672   7.671
 2919SOL    HW2 9090   0.956   4.551   7.778
 2920SOL     OW 9091   1.039   4.822   8.144
 2920SOL    HW1 9092   0.969   4.775   8.198
 2920SOL    HW2 9093   1.098   4.754   8.101
 2921SOL     OW 9094   1.014   3.960   8.419
 2921SOL    HW1 9095   1.006   3.924   8.326
 2921SOL    HW2 9096   1.012   3.884   8.484
 2922SOL     OW 9097   1.709   4.109   8.829
 2922SOL    HW1 9098   1.782   4.178   8.833
 2922SOL    HW2 9099   1.737   4.034   8.770
 2923SOL     OW 9100   0.672   3.927   8.937
 2923SOL    HW1 9101   0.762   3.911   8.897
 2923SOL    HW2 9102   0.680   3.932   9.036
 2924SOL     OW 9103   0.075   4.069   7.481
 2924SOL    HW1 9104  -0.017   4.041   7.452
 2924SOL    HW2 9105   0.106   4.146   7.425
 2925SOL     OW 9106   0.072   3.890   7.766
 2925SOL    HW1 9107   0.055   3.973   7.712
 2925SOL    HW2 9108   0.162   3.853   7.744
 2926SOL     OW 9109   0.716   4.289   9.156
 2926SOL    HW1 9110   0.735   4.354   9.230
 2926SOL    HW2 9111   0.776   4.209   9.165
 2927SOL     OW 9112   1.225   4.049   7.897
 2927SOL    HW1 9113   1.290   3.975   7.886
 2927SOL    HW2 9114   1.245   4.099   7.981
 2928SOL     OW 9115   1.777   4.066   9.090
 2928SOL    HW1 9116   1.760   4.097   8.996
 2928SOL    HW2 9117   1.693   4.029   9.128
 2929SOL     OW 9118   1.083   4.708   7.535
 2929SOL    HW1 9119   1.060   4.761   7.453
 2929SOL    HW2 9120   1.164   4.652   7.516
 2930SOL     OW 9121   1.824   3.916   8.675
 2930SOL    HW1 9122   1.820   3.826   8.719
 2930SOL    HW2 9123   1.827   3.905   8.576
 2931SOL     OW 9124   0.428   4.148   7.968
 2931SOL    HW1 9125   0.458   4.076   7.906
 2931SOL    HW2 9126   0.389   4.108   8.051
 2932SOL     OW 9127   0.317   4.271   8.728
 2932SOL    HW1 9128   0.355   4.212   8.800
 2932SOL    HW2 9129   0.357   4.245   8.640
 2933SOL     OW 9130   1.424   3.938   8.560
 2933SOL    HW1 9131   1.476   3.873   8.615
 2933SOL    HW2 9132   1.375   4.001   8.621
 2934SOL     OW 9133   1.001   3.758   8.602
 2934SOL    HW1 9134   0.938   3.686   8.571
 2934SOL    HW2 9135   1.094   3.722   8.602
 2935SOL     OW 9136   1.352   3.776   7.616
 2935SOL    HW1 9137   1.387   3.735   7.532
 2935SOL    HW2 9138   1.262   3.738   7.636
 2936SOL     OW 9139   1.300   4.177   8.139
 2936SOL    HW1 9140   1.241   4.257   8.143
 2936SOL    HW2 9141   1.315   4.142   8.232
 2937SOL     OW 9142   1.593   3.945   8.330
 2937SOL    HW1 9143   1.509   3.944   8.384
 2937SOL    HW2 9144   1.595   4.028   8.274
 2938SOL     OW 9145   0.230   4.352   9.423
 2938SOL    HW1 9146   0.137   4.350   9.460
 2938SOL    HW2 9147   0.231   4.313   9.331
 2939SOL     OW 9148   0.225   3.999  10.306
 2939SOL    HW1 9149   0.260   3.982  10.398
 2939SOL    HW2 9150   0.137   3.954  10.294
 2940SOL     OW 9151   0.019   4.092   9.957
 2940SOL    HW1 9152  -0.063   4.135   9.996
 2940SOL    HW2 9153  -0.009   4.019   9.894
 2941SOL     OW 9154   1.755   4.331   9.541
 2941SOL    HW1 9155   1.743   4.318   9.442
 2941SOL    HW2 9156   1.725   4.250   9.590
 2942SOL     OW 9157   0.685   4.736   9.975
 2942SOL    HW1 9158   0.754   4.720  10.045
 2942SOL    HW2 9159   0.612   4.793  10.013
 2943SOL     OW 9160   0.438   4.116  10.809
 2943SOL    HW1 9161   0.520   4.060  10.818
 2943SOL    HW2 9162   0.357   4.058  10.813
 2944SOL     OW 9163   1.603   4.171  10.047
 2944SOL    HW1 9164   1.529   4.217   9.997
 2944SOL    HW2 9165   1.654   4.239  10.100
 2945SOL     OW 9166   1.594   3.838  10.790
 2945SOL    HW1 9167   1.576   3.905  10.718
 2945SOL    HW2 9168   1.591   3.884  10.879
 2946SOL     OW 9169   0.122   4.367   9.873
 2946SOL    HW1 9170   0.077   4.279   9.890
 2946SOL    HW2 9171   0.121   4.421   9.957
 2947SOL     OW 9172   0.113   4.461  10.907
 2947SOL    HW1 9173   0.201   4.448  10.952
 2947SOL    HW2 9174   0.100   4.558  10.885
 2948SOL     OW 9175   0.809   3.728   9.812
 2948SOL    HW1 9176   0.849   3.819   9.803
 2948SOL    HW2 9177   0.709   3.736   9.818
 2949SOL     OW 9178   1.281   4.069  10.254
 2949SOL    HW1 9179   1.195   4.019  10.241
 2949SOL    HW2 9180   1.343   4.015  10.310
 2950SOL     OW 9181   0.807   4.329  10.775
 2950SOL    HW1 9182   0.760   4.326  10.864
 2950SOL    HW2 9183   0.756   4.274  10.709
 2951SOL     OW 9184   0.991   4.134  10.552
 2951SOL    HW1 9185   0.914   4.168  10.606
 2951SOL    HW2 9186   0.957   4.083  10.473
 2952SOL     OW 9187   1.041   4.425   9.739
 2952SOL    HW1 9188   1.067   4.421   9.835
 2952SOL    HW2 9189   0.956   4.374   9.725
 2953SOL     OW 9190   0.076   4.535  10.099
 2953SOL    HW1 9191   0.175   4.523  10.108
 2953SOL    HW2 9192   0.052   4.630  10.120
 2954SOL     OW 9193   0.865   4.072   9.505
 2954SOL    HW1 9194   0.924   4.135   9.456
 2954SOL    HW2 9195   0.884   3.978   9.476
 2955SOL     OW 9196   0.550   3.920  10.195
 2955SOL    HW1 9197   0.545   3.915  10.295
 2955SOL    HW2 9198   0.552   4.016  10.166
 2956SOL     OW 9199   1.458   4.459  10.038
 2956SOL    HW1 9200   1.453   4.394  10.113
 2956SOL    HW2 9201   1.538   4.518  10.051
 2957SOL     OW 9202   0.202   4.009  10.808
 2957SOL    HW1 9203   0.122   4.069  10.795
 2957SOL    HW2 9204   0.192   3.960  10.894
 2958SOL     OW 9205   1.400   3.831   9.736
 2958SOL    HW1 9206   1.376   3.794   9.646
 2958SOL    HW2 9207   1.499   3.847   9.740
 2959SOL     OW 9208   0.382   4.424   9.790
 2959SOL    HW1 9209   0.427   4.334   9.787
 2959SOL    HW2 9210   0.288   4.413   9.823
 2960SOL     OW 9211   0.614   3.846   9.427
 2960SOL    HW1 9212   0.712   3.824   9.434
 2960SOL    HW2 9213   0.583   3.829   9.334
 2961SOL     OW 9214   1.351   4.314  10.743
 2961SOL    HW1 9215   1.379   4.271  10.828
 2961SOL    HW2 9216   1.376   4.410  10.744
 2962SOL     OW 9217   0.922   4.227  10.209
 2962SOL    HW1 9218   0.897   4.218  10.113
 2962SOL    HW2 9219   0.970   4.145  10.240
 2963SOL     OW 9220   0.539   3.788   9.822
 2963SOL    HW1 9221   0.458   3.789   9.880
 2963SOL    HW2 9222   0.542   3.871   9.767
 2964SOL     OW 9223   0.297   3.759   9.481
 2964SOL    HW1 9224   0.346   3.843   9.460
 2964SOL    HW2 9225   0.359   3.694   9.526
 2965SOL     OW 9226   0.935   3.960   9.790
 2965SOL    HW1 9227   0.887   4.001   9.712
 2965SOL    HW2 9228   1.034   3.958   9.771
 2966SOL     OW 9229   1.076   4.407  10.774
 2966SOL    HW1 9230   0.996   4.346  10.777
 2966SOL    HW2 9231   1.157   4.354  10.750
 2967SOL     OW 9232   1.032   4.273   9.326
 2967SOL    HW1 9233   0.991   4.355   9.287
 2967SOL    HW2 9234   1.096   4.299   9.399
 2968SOL     OW 9235   0.078   4.280  10.696
 2968SOL    HW1 9236   0.170   4.279  10.655
 2968SOL    HW2 9237   0.072   4.354  10.763
 2969SOL     OW 9238   0.561   3.946  10.457
 2969SOL    HW1 9239   0.599   3.862  10.494
 2969SOL    HW2 9240   0.473   3.965  10.501
 2970SOL     OW 9241   0.866   4.178   9.952
 2970SOL    HW1 9242   0.834   4.250   9.890
 2970SOL    HW2 9243   0.890   4.097   9.899
 2971SOL     OW 9244   1.017   3.763  10.063
 2971SOL    HW1 9245   0.945   3.768   9.994
 2971SOL    HW2 9246   0.993   3.694  10.132
 2972SOL     OW 9247   1.466   4.314  10.302
 2972SOL    HW1 9248   1.436   4.219  10.309
 2972SOL    HW2 9249   1.539   4.330  10.368
 2973SOL     OW 9250   1.390   4.299   9.388
 2973SOL    HW1 9251   1.336   4.278   9.469
 2973SOL    HW2 9252   1.481   4.258   9.397
 2974SOL     OW 9253   0.527   3.980   9.638
 2974SOL    HW1 9254   0.554   3.921   9.563
 2974SOL    HW2 9255   0.527   4.075   9.607
 2975SOL     OW 9256   0.915   3.813  10.712
 2975SOL    HW1 9257   0.940   3.793  10.617
 2975SOL    HW2 9258   0.987   3.869  10.754
 2976SOL     OW 9259   0.410   4.537  10.561
 2976SOL    HW1 9260   0.496   4.549  10.611
 2976SOL    HW2 9261   0.368   4.450  10.588
 2977SOL     OW 9262   1.274   4.110  10.572
 2977SOL    HW1 9263   1.295   4.184  10.636
 2977SOL    HW2 9264   1.185   4.127  10.529
 2978SOL     OW 9265   0.566   4.261  10.175
 2978SOL    HW1 9266   0.578   4.327  10.101
 2978SOL    HW2 9267   0.612   4.295  10.258
 2979SOL     OW 9268   1.582   4.363   9.782
 2979SOL    HW1 9269   1.551   4.424   9.855
 2979SOL    HW2 9270   1.632   4.415   9.713
 2980SOL     OW 9271   0.402   4.475  10.908
 2980SOL    HW1 9272   0.470   4.530  10.861
 2980SOL    HW2 9273   0.442   4.387  10.935
 2981SOL     OW 9274   1.209   4.249   9.585
 2981SOL    HW1 9275   1.222   4.165   9.639
 2981SOL    HW2 9276   1.180   4.323   9.645
 2982SOL     OW 9277   0.307   3.937  10.541
 2982SOL    HW1 9278   0.284   3.974  10.631
 2982SOL    HW2 9279   0.277   3.842  10.535
 2983SOL     OW 9280   0.732   4.358  10.374
 2983SOL    HW1 9281   0.791   4.332  10.298
 2983SOL    HW2 9282   0.704   4.454  10.363
 2984SOL     OW 9283   1.728   4.659  11.164
 2984SOL    HW1 9284   1.682   4.652  11.075
 2984SOL    HW2 9285   1.666   4.703  11.230
 2985SOL     OW 9286   0.307   3.787   9.928
 2985SOL    HW1 9287   0.296   3.881   9.961
 2985SOL    HW2 9288   0.302   3.724  10.005
 2986SOL     OW 9289   1.622   4.091   9.684
 2986SOL    HW1 9290   1.624   4.015   9.748
 2986SOL    HW2 9291   1.574   4.168   9.724
 2987SOL     OW 9292   1.540   3.998   9.435
 2987SOL    HW1 9293   1.479   3.923   9.458
 2987SOL    HW2 9294   1.562   4.050   9.518
 2988SOL     OW 9295   0.319   4.534  10.259
 2988SOL    HW1 9296   0.412   4.570  10.264
 2988SOL    HW2 9297   0.313   4.449  10.311
 2989SOL     OW 9298   0.339   4.233  10.316
 2989SOL    HW1 9299   0.287   4.150  10.299
 2989SOL    HW2 9300   0.416   4.238  10.252
 2990SOL     OW 9301   1.160   3.931  10.787
 2990SOL    HW1 9302   1.160   3.995  10.864
 2990SOL    HW2 9303   1.188   3.979  10.704
 2991SOL     OW 9304   0.040   4.268  10.424
 2991SOL    HW1 9305   0.125   4.235  10.383
 2991SOL    HW2 9306   0.053   4.283  10.522
 2992SOL     OW 9307   1.369   4.674  10.970
 2992SOL    HW1 9308   1.408   4.763  10.990
 2992SOL    HW2 9309   1.379   4.654  10.873
 2993SOL     OW 9310   0.815   4.296   9.635
 2993SOL    HW1 9311   0.822   4.207   9.589
 2993SOL    HW2 9312   0.721   4.330   9.627
 2994SOL     OW 9313   1.657   4.328  10.516
 2994SOL    HW1 9314   1.619   4.259  10.578
 2994SOL    HW2 9315   1.739   4.292  10.472
 2995SOL     OW 9316   0.671   4.188  10.579
 2995SOL    HW1 9317   0.637   4.099  10.549
 2995SOL    HW2 9318   0.697   4.242  10.499
 2996SOL     OW 9319   0.473   4.224   9.501
 2996SOL    HW1 9320   0.534   4.304   9.505
 2996SOL    HW2 9321   0.378   4.255   9.508
 2997SOL     OW 9322   1.726   3.859   9.833
 2997SOL    HW1 9323   1.799   3.842   9.766
 2997SOL    HW2 9324   1.695   3.772   9.871
 2998SOL     OW 9325   1.280   4.651   9.982
 2998SOL    HW1 9326   1.340   4.570   9.984
 2998SOL    HW2 9327   1.320   4.720   9.922
 2999SOL     OW 9328   1.841   3.899  10.273
 2999SOL    HW1 9329   1.880   3.814  10.237
 2999SOL    HW2 9330   1.743   3.901  10.254
 3000SOL     OW 9331   0.263   4.050  10.030
 3000SOL    HW1 9332   0.184   4.101   9.996
 3000SOL    HW2 9333   0.254   4.035  10.128
 3001SOL     OW 9334   0.916   4.634   9.601
 3001SOL    HW1 9335   0.979   4.672   9.533
 3001SOL    HW2 9336   0.956   4.551   9.640
 3002SOL     OW 9337   1.039   4.822  10.006
 3002SOL    HW1 9338   0.969   4.775  10.060
 3002SOL    HW2 9339   1.098   4.754   9.963
 3003SOL     OW 9340   1.014   3.960  10.281
 3003SOL    HW1 9341   1.006   3.924  10.188
 3003SOL    HW2 9342   1.012   3.884  10.346
 3004SOL     OW 9343   1.709   4.109  10.691
 3004SOL    HW1 9344   1.782   4.178  10.695
 3004SOL    HW2 9345   1.737   4.034  10.632
 3005SOL     OW 9346   0.672   3.927  10.799
 3005SOL    HW1 9347   0.762   3.911  10.759
 3005SOL    HW2 9348   0.680   3.932  10.898
 3006SOL     OW 9349   0.075   4.069   9.343
 3006SOL    HW1 9350  -0.017   4.041   9.314
 3006SOL    HW2 9351   0.106   4.146   9.287
 3007SOL     OW 9352   0.072   3.890   9.628
 3007SOL    HW1 9353   0.055   3.973   9.574
 3007SOL    HW2 9354   0.162   3.853   9.606
 3008SOL     OW 9355   0.716   4.289  11.018
 3008SOL    HW1 9356   0.735   4.354  11.092
 3008SOL    HW2 9357   0.776   4.209  11.027
 3009SOL     OW 9358   1.225   4.049   9.759
 3009SOL    HW1 9359   1.290   3.975   9.748
 3009SOL    HW2 9360   1.245   4.099   9.843
 3010SOL     OW 9361   1.083   4.708   9.397
 3010SOL    HW1 9362   1.060   4.761   9.315
 3010SOL    HW2 9363   1.164   4.652   9.378
 3011SOL     OW 9364   1.824   3.916  10.537
 3011SOL    HW1 9365   1.820   3.826  10.581
 3011SOL    HW2 9366   1.827   3.905  10.438
 3012SOL     OW 9367   0.428   4.148   9.830
 3012SOL    HW1 9368   0.458   4.076   9.768
 3012SOL    HW2 9369   0.389   4.108   9.913
 3013SOL     OW 9370   0.317   4.271  10.590
 3013SOL    HW1 9371   0.355   4.212  10.662
 3013SOL    HW2 9372   0.357   4.245  10.502
 3014SOL     OW 9373   1.424   3.938  10.422
 3014SOL    HW1 9374   1.476   3.873  10.477
 3014SOL    HW2 9375   1.375   4.001  10.483
 3015SOL     OW 9376   1.001   3.758  10.464
 3015SOL    HW1 9377   0.938   3.686  10.433
 3015SOL    HW2 9378   1.094   3.722  10.464
 3016SOL     OW 9379   1.352   3.776   9.478
 3016SOL    HW1 9380   1.387   3.735   9.394
 3016SOL    HW2 9381   1.262   3.738   9.498
 3017SOL     OW 9382   1.300   4.177  10.001
 3017SOL    HW1 9383   1.241   4.257  10.005
 3017SOL    HW2 9384   1.315   4.142  10.094
 3018SOL     OW 9385   1.593   3.945  10.192
 3018SOL    HW1 9386   1.509   3.944  10.246
 3018SOL    HW2 9387   1.595   4.028  10.136
 3019SOL     OW 9388   2.092   0.628   0.113
 3019SOL    HW1 9389   1.999   0.626   0.150
 3019SOL    HW2 9390   2.093   0.589   0.021
 3020SOL     OW 9391   2.087   0.275   0.996
 3020SOL    HW1 9392   2.122   0.258   1.088
 3020SOL    HW2 9393   1.999   0.230   0.984
 3021SOL     OW 9394   1.881   0.368   0.647
 3021SOL    HW1 9395   1.799   0.411   0.686
 3021SOL    HW2 9396   1.853   0.295   0.584
 3022SOL     OW 9397   2.431   1.275   1.165
 3022SOL    HW1 9398   2.338   1.268   1.128
 3022SOL    HW2 9399   2.442   1.364   1.209
 3023SOL     OW 9400   3.417   1.511   0.703
 3023SOL    HW1 9401   3.360   1.495   0.784
 3023SOL    HW2 9402   3.358   1.521   0.623
 3024SOL     OW 9403   2.997   0.703   0.717
 3024SOL    HW1 9404   3.054   0.781   0.692
 3024SOL    HW2 9405   2.937   0.729   0.793
 3025SOL     OW 9406   3.617   0.607   0.231
 3025SOL    HW1 9407   3.605   0.594   0.132
 3025SOL    HW2 9408   3.587   0.526   0.280
 3026SOL     OW 9409   2.630   1.144   1.023
 3026SOL    HW1 9410   2.552   1.161   1.083
 3026SOL    HW2 9411   2.664   1.231   0.987
 3027SOL     OW 9412   2.712   0.798   1.823
 3027SOL    HW1 9413   2.708   0.874   1.888
 3027SOL    HW2 9414   2.734   0.834   1.732
 3028SOL     OW 9415   2.547   1.012   0.665
 3028SOL    HW1 9416   2.616   0.996   0.735
 3028SOL    HW2 9417   2.474   1.069   0.703
 3029SOL     OW 9418   2.548   1.161   1.803
 3029SOL    HW1 9419   2.608   1.240   1.817
 3029SOL    HW2 9420   2.462   1.192   1.762
 3030SOL     OW 9421   2.197   1.435   1.061
 3030SOL    HW1 9422   2.119   1.404   1.008
 3030SOL    HW2 9423   2.255   1.493   1.004
 3031SOL     OW 9424   3.322   1.505   1.339
 3031SOL    HW1 9425   3.346   1.599   1.365
 3031SOL    HW2 9426   3.306   1.451   1.421
 3032SOL     OW 9427   2.300   0.392   1.499
 3032SOL    HW1 9428   2.382   0.336   1.508
 3032SOL    HW2 9429   2.219   0.334   1.503
 3033SOL     OW 9430   3.465   0.447   0.737
 3033SOL    HW1 9431   3.391   0.493   0.687
 3033SOL    HW2 9432   3.516   0.515   0.790
 3034SOL     OW 9433   2.093   1.713   0.483
 3034SOL    HW1 9434   2.127   1.790   0.537
 3034SOL    HW2 9435   2.137   1.713   0.393
 3035SOL     OW 9436   2.989   1.341   1.690
 3035SOL    HW1 9437   3.036   1.341   1.778
 3035SOL    HW2 9438   2.941   1.254   1.679
 3036SOL     OW 9439   2.092   1.434   0.538
 3036SOL    HW1 9440   2.066   1.530   0.538
 3036SOL    HW2 9441   2.021   1.380   0.583
 3037SOL     OW 9442   2.102   1.091   0.886
 3037SOL    HW1 9443   2.116   1.007   0.938
 3037SOL    HW2 9444   2.047   1.155   0.941
 3038SOL     OW 9445   2.482   1.786   1.439
 3038SOL    HW1 9446   2.390   1.769   1.474
 3038SOL    HW2 9447   2.510   1.878   1.465
 3039SOL     OW 9448   2.468   0.964   0.123
 3039SOL    HW1 9449   2.475   1.048   0.069
 3039SOL    HW2 9450   2.514   0.977   0.211
 3040SOL     OW 9451   3.456   0.114   1.480
 3040SOL    HW1 9452   3.438   0.181   1.408
 3040SOL    HW2 9453   3.453   0.160   1.569
 3041SOL     OW 9454   1.984   0.643   0.563
 3041SOL    HW1 9455   1.939   0.555   0.580
 3041SOL    HW2 9456   1.983   0.697   0.647
 3042SOL     OW 9457   3.704   1.767   0.359
 3042SOL    HW1 9458   3.758   1.738   0.439
 3042SOL    HW2 9459   3.734   1.857   0.330
 3043SOL     OW 9460   1.889   1.596   0.117
 3043SOL    HW1 9461   1.870   1.500   0.138
 3043SOL    HW2 9462   1.856   1.654   0.192
 3044SOL     OW 9463   3.551   0.922   0.612
 3044SOL    HW1 9464   3.646   0.893   0.620
 3044SOL    HW2 9465   3.543   0.987   0.537
 3045SOL     OW 9466   3.503   1.108   0.432
 3045SOL    HW1 9467   3.589   1.110   0.380
 3045SOL    HW2 9468   3.517   1.155   0.520
 3046SOL     OW 9469   1.975   0.737   1.597
 3046SOL    HW1 9470   2.063   0.724   1.642
 3046SOL    HW2 9471   1.962   0.834   1.575
 3047SOL     OW 9472   2.475   1.365   0.726
 3047SOL    HW1 9473   2.426   1.278   0.735
 3047SOL    HW2 9474   2.452   1.408   0.639
 3048SOL     OW 9475   3.155   1.228   1.423
 3048SOL    HW1 9476   3.192   1.155   1.365
 3048SOL    HW2 9477   3.207   1.233   1.508
 3049SOL     OW 9478   2.671   0.004   0.502
 3049SOL    HW1 9479   2.711   0.095   0.493
 3049SOL    HW2 9480   2.571   0.012   0.508
 3050SOL     OW 9481   2.059   0.976   1.264
 3050SOL    HW1 9482   2.148   0.931   1.250
 3050SOL    HW2 9483   1.986   0.911   1.245
 3051SOL     OW 9484   3.387   0.999   0.190
 3051SOL    HW1 9485   3.324   0.923   0.203
 3051SOL    HW2 9486   3.435   1.017   0.276
 3052SOL     OW 9487   3.049   1.792   1.616
 3052SOL    HW1 9488   3.073   1.852   1.540
 3052SOL    HW2 9489   3.056   1.697   1.586
 3053SOL     OW 9490   2.179   0.251   1.801
 3053SOL    HW1 9491   2.250   0.322   1.807
 3053SOL    HW2 9492   2.091   0.290   1.829
 3054SOL     OW 9493   3.328   1.417   0.953
 3054SOL    HW1 9494   3.269   1.423   1.033
 3054SOL    HW2 9495   3.313   1.329   0.907
 3055SOL     OW 9496   3.529   1.714   0.572
 3055SOL    HW1 9497   3.488   1.691   0.484
 3055SOL    HW2 9498   3.511   1.640   0.637
 3056SOL     OW 9499   2.460   0.729   0.270
 3056SOL    HW1 9500   2.484   0.798   0.202
 3056SOL    HW2 9501   2.382   0.762   0.324
 3057SOL     OW 9502   3.143   0.345   0.944
 3057SOL    HW1 9503   3.057   0.295   0.931
 3057SOL    HW2 9504   3.205   0.291   1.000
 3058SOL     OW 9505   3.438   1.662   0.307
 3058SOL    HW1 9506   3.527   1.708   0.310
 3058SOL    HW2 9507   3.417   1.638   0.212
 3059SOL     OW 9508   2.669   0.605   1.465
 3059SOL    HW1 9509   2.622   0.602   1.554
 3059SOL    HW2 9510   2.618   0.550   1.399
 3060SOL     OW 9511   3.256   0.469   1.674
 3060SOL    HW1 9512   3.236   0.512   1.762
 3060SOL    HW2 9513   3.334   0.407   1.683
 3061SOL     OW 9514   2.835   0.890   1.572
 3061SOL    HW1 9515   2.881   0.806   1.543
 3061SOL    HW2 9516   2.779   0.924   1.497
 3062SOL     OW 9517   2.853   0.410   1.242
 3062SOL    HW1 9518   2.776   0.444   1.296
 3062SOL    HW2 9519   2.819   0.359   1.163
 3063SOL     OW 9520   2.903   0.701   0.429
 3063SOL    HW1 9521   2.929   0.697   0.525
 3063SOL    HW2 9522   2.818   0.650   0.415
 3064SOL     OW 9523   1.938   0.811   0.789
 3064SOL    HW1 9524   2.037   0.799   0.798
 3064SOL    HW2 9525   1.914   0.906   0.810
 3065SOL     OW 9526   1.992   1.821   1.571
 3065SOL    HW1 9527   1.982   1.806   1.670
 3065SOL    HW2 9528   1.906   1.857   1.535
 3066SOL     OW 9529   2.727   0.348   0.195
 3066SOL    HW1 9530   2.786   0.411   0.146
 3066SOL    HW2 9531   2.746   0.254   0.166
 3067SOL     OW 9532   3.581   0.585   1.831
 3067SOL    HW1 9533   3.555   0.674   1.795
 3067SOL    HW2 9534   3.579   0.517   1.758
 3068SOL     OW 9535   3.224   1.144   0.545
 3068SOL    HW1 9536   3.307   1.115   0.497
 3068SOL    HW2 9537   3.175   1.211   0.489
 3069SOL     OW 9538   2.412   0.196   0.885
 3069SOL    HW1 9539   2.407   0.191   0.985
 3069SOL    HW2 9540   2.414   0.292   0.856
 3070SOL     OW 9541   2.870   1.456   0.477
 3070SOL    HW1 9542   2.824   1.528   0.425
 3070SOL    HW2 9543   2.866   1.476   0.575
 3071SOL     OW 9544   2.213   1.801   0.853
 3071SOL    HW1 9545   2.263   1.715   0.859
 3071SOL    HW2 9546   2.278   1.878   0.850
 3072SOL     OW 9547   3.657   1.066   0.873
 3072SOL    HW1 9548   3.595   1.051   0.797
 3072SOL    HW2 9549   3.605   1.077   0.958
 3073SOL     OW 9550   3.089   1.550   1.506
 3073SOL    HW1 9551   3.095   1.473   1.570
 3073SOL    HW2 9552   3.037   1.524   1.426
 3074SOL     OW 9553   2.183   0.943   0.242
 3074SOL    HW1 9554   2.265   0.982   0.200
 3074SOL    HW2 9555   2.156   0.861   0.193
 3075SOL     OW 9556   3.320   0.735   0.728
 3075SOL    HW1 9557   3.315   0.670   0.803
 3075SOL    HW2 9558   3.400   0.794   0.741
 3076SOL     OW 9559   2.323   1.266   1.727
 3076SOL    HW1 9560   2.273   1.267   1.641
 3076SOL    HW2 9561   2.260   1.248   1.803
 3077SOL     OW 9562   2.973   1.776   0.237
 3077SOL    HW1 9563   2.913   1.714   0.287
 3077SOL    HW2 9564   3.004   1.732   0.152
 3078SOL     OW 9565   2.064   0.285   1.498
 3078SOL    HW1 9566   1.984   0.345   1.485
 3078SOL    HW2 9567   2.054   0.236   1.584
 3079SOL     OW 9568   3.494   1.377   0.081
 3079SOL    HW1 9569   3.462   1.471   0.071
 3079SOL    HW2 9570   3.418   1.314   0.069
 3080SOL     OW 9571   2.326   1.743   0.323
 3080SOL    HW1 9572   2.359   1.782   0.409
 3080SOL    HW2 9573   2.402   1.736   0.258
 3081SOL     OW 9574   3.262   0.107   0.426
 3081SOL    HW1 9575   3.238   0.070   0.336
 3081SOL    HW2 9576   3.361   0.123   0.430
 3082SOL     OW 9577   2.111   1.785   1.241
 3082SOL    HW1 9578   2.168   1.720   1.291
 3082SOL    HW2 9579   2.095   1.752   1.148
 3083SOL     OW 9580   2.802   1.698   0.904
 3083SOL    HW1 9581   2.882   1.641   0.925
 3083SOL    HW2 9582   2.753   1.658   0.827
 3084SOL     OW 9583   2.244   0.700   0.480
 3084SOL    HW1 9584   2.289   0.610   0.477
 3084SOL    HW2 9585   2.150   0.689   0.513
 3085SOL     OW 9586   3.409   0.222   1.729
 3085SOL    HW1 9587   3.404   0.259   1.821
 3085SOL    HW2 9588   3.337   0.153   1.717
 3086SOL     OW 9589   2.476   0.122   0.117
 3086SOL    HW1 9590   2.574   0.100   0.124
 3086SOL    HW2 9591   2.445   0.105   0.024
 3087SOL     OW 9592   2.643   0.264   1.749
 3087SOL    HW1 9593   2.710   0.203   1.792
 3087SOL    HW2 9594   2.570   0.283   1.814
 3088SOL     OW 9595   2.750   1.514   1.195
 3088SOL    HW1 9596   2.727   1.489   1.101
 3088SOL    HW2 9597   2.811   1.445   1.234
 3089SOL     OW 9598   3.213   0.590   1.433
 3089SOL    HW1 9599   3.241   0.547   1.518
 3089SOL    HW2 9600   3.238   0.686   1.434
 3090SOL     OW 9601   2.665   1.402   0.924
 3090SOL    HW1 9602   2.755   1.416   0.882
 3090SOL    HW2 9603   2.594   1.404   0.853
 3091SOL     OW 9604   2.784   0.503   0.899
 3091SOL    HW1 9605   2.759   0.494   0.803
 3091SOL    HW2 9606   2.832   0.421   0.930
 3092SOL     OW 9607   2.401   0.064   0.512
 3092SOL    HW1 9608   2.320   0.065   0.570
 3092SOL    HW2 9609   2.404   0.147   0.457
 3093SOL     OW 9610   3.296   1.188   0.041
 3093SOL    HW1 9611   3.328   1.112   0.098
 3093SOL    HW2 9612   3.204   1.215   0.071
 3094SOL     OW 9613   2.159   0.035   0.171
 3094SOL    HW1 9614   2.208   0.119   0.150
 3094SOL    HW2 9615   2.221  -0.030   0.216
 3095SOL     OW 9616   2.797   0.236   0.480
 3095SOL    HW1 9617   2.749   0.277   0.402
 3095SOL    HW2 9618   2.896   0.234   0.461
 3096SOL     OW 9619   2.938   0.683   1.464
 3096SOL    HW1 9620   2.858   0.622   1.467
 3096SOL    HW2 9621   3.019   0.630   1.440
 3097SOL     OW 9622   3.089   1.570   0.793
 3097SOL    HW1 9623   3.110   1.644   0.728
 3097SOL    HW2 9624   3.157   1.570   0.866
 3098SOL     OW 9625   2.321   1.152   0.741
 3098SOL    HW1 9626   2.250   1.125   0.806
 3098SOL    HW2 9627   2.295   1.124   0.648
 3099SOL     OW 9628   3.133   1.797   0.591
 3099SOL    HW1 9629   3.177   1.861   0.527
 3099SOL    HW2 9630   3.083   1.849   0.661
 3100SOL     OW 9631   2.894   0.549   0.016
 3100SOL    HW1 9632   2.853   0.631  -0.023
 3100SOL    HW2 9633   2.958   0.575   0.089
 3101SOL     OW 9634   1.940   0.556   1.386
 3101SOL    HW1 9635   2.032   0.555   1.345
 3101SOL    HW2 9636   1.934   0.630   1.453
 3102SOL     OW 9637   2.423   0.222   1.147
 3102SOL    HW1 9638   2.461   0.138   1.184
 3102SOL    HW2 9639   2.335   0.241   1.191
 3103SOL     OW 9640   2.728   0.454   0.642
 3103SOL    HW1 9641   2.696   0.526   0.580
 3103SOL    HW2 9642   2.752   0.373   0.589
 3104SOL     OW 9643   2.879   0.039   0.753
 3104SOL    HW1 9644   2.807   0.044   0.684
 3104SOL    HW2 9645   2.855  -0.030   0.822
 3105SOL     OW 9646   3.291   1.173   0.867
 3105SOL    HW1 9647   3.236   1.089   0.860
 3105SOL    HW2 9648   3.317   1.202   0.775
 3106SOL     OW 9649   3.328   0.590   0.992
 3106SOL    HW1 9650   3.298   0.495   0.999
 3106SOL    HW2 9651   3.401   0.606   1.058
 3107SOL     OW 9652   3.719   0.833   0.377
 3107SOL    HW1 9653   3.761   0.769   0.441
 3107SOL    HW2 9654   3.681   0.782   0.299
 3108SOL     OW 9655   2.350   1.385   0.174
 3108SOL    HW1 9656   2.263   1.370   0.221
 3108SOL    HW2 9657   2.333   1.411   0.079
 3109SOL     OW 9658   3.526   1.280   0.657
 3109SOL    HW1 9659   3.625   1.288   0.671
 3109SOL    HW2 9660   3.481   1.364   0.688
 3110SOL     OW 9661   3.252   0.575   0.078
 3110SOL    HW1 9662   3.198   0.554   0.159
 3110SOL    HW2 9663   3.343   0.534   0.087
 3111SOL     OW 9664   2.389   0.256   0.328
 3111SOL    HW1 9665   2.416   0.197   0.253
 3111SOL    HW2 9666   2.389   0.351   0.297
 3112SOL     OW 9667   3.616   1.223   1.588
 3112SOL    HW1 9668   3.707   1.184   1.575
 3112SOL    HW2 9669   3.624   1.319   1.612
 3113SOL     OW 9670   2.926   1.347   1.340
 3113SOL    HW1 9671   2.846   1.324   1.395
 3113SOL    HW2 9672   3.009   1.321   1.389
 3114SOL     OW 9673   3.454   1.629   1.625
 3114SOL    HW1 9674   3.481   1.663   1.535
 3114SOL    HW2 9675   3.533   1.591   1.671
 3115SOL     OW 9676   2.973   1.195   1.100
 3115SOL    HW1 9677   2.933   1.239   1.181
 3115SOL    HW2 9678   2.932   1.232   1.017
 3116SOL     OW 9679   3.500   1.099   1.079
 3116SOL    HW1 9680   3.505   1.180   1.138
 3116SOL    HW2 9681   3.414   1.101   1.028
 3117SOL     OW 9682   2.777   0.089   1.402
 3117SOL    HW1 9683   2.802   0.069   1.307
 3117SOL    HW2 9684   2.849   0.145   1.444
 3118SOL     OW 9685   2.842   1.116   1.719
 3118SOL    HW1 9686   2.743   1.122   1.729
 3118SOL    HW2 9687   2.865   1.036   1.663
 3119SOL     OW 9688   2.567   1.050   0.368
 3119SOL    HW1 9689   2.553   1.057   0.467
 3119SOL    HW2 9690   2.651   0.999   0.350
 3120SOL     OW 9691   2.272   0.813   1.251
 3120SOL    HW1 9692   2.358   0.825   1.301
 3120SOL    HW2 9693   2.230   0.726   1.278
 3121SOL     OW 9694   3.136   0.386   1.262
 3121SOL    HW1 9695   3.157   0.460   1.326
 3121SOL    HW2 9696   3.047   0.403   1.219
 3122SOL     OW 9697   1.926   1.564   1.331
 3122SOL    HW1 9698   1.880   1.646   1.297
 3122SOL    HW2 9699   2.024   1.583   1.340
 3123SOL     OW 9700   2.229   1.100   0.501
 3123SOL    HW1 9701   2.222   1.183   0.445
 3123SOL    HW2 9702   2.233   1.020   0.441
 3124SOL     OW 9703   2.428   0.537   0.865
 3124SOL    HW1 9704   2.440   0.603   0.791
 3124SOL    HW2 9705   2.474   0.571   0.948
 3125SOL     OW 9706   3.114   1.348   0.388
 3125SOL    HW1 9707   3.164   1.425   0.428
 3125SOL    HW2 9708   3.019   1.350   0.420
 3126SOL     OW 9709   3.134   1.445   1.142
 3126SOL    HW1 9710   3.181   1.458   1.229
 3126SOL    HW2 9711   3.068   1.371   1.151
 3127SOL     OW 9712   3.444   0.639   0.472
 3127SOL    HW1 9713   3.413   0.700   0.545
 3127SOL    HW2 9714   3.494   0.691   0.403
 3128SOL     OW 9715   2.216   1.510   1.329
 3128SOL    HW1 9716   2.195   1.466   1.242
 3128SOL    HW2 9717   2.313   1.536   1.332
 3129SOL     OW 9718   2.264   0.751   1.598
 3129SOL    HW1 9719   2.332   0.806   1.551
 3129SOL    HW2 9720   2.304   0.663   1.625
 3130SOL     OW 9721   3.449   0.779   1.670
 3130SOL    HW1 9722   3.357   0.817   1.665
 3130SOL    HW2 9723   3.509   0.826   1.605
 3131SOL     OW 9724   2.875   0.105   1.770
 3131SOL    HW1 9725   2.881   0.190   1.718
 3131SOL    HW2 9726   2.907   0.029   1.713
 3132SOL     OW 9727   2.366   0.050   1.740
 3132SOL    HW1 9728   2.324  -0.007   1.670
 3132SOL    HW2 9729   2.300   0.119   1.772
 3133SOL     OW 9730   2.435   0.870   1.029
 3133SOL    HW1 9731   2.479   0.959   1.020
 3133SOL    HW2 9732   2.372   0.870   1.106
 3134SOL     OW 9733   3.222   0.862   1.045
 3134SOL    HW1 9734   3.147   0.862   0.979
 3134SOL    HW2 9735   3.259   0.770   1.054
 3135SOL     OW 9736   3.071   0.525   0.275
 3135SOL    HW1 9737   3.084   0.441   0.329
 3135SOL    HW2 9738   3.042   0.599   0.335
 3136SOL     OW 9739   2.169   0.213   1.231
 3136SOL    HW1 9740   2.146   0.250   1.321
 3136SOL    HW2 9741   2.139   0.118   1.225
 3137SOL     OW 9742   1.899   1.310   1.282
 3137SOL    HW1 9743   1.952   1.261   1.350
 3137SOL    HW2 9744   1.921   1.408   1.287
 3138SOL     OW 9745   2.594   0.634   1.064
 3138SOL    HW1 9746   2.653   0.608   0.988
 3138SOL    HW2 9747   2.566   0.730   1.053
 3139SOL     OW 9748   3.590   0.935   1.854
 3139SOL    HW1 9749   3.544   0.928   1.765
 3139SOL    HW2 9750   3.528   0.979   1.920
 3140SOL     OW 9751   2.169   0.063   0.618
 3140SOL    HW1 9752   2.158   0.157   0.651
 3140SOL    HW2 9753   2.164   0.000   0.695
 3141SOL     OW 9754   3.484   0.367   0.374
 3141SOL    HW1 9755   3.486   0.291   0.438
 3141SOL    HW2 9756   3.436   0.444   0.414
 3142SOL     OW 9757   2.885   0.766   0.966
 3142SOL    HW1 9758   2.900   0.787   1.062
 3142SOL    HW2 9759   2.855   0.671   0.957
 3143SOL     OW 9760   2.842   1.573   1.700
 3143SOL    HW1 9761   2.822   1.617   1.612
 3143SOL    HW2 9762   2.881   1.482   1.684
 3144SOL     OW 9763   3.721   1.518   1.605
 3144SOL    HW1 9764   3.735   1.545   1.510
 3144SOL    HW2 9765   3.804   1.540   1.658
 3145SOL     OW 9766   2.212   0.898   1.804
 3145SOL    HW1 9767   2.288   0.942   1.852
 3145SOL    HW2 9768   2.247   0.851   1.722
 3146SOL     OW 9769   3.402   0.274   0.125
 3146SOL    HW1 9770   3.341   0.199   0.148
 3146SOL    HW2 9771   3.424   0.326   0.208
 3147SOL     OW 9772   3.165   0.838   0.042
 3147SOL    HW1 9773   3.199   0.745   0.057
 3147SOL    HW2 9774   3.183   0.865  -0.053
 3148SOL     OW 9775   2.930   1.333   0.849
 3148SOL    HW1 9776   2.937   1.249   0.794
 3148SOL    HW2 9777   2.992   1.402   0.813
 3149SOL     OW 9778   2.181   0.810   0.949
 3149SOL    HW1 9779   2.274   0.846   0.954
 3149SOL    HW2 9780   2.175   0.725   1.001
 3150SOL     OW 9781   2.201   0.509   1.006
 3150SOL    HW1 9782   2.149   0.426   0.989
 3150SOL    HW2 9783   2.278   0.514   0.942
 3151SOL     OW 9784   3.000   0.380   1.678
 3151SOL    HW1 9785   2.955   0.443   1.742
 3151SOL    HW2 9786   3.093   0.411   1.661
 3152SOL     OW 9787   3.022   0.207   1.477
 3152SOL    HW1 9788   3.022   0.271   1.554
 3152SOL    HW2 9789   3.050   0.255   1.394
 3153SOL     OW 9790   1.870   1.326   0.200
 3153SOL    HW1 9791   1.777   1.347   0.169
 3153SOL    HW2 9792   1.880   1.227   0.213
 3154SOL     OW 9793   1.950   1.801   0.927
 3154SOL    HW1 9794   1.908   1.715   0.900
 3154SOL    HW2 9795   2.044   1.804   0.893
 3155SOL     OW 9796   2.366   1.568   0.910
 3155SOL    HW1 9797   2.432   1.642   0.919
 3155SOL    HW2 9798   2.410   1.489   0.868
 3156SOL     OW 9799   2.864   0.796   1.238
 3156SOL    HW1 9800   2.905   0.764   1.324
 3156SOL    HW2 9801   2.768   0.769   1.235
 3157SOL     OW 9802   1.902   0.544   1.114
 3157SOL    HW1 9803   1.987   0.511   1.073
 3157SOL    HW2 9804   1.915   0.559   1.212
 3158SOL     OW 9805   2.051   0.520   1.722
 3158SOL    HW1 9806   2.110   0.480   1.652
 3158SOL    HW2 9807   1.993   0.591   1.681
 3159SOL     OW 9808   3.231   0.950   1.660
 3159SOL    HW1 9809   3.270   1.039   1.680
 3159SOL    HW2 9810   3.241   0.930   1.563
 3160SOL     OW 9811   2.677   0.572   0.325
 3160SOL    HW1 9812   2.684   0.483   0.279
 3160SOL    HW2 9813   2.583   0.606   0.317
 3161SOL     OW 9814   3.519   0.604   1.206
 3161SOL    HW1 9815   3.481   0.535   1.268
 3161SOL    HW2 9816   3.601   0.568   1.162
 3162SOL     OW 9817   2.114   1.564   1.744
 3162SOL    HW1 9818   2.084   1.621   1.820
 3162SOL    HW2 9819   2.107   1.467   1.770
 3163SOL     OW 9820   2.533   0.464   1.269
 3163SOL    HW1 9821   2.499   0.375   1.239
 3163SOL    HW2 9822   2.559   0.518   1.189
 3164SOL     OW 9823   2.792   1.678   1.465
 3164SOL    HW1 9824   2.768   1.660   1.370
 3164SOL    HW2 9825   2.822   1.772   1.475
 3165SOL     OW 9826   2.335   0.500   0.191
 3165SOL    HW1 9827   2.396   0.580   0.195
 3165SOL    HW2 9828   2.240   0.531   0.198
 3166SOL     OW 9829   2.021   1.137   1.466
 3166SOL    HW1 9830   2.043   1.076   1.542
 3166SOL    HW2 9831   2.031   1.088   1.380
 3167SOL     OW 9832   3.209   1.059   1.234
 3167SOL    HW1 9833   3.233   0.996   1.160
 3167SOL    HW2 9834   3.119   1.099   1.216
 3168SOL     OW 9835   3.164   0.855   0.309
 3168SOL    HW1 9836   3.078   0.824   0.351
 3168SOL    HW2 9837   3.160   0.841   0.210
 3169SOL     OW 9838   3.621   1.747   1.154
 3169SOL    HW1 9839   3.682   1.777   1.081
 3169SOL    HW2 9840   3.583   1.658   1.132
 3170SOL     OW 9841   3.114   1.731   1.128
 3170SOL    HW1 9842   3.198   1.736   1.074
 3170SOL    HW2 9843   3.091   1.635   1.146
 3171SOL     OW 9844   1.945   1.258   1.022
 3171SOL    HW1 9845   1.940   1.257   1.122
 3171SOL    HW2 9846   1.862   1.217   0.984
 3172SOL     OW 9847   2.550   1.662   1.716
 3172SOL    HW1 9848   2.494   1.743   1.725
 3172SOL    HW2 9849   2.602   1.666   1.630
 3173SOL     OW 9850   2.765   0.086   0.133
 3173SOL    HW1 9851   2.816   0.087   0.047
 3173SOL    HW2 9852   2.821   0.044   0.204
 3174SOL     OW 9853   3.588   0.135   0.523
 3174SOL    HW1 9854   3.661   0.118   0.456
 3174SOL    HW2 9855   3.557   0.048   0.561
 3175SOL     OW 9856   3.250   1.573   0.477
 3175SOL    HW1 9857   3.317   1.585   0.403
 3175SOL    HW2 9858   3.210   1.662   0.500
 3176SOL     OW 9859   1.992   1.794   1.851
 3176SOL    HW1 9860   1.951   1.720   1.904
 3176SOL    HW2 9861   2.056   1.845   1.909
 3177SOL     OW 9862   3.142   0.927   0.672
 3177SOL    HW1 9863   3.202   0.846   0.674
 3177SOL    HW2 9864   3.182   0.996   0.612
 3178SOL     OW 9865   2.692   1.273   1.422
 3178SOL    HW1 9866   2.687   1.306   1.517
 3178SOL    HW2 9867   2.606   1.292   1.376
 3179SOL     OW 9868   2.534   1.616   0.154
 3179SOL    HW1 9869   2.543   1.626   0.055
 3179SOL    HW2 9870   2.494   1.527   0.175
 3180SOL     OW 9871   3.512   1.720   1.394
 3180SOL    HW1 9872   3.565   1.730   1.310
 3180SOL    HW2 9873   3.485   1.810   1.428
 3181SOL     OW 9874   3.703   0.175   0.963
 3181SOL    HW1 9875   3.742   0.090   0.927
 3181SOL    HW2 9876   3.605   0.177   0.944
 3182SOL     OW 9877   2.125   0.326   0.720
 3182SOL    HW1 9878   2.046   0.377   0.686
 3182SOL    HW2 9879   2.116   0.311   0.818
 3183SOL     OW 9880   3.056   1.612   0.031
 3183SOL    HW1 9881   3.062   1.519   0.068
 3183SOL    HW2 9882   2.997   1.612  -0.049
 3184SOL     OW 9883   2.684   1.002   1.372
 3184SOL    HW1 9884   2.724   1.001   1.280
 3184SOL    HW2 9885   2.694   1.094   1.412
 3185SOL     OW 9886   2.778   0.910   0.291
 3185SOL    HW1 9887   2.841   0.948   0.223
 3185SOL    HW2 9888   2.818   0.827   0.330
 3186SOL     OW 9889   3.366   1.607   0.044
 3186SOL    HW1 9890   3.274   1.644   0.051
 3186SOL    HW2 9891   3.404   1.627  -0.046
 3187SOL     OW 9892   2.234   1.288   1.490
 3187SOL    HW1 9893   2.221   1.381   1.456
 3187SOL    HW2 9894   2.150   1.236   1.477
 3188SOL     OW 9895   3.476   1.292   1.289
 3188SOL    HW1 9896   3.536   1.295   1.369
 3188SOL    HW2 9897   3.401   1.356   1.302
 3189SOL     OW 9898   2.901   1.098   0.696
 3189SOL    HW1 9899   2.831   1.051   0.750
 3189SOL    HW2 9900   2.960   1.030   0.653
 3190SOL     OW 9901   2.876   0.236   0.971
 3190SOL    HW1 9902   2.868   0.200   0.878
 3190SOL    HW2 9903   2.874   0.160   1.036
 3191SOL     OW 9904   2.452   1.487   0.491
 3191SOL    HW1 9905   2.494   1.429   0.421
 3191SOL    HW2 9906   2.408   1.566   0.447
 3192SOL     OW 9907   3.571   0.385   1.381
 3192SOL    HW1 9908   3.644   0.454   1.385
 3192SOL    HW2 9909   3.599   0.310   1.322
 3193SOL     OW 9910   2.117   1.348   0.290
 3193SOL    HW1 9911   2.021   1.349   0.263
 3193SOL    HW2 9912   2.129   1.401   0.374
 3194SOL     OW 9913   1.967   1.013   1.726
 3194SOL    HW1 9914   1.890   0.980   1.780
 3194SOL    HW2 9915   2.052   0.983   1.768
 3195SOL     OW 9916   2.534   0.203   1.489
 3195SOL    HW1 9917   2.624   0.187   1.449
 3195SOL    HW2 9918   2.542   0.208   1.588
 3196SOL     OW 9919   3.302   0.856   1.398
 3196SOL    HW1 9920   3.245   0.908   1.335
 3196SOL    HW2 9921   3.398   0.868   1.374
 3197SOL     OW 9922   1.934   0.166   0.318
 3197SOL    HW1 9923   1.917   0.249   0.264
 3197SOL    HW2 9924   2.024   0.129   0.296
 3198SOL     OW 9925   3.045   1.335   0.119
 3198SOL    HW1 9926   2.946   1.324   0.121
 3198SOL    HW2 9927   3.079   1.350   0.212
 3199SOL     OW 9928   2.475   0.842   1.431
 3199SOL    HW1 9929   2.531   0.923   1.414
 3199SOL    HW2 9930   2.534   0.762   1.434
 3200SOL     OW 9931   3.355   1.767   0.959
 3200SOL    HW1 9932   3.388   1.831   0.890
 3200SOL    HW2 9933   3.421   1.761   1.034
 3201SOL     OW 9934   2.578   0.565   1.708
 3201SOL    HW1 9935   2.597   0.630   1.782
 3201SOL    HW2 9936   2.638   0.485   1.717
 3202SOL     OW 9937   3.312   1.220   1.633
 3202SOL    HW1 9938   3.303   1.210   1.732
 3202SOL    HW2 9939   3.408   1.213   1.607
 3203SOL     OW 9940   2.252   1.741   1.560
 3203SOL    HW1 9941   2.161   1.782   1.558
 3203SOL    HW2 9942   2.245   1.647   1.592
 3204SOL     OW 9943   3.536   0.883   1.254
 3204SOL    HW1 9944   3.509   0.794   1.217
 3204SOL    HW2 9945   3.537   0.951   1.181
 3205SOL     OW 9946   3.087   0.325   0.449
 3205SOL    HW1 9947   3.152   0.251   0.438
 3205SOL    HW2 9948   3.107   0.375   0.533
 3206SOL     OW 9949   2.456   0.745   0.652
 3206SOL    HW1 9950   2.506   0.830   0.633
 3206SOL    HW2 9951   2.368   0.747   0.604
 3207SOL     OW 9952   3.639   0.342   1.642
 3207SOL    HW1 9953   3.622   0.373   1.548
 3207SOL    HW2 9954   3.555   0.305   1.680
 3208SOL     OW 9955   3.592   0.934   1.517
 3208SOL    HW1 9956   3.630   1.025   1.532
 3208SOL    HW2 9957   3.584   0.917   1.418
 3209SOL     OW 9958   2.721   1.374   0.016
 3209SOL    HW1 9959   2.675   1.389   0.104
 3209SOL    HW2 9960   2.765   1.459  -0.014
 3210SOL     OW 9961   2.523   1.790   0.953
 3210SOL    HW1 9962   2.477   1.878   0.940
 3210SOL    HW2 9963   2.622   1.802   0.946
 3211SOL     OW 9964   2.721   0.956   0.861
 3211SOL    HW1 9965   2.775   0.887   0.909
 3211SOL    HW2 9966   2.689   1.025   0.927
 3212SOL     OW 9967   2.945   0.984   0.087
 3212SOL    HW1 9968   2.922   1.037   0.005
 3212SOL    HW2 9969   3.026   0.928   0.068
 3213SOL     OW 9970   3.723   1.569   0.851
 3213SOL    HW1 9971   3.652   1.557   0.781
 3213SOL    HW2 9972   3.724   1.490   0.911
 3214SOL     OW 9973   2.083   1.314   1.844
 3214SOL    HW1 9974   2.018   1.241   1.823
 3214SOL    HW2 9975   2.087   1.328   1.942
 3215SOL     OW 9976   1.941   1.240   0.653
 3215SOL    HW1 9977   1.940   1.193   0.741
 3215SOL    HW2 9978   2.023   1.212   0.602
 3216SOL     OW 9979   2.534   1.391   1.624
 3216SOL    HW1 9980   2.456   1.341   1.662
 3216SOL    HW2 9981   2.531   1.486   1.655
 3217SOL     OW 9982   3.686   0.192   1.227
 3217SOL    HW1 9983   3.682   0.102   1.271
 3217SOL    HW2 9984   3.689   0.181   1.128
 3218SOL     OW 9985   2.290   0.424   0.520
 3218SOL    HW1 9986   2.320   0.352   0.458
 3218SOL    HW2 9987   2.251   0.384   0.603
 3219SOL     OW 9988   3.567   1.487   1.104
 3219SOL    HW1 9989   3.474   1.462   1.077
 3219SOL    HW2 9990   3.593   1.437   1.186
 3220SOL     OW 9991   2.179   0.547   1.280
 3220SOL    HW1 9992   2.217   0.488   1.352
 3220SOL    HW2 9993   2.219   0.521   1.192
 3221SOL     OW 9994   2.674   1.586   0.687
 3221SOL    HW1 9995   2.706   1.596   0.593
 3221SOL    HW2 9996   2.595   1.524   0.689
 3222SOL     OW 9997   3.286   0.214   1.112
 3222SOL    HW1 9998   3.338   0.149   1.167
 3222SOL    HW2 9999   3.237   0.277   1.173
 3223SOL     OW10000   2.863   0.034   1.154
 3223SOL    HW110001   2.800  -0.038   1.123
 3223SOL    HW210002   2.956  -0.002   1.154
 3224SOL     OW10003   2.632   1.330   0.301
 3224SOL    HW110004   2.586   1.243   0.318
 3224SOL    HW210005   2.723   1.327   0.342
 3225SOL     OW10006   2.480   1.567   1.284
 3225SOL    HW110007   2.475   1.649   1.341
 3225SOL    HW210008   2.569   1.564   1.239
 3226SOL     OW10009   3.214   0.052   0.168
 3226SOL    HW110010   3.249   0.011   0.084
 3226SOL    HW210011   3.124   0.014   0.188
 3227SOL     OW10012   3.162   0.453   0.691
 3227SOL    HW110013   3.103   0.533   0.695
 3227SOL    HW210014   3.177   0.418   0.784
 3228SOL     OW10015   3.455   0.221   0.882
 3228SOL    HW110016   3.371   0.220   0.936
 3228SOL    HW210017   3.457   0.304   0.826
 3229SOL     OW10018   1.901   1.077   0.300
 3229SOL    HW110019   2.000   1.066   0.291
 3229SOL    HW210020   1.861   0.991   0.332
 3230SOL     OW10021   2.737   1.646   0.337
 3230SOL    HW110022   2.660   1.611   0.283
 3230SOL    HW210023   2.705   1.717   0.399
 3231SOL     OW10024   2.092   0.628   1.975
 3231SOL    HW110025   1.999   0.626   2.012
 3231SOL    HW210026   2.093   0.589   1.883
 3232SOL     OW10027   2.087   0.275   2.858
 3232SOL    HW110028   2.122   0.258   2.950
 3232SOL    HW210029   1.999   0.230   2.846
 3233SOL     OW10030   1.881   0.368   2.509
 3233SOL    HW110031   1.799   0.411   2.548
 3233SOL    HW210032   1.853   0.295   2.446
 3234SOL     OW10033   2.431   1.275   3.027
 3234SOL    HW110034   2.338   1.268   2.990
 3234SOL    HW210035   2.442   1.364   3.071
 3235SOL     OW10036   3.417   1.511   2.565
 3235SOL    HW110037   3.360   1.495   2.646
 3235SOL    HW210038   3.358   1.521   2.485
 3236SOL     OW10039   2.997   0.703   2.579
 3236SOL    HW110040   3.054   0.781   2.554
 3236SOL    HW210041   2.937   0.729   2.655
 3237SOL     OW10042   3.617   0.607   2.093
 3237SOL    HW110043   3.605   0.594   1.994
 3237SOL    HW210044   3.587   0.526   2.142
 3238SOL     OW10045   2.630   1.144   2.885
 3238SOL    HW110046   2.552   1.161   2.945
 3238SOL    HW210047   2.664   1.231   2.849
 3239SOL     OW10048   2.712   0.798   3.685
 3239SOL    HW110049   2.708   0.874   3.750
 3239SOL    HW210050   2.734   0.834   3.594
 3240SOL     OW10051   2.547   1.012   2.527
 3240SOL    HW110052   2.616   0.996   2.597
 3240SOL    HW210053   2.474   1.069   2.565
 3241SOL     OW10054   2.548   1.161   3.665
 3241SOL    HW110055   2.608   1.240   3.679
 3241SOL    HW210056   2.462   1.192   3.624
 3242SOL     OW10057   2.197   1.435   2.923
 3242SOL    HW110058   2.119   1.404   2.870
 3242SOL    HW210059   2.255   1.493   2.866
 3243SOL     OW10060   3.322   1.505   3.201
 3243SOL    HW110061   3.346   1.599   3.227
 3243SOL    HW210062   3.306   1.451   3.283
 3244SOL     OW10063   2.300   0.392   3.361
 3244SOL    HW110064   2.382   0.336   3.370
 3244SOL    HW210065   2.219   0.334   3.365
 3245SOL     OW10066   3.465   0.447   2.599
 3245SOL    HW110067   3.391   0.493   2.549
 3245SOL    HW210068   3.516   0.515   2.652
 3246SOL     OW10069   2.093   1.713   2.345
 3246SOL    HW110070   2.127   1.790   2.399
 3246SOL    HW210071   2.137   1.713   2.255
 3247SOL     OW10072   2.989   1.341   3.552
 3247SOL    HW110073   3.036   1.341   3.640
 3247SOL    HW210074   2.941   1.254   3.541
 3248SOL     OW10075   2.092   1.434   2.400
 3248SOL    HW110076   2.066   1.530   2.400
 3248SOL    HW210077   2.021   1.380   2.445
 3249SOL     OW10078   2.102   1.091   2.748
 3249SOL    HW110079   2.116   1.007   2.800
 3249SOL    HW210080   2.047   1.155   2.803
 3250SOL     OW10081   2.482   1.786   3.301
 3250SOL    HW110082   2.390   1.769   3.336
 3250SOL    HW210083   2.510   1.878   3.327
 3251SOL     OW10084   2.468   0.964   1.985
 3251SOL    HW110085   2.475   1.048   1.931
 3251SOL    HW210086   2.514   0.977   2.073
 3252SOL     OW10087   3.456   0.114   3.342
 3252SOL    HW110088   3.438   0.181   3.270
 3252SOL    HW210089   3.453   0.160   3.431
 3253SOL     OW10090   1.984   0.643   2.425
 3253SOL    HW110091   1.939   0.555   2.442
 3253SOL    HW210092   1.983   0.697   2.509
 3254SOL     OW10093   3.704   1.767   2.221
 3254SOL    HW110094   3.758   1.738   2.301
 3254SOL    HW210095   3.734   1.857   2.192
 3255SOL     OW10096   1.889   1.596   1.979
 3255SOL    HW110097   1.870   1.500   2.000
 3255SOL    HW210098   1.856   1.654   2.054
 3256SOL     OW10099   3.551   0.922   2.474
 3256SOL    HW110100   3.646   0.893   2.482
 3256SOL    HW210101   3.543   0.987   2.399
 3257SOL     OW10102   3.503   1.108   2.294
 3257SOL    HW110103   3.589   1.110   2.242
 3257SOL    HW210104   3.517   1.155   2.382
 3258SOL     OW10105   1.975   0.737   3.459
 3258SOL    HW110106   2.063   0.724   3.504
 3258SOL    HW210107   1.962   0.834   3.437
 3259SOL     OW10108   2.475   1.365   2.588
 3259SOL    HW110109   2.426   1.278   2.597
 3259SOL    HW210110   2.452   1.408   2.501
 3260SOL     OW10111   3.155   1.228   3.285
 3260SOL    HW110112   3.192   1.155   3.227
 3260SOL    HW210113   3.207   1.233   3.370
 3261SOL     OW10114   2.671   0.004   2.364
 3261SOL    HW110115   2.711   0.095   2.355
 3261SOL    HW210116   2.571   0.012   2.370
 3262SOL     OW10117   2.059   0.976   3.126
 3262SOL    HW110118   2.148   0.931   3.112
 3262SOL    HW210119   1.986   0.911   3.107
 3263SOL     OW10120   3.387   0.999   2.052
 3263SOL    HW110121   3.324   0.923   2.065
 3263SOL    HW210122   3.435   1.017   2.138
 3264SOL     OW10123   3.049   1.792   3.478
 3264SOL    HW110124   3.073   1.852   3.402
 3264SOL    HW210125   3.056   1.697   3.448
 3265SOL     OW10126   2.179   0.251   3.663
 3265SOL    HW110127   2.250   0.322   3.669
 3265SOL    HW210128   2.091   0.290   3.691
 3266SOL     OW10129   3.328   1.417   2.815
 3266SOL    HW110130   3.269   1.423   2.895
 3266SOL    HW210131   3.313   1.329   2.769
 3267SOL     OW10132   3.529   1.714   2.434
 3267SOL    HW110133   3.488   1.691   2.346
 3267SOL    HW210134   3.511   1.640   2.499
 3268SOL     OW10135   2.460   0.729   2.132
 3268SOL    HW110136   2.484   0.798   2.064
 3268SOL    HW210137   2.382   0.762   2.186
 3269SOL     OW10138   3.143   0.345   2.806
 3269SOL    HW110139   3.057   0.295   2.793
 3269SOL    HW210140   3.205   0.291   2.862
 3270SOL     OW10141   3.438   1.662   2.169
 3270SOL    HW110142   3.527   1.708   2.172
 3270SOL    HW210143   3.417   1.638   2.074
 3271SOL     OW10144   2.669   0.605   3.327
 3271SOL    HW110145   2.622   0.602   3.416
 3271SOL    HW210146   2.618   0.550   3.261
 3272SOL     OW10147   3.256   0.469   3.536
 3272SOL    HW110148   3.236   0.512   3.624
 3272SOL    HW210149   3.334   0.407   3.545
 3273SOL     OW10150   2.835   0.890   3.434
 3273SOL    HW110151   2.881   0.806   3.405
 3273SOL    HW210152   2.779   0.924   3.359
 3274SOL     OW10153   2.853   0.410   3.104
 3274SOL    HW110154   2.776   0.444   3.158
 3274SOL    HW210155   2.819   0.359   3.025
 3275SOL     OW10156   2.903   0.701   2.291
 3275SOL    HW110157   2.929   0.697   2.387
 3275SOL    HW210158   2.818   0.650   2.277
 3276SOL     OW10159   1.938   0.811   2.651
 3276SOL    HW110160   2.037   0.799   2.660
 3276SOL    HW210161   1.914   0.906   2.672
 3277SOL     OW10162   1.992   1.821   3.433
 3277SOL    HW110163   1.982   1.806   3.532
 3277SOL    HW210164   1.906   1.857   3.397
 3278SOL     OW10165   2.727   0.348   2.057
 3278SOL    HW110166   2.786   0.411   2.008
 3278SOL    HW210167   2.746   0.254   2.028
 3279SOL     OW10168   3.581   0.585   3.693
 3279SOL    HW110169   3.555   0.674   3.657
 3279SOL    HW210170   3.579   0.517   3.620
 3280SOL     OW10171   3.224   1.144   2.407
 3280SOL    HW110172   3.307   1.115   2.359
 3280SOL    HW210173   3.175   1.211   2.351
 3281SOL     OW10174   2.412   0.196   2.747
 3281SOL    HW110175   2.407   0.191   2.847
 3281SOL    HW210176   2.414   0.292   2.718
 3282SOL     OW10177   2.870   1.456   2.339
 3282SOL    HW110178   2.824   1.528   2.287
 3282SOL    HW210179   2.866   1.476   2.437
 3283SOL     OW10180   2.213   1.801   2.715
 3283SOL    HW110181   2.263   1.715   2.721
 3283SOL    HW210182   2.278   1.878   2.712
 3284SOL     OW10183   3.657   1.066   2.735
 3284SOL    HW110184   3.595   1.051   2.659
 3284SOL    HW210185   3.605   1.077   2.820
 3285SOL     OW10186   3.089   1.550   3.368
 3285SOL    HW110187   3.095   1.473   3.432
 3285SOL    HW210188   3.037   1.524   3.288
 3286SOL     OW10189   2.183   0.943   2.104
 3286SOL    HW110190   2.265   0.982   2.062
 3286SOL    HW210191   2.156   0.861   2.055
 3287SOL     OW10192   3.320   0.735   2.590
 3287SOL    HW110193   3.315   0.670   2.665
 3287SOL    HW210194   3.400   0.794   2.603
 3288SOL     OW10195   2.323   1.266   3.589
 3288SOL    HW110196   2.273   1.267   3.503
 3288SOL    HW210197   2.260   1.248   3.665
 3289SOL     OW10198   2.973   1.776   2.099
 3289SOL    HW110199   2.913   1.714   2.149
 3289SOL    HW210200   3.004   1.732   2.014
 3290SOL     OW10201   2.064   0.285   3.360
 3290SOL    HW110202   1.984   0.345   3.347
 3290SOL    HW210203   2.054   0.236   3.446
 3291SOL     OW10204   3.494   1.377   1.943
 3291SOL    HW110205   3.462   1.471   1.933
 3291SOL    HW210206   3.418   1.314   1.931
 3292SOL     OW10207   2.326   1.743   2.185
 3292SOL    HW110208   2.359   1.782   2.271
 3292SOL    HW210209   2.402   1.736   2.120
 3293SOL     OW10210   3.262   0.107   2.288
 3293SOL    HW110211   3.238   0.070   2.198
 3293SOL    HW210212   3.361   0.123   2.292
 3294SOL     OW10213   2.111   1.785   3.103
 3294SOL    HW110214   2.168   1.720   3.153
 3294SOL    HW210215   2.095   1.752   3.010
 3295SOL     OW10216   2.802   1.698   2.766
 3295SOL    HW110217   2.882   1.641   2.787
 3295SOL    HW210218   2.753   1.658   2.689
 3296SOL     OW10219   2.244   0.700   2.342
 3296SOL    HW110220   2.289   0.610   2.339
 3296SOL    HW210221   2.150   0.689   2.375
 3297SOL     OW10222   3.409   0.222   3.591
 3297SOL    HW110223   3.404   0.259   3.683
 3297SOL    HW210224   3.337   0.153   3.579
 3298SOL     OW10225   2.476   0.122   1.979
 3298SOL    HW110226   2.574   0.100   1.986
 3298SOL    HW210227   2.445   0.105   1.886
 3299SOL     OW10228   2.643   0.264   3.611
 3299SOL    HW110229   2.710   0.203   3.654
 3299SOL    HW210230   2.570   0.283   3.676
 3300SOL     OW10231   2.750   1.514   3.057
 3300SOL    HW110232   2.727   1.489   2.963
 3300SOL    HW210233   2.811   1.445   3.096
 3301SOL     OW10234   3.213   0.590   3.295
 3301SOL    HW110235   3.241   0.547   3.380
 3301SOL    HW210236   3.238   0.686   3.296
 3302SOL     OW10237   2.665   1.402   2.786
 3302SOL    HW110238   2.755   1.416   2.744
 3302SOL    HW210239   2.594   1.404   2.715
 3303SOL     OW10240   2.784   0.503   2.761
 3303SOL    HW110241   2.759   0.494   2.665
 3303SOL    HW210242   2.832   0.421   2.792
 3304SOL     OW10243   2.401   0.064   2.374
 3304SOL    HW110244   2.320   0.065   2.432
 3304SOL    HW210245   2.404   0.147   2.319
 3305SOL     OW10246   3.296   1.188   1.903
 3305SOL    HW110247   3.328   1.112   1.960
 3305SOL    HW210248   3.204   1.215   1.933
 3306SOL     OW10249   2.159   0.035   2.033
 3306SOL    HW110250   2.208   0.119   2.012
 3306SOL    HW210251   2.221  -0.030   2.078
 3307SOL     OW10252   2.797   0.236   2.342
 3307SOL    HW110253   2.749   0.277   2.264
 3307SOL    HW210254   2.896   0.234   2.323
 3308SOL     OW10255   2.938   0.683   3.326
 3308SOL    HW110256   2.858   0.622   3.329
 3308SOL    HW210257   3.019   0.630   3.302
 3309SOL     OW10258   3.089   1.570   2.655
 3309SOL    HW110259   3.110   1.644   2.590
 3309SOL    HW210260   3.157   1.570   2.728
 3310SOL     OW10261   2.321   1.152   2.603
 3310SOL    HW110262   2.250   1.125   2.668
 3310SOL    HW210263   2.295   1.124   2.510
 3311SOL     OW10264   3.133   1.797   2.453
 3311SOL    HW110265   3.177   1.861   2.389
 3311SOL    HW210266   3.083   1.849   2.523
 3312SOL     OW10267   2.894   0.549   1.878
 3312SOL    HW110268   2.853   0.631   1.839
 3312SOL    HW210269   2.958   0.575   1.951
 3313SOL     OW10270   1.940   0.556   3.248
 3313SOL    HW110271   2.032   0.555   3.207
 3313SOL    HW210272   1.934   0.630   3.315
 3314SOL     OW10273   2.423   0.222   3.009
 3314SOL    HW110274   2.461   0.138   3.046
 3314SOL    HW210275   2.335   0.241   3.053
 3315SOL     OW10276   2.728   0.454   2.504
 3315SOL    HW110277   2.696   0.526   2.442
 3315SOL    HW210278   2.752   0.373   2.451
 3316SOL     OW10279   2.879   0.039   2.615
 3316SOL    HW110280   2.807   0.044   2.546
 3316SOL    HW210281   2.855  -0.030   2.684
 3317SOL     OW10282   3.291   1.173   2.729
 3317SOL    HW110283   3.236   1.089   2.722
 3317SOL    HW210284   3.317   1.202   2.637
 3318SOL     OW10285   3.328   0.590   2.854
 3318SOL    HW110286   3.298   0.495   2.861
 3318SOL    HW210287   3.401   0.606   2.920
 3319SOL     OW10288   3.719   0.833   2.239
 3319SOL    HW110289   3.761   0.769   2.303
 3319SOL    HW210290   3.681   0.782   2.161
 3320SOL     OW10291   2.350   1.385   2.036
 3320SOL    HW110292   2.263   1.370   2.083
 3320SOL    HW210293   2.333   1.411   1.941
 3321SOL     OW10294   3.526   1.280   2.519
 3321SOL    HW110295   3.625   1.288   2.533
 3321SOL    HW210296   3.481   1.364   2.550
 3322SOL     OW10297   3.252   0.575   1.940
 3322SOL    HW110298   3.198   0.554   2.021
 3322SOL    HW210299   3.343   0.534   1.949
 3323SOL     OW10300   2.389   0.256   2.190
 3323SOL    HW110301   2.416   0.197   2.115
 3323SOL    HW210302   2.389   0.351   2.159
 3324SOL     OW10303   3.616   1.223   3.450
 3324SOL    HW110304   3.707   1.184   3.437
 3324SOL    HW210305   3.624   1.319   3.474
 3325SOL     OW10306   2.926   1.347   3.202
 3325SOL    HW110307   2.846   1.324   3.257
 3325SOL    HW210308   3.009   1.321   3.251
 3326SOL     OW10309   3.454   1.629   3.487
 3326SOL    HW110310   3.481   1.663   3.397
 3326SOL    HW210311   3.533   1.591   3.533
 3327SOL     OW10312   2.973   1.195   2.962
 3327SOL    HW110313   2.933   1.239   3.043
 3327SOL    HW210314   2.932   1.232   2.879
 3328SOL     OW10315   3.500   1.099   2.941
 3328SOL    HW110316   3.505   1.180   3.000
 3328SOL    HW210317   3.414   1.101   2.890
 3329SOL     OW10318   2.777   0.089   3.264
 3329SOL    HW110319   2.802   0.069   3.169
 3329SOL    HW210320   2.849   0.145   3.306
 3330SOL     OW10321   2.842   1.116   3.581
 3330SOL    HW110322   2.743   1.122   3.591
 3330SOL    HW210323   2.865   1.036   3.525
 3331SOL     OW10324   2.567   1.050   2.230
 3331SOL    HW110325   2.553   1.057   2.329
 3331SOL    HW210326   2.651   0.999   2.212
 3332SOL     OW10327   2.272   0.813   3.113
 3332SOL    HW110328   2.358   0.825   3.163
 3332SOL    HW210329   2.230   0.726   3.140
 3333SOL     OW10330   3.136   0.386   3.124
 3333SOL    HW110331   3.157   0.460   3.188
 3333SOL    HW210332   3.047   0.403   3.081
 3334SOL     OW10333   1.926   1.564   3.193
 3334SOL    HW110334   1.880   1.646   3.159
 3334SOL    HW210335   2.024   1.583   3.202
 3335SOL     OW10336   2.229   1.100   2.363
 3335SOL    HW110337   2.222   1.183   2.307
 3335SOL    HW210338   2.233   1.020   2.303
 3336SOL     OW10339   2.428   0.537   2.727
 3336SOL    HW110340   2.440   0.603   2.653
 3336SOL    HW210341   2.474   0.571   2.810
 3337SOL     OW10342   3.114   1.348   2.250
 3337SOL    HW110343   3.164   1.425   2.290
 3337SOL    HW210344   3.019   1.350   2.282
 3338SOL     OW10345   3.134   1.445   3.004
 3338SOL    HW110346   3.181   1.458   3.091
 3338SOL    HW210347   3.068   1.371   3.013
 3339SOL     OW10348   3.444   0.639   2.334
 3339SOL    HW110349   3.413   0.700   2.407
 3339SOL    HW210350   3.494   0.691   2.265
 3340SOL     OW10351   2.216   1.510   3.191
 3340SOL    HW110352   2.195   1.466   3.104
 3340SOL    HW210353   2.313   1.536   3.194
 3341SOL     OW10354   2.264   0.751   3.460
 3341SOL    HW110355   2.332   0.806   3.413
 3341SOL    HW210356   2.304   0.663   3.487
 3342SOL     OW10357   3.449   0.779   3.532
 3342SOL    HW110358   3.357   0.817   3.527
 3342SOL    HW210359   3.509   0.826   3.467
 3343SOL     OW10360   2.875   0.105   3.632
 3343SOL    HW110361   2.881   0.190   3.580
 3343SOL    HW210362   2.907   0.029   3.575
 3344SOL     OW10363   2.366   0.050   3.602
 3344SOL    HW110364   2.324  -0.007   3.532
 3344SOL    HW210365   2.300   0.119   3.634
 3345SOL     OW10366   2.435   0.870   2.891
 3345SOL    HW110367   2.479   0.959   2.882
 3345SOL    HW210368   2.372   0.870   2.968
 3346SOL     OW10369   3.222   0.862   2.907
 3346SOL    HW110370   3.147   0.862   2.841
 3346SOL    HW210371   3.259   0.770   2.916
 3347SOL     OW10372   3.071   0.525   2.137
 3347SOL    HW110373   3.084   0.441   2.191
 3347SOL    HW210374   3.042   0.599   2.197
 3348SOL     OW10375   2.169   0.213   3.093
 3348SOL    HW110376   2.146   0.250   3.183
 3348SOL    HW210377   2.139   0.118   3.087
 3349SOL     OW10378   1.899   1.310   3.144
 3349SOL    HW110379   1.952   1.261   3.212
 3349SOL    HW210380   1.921   1.408   3.149
 3350SOL     OW10381   2.594   0.634   2.926
 3350SOL    HW110382   2.653   0.608   2.850
 3350SOL    HW210383   2.566   0.730   2.915
 3351SOL     OW10384   3.590   0.935   3.716
 3351SOL    HW110385   3.544   0.928   3.627
 3351SOL    HW210386   3.528   0.979   3.782
 3352SOL     OW10387   2.169   0.063   2.480
 3352SOL    HW110388   2.158   0.157   2.513
 3352SOL    HW210389   2.164   0.000   2.557
 3353SOL     OW10390   3.484   0.367   2.236
 3353SOL    HW110391   3.486   0.291   2.300
 3353SOL    HW210392   3.436   0.444   2.276
 3354SOL     OW10393   2.885   0.766   2.828
 3354SOL    HW110394   2.900   0.787   2.924
 3354SOL    HW210395   2.855   0.671   2.819
 3355SOL     OW10396   2.842   1.573   3.562
 3355SOL    HW110397   2.822   1.617   3.474
 3355SOL    HW210398   2.881   1.482   3.546
 3356SOL     OW10399   3.721   1.518   3.467
 3356SOL    HW110400   3.735   1.545   3.372
 3356SOL    HW210401   3.804   1.540   3.520
 3357SOL     OW10402   2.212   0.898   3.666
 3357SOL    HW110403   2.288   0.942   3.714
 3357SOL    HW210404   2.247   0.851   3.584
 3358SOL     OW10405   3.402   0.274   1.987
 3358SOL    HW110406   3.341   0.199   2.010
 3358SOL    HW210407   3.424   0.326   2.070
 3359SOL     OW10408   3.165   0.838   1.904
 3359SOL    HW110409   3.199   0.745   1.919
 3359SOL    HW210410   3.183   0.865   1.809
 3360SOL     OW10411   2.930   1.333   2.711
 3360SOL    HW110412   2.937   1.249   2.656
 3360SOL    HW210413   2.992   1.402   2.675
 3361SOL     OW10414   2.181   0.810   2.811
 3361SOL    HW110415   2.274   0.846   2.816
 3361SOL    HW210416   2.175   0.725   2.863
 3362SOL     OW10417   2.201   0.509   2.868
 3362SOL    HW110418   2.149   0.426   2.851
 3362SOL    HW210419   2.278   0.514   2.804
 3363SOL     OW10420   3.000   0.380   3.540
 3363SOL    HW110421   2.955   0.443   3.604
 3363SOL    HW210422   3.093   0.411   3.523
 3364SOL     OW10423   3.022   0.207   3.339
 3364SOL    HW110424   3.022   0.271   3.416
 3364SOL    HW210425   3.050   0.255   3.256
 3365SOL     OW10426   1.870   1.326   2.062
 3365SOL    HW110427   1.777   1.347   2.031
 3365SOL    HW210428   1.880   1.227   2.075
 3366SOL     OW10429   1.950   1.801   2.789
 3366SOL    HW110430   1.908   1.715   2.762
 3366SOL    HW210431   2.044   1.804   2.755
 3367SOL     OW10432   2.366   1.568   2.772
 3367SOL    HW110433   2.432   1.642   2.781
 3367SOL    HW210434   2.410   1.489   2.730
 3368SOL     OW10435   2.864   0.796   3.100
 3368SOL    HW110436   2.905   0.764   3.186
 3368SOL    HW210437   2.768   0.769   3.097
 3369SOL     OW10438   1.902   0.544   2.976
 3369SOL    HW110439   1.987   0.511   2.935
 3369SOL    HW210440   1.915   0.559   3.074
 3370SOL     OW10441   2.051   0.520   3.584
 3370SOL    HW110442   2.110   0.480   3.514
 3370SOL    HW210443   1.993   0.591   3.543
 3371SOL     OW10444   3.231   0.950   3.522
 3371SOL    HW110445   3.270   1.039   3.542
 3371SOL    HW210446   3.241   0.930   3.425
 3372SOL     OW10447   2.677   0.572   2.187
 3372SOL    HW110448   2.684   0.483   2.141
 3372SOL    HW210449   2.583   0.606   2.179
 3373SOL     OW10450   3.519   0.604   3.068
 3373SOL    HW110451   3.481   0.535   3.130
 3373SOL    HW210452   3.601   0.568   3.024
 3374SOL     OW10453   2.114   1.564   3.606
 3374SOL    HW110454   2.084   1.621   3.682
 3374SOL    HW210455   2.107   1.467   3.632
 3375SOL     OW10456   2.533   0.464   3.131
 3375SOL    HW110457   2.499   0.375   3.101
 3375SOL    HW210458   2.559   0.518   3.051
 3376SOL     OW10459   2.792   1.678   3.327
 3376SOL    HW110460   2.768   1.660   3.232
 3376SOL    HW210461   2.822   1.772   3.337
 3377SOL     OW10462   2.335   0.500   2.053
 3377SOL    HW110463   2.396   0.580   2.057
 3377SOL    HW210464   2.240   0.531   2.060
 3378SOL     OW10465   2.021   1.137   3.328
 3378SOL    HW110466   2.043   1.076   3.404
 3378SOL    HW210467   2.031   1.088   3.242
 3379SOL     OW10468   3.209   1.059   3.096
 3379SOL    HW110469   3.233   0.996   3.022
 3379SOL    HW210470   3.119   1.099   3.078
 3380SOL     OW10471   3.164   0.855   2.171
 3380SOL    HW110472   3.078   0.824   2.213
 3380SOL    HW210473   3.160   0.841   2.072
 3381SOL     OW10474   3.621   1.747   3.016
 3381SOL    HW110475   3.682   1.777   2.943
 3381SOL    HW210476   3.583   1.658   2.994
 3382SOL     OW10477   3.114   1.731   2.990
 3382SOL    HW110478   3.198   1.736   2.936
 3382SOL    HW210479   3.091   1.635   3.008
 3383SOL     OW10480   1.945   1.258   2.884
 3383SOL    HW110481   1.940   1.257   2.984
 3383SOL    HW210482   1.862   1.217   2.846
 3384SOL     OW10483   2.550   1.662   3.578
 3384SOL    HW110484   2.494   1.743   3.587
 3384SOL    HW210485   2.602   1.666   3.492
 3385SOL     OW10486   3.588   0.135   2.385
 3385SOL    HW110487   3.661   0.118   2.318
 3385SOL    HW210488   3.557   0.048   2.423
 3386SOL     OW10489   3.250   1.573   2.339
 3386SOL    HW110490   3.317   1.585   2.265
 3386SOL    HW210491   3.210   1.662   2.362
 3387SOL     OW10492   1.992   1.794   3.713
 3387SOL    HW110493   1.951   1.720   3.766
 3387SOL    HW210494   2.056   1.845   3.771
 3388SOL     OW10495   3.142   0.927   2.534
 3388SOL    HW110496   3.202   0.846   2.536
 3388SOL    HW210497   3.182   0.996   2.474
 3389SOL     OW10498   2.692   1.273   3.284
 3389SOL    HW110499   2.687   1.306   3.379
 3389SOL    HW210500   2.606   1.292   3.238
 3390SOL     OW10501   2.534   1.616   2.016
 3390SOL    HW110502   2.543   1.626   1.917
 3390SOL    HW210503   2.494   1.527   2.037
 3391SOL     OW10504   3.512   1.720   3.256
 3391SOL    HW110505   3.565   1.730   3.172
 3391SOL    HW210506   3.485   1.810   3.290
 3392SOL     OW10507   3.703   0.175   2.825
 3392SOL    HW110508   3.742   0.090   2.789
 3392SOL    HW210509   3.605   0.177   2.806
 3393SOL     OW10510   2.125   0.326   2.582
 3393SOL    HW110511   2.046   0.377   2.548
 3393SOL    HW210512   2.116   0.311   2.680
 3394SOL     OW10513   3.056   1.612   1.893
 3394SOL    HW110514   3.062   1.519   1.930
 3394SOL    HW210515   2.997   1.612   1.813
 3395SOL     OW10516   2.684   1.002   3.234
 3395SOL    HW110517   2.724   1.001   3.142
 3395SOL    HW210518   2.694   1.094   3.274
 3396SOL     OW10519   2.778   0.910   2.153
 3396SOL    HW110520   2.841   0.948   2.085
 3396SOL    HW210521   2.818   0.827   2.192
 3397SOL     OW10522   3.366   1.607   1.906
 3397SOL    HW110523   3.274   1.644   1.913
 3397SOL    HW210524   3.404   1.627   1.816
 3398SOL     OW10525   2.234   1.288   3.352
 3398SOL    HW110526   2.221   1.381   3.318
 3398SOL    HW210527   2.150   1.236   3.339
 3399SOL     OW10528   3.476   1.292   3.151
 3399SOL    HW110529   3.536   1.295   3.231
 3399SOL    HW210530   3.401   1.356   3.164
 3400SOL     OW10531   2.901   1.098   2.558
 3400SOL    HW110532   2.831   1.051   2.612
 3400SOL    HW210533   2.960   1.030   2.515
 3401SOL     OW10534   2.876   0.236   2.833
 3401SOL    HW110535   2.868   0.200   2.740
 3401SOL    HW210536   2.874   0.160   2.898
 3402SOL     OW10537   2.452   1.487   2.353
 3402SOL    HW110538   2.494   1.429   2.283
 3402SOL    HW210539   2.408   1.566   2.309
 3403SOL     OW10540   3.571   0.385   3.243
 3403SOL    HW110541   3.644   0.454   3.247
 3403SOL    HW210542   3.599   0.310   3.184
 3404SOL     OW10543   2.117   1.348   2.152
 3404SOL    HW110544   2.021   1.349   2.125
 3404SOL    HW210545   2.129   1.401   2.236
 3405SOL     OW10546   1.967   1.013   3.588
 3405SOL    HW110547   1.890   0.980   3.642
 3405SOL    HW210548   2.052   0.983   3.630
 3406SOL     OW10549   2.534   0.203   3.351
 3406SOL    HW110550   2.624   0.187   3.311
 3406SOL    HW210551   2.542   0.208   3.450
 3407SOL     OW10552   1.937   0.345   1.895
 3407SOL    HW110553   1.845   0.317   1.866
 3407SOL    HW210554   1.968   0.422   1.839
 3408SOL     OW10555   3.302   0.856   3.260
 3408SOL    HW110556   3.245   0.908   3.197
 3408SOL    HW210557   3.398   0.868   3.236
 3409SOL     OW10558   1.934   0.166   2.180
 3409SOL    HW110559   1.917   0.249   2.126
 3409SOL    HW210560   2.024   0.129   2.158
 3410SOL     OW10561   3.045   1.335   1.981
 3410SOL    HW110562   2.946   1.324   1.983
 3410SOL    HW210563   3.079   1.350   2.074
 3411SOL     OW10564   2.475   0.842   3.293
 3411SOL    HW110565   2.531   0.923   3.276
 3411SOL    HW210566   2.534   0.762   3.296
 3412SOL     OW10567   3.355   1.767   2.821
 3412SOL    HW110568   3.388   1.831   2.752
 3412SOL    HW210569   3.421   1.761   2.896
 3413SOL     OW10570   2.578   0.565   3.570
 3413SOL    HW110571   2.597   0.630   3.644
 3413SOL    HW210572   2.638   0.485   3.579
 3414SOL     OW10573   3.312   1.220   3.495
 3414SOL    HW110574   3.303   1.210   3.594
 3414SOL    HW210575   3.408   1.213   3.469
 3415SOL     OW10576   2.252   1.741   3.422
 3415SOL    HW110577   2.161   1.782   3.420
 3415SOL    HW210578   2.245   1.647   3.454
 3416SOL     OW10579   3.536   0.883   3.116
 3416SOL    HW110580   3.509   0.794   3.079
 3416SOL    HW210581   3.537   0.951   3.043
 3417SOL     OW10582   3.087   0.325   2.311
 3417SOL    HW110583   3.152   0.251   2.300
 3417SOL    HW210584   3.107   0.375   2.395
 3418SOL     OW10585   2.456   0.745   2.514
 3418SOL    HW110586   2.506   0.830   2.495
 3418SOL    HW210587   2.368   0.747   2.466
 3419SOL     OW10588   3.639   0.342   3.504
 3419SOL    HW110589   3.622   0.373   3.410
 3419SOL    HW210590   3.555   0.305   3.542
 3420SOL     OW10591   3.592   0.934   3.379
 3420SOL    HW110592   3.630   1.025   3.394
 3420SOL    HW210593   3.584   0.917   3.280
 3421SOL     OW10594   2.721   1.374   1.878
 3421SOL    HW110595   2.675   1.389   1.966
 3421SOL    HW210596   2.765   1.459   1.848
 3422SOL     OW10597   2.523   1.790   2.815
 3422SOL    HW110598   2.477   1.878   2.802
 3422SOL    HW210599   2.622   1.802   2.808
 3423SOL     OW10600   2.721   0.956   2.723
 3423SOL    HW110601   2.775   0.887   2.771
 3423SOL    HW210602   2.689   1.025   2.789
 3424SOL     OW10603   2.945   0.984   1.949
 3424SOL    HW110604   2.922   1.037   1.867
 3424SOL    HW210605   3.026   0.928   1.930
 3425SOL     OW10606   3.723   1.569   2.713
 3425SOL    HW110607   3.652   1.557   2.643
 3425SOL    HW210608   3.724   1.490   2.773
 3426SOL     OW10609   2.083   1.314   3.706
 3426SOL    HW110610   2.018   1.241   3.685
 3426SOL    HW210611   2.087   1.328   3.804
 3427SOL     OW10612   1.941   1.240   2.515
 3427SOL    HW110613   1.940   1.193   2.603
 3427SOL    HW210614   2.023   1.212   2.464
 3428SOL     OW10615   2.534   1.391   3.486
 3428SOL    HW110616   2.456   1.341   3.524
 3428SOL    HW210617   2.531   1.486   3.517
 3429SOL     OW10618   3.686   0.192   3.089
 3429SOL    HW110619   3.682   0.102   3.133
 3429SOL    HW210620   3.689   0.181   2.990
 3430SOL     OW10621   2.290   0.424   2.382
 3430SOL    HW110622   2.320   0.352   2.320
 3430SOL    HW210623   2.251   0.384   2.465
 3431SOL     OW10624   3.567   1.487   2.966
 3431SOL    HW110625   3.474   1.462   2.939
 3431SOL    HW210626   3.593   1.437   3.048
 3432SOL     OW10627   2.179   0.547   3.142
 3432SOL    HW110628   2.217   0.488   3.214
 3432SOL    HW210629   2.219   0.521   3.054
 3433SOL     OW10630   2.674   1.586   2.549
 3433SOL    HW110631   2.706   1.596   2.455
 3433SOL    HW210632   2.595   1.524   2.551
 3434SOL     OW10633   3.286   0.214   2.974
 3434SOL    HW110634   3.338   0.149   3.029
 3434SOL    HW210635   3.237   0.277   3.035
 3435SOL     OW10636   2.863   0.034   3.016
 3435SOL    HW110637   2.800  -0.038   2.985
 3435SOL    HW210638   2.956  -0.002   3.016
 3436SOL     OW10639   2.632   1.330   2.163
 3436SOL    HW110640   2.586   1.243   2.180
 3436SOL    HW210641   2.723   1.327   2.204
 3437SOL     OW10642   2.480   1.567   3.146
 3437SOL    HW110643   2.475   1.649   3.203
 3437SOL    HW210644   2.569   1.564   3.101
 3438SOL     OW10645   3.214   0.052   2.030
 3438SOL    HW110646   3.249   0.011   1.946
 3438SOL    HW210647   3.124   0.014   2.050
 3439SOL     OW10648   3.162   0.453   2.553
 3439SOL    HW110649   3.103   0.533   2.557
 3439SOL    HW210650   3.177   0.418   2.646
 3440SOL     OW10651   3.455   0.221   2.744
 3440SOL    HW110652   3.371   0.220   2.798
 3440SOL    HW210653   3.457   0.304   2.688
 3441SOL     OW10654   1.901   1.077   2.162
 3441SOL    HW110655   2.000   1.066   2.153
 3441SOL    HW210656   1.861   0.991   2.194
 3442SOL     OW10657   2.737   1.646   2.199
 3442SOL    HW110658   2.660   1.611   2.145
 3442SOL    HW210659   2.705   1.717   2.261
 3443SOL     OW10660   2.092   0.628   3.837
 3443SOL    HW110661   1.999   0.626   3.874
 3443SOL    HW210662   2.093   0.589   3.745
 3444SOL     OW10663   2.087   0.275   4.720
 3444SOL    HW110664   2.122   0.258   4.812
 3444SOL    HW210665   1.999   0.230   4.708
 3445SOL     OW10666   1.881   0.368   4.371
 3445SOL    HW110667   1.799   0.411   4.410
 3445SOL    HW210668   1.853   0.295   4.308
 3446SOL     OW10669   2.431   1.275   4.889
 3446SOL    HW110670   2.338   1.268   4.852
 3446SOL    HW210671   2.442   1.364   4.933
 3447SOL     OW10672   3.417   1.511   4.427
 3447SOL    HW110673   3.360   1.495   4.508
 3447SOL    HW210674   3.358   1.521   4.347
 3448SOL     OW10675   2.997   0.703   4.441
 3448SOL    HW110676   3.054   0.781   4.416
 3448SOL    HW210677   2.937   0.729   4.517
 3449SOL     OW10678   3.617   0.607   3.955
 3449SOL    HW110679   3.605   0.594   3.856
 3449SOL    HW210680   3.587   0.526   4.004
 3450SOL     OW10681   2.630   1.144   4.747
 3450SOL    HW110682   2.552   1.161   4.807
 3450SOL    HW210683   2.664   1.231   4.711
 3451SOL     OW10684   2.712   0.798   5.547
 3451SOL    HW110685   2.708   0.874   5.612
 3451SOL    HW210686   2.734   0.834   5.456
 3452SOL     OW10687   2.547   1.012   4.389
 3452SOL    HW110688   2.616   0.996   4.459
 3452SOL    HW210689   2.474   1.069   4.427
 3453SOL     OW10690   2.548   1.161   5.527
 3453SOL    HW110691   2.608   1.240   5.541
 3453SOL    HW210692   2.462   1.192   5.486
 3454SOL     OW10693   2.197   1.435   4.785
 3454SOL    HW110694   2.119   1.404   4.732
 3454SOL    HW210695   2.255   1.493   4.728
 3455SOL     OW10696   3.322   1.505   5.063
 3455SOL    HW110697   3.346   1.599   5.089
 3455SOL    HW210698   3.306   1.451   5.145
 3456SOL     OW10699   2.300   0.392   5.223
 3456SOL    HW110700   2.382   0.336   5.232
 3456SOL    HW210701   2.219   0.334   5.227
 3457SOL     OW10702   3.465   0.447   4.461
 3457SOL    HW110703   3.391   0.493   4.411
 3457SOL    HW210704   3.516   0.515   4.514
 3458SOL     OW10705   2.093   1.713   4.207
 3458SOL    HW110706   2.127   1.790   4.261
 3458SOL    HW210707   2.137   1.713   4.117
 3459SOL     OW10708   2.989   1.341   5.414
 3459SOL    HW110709   3.036   1.341   5.502
 3459SOL    HW210710   2.941   1.254   5.403
 3460SOL     OW10711   2.092   1.434   4.262
 3460SOL    HW110712   2.066   1.530   4.262
 3460SOL    HW210713   2.021   1.380   4.307
 3461SOL     OW10714   2.102   1.091   4.610
 3461SOL    HW110715   2.116   1.007   4.662
 3461SOL    HW210716   2.047   1.155   4.665
 3462SOL     OW10717   2.468   0.964   3.847
 3462SOL    HW110718   2.475   1.048   3.793
 3462SOL    HW210719   2.514   0.977   3.935
 3463SOL     OW10720   3.456   0.114   5.204
 3463SOL    HW110721   3.438   0.181   5.132
 3463SOL    HW210722   3.453   0.160   5.293
 3464SOL     OW10723   1.984   0.643   4.287
 3464SOL    HW110724   1.939   0.555   4.304
 3464SOL    HW210725   1.983   0.697   4.371
 3465SOL     OW10726   3.704   1.767   4.083
 3465SOL    HW110727   3.758   1.738   4.163
 3465SOL    HW210728   3.734   1.857   4.054
 3466SOL     OW10729   1.889   1.596   3.841
 3466SOL    HW110730   1.870   1.500   3.862
 3466SOL    HW210731   1.856   1.654   3.916
 3467SOL     OW10732   3.551   0.922   4.336
 3467SOL    HW110733   3.646   0.893   4.344
 3467SOL    HW210734   3.543   0.987   4.261
 3468SOL     OW10735   3.503   1.108   4.156
 3468SOL    HW110736   3.589   1.110   4.104
 3468SOL    HW210737   3.517   1.155   4.244
 3469SOL     OW10738   1.975   0.737   5.321
 3469SOL    HW110739   2.063   0.724   5.366
 3469SOL    HW210740   1.962   0.834   5.299
 3470SOL     OW10741   2.475   1.365   4.450
 3470SOL    HW110742   2.426   1.278   4.459
 3470SOL    HW210743   2.452   1.408   4.363
 3471SOL     OW10744   3.155   1.228   5.147
 3471SOL    HW110745   3.192   1.155   5.089
 3471SOL    HW210746   3.207   1.233   5.232
 3472SOL     OW10747   2.671   0.004   4.226
 3472SOL    HW110748   2.711   0.095   4.217
 3472SOL    HW210749   2.571   0.012   4.232
 3473SOL     OW10750   2.059   0.976   4.988
 3473SOL    HW110751   2.148   0.931   4.974
 3473SOL    HW210752   1.986   0.911   4.969
 3474SOL     OW10753   3.387   0.999   3.914
 3474SOL    HW110754   3.324   0.923   3.927
 3474SOL    HW210755   3.435   1.017   4.000
 3475SOL     OW10756   3.049   1.792   5.340
 3475SOL    HW110757   3.073   1.852   5.264
 3475SOL    HW210758   3.056   1.697   5.310
 3476SOL     OW10759   2.179   0.251   5.525
 3476SOL    HW110760   2.250   0.322   5.531
 3476SOL    HW210761   2.091   0.290   5.553
 3477SOL     OW10762   3.328   1.417   4.677
 3477SOL    HW110763   3.269   1.423   4.757
 3477SOL    HW210764   3.313   1.329   4.631
 3478SOL     OW10765   3.529   1.714   4.296
 3478SOL    HW110766   3.488   1.691   4.208
 3478SOL    HW210767   3.511   1.640   4.361
 3479SOL     OW10768   2.460   0.729   3.994
 3479SOL    HW110769   2.484   0.798   3.926
 3479SOL    HW210770   2.382   0.762   4.048
 3480SOL     OW10771   3.143   0.345   4.668
 3480SOL    HW110772   3.057   0.295   4.655
 3480SOL    HW210773   3.205   0.291   4.724
 3481SOL     OW10774   3.438   1.662   4.031
 3481SOL    HW110775   3.527   1.708   4.034
 3481SOL    HW210776   3.417   1.638   3.936
 3482SOL     OW10777   2.669   0.605   5.189
 3482SOL    HW110778   2.622   0.602   5.278
 3482SOL    HW210779   2.618   0.550   5.123
 3483SOL     OW10780   3.256   0.469   5.398
 3483SOL    HW110781   3.236   0.512   5.486
 3483SOL    HW210782   3.334   0.407   5.407
 3484SOL     OW10783   2.835   0.890   5.296
 3484SOL    HW110784   2.881   0.806   5.267
 3484SOL    HW210785   2.779   0.924   5.221
 3485SOL     OW10786   2.853   0.410   4.966
 3485SOL    HW110787   2.776   0.444   5.020
 3485SOL    HW210788   2.819   0.359   4.887
 3486SOL     OW10789   2.903   0.701   4.153
 3486SOL    HW110790   2.929   0.697   4.249
 3486SOL    HW210791   2.818   0.650   4.139
 3487SOL     OW10792   1.938   0.811   4.513
 3487SOL    HW110793   2.037   0.799   4.522
 3487SOL    HW210794   1.914   0.906   4.534
 3488SOL     OW10795   2.727   0.348   3.919
 3488SOL    HW110796   2.786   0.411   3.870
 3488SOL    HW210797   2.746   0.254   3.890
 3489SOL     OW10798   3.581   0.585   5.555
 3489SOL    HW110799   3.555   0.674   5.519
 3489SOL    HW210800   3.579   0.517   5.482
 3490SOL     OW10801   3.224   1.144   4.269
 3490SOL    HW110802   3.307   1.115   4.221
 3490SOL    HW210803   3.175   1.211   4.213
 3491SOL     OW10804   2.412   0.196   4.609
 3491SOL    HW110805   2.407   0.191   4.709
 3491SOL    HW210806   2.414   0.292   4.580
 3492SOL     OW10807   2.870   1.456   4.201
 3492SOL    HW110808   2.824   1.528   4.149
 3492SOL    HW210809   2.866   1.476   4.299
 3493SOL     OW10810   2.213   1.801   4.577
 3493SOL    HW110811   2.263   1.715   4.583
 3493SOL    HW210812   2.278   1.878   4.574
 3494SOL     OW10813   3.657   1.066   4.597
 3494SOL    HW110814   3.595   1.051   4.521
 3494SOL    HW210815   3.605   1.077   4.682
 3495SOL     OW10816   3.089   1.550   5.230
 3495SOL    HW110817   3.095   1.473   5.294
 3495SOL    HW210818   3.037   1.524   5.150
 3496SOL     OW10819   2.183   0.943   3.966
 3496SOL    HW110820   2.265   0.982   3.924
 3496SOL    HW210821   2.156   0.861   3.917
 3497SOL     OW10822   3.320   0.735   4.452
 3497SOL    HW110823   3.315   0.670   4.527
 3497SOL    HW210824   3.400   0.794   4.465
 3498SOL     OW10825   2.323   1.266   5.451
 3498SOL    HW110826   2.273   1.267   5.365
 3498SOL    HW210827   2.260   1.248   5.527
 3499SOL     OW10828   2.973   1.776   3.961
 3499SOL    HW110829   2.913   1.714   4.011
 3499SOL    HW210830   3.004   1.732   3.876
 3500SOL     OW10831   2.064   0.285   5.222
 3500SOL    HW110832   1.984   0.345   5.209
 3500SOL    HW210833   2.054   0.236   5.308
 3501SOL     OW10834   3.494   1.377   3.805
 3501SOL    HW110835   3.462   1.471   3.795
 3501SOL    HW210836   3.418   1.314   3.793
 3502SOL     OW10837   2.326   1.743   4.047
 3502SOL    HW110838   2.359   1.782   4.133
 3502SOL    HW210839   2.402   1.736   3.982
 3503SOL     OW10840   3.262   0.107   4.150
 3503SOL    HW110841   3.238   0.070   4.060
 3503SOL    HW210842   3.361   0.123   4.154
 3504SOL     OW10843   2.111   1.785   4.965
 3504SOL    HW110844   2.168   1.720   5.015
 3504SOL    HW210845   2.095   1.752   4.872
 3505SOL     OW10846   2.802   1.698   4.628
 3505SOL    HW110847   2.882   1.641   4.649
 3505SOL    HW210848   2.753   1.658   4.551
 3506SOL     OW10849   2.244   0.700   4.204
 3506SOL    HW110850   2.289   0.610   4.201
 3506SOL    HW210851   2.150   0.689   4.237
 3507SOL     OW10852   3.409   0.222   5.453
 3507SOL    HW110853   3.404   0.259   5.545
 3507SOL    HW210854   3.337   0.153   5.441
 3508SOL     OW10855   2.476   0.122   3.841
 3508SOL    HW110856   2.574   0.100   3.848
 3508SOL    HW210857   2.445   0.105   3.748
 3509SOL     OW10858   2.643   0.264   5.473
 3509SOL    HW110859   2.710   0.203   5.516
 3509SOL    HW210860   2.570   0.283   5.538
 3510SOL     OW10861   2.750   1.514   4.919
 3510SOL    HW110862   2.727   1.489   4.825
 3510SOL    HW210863   2.811   1.445   4.958
 3511SOL     OW10864   3.213   0.590   5.157
 3511SOL    HW110865   3.241   0.547   5.242
 3511SOL    HW210866   3.238   0.686   5.158
 3512SOL     OW10867   2.665   1.402   4.648
 3512SOL    HW110868   2.755   1.416   4.606
 3512SOL    HW210869   2.594   1.404   4.577
 3513SOL     OW10870   2.784   0.503   4.623
 3513SOL    HW110871   2.759   0.494   4.527
 3513SOL    HW210872   2.832   0.421   4.654
 3514SOL     OW10873   2.401   0.064   4.236
 3514SOL    HW110874   2.320   0.065   4.294
 3514SOL    HW210875   2.404   0.147   4.181
 3515SOL     OW10876   3.296   1.188   3.765
 3515SOL    HW110877   3.328   1.112   3.822
 3515SOL    HW210878   3.204   1.215   3.795
 3516SOL     OW10879   2.159   0.035   3.895
 3516SOL    HW110880   2.208   0.119   3.874
 3516SOL    HW210881   2.221  -0.030   3.940
 3517SOL     OW10882   2.797   0.236   4.204
 3517SOL    HW110883   2.749   0.277   4.126
 3517SOL    HW210884   2.896   0.234   4.185
 3518SOL     OW10885   2.938   0.683   5.188
 3518SOL    HW110886   2.858   0.622   5.191
 3518SOL    HW210887   3.019   0.630   5.164
 3519SOL     OW10888   3.089   1.570   4.517
 3519SOL    HW110889   3.110   1.644   4.452
 3519SOL    HW210890   3.157   1.570   4.590
 3520SOL     OW10891   2.321   1.152   4.465
 3520SOL    HW110892   2.250   1.125   4.530
 3520SOL    HW210893   2.295   1.124   4.372
 3521SOL     OW10894   3.133   1.797   4.315
 3521SOL    HW110895   3.177   1.861   4.251
 3521SOL    HW210896   3.083   1.849   4.385
 3522SOL     OW10897   2.894   0.549   3.740
 3522SOL    HW110898   2.853   0.631   3.701
 3522SOL    HW210899   2.958   0.575   3.813
 3523SOL     OW10900   1.940   0.556   5.110
 3523SOL    HW110901   2.032   0.555   5.069
 3523SOL    HW210902   1.934   0.630   5.177
 3524SOL     OW10903   2.423   0.222   4.871
 3524SOL    HW110904   2.461   0.138   4.908
 3524SOL    HW210905   2.335   0.241   4.915
 3525SOL     OW10906   2.728   0.454   4.366
 3525SOL    HW110907   2.696   0.526   4.304
 3525SOL    HW210908   2.752   0.373   4.313
 3526SOL     OW10909   2.879   0.039   4.477
 3526SOL    HW110910   2.807   0.044   4.408
 3526SOL    HW210911   2.855  -0.030   4.546
 3527SOL     OW10912   3.291   1.173   4.591
 3527SOL    HW110913   3.236   1.089   4.584
 3527SOL    HW210914   3.317   1.202   4.499
 3528SOL     OW10915   3.328   0.590   4.716
 3528SOL    HW110916   3.298   0.495   4.723
 3528SOL    HW210917   3.401   0.606   4.782
 3529SOL     OW10918   3.719   0.833   4.101
 3529SOL    HW110919   3.761   0.769   4.165
 3529SOL    HW210920   3.681   0.782   4.023
 3530SOL     OW10921   2.350   1.385   3.898
 3530SOL    HW110922   2.263   1.370   3.945
 3530SOL    HW210923   2.333   1.411   3.803
 3531SOL     OW10924   3.526   1.280   4.381
 3531SOL    HW110925   3.625   1.288   4.395
 3531SOL    HW210926   3.481   1.364   4.412
 3532SOL     OW10927   3.252   0.575   3.802
 3532SOL    HW110928   3.198   0.554   3.883
 3532SOL    HW210929   3.343   0.534   3.811
 3533SOL     OW10930   2.389   0.256   4.052
 3533SOL    HW110931   2.416   0.197   3.977
 3533SOL    HW210932   2.389   0.351   4.021
 3534SOL     OW10933   3.616   1.223   5.312
 3534SOL    HW110934   3.707   1.184   5.299
 3534SOL    HW210935   3.624   1.319   5.336
 3535SOL     OW10936   2.926   1.347   5.064
 3535SOL    HW110937   2.846   1.324   5.119
 3535SOL    HW210938   3.009   1.321   5.113
 3536SOL     OW10939   3.454   1.629   5.349
 3536SOL    HW110940   3.481   1.663   5.259
 3536SOL    HW210941   3.533   1.591   5.395
 3537SOL     OW10942   2.973   1.195   4.824
 3537SOL    HW110943   2.933   1.239   4.905
 3537SOL    HW210944   2.932   1.232   4.741
 3538SOL     OW10945   3.500   1.099   4.803
 3538SOL    HW110946   3.505   1.180   4.862
 3538SOL    HW210947   3.414   1.101   4.752
 3539SOL     OW10948   2.777   0.089   5.126
 3539SOL    HW110949   2.802   0.069   5.031
 3539SOL    HW210950   2.849   0.145   5.168
 3540SOL     OW10951   2.842   1.116   5.443
 3540SOL    HW110952   2.743   1.122   5.453
 3540SOL    HW210953   2.865   1.036   5.387
 3541SOL     OW10954   2.567   1.050   4.092
 3541SOL    HW110955   2.553   1.057   4.191
 3541SOL    HW210956   2.651   0.999   4.074
 3542SOL     OW10957   2.272   0.813   4.975
 3542SOL    HW110958   2.358   0.825   5.025
 3542SOL    HW210959   2.230   0.726   5.002
 3543SOL     OW10960   3.136   0.386   4.986
 3543SOL    HW110961   3.157   0.460   5.050
 3543SOL    HW210962   3.047   0.403   4.943
 3544SOL     OW10963   1.926   1.564   5.055
 3544SOL    HW110964   1.880   1.646   5.021
 3544SOL    HW210965   2.024   1.583   5.064
 3545SOL     OW10966   2.229   1.100   4.225
 3545SOL    HW110967   2.222   1.183   4.169
 3545SOL    HW210968   2.233   1.020   4.165
 3546SOL     OW10969   2.428   0.537   4.589
 3546SOL    HW110970   2.440   0.603   4.515
 3546SOL    HW210971   2.474   0.571   4.672
 3547SOL     OW10972   3.114   1.348   4.112
 3547SOL    HW110973   3.164   1.425   4.152
 3547SOL    HW210974   3.019   1.350   4.144
 3548SOL     OW10975   3.134   1.445   4.866
 3548SOL    HW110976   3.181   1.458   4.953
 3548SOL    HW210977   3.068   1.371   4.875
 3549SOL     OW10978   3.444   0.639   4.196
 3549SOL    HW110979   3.413   0.700   4.269
 3549SOL    HW210980   3.494   0.691   4.127
 3550SOL     OW10981   2.216   1.510   5.053
 3550SOL    HW110982   2.195   1.466   4.966
 3550SOL    HW210983   2.313   1.536   5.056
 3551SOL     OW10984   2.264   0.751   5.322
 3551SOL    HW110985   2.332   0.806   5.275
 3551SOL    HW210986   2.304   0.663   5.349
 3552SOL     OW10987   3.449   0.779   5.394
 3552SOL    HW110988   3.357   0.817   5.389
 3552SOL    HW210989   3.509   0.826   5.329
 3553SOL     OW10990   2.875   0.105   5.494
 3553SOL    HW110991   2.881   0.190   5.442
 3553SOL    HW210992   2.907   0.029   5.437
 3554SOL     OW10993   2.366   0.050   5.464
 3554SOL    HW110994   2.324  -0.007   5.394
 3554SOL    HW210995   2.300   0.119   5.496
 3555SOL     OW10996   2.435   0.870   4.753
 3555SOL    HW110997   2.479   0.959   4.744
 3555SOL    HW210998   2.372   0.870   4.830
 3556SOL     OW10999   3.222   0.862   4.769
 3556SOL    HW111000   3.147   0.862   4.703
 3556SOL    HW211001   3.259   0.770   4.778
 3557SOL     OW11002   3.071   0.525   3.999
 3557SOL    HW111003   3.084   0.441   4.053
 3557SOL    HW211004   3.042   0.599   4.059
 3558SOL     OW11005   2.169   0.213   4.955
 3558SOL    HW111006   2.146   0.250   5.045
 3558SOL    HW211007   2.139   0.118   4.949
 3559SOL     OW11008   1.899   1.310   5.006
 3559SOL    HW111009   1.952   1.261   5.074
 3559SOL    HW211010   1.921   1.408   5.011
 3560SOL     OW11011   2.594   0.634   4.788
 3560SOL    HW111012   2.653   0.608   4.712
 3560SOL    HW211013   2.566   0.730   4.777
 3561SOL     OW11014   3.590   0.935   5.578
 3561SOL    HW111015   3.544   0.928   5.489
 3561SOL    HW211016   3.528   0.979   5.644
 3562SOL     OW11017   2.169   0.063   4.342
 3562SOL    HW111018   2.158   0.157   4.375
 3562SOL    HW211019   2.164   0.000   4.419
 3563SOL     OW11020   3.484   0.367   4.098
 3563SOL    HW111021   3.486   0.291   4.162
 3563SOL    HW211022   3.436   0.444   4.138
 3564SOL     OW11023   2.885   0.766   4.690
 3564SOL    HW111024   2.900   0.787   4.786
 3564SOL    HW211025   2.855   0.671   4.681
 3565SOL     OW11026   2.842   1.573   5.424
 3565SOL    HW111027   2.822   1.617   5.336
 3565SOL    HW211028   2.881   1.482   5.408
 3566SOL     OW11029   3.721   1.518   5.329
 3566SOL    HW111030   3.735   1.545   5.234
 3566SOL    HW211031   3.804   1.540   5.382
 3567SOL     OW11032   2.212   0.898   5.528
 3567SOL    HW111033   2.288   0.942   5.576
 3567SOL    HW211034   2.247   0.851   5.446
 3568SOL     OW11035   3.402   0.274   3.849
 3568SOL    HW111036   3.341   0.199   3.872
 3568SOL    HW211037   3.424   0.326   3.932
 3569SOL     OW11038   3.165   0.838   3.766
 3569SOL    HW111039   3.199   0.745   3.781
 3569SOL    HW211040   3.183   0.865   3.671
 3570SOL     OW11041   2.930   1.333   4.573
 3570SOL    HW111042   2.937   1.249   4.518
 3570SOL    HW211043   2.992   1.402   4.537
 3571SOL     OW11044   2.181   0.810   4.673
 3571SOL    HW111045   2.274   0.846   4.678
 3571SOL    HW211046   2.175   0.725   4.725
 3572SOL     OW11047   2.201   0.509   4.730
 3572SOL    HW111048   2.149   0.426   4.713
 3572SOL    HW211049   2.278   0.514   4.666
 3573SOL     OW11050   3.000   0.380   5.402
 3573SOL    HW111051   2.955   0.443   5.466
 3573SOL    HW211052   3.093   0.411   5.385
 3574SOL     OW11053   3.022   0.207   5.201
 3574SOL    HW111054   3.022   0.271   5.278
 3574SOL    HW211055   3.050   0.255   5.118
 3575SOL     OW11056   1.870   1.326   3.924
 3575SOL    HW111057   1.777   1.347   3.893
 3575SOL    HW211058   1.880   1.227   3.937
 3576SOL     OW11059   1.950   1.801   4.651
 3576SOL    HW111060   1.908   1.715   4.624
 3576SOL    HW211061   2.044   1.804   4.617
 3577SOL     OW11062   2.366   1.568   4.634
 3577SOL    HW111063   2.432   1.642   4.643
 3577SOL    HW211064   2.410   1.489   4.592
 3578SOL     OW11065   2.864   0.796   4.962
 3578SOL    HW111066   2.905   0.764   5.048
 3578SOL    HW211067   2.768   0.769   4.959
 3579SOL     OW11068   1.902   0.544   4.838
 3579SOL    HW111069   1.987   0.511   4.797
 3579SOL    HW211070   1.915   0.559   4.936
 3580SOL     OW11071   2.051   0.520   5.446
 3580SOL    HW111072   2.110   0.480   5.376
 3580SOL    HW211073   1.993   0.591   5.405
 3581SOL     OW11074   3.231   0.950   5.384
 3581SOL    HW111075   3.270   1.039   5.404
 3581SOL    HW211076   3.241   0.930   5.287
 3582SOL     OW11077   2.677   0.572   4.049
 3582SOL    HW111078   2.684   0.483   4.003
 3582SOL    HW211079   2.583   0.606   4.041
 3583SOL     OW11080   3.519   0.604   4.930
 3583SOL    HW111081   3.481   0.535   4.992
 3583SOL    HW211082   3.601   0.568   4.886
 3584SOL     OW11083   2.533   0.464   4.993
 3584SOL    HW111084   2.499   0.375   4.963
 3584SOL    HW211085   2.559   0.518   4.913
 3585SOL     OW11086   2.792   1.678   5.189
 3585SOL    HW111087   2.768   1.660   5.094
 3585SOL    HW211088   2.822   1.772   5.199
 3586SOL     OW11089   2.335   0.500   3.915
 3586SOL    HW111090   2.396   0.580   3.919
 3586SOL    HW211091   2.240   0.531   3.922
 3587SOL     OW11092   2.021   1.137   5.190
 3587SOL    HW111093   2.043   1.076   5.266
 3587SOL    HW211094   2.031   1.088   5.104
 3588SOL     OW11095   3.209   1.059   4.958
 3588SOL    HW111096   3.233   0.996   4.884
 3588SOL    HW211097   3.119   1.099   4.940
 3589SOL     OW11098   3.164   0.855   4.033
 3589SOL    HW111099   3.078   0.824   4.075
 3589SOL    HW211100   3.160   0.841   3.934
 3590SOL     OW11101   3.621   1.747   4.878
 3590SOL    HW111102   3.682   1.777   4.805
 3590SOL    HW211103   3.583   1.658   4.856
 3591SOL     OW11104   3.114   1.731   4.852
 3591SOL    HW111105   3.198   1.736   4.798
 3591SOL    HW211106   3.091   1.635   4.870
 3592SOL     OW11107   1.945   1.258   4.746
 3592SOL    HW111108   1.940   1.257   4.846
 3592SOL    HW211109   1.862   1.217   4.708
 3593SOL     OW11110   3.588   0.135   4.247
 3593SOL    HW111111   3.661   0.118   4.180
 3593SOL    HW211112   3.557   0.048   4.285
 3594SOL     OW11113   3.250   1.573   4.201
 3594SOL    HW111114   3.317   1.585   4.127
 3594SOL    HW211115   3.210   1.662   4.224
 3595SOL     OW11116   3.142   0.927   4.396
 3595SOL    HW111117   3.202   0.846   4.398
 3595SOL    HW211118   3.182   0.996   4.336
 3596SOL     OW11119   2.692   1.273   5.146
 3596SOL    HW111120   2.687   1.306   5.241
 3596SOL    HW211121   2.606   1.292   5.100
 3597SOL     OW11122   2.534   1.616   3.878
 3597SOL    HW111123   2.543   1.626   3.779
 3597SOL    HW211124   2.494   1.527   3.899
 3598SOL     OW11125   3.512   1.720   5.118
 3598SOL    HW111126   3.565   1.730   5.034
 3598SOL    HW211127   3.485   1.810   5.152
 3599SOL     OW11128   3.703   0.175   4.687
 3599SOL    HW111129   3.742   0.090   4.651
 3599SOL    HW211130   3.605   0.177   4.668
 3600SOL     OW11131   2.125   0.326   4.444
 3600SOL    HW111132   2.046   0.377   4.410
 3600SOL    HW211133   2.116   0.311   4.542
 3601SOL     OW11134   3.056   1.612   3.755
 3601SOL    HW111135   3.062   1.519   3.792
 3601SOL    HW211136   2.997   1.612   3.675
 3602SOL     OW11137   2.684   1.002   5.096
 3602SOL    HW111138   2.724   1.001   5.004
 3602SOL    HW211139   2.694   1.094   5.136
 3603SOL     OW11140   2.778   0.910   4.015
 3603SOL    HW111141   2.841   0.948   3.947
 3603SOL    HW211142   2.818   0.827   4.054
 3604SOL     OW11143   3.366   1.607   3.768
 3604SOL    HW111144   3.274   1.644   3.775
 3604SOL    HW211145   3.404   1.627   3.678
 3605SOL     OW11146   2.234   1.288   5.214
 3605SOL    HW111147   2.221   1.381   5.180
 3605SOL    HW211148   2.150   1.236   5.201
 3606SOL     OW11149   3.476   1.292   5.013
 3606SOL    HW111150   3.536   1.295   5.093
 3606SOL    HW211151   3.401   1.356   5.026
 3607SOL     OW11152   2.901   1.098   4.420
 3607SOL    HW111153   2.831   1.051   4.474
 3607SOL    HW211154   2.960   1.030   4.377
 3608SOL     OW11155   2.876   0.236   4.695
 3608SOL    HW111156   2.868   0.200   4.602
 3608SOL    HW211157   2.874   0.160   4.760
 3609SOL     OW11158   2.452   1.487   4.215
 3609SOL    HW111159   2.494   1.429   4.145
 3609SOL    HW211160   2.408   1.566   4.171
 3610SOL     OW11161   3.571   0.385   5.105
 3610SOL    HW111162   3.644   0.454   5.109
 3610SOL    HW211163   3.599   0.310   5.046
 3611SOL     OW11164   2.117   1.348   4.014
 3611SOL    HW111165   2.021   1.349   3.987
 3611SOL    HW211166   2.129   1.401   4.098
 3612SOL     OW11167   1.967   1.013   5.450
 3612SOL    HW111168   1.890   0.980   5.504
 3612SOL    HW211169   2.052   0.983   5.492
 3613SOL     OW11170   2.534   0.203   5.213
 3613SOL    HW111171   2.624   0.187   5.173
 3613SOL    HW211172   2.542   0.208   5.312
 3614SOL     OW11173   1.937   0.345   3.757
 3614SOL    HW111174   1.845   0.317   3.728
 3614SOL    HW211175   1.968   0.422   3.701
 3615SOL     OW11176   3.302   0.856   5.122
 3615SOL    HW111177   3.245   0.908   5.059
 3615SOL    HW211178   3.398   0.868   5.098
 3616SOL     OW11179   1.934   0.166   4.042
 3616SOL    HW111180   1.917   0.249   3.988
 3616SOL    HW211181   2.024   0.129   4.020
 3617SOL     OW11182   3.045   1.335   3.843
 3617SOL    HW111183   2.946   1.324   3.845
 3617SOL    HW211184   3.079   1.350   3.936
 3618SOL     OW11185   2.475   0.842   5.155
 3618SOL    HW111186   2.531   0.923   5.138
 3618SOL    HW211187   2.534   0.762   5.158
 3619SOL     OW11188   3.355   1.767   4.683
 3619SOL    HW111189   3.388   1.831   4.614
 3619SOL    HW211190   3.421   1.761   4.758
 3620SOL     OW11191   2.578   0.565   5.432
 3620SOL    HW111192   2.597   0.630   5.506
 3620SOL    HW211193   2.638   0.485   5.441
 3621SOL     OW11194   3.312   1.220   5.357
 3621SOL    HW111195   3.303   1.210   5.456
 3621SOL    HW211196   3.408   1.213   5.331
 3622SOL     OW11197   3.536   0.883   4.978
 3622SOL    HW111198   3.509   0.794   4.941
 3622SOL    HW211199   3.537   0.951   4.905
 3623SOL     OW11200   3.087   0.325   4.173
 3623SOL    HW111201   3.152   0.251   4.162
 3623SOL    HW211202   3.107   0.375   4.257
 3624SOL     OW11203   2.456   0.745   4.376
 3624SOL    HW111204   2.506   0.830   4.357
 3624SOL    HW211205   2.368   0.747   4.328
 3625SOL     OW11206   3.639   0.342   5.366
 3625SOL    HW111207   3.622   0.373   5.272
 3625SOL    HW211208   3.555   0.305   5.404
 3626SOL     OW11209   3.592   0.934   5.241
 3626SOL    HW111210   3.630   1.025   5.256
 3626SOL    HW211211   3.584   0.917   5.142
 3627SOL     OW11212   2.721   1.374   3.740
 3627SOL    HW111213   2.675   1.389   3.828
 3627SOL    HW211214   2.765   1.459   3.710
 3628SOL     OW11215   2.523   1.790   4.677
 3628SOL    HW111216   2.477   1.878   4.664
 3628SOL    HW211217   2.622   1.802   4.670
 3629SOL     OW11218   2.721   0.956   4.585
 3629SOL    HW111219   2.775   0.887   4.633
 3629SOL    HW211220   2.689   1.025   4.651
 3630SOL     OW11221   2.945   0.984   3.811
 3630SOL    HW111222   2.922   1.037   3.729
 3630SOL    HW211223   3.026   0.928   3.792
 3631SOL     OW11224   3.723   1.569   4.575
 3631SOL    HW111225   3.652   1.557   4.505
 3631SOL    HW211226   3.724   1.490   4.635
 3632SOL     OW11227   2.083   1.314   5.568
 3632SOL    HW111228   2.018   1.241   5.547
 3632SOL    HW211229   2.087   1.328   5.666
 3633SOL     OW11230   1.941   1.240   4.377
 3633SOL    HW111231   1.940   1.193   4.465
 3633SOL    HW211232   2.023   1.212   4.326
 3634SOL     OW11233   2.534   1.391   5.348
 3634SOL    HW111234   2.456   1.341   5.386
 3634SOL    HW211235   2.531   1.486   5.379
 3635SOL     OW11236   3.686   0.192   4.951
 3635SOL    HW111237   3.682   0.102   4.995
 3635SOL    HW211238   3.689   0.181   4.852
 3636SOL     OW11239   2.290   0.424   4.244
 3636SOL    HW111240   2.320   0.352   4.182
 3636SOL    HW211241   2.251   0.384   4.327
 3637SOL     OW11242   3.567   1.487   4.828
 3637SOL    HW111243   3.474   1.462   4.801
 3637SOL    HW211244   3.593   1.437   4.910
 3638SOL     OW11245   2.179   0.547   5.004
 3638SOL    HW111246   2.217   0.488   5.076
 3638SOL    HW211247   2.219   0.521   4.916
 3639SOL     OW11248   2.674   1.586   4.411
 3639SOL    HW111249   2.706   1.596   4.317
 3639SOL    HW211250   2.595   1.524   4.413
 3640SOL     OW11251   3.286   0.214   4.836
 3640SOL    HW111252   3.338   0.149   4.891
 3640SOL    HW211253   3.237   0.277   4.897
 3641SOL     OW11254   2.863   0.034   4.878
 3641SOL    HW111255   2.800  -0.038   4.847
 3641SOL    HW211256   2.956  -0.002   4.878
 3642SOL     OW11257   2.632   1.330   4.025
 3642SOL    HW111258   2.586   1.243   4.042
 3642SOL    HW211259   2.723   1.327   4.066
 3643SOL     OW11260   2.480   1.567   5.008
 3643SOL    HW111261   2.475   1.649   5.065
 3643SOL    HW211262   2.569   1.564   4.963
 3644SOL     OW11263   3.214   0.052   3.892
 3644SOL    HW111264   3.249   0.011   3.808
 3644SOL    HW211265   3.124   0.014   3.912
 3645SOL     OW11266   3.162   0.453   4.415
 3645SOL    HW111267   3.103   0.533   4.419
 3645SOL    HW211268   3.177   0.418   4.508
 3646SOL     OW11269   3.455   0.221   4.606
 3646SOL    HW111270   3.371   0.220   4.660
 3646SOL    HW211271   3.457   0.304   4.550
 3647SOL     OW11272   1.901   1.077   4.024
 3647SOL    HW111273   2.000   1.066   4.015
 3647SOL    HW211274   1.861   0.991   4.056
 3648SOL     OW11275   2.737   1.646   4.061
 3648SOL    HW111276   2.660   1.611   4.007
 3648SOL    HW211277   2.705   1.717   4.123
 3649SOL     OW11278   2.092   0.628   5.699
 3649SOL    HW111279   1.999   0.626   5.736
 3649SOL    HW211280   2.093   0.589   5.607
 3650SOL     OW11281   2.087   0.275   6.582
 3650SOL    HW111282   2.122   0.258   6.674
 3650SOL    HW211283   1.999   0.230   6.570
 3651SOL     OW11284   1.881   0.368   6.233
 3651SOL    HW111285   1.799   0.411   6.272
 3651SOL    HW211286   1.853   0.295   6.170
 3652SOL     OW11287   2.431   1.275   6.751
 3652SOL    HW111288   2.338   1.268   6.714
 3652SOL    HW211289   2.442   1.364   6.795
 3653SOL     OW11290   3.417   1.511   6.289
 3653SOL    HW111291   3.360   1.495   6.370
 3653SOL    HW211292   3.358   1.521   6.209
 3654SOL     OW11293   2.997   0.703   6.303
 3654SOL    HW111294   3.054   0.781   6.278
 3654SOL    HW211295   2.937   0.729   6.379
 3655SOL     OW11296   3.617   0.607   5.817
 3655SOL    HW111297   3.605   0.594   5.718
 3655SOL    HW211298   3.587   0.526   5.866
 3656SOL     OW11299   2.630   1.144   6.609
 3656SOL    HW111300   2.552   1.161   6.669
 3656SOL    HW211301   2.664   1.231   6.573
 3657SOL     OW11302   2.712   0.798   7.409
 3657SOL    HW111303   2.708   0.874   7.474
 3657SOL    HW211304   2.734   0.834   7.318
 3658SOL     OW11305   2.547   1.012   6.251
 3658SOL    HW111306   2.616   0.996   6.321
 3658SOL    HW211307   2.474   1.069   6.289
 3659SOL     OW11308   2.548   1.161   7.389
 3659SOL    HW111309   2.608   1.240   7.403
 3659SOL    HW211310   2.462   1.192   7.348
 3660SOL     OW11311   2.197   1.435   6.647
 3660SOL    HW111312   2.119   1.404   6.594
 3660SOL    HW211313   2.255   1.493   6.590
 3661SOL     OW11314   3.322   1.505   6.925
 3661SOL    HW111315   3.346   1.599   6.951
 3661SOL    HW211316   3.306   1.451   7.007
 3662SOL     OW11317   2.300   0.392   7.085
 3662SOL    HW111318   2.382   0.336   7.094
 3662SOL    HW211319   2.219   0.334   7.089
 3663SOL     OW11320   3.465   0.447   6.323
 3663SOL    HW111321   3.391   0.493   6.273
 3663SOL    HW211322   3.516   0.515   6.376
 3664SOL     OW11323   2.093   1.713   6.069
 3664SOL    HW111324   2.127   1.790   6.123
 3664SOL    HW211325   2.137   1.713   5.979
 3665SOL     OW11326   2.989   1.341   7.276
 3665SOL    HW111327   3.036   1.341   7.364
 3665SOL    HW211328   2.941   1.254   7.265
 3666SOL     OW11329   2.092   1.434   6.124
 3666SOL    HW111330   2.066   1.530   6.124
 3666SOL    HW211331   2.021   1.380   6.169
 3667SOL     OW11332   2.102   1.091   6.472
 3667SOL    HW111333   2.116   1.007   6.524
 3667SOL    HW211334   2.047   1.155   6.527
 3668SOL     OW11335   2.482   1.786   7.025
 3668SOL    HW111336   2.390   1.769   7.060
 3668SOL    HW211337   2.510   1.878   7.051
 3669SOL     OW11338   2.468   0.964   5.709
 3669SOL    HW111339   2.475   1.048   5.655
 3669SOL    HW211340   2.514   0.977   5.797
 3670SOL     OW11341   3.456   0.114   7.066
 3670SOL    HW111342   3.438   0.181   6.994
 3670SOL    HW211343   3.453   0.160   7.155
 3671SOL     OW11344   1.984   0.643   6.149
 3671SOL    HW111345   1.939   0.555   6.166
 3671SOL    HW211346   1.983   0.697   6.233
 3672SOL     OW11347   3.704   1.767   5.945
 3672SOL    HW111348   3.758   1.738   6.025
 3672SOL    HW211349   3.734   1.857   5.916
 3673SOL     OW11350   1.889   1.596   5.703
 3673SOL    HW111351   1.870   1.500   5.724
 3673SOL    HW211352   1.856   1.654   5.778
 3674SOL     OW11353   3.551   0.922   6.198
 3674SOL    HW111354   3.646   0.893   6.206
 3674SOL    HW211355   3.543   0.987   6.123
 3675SOL     OW11356   3.503   1.108   6.018
 3675SOL    HW111357   3.589   1.110   5.966
 3675SOL    HW211358   3.517   1.155   6.106
 3676SOL     OW11359   1.975   0.737   7.183
 3676SOL    HW111360   2.063   0.724   7.228
 3676SOL    HW211361   1.962   0.834   7.161
 3677SOL     OW11362   2.475   1.365   6.312
 3677SOL    HW111363   2.426   1.278   6.321
 3677SOL    HW211364   2.452   1.408   6.225
 3678SOL     OW11365   3.155   1.228   7.009
 3678SOL    HW111366   3.192   1.155   6.951
 3678SOL    HW211367   3.207   1.233   7.094
 3679SOL     OW11368   2.671   0.004   6.088
 3679SOL    HW111369   2.711   0.095   6.079
 3679SOL    HW211370   2.571   0.012   6.094
 3680SOL     OW11371   2.059   0.976   6.850
 3680SOL    HW111372   2.148   0.931   6.836
 3680SOL    HW211373   1.986   0.911   6.831
 3681SOL     OW11374   3.387   0.999   5.776
 3681SOL    HW111375   3.324   0.923   5.789
 3681SOL    HW211376   3.435   1.017   5.862
 3682SOL     OW11377   3.049   1.792   7.202
 3682SOL    HW111378   3.073   1.852   7.126
 3682SOL    HW211379   3.056   1.697   7.172
 3683SOL     OW11380   2.179   0.251   7.387
 3683SOL    HW111381   2.250   0.322   7.393
 3683SOL    HW211382   2.091   0.290   7.415
 3684SOL     OW11383   3.328   1.417   6.539
 3684SOL    HW111384   3.269   1.423   6.619
 3684SOL    HW211385   3.313   1.329   6.493
 3685SOL     OW11386   3.529   1.714   6.158
 3685SOL    HW111387   3.488   1.691   6.070
 3685SOL    HW211388   3.511   1.640   6.223
 3686SOL     OW11389   2.460   0.729   5.856
 3686SOL    HW111390   2.484   0.798   5.788
 3686SOL    HW211391   2.382   0.762   5.910
 3687SOL     OW11392   3.143   0.345   6.530
 3687SOL    HW111393   3.057   0.295   6.517
 3687SOL    HW211394   3.205   0.291   6.586
 3688SOL     OW11395   3.438   1.662   5.893
 3688SOL    HW111396   3.527   1.708   5.896
 3688SOL    HW211397   3.417   1.638   5.798
 3689SOL     OW11398   2.669   0.605   7.051
 3689SOL    HW111399   2.622   0.602   7.140
 3689SOL    HW211400   2.618   0.550   6.985
 3690SOL     OW11401   3.256   0.469   7.260
 3690SOL    HW111402   3.236   0.512   7.348
 3690SOL    HW211403   3.334   0.407   7.269
 3691SOL     OW11404   2.835   0.890   7.158
 3691SOL    HW111405   2.881   0.806   7.129
 3691SOL    HW211406   2.779   0.924   7.083
 3692SOL     OW11407   2.853   0.410   6.828
 3692SOL    HW111408   2.776   0.444   6.882
 3692SOL    HW211409   2.819   0.359   6.749
 3693SOL     OW11410   2.903   0.701   6.015
 3693SOL    HW111411   2.929   0.697   6.111
 3693SOL    HW211412   2.818   0.650   6.001
 3694SOL     OW11413   1.938   0.811   6.375
 3694SOL    HW111414   2.037   0.799   6.384
 3694SOL    HW211415   1.914   0.906   6.396
 3695SOL     OW11416   1.992   1.821   7.157
 3695SOL    HW111417   1.982   1.806   7.256
 3695SOL    HW211418   1.906   1.857   7.121
 3696SOL     OW11419   2.727   0.348   5.781
 3696SOL    HW111420   2.786   0.411   5.732
 3696SOL    HW211421   2.746   0.254   5.752
 3697SOL     OW11422   3.581   0.585   7.417
 3697SOL    HW111423   3.555   0.674   7.381
 3697SOL    HW211424   3.579   0.517   7.344
 3698SOL     OW11425   3.224   1.144   6.131
 3698SOL    HW111426   3.307   1.115   6.083
 3698SOL    HW211427   3.175   1.211   6.075
 3699SOL     OW11428   2.412   0.196   6.471
 3699SOL    HW111429   2.407   0.191   6.571
 3699SOL    HW211430   2.414   0.292   6.442
 3700SOL     OW11431   2.870   1.456   6.063
 3700SOL    HW111432   2.824   1.528   6.011
 3700SOL    HW211433   2.866   1.476   6.161
 3701SOL     OW11434   2.213   1.801   6.439
 3701SOL    HW111435   2.263   1.715   6.445
 3701SOL    HW211436   2.278   1.878   6.436
 3702SOL     OW11437   3.657   1.066   6.459
 3702SOL    HW111438   3.595   1.051   6.383
 3702SOL    HW211439   3.605   1.077   6.544
 3703SOL     OW11440   3.089   1.550   7.092
 3703SOL    HW111441   3.095   1.473   7.156
 3703SOL    HW211442   3.037   1.524   7.012
 3704SOL     OW11443   2.183   0.943   5.828
 3704SOL    HW111444   2.265   0.982   5.786
 3704SOL    HW211445   2.156   0.861   5.779
 3705SOL     OW11446   3.320   0.735   6.314
 3705SOL    HW111447   3.315   0.670   6.389
 3705SOL    HW211448   3.400   0.794   6.327
 3706SOL     OW11449   2.323   1.266   7.313
 3706SOL    HW111450   2.273   1.267   7.227
 3706SOL    HW211451   2.260   1.248   7.389
 3707SOL     OW11452   2.973   1.776   5.823
 3707SOL    HW111453   2.913   1.714   5.873
 3707SOL    HW211454   3.004   1.732   5.738
 3708SOL     OW11455   2.064   0.285   7.084
 3708SOL    HW111456   1.984   0.345   7.071
 3708SOL    HW211457   2.054   0.236   7.170
 3709SOL     OW11458   3.494   1.377   5.667
 3709SOL    HW111459   3.462   1.471   5.657
 3709SOL    HW211460   3.418   1.314   5.655
 3710SOL     OW11461   3.262   0.107   6.012
 3710SOL    HW111462   3.238   0.070   5.922
 3710SOL    HW211463   3.361   0.123   6.016
 3711SOL     OW11464   2.111   1.785   6.827
 3711SOL    HW111465   2.168   1.720   6.877
 3711SOL    HW211466   2.095   1.752   6.734
 3712SOL     OW11467   2.802   1.698   6.490
 3712SOL    HW111468   2.882   1.641   6.511
 3712SOL    HW211469   2.753   1.658   6.413
 3713SOL     OW11470   2.244   0.700   6.066
 3713SOL    HW111471   2.289   0.610   6.063
 3713SOL    HW211472   2.150   0.689   6.099
 3714SOL     OW11473   3.409   0.222   7.315
 3714SOL    HW111474   3.404   0.259   7.407
 3714SOL    HW211475   3.337   0.153   7.303
 3715SOL     OW11476   2.476   0.122   5.703
 3715SOL    HW111477   2.574   0.100   5.710
 3715SOL    HW211478   2.445   0.105   5.610
 3716SOL     OW11479   2.643   0.264   7.335
 3716SOL    HW111480   2.710   0.203   7.378
 3716SOL    HW211481   2.570   0.283   7.400
 3717SOL     OW11482   2.750   1.514   6.781
 3717SOL    HW111483   2.727   1.489   6.687
 3717SOL    HW211484   2.811   1.445   6.820
 3718SOL     OW11485   3.213   0.590   7.019
 3718SOL    HW111486   3.241   0.547   7.104
 3718SOL    HW211487   3.238   0.686   7.020
 3719SOL     OW11488   2.665   1.402   6.510
 3719SOL    HW111489   2.755   1.416   6.468
 3719SOL    HW211490   2.594   1.404   6.439
 3720SOL     OW11491   2.784   0.503   6.485
 3720SOL    HW111492   2.759   0.494   6.389
 3720SOL    HW211493   2.832   0.421   6.516
 3721SOL     OW11494   2.401   0.064   6.098
 3721SOL    HW111495   2.320   0.065   6.156
 3721SOL    HW211496   2.404   0.147   6.043
 3722SOL     OW11497   3.296   1.188   5.627
 3722SOL    HW111498   3.328   1.112   5.684
 3722SOL    HW211499   3.204   1.215   5.657
 3723SOL     OW11500   2.159   0.035   5.757
 3723SOL    HW111501   2.208   0.119   5.736
 3723SOL    HW211502   2.221  -0.030   5.802
 3724SOL     OW11503   2.797   0.236   6.066
 3724SOL    HW111504   2.749   0.277   5.988
 3724SOL    HW211505   2.896   0.234   6.047
 3725SOL     OW11506   2.938   0.683   7.050
 3725SOL    HW111507   2.858   0.622   7.053
 3725SOL    HW211508   3.019   0.630   7.026
 3726SOL     OW11509   3.089   1.570   6.379
 3726SOL    HW111510   3.110   1.644   6.314
 3726SOL    HW211511   3.157   1.570   6.452
 3727SOL     OW11512   2.321   1.152   6.327
 3727SOL    HW111513   2.250   1.125   6.392
 3727SOL    HW211514   2.295   1.124   6.234
 3728SOL     OW11515   3.133   1.797   6.177
 3728SOL    HW111516   3.177   1.861   6.113
 3728SOL    HW211517   3.083   1.849   6.247
 3729SOL     OW11518   2.894   0.549   5.602
 3729SOL    HW111519   2.853   0.631   5.563
 3729SOL    HW211520   2.958   0.575   5.675
 3730SOL     OW11521   1.940   0.556   6.972
 3730SOL    HW111522   2.032   0.555   6.931
 3730SOL    HW211523   1.934   0.630   7.039
 3731SOL     OW11524   2.423   0.222   6.733
 3731SOL    HW111525   2.461   0.138   6.770
 3731SOL    HW211526   2.335   0.241   6.777
 3732SOL     OW11527   2.728   0.454   6.228
 3732SOL    HW111528   2.696   0.526   6.166
 3732SOL    HW211529   2.752   0.373   6.175
 3733SOL     OW11530   2.879   0.039   6.339
 3733SOL    HW111531   2.807   0.044   6.270
 3733SOL    HW211532   2.855  -0.030   6.408
 3734SOL     OW11533   3.291   1.173   6.453
 3734SOL    HW111534   3.236   1.089   6.446
 3734SOL    HW211535   3.317   1.202   6.361
 3735SOL     OW11536   3.328   0.590   6.578
 3735SOL    HW111537   3.298   0.495   6.585
 3735SOL    HW211538   3.401   0.606   6.644
 3736SOL     OW11539   3.719   0.833   5.963
 3736SOL    HW111540   3.761   0.769   6.027
 3736SOL    HW211541   3.681   0.782   5.885
 3737SOL     OW11542   2.350   1.385   5.760
 3737SOL    HW111543   2.263   1.370   5.807
 3737SOL    HW211544   2.333   1.411   5.665
 3738SOL     OW11545   3.526   1.280   6.243
 3738SOL    HW111546   3.625   1.288   6.257
 3738SOL    HW211547   3.481   1.364   6.274
 3739SOL     OW11548   3.252   0.575   5.664
 3739SOL    HW111549   3.198   0.554   5.745
 3739SOL    HW211550   3.343   0.534   5.673
 3740SOL     OW11551   2.389   0.256   5.914
 3740SOL    HW111552   2.416   0.197   5.839
 3740SOL    HW211553   2.389   0.351   5.883
 3741SOL     OW11554   3.616   1.223   7.174
 3741SOL    HW111555   3.707   1.184   7.161
 3741SOL    HW211556   3.624   1.319   7.198
 3742SOL     OW11557   2.926   1.347   6.926
 3742SOL    HW111558   2.846   1.324   6.981
 3742SOL    HW211559   3.009   1.321   6.975
 3743SOL     OW11560   3.454   1.629   7.211
 3743SOL    HW111561   3.481   1.663   7.121
 3743SOL    HW211562   3.533   1.591   7.257
 3744SOL     OW11563   2.973   1.195   6.686
 3744SOL    HW111564   2.933   1.239   6.767
 3744SOL    HW211565   2.932   1.232   6.603
 3745SOL     OW11566   3.500   1.099   6.665
 3745SOL    HW111567   3.505   1.180   6.724
 3745SOL    HW211568   3.414   1.101   6.614
 3746SOL     OW11569   2.777   0.089   6.988
 3746SOL    HW111570   2.802   0.069   6.893
 3746SOL    HW211571   2.849   0.145   7.030
 3747SOL     OW11572   2.842   1.116   7.305
 3747SOL    HW111573   2.743   1.122   7.315
 3747SOL    HW211574   2.865   1.036   7.249
 3748SOL     OW11575   2.567   1.050   5.954
 3748SOL    HW111576   2.553   1.057   6.053
 3748SOL    HW211577   2.651   0.999   5.936
 3749SOL     OW11578   2.272   0.813   6.837
 3749SOL    HW111579   2.358   0.825   6.887
 3749SOL    HW211580   2.230   0.726   6.864
 3750SOL     OW11581   3.136   0.386   6.848
 3750SOL    HW111582   3.157   0.460   6.912
 3750SOL    HW211583   3.047   0.403   6.805
 3751SOL     OW11584   1.926   1.564   6.917
 3751SOL    HW111585   1.880   1.646   6.883
 3751SOL    HW211586   2.024   1.583   6.926
 3752SOL     OW11587   2.229   1.100   6.087
 3752SOL    HW111588   2.222   1.183   6.031
 3752SOL    HW211589   2.233   1.020   6.027
 3753SOL     OW11590   2.428   0.537   6.451
 3753SOL    HW111591   2.440   0.603   6.377
 3753SOL    HW211592   2.474   0.571   6.534
 3754SOL     OW11593   3.114   1.348   5.974
 3754SOL    HW111594   3.164   1.425   6.014
 3754SOL    HW211595   3.019   1.350   6.006
 3755SOL     OW11596   3.134   1.445   6.728
 3755SOL    HW111597   3.181   1.458   6.815
 3755SOL    HW211598   3.068   1.371   6.737
 3756SOL     OW11599   3.444   0.639   6.058
 3756SOL    HW111600   3.413   0.700   6.131
 3756SOL    HW211601   3.494   0.691   5.989
 3757SOL     OW11602   2.216   1.510   6.915
 3757SOL    HW111603   2.195   1.466   6.828
 3757SOL    HW211604   2.313   1.536   6.918
 3758SOL     OW11605   2.264   0.751   7.184
 3758SOL    HW111606   2.332   0.806   7.137
 3758SOL    HW211607   2.304   0.663   7.211
 3759SOL     OW11608   3.449   0.779   7.256
 3759SOL    HW111609   3.357   0.817   7.251
 3759SOL    HW211610   3.509   0.826   7.191
 3760SOL     OW11611   2.875   0.105   7.356
 3760SOL    HW111612   2.881   0.190   7.304
 3760SOL    HW211613   2.907   0.029   7.299
 3761SOL     OW11614   2.366   0.050   7.326
 3761SOL    HW111615   2.324  -0.007   7.256
 3761SOL    HW211616   2.300   0.119   7.358
 3762SOL     OW11617   2.435   0.870   6.615
 3762SOL    HW111618   2.479   0.959   6.606
 3762SOL    HW211619   2.372   0.870   6.692
 3763SOL     OW11620   3.222   0.862   6.631
 3763SOL    HW111621   3.147   0.862   6.565
 3763SOL    HW211622   3.259   0.770   6.640
 3764SOL     OW11623   3.071   0.525   5.861
 3764SOL    HW111624   3.084   0.441   5.915
 3764SOL    HW211625   3.042   0.599   5.921
 3765SOL     OW11626   2.169   0.213   6.817
 3765SOL    HW111627   2.146   0.250   6.907
 3765SOL    HW211628   2.139   0.118   6.811
 3766SOL     OW11629   1.899   1.310   6.868
 3766SOL    HW111630   1.952   1.261   6.936
 3766SOL    HW211631   1.921   1.408   6.873
 3767SOL     OW11632   2.594   0.634   6.650
 3767SOL    HW111633   2.653   0.608   6.574
 3767SOL    HW211634   2.566   0.730   6.639
 3768SOL     OW11635   3.590   0.935   7.440
 3768SOL    HW111636   3.544   0.928   7.351
 3768SOL    HW211637   3.528   0.979   7.506
 3769SOL     OW11638   2.169   0.063   6.204
 3769SOL    HW111639   2.158   0.157   6.237
 3769SOL    HW211640   2.164   0.000   6.281
 3770SOL     OW11641   3.484   0.367   5.960
 3770SOL    HW111642   3.486   0.291   6.024
 3770SOL    HW211643   3.436   0.444   6.000
 3771SOL     OW11644   2.885   0.766   6.552
 3771SOL    HW111645   2.900   0.787   6.648
 3771SOL    HW211646   2.855   0.671   6.543
 3772SOL     OW11647   2.842   1.573   7.286
 3772SOL    HW111648   2.822   1.617   7.198
 3772SOL    HW211649   2.881   1.482   7.270
 3773SOL     OW11650   3.721   1.518   7.191
 3773SOL    HW111651   3.735   1.545   7.096
 3773SOL    HW211652   3.804   1.540   7.244
 3774SOL     OW11653   2.212   0.898   7.390
 3774SOL    HW111654   2.288   0.942   7.438
 3774SOL    HW211655   2.247   0.851   7.308
 3775SOL     OW11656   3.402   0.274   5.711
 3775SOL    HW111657   3.341   0.199   5.734
 3775SOL    HW211658   3.424   0.326   5.794
 3776SOL     OW11659   3.165   0.838   5.628
 3776SOL    HW111660   3.199   0.745   5.643
 3776SOL    HW211661   3.183   0.865   5.533
 3777SOL     OW11662   2.930   1.333   6.435
 3777SOL    HW111663   2.937   1.249   6.380
 3777SOL    HW211664   2.992   1.402   6.399
 3778SOL     OW11665   2.181   0.810   6.535
 3778SOL    HW111666   2.274   0.846   6.540
 3778SOL    HW211667   2.175   0.725   6.587
 3779SOL     OW11668   2.201   0.509   6.592
 3779SOL    HW111669   2.149   0.426   6.575
 3779SOL    HW211670   2.278   0.514   6.528
 3780SOL     OW11671   3.000   0.380   7.264
 3780SOL    HW111672   2.955   0.443   7.328
 3780SOL    HW211673   3.093   0.411   7.247
 3781SOL     OW11674   3.022   0.207   7.063
 3781SOL    HW111675   3.022   0.271   7.140
 3781SOL    HW211676   3.050   0.255   6.980
 3782SOL     OW11677   1.870   1.326   5.786
 3782SOL    HW111678   1.777   1.347   5.755
 3782SOL    HW211679   1.880   1.227   5.799
 3783SOL     OW11680   1.950   1.801   6.513
 3783SOL    HW111681   1.908   1.715   6.486
 3783SOL    HW211682   2.044   1.804   6.479
 3784SOL     OW11683   2.366   1.568   6.496
 3784SOL    HW111684   2.432   1.642   6.505
 3784SOL    HW211685   2.410   1.489   6.454
 3785SOL     OW11686   2.864   0.796   6.824
 3785SOL    HW111687   2.905   0.764   6.910
 3785SOL    HW211688   2.768   0.769   6.821
 3786SOL     OW11689   1.902   0.544   6.700
 3786SOL    HW111690   1.987   0.511   6.659
 3786SOL    HW211691   1.915   0.559   6.798
 3787SOL     OW11692   2.051   0.520   7.308
 3787SOL    HW111693   2.110   0.480   7.238
 3787SOL    HW211694   1.993   0.591   7.267
 3788SOL     OW11695   3.231   0.950   7.246
 3788SOL    HW111696   3.270   1.039   7.266
 3788SOL    HW211697   3.241   0.930   7.149
 3789SOL     OW11698   2.677   0.572   5.911
 3789SOL    HW111699   2.684   0.483   5.865
 3789SOL    HW211700   2.583   0.606   5.903
 3790SOL     OW11701   3.519   0.604   6.792
 3790SOL    HW111702   3.481   0.535   6.854
 3790SOL    HW211703   3.601   0.568   6.748
 3791SOL     OW11704   2.114   1.564   7.330
 3791SOL    HW111705   2.084   1.621   7.406
 3791SOL    HW211706   2.107   1.467   7.356
 3792SOL     OW11707   2.533   0.464   6.855
 3792SOL    HW111708   2.499   0.375   6.825
 3792SOL    HW211709   2.559   0.518   6.775
 3793SOL     OW11710   2.792   1.678   7.051
 3793SOL    HW111711   2.768   1.660   6.956
 3793SOL    HW211712   2.822   1.772   7.061
 3794SOL     OW11713   2.335   0.500   5.777
 3794SOL    HW111714   2.396   0.580   5.781
 3794SOL    HW211715   2.240   0.531   5.784
 3795SOL     OW11716   2.021   1.137   7.052
 3795SOL    HW111717   2.043   1.076   7.128
 3795SOL    HW211718   2.031   1.088   6.966
 3796SOL     OW11719   3.209   1.059   6.820
 3796SOL    HW111720   3.233   0.996   6.746
 3796SOL    HW211721   3.119   1.099   6.802
 3797SOL     OW11722   3.164   0.855   5.895
 3797SOL    HW111723   3.078   0.824   5.937
 3797SOL    HW211724   3.160   0.841   5.796
 3798SOL     OW11725   3.621   1.747   6.740
 3798SOL    HW111726   3.682   1.777   6.667
 3798SOL    HW211727   3.583   1.658   6.718
 3799SOL     OW11728   3.114   1.731   6.714
 3799SOL    HW111729   3.198   1.736   6.660
 3799SOL    HW211730   3.091   1.635   6.732
 3800SOL     OW11731   1.945   1.258   6.608
 3800SOL    HW111732   1.940   1.257   6.708
 3800SOL    HW211733   1.862   1.217   6.570
 3801SOL     OW11734   2.550   1.662   7.302
 3801SOL    HW111735   2.494   1.743   7.311
 3801SOL    HW211736   2.602   1.666   7.216
 3802SOL     OW11737   3.588   0.135   6.109
 3802SOL    HW111738   3.661   0.118   6.042
 3802SOL    HW211739   3.557   0.048   6.147
 3803SOL     OW11740   3.250   1.573   6.063
 3803SOL    HW111741   3.317   1.585   5.989
 3803SOL    HW211742   3.210   1.662   6.086
 3804SOL     OW11743   1.992   1.794   7.437
 3804SOL    HW111744   1.951   1.720   7.490
 3804SOL    HW211745   2.056   1.845   7.495
 3805SOL     OW11746   3.142   0.927   6.258
 3805SOL    HW111747   3.202   0.846   6.260
 3805SOL    HW211748   3.182   0.996   6.198
 3806SOL     OW11749   2.692   1.273   7.008
 3806SOL    HW111750   2.687   1.306   7.103
 3806SOL    HW211751   2.606   1.292   6.962
 3807SOL     OW11752   2.534   1.616   5.740
 3807SOL    HW111753   2.543   1.626   5.641
 3807SOL    HW211754   2.494   1.527   5.761
 3808SOL     OW11755   3.512   1.720   6.980
 3808SOL    HW111756   3.565   1.730   6.896
 3808SOL    HW211757   3.485   1.810   7.014
 3809SOL     OW11758   3.703   0.175   6.549
 3809SOL    HW111759   3.742   0.090   6.513
 3809SOL    HW211760   3.605   0.177   6.530
 3810SOL     OW11761   2.125   0.326   6.306
 3810SOL    HW111762   2.046   0.377   6.272
 3810SOL    HW211763   2.116   0.311   6.404
 3811SOL     OW11764   3.056   1.612   5.617
 3811SOL    HW111765   3.062   1.519   5.654
 3811SOL    HW211766   2.997   1.612   5.537
 3812SOL     OW11767   2.684   1.002   6.958
 3812SOL    HW111768   2.724   1.001   6.866
 3812SOL    HW211769   2.694   1.094   6.998
 3813SOL     OW11770   2.778   0.910   5.877
 3813SOL    HW111771   2.841   0.948   5.809
 3813SOL    HW211772   2.818   0.827   5.916
 3814SOL     OW11773   3.366   1.607   5.630
 3814SOL    HW111774   3.274   1.644   5.637
 3814SOL    HW211775   3.404   1.627   5.540
 3815SOL     OW11776   2.234   1.288   7.076
 3815SOL    HW111777   2.221   1.381   7.042
 3815SOL    HW211778   2.150   1.236   7.063
 3816SOL     OW11779   3.476   1.292   6.875
 3816SOL    HW111780   3.536   1.295   6.955
 3816SOL    HW211781   3.401   1.356   6.888
 3817SOL     OW11782   2.901   1.098   6.282
 3817SOL    HW111783   2.831   1.051   6.336
 3817SOL    HW211784   2.960   1.030   6.239
 3818SOL     OW11785   2.876   0.236   6.557
 3818SOL    HW111786   2.868   0.200   6.464
 3818SOL    HW211787   2.874   0.160   6.622
 3819SOL     OW11788   2.452   1.487   6.077
 3819SOL    HW111789   2.494   1.429   6.007
 3819SOL    HW211790   2.408   1.566   6.033
 3820SOL     OW11791   3.571   0.385   6.967
 3820SOL    HW111792   3.644   0.454   6.971
 3820SOL    HW211793   3.599   0.310   6.908
 3821SOL     OW11794   2.117   1.348   5.876
 3821SOL    HW111795   2.021   1.349   5.849
 3821SOL    HW211796   2.129   1.401   5.960
 3822SOL     OW11797   1.967   1.013   7.312
 3822SOL    HW111798   1.890   0.980   7.366
 3822SOL    HW211799   2.052   0.983   7.354
 3823SOL     OW11800   2.534   0.203   7.075
 3823SOL    HW111801   2.624   0.187   7.035
 3823SOL    HW211802   2.542   0.208   7.174
 3824SOL     OW11803   1.937   0.345   5.619
 3824SOL    HW111804   1.845   0.317   5.590
 3824SOL    HW211805   1.968   0.422   5.563
 3825SOL     OW11806   3.302   0.856   6.984
 3825SOL    HW111807   3.245   0.908   6.921
 3825SOL    HW211808   3.398   0.868   6.960
 3826SOL     OW11809   1.934   0.166   5.904
 3826SOL    HW111810   1.917   0.249   5.850
 3826SOL    HW211811   2.024   0.129   5.882
 3827SOL     OW11812   3.045   1.335   5.705
 3827SOL    HW111813   2.946   1.324   5.707
 3827SOL    HW211814   3.079   1.350   5.798
 3828SOL     OW11815   2.475   0.842   7.017
 3828SOL    HW111816   2.531   0.923   7.000
 3828SOL    HW211817   2.534   0.762   7.020
 3829SOL     OW11818   3.355   1.767   6.545
 3829SOL    HW111819   3.388   1.831   6.476
 3829SOL    HW211820   3.421   1.761   6.620
 3830SOL     OW11821   2.578   0.565   7.294
 3830SOL    HW111822   2.597   0.630   7.368
 3830SOL    HW211823   2.638   0.485   7.303
 3831SOL     OW11824   3.312   1.220   7.219
 3831SOL    HW111825   3.303   1.210   7.318
 3831SOL    HW211826   3.408   1.213   7.193
 3832SOL     OW11827   2.252   1.741   7.146
 3832SOL    HW111828   2.161   1.782   7.144
 3832SOL    HW211829   2.245   1.647   7.178
 3833SOL     OW11830   3.536   0.883   6.840
 3833SOL    HW111831   3.509   0.794   6.803
 3833SOL    HW211832   3.537   0.951   6.767
 3834SOL     OW11833   3.087   0.325   6.035
 3834SOL    HW111834   3.152   0.251   6.024
 3834SOL    HW211835   3.107   0.375   6.119
 3835SOL     OW11836   2.456   0.745   6.238
 3835SOL    HW111837   2.506   0.830   6.219
 3835SOL    HW211838   2.368   0.747   6.190
 3836SOL     OW11839   3.639   0.342   7.228
 3836SOL    HW111840   3.622   0.373   7.134
 3836SOL    HW211841   3.555   0.305   7.266
 3837SOL     OW11842   3.592   0.934   7.103
 3837SOL    HW111843   3.630   1.025   7.118
 3837SOL    HW211844   3.584   0.917   7.004
 3838SOL     OW11845   2.721   1.374   5.602
 3838SOL    HW111846   2.675   1.389   5.690
 3838SOL    HW211847   2.765   1.459   5.572
 3839SOL     OW11848   2.523   1.790   6.539
 3839SOL    HW111849   2.477   1.878   6.526
 3839SOL    HW211850   2.622   1.802   6.532
 3840SOL     OW11851   2.721   0.956   6.447
 3840SOL    HW111852   2.775   0.887   6.495
 3840SOL    HW211853   2.689   1.025   6.513
 3841SOL     OW11854   2.945   0.984   5.673
 3841SOL    HW111855   2.922   1.037   5.591
 3841SOL    HW211856   3.026   0.928   5.654
 3842SOL     OW11857   3.723   1.569   6.437
 3842SOL    HW111858   3.652   1.557   6.367
 3842SOL    HW211859   3.724   1.490   6.497
 3843SOL     OW11860   2.083   1.314   7.430
 3843SOL    HW111861   2.018   1.241   7.409
 3843SOL    HW211862   2.087   1.328   7.528
 3844SOL     OW11863   1.941   1.240   6.239
 3844SOL    HW111864   1.940   1.193   6.327
 3844SOL    HW211865   2.023   1.212   6.188
 3845SOL     OW11866   2.534   1.391   7.210
 3845SOL    HW111867   2.456   1.341   7.248
 3845SOL    HW211868   2.531   1.486   7.241
 3846SOL     OW11869   3.686   0.192   6.813
 3846SOL    HW111870   3.682   0.102   6.857
 3846SOL    HW211871   3.689   0.181   6.714
 3847SOL     OW11872   2.290   0.424   6.106
 3847SOL    HW111873   2.320   0.352   6.044
 3847SOL    HW211874   2.251   0.384   6.189
 3848SOL     OW11875   3.567   1.487   6.690
 3848SOL    HW111876   3.474   1.462   6.663
 3848SOL    HW211877   3.593   1.437   6.772
 3849SOL     OW11878   2.179   0.547   6.866
 3849SOL    HW111879   2.217   0.488   6.938
 3849SOL    HW211880   2.219   0.521   6.778
 3850SOL     OW11881   2.674   1.586   6.273
 3850SOL    HW111882   2.706   1.596   6.179
 3850SOL    HW211883   2.595   1.524   6.275
 3851SOL     OW11884   3.286   0.214   6.698
 3851SOL    HW111885   3.338   0.149   6.753
 3851SOL    HW211886   3.237   0.277   6.759
 3852SOL     OW11887   2.863   0.034   6.740
 3852SOL    HW111888   2.800  -0.038   6.709
 3852SOL    HW211889   2.956  -0.002   6.740
 3853SOL     OW11890   2.632   1.330   5.887
 3853SOL    HW111891   2.586   1.243   5.904
 3853SOL    HW211892   2.723   1.327   5.928
 3854SOL     OW11893   2.480   1.567   6.870
 3854SOL    HW111894   2.475   1.649   6.927
 3854SOL    HW211895   2.569   1.564   6.825
 3855SOL     OW11896   3.214   0.052   5.754
 3855SOL    HW111897   3.249   0.011   5.670
 3855SOL    HW211898   3.124   0.014   5.774
 3856SOL     OW11899   3.162   0.453   6.277
 3856SOL    HW111900   3.103   0.533   6.281
 3856SOL    HW211901   3.177   0.418   6.370
 3857SOL     OW11902   3.455   0.221   6.468
 3857SOL    HW111903   3.371   0.220   6.522
 3857SOL    HW211904   3.457   0.304   6.412
 3858SOL     OW11905   1.901   1.077   5.886
 3858SOL    HW111906   2.000   1.066   5.877
 3858SOL    HW211907   1.861   0.991   5.918
 3859SOL     OW11908   2.737   1.646   5.923
 3859SOL    HW111909   2.660   1.611   5.869
 3859SOL    HW211910   2.705   1.717   5.985
 3860SOL     OW11911   2.092   0.628   7.561
 3860SOL    HW111912   1.999   0.626   7.598
 3860SOL    HW211913   2.093   0.589   7.469
 3861SOL     OW11914   2.087   0.275   8.444
 3861SOL    HW111915   2.122   0.258   8.536
 3861SOL    HW211916   1.999   0.230   8.432
 3862SOL     OW11917   1.881   0.368   8.095
 3862SOL    HW111918   1.799   0.411   8.134
 3862SOL    HW211919   1.853   0.295   8.032
 3863SOL     OW11920   2.431   1.275   8.613
 3863SOL    HW111921   2.338   1.268   8.576
 3863SOL    HW211922   2.442   1.364   8.657
 3864SOL     OW11923   3.417   1.511   8.151
 3864SOL    HW111924   3.360   1.495   8.232
 3864SOL    HW211925   3.358   1.521   8.071
 3865SOL     OW11926   2.997   0.703   8.165
 3865SOL    HW111927   3.054   0.781   8.140
 3865SOL    HW211928   2.937   0.729   8.241
 3866SOL     OW11929   3.617   0.607   7.679
 3866SOL    HW111930   3.605   0.594   7.580
 3866SOL    HW211931   3.587   0.526   7.728
 3867SOL     OW11932   2.630   1.144   8.471
 3867SOL    HW111933   2.552   1.161   8.531
 3867SOL    HW211934   2.664   1.231   8.435
 3868SOL     OW11935   2.712   0.798   9.271
 3868SOL    HW111936   2.708   0.874   9.336
 3868SOL    HW211937   2.734   0.834   9.180
 3869SOL     OW11938   2.547   1.012   8.113
 3869SOL    HW111939   2.616   0.996   8.183
 3869SOL    HW211940   2.474   1.069   8.151
 3870SOL     OW11941   2.548   1.161   9.251
 3870SOL    HW111942   2.608   1.240   9.265
 3870SOL    HW211943   2.462   1.192   9.210
 3871SOL     OW11944   2.197   1.435   8.509
 3871SOL    HW111945   2.119   1.404   8.456
 3871SOL    HW211946   2.255   1.493   8.452
 3872SOL     OW11947   3.322   1.505   8.787
 3872SOL    HW111948   3.346   1.599   8.813
 3872SOL    HW211949   3.306   1.451   8.869
 3873SOL     OW11950   2.300   0.392   8.947
 3873SOL    HW111951   2.382   0.336   8.956
 3873SOL    HW211952   2.219   0.334   8.951
 3874SOL     OW11953   3.465   0.447   8.185
 3874SOL    HW111954   3.391   0.493   8.135
 3874SOL    HW211955   3.516   0.515   8.238
 3875SOL     OW11956   2.093   1.713   7.931
 3875SOL    HW111957   2.127   1.790   7.985
 3875SOL    HW211958   2.137   1.713   7.841
 3876SOL     OW11959   2.989   1.341   9.138
 3876SOL    HW111960   3.036   1.341   9.226
 3876SOL    HW211961   2.941   1.254   9.127
 3877SOL     OW11962   2.092   1.434   7.986
 3877SOL    HW111963   2.066   1.530   7.986
 3877SOL    HW211964   2.021   1.380   8.031
 3878SOL     OW11965   2.102   1.091   8.334
 3878SOL    HW111966   2.116   1.007   8.386
 3878SOL    HW211967   2.047   1.155   8.389
 3879SOL     OW11968   2.482   1.786   8.887
 3879SOL    HW111969   2.390   1.769   8.922
 3879SOL    HW211970   2.510   1.878   8.913
 3880SOL     OW11971   2.468   0.964   7.571
 3880SOL    HW111972   2.475   1.048   7.517
 3880SOL    HW211973   2.514   0.977   7.659
 3881SOL     OW11974   3.456   0.114   8.928
 3881SOL    HW111975   3.438   0.181   8.856
 3881SOL    HW211976   3.453   0.160   9.017
 3882SOL     OW11977   1.984   0.643   8.011
 3882SOL    HW111978   1.939   0.555   8.028
 3882SOL    HW211979   1.983   0.697   8.095
 3883SOL     OW11980   3.704   1.767   7.807
 3883SOL    HW111981   3.758   1.738   7.887
 3883SOL    HW211982   3.734   1.857   7.778
 3884SOL     OW11983   1.889   1.596   7.565
 3884SOL    HW111984   1.870   1.500   7.586
 3884SOL    HW211985   1.856   1.654   7.640
 3885SOL     OW11986   3.551   0.922   8.060
 3885SOL    HW111987   3.646   0.893   8.068
 3885SOL    HW211988   3.543   0.987   7.985
 3886SOL     OW11989   3.503   1.108   7.880
 3886SOL    HW111990   3.589   1.110   7.828
 3886SOL    HW211991   3.517   1.155   7.968
 3887SOL     OW11992   1.975   0.737   9.045
 3887SOL    HW111993   2.063   0.724   9.090
 3887SOL    HW211994   1.962   0.834   9.023
 3888SOL     OW11995   2.475   1.365   8.174
 3888SOL    HW111996   2.426   1.278   8.183
 3888SOL    HW211997   2.452   1.408   8.087
 3889SOL     OW11998   3.155   1.228   8.871
 3889SOL    HW111999   3.192   1.155   8.813
 3889SOL    HW212000   3.207   1.233   8.956
 3890SOL     OW12001   2.671   0.004   7.950
 3890SOL    HW112002   2.711   0.095   7.941
 3890SOL    HW212003   2.571   0.012   7.956
 3891SOL     OW12004   2.059   0.976   8.712
 3891SOL    HW112005   2.148   0.931   8.698
 3891SOL    HW212006   1.986   0.911   8.693
 3892SOL     OW12007   3.387   0.999   7.638
 3892SOL    HW112008   3.324   0.923   7.651
 3892SOL    HW212009   3.435   1.017   7.724
 3893SOL     OW12010   3.049   1.792   9.064
 3893SOL    HW112011   3.073   1.852   8.988
 3893SOL    HW212012   3.056   1.697   9.034
 3894SOL     OW12013   2.179   0.251   9.249
 3894SOL    HW112014   2.250   0.322   9.255
 3894SOL    HW212015   2.091   0.290   9.277
 3895SOL     OW12016   3.328   1.417   8.401
 3895SOL    HW112017   3.269   1.423   8.481
 3895SOL    HW212018   3.313   1.329   8.355
 3896SOL     OW12019   3.529   1.714   8.020
 3896SOL    HW112020   3.488   1.691   7.932
 3896SOL    HW212021   3.511   1.640   8.085
 3897SOL     OW12022   2.460   0.729   7.718
 3897SOL    HW112023   2.484   0.798   7.650
 3897SOL    HW212024   2.382   0.762   7.772
 3898SOL     OW12025   3.143   0.345   8.392
 3898SOL    HW112026   3.057   0.295   8.379
 3898SOL    HW212027   3.205   0.291   8.448
 3899SOL     OW12028   3.438   1.662   7.755
 3899SOL    HW112029   3.527   1.708   7.758
 3899SOL    HW212030   3.417   1.638   7.660
 3900SOL     OW12031   2.669   0.605   8.913
 3900SOL    HW112032   2.622   0.602   9.002
 3900SOL    HW212033   2.618   0.550   8.847
 3901SOL     OW12034   3.256   0.469   9.122
 3901SOL    HW112035   3.236   0.512   9.210
 3901SOL    HW212036   3.334   0.407   9.131
 3902SOL     OW12037   2.835   0.890   9.020
 3902SOL    HW112038   2.881   0.806   8.991
 3902SOL    HW212039   2.779   0.924   8.945
 3903SOL     OW12040   2.853   0.410   8.690
 3903SOL    HW112041   2.776   0.444   8.744
 3903SOL    HW212042   2.819   0.359   8.611
 3904SOL     OW12043   2.903   0.701   7.877
 3904SOL    HW112044   2.929   0.697   7.973
 3904SOL    HW212045   2.818   0.650   7.863
 3905SOL     OW12046   1.938   0.811   8.237
 3905SOL    HW112047   2.037   0.799   8.246
 3905SOL    HW212048   1.914   0.906   8.258
 3906SOL     OW12049   1.992   1.821   9.019
 3906SOL    HW112050   1.982   1.806   9.118
 3906SOL    HW212051   1.906   1.857   8.983
 3907SOL     OW12052   2.727   0.348   7.643
 3907SOL    HW112053   2.786   0.411   7.594
 3907SOL    HW212054   2.746   0.254   7.614
 3908SOL     OW12055   3.581   0.585   9.279
 3908SOL    HW112056   3.555   0.674   9.243
 3908SOL    HW212057   3.579   0.517   9.206
 3909SOL     OW12058   3.224   1.144   7.993
 3909SOL    HW112059   3.307   1.115   7.945
 3909SOL    HW212060   3.175   1.211   7.937
 3910SOL     OW12061   2.412   0.196   8.333
 3910SOL    HW112062   2.407   0.191   8.433
 3910SOL    HW212063   2.414   0.292   8.304
 3911SOL     OW12064   2.870   1.456   7.925
 3911SOL    HW112065   2.824   1.528   7.873
 3911SOL    HW212066   2.866   1.476   8.023
 3912SOL     OW12067   2.213   1.801   8.301
 3912SOL    HW112068   2.263   1.715   8.307
 3912SOL    HW212069   2.278   1.878   8.298
 3913SOL     OW12070   3.657   1.066   8.321
 3913SOL    HW112071   3.595   1.051   8.245
 3913SOL    HW212072   3.605   1.077   8.406
 3914SOL     OW12073   3.089   1.550   8.954
 3914SOL    HW112074   3.095   1.473   9.018
 3914SOL    HW212075   3.037   1.524   8.874
 3915SOL     OW12076   2.183   0.943   7.690
 3915SOL    HW112077   2.265   0.982   7.648
 3915SOL    HW212078   2.156   0.861   7.641
 3916SOL     OW12079   3.320   0.735   8.176
 3916SOL    HW112080   3.315   0.670   8.251
 3916SOL    HW212081   3.400   0.794   8.189
 3917SOL     OW12082   2.323   1.266   9.175
 3917SOL    HW112083   2.273   1.267   9.089
 3917SOL    HW212084   2.260   1.248   9.251
 3918SOL     OW12085   2.973   1.776   7.685
 3918SOL    HW112086   2.913   1.714   7.735
 3918SOL    HW212087   3.004   1.732   7.600
 3919SOL     OW12088   2.064   0.285   8.946
 3919SOL    HW112089   1.984   0.345   8.933
 3919SOL    HW212090   2.054   0.236   9.032
 3920SOL     OW12091   3.494   1.377   7.529
 3920SOL    HW112092   3.462   1.471   7.519
 3920SOL    HW212093   3.418   1.314   7.517
 3921SOL     OW12094   2.326   1.743   7.771
 3921SOL    HW112095   2.359   1.782   7.857
 3921SOL    HW212096   2.402   1.736   7.706
 3922SOL     OW12097   3.262   0.107   7.874
 3922SOL    HW112098   3.238   0.070   7.784
 3922SOL    HW212099   3.361   0.123   7.878
 3923SOL     OW12100   2.111   1.785   8.689
 3923SOL    HW112101   2.168   1.720   8.739
 3923SOL    HW212102   2.095   1.752   8.596
 3924SOL     OW12103   2.802   1.698   8.352
 3924SOL    HW112104   2.882   1.641   8.373
 3924SOL    HW212105   2.753   1.658   8.275
 3925SOL     OW12106   2.244   0.700   7.928
 3925SOL    HW112107   2.289   0.610   7.925
 3925SOL    HW212108   2.150   0.689   7.961
 3926SOL     OW12109   3.409   0.222   9.177
 3926SOL    HW112110   3.404   0.259   9.269
 3926SOL    HW212111   3.337   0.153   9.165
 3927SOL     OW12112   2.476   0.122   7.565
 3927SOL    HW112113   2.574   0.100   7.572
 3927SOL    HW212114   2.445   0.105   7.472
 3928SOL     OW12115   2.643   0.264   9.197
 3928SOL    HW112116   2.710   0.203   9.240
 3928SOL    HW212117   2.570   0.283   9.262
 3929SOL     OW12118   2.750   1.514   8.643
 3929SOL    HW112119   2.727   1.489   8.549
 3929SOL    HW212120   2.811   1.445   8.682
 3930SOL     OW12121   3.213   0.590   8.881
 3930SOL    HW112122   3.241   0.547   8.966
 3930SOL    HW212123   3.238   0.686   8.882
 3931SOL     OW12124   2.665   1.402   8.372
 3931SOL    HW112125   2.755   1.416   8.330
 3931SOL    HW212126   2.594   1.404   8.301
 3932SOL     OW12127   2.784   0.503   8.347
 3932SOL    HW112128   2.759   0.494   8.251
 3932SOL    HW212129   2.832   0.421   8.378
 3933SOL     OW12130   2.401   0.064   7.960
 3933SOL    HW112131   2.320   0.065   8.018
 3933SOL    HW212132   2.404   0.147   7.905
 3934SOL     OW12133   3.296   1.188   7.489
 3934SOL    HW112134   3.328   1.112   7.546
 3934SOL    HW212135   3.204   1.215   7.519
 3935SOL     OW12136   2.159   0.035   7.619
 3935SOL    HW112137   2.208   0.119   7.598
 3935SOL    HW212138   2.221  -0.030   7.664
 3936SOL     OW12139   2.797   0.236   7.928
 3936SOL    HW112140   2.749   0.277   7.850
 3936SOL    HW212141   2.896   0.234   7.909
 3937SOL     OW12142   2.938   0.683   8.912
 3937SOL    HW112143   2.858   0.622   8.915
 3937SOL    HW212144   3.019   0.630   8.888
 3938SOL     OW12145   3.089   1.570   8.241
 3938SOL    HW112146   3.110   1.644   8.176
 3938SOL    HW212147   3.157   1.570   8.314
 3939SOL     OW12148   2.321   1.152   8.189
 3939SOL    HW112149   2.250   1.125   8.254
 3939SOL    HW212150   2.295   1.124   8.096
 3940SOL     OW12151   3.133   1.797   8.039
 3940SOL    HW112152   3.177   1.861   7.975
 3940SOL    HW212153   3.083   1.849   8.109
 3941SOL     OW12154   2.894   0.549   7.464
 3941SOL    HW112155   2.853   0.631   7.425
 3941SOL    HW212156   2.958   0.575   7.537
 3942SOL     OW12157   1.940   0.556   8.834
 3942SOL    HW112158   2.032   0.555   8.793
 3942SOL    HW212159   1.934   0.630   8.901
 3943SOL     OW12160   2.423   0.222   8.595
 3943SOL    HW112161   2.461   0.138   8.632
 3943SOL    HW212162   2.335   0.241   8.639
 3944SOL     OW12163   2.728   0.454   8.090
 3944SOL    HW112164   2.696   0.526   8.028
 3944SOL    HW212165   2.752   0.373   8.037
 3945SOL     OW12166   2.879   0.039   8.201
 3945SOL    HW112167   2.807   0.044   8.132
 3945SOL    HW212168   2.855  -0.030   8.270
 3946SOL     OW12169   3.291   1.173   8.315
 3946SOL    HW112170   3.236   1.089   8.308
 3946SOL    HW212171   3.317   1.202   8.223
 3947SOL     OW12172   3.328   0.590   8.440
 3947SOL    HW112173   3.298   0.495   8.447
 3947SOL    HW212174   3.401   0.606   8.506
 3948SOL     OW12175   3.719   0.833   7.825
 3948SOL    HW112176   3.761   0.769   7.889
 3948SOL    HW212177   3.681   0.782   7.747
 3949SOL     OW12178   2.350   1.385   7.622
 3949SOL    HW112179   2.263   1.370   7.669
 3949SOL    HW212180   2.333   1.411   7.527
 3950SOL     OW12181   3.526   1.280   8.105
 3950SOL    HW112182   3.625   1.288   8.119
 3950SOL    HW212183   3.481   1.364   8.136
 3951SOL     OW12184   3.252   0.575   7.526
 3951SOL    HW112185   3.198   0.554   7.607
 3951SOL    HW212186   3.343   0.534   7.535
 3952SOL     OW12187   2.389   0.256   7.776
 3952SOL    HW112188   2.416   0.197   7.701
 3952SOL    HW212189   2.389   0.351   7.745
 3953SOL     OW12190   3.616   1.223   9.036
 3953SOL    HW112191   3.707   1.184   9.023
 3953SOL    HW212192   3.624   1.319   9.060
 3954SOL     OW12193   2.926   1.347   8.788
 3954SOL    HW112194   2.846   1.324   8.843
 3954SOL    HW212195   3.009   1.321   8.837
 3955SOL     OW12196   3.454   1.629   9.073
 3955SOL    HW112197   3.481   1.663   8.983
 3955SOL    HW212198   3.533   1.591   9.119
 3956SOL     OW12199   2.973   1.195   8.548
 3956SOL    HW112200   2.933   1.239   8.629
 3956SOL    HW212201   2.932   1.232   8.465
 3957SOL     OW12202   3.500   1.099   8.527
 3957SOL    HW112203   3.505   1.180   8.586
 3957SOL    HW212204   3.414   1.101   8.476
 3958SOL     OW12205   2.777   0.089   8.850
 3958SOL    HW112206   2.802   0.069   8.755
 3958SOL    HW212207   2.849   0.145   8.892
 3959SOL     OW12208   2.842   1.116   9.167
 3959SOL    HW112209   2.743   1.122   9.177
 3959SOL    HW212210   2.865   1.036   9.111
 3960SOL     OW12211   2.567   1.050   7.816
 3960SOL    HW112212   2.553   1.057   7.915
 3960SOL    HW212213   2.651   0.999   7.798
 3961SOL     OW12214   2.272   0.813   8.699
 3961SOL    HW112215   2.358   0.825   8.749
 3961SOL    HW212216   2.230   0.726   8.726
 3962SOL     OW12217   3.136   0.386   8.710
 3962SOL    HW112218   3.157   0.460   8.774
 3962SOL    HW212219   3.047   0.403   8.667
 3963SOL     OW12220   1.926   1.564   8.779
 3963SOL    HW112221   1.880   1.646   8.745
 3963SOL    HW212222   2.024   1.583   8.788
 3964SOL     OW12223   2.229   1.100   7.949
 3964SOL    HW112224   2.222   1.183   7.893
 3964SOL    HW212225   2.233   1.020   7.889
 3965SOL     OW12226   2.428   0.537   8.313
 3965SOL    HW112227   2.440   0.603   8.239
 3965SOL    HW212228   2.474   0.571   8.396
 3966SOL     OW12229   3.114   1.348   7.836
 3966SOL    HW112230   3.164   1.425   7.876
 3966SOL    HW212231   3.019   1.350   7.868
 3967SOL     OW12232   3.134   1.445   8.590
 3967SOL    HW112233   3.181   1.458   8.677
 3967SOL    HW212234   3.068   1.371   8.599
 3968SOL     OW12235   3.444   0.639   7.920
 3968SOL    HW112236   3.413   0.700   7.993
 3968SOL    HW212237   3.494   0.691   7.851
 3969SOL     OW12238   2.216   1.510   8.777
 3969SOL    HW112239   2.195   1.466   8.690
 3969SOL    HW212240   2.313   1.536   8.780
 3970SOL     OW12241   2.264   0.751   9.046
 3970SOL    HW112242   2.332   0.806   8.999
 3970SOL    HW212243   2.304   0.663   9.073
 3971SOL     OW12244   3.449   0.779   9.118
 3971SOL    HW112245   3.357   0.817   9.113
 3971SOL    HW212246   3.509   0.826   9.053
 3972SOL     OW12247   2.875   0.105   9.218
 3972SOL    HW112248   2.881   0.190   9.166
 3972SOL    HW212249   2.907   0.029   9.161
 3973SOL     OW12250   2.366   0.050   9.188
 3973SOL    HW112251   2.324  -0.007   9.118
 3973SOL    HW212252   2.300   0.119   9.220
 3974SOL     OW12253   2.435   0.870   8.477
 3974SOL    HW112254   2.479   0.959   8.468
 3974SOL    HW212255   2.372   0.870   8.554
 3975SOL     OW12256   3.222   0.862   8.493
 3975SOL    HW112257   3.147   0.862   8.427
 3975SOL    HW212258   3.259   0.770   8.502
 3976SOL     OW12259   3.071   0.525   7.723
 3976SOL    HW112260   3.084   0.441   7.777
 3976SOL    HW212261   3.042   0.599   7.783
 3977SOL     OW12262   2.169   0.213   8.679
 3977SOL    HW112263   2.146   0.250   8.769
 3977SOL    HW212264   2.139   0.118   8.673
 3978SOL     OW12265   1.899   1.310   8.730
 3978SOL    HW112266   1.952   1.261   8.798
 3978SOL    HW212267   1.921   1.408   8.735
 3979SOL     OW12268   2.594   0.634   8.512
 3979SOL    HW112269   2.653   0.608   8.436
 3979SOL    HW212270   2.566   0.730   8.501
 3980SOL     OW12271   3.590   0.935   9.302
 3980SOL    HW112272   3.544   0.928   9.213
 3980SOL    HW212273   3.528   0.979   9.368
 3981SOL     OW12274   2.169   0.063   8.066
 3981SOL    HW112275   2.158   0.157   8.099
 3981SOL    HW212276   2.164   0.000   8.143
 3982SOL     OW12277   3.484   0.367   7.822
 3982SOL    HW112278   3.486   0.291   7.886
 3982SOL    HW212279   3.436   0.444   7.862
 3983SOL     OW12280   2.885   0.766   8.414
 3983SOL    HW112281   2.900   0.787   8.510
 3983SOL    HW212282   2.855   0.671   8.405
 3984SOL     OW12283   2.842   1.573   9.148
 3984SOL    HW112284   2.822   1.617   9.060
 3984SOL    HW212285   2.881   1.482   9.132
 3985SOL     OW12286   3.721   1.518   9.053
 3985SOL    HW112287   3.735   1.545   8.958
 3985SOL    HW212288   3.804   1.540   9.106
 3986SOL     OW12289   2.212   0.898   9.252
 3986SOL    HW112290   2.288   0.942   9.300
 3986SOL    HW212291   2.247   0.851   9.170
 3987SOL     OW12292   3.402   0.274   7.573
 3987SOL    HW112293   3.341   0.199   7.596
 3987SOL    HW212294   3.424   0.326   7.656
 3988SOL     OW12295   3.165   0.838   7.490
 3988SOL    HW112296   3.199   0.745   7.505
 3988SOL    HW212297   3.183   0.865   7.395
 3989SOL     OW12298   2.930   1.333   8.297
 3989SOL    HW112299   2.937   1.249   8.242
 3989SOL    HW212300   2.992   1.402   8.261
 3990SOL     OW12301   2.181   0.810   8.397
 3990SOL    HW112302   2.274   0.846   8.402
 3990SOL    HW212303   2.175   0.725   8.449
 3991SOL     OW12304   2.201   0.509   8.454
 3991SOL    HW112305   2.149   0.426   8.437
 3991SOL    HW212306   2.278   0.514   8.390
 3992SOL     OW12307   3.000   0.380   9.126
 3992SOL    HW112308   2.955   0.443   9.190
 3992SOL    HW212309   3.093   0.411   9.109
 3993SOL     OW12310   3.022   0.207   8.925
 3993SOL    HW112311   3.022   0.271   9.002
 3993SOL    HW212312   3.050   0.255   8.842
 3994SOL     OW12313   1.870   1.326   7.648
 3994SOL    HW112314   1.777   1.347   7.617
 3994SOL    HW212315   1.880   1.227   7.661
 3995SOL     OW12316   1.950   1.801   8.375
 3995SOL    HW112317   1.908   1.715   8.348
 3995SOL    HW212318   2.044   1.804   8.341
 3996SOL     OW12319   2.366   1.568   8.358
 3996SOL    HW112320   2.432   1.642   8.367
 3996SOL    HW212321   2.410   1.489   8.316
 3997SOL     OW12322   2.864   0.796   8.686
 3997SOL    HW112323   2.905   0.764   8.772
 3997SOL    HW212324   2.768   0.769   8.683
 3998SOL     OW12325   1.902   0.544   8.562
 3998SOL    HW112326   1.987   0.511   8.521
 3998SOL    HW212327   1.915   0.559   8.660
 3999SOL     OW12328   2.051   0.520   9.170
 3999SOL    HW112329   2.110   0.480   9.100
 3999SOL    HW212330   1.993   0.591   9.129
 4000SOL     OW12331   3.231   0.950   9.108
 4000SOL    HW112332   3.270   1.039   9.128
 4000SOL    HW212333   3.241   0.930   9.011
 4001SOL     OW12334   2.677   0.572   7.773
 4001SOL    HW112335   2.684   0.483   7.727
 4001SOL    HW212336   2.583   0.606   7.765
 4002SOL     OW12337   3.519   0.604   8.654
 4002SOL    HW112338   3.481   0.535   8.716
 4002SOL    HW212339   3.601   0.568   8.610
 4003SOL     OW12340   2.114   1.564   9.192
 4003SOL    HW112341   2.084   1.621   9.268
 4003SOL    HW212342   2.107   1.467   9.218
 4004SOL     OW12343   2.533   0.464   8.717
 4004SOL    HW112344   2.499   0.375   8.687
 4004SOL    HW212345   2.559   0.518   8.637
 4005SOL     OW12346   2.792   1.678   8.913
 4005SOL    HW112347   2.768   1.660   8.818
 4005SOL    HW212348   2.822   1.772   8.923
 4006SOL     OW12349   2.335   0.500   7.639
 4006SOL    HW112350   2.396   0.580   7.643
 4006SOL    HW212351   2.240   0.531   7.646
 4007SOL     OW12352   2.021   1.137   8.914
 4007SOL    HW112353   2.043   1.076   8.990
 4007SOL    HW212354   2.031   1.088   8.828
 4008SOL     OW12355   3.209   1.059   8.682
 4008SOL    HW112356   3.233   0.996   8.608
 4008SOL    HW212357   3.119   1.099   8.664
 4009SOL     OW12358   3.164   0.855   7.757
 4009SOL    HW112359   3.078   0.824   7.799
 4009SOL    HW212360   3.160   0.841   7.658
 4010SOL     OW12361   3.621   1.747   8.602
 4010SOL    HW112362   3.682   1.777   8.529
 4010SOL    HW212363   3.583   1.658   8.580
 4011SOL     OW12364   3.114   1.731   8.576
 4011SOL    HW112365   3.198   1.736   8.522
 4011SOL    HW212366   3.091   1.635   8.594
 4012SOL     OW12367   1.945   1.258   8.470
 4012SOL    HW112368   1.940   1.257   8.570
 4012SOL    HW212369   1.862   1.217   8.432
 4013SOL     OW12370   2.550   1.662   9.164
 4013SOL    HW112371   2.494   1.743   9.173
 4013SOL    HW212372   2.602   1.666   9.078
 4014SOL     OW12373   3.588   0.135   7.971
 4014SOL    HW112374   3.661   0.118   7.904
 4014SOL    HW212375   3.557   0.048   8.009
 4015SOL     OW12376   3.250   1.573   7.925
 4015SOL    HW112377   3.317   1.585   7.851
 4015SOL    HW212378   3.210   1.662   7.948
 4016SOL     OW12379   1.992   1.794   9.299
 4016SOL    HW112380   1.951   1.720   9.352
 4016SOL    HW212381   2.056   1.845   9.357
 4017SOL     OW12382   3.142   0.927   8.120
 4017SOL    HW112383   3.202   0.846   8.122
 4017SOL    HW212384   3.182   0.996   8.060
 4018SOL     OW12385   2.692   1.273   8.870
 4018SOL    HW112386   2.687   1.306   8.965
 4018SOL    HW212387   2.606   1.292   8.824
 4019SOL     OW12388   2.534   1.616   7.602
 4019SOL    HW112389   2.543   1.626   7.503
 4019SOL    HW212390   2.494   1.527   7.623
 4020SOL     OW12391   3.512   1.720   8.842
 4020SOL    HW112392   3.565   1.730   8.758
 4020SOL    HW212393   3.485   1.810   8.876
 4021SOL     OW12394   3.703   0.175   8.411
 4021SOL    HW112395   3.742   0.090   8.375
 4021SOL    HW212396   3.605   0.177   8.392
 4022SOL     OW12397   2.125   0.326   8.168
 4022SOL    HW112398   2.046   0.377   8.134
 4022SOL    HW212399   2.116   0.311   8.266
 4023SOL     OW12400   3.056   1.612   7.479
 4023SOL    HW112401   3.062   1.519   7.516
 4023SOL    HW212402   2.997   1.612   7.399
 4024SOL     OW12403   2.684   1.002   8.820
 4024SOL    HW112404   2.724   1.001   8.728
 4024SOL    HW212405   2.694   1.094   8.860
 4025SOL     OW12406   2.778   0.910   7.739
 4025SOL    HW112407   2.841   0.948   7.671
 4025SOL    HW212408   2.818   0.827   7.778
 4026SOL     OW12409   3.366   1.607   7.492
 4026SOL    HW112410   3.274   1.644   7.499
 4026SOL    HW212411   3.404   1.627   7.402
 4027SOL     OW12412   2.234   1.288   8.938
 4027SOL    HW112413   2.221   1.381   8.904
 4027SOL    HW212414   2.150   1.236   8.925
 4028SOL     OW12415   3.476   1.292   8.737
 4028SOL    HW112416   3.536   1.295   8.817
 4028SOL    HW212417   3.401   1.356   8.750
 4029SOL     OW12418   2.901   1.098   8.144
 4029SOL    HW112419   2.831   1.051   8.198
 4029SOL    HW212420   2.960   1.030   8.101
 4030SOL     OW12421   2.876   0.236   8.419
 4030SOL    HW112422   2.868   0.200   8.326
 4030SOL    HW212423   2.874   0.160   8.484
 4031SOL     OW12424   2.452   1.487   7.939
 4031SOL    HW112425   2.494   1.429   7.869
 4031SOL    HW212426   2.408   1.566   7.895
 4032SOL     OW12427   3.571   0.385   8.829
 4032SOL    HW112428   3.644   0.454   8.833
 4032SOL    HW212429   3.599   0.310   8.770
 4033SOL     OW12430   2.117   1.348   7.738
 4033SOL    HW112431   2.021   1.349   7.711
 4033SOL    HW212432   2.129   1.401   7.822
 4034SOL     OW12433   1.967   1.013   9.174
 4034SOL    HW112434   1.890   0.980   9.228
 4034SOL    HW212435   2.052   0.983   9.216
 4035SOL     OW12436   2.534   0.203   8.937
 4035SOL    HW112437   2.624   0.187   8.897
 4035SOL    HW212438   2.542   0.208   9.036
 4036SOL     OW12439   1.937   0.345   7.481
 4036SOL    HW112440   1.845   0.317   7.452
 4036SOL    HW212441   1.968   0.422   7.425
 4037SOL     OW12442   3.302   0.856   8.846
 4037SOL    HW112443   3.245   0.908   8.783
 4037SOL    HW212444   3.398   0.868   8.822
 4038SOL     OW12445   1.934   0.166   7.766
 4038SOL    HW112446   1.917   0.249   7.712
 4038SOL    HW212447   2.024   0.129   7.744
 4039SOL     OW12448   3.045   1.335   7.567
 4039SOL    HW112449   2.946   1.324   7.569
 4039SOL    HW212450   3.079   1.350   7.660
 4040SOL     OW12451   2.475   0.842   8.879
 4040SOL    HW112452   2.531   0.923   8.862
 4040SOL    HW212453   2.534   0.762   8.882
 4041SOL     OW12454   3.355   1.767   8.407
 4041SOL    HW112455   3.388   1.831   8.338
 4041SOL    HW212456   3.421   1.761   8.482
 4042SOL     OW12457   2.578   0.565   9.156
 4042SOL    HW112458   2.597   0.630   9.230
 4042SOL    HW212459   2.638   0.485   9.165
 4043SOL     OW12460   3.312   1.220   9.081
 4043SOL    HW112461   3.303   1.210   9.180
 4043SOL    HW212462   3.408   1.213   9.055
 4044SOL     OW12463   2.252   1.741   9.008
 4044SOL    HW112464   2.161   1.782   9.006
 4044SOL    HW212465   2.245   1.647   9.040
 4045SOL     OW12466   3.536   0.883   8.702
 4045SOL    HW112467   3.509   0.794   8.665
 4045SOL    HW212468   3.537   0.951   8.629
 4046SOL     OW12469   3.087   0.325   7.897
 4046SOL    HW112470   3.152   0.251   7.886
 4046SOL    HW212471   3.107   0.375   7.981
 4047SOL     OW12472   2.456   0.745   8.100
 4047SOL    HW112473   2.506   0.830   8.081
 4047SOL    HW212474   2.368   0.747   8.052
 4048SOL     OW12475   3.639   0.342   9.090
 4048SOL    HW112476   3.622   0.373   8.996
 4048SOL    HW212477   3.555   0.305   9.128
 4049SOL     OW12478   3.592   0.934   8.965
 4049SOL    HW112479   3.630   1.025   8.980
 4049SOL    HW212480   3.584   0.917   8.866
 4050SOL     OW12481   2.721   1.374   7.464
 4050SOL    HW112482   2.675   1.389   7.552
 4050SOL    HW212483   2.765   1.459   7.434
 4051SOL     OW12484   2.523   1.790   8.401
 4051SOL    HW112485   2.477   1.878   8.388
 4051SOL    HW212486   2.622   1.802   8.394
 4052SOL     OW12487   2.721   0.956   8.309
 4052SOL    HW112488   2.775   0.887   8.357
 4052SOL    HW212489   2.689   1.025   8.375
 4053SOL     OW12490   2.945   0.984   7.535
 4053SOL    HW112491   2.922   1.037   7.453
 4053SOL    HW212492   3.026   0.928   7.516
 4054SOL     OW12493   3.723   1.569   8.299
 4054SOL    HW112494   3.652   1.557   8.229
 4054SOL    HW212495   3.724   1.490   8.359
 4055SOL     OW12496   2.083   1.314   9.292
 4055SOL    HW112497   2.018   1.241   9.271
 4055SOL    HW212498   2.087   1.328   9.390
 4056SOL     OW12499   1.941   1.240   8.101
 4056SOL    HW112500   1.940   1.193   8.189
 4056SOL    HW212501   2.023   1.212   8.050
 4057SOL     OW12502   2.534   1.391   9.072
 4057SOL    HW112503   2.456   1.341   9.110
 4057SOL    HW212504   2.531   1.486   9.103
 4058SOL     OW12505   3.686   0.192   8.675
 4058SOL    HW112506   3.682   0.102   8.719
 4058SOL    HW212507   3.689   0.181   8.576
 4059SOL     OW12508   2.290   0.424   7.968
 4059SOL    HW112509   2.320   0.352   7.906
 4059SOL    HW212510   2.251   0.384   8.051
 4060SOL     OW12511   3.567   1.487   8.552
 4060SOL    HW112512   3.474   1.462   8.525
 4060SOL    HW212513   3.593   1.437   8.634
 4061SOL     OW12514   2.179   0.547   8.728
 4061SOL    HW112515   2.217   0.488   8.800
 4061SOL    HW212516   2.219   0.521   8.640
 4062SOL     OW12517   2.674   1.586   8.135
 4062SOL    HW112518   2.706   1.596   8.041
 4062SOL    HW212519   2.595   1.524   8.137
 4063SOL     OW12520   3.286   0.214   8.560
 4063SOL    HW112521   3.338   0.149   8.615
 4063SOL    HW212522   3.237   0.277   8.621
 4064SOL     OW12523   2.863   0.034   8.602
 4064SOL    HW112524   2.800  -0.038   8.571
 4064SOL    HW212525   2.956  -0.002   8.602
 4065SOL     OW12526   2.632   1.330   7.749
 4065SOL    HW112527   2.586   1.243   7.766
 4065SOL    HW212528   2.723   1.327   7.790
 4066SOL     OW12529   2.480   1.567   8.732
 4066SOL    HW112530   2.475   1.649   8.789
 4066SOL    HW212531   2.569   1.564   8.687
 4067SOL     OW12532   3.214   0.052   7.616
 4067SOL    HW112533   3.249   0.011   7.532
 4067SOL    HW212534   3.124   0.014   7.636
 4068SOL     OW12535   3.162   0.453   8.139
 4068SOL    HW112536   3.103   0.533   8.143
 4068SOL    HW212537   3.177   0.418   8.232
 4069SOL     OW12538   3.455   0.221   8.330
 4069SOL    HW112539   3.371   0.220   8.384
 4069SOL    HW212540   3.457   0.304   8.274
 4070SOL     OW12541   1.901   1.077   7.748
 4070SOL    HW112542   2.000   1.066   7.739
 4070SOL    HW212543   1.861   0.991   7.780
 4071SOL     OW12544   2.737   1.646   7.785
 4071SOL    HW112545   2.660   1.611   7.731
 4071SOL    HW212546   2.705   1.717   7.847
 4072SOL     OW12547   2.092   0.628   9.423
 4072SOL    HW112548   1.999   0.626   9.460
 4072SOL    HW212549   2.093   0.589   9.331
 4073SOL     OW12550   2.087   0.275  10.306
 4073SOL    HW112551   2.122   0.258  10.398
 4073SOL    HW212552   1.999   0.230  10.294
 4074SOL     OW12553   1.881   0.368   9.957
 4074SOL    HW112554   1.799   0.411   9.996
 4074SOL    HW212555   1.853   0.295   9.894
 4075SOL     OW12556   2.431   1.275  10.475
 4075SOL    HW112557   2.338   1.268  10.438
 4075SOL    HW212558   2.442   1.364  10.519
 4076SOL     OW12559   3.417   1.511  10.013
 4076SOL    HW112560   3.360   1.495  10.094
 4076SOL    HW212561   3.358   1.521   9.933
 4077SOL     OW12562   2.997   0.703  10.027
 4077SOL    HW112563   3.054   0.781  10.002
 4077SOL    HW212564   2.937   0.729  10.103
 4078SOL     OW12565   3.617   0.607   9.541
 4078SOL    HW112566   3.605   0.594   9.442
 4078SOL    HW212567   3.587   0.526   9.590
 4079SOL     OW12568   2.630   1.144  10.333
 4079SOL    HW112569   2.552   1.161  10.393
 4079SOL    HW212570   2.664   1.231  10.297
 4080SOL     OW12571   2.547   1.012   9.975
 4080SOL    HW112572   2.616   0.996  10.045
 4080SOL    HW212573   2.474   1.069  10.013
 4081SOL     OW12574   2.197   1.435  10.371
 4081SOL    HW112575   2.119   1.404  10.318
 4081SOL    HW212576   2.255   1.493  10.314
 4082SOL     OW12577   3.322   1.505  10.649
 4082SOL    HW112578   3.346   1.599  10.675
 4082SOL    HW212579   3.306   1.451  10.731
 4083SOL     OW12580   2.300   0.392  10.809
 4083SOL    HW112581   2.382   0.336  10.818
 4083SOL    HW212582   2.219   0.334  10.813
 4084SOL     OW12583   3.465   0.447  10.047
 4084SOL    HW112584   3.391   0.493   9.997
 4084SOL    HW212585   3.516   0.515  10.100
 4085SOL     OW12586   2.093   1.713   9.793
 4085SOL    HW112587   2.127   1.790   9.847
 4085SOL    HW212588   2.137   1.713   9.703
 4086SOL     OW12589   2.092   1.434   9.848
 4086SOL    HW112590   2.066   1.530   9.848
 4086SOL    HW212591   2.021   1.380   9.893
 4087SOL     OW12592   2.102   1.091  10.196
 4087SOL    HW112593   2.116   1.007  10.248
 4087SOL    HW212594   2.047   1.155  10.251
 4088SOL     OW12595   2.482   1.786  10.749
 4088SOL    HW112596   2.390   1.769  10.784
 4088SOL    HW212597   2.510   1.878  10.775
 4089SOL     OW12598   2.468   0.964   9.433
 4089SOL    HW112599   2.475   1.048   9.379
 4089SOL    HW212600   2.514   0.977   9.521
 4090SOL     OW12601   3.456   0.114  10.790
 4090SOL    HW112602   3.438   0.181  10.718
 4090SOL    HW212603   3.453   0.160  10.879
 4091SOL     OW12604   1.984   0.643   9.873
 4091SOL    HW112605   1.939   0.555   9.890
 4091SOL    HW212606   1.983   0.697   9.957
 4092SOL     OW12607   3.704   1.767   9.669
 4092SOL    HW112608   3.758   1.738   9.749
 4092SOL    HW212609   3.734   1.857   9.640
 4093SOL     OW12610   1.889   1.596   9.427
 4093SOL    HW112611   1.870   1.500   9.448
 4093SOL    HW212612   1.856   1.654   9.502
 4094SOL     OW12613   3.551   0.922   9.922
 4094SOL    HW112614   3.646   0.893   9.930
 4094SOL    HW212615   3.543   0.987   9.847
 4095SOL     OW12616   3.503   1.108   9.742
 4095SOL    HW112617   3.589   1.110   9.690
 4095SOL    HW212618   3.517   1.155   9.830
 4096SOL     OW12619   1.975   0.737  10.907
 4096SOL    HW112620   2.063   0.724  10.952
 4096SOL    HW212621   1.962   0.834  10.885
 4097SOL     OW12622   2.475   1.365  10.036
 4097SOL    HW112623   2.426   1.278  10.045
 4097SOL    HW212624   2.452   1.408   9.949
 4098SOL     OW12625   3.155   1.228  10.733
 4098SOL    HW112626   3.192   1.155  10.675
 4098SOL    HW212627   3.207   1.233  10.818
 4099SOL     OW12628   2.671   0.004   9.812
 4099SOL    HW112629   2.711   0.095   9.803
 4099SOL    HW212630   2.571   0.012   9.818
 4100SOL     OW12631   2.059   0.976  10.574
 4100SOL    HW112632   2.148   0.931  10.560
 4100SOL    HW212633   1.986   0.911  10.555
 4101SOL     OW12634   3.387   0.999   9.500
 4101SOL    HW112635   3.324   0.923   9.513
 4101SOL    HW212636   3.435   1.017   9.586
 4102SOL     OW12637   3.328   1.417  10.263
 4102SOL    HW112638   3.269   1.423  10.343
 4102SOL    HW212639   3.313   1.329  10.217
 4103SOL     OW12640   3.529   1.714   9.882
 4103SOL    HW112641   3.488   1.691   9.794
 4103SOL    HW212642   3.511   1.640   9.947
 4104SOL     OW12643   2.460   0.729   9.580
 4104SOL    HW112644   2.484   0.798   9.512
 4104SOL    HW212645   2.382   0.762   9.634
 4105SOL     OW12646   3.143   0.345  10.254
 4105SOL    HW112647   3.057   0.295  10.241
 4105SOL    HW212648   3.205   0.291  10.310
 4106SOL     OW12649   3.438   1.662   9.617
 4106SOL    HW112650   3.527   1.708   9.620
 4106SOL    HW212651   3.417   1.638   9.522
 4107SOL     OW12652   2.669   0.605  10.775
 4107SOL    HW112653   2.622   0.602  10.864
 4107SOL    HW212654   2.618   0.550  10.709
 4108SOL     OW12655   2.835   0.890  10.882
 4108SOL    HW112656   2.881   0.806  10.853
 4108SOL    HW212657   2.779   0.924  10.807
 4109SOL     OW12658   2.853   0.410  10.552
 4109SOL    HW112659   2.776   0.444  10.606
 4109SOL    HW212660   2.819   0.359  10.473
 4110SOL     OW12661   2.903   0.701   9.739
 4110SOL    HW112662   2.929   0.697   9.835
 4110SOL    HW212663   2.818   0.650   9.725
 4111SOL     OW12664   1.938   0.811  10.099
 4111SOL    HW112665   2.037   0.799  10.108
 4111SOL    HW212666   1.914   0.906  10.120
 4112SOL     OW12667   1.992   1.821  10.881
 4112SOL    HW112668   1.982   1.806  10.980
 4112SOL    HW212669   1.906   1.857  10.845
 4113SOL     OW12670   2.727   0.348   9.505
 4113SOL    HW112671   2.786   0.411   9.456
 4113SOL    HW212672   2.746   0.254   9.476
 4114SOL     OW12673   3.224   1.144   9.855
 4114SOL    HW112674   3.307   1.115   9.807
 4114SOL    HW212675   3.175   1.211   9.799
 4115SOL     OW12676   2.412   0.196  10.195
 4115SOL    HW112677   2.407   0.191  10.295
 4115SOL    HW212678   2.414   0.292  10.166
 4116SOL     OW12679   2.870   1.456   9.787
 4116SOL    HW112680   2.824   1.528   9.735
 4116SOL    HW212681   2.866   1.476   9.885
 4117SOL     OW12682   2.213   1.801  10.163
 4117SOL    HW112683   2.263   1.715  10.169
 4117SOL    HW212684   2.278   1.878  10.160
 4118SOL     OW12685   3.657   1.066  10.183
 4118SOL    HW112686   3.595   1.051  10.107
 4118SOL    HW212687   3.605   1.077  10.268
 4119SOL     OW12688   3.089   1.550  10.816
 4119SOL    HW112689   3.095   1.473  10.880
 4119SOL    HW212690   3.037   1.524  10.736
 4120SOL     OW12691   2.183   0.943   9.552
 4120SOL    HW112692   2.265   0.982   9.510
 4120SOL    HW212693   2.156   0.861   9.503
 4121SOL     OW12694   3.320   0.735  10.038
 4121SOL    HW112695   3.315   0.670  10.113
 4121SOL    HW212696   3.400   0.794  10.051
 4122SOL     OW12697   2.973   1.776   9.547
 4122SOL    HW112698   2.913   1.714   9.597
 4122SOL    HW212699   3.004   1.732   9.462
 4123SOL     OW12700   2.064   0.285  10.808
 4123SOL    HW112701   1.984   0.345  10.795
 4123SOL    HW212702   2.054   0.236  10.894
 4124SOL     OW12703   3.494   1.377   9.391
 4124SOL    HW112704   3.462   1.471   9.381
 4124SOL    HW212705   3.418   1.314   9.379
 4125SOL     OW12706   2.326   1.743   9.633
 4125SOL    HW112707   2.359   1.782   9.719
 4125SOL    HW212708   2.402   1.736   9.568
 4126SOL     OW12709   3.262   0.107   9.736
 4126SOL    HW112710   3.238   0.070   9.646
 4126SOL    HW212711   3.361   0.123   9.740
 4127SOL     OW12712   2.111   1.785  10.551
 4127SOL    HW112713   2.168   1.720  10.601
 4127SOL    HW212714   2.095   1.752  10.458
 4128SOL     OW12715   2.802   1.698  10.214
 4128SOL    HW112716   2.882   1.641  10.235
 4128SOL    HW212717   2.753   1.658  10.137
 4129SOL     OW12718   2.244   0.700   9.790
 4129SOL    HW112719   2.289   0.610   9.787
 4129SOL    HW212720   2.150   0.689   9.823
 4130SOL     OW12721   2.476   0.122   9.427
 4130SOL    HW112722   2.574   0.100   9.434
 4130SOL    HW212723   2.445   0.105   9.334
 4131SOL     OW12724   2.750   1.514  10.505
 4131SOL    HW112725   2.727   1.489  10.411
 4131SOL    HW212726   2.811   1.445  10.544
 4132SOL     OW12727   3.213   0.590  10.743
 4132SOL    HW112728   3.241   0.547  10.828
 4132SOL    HW212729   3.238   0.686  10.744
 4133SOL     OW12730   2.665   1.402  10.234
 4133SOL    HW112731   2.755   1.416  10.192
 4133SOL    HW212732   2.594   1.404  10.163
 4134SOL     OW12733   2.784   0.503  10.209
 4134SOL    HW112734   2.759   0.494  10.113
 4134SOL    HW212735   2.832   0.421  10.240
 4135SOL     OW12736   2.401   0.064   9.822
 4135SOL    HW112737   2.320   0.065   9.880
 4135SOL    HW212738   2.404   0.147   9.767
 4136SOL     OW12739   3.296   1.188   9.351
 4136SOL    HW112740   3.328   1.112   9.408
 4136SOL    HW212741   3.204   1.215   9.381
 4137SOL     OW12742   2.159   0.035   9.481
 4137SOL    HW112743   2.208   0.119   9.460
 4137SOL    HW212744   2.221  -0.030   9.526
 4138SOL     OW12745   2.797   0.236   9.790
 4138SOL    HW112746   2.749   0.277   9.712
 4138SOL    HW212747   2.896   0.234   9.771
 4139SOL     OW12748   2.938   0.683  10.774
 4139SOL    HW112749   2.858   0.622  10.777
 4139SOL    HW212750   3.019   0.630  10.750
 4140SOL     OW12751   3.089   1.570  10.103
 4140SOL    HW112752   3.110   1.644  10.038
 4140SOL    HW212753   3.157   1.570  10.176
 4141SOL     OW12754   2.321   1.152  10.051
 4141SOL    HW112755   2.250   1.125  10.116
 4141SOL    HW212756   2.295   1.124   9.958
 4142SOL     OW12757   3.133   1.797   9.901
 4142SOL    HW112758   3.177   1.861   9.837
 4142SOL    HW212759   3.083   1.849   9.971
 4143SOL     OW12760   2.894   0.549   9.326
 4143SOL    HW112761   2.853   0.631   9.287
 4143SOL    HW212762   2.958   0.575   9.399
 4144SOL     OW12763   1.940   0.556  10.696
 4144SOL    HW112764   2.032   0.555  10.655
 4144SOL    HW212765   1.934   0.630  10.763
 4145SOL     OW12766   2.423   0.222  10.457
 4145SOL    HW112767   2.461   0.138  10.494
 4145SOL    HW212768   2.335   0.241  10.501
 4146SOL     OW12769   2.728   0.454   9.952
 4146SOL    HW112770   2.696   0.526   9.890
 4146SOL    HW212771   2.752   0.373   9.899
 4147SOL     OW12772   2.879   0.039  10.063
 4147SOL    HW112773   2.807   0.044   9.994
 4147SOL    HW212774   2.855  -0.030  10.132
 4148SOL     OW12775   3.291   1.173  10.177
 4148SOL    HW112776   3.236   1.089  10.170
 4148SOL    HW212777   3.317   1.202  10.085
 4149SOL     OW12778   3.328   0.590  10.302
 4149SOL    HW112779   3.298   0.495  10.309
 4149SOL    HW212780   3.401   0.606  10.368
 4150SOL     OW12781   3.719   0.833   9.687
 4150SOL    HW112782   3.761   0.769   9.751
 4150SOL    HW212783   3.681   0.782   9.609
 4151SOL     OW12784   2.350   1.385   9.484
 4151SOL    HW112785   2.263   1.370   9.531
 4151SOL    HW212786   2.333   1.411   9.389
 4152SOL     OW12787   3.526   1.280   9.967
 4152SOL    HW112788   3.625   1.288   9.981
 4152SOL    HW212789   3.481   1.364   9.998
 4153SOL     OW12790   3.252   0.575   9.388
 4153SOL    HW112791   3.198   0.554   9.469
 4153SOL    HW212792   3.343   0.534   9.397
 4154SOL     OW12793   2.389   0.256   9.638
 4154SOL    HW112794   2.416   0.197   9.563
 4154SOL    HW212795   2.389   0.351   9.607
 4155SOL     OW12796   3.616   1.223  10.898
 4155SOL    HW112797   3.707   1.184  10.885
 4155SOL    HW212798   3.624   1.319  10.922
 4156SOL     OW12799   2.926   1.347  10.650
 4156SOL    HW112800   2.846   1.324  10.705
 4156SOL    HW212801   3.009   1.321  10.699
 4157SOL     OW12802   2.973   1.195  10.410
 4157SOL    HW112803   2.933   1.239  10.491
 4157SOL    HW212804   2.932   1.232  10.327
 4158SOL     OW12805   3.500   1.099  10.389
 4158SOL    HW112806   3.505   1.180  10.448
 4158SOL    HW212807   3.414   1.101  10.338
 4159SOL     OW12808   2.777   0.089  10.712
 4159SOL    HW112809   2.802   0.069  10.617
 4159SOL    HW212810   2.849   0.145  10.754
 4160SOL     OW12811   2.567   1.050   9.678
 4160SOL    HW112812   2.553   1.057   9.777
 4160SOL    HW212813   2.651   0.999   9.660
 4161SOL     OW12814   2.272   0.813  10.561
 4161SOL    HW112815   2.358   0.825  10.611
 4161SOL    HW212816   2.230   0.726  10.588
 4162SOL     OW12817   3.136   0.386  10.572
 4162SOL    HW112818   3.157   0.460  10.636
 4162SOL    HW212819   3.047   0.403  10.529
 4163SOL     OW12820   1.926   1.564  10.641
 4163SOL    HW112821   1.880   1.646  10.607
 4163SOL    HW212822   2.024   1.583  10.650
 4164SOL     OW12823   2.229   1.100   9.811
 4164SOL    HW112824   2.222   1.183   9.755
 4164SOL    HW212825   2.233   1.020   9.751
 4165SOL     OW12826   2.428   0.537  10.175
 4165SOL    HW112827   2.440   0.603  10.101
 4165SOL    HW212828   2.474   0.571  10.258
 4166SOL     OW12829   3.114   1.348   9.698
 4166SOL    HW112830   3.164   1.425   9.738
 4166SOL    HW212831   3.019   1.350   9.730
 4167SOL     OW12832   3.134   1.445  10.452
 4167SOL    HW112833   3.181   1.458  10.539
 4167SOL    HW212834   3.068   1.371  10.461
 4168SOL     OW12835   3.444   0.639   9.782
 4168SOL    HW112836   3.413   0.700   9.855
 4168SOL    HW212837   3.494   0.691   9.713
 4169SOL     OW12838   2.216   1.510  10.639
 4169SOL    HW112839   2.195   1.466  10.552
 4169SOL    HW212840   2.313   1.536  10.642
 4170SOL     OW12841   2.264   0.751  10.908
 4170SOL    HW112842   2.332   0.806  10.861
 4170SOL    HW212843   2.304   0.663  10.935
 4171SOL     OW12844   3.449   0.779  10.980
 4171SOL    HW112845   3.357   0.817  10.975
 4171SOL    HW212846   3.509   0.826  10.915
 4172SOL     OW12847   2.435   0.870  10.339
 4172SOL    HW112848   2.479   0.959  10.330
 4172SOL    HW212849   2.372   0.870  10.416
 4173SOL     OW12850   3.222   0.862  10.355
 4173SOL    HW112851   3.147   0.862  10.289
 4173SOL    HW212852   3.259   0.770  10.364
 4174SOL     OW12853   3.071   0.525   9.585
 4174SOL    HW112854   3.084   0.441   9.639
 4174SOL    HW212855   3.042   0.599   9.645
 4175SOL     OW12856   2.169   0.213  10.541
 4175SOL    HW112857   2.146   0.250  10.631
 4175SOL    HW212858   2.139   0.118  10.535
 4176SOL     OW12859   1.899   1.310  10.592
 4176SOL    HW112860   1.952   1.261  10.660
 4176SOL    HW212861   1.921   1.408  10.597
 4177SOL     OW12862   2.594   0.634  10.374
 4177SOL    HW112863   2.653   0.608  10.298
 4177SOL    HW212864   2.566   0.730  10.363
 4178SOL     OW12865   2.169   0.063   9.928
 4178SOL    HW112866   2.158   0.157   9.961
 4178SOL    HW212867   2.164   0.000  10.005
 4179SOL     OW12868   3.484   0.367   9.684
 4179SOL    HW112869   3.486   0.291   9.748
 4179SOL    HW212870   3.436   0.444   9.724
 4180SOL     OW12871   2.885   0.766  10.276
 4180SOL    HW112872   2.900   0.787  10.372
 4180SOL    HW212873   2.855   0.671  10.267
 4181SOL     OW12874   3.402   0.274   9.435
 4181SOL    HW112875   3.341   0.199   9.458
 4181SOL    HW212876   3.424   0.326   9.518
 4182SOL     OW12877   3.165   0.838   9.352
 4182SOL    HW112878   3.199   0.745   9.367
 4182SOL    HW212879   3.183   0.865   9.257
 4183SOL     OW12880   2.930   1.333  10.159
 4183SOL    HW112881   2.937   1.249  10.104
 4183SOL    HW212882   2.992   1.402  10.123
 4184SOL     OW12883   2.181   0.810  10.259
 4184SOL    HW112884   2.274   0.846  10.264
 4184SOL    HW212885   2.175   0.725  10.311
 4185SOL     OW12886   2.201   0.509  10.316
 4185SOL    HW112887   2.149   0.426  10.299
 4185SOL    HW212888   2.278   0.514  10.252
 4186SOL     OW12889   3.022   0.207  10.787
 4186SOL    HW112890   3.022   0.271  10.864
 4186SOL    HW212891   3.050   0.255  10.704
 4187SOL     OW12892   1.870   1.326   9.510
 4187SOL    HW112893   1.777   1.347   9.479
 4187SOL    HW212894   1.880   1.227   9.523
 4188SOL     OW12895   1.950   1.801  10.237
 4188SOL    HW112896   1.908   1.715  10.210
 4188SOL    HW212897   2.044   1.804  10.203
 4189SOL     OW12898   2.366   1.568  10.220
 4189SOL    HW112899   2.432   1.642  10.229
 4189SOL    HW212900   2.410   1.489  10.178
 4190SOL     OW12901   2.864   0.796  10.548
 4190SOL    HW112902   2.905   0.764  10.634
 4190SOL    HW212903   2.768   0.769  10.545
 4191SOL     OW12904   1.902   0.544  10.424
 4191SOL    HW112905   1.987   0.511  10.383
 4191SOL    HW212906   1.915   0.559  10.522
 4192SOL     OW12907   2.677   0.572   9.635
 4192SOL    HW112908   2.684   0.483   9.589
 4192SOL    HW212909   2.583   0.606   9.627
 4193SOL     OW12910   3.519   0.604  10.516
 4193SOL    HW112911   3.481   0.535  10.578
 4193SOL    HW212912   3.601   0.568  10.472
 4194SOL     OW12913   2.114   1.564  11.054
 4194SOL    HW112914   2.084   1.621  11.130
 4194SOL    HW212915   2.107   1.467  11.080
 4195SOL     OW12916   2.533   0.464  10.579
 4195SOL    HW112917   2.499   0.375  10.549
 4195SOL    HW212918   2.559   0.518  10.499
 4196SOL     OW12919   2.792   1.678  10.775
 4196SOL    HW112920   2.768   1.660  10.680
 4196SOL    HW212921   2.822   1.772  10.785
 4197SOL     OW12922   2.335   0.500   9.501
 4197SOL    HW112923   2.396   0.580   9.505
 4197SOL    HW212924   2.240   0.531   9.508
 4198SOL     OW12925   2.021   1.137  10.776
 4198SOL    HW112926   2.043   1.076  10.852
 4198SOL    HW212927   2.031   1.088  10.690
 4199SOL     OW12928   3.209   1.059  10.544
 4199SOL    HW112929   3.233   0.996  10.470
 4199SOL    HW212930   3.119   1.099  10.526
 4200SOL     OW12931   3.164   0.855   9.619
 4200SOL    HW112932   3.078   0.824   9.661
 4200SOL    HW212933   3.160   0.841   9.520
 4201SOL     OW12934   3.621   1.747  10.464
 4201SOL    HW112935   3.682   1.777  10.391
 4201SOL    HW212936   3.583   1.658  10.442
 4202SOL     OW12937   3.114   1.731  10.438
 4202SOL    HW112938   3.198   1.736  10.384
 4202SOL    HW212939   3.091   1.635  10.456
 4203SOL     OW12940   1.945   1.258  10.332
 4203SOL    HW112941   1.940   1.257  10.432
 4203SOL    HW212942   1.862   1.217  10.294
 4204SOL     OW12943   3.588   0.135   9.833
 4204SOL    HW112944   3.661   0.118   9.766
 4204SOL    HW212945   3.557   0.048   9.871
 4205SOL     OW12946   3.250   1.573   9.787
 4205SOL    HW112947   3.317   1.585   9.713
 4205SOL    HW212948   3.210   1.662   9.810
 4206SOL     OW12949   3.142   0.927   9.982
 4206SOL    HW112950   3.202   0.846   9.984
 4206SOL    HW212951   3.182   0.996   9.922
 4207SOL     OW12952   2.692   1.273  10.732
 4207SOL    HW112953   2.687   1.306  10.827
 4207SOL    HW212954   2.606   1.292  10.686
 4208SOL     OW12955   2.534   1.616   9.464
 4208SOL    HW112956   2.543   1.626   9.365
 4208SOL    HW212957   2.494   1.527   9.485
 4209SOL     OW12958   3.512   1.720  10.704
 4209SOL    HW112959   3.565   1.730  10.620
 4209SOL    HW212960   3.485   1.810  10.738
 4210SOL     OW12961   3.703   0.175  10.273
 4210SOL    HW112962   3.742   0.090  10.237
 4210SOL    HW212963   3.605   0.177  10.254
 4211SOL     OW12964   2.125   0.326  10.030
 4211SOL    HW112965   2.046   0.377   9.996
 4211SOL    HW212966   2.116   0.311  10.128
 4212SOL     OW12967   3.056   1.612   9.341
 4212SOL    HW112968   3.062   1.519   9.378
 4212SOL    HW212969   2.997   1.612   9.261
 4213SOL     OW12970   2.684   1.002  10.682
 4213SOL    HW112971   2.724   1.001  10.590
 4213SOL    HW212972   2.694   1.094  10.722
 4214SOL     OW12973   2.778   0.910   9.601
 4214SOL    HW112974   2.841   0.948   9.533
 4214SOL    HW212975   2.818   0.827   9.640
 4215SOL     OW12976   3.366   1.607   9.354
 4215SOL    HW112977   3.274   1.644   9.361
 4215SOL    HW212978   3.404   1.627   9.264
 4216SOL     OW12979   2.234   1.288  10.800
 4216SOL    HW112980   2.221   1.381  10.766
 4216SOL    HW212981   2.150   1.236  10.787
 4217SOL     OW12982   3.476   1.292  10.599
 4217SOL    HW112983   3.536   1.295  10.679
 4217SOL    HW212984   3.401   1.356  10.612
 4218SOL     OW12985   2.901   1.098  10.006
 4218SOL    HW112986   2.831   1.051  10.060
 4218SOL    HW212987   2.960   1.030   9.963
 4219SOL     OW12988   2.876   0.236  10.281
 4219SOL    HW112989   2.868   0.200  10.188
 4219SOL    HW212990   2.874   0.160  10.346
 4220SOL     OW12991   2.452   1.487   9.801
 4220SOL    HW112992   2.494   1.429   9.731
 4220SOL    HW212993   2.408   1.566   9.757
 4221SOL     OW12994   3.571   0.385  10.691
 4221SOL    HW112995   3.644   0.454  10.695
 4221SOL    HW212996   3.599   0.310  10.632
 4222SOL     OW12997   2.117   1.348   9.600
 4222SOL    HW112998   2.021   1.349   9.573
 4222SOL    HW212999   2.129   1.401   9.684
 4223SOL     OW13000   1.967   1.013  11.036
 4223SOL    HW113001   1.890   0.980  11.090
 4223SOL    HW213002   2.052   0.983  11.078
 4224SOL     OW13003   2.534   0.203  10.799
 4224SOL    HW113004   2.624   0.187  10.759
 4224SOL    HW213005   2.542   0.208  10.898
 4225SOL     OW13006   1.937   0.345   9.343
 4225SOL    HW113007   1.845   0.317   9.314
 4225SOL    HW213008   1.968   0.422   9.287
 4226SOL     OW13009   3.302   0.856  10.708
 4226SOL    HW113010   3.245   0.908  10.645
 4226SOL    HW213011   3.398   0.868  10.684
 4227SOL     OW13012   1.934   0.166   9.628
 4227SOL    HW113013   1.917   0.249   9.574
 4227SOL    HW213014   2.024   0.129   9.606
 4228SOL     OW13015   3.045   1.335   9.429
 4228SOL    HW113016   2.946   1.324   9.431
 4228SOL    HW213017   3.079   1.350   9.522
 4229SOL     OW13018   2.475   0.842  10.741
 4229SOL    HW113019   2.531   0.923  10.724
 4229SOL    HW213020   2.534   0.762  10.744
 4230SOL     OW13021   3.355   1.767  10.269
 4230SOL    HW113022   3.388   1.831  10.200
 4230SOL    HW213023   3.421   1.761  10.344
 4231SOL     OW13024   2.578   0.565  11.018
 4231SOL    HW113025   2.597   0.630  11.092
 4231SOL    HW213026   2.638   0.485  11.027
 4232SOL     OW13027   2.252   1.741  10.870
 4232SOL    HW113028   2.161   1.782  10.868
 4232SOL    HW213029   2.245   1.647  10.902
 4233SOL     OW13030   3.536   0.883  10.564
 4233SOL    HW113031   3.509   0.794  10.527
 4233SOL    HW213032   3.537   0.951  10.491
 4234SOL     OW13033   3.087   0.325   9.759
 4234SOL    HW113034   3.152   0.251   9.748
 4234SOL    HW213035   3.107   0.375   9.843
 4235SOL     OW13036   2.456   0.745   9.962
 4235SOL    HW113037   2.506   0.830   9.943
 4235SOL    HW213038   2.368   0.747   9.914
 4236SOL     OW13039   3.639   0.342  10.952
 4236SOL    HW113040   3.622   0.373  10.858
 4236SOL    HW213041   3.555   0.305  10.990
 4237SOL     OW13042   3.592   0.934  10.827
 4237SOL    HW113043   3.630   1.025  10.842
 4237SOL    HW213044   3.584   0.917  10.728
 4238SOL     OW13045   2.721   1.374   9.326
 4238SOL    HW113046   2.675   1.389   9.414
 4238SOL    HW213047   2.765   1.459   9.296
 4239SOL     OW13048   2.523   1.790  10.263
 4239SOL    HW113049   2.477   1.878  10.250
 4239SOL    HW213050   2.622   1.802  10.256
 4240SOL     OW13051   2.721   0.956  10.171
 4240SOL    HW113052   2.775   0.887  10.219
 4240SOL    HW213053   2.689   1.025  10.237
 4241SOL     OW13054   2.945   0.984   9.397
 4241SOL    HW113055   2.922   1.037   9.315
 4241SOL    HW213056   3.026   0.928   9.378
 4242SOL     OW13057   3.723   1.569  10.161
 4242SOL    HW113058   3.652   1.557  10.091
 4242SOL    HW213059   3.724   1.490  10.221
 4243SOL     OW13060   1.941   1.240   9.963
 4243SOL    HW113061   1.940   1.193  10.051
 4243SOL    HW213062   2.023   1.212   9.912
 4244SOL     OW13063   2.534   1.391  10.934
 4244SOL    HW113064   2.456   1.341  10.972
 4244SOL    HW213065   2.531   1.486  10.965
 4245SOL     OW13066   3.686   0.192  10.537
 4245SOL    HW113067   3.682   0.102  10.581
 4245SOL    HW213068   3.689   0.181  10.438
 4246SOL     OW13069   2.290   0.424   9.830
 4246SOL    HW113070   2.320   0.352   9.768
 4246SOL    HW213071   2.251   0.384   9.913
 4247SOL     OW13072   3.567   1.487  10.414
 4247SOL    HW113073   3.474   1.462  10.387
 4247SOL    HW213074   3.593   1.437  10.496
 4248SOL     OW13075   2.179   0.547  10.590
 4248SOL    HW113076   2.217   0.488  10.662
 4248SOL    HW213077   2.219   0.521  10.502
 4249SOL     OW13078   2.674   1.586   9.997
 4249SOL    HW113079   2.706   1.596   9.903
 4249SOL    HW213080   2.595   1.524   9.999
 4250SOL     OW13081   3.286   0.214  10.422
 4250SOL    HW113082   3.338   0.149  10.477
 4250SOL    HW213083   3.237   0.277  10.483
 4251SOL     OW13084   2.863   0.034  10.464
 4251SOL    HW113085   2.800  -0.038  10.433
 4251SOL    HW213086   2.956  -0.002  10.464
 4252SOL     OW13087   2.632   1.330   9.611
 4252SOL    HW113088   2.586   1.243   9.628
 4252SOL    HW213089   2.723   1.327   9.652
 4253SOL     OW13090   2.480   1.567  10.594
 4253SOL    HW113091   2.475   1.649  10.651
 4253SOL    HW213092   2.569   1.564  10.549
 4254SOL     OW13093   3.214   0.052   9.478
 4254SOL    HW113094   3.249   0.011   9.394
 4254SOL    HW213095   3.124   0.014   9.498
 4255SOL     OW13096   3.162   0.453  10.001
 4255SOL    HW113097   3.103   0.533  10.005
 4255SOL    HW213098   3.177   0.418  10.094
 4256SOL     OW13099   3.455   0.221  10.192
 4256SOL    HW113100   3.371   0.220  10.246
 4256SOL    HW213101   3.457   0.304  10.136
 4257SOL     OW13102   1.901   1.077   9.610
 4257SOL    HW113103   2.000   1.066   9.601
 4257SOL    HW213104   1.861   0.991   9.642
 4258SOL     OW13105   2.737   1.646   9.647
 4258SOL    HW113106   2.660   1.611   9.593
 4258SOL    HW213107   2.705   1.717   9.709
 4259SOL     OW13108   2.092   2.490   0.113
 4259SOL    HW113109   1.999   2.488   0.150
 4259SOL    HW213110   2.093   2.451   0.021
 4260SOL     OW13111   1.881   2.230   0.647
 4260SOL    HW113112   1.799   2.273   0.686
 4260SOL    HW213113   1.853   2.157   0.584
 4261SOL     OW13114   2.431   3.137   1.165
 4261SOL    HW113115   2.338   3.130   1.128
 4261SOL    HW213116   2.442   3.226   1.209
 4262SOL     OW13117   3.417   3.373   0.703
 4262SOL    HW113118   3.360   3.357   0.784
 4262SOL    HW213119   3.358   3.383   0.623
 4263SOL     OW13120   2.997   2.565   0.717
 4263SOL    HW113121   3.054   2.643   0.692
 4263SOL    HW213122   2.937   2.591   0.793
 4264SOL     OW13123   3.617   2.469   0.231
 4264SOL    HW113124   3.605   2.456   0.132
 4264SOL    HW213125   3.587   2.388   0.280
 4265SOL     OW13126   2.630   3.006   1.023
 4265SOL    HW113127   2.552   3.023   1.083
 4265SOL    HW213128   2.664   3.093   0.987
 4266SOL     OW13129   2.712   2.660   1.823
 4266SOL    HW113130   2.708   2.736   1.888
 4266SOL    HW213131   2.734   2.696   1.732
 4267SOL     OW13132   2.547   2.874   0.665
 4267SOL    HW113133   2.616   2.858   0.735
 4267SOL    HW213134   2.474   2.931   0.703
 4268SOL     OW13135   2.548   3.023   1.803
 4268SOL    HW113136   2.608   3.102   1.817
 4268SOL    HW213137   2.462   3.054   1.762
 4269SOL     OW13138   2.197   3.297   1.061
 4269SOL    HW113139   2.119   3.266   1.008
 4269SOL    HW213140   2.255   3.355   1.004
 4270SOL     OW13141   3.322   3.367   1.339
 4270SOL    HW113142   3.346   3.461   1.365
 4270SOL    HW213143   3.306   3.313   1.421
 4271SOL     OW13144   3.465   2.309   0.737
 4271SOL    HW113145   3.391   2.355   0.687
 4271SOL    HW213146   3.516   2.377   0.790
 4272SOL     OW13147   2.093   3.575   0.483
 4272SOL    HW113148   2.127   3.652   0.537
 4272SOL    HW213149   2.137   3.575   0.393
 4273SOL     OW13150   2.989   3.203   1.690
 4273SOL    HW113151   3.036   3.203   1.778
 4273SOL    HW213152   2.941   3.116   1.679
 4274SOL     OW13153   2.092   3.296   0.538
 4274SOL    HW113154   2.066   3.392   0.538
 4274SOL    HW213155   2.021   3.242   0.583
 4275SOL     OW13156   2.102   2.953   0.886
 4275SOL    HW113157   2.116   2.869   0.938
 4275SOL    HW213158   2.047   3.017   0.941
 4276SOL     OW13159   2.482   3.648   1.439
 4276SOL    HW113160   2.390   3.631   1.474
 4276SOL    HW213161   2.510   3.740   1.465
 4277SOL     OW13162   2.468   2.826   0.123
 4277SOL    HW113163   2.475   2.910   0.069
 4277SOL    HW213164   2.514   2.839   0.211
 4278SOL     OW13165   3.456   1.976   1.480
 4278SOL    HW113166   3.438   2.043   1.408
 4278SOL    HW213167   3.453   2.022   1.569
 4279SOL     OW13168   1.984   2.505   0.563
 4279SOL    HW113169   1.939   2.417   0.580
 4279SOL    HW213170   1.983   2.559   0.647
 4280SOL     OW13171   3.704   3.629   0.359
 4280SOL    HW113172   3.758   3.600   0.439
 4280SOL    HW213173   3.734   3.719   0.330
 4281SOL     OW13174   1.889   3.458   0.117
 4281SOL    HW113175   1.870   3.362   0.138
 4281SOL    HW213176   1.856   3.516   0.192
 4282SOL     OW13177   3.551   2.784   0.612
 4282SOL    HW113178   3.646   2.755   0.620
 4282SOL    HW213179   3.543   2.849   0.537
 4283SOL     OW13180   3.503   2.970   0.432
 4283SOL    HW113181   3.589   2.972   0.380
 4283SOL    HW213182   3.517   3.017   0.520
 4284SOL     OW13183   1.975   2.599   1.597
 4284SOL    HW113184   2.063   2.586   1.642
 4284SOL    HW213185   1.962   2.696   1.575
 4285SOL     OW13186   2.475   3.227   0.726
 4285SOL    HW113187   2.426   3.140   0.735
 4285SOL    HW213188   2.452   3.270   0.639
 4286SOL     OW13189   3.155   3.090   1.423
 4286SOL    HW113190   3.192   3.017   1.365
 4286SOL    HW213191   3.207   3.095   1.508
 4287SOL     OW13192   2.671   1.866   0.502
 4287SOL    HW113193   2.711   1.957   0.493
 4287SOL    HW213194   2.571   1.874   0.508
 4288SOL     OW13195   2.059   2.838   1.264
 4288SOL    HW113196   2.148   2.793   1.250
 4288SOL    HW213197   1.986   2.773   1.245
 4289SOL     OW13198   3.387   2.861   0.190
 4289SOL    HW113199   3.324   2.785   0.203
 4289SOL    HW213200   3.435   2.879   0.276
 4290SOL     OW13201   3.049   3.654   1.616
 4290SOL    HW113202   3.073   3.714   1.540
 4290SOL    HW213203   3.056   3.559   1.586
 4291SOL     OW13204   3.328   3.279   0.953
 4291SOL    HW113205   3.269   3.285   1.033
 4291SOL    HW213206   3.313   3.191   0.907
 4292SOL     OW13207   3.529   3.576   0.572
 4292SOL    HW113208   3.488   3.553   0.484
 4292SOL    HW213209   3.511   3.502   0.637
 4293SOL     OW13210   2.460   2.591   0.270
 4293SOL    HW113211   2.484   2.660   0.202
 4293SOL    HW213212   2.382   2.624   0.324
 4294SOL     OW13213   3.143   2.207   0.944
 4294SOL    HW113214   3.057   2.157   0.931
 4294SOL    HW213215   3.205   2.153   1.000
 4295SOL     OW13216   3.438   3.524   0.307
 4295SOL    HW113217   3.527   3.570   0.310
 4295SOL    HW213218   3.417   3.500   0.212
 4296SOL     OW13219   2.669   2.467   1.465
 4296SOL    HW113220   2.622   2.464   1.554
 4296SOL    HW213221   2.618   2.412   1.399
 4297SOL     OW13222   3.256   2.331   1.674
 4297SOL    HW113223   3.236   2.374   1.762
 4297SOL    HW213224   3.334   2.269   1.683
 4298SOL     OW13225   2.835   2.752   1.572
 4298SOL    HW113226   2.881   2.668   1.543
 4298SOL    HW213227   2.779   2.786   1.497
 4299SOL     OW13228   2.853   2.272   1.242
 4299SOL    HW113229   2.776   2.306   1.296
 4299SOL    HW213230   2.819   2.221   1.163
 4300SOL     OW13231   2.903   2.563   0.429
 4300SOL    HW113232   2.929   2.559   0.525
 4300SOL    HW213233   2.818   2.512   0.415
 4301SOL     OW13234   1.938   2.673   0.789
 4301SOL    HW113235   2.037   2.661   0.798
 4301SOL    HW213236   1.914   2.768   0.810
 4302SOL     OW13237   1.992   3.683   1.571
 4302SOL    HW113238   1.982   3.668   1.670
 4302SOL    HW213239   1.906   3.719   1.535
 4303SOL     OW13240   2.727   2.210   0.195
 4303SOL    HW113241   2.786   2.273   0.146
 4303SOL    HW213242   2.746   2.116   0.166
 4304SOL     OW13243   3.581   2.447   1.831
 4304SOL    HW113244   3.555   2.536   1.795
 4304SOL    HW213245   3.579   2.379   1.758
 4305SOL     OW13246   3.224   3.006   0.545
 4305SOL    HW113247   3.307   2.977   0.497
 4305SOL    HW213248   3.175   3.073   0.489
 4306SOL     OW13249   2.870   3.318   0.477
 4306SOL    HW113250   2.824   3.390   0.425
 4306SOL    HW213251   2.866   3.338   0.575
 4307SOL     OW13252   2.213   3.663   0.853
 4307SOL    HW113253   2.263   3.577   0.859
 4307SOL    HW213254   2.278   3.740   0.850
 4308SOL     OW13255   3.657   2.928   0.873
 4308SOL    HW113256   3.595   2.913   0.797
 4308SOL    HW213257   3.605   2.939   0.958
 4309SOL     OW13258   3.089   3.412   1.506
 4309SOL    HW113259   3.095   3.335   1.570
 4309SOL    HW213260   3.037   3.386   1.426
 4310SOL     OW13261   2.183   2.805   0.242
 4310SOL    HW113262   2.265   2.844   0.200
 4310SOL    HW213263   2.156   2.723   0.193
 4311SOL     OW13264   3.320   2.597   0.728
 4311SOL    HW113265   3.315   2.532   0.803
 4311SOL    HW213266   3.400   2.656   0.741
 4312SOL     OW13267   2.323   3.128   1.727
 4312SOL    HW113268   2.273   3.129   1.641
 4312SOL    HW213269   2.260   3.110   1.803
 4313SOL     OW13270   2.973   3.638   0.237
 4313SOL    HW113271   2.913   3.576   0.287
 4313SOL    HW213272   3.004   3.594   0.152
 4314SOL     OW13273   2.064   2.147   1.498
 4314SOL    HW113274   1.984   2.207   1.485
 4314SOL    HW213275   2.054   2.098   1.584
 4315SOL     OW13276   3.494   3.239   0.081
 4315SOL    HW113277   3.462   3.333   0.071
 4315SOL    HW213278   3.418   3.176   0.069
 4316SOL     OW13279   2.326   3.605   0.323
 4316SOL    HW113280   2.359   3.644   0.409
 4316SOL    HW213281   2.402   3.598   0.258
 4317SOL     OW13282   3.262   1.969   0.426
 4317SOL    HW113283   3.238   1.932   0.336
 4317SOL    HW213284   3.361   1.985   0.430
 4318SOL     OW13285   2.111   3.647   1.241
 4318SOL    HW113286   2.168   3.582   1.291
 4318SOL    HW213287   2.095   3.614   1.148
 4319SOL     OW13288   2.802   3.560   0.904
 4319SOL    HW113289   2.882   3.503   0.925
 4319SOL    HW213290   2.753   3.520   0.827
 4320SOL     OW13291   2.244   2.562   0.480
 4320SOL    HW113292   2.289   2.472   0.477
 4320SOL    HW213293   2.150   2.551   0.513
 4321SOL     OW13294   3.409   2.084   1.729
 4321SOL    HW113295   3.404   2.121   1.821
 4321SOL    HW213296   3.337   2.015   1.717
 4322SOL     OW13297   2.476   1.984   0.117
 4322SOL    HW113298   2.574   1.962   0.124
 4322SOL    HW213299   2.445   1.967   0.024
 4323SOL     OW13300   2.643   2.126   1.749
 4323SOL    HW113301   2.710   2.065   1.792
 4323SOL    HW213302   2.570   2.145   1.814
 4324SOL     OW13303   2.750   3.376   1.195
 4324SOL    HW113304   2.727   3.351   1.101
 4324SOL    HW213305   2.811   3.307   1.234
 4325SOL     OW13306   3.213   2.452   1.433
 4325SOL    HW113307   3.241   2.409   1.518
 4325SOL    HW213308   3.238   2.548   1.434
 4326SOL     OW13309   2.665   3.264   0.924
 4326SOL    HW113310   2.755   3.278   0.882
 4326SOL    HW213311   2.594   3.266   0.853
 4327SOL     OW13312   2.784   2.365   0.899
 4327SOL    HW113313   2.759   2.356   0.803
 4327SOL    HW213314   2.832   2.283   0.930
 4328SOL     OW13315   2.401   1.926   0.512
 4328SOL    HW113316   2.320   1.927   0.570
 4328SOL    HW213317   2.404   2.009   0.457
 4329SOL     OW13318   3.296   3.050   0.041
 4329SOL    HW113319   3.328   2.974   0.098
 4329SOL    HW213320   3.204   3.077   0.071
 4330SOL     OW13321   2.159   1.897   0.171
 4330SOL    HW113322   2.208   1.981   0.150
 4330SOL    HW213323   2.221   1.832   0.216
 4331SOL     OW13324   2.797   2.098   0.480
 4331SOL    HW113325   2.749   2.139   0.402
 4331SOL    HW213326   2.896   2.096   0.461
 4332SOL     OW13327   2.938   2.545   1.464
 4332SOL    HW113328   2.858   2.484   1.467
 4332SOL    HW213329   3.019   2.492   1.440
 4333SOL     OW13330   3.089   3.432   0.793
 4333SOL    HW113331   3.110   3.506   0.728
 4333SOL    HW213332   3.157   3.432   0.866
 4334SOL     OW13333   2.321   3.014   0.741
 4334SOL    HW113334   2.250   2.987   0.806
 4334SOL    HW213335   2.295   2.986   0.648
 4335SOL     OW13336   3.133   3.659   0.591
 4335SOL    HW113337   3.177   3.723   0.527
 4335SOL    HW213338   3.083   3.711   0.661
 4336SOL     OW13339   2.894   2.411   0.016
 4336SOL    HW113340   2.853   2.493  -0.023
 4336SOL    HW213341   2.958   2.437   0.089
 4337SOL     OW13342   1.940   2.418   1.386
 4337SOL    HW113343   2.032   2.417   1.345
 4337SOL    HW213344   1.934   2.492   1.453
 4338SOL     OW13345   2.728   2.316   0.642
 4338SOL    HW113346   2.696   2.388   0.580
 4338SOL    HW213347   2.752   2.235   0.589
 4339SOL     OW13348   2.879   1.901   0.753
 4339SOL    HW113349   2.807   1.906   0.684
 4339SOL    HW213350   2.855   1.832   0.822
 4340SOL     OW13351   3.291   3.035   0.867
 4340SOL    HW113352   3.236   2.951   0.860
 4340SOL    HW213353   3.317   3.064   0.775
 4341SOL     OW13354   3.328   2.452   0.992
 4341SOL    HW113355   3.298   2.357   0.999
 4341SOL    HW213356   3.401   2.468   1.058
 4342SOL     OW13357   3.719   2.695   0.377
 4342SOL    HW113358   3.761   2.631   0.441
 4342SOL    HW213359   3.681   2.644   0.299
 4343SOL     OW13360   2.350   3.247   0.174
 4343SOL    HW113361   2.263   3.232   0.221
 4343SOL    HW213362   2.333   3.273   0.079
 4344SOL     OW13363   3.526   3.142   0.657
 4344SOL    HW113364   3.625   3.150   0.671
 4344SOL    HW213365   3.481   3.226   0.688
 4345SOL     OW13366   3.252   2.437   0.078
 4345SOL    HW113367   3.198   2.416   0.159
 4345SOL    HW213368   3.343   2.396   0.087
 4346SOL     OW13369   3.616   3.085   1.588
 4346SOL    HW113370   3.707   3.046   1.575
 4346SOL    HW213371   3.624   3.181   1.612
 4347SOL     OW13372   2.926   3.209   1.340
 4347SOL    HW113373   2.846   3.186   1.395
 4347SOL    HW213374   3.009   3.183   1.389
 4348SOL     OW13375   3.454   3.491   1.625
 4348SOL    HW113376   3.481   3.525   1.535
 4348SOL    HW213377   3.533   3.453   1.671
 4349SOL     OW13378   2.973   3.057   1.100
 4349SOL    HW113379   2.933   3.101   1.181
 4349SOL    HW213380   2.932   3.094   1.017
 4350SOL     OW13381   3.500   2.961   1.079
 4350SOL    HW113382   3.505   3.042   1.138
 4350SOL    HW213383   3.414   2.963   1.028
 4351SOL     OW13384   2.777   1.951   1.402
 4351SOL    HW113385   2.802   1.931   1.307
 4351SOL    HW213386   2.849   2.007   1.444
 4352SOL     OW13387   2.842   2.978   1.719
 4352SOL    HW113388   2.743   2.984   1.729
 4352SOL    HW213389   2.865   2.898   1.663
 4353SOL     OW13390   2.567   2.912   0.368
 4353SOL    HW113391   2.553   2.919   0.467
 4353SOL    HW213392   2.651   2.861   0.350
 4354SOL     OW13393   2.272   2.675   1.251
 4354SOL    HW113394   2.358   2.687   1.301
 4354SOL    HW213395   2.230   2.588   1.278
 4355SOL     OW13396   3.136   2.248   1.262
 4355SOL    HW113397   3.157   2.322   1.326
 4355SOL    HW213398   3.047   2.265   1.219
 4356SOL     OW13399   1.926   3.426   1.331
 4356SOL    HW113400   1.880   3.508   1.297
 4356SOL    HW213401   2.024   3.445   1.340
 4357SOL     OW13402   2.229   2.962   0.501
 4357SOL    HW113403   2.222   3.045   0.445
 4357SOL    HW213404   2.233   2.882   0.441
 4358SOL     OW13405   3.114   3.210   0.388
 4358SOL    HW113406   3.164   3.287   0.428
 4358SOL    HW213407   3.019   3.212   0.420
 4359SOL     OW13408   3.134   3.307   1.142
 4359SOL    HW113409   3.181   3.320   1.229
 4359SOL    HW213410   3.068   3.233   1.151
 4360SOL     OW13411   3.444   2.501   0.472
 4360SOL    HW113412   3.413   2.562   0.545
 4360SOL    HW213413   3.494   2.553   0.403
 4361SOL     OW13414   2.216   3.372   1.329
 4361SOL    HW113415   2.195   3.328   1.242
 4361SOL    HW213416   2.313   3.398   1.332
 4362SOL     OW13417   2.264   2.613   1.598
 4362SOL    HW113418   2.332   2.668   1.551
 4362SOL    HW213419   2.304   2.525   1.625
 4363SOL     OW13420   3.449   2.641   1.670
 4363SOL    HW113421   3.357   2.679   1.665
 4363SOL    HW213422   3.509   2.688   1.605
 4364SOL     OW13423   2.875   1.967   1.770
 4364SOL    HW113424   2.881   2.052   1.718
 4364SOL    HW213425   2.907   1.891   1.713
 4365SOL     OW13426   2.366   1.912   1.740
 4365SOL    HW113427   2.324   1.855   1.670
 4365SOL    HW213428   2.300   1.981   1.772
 4366SOL     OW13429   2.435   2.732   1.029
 4366SOL    HW113430   2.479   2.821   1.020
 4366SOL    HW213431   2.372   2.732   1.106
 4367SOL     OW13432   3.222   2.724   1.045
 4367SOL    HW113433   3.147   2.724   0.979
 4367SOL    HW213434   3.259   2.632   1.054
 4368SOL     OW13435   3.071   2.387   0.275
 4368SOL    HW113436   3.084   2.303   0.329
 4368SOL    HW213437   3.042   2.461   0.335
 4369SOL     OW13438   1.899   3.172   1.282
 4369SOL    HW113439   1.952   3.123   1.350
 4369SOL    HW213440   1.921   3.270   1.287
 4370SOL     OW13441   2.594   2.496   1.064
 4370SOL    HW113442   2.653   2.470   0.988
 4370SOL    HW213443   2.566   2.592   1.053
 4371SOL     OW13444   3.590   2.797   1.854
 4371SOL    HW113445   3.544   2.790   1.765
 4371SOL    HW213446   3.528   2.841   1.920
 4372SOL     OW13447   2.169   1.925   0.618
 4372SOL    HW113448   2.158   2.019   0.651
 4372SOL    HW213449   2.164   1.862   0.695
 4373SOL     OW13450   3.484   2.229   0.374
 4373SOL    HW113451   3.486   2.153   0.438
 4373SOL    HW213452   3.436   2.306   0.414
 4374SOL     OW13453   2.885   2.628   0.966
 4374SOL    HW113454   2.900   2.649   1.062
 4374SOL    HW213455   2.855   2.533   0.957
 4375SOL     OW13456   2.842   3.435   1.700
 4375SOL    HW113457   2.822   3.479   1.612
 4375SOL    HW213458   2.881   3.344   1.684
 4376SOL     OW13459   3.721   3.380   1.605
 4376SOL    HW113460   3.735   3.407   1.510
 4376SOL    HW213461   3.804   3.402   1.658
 4377SOL     OW13462   2.212   2.760   1.804
 4377SOL    HW113463   2.288   2.804   1.852
 4377SOL    HW213464   2.247   2.713   1.722
 4378SOL     OW13465   3.402   2.136   0.125
 4378SOL    HW113466   3.341   2.061   0.148
 4378SOL    HW213467   3.424   2.188   0.208
 4379SOL     OW13468   3.165   2.700   0.042
 4379SOL    HW113469   3.199   2.607   0.057
 4379SOL    HW213470   3.183   2.727  -0.053
 4380SOL     OW13471   2.930   3.195   0.849
 4380SOL    HW113472   2.937   3.111   0.794
 4380SOL    HW213473   2.992   3.264   0.813
 4381SOL     OW13474   2.181   2.672   0.949
 4381SOL    HW113475   2.274   2.708   0.954
 4381SOL    HW213476   2.175   2.587   1.001
 4382SOL     OW13477   3.000   2.242   1.678
 4382SOL    HW113478   2.955   2.305   1.742
 4382SOL    HW213479   3.093   2.273   1.661
 4383SOL     OW13480   3.022   2.069   1.477
 4383SOL    HW113481   3.022   2.133   1.554
 4383SOL    HW213482   3.050   2.117   1.394
 4384SOL     OW13483   1.870   3.188   0.200
 4384SOL    HW113484   1.777   3.209   0.169
 4384SOL    HW213485   1.880   3.089   0.213
 4385SOL     OW13486   1.950   3.663   0.927
 4385SOL    HW113487   1.908   3.577   0.900
 4385SOL    HW213488   2.044   3.666   0.893
 4386SOL     OW13489   2.366   3.430   0.910
 4386SOL    HW113490   2.432   3.504   0.919
 4386SOL    HW213491   2.410   3.351   0.868
 4387SOL     OW13492   2.864   2.658   1.238
 4387SOL    HW113493   2.905   2.626   1.324
 4387SOL    HW213494   2.768   2.631   1.235
 4388SOL     OW13495   1.902   2.406   1.114
 4388SOL    HW113496   1.987   2.373   1.073
 4388SOL    HW213497   1.915   2.421   1.212
 4389SOL     OW13498   3.231   2.812   1.660
 4389SOL    HW113499   3.270   2.901   1.680
 4389SOL    HW213500   3.241   2.792   1.563
 4390SOL     OW13501   2.677   2.434   0.325
 4390SOL    HW113502   2.684   2.345   0.279
 4390SOL    HW213503   2.583   2.468   0.317
 4391SOL     OW13504   3.519   2.466   1.206
 4391SOL    HW113505   3.481   2.397   1.268
 4391SOL    HW213506   3.601   2.430   1.162
 4392SOL     OW13507   2.114   3.426   1.744
 4392SOL    HW113508   2.084   3.483   1.820
 4392SOL    HW213509   2.107   3.329   1.770
 4393SOL     OW13510   2.533   2.326   1.269
 4393SOL    HW113511   2.499   2.237   1.239
 4393SOL    HW213512   2.559   2.380   1.189
 4394SOL     OW13513   2.792   3.540   1.465
 4394SOL    HW113514   2.768   3.522   1.370
 4394SOL    HW213515   2.822   3.634   1.475
 4395SOL     OW13516   2.021   2.999   1.466
 4395SOL    HW113517   2.043   2.938   1.542
 4395SOL    HW213518   2.031   2.950   1.380
 4396SOL     OW13519   3.209   2.921   1.234
 4396SOL    HW113520   3.233   2.858   1.160
 4396SOL    HW213521   3.119   2.961   1.216
 4397SOL     OW13522   3.164   2.717   0.309
 4397SOL    HW113523   3.078   2.686   0.351
 4397SOL    HW213524   3.160   2.703   0.210
 4398SOL     OW13525   3.621   3.609   1.154
 4398SOL    HW113526   3.682   3.639   1.081
 4398SOL    HW213527   3.583   3.520   1.132
 4399SOL     OW13528   3.114   3.593   1.128
 4399SOL    HW113529   3.198   3.598   1.074
 4399SOL    HW213530   3.091   3.497   1.146
 4400SOL     OW13531   1.945   3.120   1.022
 4400SOL    HW113532   1.940   3.119   1.122
 4400SOL    HW213533   1.862   3.079   0.984
 4401SOL     OW13534   2.550   3.524   1.716
 4401SOL    HW113535   2.494   3.605   1.725
 4401SOL    HW213536   2.602   3.528   1.630
 4402SOL     OW13537   2.765   1.948   0.133
 4402SOL    HW113538   2.816   1.949   0.047
 4402SOL    HW213539   2.821   1.906   0.204
 4403SOL     OW13540   3.588   1.997   0.523
 4403SOL    HW113541   3.661   1.980   0.456
 4403SOL    HW213542   3.557   1.910   0.561
 4404SOL     OW13543   3.250   3.435   0.477
 4404SOL    HW113544   3.317   3.447   0.403
 4404SOL    HW213545   3.210   3.524   0.500
 4405SOL     OW13546   1.992   3.656   1.851
 4405SOL    HW113547   1.951   3.582   1.904
 4405SOL    HW213548   2.056   3.707   1.909
 4406SOL     OW13549   3.142   2.789   0.672
 4406SOL    HW113550   3.202   2.708   0.674
 4406SOL    HW213551   3.182   2.858   0.612
 4407SOL     OW13552   2.692   3.135   1.422
 4407SOL    HW113553   2.687   3.168   1.517
 4407SOL    HW213554   2.606   3.154   1.376
 4408SOL     OW13555   2.534   3.478   0.154
 4408SOL    HW113556   2.543   3.488   0.055
 4408SOL    HW213557   2.494   3.389   0.175
 4409SOL     OW13558   3.512   3.582   1.394
 4409SOL    HW113559   3.565   3.592   1.310
 4409SOL    HW213560   3.485   3.672   1.428
 4410SOL     OW13561   3.703   2.037   0.963
 4410SOL    HW113562   3.742   1.952   0.927
 4410SOL    HW213563   3.605   2.039   0.944
 4411SOL     OW13564   3.056   3.474   0.031
 4411SOL    HW113565   3.062   3.381   0.068
 4411SOL    HW213566   2.997   3.474  -0.049
 4412SOL     OW13567   2.684   2.864   1.372
 4412SOL    HW113568   2.724   2.863   1.280
 4412SOL    HW213569   2.694   2.956   1.412
 4413SOL     OW13570   2.778   2.772   0.291
 4413SOL    HW113571   2.841   2.810   0.223
 4413SOL    HW213572   2.818   2.689   0.330
 4414SOL     OW13573   3.366   3.469   0.044
 4414SOL    HW113574   3.274   3.506   0.051
 4414SOL    HW213575   3.404   3.489  -0.046
 4415SOL     OW13576   2.234   3.150   1.490
 4415SOL    HW113577   2.221   3.243   1.456
 4415SOL    HW213578   2.150   3.098   1.477
 4416SOL     OW13579   3.476   3.154   1.289
 4416SOL    HW113580   3.536   3.157   1.369
 4416SOL    HW213581   3.401   3.218   1.302
 4417SOL     OW13582   2.901   2.960   0.696
 4417SOL    HW113583   2.831   2.913   0.750
 4417SOL    HW213584   2.960   2.892   0.653
 4418SOL     OW13585   2.876   2.098   0.971
 4418SOL    HW113586   2.868   2.062   0.878
 4418SOL    HW213587   2.874   2.022   1.036
 4419SOL     OW13588   2.452   3.349   0.491
 4419SOL    HW113589   2.494   3.291   0.421
 4419SOL    HW213590   2.408   3.428   0.447
 4420SOL     OW13591   3.571   2.247   1.381
 4420SOL    HW113592   3.644   2.316   1.385
 4420SOL    HW213593   3.599   2.172   1.322
 4421SOL     OW13594   2.117   3.210   0.290
 4421SOL    HW113595   2.021   3.211   0.263
 4421SOL    HW213596   2.129   3.263   0.374
 4422SOL     OW13597   1.967   2.875   1.726
 4422SOL    HW113598   1.890   2.842   1.780
 4422SOL    HW213599   2.052   2.845   1.768
 4423SOL     OW13600   2.534   2.065   1.489
 4423SOL    HW113601   2.624   2.049   1.449
 4423SOL    HW213602   2.542   2.070   1.588
 4424SOL     OW13603   3.302   2.718   1.398
 4424SOL    HW113604   3.245   2.770   1.335
 4424SOL    HW213605   3.398   2.730   1.374
 4425SOL     OW13606   1.934   2.028   0.318
 4425SOL    HW113607   1.917   2.111   0.264
 4425SOL    HW213608   2.024   1.991   0.296
 4426SOL     OW13609   3.045   3.197   0.119
 4426SOL    HW113610   2.946   3.186   0.121
 4426SOL    HW213611   3.079   3.212   0.212
 4427SOL     OW13612   2.475   2.704   1.431
 4427SOL    HW113613   2.531   2.785   1.414
 4427SOL    HW213614   2.534   2.624   1.434
 4428SOL     OW13615   3.355   3.629   0.959
 4428SOL    HW113616   3.388   3.693   0.890
 4428SOL    HW213617   3.421   3.623   1.034
 4429SOL     OW13618   2.578   2.427   1.708
 4429SOL    HW113619   2.597   2.492   1.782
 4429SOL    HW213620   2.638   2.347   1.717
 4430SOL     OW13621   3.312   3.082   1.633
 4430SOL    HW113622   3.303   3.072   1.732
 4430SOL    HW213623   3.408   3.075   1.607
 4431SOL     OW13624   2.252   3.603   1.560
 4431SOL    HW113625   2.161   3.644   1.558
 4431SOL    HW213626   2.245   3.509   1.592
 4432SOL     OW13627   3.536   2.745   1.254
 4432SOL    HW113628   3.509   2.656   1.217
 4432SOL    HW213629   3.537   2.813   1.181
 4433SOL     OW13630   3.087   2.187   0.449
 4433SOL    HW113631   3.152   2.113   0.438
 4433SOL    HW213632   3.107   2.237   0.533
 4434SOL     OW13633   2.456   2.607   0.652
 4434SOL    HW113634   2.506   2.692   0.633
 4434SOL    HW213635   2.368   2.609   0.604
 4435SOL     OW13636   3.639   2.204   1.642
 4435SOL    HW113637   3.622   2.235   1.548
 4435SOL    HW213638   3.555   2.167   1.680
 4436SOL     OW13639   3.592   2.796   1.517
 4436SOL    HW113640   3.630   2.887   1.532
 4436SOL    HW213641   3.584   2.779   1.418
 4437SOL     OW13642   2.721   3.236   0.016
 4437SOL    HW113643   2.675   3.251   0.104
 4437SOL    HW213644   2.765   3.321  -0.014
 4438SOL     OW13645   2.523   3.652   0.953
 4438SOL    HW113646   2.477   3.740   0.940
 4438SOL    HW213647   2.622   3.664   0.946
 4439SOL     OW13648   2.721   2.818   0.861
 4439SOL    HW113649   2.775   2.749   0.909
 4439SOL    HW213650   2.689   2.887   0.927
 4440SOL     OW13651   2.945   2.846   0.087
 4440SOL    HW113652   2.922   2.899   0.005
 4440SOL    HW213653   3.026   2.790   0.068
 4441SOL     OW13654   3.723   3.431   0.851
 4441SOL    HW113655   3.652   3.419   0.781
 4441SOL    HW213656   3.724   3.352   0.911
 4442SOL     OW13657   2.083   3.176   1.844
 4442SOL    HW113658   2.018   3.103   1.823
 4442SOL    HW213659   2.087   3.190   1.942
 4443SOL     OW13660   1.941   3.102   0.653
 4443SOL    HW113661   1.940   3.055   0.741
 4443SOL    HW213662   2.023   3.074   0.602
 4444SOL     OW13663   2.534   3.253   1.624
 4444SOL    HW113664   2.456   3.203   1.662
 4444SOL    HW213665   2.531   3.348   1.655
 4445SOL     OW13666   3.686   2.054   1.227
 4445SOL    HW113667   3.682   1.964   1.271
 4445SOL    HW213668   3.689   2.043   1.128
 4446SOL     OW13669   3.567   3.349   1.104
 4446SOL    HW113670   3.474   3.324   1.077
 4446SOL    HW213671   3.593   3.299   1.186
 4447SOL     OW13672   2.674   3.448   0.687
 4447SOL    HW113673   2.706   3.458   0.593
 4447SOL    HW213674   2.595   3.386   0.689
 4448SOL     OW13675   3.286   2.076   1.112
 4448SOL    HW113676   3.338   2.011   1.167
 4448SOL    HW213677   3.237   2.139   1.173
 4449SOL     OW13678   2.863   1.896   1.154
 4449SOL    HW113679   2.800   1.824   1.123
 4449SOL    HW213680   2.956   1.860   1.154
 4450SOL     OW13681   2.632   3.192   0.301
 4450SOL    HW113682   2.586   3.105   0.318
 4450SOL    HW213683   2.723   3.189   0.342
 4451SOL     OW13684   2.480   3.429   1.284
 4451SOL    HW113685   2.475   3.511   1.341
 4451SOL    HW213686   2.569   3.426   1.239
 4452SOL     OW13687   3.214   1.914   0.168
 4452SOL    HW113688   3.249   1.873   0.084
 4452SOL    HW213689   3.124   1.876   0.188
 4453SOL     OW13690   3.162   2.315   0.691
 4453SOL    HW113691   3.103   2.395   0.695
 4453SOL    HW213692   3.177   2.280   0.784
 4454SOL     OW13693   3.455   2.083   0.882
 4454SOL    HW113694   3.371   2.082   0.936
 4454SOL    HW213695   3.457   2.166   0.826
 4455SOL     OW13696   1.901   2.939   0.300
 4455SOL    HW113697   2.000   2.928   0.291
 4455SOL    HW213698   1.861   2.853   0.332
 4456SOL     OW13699   2.737   3.508   0.337
 4456SOL    HW113700   2.660   3.473   0.283
 4456SOL    HW213701   2.705   3.579   0.399
 4457SOL     OW13702   2.092   2.490   1.975
 4457SOL    HW113703   1.999   2.488   2.012
 4457SOL    HW213704   2.093   2.451   1.883
 4458SOL     OW13705   1.881   2.230   2.509
 4458SOL    HW113706   1.799   2.273   2.548
 4458SOL    HW213707   1.853   2.157   2.446
 4459SOL     OW13708   2.431   3.137   3.027
 4459SOL    HW113709   2.338   3.130   2.990
 4459SOL    HW213710   2.442   3.226   3.071
 4460SOL     OW13711   3.417   3.373   2.565
 4460SOL    HW113712   3.360   3.357   2.646
 4460SOL    HW213713   3.358   3.383   2.485
 4461SOL     OW13714   2.997   2.565   2.579
 4461SOL    HW113715   3.054   2.643   2.554
 4461SOL    HW213716   2.937   2.591   2.655
 4462SOL     OW13717   3.617   2.469   2.093
 4462SOL    HW113718   3.605   2.456   1.994
 4462SOL    HW213719   3.587   2.388   2.142
 4463SOL     OW13720   2.630   3.006   2.885
 4463SOL    HW113721   2.552   3.023   2.945
 4463SOL    HW213722   2.664   3.093   2.849
 4464SOL     OW13723   2.712   2.660   3.685
 4464SOL    HW113724   2.708   2.736   3.750
 4464SOL    HW213725   2.734   2.696   3.594
 4465SOL     OW13726   2.547   2.874   2.527
 4465SOL    HW113727   2.616   2.858   2.597
 4465SOL    HW213728   2.474   2.931   2.565
 4466SOL     OW13729   2.548   3.023   3.665
 4466SOL    HW113730   2.608   3.102   3.679
 4466SOL    HW213731   2.462   3.054   3.624
 4467SOL     OW13732   2.197   3.297   2.923
 4467SOL    HW113733   2.119   3.266   2.870
 4467SOL    HW213734   2.255   3.355   2.866
 4468SOL     OW13735   3.322   3.367   3.201
 4468SOL    HW113736   3.346   3.461   3.227
 4468SOL    HW213737   3.306   3.313   3.283
 4469SOL     OW13738   3.465   2.309   2.599
 4469SOL    HW113739   3.391   2.355   2.549
 4469SOL    HW213740   3.516   2.377   2.652
 4470SOL     OW13741   2.093   3.575   2.345
 4470SOL    HW113742   2.127   3.652   2.399
 4470SOL    HW213743   2.137   3.575   2.255
 4471SOL     OW13744   2.989   3.203   3.552
 4471SOL    HW113745   3.036   3.203   3.640
 4471SOL    HW213746   2.941   3.116   3.541
 4472SOL     OW13747   2.092   3.296   2.400
 4472SOL    HW113748   2.066   3.392   2.400
 4472SOL    HW213749   2.021   3.242   2.445
 4473SOL     OW13750   2.102   2.953   2.748
 4473SOL    HW113751   2.116   2.869   2.800
 4473SOL    HW213752   2.047   3.017   2.803
 4474SOL     OW13753   2.482   3.648   3.301
 4474SOL    HW113754   2.390   3.631   3.336
 4474SOL    HW213755   2.510   3.740   3.327
 4475SOL     OW13756   2.468   2.826   1.985
 4475SOL    HW113757   2.475   2.910   1.931
 4475SOL    HW213758   2.514   2.839   2.073
 4476SOL     OW13759   3.456   1.976   3.342
 4476SOL    HW113760   3.438   2.043   3.270
 4476SOL    HW213761   3.453   2.022   3.431
 4477SOL     OW13762   1.984   2.505   2.425
 4477SOL    HW113763   1.939   2.417   2.442
 4477SOL    HW213764   1.983   2.559   2.509
 4478SOL     OW13765   3.704   3.629   2.221
 4478SOL    HW113766   3.758   3.600   2.301
 4478SOL    HW213767   3.734   3.719   2.192
 4479SOL     OW13768   1.889   3.458   1.979
 4479SOL    HW113769   1.870   3.362   2.000
 4479SOL    HW213770   1.856   3.516   2.054
 4480SOL     OW13771   3.551   2.784   2.474
 4480SOL    HW113772   3.646   2.755   2.482
 4480SOL    HW213773   3.543   2.849   2.399
 4481SOL     OW13774   3.503   2.970   2.294
 4481SOL    HW113775   3.589   2.972   2.242
 4481SOL    HW213776   3.517   3.017   2.382
 4482SOL     OW13777   1.975   2.599   3.459
 4482SOL    HW113778   2.063   2.586   3.504
 4482SOL    HW213779   1.962   2.696   3.437
 4483SOL     OW13780   2.475   3.227   2.588
 4483SOL    HW113781   2.426   3.140   2.597
 4483SOL    HW213782   2.452   3.270   2.501
 4484SOL     OW13783   3.155   3.090   3.285
 4484SOL    HW113784   3.192   3.017   3.227
 4484SOL    HW213785   3.207   3.095   3.370
 4485SOL     OW13786   2.671   1.866   2.364
 4485SOL    HW113787   2.711   1.957   2.355
 4485SOL    HW213788   2.571   1.874   2.370
 4486SOL     OW13789   2.059   2.838   3.126
 4486SOL    HW113790   2.148   2.793   3.112
 4486SOL    HW213791   1.986   2.773   3.107
 4487SOL     OW13792   3.387   2.861   2.052
 4487SOL    HW113793   3.324   2.785   2.065
 4487SOL    HW213794   3.435   2.879   2.138
 4488SOL     OW13795   3.049   3.654   3.478
 4488SOL    HW113796   3.073   3.714   3.402
 4488SOL    HW213797   3.056   3.559   3.448
 4489SOL     OW13798   3.328   3.279   2.815
 4489SOL    HW113799   3.269   3.285   2.895
 4489SOL    HW213800   3.313   3.191   2.769
 4490SOL     OW13801   3.529   3.576   2.434
 4490SOL    HW113802   3.488   3.553   2.346
 4490SOL    HW213803   3.511   3.502   2.499
 4491SOL     OW13804   2.460   2.591   2.132
 4491SOL    HW113805   2.484   2.660   2.064
 4491SOL    HW213806   2.382   2.624   2.186
 4492SOL     OW13807   3.143   2.207   2.806
 4492SOL    HW113808   3.057   2.157   2.793
 4492SOL    HW213809   3.205   2.153   2.862
 4493SOL     OW13810   3.438   3.524   2.169
 4493SOL    HW113811   3.527   3.570   2.172
 4493SOL    HW213812   3.417   3.500   2.074
 4494SOL     OW13813   2.669   2.467   3.327
 4494SOL    HW113814   2.622   2.464   3.416
 4494SOL    HW213815   2.618   2.412   3.261
 4495SOL     OW13816   3.256   2.331   3.536
 4495SOL    HW113817   3.236   2.374   3.624
 4495SOL    HW213818   3.334   2.269   3.545
 4496SOL     OW13819   2.835   2.752   3.434
 4496SOL    HW113820   2.881   2.668   3.405
 4496SOL    HW213821   2.779   2.786   3.359
 4497SOL     OW13822   2.853   2.272   3.104
 4497SOL    HW113823   2.776   2.306   3.158
 4497SOL    HW213824   2.819   2.221   3.025
 4498SOL     OW13825   2.903   2.563   2.291
 4498SOL    HW113826   2.929   2.559   2.387
 4498SOL    HW213827   2.818   2.512   2.277
 4499SOL     OW13828   1.938   2.673   2.651
 4499SOL    HW113829   2.037   2.661   2.660
 4499SOL    HW213830   1.914   2.768   2.672
 4500SOL     OW13831   1.992   3.683   3.433
 4500SOL    HW113832   1.982   3.668   3.532
 4500SOL    HW213833   1.906   3.719   3.397
 4501SOL     OW13834   2.727   2.210   2.057
 4501SOL    HW113835   2.786   2.273   2.008
 4501SOL    HW213836   2.746   2.116   2.028
 4502SOL     OW13837   3.581   2.447   3.693
 4502SOL    HW113838   3.555   2.536   3.657
 4502SOL    HW213839   3.579   2.379   3.620
 4503SOL     OW13840   3.224   3.006   2.407
 4503SOL    HW113841   3.307   2.977   2.359
 4503SOL    HW213842   3.175   3.073   2.351
 4504SOL     OW13843   2.412   2.058   2.747
 4504SOL    HW113844   2.407   2.053   2.847
 4504SOL    HW213845   2.414   2.154   2.718
 4505SOL     OW13846   2.870   3.318   2.339
 4505SOL    HW113847   2.824   3.390   2.287
 4505SOL    HW213848   2.866   3.338   2.437
 4506SOL     OW13849   2.213   3.663   2.715
 4506SOL    HW113850   2.263   3.577   2.721
 4506SOL    HW213851   2.278   3.740   2.712
 4507SOL     OW13852   3.657   2.928   2.735
 4507SOL    HW113853   3.595   2.913   2.659
 4507SOL    HW213854   3.605   2.939   2.820
 4508SOL     OW13855   3.089   3.412   3.368
 4508SOL    HW113856   3.095   3.335   3.432
 4508SOL    HW213857   3.037   3.386   3.288
 4509SOL     OW13858   2.183   2.805   2.104
 4509SOL    HW113859   2.265   2.844   2.062
 4509SOL    HW213860   2.156   2.723   2.055
 4510SOL     OW13861   3.320   2.597   2.590
 4510SOL    HW113862   3.315   2.532   2.665
 4510SOL    HW213863   3.400   2.656   2.603
 4511SOL     OW13864   2.323   3.128   3.589
 4511SOL    HW113865   2.273   3.129   3.503
 4511SOL    HW213866   2.260   3.110   3.665
 4512SOL     OW13867   2.973   3.638   2.099
 4512SOL    HW113868   2.913   3.576   2.149
 4512SOL    HW213869   3.004   3.594   2.014
 4513SOL     OW13870   3.494   3.239   1.943
 4513SOL    HW113871   3.462   3.333   1.933
 4513SOL    HW213872   3.418   3.176   1.931
 4514SOL     OW13873   2.326   3.605   2.185
 4514SOL    HW113874   2.359   3.644   2.271
 4514SOL    HW213875   2.402   3.598   2.120
 4515SOL     OW13876   3.262   1.969   2.288
 4515SOL    HW113877   3.238   1.932   2.198
 4515SOL    HW213878   3.361   1.985   2.292
 4516SOL     OW13879   2.111   3.647   3.103
 4516SOL    HW113880   2.168   3.582   3.153
 4516SOL    HW213881   2.095   3.614   3.010
 4517SOL     OW13882   2.802   3.560   2.766
 4517SOL    HW113883   2.882   3.503   2.787
 4517SOL    HW213884   2.753   3.520   2.689
 4518SOL     OW13885   3.409   2.084   3.591
 4518SOL    HW113886   3.404   2.121   3.683
 4518SOL    HW213887   3.337   2.015   3.579
 4519SOL     OW13888   2.476   1.984   1.979
 4519SOL    HW113889   2.574   1.962   1.986
 4519SOL    HW213890   2.445   1.967   1.886
 4520SOL     OW13891   2.643   2.126   3.611
 4520SOL    HW113892   2.710   2.065   3.654
 4520SOL    HW213893   2.570   2.145   3.676
 4521SOL     OW13894   2.750   3.376   3.057
 4521SOL    HW113895   2.727   3.351   2.963
 4521SOL    HW213896   2.811   3.307   3.096
 4522SOL     OW13897   3.213   2.452   3.295
 4522SOL    HW113898   3.241   2.409   3.380
 4522SOL    HW213899   3.238   2.548   3.296
 4523SOL     OW13900   2.665   3.264   2.786
 4523SOL    HW113901   2.755   3.278   2.744
 4523SOL    HW213902   2.594   3.266   2.715
 4524SOL     OW13903   2.784   2.365   2.761
 4524SOL    HW113904   2.759   2.356   2.665
 4524SOL    HW213905   2.832   2.283   2.792
 4525SOL     OW13906   2.401   1.926   2.374
 4525SOL    HW113907   2.320   1.927   2.432
 4525SOL    HW213908   2.404   2.009   2.319
 4526SOL     OW13909   3.296   3.050   1.903
 4526SOL    HW113910   3.328   2.974   1.960
 4526SOL    HW213911   3.204   3.077   1.933
 4527SOL     OW13912   2.159   1.897   2.033
 4527SOL    HW113913   2.208   1.981   2.012
 4527SOL    HW213914   2.221   1.832   2.078
 4528SOL     OW13915   2.797   2.098   2.342
 4528SOL    HW113916   2.749   2.139   2.264
 4528SOL    HW213917   2.896   2.096   2.323
 4529SOL     OW13918   2.938   2.545   3.326
 4529SOL    HW113919   2.858   2.484   3.329
 4529SOL    HW213920   3.019   2.492   3.302
 4530SOL     OW13921   3.089   3.432   2.655
 4530SOL    HW113922   3.110   3.506   2.590
 4530SOL    HW213923   3.157   3.432   2.728
 4531SOL     OW13924   2.321   3.014   2.603
 4531SOL    HW113925   2.250   2.987   2.668
 4531SOL    HW213926   2.295   2.986   2.510
 4532SOL     OW13927   3.133   3.659   2.453
 4532SOL    HW113928   3.177   3.723   2.389
 4532SOL    HW213929   3.083   3.711   2.523
 4533SOL     OW13930   2.894   2.411   1.878
 4533SOL    HW113931   2.853   2.493   1.839
 4533SOL    HW213932   2.958   2.437   1.951
 4534SOL     OW13933   1.940   2.418   3.248
 4534SOL    HW113934   2.032   2.417   3.207
 4534SOL    HW213935   1.934   2.492   3.315
 4535SOL     OW13936   2.423   2.084   3.009
 4535SOL    HW113937   2.461   2.000   3.046
 4535SOL    HW213938   2.335   2.103   3.053
 4536SOL     OW13939   2.728   2.316   2.504
 4536SOL    HW113940   2.696   2.388   2.442
 4536SOL    HW213941   2.752   2.235   2.451
 4537SOL     OW13942   2.879   1.901   2.615
 4537SOL    HW113943   2.807   1.906   2.546
 4537SOL    HW213944   2.855   1.832   2.684
 4538SOL     OW13945   3.291   3.035   2.729
 4538SOL    HW113946   3.236   2.951   2.722
 4538SOL    HW213947   3.317   3.064   2.637
 4539SOL     OW13948   3.328   2.452   2.854
 4539SOL    HW113949   3.298   2.357   2.861
 4539SOL    HW213950   3.401   2.468   2.920
 4540SOL     OW13951   3.719   2.695   2.239
 4540SOL    HW113952   3.761   2.631   2.303
 4540SOL    HW213953   3.681   2.644   2.161
 4541SOL     OW13954   2.350   3.247   2.036
 4541SOL    HW113955   2.263   3.232   2.083
 4541SOL    HW213956   2.333   3.273   1.941
 4542SOL     OW13957   3.526   3.142   2.519
 4542SOL    HW113958   3.625   3.150   2.533
 4542SOL    HW213959   3.481   3.226   2.550
 4543SOL     OW13960   3.252   2.437   1.940
 4543SOL    HW113961   3.198   2.416   2.021
 4543SOL    HW213962   3.343   2.396   1.949
 4544SOL     OW13963   3.616   3.085   3.450
 4544SOL    HW113964   3.707   3.046   3.437
 4544SOL    HW213965   3.624   3.181   3.474
 4545SOL     OW13966   2.926   3.209   3.202
 4545SOL    HW113967   2.846   3.186   3.257
 4545SOL    HW213968   3.009   3.183   3.251
 4546SOL     OW13969   3.454   3.491   3.487
 4546SOL    HW113970   3.481   3.525   3.397
 4546SOL    HW213971   3.533   3.453   3.533
 4547SOL     OW13972   2.973   3.057   2.962
 4547SOL    HW113973   2.933   3.101   3.043
 4547SOL    HW213974   2.932   3.094   2.879
 4548SOL     OW13975   3.500   2.961   2.941
 4548SOL    HW113976   3.505   3.042   3.000
 4548SOL    HW213977   3.414   2.963   2.890
 4549SOL     OW13978   2.777   1.951   3.264
 4549SOL    HW113979   2.802   1.931   3.169
 4549SOL    HW213980   2.849   2.007   3.306
 4550SOL     OW13981   2.842   2.978   3.581
 4550SOL    HW113982   2.743   2.984   3.591
 4550SOL    HW213983   2.865   2.898   3.525
 4551SOL     OW13984   2.567   2.912   2.230
 4551SOL    HW113985   2.553   2.919   2.329
 4551SOL    HW213986   2.651   2.861   2.212
 4552SOL     OW13987   2.272   2.675   3.113
 4552SOL    HW113988   2.358   2.687   3.163
 4552SOL    HW213989   2.230   2.588   3.140
 4553SOL     OW13990   3.136   2.248   3.124
 4553SOL    HW113991   3.157   2.322   3.188
 4553SOL    HW213992   3.047   2.265   3.081
 4554SOL     OW13993   1.926   3.426   3.193
 4554SOL    HW113994   1.880   3.508   3.159
 4554SOL    HW213995   2.024   3.445   3.202
 4555SOL     OW13996   2.229   2.962   2.363
 4555SOL    HW113997   2.222   3.045   2.307
 4555SOL    HW213998   2.233   2.882   2.303
 4556SOL     OW13999   2.428   2.399   2.727
 4556SOL    HW114000   2.440   2.465   2.653
 4556SOL    HW214001   2.474   2.433   2.810
 4557SOL     OW14002   3.114   3.210   2.250
 4557SOL    HW114003   3.164   3.287   2.290
 4557SOL    HW214004   3.019   3.212   2.282
 4558SOL     OW14005   3.134   3.307   3.004
 4558SOL    HW114006   3.181   3.320   3.091
 4558SOL    HW214007   3.068   3.233   3.013
 4559SOL     OW14008   3.444   2.501   2.334
 4559SOL    HW114009   3.413   2.562   2.407
 4559SOL    HW214010   3.494   2.553   2.265
 4560SOL     OW14011   2.216   3.372   3.191
 4560SOL    HW114012   2.195   3.328   3.104
 4560SOL    HW214013   2.313   3.398   3.194
 4561SOL     OW14014   2.264   2.613   3.460
 4561SOL    HW114015   2.332   2.668   3.413
 4561SOL    HW214016   2.304   2.525   3.487
 4562SOL     OW14017   3.449   2.641   3.532
 4562SOL    HW114018   3.357   2.679   3.527
 4562SOL    HW214019   3.509   2.688   3.467
 4563SOL     OW14020   2.875   1.967   3.632
 4563SOL    HW114021   2.881   2.052   3.580
 4563SOL    HW214022   2.907   1.891   3.575
 4564SOL     OW14023   2.366   1.912   3.602
 4564SOL    HW114024   2.324   1.855   3.532
 4564SOL    HW214025   2.300   1.981   3.634
 4565SOL     OW14026   2.435   2.732   2.891
 4565SOL    HW114027   2.479   2.821   2.882
 4565SOL    HW214028   2.372   2.732   2.968
 4566SOL     OW14029   3.222   2.724   2.907
 4566SOL    HW114030   3.147   2.724   2.841
 4566SOL    HW214031   3.259   2.632   2.916
 4567SOL     OW14032   3.071   2.387   2.137
 4567SOL    HW114033   3.084   2.303   2.191
 4567SOL    HW214034   3.042   2.461   2.197
 4568SOL     OW14035   1.899   3.172   3.144
 4568SOL    HW114036   1.952   3.123   3.212
 4568SOL    HW214037   1.921   3.270   3.149
 4569SOL     OW14038   2.594   2.496   2.926
 4569SOL    HW114039   2.653   2.470   2.850
 4569SOL    HW214040   2.566   2.592   2.915
 4570SOL     OW14041   3.590   2.797   3.716
 4570SOL    HW114042   3.544   2.790   3.627
 4570SOL    HW214043   3.528   2.841   3.782
 4571SOL     OW14044   3.484   2.229   2.236
 4571SOL    HW114045   3.486   2.153   2.300
 4571SOL    HW214046   3.436   2.306   2.276
 4572SOL     OW14047   2.885   2.628   2.828
 4572SOL    HW114048   2.900   2.649   2.924
 4572SOL    HW214049   2.855   2.533   2.819
 4573SOL     OW14050   2.842   3.435   3.562
 4573SOL    HW114051   2.822   3.479   3.474
 4573SOL    HW214052   2.881   3.344   3.546
 4574SOL     OW14053   3.721   3.380   3.467
 4574SOL    HW114054   3.735   3.407   3.372
 4574SOL    HW214055   3.804   3.402   3.520
 4575SOL     OW14056   2.212   2.760   3.666
 4575SOL    HW114057   2.288   2.804   3.714
 4575SOL    HW214058   2.247   2.713   3.584
 4576SOL     OW14059   3.402   2.136   1.987
 4576SOL    HW114060   3.341   2.061   2.010
 4576SOL    HW214061   3.424   2.188   2.070
 4577SOL     OW14062   3.165   2.700   1.904
 4577SOL    HW114063   3.199   2.607   1.919
 4577SOL    HW214064   3.183   2.727   1.809
 4578SOL     OW14065   2.930   3.195   2.711
 4578SOL    HW114066   2.937   3.111   2.656
 4578SOL    HW214067   2.992   3.264   2.675
 4579SOL     OW14068   2.181   2.672   2.811
 4579SOL    HW114069   2.274   2.708   2.816
 4579SOL    HW214070   2.175   2.587   2.863
 4580SOL     OW14071   3.000   2.242   3.540
 4580SOL    HW114072   2.955   2.305   3.604
 4580SOL    HW214073   3.093   2.273   3.523
 4581SOL     OW14074   3.022   2.069   3.339
 4581SOL    HW114075   3.022   2.133   3.416
 4581SOL    HW214076   3.050   2.117   3.256
 4582SOL     OW14077   1.870   3.188   2.062
 4582SOL    HW114078   1.777   3.209   2.031
 4582SOL    HW214079   1.880   3.089   2.075
 4583SOL     OW14080   1.950   3.663   2.789
 4583SOL    HW114081   1.908   3.577   2.762
 4583SOL    HW214082   2.044   3.666   2.755
 4584SOL     OW14083   2.366   3.430   2.772
 4584SOL    HW114084   2.432   3.504   2.781
 4584SOL    HW214085   2.410   3.351   2.730
 4585SOL     OW14086   2.864   2.658   3.100
 4585SOL    HW114087   2.905   2.626   3.186
 4585SOL    HW214088   2.768   2.631   3.097
 4586SOL     OW14089   1.902   2.406   2.976
 4586SOL    HW114090   1.987   2.373   2.935
 4586SOL    HW214091   1.915   2.421   3.074
 4587SOL     OW14092   3.231   2.812   3.522
 4587SOL    HW114093   3.270   2.901   3.542
 4587SOL    HW214094   3.241   2.792   3.425
 4588SOL     OW14095   2.677   2.434   2.187
 4588SOL    HW114096   2.684   2.345   2.141
 4588SOL    HW214097   2.583   2.468   2.179
 4589SOL     OW14098   3.519   2.466   3.068
 4589SOL    HW114099   3.481   2.397   3.130
 4589SOL    HW214100   3.601   2.430   3.024
 4590SOL     OW14101   2.114   3.426   3.606
 4590SOL    HW114102   2.084   3.483   3.682
 4590SOL    HW214103   2.107   3.329   3.632
 4591SOL     OW14104   2.792   3.540   3.327
 4591SOL    HW114105   2.768   3.522   3.232
 4591SOL    HW214106   2.822   3.634   3.337
 4592SOL     OW14107   2.021   2.999   3.328
 4592SOL    HW114108   2.043   2.938   3.404
 4592SOL    HW214109   2.031   2.950   3.242
 4593SOL     OW14110   3.209   2.921   3.096
 4593SOL    HW114111   3.233   2.858   3.022
 4593SOL    HW214112   3.119   2.961   3.078
 4594SOL     OW14113   3.164   2.717   2.171
 4594SOL    HW114114   3.078   2.686   2.213
 4594SOL    HW214115   3.160   2.703   2.072
 4595SOL     OW14116   3.621   3.609   3.016
 4595SOL    HW114117   3.682   3.639   2.943
 4595SOL    HW214118   3.583   3.520   2.994
 4596SOL     OW14119   3.114   3.593   2.990
 4596SOL    HW114120   3.198   3.598   2.936
 4596SOL    HW214121   3.091   3.497   3.008
 4597SOL     OW14122   1.945   3.120   2.884
 4597SOL    HW114123   1.940   3.119   2.984
 4597SOL    HW214124   1.862   3.079   2.846
 4598SOL     OW14125   2.550   3.524   3.578
 4598SOL    HW114126   2.494   3.605   3.587
 4598SOL    HW214127   2.602   3.528   3.492
 4599SOL     OW14128   3.588   1.997   2.385
 4599SOL    HW114129   3.661   1.980   2.318
 4599SOL    HW214130   3.557   1.910   2.423
 4600SOL     OW14131   3.250   3.435   2.339
 4600SOL    HW114132   3.317   3.447   2.265
 4600SOL    HW214133   3.210   3.524   2.362
 4601SOL     OW14134   1.992   3.656   3.713
 4601SOL    HW114135   1.951   3.582   3.766
 4601SOL    HW214136   2.056   3.707   3.771
 4602SOL     OW14137   3.142   2.789   2.534
 4602SOL    HW114138   3.202   2.708   2.536
 4602SOL    HW214139   3.182   2.858   2.474
 4603SOL     OW14140   2.692   3.135   3.284
 4603SOL    HW114141   2.687   3.168   3.379
 4603SOL    HW214142   2.606   3.154   3.238
 4604SOL     OW14143   2.534   3.478   2.016
 4604SOL    HW114144   2.543   3.488   1.917
 4604SOL    HW214145   2.494   3.389   2.037
 4605SOL     OW14146   3.512   3.582   3.256
 4605SOL    HW114147   3.565   3.592   3.172
 4605SOL    HW214148   3.485   3.672   3.290
 4606SOL     OW14149   3.703   2.037   2.825
 4606SOL    HW114150   3.742   1.952   2.789
 4606SOL    HW214151   3.605   2.039   2.806
 4607SOL     OW14152   3.056   3.474   1.893
 4607SOL    HW114153   3.062   3.381   1.930
 4607SOL    HW214154   2.997   3.474   1.813
 4608SOL     OW14155   2.684   2.864   3.234
 4608SOL    HW114156   2.724   2.863   3.142
 4608SOL    HW214157   2.694   2.956   3.274
 4609SOL     OW14158   2.778   2.772   2.153
 4609SOL    HW114159   2.841   2.810   2.085
 4609SOL    HW214160   2.818   2.689   2.192
 4610SOL     OW14161   3.366   3.469   1.906
 4610SOL    HW114162   3.274   3.506   1.913
 4610SOL    HW214163   3.404   3.489   1.816
 4611SOL     OW14164   2.234   3.150   3.352
 4611SOL    HW114165   2.221   3.243   3.318
 4611SOL    HW214166   2.150   3.098   3.339
 4612SOL     OW14167   3.476   3.154   3.151
 4612SOL    HW114168   3.536   3.157   3.231
 4612SOL    HW214169   3.401   3.218   3.164
 4613SOL     OW14170   2.901   2.960   2.558
 4613SOL    HW114171   2.831   2.913   2.612
 4613SOL    HW214172   2.960   2.892   2.515
 4614SOL     OW14173   2.876   2.098   2.833
 4614SOL    HW114174   2.868   2.062   2.740
 4614SOL    HW214175   2.874   2.022   2.898
 4615SOL     OW14176   2.452   3.349   2.353
 4615SOL    HW114177   2.494   3.291   2.283
 4615SOL    HW214178   2.408   3.428   2.309
 4616SOL     OW14179   3.571   2.247   3.243
 4616SOL    HW114180   3.644   2.316   3.247
 4616SOL    HW214181   3.599   2.172   3.184
 4617SOL     OW14182   2.117   3.210   2.152
 4617SOL    HW114183   2.021   3.211   2.125
 4617SOL    HW214184   2.129   3.263   2.236
 4618SOL     OW14185   1.967   2.875   3.588
 4618SOL    HW114186   1.890   2.842   3.642
 4618SOL    HW214187   2.052   2.845   3.630
 4619SOL     OW14188   2.534   2.065   3.351
 4619SOL    HW114189   2.624   2.049   3.311
 4619SOL    HW214190   2.542   2.070   3.450
 4620SOL     OW14191   1.937   2.207   1.895
 4620SOL    HW114192   1.845   2.179   1.866
 4620SOL    HW214193   1.968   2.284   1.839
 4621SOL     OW14194   3.302   2.718   3.260
 4621SOL    HW114195   3.245   2.770   3.197
 4621SOL    HW214196   3.398   2.730   3.236
 4622SOL     OW14197   1.934   2.028   2.180
 4622SOL    HW114198   1.917   2.111   2.126
 4622SOL    HW214199   2.024   1.991   2.158
 4623SOL     OW14200   3.045   3.197   1.981
 4623SOL    HW114201   2.946   3.186   1.983
 4623SOL    HW214202   3.079   3.212   2.074
 4624SOL     OW14203   2.475   2.704   3.293
 4624SOL    HW114204   2.531   2.785   3.276
 4624SOL    HW214205   2.534   2.624   3.296
 4625SOL     OW14206   3.355   3.629   2.821
 4625SOL    HW114207   3.388   3.693   2.752
 4625SOL    HW214208   3.421   3.623   2.896
 4626SOL     OW14209   2.578   2.427   3.570
 4626SOL    HW114210   2.597   2.492   3.644
 4626SOL    HW214211   2.638   2.347   3.579
 4627SOL     OW14212   3.312   3.082   3.495
 4627SOL    HW114213   3.303   3.072   3.594
 4627SOL    HW214214   3.408   3.075   3.469
 4628SOL     OW14215   2.252   3.603   3.422
 4628SOL    HW114216   2.161   3.644   3.420
 4628SOL    HW214217   2.245   3.509   3.454
 4629SOL     OW14218   3.536   2.745   3.116
 4629SOL    HW114219   3.509   2.656   3.079
 4629SOL    HW214220   3.537   2.813   3.043
 4630SOL     OW14221   3.087   2.187   2.311
 4630SOL    HW114222   3.152   2.113   2.300
 4630SOL    HW214223   3.107   2.237   2.395
 4631SOL     OW14224   2.456   2.607   2.514
 4631SOL    HW114225   2.506   2.692   2.495
 4631SOL    HW214226   2.368   2.609   2.466
 4632SOL     OW14227   3.639   2.204   3.504
 4632SOL    HW114228   3.622   2.235   3.410
 4632SOL    HW214229   3.555   2.167   3.542
 4633SOL     OW14230   3.592   2.796   3.379
 4633SOL    HW114231   3.630   2.887   3.394
 4633SOL    HW214232   3.584   2.779   3.280
 4634SOL     OW14233   2.721   3.236   1.878
 4634SOL    HW114234   2.675   3.251   1.966
 4634SOL    HW214235   2.765   3.321   1.848
 4635SOL     OW14236   2.523   3.652   2.815
 4635SOL    HW114237   2.477   3.740   2.802
 4635SOL    HW214238   2.622   3.664   2.808
 4636SOL     OW14239   2.721   2.818   2.723
 4636SOL    HW114240   2.775   2.749   2.771
 4636SOL    HW214241   2.689   2.887   2.789
 4637SOL     OW14242   2.945   2.846   1.949
 4637SOL    HW114243   2.922   2.899   1.867
 4637SOL    HW214244   3.026   2.790   1.930
 4638SOL     OW14245   3.723   3.431   2.713
 4638SOL    HW114246   3.652   3.419   2.643
 4638SOL    HW214247   3.724   3.352   2.773
 4639SOL     OW14248   2.083   3.176   3.706
 4639SOL    HW114249   2.018   3.103   3.685
 4639SOL    HW214250   2.087   3.190   3.804
 4640SOL     OW14251   1.941   3.102   2.515
 4640SOL    HW114252   1.940   3.055   2.603
 4640SOL    HW214253   2.023   3.074   2.464
 4641SOL     OW14254   2.534   3.253   3.486
 4641SOL    HW114255   2.456   3.203   3.524
 4641SOL    HW214256   2.531   3.348   3.517
 4642SOL     OW14257   3.686   2.054   3.089
 4642SOL    HW114258   3.682   1.964   3.133
 4642SOL    HW214259   3.689   2.043   2.990
 4643SOL     OW14260   3.567   3.349   2.966
 4643SOL    HW114261   3.474   3.324   2.939
 4643SOL    HW214262   3.593   3.299   3.048
 4644SOL     OW14263   2.674   3.448   2.549
 4644SOL    HW114264   2.706   3.458   2.455
 4644SOL    HW214265   2.595   3.386   2.551
 4645SOL     OW14266   3.286   2.076   2.974
 4645SOL    HW114267   3.338   2.011   3.029
 4645SOL    HW214268   3.237   2.139   3.035
 4646SOL     OW14269   2.863   1.896   3.016
 4646SOL    HW114270   2.800   1.824   2.985
 4646SOL    HW214271   2.956   1.860   3.016
 4647SOL     OW14272   2.632   3.192   2.163
 4647SOL    HW114273   2.586   3.105   2.180
 4647SOL    HW214274   2.723   3.189   2.204
 4648SOL     OW14275   2.480   3.429   3.146
 4648SOL    HW114276   2.475   3.511   3.203
 4648SOL    HW214277   2.569   3.426   3.101
 4649SOL     OW14278   3.214   1.914   2.030
 4649SOL    HW114279   3.249   1.873   1.946
 4649SOL    HW214280   3.124   1.876   2.050
 4650SOL     OW14281   3.162   2.315   2.553
 4650SOL    HW114282   3.103   2.395   2.557
 4650SOL    HW214283   3.177   2.280   2.646
 4651SOL     OW14284   3.455   2.083   2.744
 4651SOL    HW114285   3.371   2.082   2.798
 4651SOL    HW214286   3.457   2.166   2.688
 4652SOL     OW14287   1.901   2.939   2.162
 4652SOL    HW114288   2.000   2.928   2.153
 4652SOL    HW214289   1.861   2.853   2.194
 4653SOL     OW14290   2.737   3.508   2.199
 4653SOL    HW114291   2.660   3.473   2.145
 4653SOL    HW214292   2.705   3.579   2.261
 4654SOL     OW14293   2.092   2.490   3.837
 4654SOL    HW114294   1.999   2.488   3.874
 4654SOL    HW214295   2.093   2.451   3.745
 4655SOL     OW14296   1.881   2.230   4.371
 4655SOL    HW114297   1.799   2.273   4.410
 4655SOL    HW214298   1.853   2.157   4.308
 4656SOL     OW14299   2.431   3.137   4.889
 4656SOL    HW114300   2.338   3.130   4.852
 4656SOL    HW214301   2.442   3.226   4.933
 4657SOL     OW14302   3.417   3.373   4.427
 4657SOL    HW114303   3.360   3.357   4.508
 4657SOL    HW214304   3.358   3.383   4.347
 4658SOL     OW14305   2.997   2.565   4.441
 4658SOL    HW114306   3.054   2.643   4.416
 4658SOL    HW214307   2.937   2.591   4.517
 4659SOL     OW14308   3.617   2.469   3.955
 4659SOL    HW114309   3.605   2.456   3.856
 4659SOL    HW214310   3.587   2.388   4.004
 4660SOL     OW14311   2.630   3.006   4.747
 4660SOL    HW114312   2.552   3.023   4.807
 4660SOL    HW214313   2.664   3.093   4.711
 4661SOL     OW14314   2.547   2.874   4.389
 4661SOL    HW114315   2.616   2.858   4.459
 4661SOL    HW214316   2.474   2.931   4.427
 4662SOL     OW14317   2.548   3.023   5.527
 4662SOL    HW114318   2.608   3.102   5.541
 4662SOL    HW214319   2.462   3.054   5.486
 4663SOL     OW14320   2.197   3.297   4.785
 4663SOL    HW114321   2.119   3.266   4.732
 4663SOL    HW214322   2.255   3.355   4.728
 4664SOL     OW14323   3.322   3.367   5.063
 4664SOL    HW114324   3.346   3.461   5.089
 4664SOL    HW214325   3.306   3.313   5.145
 4665SOL     OW14326   3.465   2.309   4.461
 4665SOL    HW114327   3.391   2.355   4.411
 4665SOL    HW214328   3.516   2.377   4.514
 4666SOL     OW14329   2.093   3.575   4.207
 4666SOL    HW114330   2.127   3.652   4.261
 4666SOL    HW214331   2.137   3.575   4.117
 4667SOL     OW14332   2.989   3.203   5.414
 4667SOL    HW114333   3.036   3.203   5.502
 4667SOL    HW214334   2.941   3.116   5.403
 4668SOL     OW14335   2.092   3.296   4.262
 4668SOL    HW114336   2.066   3.392   4.262
 4668SOL    HW214337   2.021   3.242   4.307
 4669SOL     OW14338   2.102   2.953   4.610
 4669SOL    HW114339   2.116   2.869   4.662
 4669SOL    HW214340   2.047   3.017   4.665
 4670SOL     OW14341   2.482   3.648   5.163
 4670SOL    HW114342   2.390   3.631   5.198
 4670SOL    HW214343   2.510   3.740   5.189
 4671SOL     OW14344   2.468   2.826   3.847
 4671SOL    HW114345   2.475   2.910   3.793
 4671SOL    HW214346   2.514   2.839   3.935
 4672SOL     OW14347   3.456   1.976   5.204
 4672SOL    HW114348   3.438   2.043   5.132
 4672SOL    HW214349   3.453   2.022   5.293
 4673SOL     OW14350   1.984   2.505   4.287
 4673SOL    HW114351   1.939   2.417   4.304
 4673SOL    HW214352   1.983   2.559   4.371
 4674SOL     OW14353   3.704   3.629   4.083
 4674SOL    HW114354   3.758   3.600   4.163
 4674SOL    HW214355   3.734   3.719   4.054
 4675SOL     OW14356   1.889   3.458   3.841
 4675SOL    HW114357   1.870   3.362   3.862
 4675SOL    HW214358   1.856   3.516   3.916
 4676SOL     OW14359   3.551   2.784   4.336
 4676SOL    HW114360   3.646   2.755   4.344
 4676SOL    HW214361   3.543   2.849   4.261
 4677SOL     OW14362   3.503   2.970   4.156
 4677SOL    HW114363   3.589   2.972   4.104
 4677SOL    HW214364   3.517   3.017   4.244
 4678SOL     OW14365   2.475   3.227   4.450
 4678SOL    HW114366   2.426   3.140   4.459
 4678SOL    HW214367   2.452   3.270   4.363
 4679SOL     OW14368   3.155   3.090   5.147
 4679SOL    HW114369   3.192   3.017   5.089
 4679SOL    HW214370   3.207   3.095   5.232
 4680SOL     OW14371   2.671   1.866   4.226
 4680SOL    HW114372   2.711   1.957   4.217
 4680SOL    HW214373   2.571   1.874   4.232
 4681SOL     OW14374   2.059   2.838   4.988
 4681SOL    HW114375   2.148   2.793   4.974
 4681SOL    HW214376   1.986   2.773   4.969
 4682SOL     OW14377   3.387   2.861   3.914
 4682SOL    HW114378   3.324   2.785   3.927
 4682SOL    HW214379   3.435   2.879   4.000
 4683SOL     OW14380   3.049   3.654   5.340
 4683SOL    HW114381   3.073   3.714   5.264
 4683SOL    HW214382   3.056   3.559   5.310
 4684SOL     OW14383   3.328   3.279   4.677
 4684SOL    HW114384   3.269   3.285   4.757
 4684SOL    HW214385   3.313   3.191   4.631
 4685SOL     OW14386   3.529   3.576   4.296
 4685SOL    HW114387   3.488   3.553   4.208
 4685SOL    HW214388   3.511   3.502   4.361
 4686SOL     OW14389   2.460   2.591   3.994
 4686SOL    HW114390   2.484   2.660   3.926
 4686SOL    HW214391   2.382   2.624   4.048
 4687SOL     OW14392   3.143   2.207   4.668
 4687SOL    HW114393   3.057   2.157   4.655
 4687SOL    HW214394   3.205   2.153   4.724
 4688SOL     OW14395   3.438   3.524   4.031
 4688SOL    HW114396   3.527   3.570   4.034
 4688SOL    HW214397   3.417   3.500   3.936
 4689SOL     OW14398   3.256   2.331   5.398
 4689SOL    HW114399   3.236   2.374   5.486
 4689SOL    HW214400   3.334   2.269   5.407
 4690SOL     OW14401   2.853   2.272   4.966
 4690SOL    HW114402   2.776   2.306   5.020
 4690SOL    HW214403   2.819   2.221   4.887
 4691SOL     OW14404   2.903   2.563   4.153
 4691SOL    HW114405   2.929   2.559   4.249
 4691SOL    HW214406   2.818   2.512   4.139
 4692SOL     OW14407   1.938   2.673   4.513
 4692SOL    HW114408   2.037   2.661   4.522
 4692SOL    HW214409   1.914   2.768   4.534
 4693SOL     OW14410   1.992   3.683   5.295
 4693SOL    HW114411   1.982   3.668   5.394
 4693SOL    HW214412   1.906   3.719   5.259
 4694SOL     OW14413   2.727   2.210   3.919
 4694SOL    HW114414   2.786   2.273   3.870
 4694SOL    HW214415   2.746   2.116   3.890
 4695SOL     OW14416   3.581   2.447   5.555
 4695SOL    HW114417   3.555   2.536   5.519
 4695SOL    HW214418   3.579   2.379   5.482
 4696SOL     OW14419   3.224   3.006   4.269
 4696SOL    HW114420   3.307   2.977   4.221
 4696SOL    HW214421   3.175   3.073   4.213
 4697SOL     OW14422   2.870   3.318   4.201
 4697SOL    HW114423   2.824   3.390   4.149
 4697SOL    HW214424   2.866   3.338   4.299
 4698SOL     OW14425   2.213   3.663   4.577
 4698SOL    HW114426   2.263   3.577   4.583
 4698SOL    HW214427   2.278   3.740   4.574
 4699SOL     OW14428   3.657   2.928   4.597
 4699SOL    HW114429   3.595   2.913   4.521
 4699SOL    HW214430   3.605   2.939   4.682
 4700SOL     OW14431   3.089   3.412   5.230
 4700SOL    HW114432   3.095   3.335   5.294
 4700SOL    HW214433   3.037   3.386   5.150
 4701SOL     OW14434   2.183   2.805   3.966
 4701SOL    HW114435   2.265   2.844   3.924
 4701SOL    HW214436   2.156   2.723   3.917
 4702SOL     OW14437   3.320   2.597   4.452
 4702SOL    HW114438   3.315   2.532   4.527
 4702SOL    HW214439   3.400   2.656   4.465
 4703SOL     OW14440   2.323   3.128   5.451
 4703SOL    HW114441   2.273   3.129   5.365
 4703SOL    HW214442   2.260   3.110   5.527
 4704SOL     OW14443   2.973   3.638   3.961
 4704SOL    HW114444   2.913   3.576   4.011
 4704SOL    HW214445   3.004   3.594   3.876
 4705SOL     OW14446   3.494   3.239   3.805
 4705SOL    HW114447   3.462   3.333   3.795
 4705SOL    HW214448   3.418   3.176   3.793
 4706SOL     OW14449   2.326   3.605   4.047
 4706SOL    HW114450   2.359   3.644   4.133
 4706SOL    HW214451   2.402   3.598   3.982
 4707SOL     OW14452   3.262   1.969   4.150
 4707SOL    HW114453   3.238   1.932   4.060
 4707SOL    HW214454   3.361   1.985   4.154
 4708SOL     OW14455   2.111   3.647   4.965
 4708SOL    HW114456   2.168   3.582   5.015
 4708SOL    HW214457   2.095   3.614   4.872
 4709SOL     OW14458   2.802   3.560   4.628
 4709SOL    HW114459   2.882   3.503   4.649
 4709SOL    HW214460   2.753   3.520   4.551
 4710SOL     OW14461   3.409   2.084   5.453
 4710SOL    HW114462   3.404   2.121   5.545
 4710SOL    HW214463   3.337   2.015   5.441
 4711SOL     OW14464   2.476   1.984   3.841
 4711SOL    HW114465   2.574   1.962   3.848
 4711SOL    HW214466   2.445   1.967   3.748
 4712SOL     OW14467   2.750   3.376   4.919
 4712SOL    HW114468   2.727   3.351   4.825
 4712SOL    HW214469   2.811   3.307   4.958
 4713SOL     OW14470   3.213   2.452   5.157
 4713SOL    HW114471   3.241   2.409   5.242
 4713SOL    HW214472   3.238   2.548   5.158
 4714SOL     OW14473   2.665   3.264   4.648
 4714SOL    HW114474   2.755   3.278   4.606
 4714SOL    HW214475   2.594   3.266   4.577
 4715SOL     OW14476   2.784   2.365   4.623
 4715SOL    HW114477   2.759   2.356   4.527
 4715SOL    HW214478   2.832   2.283   4.654
 4716SOL     OW14479   2.401   1.926   4.236
 4716SOL    HW114480   2.320   1.927   4.294
 4716SOL    HW214481   2.404   2.009   4.181
 4717SOL     OW14482   3.296   3.050   3.765
 4717SOL    HW114483   3.328   2.974   3.822
 4717SOL    HW214484   3.204   3.077   3.795
 4718SOL     OW14485   2.159   1.897   3.895
 4718SOL    HW114486   2.208   1.981   3.874
 4718SOL    HW214487   2.221   1.832   3.940
 4719SOL     OW14488   2.797   2.098   4.204
 4719SOL    HW114489   2.749   2.139   4.126
 4719SOL    HW214490   2.896   2.096   4.185
 4720SOL     OW14491   3.089   3.432   4.517
 4720SOL    HW114492   3.110   3.506   4.452
 4720SOL    HW214493   3.157   3.432   4.590
 4721SOL     OW14494   2.321   3.014   4.465
 4721SOL    HW114495   2.250   2.987   4.530
 4721SOL    HW214496   2.295   2.986   4.372
 4722SOL     OW14497   3.133   3.659   4.315
 4722SOL    HW114498   3.177   3.723   4.251
 4722SOL    HW214499   3.083   3.711   4.385
 4723SOL     OW14500   2.894   2.411   3.740
 4723SOL    HW114501   2.853   2.493   3.701
 4723SOL    HW214502   2.958   2.437   3.813
 4724SOL     OW14503   2.728   2.316   4.366
 4724SOL    HW114504   2.696   2.388   4.304
 4724SOL    HW214505   2.752   2.235   4.313
 4725SOL     OW14506   2.879   1.901   4.477
 4725SOL    HW114507   2.807   1.906   4.408
 4725SOL    HW214508   2.855   1.832   4.546
 4726SOL     OW14509   3.291   3.035   4.591
 4726SOL    HW114510   3.236   2.951   4.584
 4726SOL    HW214511   3.317   3.064   4.499
 4727SOL     OW14512   3.328   2.452   4.716
 4727SOL    HW114513   3.298   2.357   4.723
 4727SOL    HW214514   3.401   2.468   4.782
 4728SOL     OW14515   3.719   2.695   4.101
 4728SOL    HW114516   3.761   2.631   4.165
 4728SOL    HW214517   3.681   2.644   4.023
 4729SOL     OW14518   2.350   3.247   3.898
 4729SOL    HW114519   2.263   3.232   3.945
 4729SOL    HW214520   2.333   3.273   3.803
 4730SOL     OW14521   3.526   3.142   4.381
 4730SOL    HW114522   3.625   3.150   4.395
 4730SOL    HW214523   3.481   3.226   4.412
 4731SOL     OW14524   3.252   2.437   3.802
 4731SOL    HW114525   3.198   2.416   3.883
 4731SOL    HW214526   3.343   2.396   3.811
 4732SOL     OW14527   3.616   3.085   5.312
 4732SOL    HW114528   3.707   3.046   5.299
 4732SOL    HW214529   3.624   3.181   5.336
 4733SOL     OW14530   2.926   3.209   5.064
 4733SOL    HW114531   2.846   3.186   5.119
 4733SOL    HW214532   3.009   3.183   5.113
 4734SOL     OW14533   3.454   3.491   5.349
 4734SOL    HW114534   3.481   3.525   5.259
 4734SOL    HW214535   3.533   3.453   5.395
 4735SOL     OW14536   2.973   3.057   4.824
 4735SOL    HW114537   2.933   3.101   4.905
 4735SOL    HW214538   2.932   3.094   4.741
 4736SOL     OW14539   3.500   2.961   4.803
 4736SOL    HW114540   3.505   3.042   4.862
 4736SOL    HW214541   3.414   2.963   4.752
 4737SOL     OW14542   2.842   2.978   5.443
 4737SOL    HW114543   2.743   2.984   5.453
 4737SOL    HW214544   2.865   2.898   5.387
 4738SOL     OW14545   2.567   2.912   4.092
 4738SOL    HW114546   2.553   2.919   4.191
 4738SOL    HW214547   2.651   2.861   4.074
 4739SOL     OW14548   2.272   2.675   4.975
 4739SOL    HW114549   2.358   2.687   5.025
 4739SOL    HW214550   2.230   2.588   5.002
 4740SOL     OW14551   3.136   2.248   4.986
 4740SOL    HW114552   3.157   2.322   5.050
 4740SOL    HW214553   3.047   2.265   4.943
 4741SOL     OW14554   1.926   3.426   5.055
 4741SOL    HW114555   1.880   3.508   5.021
 4741SOL    HW214556   2.024   3.445   5.064
 4742SOL     OW14557   2.229   2.962   4.225
 4742SOL    HW114558   2.222   3.045   4.169
 4742SOL    HW214559   2.233   2.882   4.165
 4743SOL     OW14560   2.428   2.399   4.589
 4743SOL    HW114561   2.440   2.465   4.515
 4743SOL    HW214562   2.474   2.433   4.672
 4744SOL     OW14563   3.114   3.210   4.112
 4744SOL    HW114564   3.164   3.287   4.152
 4744SOL    HW214565   3.019   3.212   4.144
 4745SOL     OW14566   3.134   3.307   4.866
 4745SOL    HW114567   3.181   3.320   4.953
 4745SOL    HW214568   3.068   3.233   4.875
 4746SOL     OW14569   3.444   2.501   4.196
 4746SOL    HW114570   3.413   2.562   4.269
 4746SOL    HW214571   3.494   2.553   4.127
 4747SOL     OW14572   2.216   3.372   5.053
 4747SOL    HW114573   2.195   3.328   4.966
 4747SOL    HW214574   2.313   3.398   5.056
 4748SOL     OW14575   3.449   2.641   5.394
 4748SOL    HW114576   3.357   2.679   5.389
 4748SOL    HW214577   3.509   2.688   5.329
 4749SOL     OW14578   2.435   2.732   4.753
 4749SOL    HW114579   2.479   2.821   4.744
 4749SOL    HW214580   2.372   2.732   4.830
 4750SOL     OW14581   3.222   2.724   4.769
 4750SOL    HW114582   3.147   2.724   4.703
 4750SOL    HW214583   3.259   2.632   4.778
 4751SOL     OW14584   3.071   2.387   3.999
 4751SOL    HW114585   3.084   2.303   4.053
 4751SOL    HW214586   3.042   2.461   4.059
 4752SOL     OW14587   1.899   3.172   5.006
 4752SOL    HW114588   1.952   3.123   5.074
 4752SOL    HW214589   1.921   3.270   5.011
 4753SOL     OW14590   2.594   2.496   4.788
 4753SOL    HW114591   2.653   2.470   4.712
 4753SOL    HW214592   2.566   2.592   4.777
 4754SOL     OW14593   3.590   2.797   5.578
 4754SOL    HW114594   3.544   2.790   5.489
 4754SOL    HW214595   3.528   2.841   5.644
 4755SOL     OW14596   2.169   1.925   4.342
 4755SOL    HW114597   2.158   2.019   4.375
 4755SOL    HW214598   2.164   1.862   4.419
 4756SOL     OW14599   3.484   2.229   4.098
 4756SOL    HW114600   3.486   2.153   4.162
 4756SOL    HW214601   3.436   2.306   4.138
 4757SOL     OW14602   2.885   2.628   4.690
 4757SOL    HW114603   2.900   2.649   4.786
 4757SOL    HW214604   2.855   2.533   4.681
 4758SOL     OW14605   2.842   3.435   5.424
 4758SOL    HW114606   2.822   3.479   5.336
 4758SOL    HW214607   2.881   3.344   5.408
 4759SOL     OW14608   3.721   3.380   5.329
 4759SOL    HW114609   3.735   3.407   5.234
 4759SOL    HW214610   3.804   3.402   5.382
 4760SOL     OW14611   3.402   2.136   3.849
 4760SOL    HW114612   3.341   2.061   3.872
 4760SOL    HW214613   3.424   2.188   3.932
 4761SOL     OW14614   3.165   2.700   3.766
 4761SOL    HW114615   3.199   2.607   3.781
 4761SOL    HW214616   3.183   2.727   3.671
 4762SOL     OW14617   2.930   3.195   4.573
 4762SOL    HW114618   2.937   3.111   4.518
 4762SOL    HW214619   2.992   3.264   4.537
 4763SOL     OW14620   2.181   2.672   4.673
 4763SOL    HW114621   2.274   2.708   4.678
 4763SOL    HW214622   2.175   2.587   4.725
 4764SOL     OW14623   3.022   2.069   5.201
 4764SOL    HW114624   3.022   2.133   5.278
 4764SOL    HW214625   3.050   2.117   5.118
 4765SOL     OW14626   1.870   3.188   3.924
 4765SOL    HW114627   1.777   3.209   3.893
 4765SOL    HW214628   1.880   3.089   3.937
 4766SOL     OW14629   1.950   3.663   4.651
 4766SOL    HW114630   1.908   3.577   4.624
 4766SOL    HW214631   2.044   3.666   4.617
 4767SOL     OW14632   2.366   3.430   4.634
 4767SOL    HW114633   2.432   3.504   4.643
 4767SOL    HW214634   2.410   3.351   4.592
 4768SOL     OW14635   2.864   2.658   4.962
 4768SOL    HW114636   2.905   2.626   5.048
 4768SOL    HW214637   2.768   2.631   4.959
 4769SOL     OW14638   1.902   2.406   4.838
 4769SOL    HW114639   1.987   2.373   4.797
 4769SOL    HW214640   1.915   2.421   4.936
 4770SOL     OW14641   3.231   2.812   5.384
 4770SOL    HW114642   3.270   2.901   5.404
 4770SOL    HW214643   3.241   2.792   5.287
 4771SOL     OW14644   2.677   2.434   4.049
 4771SOL    HW114645   2.684   2.345   4.003
 4771SOL    HW214646   2.583   2.468   4.041
 4772SOL     OW14647   3.519   2.466   4.930
 4772SOL    HW114648   3.481   2.397   4.992
 4772SOL    HW214649   3.601   2.430   4.886
 4773SOL     OW14650   2.114   3.426   5.468
 4773SOL    HW114651   2.084   3.483   5.544
 4773SOL    HW214652   2.107   3.329   5.494
 4774SOL     OW14653   2.792   3.540   5.189
 4774SOL    HW114654   2.768   3.522   5.094
 4774SOL    HW214655   2.822   3.634   5.199
 4775SOL     OW14656   2.021   2.999   5.190
 4775SOL    HW114657   2.043   2.938   5.266
 4775SOL    HW214658   2.031   2.950   5.104
 4776SOL     OW14659   3.209   2.921   4.958
 4776SOL    HW114660   3.233   2.858   4.884
 4776SOL    HW214661   3.119   2.961   4.940
 4777SOL     OW14662   3.164   2.717   4.033
 4777SOL    HW114663   3.078   2.686   4.075
 4777SOL    HW214664   3.160   2.703   3.934
 4778SOL     OW14665   3.621   3.609   4.878
 4778SOL    HW114666   3.682   3.639   4.805
 4778SOL    HW214667   3.583   3.520   4.856
 4779SOL     OW14668   3.114   3.593   4.852
 4779SOL    HW114669   3.198   3.598   4.798
 4779SOL    HW214670   3.091   3.497   4.870
 4780SOL     OW14671   1.945   3.120   4.746
 4780SOL    HW114672   1.940   3.119   4.846
 4780SOL    HW214673   1.862   3.079   4.708
 4781SOL     OW14674   2.550   3.524   5.440
 4781SOL    HW114675   2.494   3.605   5.449
 4781SOL    HW214676   2.602   3.528   5.354
 4782SOL     OW14677   3.588   1.997   4.247
 4782SOL    HW114678   3.661   1.980   4.180
 4782SOL    HW214679   3.557   1.910   4.285
 4783SOL     OW14680   3.250   3.435   4.201
 4783SOL    HW114681   3.317   3.447   4.127
 4783SOL    HW214682   3.210   3.524   4.224
 4784SOL     OW14683   1.992   3.656   5.575
 4784SOL    HW114684   1.951   3.582   5.628
 4784SOL    HW214685   2.056   3.707   5.633
 4785SOL     OW14686   3.142   2.789   4.396
 4785SOL    HW114687   3.202   2.708   4.398
 4785SOL    HW214688   3.182   2.858   4.336
 4786SOL     OW14689   2.692   3.135   5.146
 4786SOL    HW114690   2.687   3.168   5.241
 4786SOL    HW214691   2.606   3.154   5.100
 4787SOL     OW14692   2.534   3.478   3.878
 4787SOL    HW114693   2.543   3.488   3.779
 4787SOL    HW214694   2.494   3.389   3.899
 4788SOL     OW14695   3.512   3.582   5.118
 4788SOL    HW114696   3.565   3.592   5.034
 4788SOL    HW214697   3.485   3.672   5.152
 4789SOL     OW14698   3.703   2.037   4.687
 4789SOL    HW114699   3.742   1.952   4.651
 4789SOL    HW214700   3.605   2.039   4.668
 4790SOL     OW14701   3.056   3.474   3.755
 4790SOL    HW114702   3.062   3.381   3.792
 4790SOL    HW214703   2.997   3.474   3.675
 4791SOL     OW14704   2.684   2.864   5.096
 4791SOL    HW114705   2.724   2.863   5.004
 4791SOL    HW214706   2.694   2.956   5.136
 4792SOL     OW14707   2.778   2.772   4.015
 4792SOL    HW114708   2.841   2.810   3.947
 4792SOL    HW214709   2.818   2.689   4.054
 4793SOL     OW14710   3.366   3.469   3.768
 4793SOL    HW114711   3.274   3.506   3.775
 4793SOL    HW214712   3.404   3.489   3.678
 4794SOL     OW14713   2.234   3.150   5.214
 4794SOL    HW114714   2.221   3.243   5.180
 4794SOL    HW214715   2.150   3.098   5.201
 4795SOL     OW14716   3.476   3.154   5.013
 4795SOL    HW114717   3.536   3.157   5.093
 4795SOL    HW214718   3.401   3.218   5.026
 4796SOL     OW14719   2.901   2.960   4.420
 4796SOL    HW114720   2.831   2.913   4.474
 4796SOL    HW214721   2.960   2.892   4.377
 4797SOL     OW14722   2.876   2.098   4.695
 4797SOL    HW114723   2.868   2.062   4.602
 4797SOL    HW214724   2.874   2.022   4.760
 4798SOL     OW14725   2.452   3.349   4.215
 4798SOL    HW114726   2.494   3.291   4.145
 4798SOL    HW214727   2.408   3.428   4.171
 4799SOL     OW14728   3.571   2.247   5.105
 4799SOL    HW114729   3.644   2.316   5.109
 4799SOL    HW214730   3.599   2.172   5.046
 4800SOL     OW14731   2.117   3.210   4.014
 4800SOL    HW114732   2.021   3.211   3.987
 4800SOL    HW214733   2.129   3.263   4.098
 4801SOL     OW14734   1.937   2.207   3.757
 4801SOL    HW114735   1.845   2.179   3.728
 4801SOL    HW214736   1.968   2.284   3.701
 4802SOL     OW14737   3.302   2.718   5.122
 4802SOL    HW114738   3.245   2.770   5.059
 4802SOL    HW214739   3.398   2.730   5.098
 4803SOL     OW14740   1.934   2.028   4.042
 4803SOL    HW114741   1.917   2.111   3.988
 4803SOL    HW214742   2.024   1.991   4.020
 4804SOL     OW14743   3.045   3.197   3.843
 4804SOL    HW114744   2.946   3.186   3.845
 4804SOL    HW214745   3.079   3.212   3.936
 4805SOL     OW14746   3.355   3.629   4.683
 4805SOL    HW114747   3.388   3.693   4.614
 4805SOL    HW214748   3.421   3.623   4.758
 4806SOL     OW14749   3.312   3.082   5.357
 4806SOL    HW114750   3.303   3.072   5.456
 4806SOL    HW214751   3.408   3.075   5.331
 4807SOL     OW14752   2.252   3.603   5.284
 4807SOL    HW114753   2.161   3.644   5.282
 4807SOL    HW214754   2.245   3.509   5.316
 4808SOL     OW14755   3.536   2.745   4.978
 4808SOL    HW114756   3.509   2.656   4.941
 4808SOL    HW214757   3.537   2.813   4.905
 4809SOL     OW14758   3.087   2.187   4.173
 4809SOL    HW114759   3.152   2.113   4.162
 4809SOL    HW214760   3.107   2.237   4.257
 4810SOL     OW14761   2.456   2.607   4.376
 4810SOL    HW114762   2.506   2.692   4.357
 4810SOL    HW214763   2.368   2.609   4.328
 4811SOL     OW14764   3.639   2.204   5.366
 4811SOL    HW114765   3.622   2.235   5.272
 4811SOL    HW214766   3.555   2.167   5.404
 4812SOL     OW14767   3.592   2.796   5.241
 4812SOL    HW114768   3.630   2.887   5.256
 4812SOL    HW214769   3.584   2.779   5.142
 4813SOL     OW14770   2.721   3.236   3.740
 4813SOL    HW114771   2.675   3.251   3.828
 4813SOL    HW214772   2.765   3.321   3.710
 4814SOL     OW14773   2.523   3.652   4.677
 4814SOL    HW114774   2.477   3.740   4.664
 4814SOL    HW214775   2.622   3.664   4.670
 4815SOL     OW14776   2.721   2.818   4.585
 4815SOL    HW114777   2.775   2.749   4.633
 4815SOL    HW214778   2.689   2.887   4.651
 4816SOL     OW14779   2.945   2.846   3.811
 4816SOL    HW114780   2.922   2.899   3.729
 4816SOL    HW214781   3.026   2.790   3.792
 4817SOL     OW14782   3.723   3.431   4.575
 4817SOL    HW114783   3.652   3.419   4.505
 4817SOL    HW214784   3.724   3.352   4.635
 4818SOL     OW14785   2.083   3.176   5.568
 4818SOL    HW114786   2.018   3.103   5.547
 4818SOL    HW214787   2.087   3.190   5.666
 4819SOL     OW14788   1.941   3.102   4.377
 4819SOL    HW114789   1.940   3.055   4.465
 4819SOL    HW214790   2.023   3.074   4.326
 4820SOL     OW14791   2.534   3.253   5.348
 4820SOL    HW114792   2.456   3.203   5.386
 4820SOL    HW214793   2.531   3.348   5.379
 4821SOL     OW14794   3.686   2.054   4.951
 4821SOL    HW114795   3.682   1.964   4.995
 4821SOL    HW214796   3.689   2.043   4.852
 4822SOL     OW14797   3.567   3.349   4.828
 4822SOL    HW114798   3.474   3.324   4.801
 4822SOL    HW214799   3.593   3.299   4.910
 4823SOL     OW14800   2.674   3.448   4.411
 4823SOL    HW114801   2.706   3.458   4.317
 4823SOL    HW214802   2.595   3.386   4.413
 4824SOL     OW14803   3.286   2.076   4.836
 4824SOL    HW114804   3.338   2.011   4.891
 4824SOL    HW214805   3.237   2.139   4.897
 4825SOL     OW14806   2.863   1.896   4.878
 4825SOL    HW114807   2.800   1.824   4.847
 4825SOL    HW214808   2.956   1.860   4.878
 4826SOL     OW14809   2.632   3.192   4.025
 4826SOL    HW114810   2.586   3.105   4.042
 4826SOL    HW214811   2.723   3.189   4.066
 4827SOL     OW14812   2.480   3.429   5.008
 4827SOL    HW114813   2.475   3.511   5.065
 4827SOL    HW214814   2.569   3.426   4.963
 4828SOL     OW14815   3.214   1.914   3.892
 4828SOL    HW114816   3.249   1.873   3.808
 4828SOL    HW214817   3.124   1.876   3.912
 4829SOL     OW14818   3.162   2.315   4.415
 4829SOL    HW114819   3.103   2.395   4.419
 4829SOL    HW214820   3.177   2.280   4.508
 4830SOL     OW14821   3.455   2.083   4.606
 4830SOL    HW114822   3.371   2.082   4.660
 4830SOL    HW214823   3.457   2.166   4.550
 4831SOL     OW14824   1.901   2.939   4.024
 4831SOL    HW114825   2.000   2.928   4.015
 4831SOL    HW214826   1.861   2.853   4.056
 4832SOL     OW14827   2.737   3.508   4.061
 4832SOL    HW114828   2.660   3.473   4.007
 4832SOL    HW214829   2.705   3.579   4.123
 4833SOL     OW14830   1.881   2.230   6.233
 4833SOL    HW114831   1.799   2.273   6.272
 4833SOL    HW214832   1.853   2.157   6.170
 4834SOL     OW14833   2.431   3.137   6.751
 4834SOL    HW114834   2.338   3.130   6.714
 4834SOL    HW214835   2.442   3.226   6.795
 4835SOL     OW14836   3.417   3.373   6.289
 4835SOL    HW114837   3.360   3.357   6.370
 4835SOL    HW214838   3.358   3.383   6.209
 4836SOL     OW14839   2.997   2.565   6.303
 4836SOL    HW114840   3.054   2.643   6.278
 4836SOL    HW214841   2.937   2.591   6.379
 4837SOL     OW14842   3.617   2.469   5.817
 4837SOL    HW114843   3.605   2.456   5.718
 4837SOL    HW214844   3.587   2.388   5.866
 4838SOL     OW14845   2.630   3.006   6.609
 4838SOL    HW114846   2.552   3.023   6.669
 4838SOL    HW214847   2.664   3.093   6.573
 4839SOL     OW14848   2.712   2.660   7.409
 4839SOL    HW114849   2.708   2.736   7.474
 4839SOL    HW214850   2.734   2.696   7.318
 4840SOL     OW14851   2.547   2.874   6.251
 4840SOL    HW114852   2.616   2.858   6.321
 4840SOL    HW214853   2.474   2.931   6.289
 4841SOL     OW14854   2.548   3.023   7.389
 4841SOL    HW114855   2.608   3.102   7.403
 4841SOL    HW214856   2.462   3.054   7.348
 4842SOL     OW14857   2.197   3.297   6.647
 4842SOL    HW114858   2.119   3.266   6.594
 4842SOL    HW214859   2.255   3.355   6.590
 4843SOL     OW14860   3.322   3.367   6.925
 4843SOL    HW114861   3.346   3.461   6.951
 4843SOL    HW214862   3.306   3.313   7.007
 4844SOL     OW14863   3.465   2.309   6.323
 4844SOL    HW114864   3.391   2.355   6.273
 4844SOL    HW214865   3.516   2.377   6.376
 4845SOL     OW14866   2.093   3.575   6.069
 4845SOL    HW114867   2.127   3.652   6.123
 4845SOL    HW214868   2.137   3.575   5.979
 4846SOL     OW14869   2.989   3.203   7.276
 4846SOL    HW114870   3.036   3.203   7.364
 4846SOL    HW214871   2.941   3.116   7.265
 4847SOL     OW14872   2.092   3.296   6.124
 4847SOL    HW114873   2.066   3.392   6.124
 4847SOL    HW214874   2.021   3.242   6.169
 4848SOL     OW14875   2.102   2.953   6.472
 4848SOL    HW114876   2.116   2.869   6.524
 4848SOL    HW214877   2.047   3.017   6.527
 4849SOL     OW14878   2.482   3.648   7.025
 4849SOL    HW114879   2.390   3.631   7.060
 4849SOL    HW214880   2.510   3.740   7.051
 4850SOL     OW14881   3.456   1.976   7.066
 4850SOL    HW114882   3.438   2.043   6.994
 4850SOL    HW214883   3.453   2.022   7.155
 4851SOL     OW14884   1.984   2.505   6.149
 4851SOL    HW114885   1.939   2.417   6.166
 4851SOL    HW214886   1.983   2.559   6.233
 4852SOL     OW14887   3.704   3.629   5.945
 4852SOL    HW114888   3.758   3.600   6.025
 4852SOL    HW214889   3.734   3.719   5.916
 4853SOL     OW14890   1.889   3.458   5.703
 4853SOL    HW114891   1.870   3.362   5.724
 4853SOL    HW214892   1.856   3.516   5.778
 4854SOL     OW14893   3.551   2.784   6.198
 4854SOL    HW114894   3.646   2.755   6.206
 4854SOL    HW214895   3.543   2.849   6.123
 4855SOL     OW14896   3.503   2.970   6.018
 4855SOL    HW114897   3.589   2.972   5.966
 4855SOL    HW214898   3.517   3.017   6.106
 4856SOL     OW14899   1.975   2.599   7.183
 4856SOL    HW114900   2.063   2.586   7.228
 4856SOL    HW214901   1.962   2.696   7.161
 4857SOL     OW14902   2.475   3.227   6.312
 4857SOL    HW114903   2.426   3.140   6.321
 4857SOL    HW214904   2.452   3.270   6.225
 4858SOL     OW14905   3.155   3.090   7.009
 4858SOL    HW114906   3.192   3.017   6.951
 4858SOL    HW214907   3.207   3.095   7.094
 4859SOL     OW14908   2.671   1.866   6.088
 4859SOL    HW114909   2.711   1.957   6.079
 4859SOL    HW214910   2.571   1.874   6.094
 4860SOL     OW14911   2.059   2.838   6.850
 4860SOL    HW114912   2.148   2.793   6.836
 4860SOL    HW214913   1.986   2.773   6.831
 4861SOL     OW14914   3.387   2.861   5.776
 4861SOL    HW114915   3.324   2.785   5.789
 4861SOL    HW214916   3.435   2.879   5.862
 4862SOL     OW14917   3.049   3.654   7.202
 4862SOL    HW114918   3.073   3.714   7.126
 4862SOL    HW214919   3.056   3.559   7.172
 4863SOL     OW14920   3.328   3.279   6.539
 4863SOL    HW114921   3.269   3.285   6.619
 4863SOL    HW214922   3.313   3.191   6.493
 4864SOL     OW14923   3.529   3.576   6.158
 4864SOL    HW114924   3.488   3.553   6.070
 4864SOL    HW214925   3.511   3.502   6.223
 4865SOL     OW14926   3.143   2.207   6.530
 4865SOL    HW114927   3.057   2.157   6.517
 4865SOL    HW214928   3.205   2.153   6.586
 4866SOL     OW14929   3.438   3.524   5.893
 4866SOL    HW114930   3.527   3.570   5.896
 4866SOL    HW214931   3.417   3.500   5.798
 4867SOL     OW14932   2.669   2.467   7.051
 4867SOL    HW114933   2.622   2.464   7.140
 4867SOL    HW214934   2.618   2.412   6.985
 4868SOL     OW14935   3.256   2.331   7.260
 4868SOL    HW114936   3.236   2.374   7.348
 4868SOL    HW214937   3.334   2.269   7.269
 4869SOL     OW14938   2.835   2.752   7.158
 4869SOL    HW114939   2.881   2.668   7.129
 4869SOL    HW214940   2.779   2.786   7.083
 4870SOL     OW14941   2.853   2.272   6.828
 4870SOL    HW114942   2.776   2.306   6.882
 4870SOL    HW214943   2.819   2.221   6.749
 4871SOL     OW14944   2.903   2.563   6.015
 4871SOL    HW114945   2.929   2.559   6.111
 4871SOL    HW214946   2.818   2.512   6.001
 4872SOL     OW14947   1.938   2.673   6.375
 4872SOL    HW114948   2.037   2.661   6.384
 4872SOL    HW214949   1.914   2.768   6.396
 4873SOL     OW14950   1.992   3.683   7.157
 4873SOL    HW114951   1.982   3.668   7.256
 4873SOL    HW214952   1.906   3.719   7.121
 4874SOL     OW14953   3.581   2.447   7.417
 4874SOL    HW114954   3.555   2.536   7.381
 4874SOL    HW214955   3.579   2.379   7.344
 4875SOL     OW14956   3.224   3.006   6.131
 4875SOL    HW114957   3.307   2.977   6.083
 4875SOL    HW214958   3.175   3.073   6.075
 4876SOL     OW14959   2.870   3.318   6.063
 4876SOL    HW114960   2.824   3.390   6.011
 4876SOL    HW214961   2.866   3.338   6.161
 4877SOL     OW14962   2.213   3.663   6.439
 4877SOL    HW114963   2.263   3.577   6.445
 4877SOL    HW214964   2.278   3.740   6.436
 4878SOL     OW14965   3.657   2.928   6.459
 4878SOL    HW114966   3.595   2.913   6.383
 4878SOL    HW214967   3.605   2.939   6.544
 4879SOL     OW14968   3.089   3.412   7.092
 4879SOL    HW114969   3.095   3.335   7.156
 4879SOL    HW214970   3.037   3.386   7.012
 4880SOL     OW14971   3.320   2.597   6.314
 4880SOL    HW114972   3.315   2.532   6.389
 4880SOL    HW214973   3.400   2.656   6.327
 4881SOL     OW14974   2.323   3.128   7.313
 4881SOL    HW114975   2.273   3.129   7.227
 4881SOL    HW214976   2.260   3.110   7.389
 4882SOL     OW14977   2.973   3.638   5.823
 4882SOL    HW114978   2.913   3.576   5.873
 4882SOL    HW214979   3.004   3.594   5.738
 4883SOL     OW14980   3.494   3.239   5.667
 4883SOL    HW114981   3.462   3.333   5.657
 4883SOL    HW214982   3.418   3.176   5.655
 4884SOL     OW14983   2.326   3.605   5.909
 4884SOL    HW114984   2.359   3.644   5.995
 4884SOL    HW214985   2.402   3.598   5.844
 4885SOL     OW14986   3.262   1.969   6.012
 4885SOL    HW114987   3.238   1.932   5.922
 4885SOL    HW214988   3.361   1.985   6.016
 4886SOL     OW14989   2.111   3.647   6.827
 4886SOL    HW114990   2.168   3.582   6.877
 4886SOL    HW214991   2.095   3.614   6.734
 4887SOL     OW14992   2.802   3.560   6.490
 4887SOL    HW114993   2.882   3.503   6.511
 4887SOL    HW214994   2.753   3.520   6.413
 4888SOL     OW14995   3.409   2.084   7.315
 4888SOL    HW114996   3.404   2.121   7.407
 4888SOL    HW214997   3.337   2.015   7.303
 4889SOL     OW14998   2.643   2.126   7.335
 4889SOL    HW114999   2.710   2.065   7.378
 4889SOL    HW215000   2.570   2.145   7.400
 4890SOL     OW15001   2.750   3.376   6.781
 4890SOL    HW115002   2.727   3.351   6.687
 4890SOL    HW215003   2.811   3.307   6.820
 4891SOL     OW15004   3.213   2.452   7.019
 4891SOL    HW115005   3.241   2.409   7.104
 4891SOL    HW215006   3.238   2.548   7.020
 4892SOL     OW15007   2.665   3.264   6.510
 4892SOL    HW115008   2.755   3.278   6.468
 4892SOL    HW215009   2.594   3.266   6.439
 4893SOL     OW15010   2.784   2.365   6.485
 4893SOL    HW115011   2.759   2.356   6.389
 4893SOL    HW215012   2.832   2.283   6.516
 4894SOL     OW15013   2.401   1.926   6.098
 4894SOL    HW115014   2.320   1.927   6.156
 4894SOL    HW215015   2.404   2.009   6.043
 4895SOL     OW15016   3.296   3.050   5.627
 4895SOL    HW115017   3.328   2.974   5.684
 4895SOL    HW215018   3.204   3.077   5.657
 4896SOL     OW15019   2.797   2.098   6.066
 4896SOL    HW115020   2.749   2.139   5.988
 4896SOL    HW215021   2.896   2.096   6.047
 4897SOL     OW15022   2.938   2.545   7.050
 4897SOL    HW115023   2.858   2.484   7.053
 4897SOL    HW215024   3.019   2.492   7.026
 4898SOL     OW15025   3.089   3.432   6.379
 4898SOL    HW115026   3.110   3.506   6.314
 4898SOL    HW215027   3.157   3.432   6.452
 4899SOL     OW15028   2.321   3.014   6.327
 4899SOL    HW115029   2.250   2.987   6.392
 4899SOL    HW215030   2.295   2.986   6.234
 4900SOL     OW15031   3.133   3.659   6.177
 4900SOL    HW115032   3.177   3.723   6.113
 4900SOL    HW215033   3.083   3.711   6.247
 4901SOL     OW15034   1.940   2.418   6.972
 4901SOL    HW115035   2.032   2.417   6.931
 4901SOL    HW215036   1.934   2.492   7.039
 4902SOL     OW15037   2.423   2.084   6.733
 4902SOL    HW115038   2.461   2.000   6.770
 4902SOL    HW215039   2.335   2.103   6.777
 4903SOL     OW15040   2.728   2.316   6.228
 4903SOL    HW115041   2.696   2.388   6.166
 4903SOL    HW215042   2.752   2.235   6.175
 4904SOL     OW15043   2.879   1.901   6.339
 4904SOL    HW115044   2.807   1.906   6.270
 4904SOL    HW215045   2.855   1.832   6.408
 4905SOL     OW15046   3.291   3.035   6.453
 4905SOL    HW115047   3.236   2.951   6.446
 4905SOL    HW215048   3.317   3.064   6.361
 4906SOL     OW15049   3.328   2.452   6.578
 4906SOL    HW115050   3.298   2.357   6.585
 4906SOL    HW215051   3.401   2.468   6.644
 4907SOL     OW15052   3.719   2.695   5.963
 4907SOL    HW115053   3.761   2.631   6.027
 4907SOL    HW215054   3.681   2.644   5.885
 4908SOL     OW15055   2.350   3.247   5.760
 4908SOL    HW115056   2.263   3.232   5.807
 4908SOL    HW215057   2.333   3.273   5.665
 4909SOL     OW15058   3.526   3.142   6.243
 4909SOL    HW115059   3.625   3.150   6.257
 4909SOL    HW215060   3.481   3.226   6.274
 4910SOL     OW15061   3.252   2.437   5.664
 4910SOL    HW115062   3.198   2.416   5.745
 4910SOL    HW215063   3.343   2.396   5.673
 4911SOL     OW15064   3.616   3.085   7.174
 4911SOL    HW115065   3.707   3.046   7.161
 4911SOL    HW215066   3.624   3.181   7.198
 4912SOL     OW15067   2.926   3.209   6.926
 4912SOL    HW115068   2.846   3.186   6.981
 4912SOL    HW215069   3.009   3.183   6.975
 4913SOL     OW15070   3.454   3.491   7.211
 4913SOL    HW115071   3.481   3.525   7.121
 4913SOL    HW215072   3.533   3.453   7.257
 4914SOL     OW15073   2.973   3.057   6.686
 4914SOL    HW115074   2.933   3.101   6.767
 4914SOL    HW215075   2.932   3.094   6.603
 4915SOL     OW15076   3.500   2.961   6.665
 4915SOL    HW115077   3.505   3.042   6.724
 4915SOL    HW215078   3.414   2.963   6.614
 4916SOL     OW15079   2.777   1.951   6.988
 4916SOL    HW115080   2.802   1.931   6.893
 4916SOL    HW215081   2.849   2.007   7.030
 4917SOL     OW15082   2.842   2.978   7.305
 4917SOL    HW115083   2.743   2.984   7.315
 4917SOL    HW215084   2.865   2.898   7.249
 4918SOL     OW15085   2.567   2.912   5.954
 4918SOL    HW115086   2.553   2.919   6.053
 4918SOL    HW215087   2.651   2.861   5.936
 4919SOL     OW15088   2.272   2.675   6.837
 4919SOL    HW115089   2.358   2.687   6.887
 4919SOL    HW215090   2.230   2.588   6.864
 4920SOL     OW15091   3.136   2.248   6.848
 4920SOL    HW115092   3.157   2.322   6.912
 4920SOL    HW215093   3.047   2.265   6.805
 4921SOL     OW15094   1.926   3.426   6.917
 4921SOL    HW115095   1.880   3.508   6.883
 4921SOL    HW215096   2.024   3.445   6.926
 4922SOL     OW15097   2.229   2.962   6.087
 4922SOL    HW115098   2.222   3.045   6.031
 4922SOL    HW215099   2.233   2.882   6.027
 4923SOL     OW15100   3.114   3.210   5.974
 4923SOL    HW115101   3.164   3.287   6.014
 4923SOL    HW215102   3.019   3.212   6.006
 4924SOL     OW15103   3.134   3.307   6.728
 4924SOL    HW115104   3.181   3.320   6.815
 4924SOL    HW215105   3.068   3.233   6.737
 4925SOL     OW15106   3.444   2.501   6.058
 4925SOL    HW115107   3.413   2.562   6.131
 4925SOL    HW215108   3.494   2.553   5.989
 4926SOL     OW15109   2.216   3.372   6.915
 4926SOL    HW115110   2.195   3.328   6.828
 4926SOL    HW215111   2.313   3.398   6.918
 4927SOL     OW15112   2.264   2.613   7.184
 4927SOL    HW115113   2.332   2.668   7.137
 4927SOL    HW215114   2.304   2.525   7.211
 4928SOL     OW15115   3.449   2.641   7.256
 4928SOL    HW115116   3.357   2.679   7.251
 4928SOL    HW215117   3.509   2.688   7.191
 4929SOL     OW15118   2.875   1.967   7.356
 4929SOL    HW115119   2.881   2.052   7.304
 4929SOL    HW215120   2.907   1.891   7.299
 4930SOL     OW15121   2.366   1.912   7.326
 4930SOL    HW115122   2.324   1.855   7.256
 4930SOL    HW215123   2.300   1.981   7.358
 4931SOL     OW15124   2.435   2.732   6.615
 4931SOL    HW115125   2.479   2.821   6.606
 4931SOL    HW215126   2.372   2.732   6.692
 4932SOL     OW15127   3.222   2.724   6.631
 4932SOL    HW115128   3.147   2.724   6.565
 4932SOL    HW215129   3.259   2.632   6.640
 4933SOL     OW15130   3.071   2.387   5.861
 4933SOL    HW115131   3.084   2.303   5.915
 4933SOL    HW215132   3.042   2.461   5.921
 4934SOL     OW15133   1.899   3.172   6.868
 4934SOL    HW115134   1.952   3.123   6.936
 4934SOL    HW215135   1.921   3.270   6.873
 4935SOL     OW15136   2.594   2.496   6.650
 4935SOL    HW115137   2.653   2.470   6.574
 4935SOL    HW215138   2.566   2.592   6.639
 4936SOL     OW15139   3.590   2.797   7.440
 4936SOL    HW115140   3.544   2.790   7.351
 4936SOL    HW215141   3.528   2.841   7.506
 4937SOL     OW15142   2.169   1.925   6.204
 4937SOL    HW115143   2.158   2.019   6.237
 4937SOL    HW215144   2.164   1.862   6.281
 4938SOL     OW15145   3.484   2.229   5.960
 4938SOL    HW115146   3.486   2.153   6.024
 4938SOL    HW215147   3.436   2.306   6.000
 4939SOL     OW15148   2.885   2.628   6.552
 4939SOL    HW115149   2.900   2.649   6.648
 4939SOL    HW215150   2.855   2.533   6.543
 4940SOL     OW15151   2.842   3.435   7.286
 4940SOL    HW115152   2.822   3.479   7.198
 4940SOL    HW215153   2.881   3.344   7.270
 4941SOL     OW15154   3.721   3.380   7.191
 4941SOL    HW115155   3.735   3.407   7.096
 4941SOL    HW215156   3.804   3.402   7.244
 4942SOL     OW15157   2.212   2.760   7.390
 4942SOL    HW115158   2.288   2.804   7.438
 4942SOL    HW215159   2.247   2.713   7.308
 4943SOL     OW15160   3.402   2.136   5.711
 4943SOL    HW115161   3.341   2.061   5.734
 4943SOL    HW215162   3.424   2.188   5.794
 4944SOL     OW15163   3.165   2.700   5.628
 4944SOL    HW115164   3.199   2.607   5.643
 4944SOL    HW215165   3.183   2.727   5.533
 4945SOL     OW15166   2.930   3.195   6.435
 4945SOL    HW115167   2.937   3.111   6.380
 4945SOL    HW215168   2.992   3.264   6.399
 4946SOL     OW15169   2.181   2.672   6.535
 4946SOL    HW115170   2.274   2.708   6.540
 4946SOL    HW215171   2.175   2.587   6.587
 4947SOL     OW15172   3.000   2.242   7.264
 4947SOL    HW115173   2.955   2.305   7.328
 4947SOL    HW215174   3.093   2.273   7.247
 4948SOL     OW15175   3.022   2.069   7.063
 4948SOL    HW115176   3.022   2.133   7.140
 4948SOL    HW215177   3.050   2.117   6.980
 4949SOL     OW15178   1.870   3.188   5.786
 4949SOL    HW115179   1.777   3.209   5.755
 4949SOL    HW215180   1.880   3.089   5.799
 4950SOL     OW15181   1.950   3.663   6.513
 4950SOL    HW115182   1.908   3.577   6.486
 4950SOL    HW215183   2.044   3.666   6.479
 4951SOL     OW15184   2.366   3.430   6.496
 4951SOL    HW115185   2.432   3.504   6.505
 4951SOL    HW215186   2.410   3.351   6.454
 4952SOL     OW15187   2.864   2.658   6.824
 4952SOL    HW115188   2.905   2.626   6.910
 4952SOL    HW215189   2.768   2.631   6.821
 4953SOL     OW15190   1.902   2.406   6.700
 4953SOL    HW115191   1.987   2.373   6.659
 4953SOL    HW215192   1.915   2.421   6.798
 4954SOL     OW15193   2.051   2.382   7.308
 4954SOL    HW115194   2.110   2.342   7.238
 4954SOL    HW215195   1.993   2.453   7.267
 4955SOL     OW15196   3.231   2.812   7.246
 4955SOL    HW115197   3.270   2.901   7.266
 4955SOL    HW215198   3.241   2.792   7.149
 4956SOL     OW15199   3.519   2.466   6.792
 4956SOL    HW115200   3.481   2.397   6.854
 4956SOL    HW215201   3.601   2.430   6.748
 4957SOL     OW15202   2.114   3.426   7.330
 4957SOL    HW115203   2.084   3.483   7.406
 4957SOL    HW215204   2.107   3.329   7.356
 4958SOL     OW15205   2.533   2.326   6.855
 4958SOL    HW115206   2.499   2.237   6.825
 4958SOL    HW215207   2.559   2.380   6.775
 4959SOL     OW15208   2.792   3.540   7.051
 4959SOL    HW115209   2.768   3.522   6.956
 4959SOL    HW215210   2.822   3.634   7.061
 4960SOL     OW15211   2.021   2.999   7.052
 4960SOL    HW115212   2.043   2.938   7.128
 4960SOL    HW215213   2.031   2.950   6.966
 4961SOL     OW15214   3.209   2.921   6.820
 4961SOL    HW115215   3.233   2.858   6.746
 4961SOL    HW215216   3.119   2.961   6.802
 4962SOL     OW15217   3.164   2.717   5.895
 4962SOL    HW115218   3.078   2.686   5.937
 4962SOL    HW215219   3.160   2.703   5.796
 4963SOL     OW15220   3.621   3.609   6.740
 4963SOL    HW115221   3.682   3.639   6.667
 4963SOL    HW215222   3.583   3.520   6.718
 4964SOL     OW15223   3.114   3.593   6.714
 4964SOL    HW115224   3.198   3.598   6.660
 4964SOL    HW215225   3.091   3.497   6.732
 4965SOL     OW15226   1.945   3.120   6.608
 4965SOL    HW115227   1.940   3.119   6.708
 4965SOL    HW215228   1.862   3.079   6.570
 4966SOL     OW15229   2.550   3.524   7.302
 4966SOL    HW115230   2.494   3.605   7.311
 4966SOL    HW215231   2.602   3.528   7.216
 4967SOL     OW15232   3.588   1.997   6.109
 4967SOL    HW115233   3.661   1.980   6.042
 4967SOL    HW215234   3.557   1.910   6.147
 4968SOL     OW15235   3.250   3.435   6.063
 4968SOL    HW115236   3.317   3.447   5.989
 4968SOL    HW215237   3.210   3.524   6.086
 4969SOL     OW15238   1.992   3.656   7.437
 4969SOL    HW115239   1.951   3.582   7.490
 4969SOL    HW215240   2.056   3.707   7.495
 4970SOL     OW15241   3.142   2.789   6.258
 4970SOL    HW115242   3.202   2.708   6.260
 4970SOL    HW215243   3.182   2.858   6.198
 4971SOL     OW15244   2.692   3.135   7.008
 4971SOL    HW115245   2.687   3.168   7.103
 4971SOL    HW215246   2.606   3.154   6.962
 4972SOL     OW15247   2.534   3.478   5.740
 4972SOL    HW115248   2.543   3.488   5.641
 4972SOL    HW215249   2.494   3.389   5.761
 4973SOL     OW15250   3.512   3.582   6.980
 4973SOL    HW115251   3.565   3.592   6.896
 4973SOL    HW215252   3.485   3.672   7.014
 4974SOL     OW15253   3.703   2.037   6.549
 4974SOL    HW115254   3.742   1.952   6.513
 4974SOL    HW215255   3.605   2.039   6.530
 4975SOL     OW15256   3.056   3.474   5.617
 4975SOL    HW115257   3.062   3.381   5.654
 4975SOL    HW215258   2.997   3.474   5.537
 4976SOL     OW15259   2.684   2.864   6.958
 4976SOL    HW115260   2.724   2.863   6.866
 4976SOL    HW215261   2.694   2.956   6.998
 4977SOL     OW15262   2.778   2.772   5.877
 4977SOL    HW115263   2.841   2.810   5.809
 4977SOL    HW215264   2.818   2.689   5.916
 4978SOL     OW15265   3.366   3.469   5.630
 4978SOL    HW115266   3.274   3.506   5.637
 4978SOL    HW215267   3.404   3.489   5.540
 4979SOL     OW15268   2.234   3.150   7.076
 4979SOL    HW115269   2.221   3.243   7.042
 4979SOL    HW215270   2.150   3.098   7.063
 4980SOL     OW15271   3.476   3.154   6.875
 4980SOL    HW115272   3.536   3.157   6.955
 4980SOL    HW215273   3.401   3.218   6.888
 4981SOL     OW15274   2.901   2.960   6.282
 4981SOL    HW115275   2.831   2.913   6.336
 4981SOL    HW215276   2.960   2.892   6.239
 4982SOL     OW15277   2.876   2.098   6.557
 4982SOL    HW115278   2.868   2.062   6.464
 4982SOL    HW215279   2.874   2.022   6.622
 4983SOL     OW15280   2.452   3.349   6.077
 4983SOL    HW115281   2.494   3.291   6.007
 4983SOL    HW215282   2.408   3.428   6.033
 4984SOL     OW15283   3.571   2.247   6.967
 4984SOL    HW115284   3.644   2.316   6.971
 4984SOL    HW215285   3.599   2.172   6.908
 4985SOL     OW15286   2.117   3.210   5.876
 4985SOL    HW115287   2.021   3.211   5.849
 4985SOL    HW215288   2.129   3.263   5.960
 4986SOL     OW15289   1.967   2.875   7.312
 4986SOL    HW115290   1.890   2.842   7.366
 4986SOL    HW215291   2.052   2.845   7.354
 4987SOL     OW15292   2.534   2.065   7.075
 4987SOL    HW115293   2.624   2.049   7.035
 4987SOL    HW215294   2.542   2.070   7.174
 4988SOL     OW15295   3.302   2.718   6.984
 4988SOL    HW115296   3.245   2.770   6.921
 4988SOL    HW215297   3.398   2.730   6.960
 4989SOL     OW15298   3.045   3.197   5.705
 4989SOL    HW115299   2.946   3.186   5.707
 4989SOL    HW215300   3.079   3.212   5.798
 4990SOL     OW15301   2.475   2.704   7.017
 4990SOL    HW115302   2.531   2.785   7.000
 4990SOL    HW215303   2.534   2.624   7.020
 4991SOL     OW15304   3.355   3.629   6.545
 4991SOL    HW115305   3.388   3.693   6.476
 4991SOL    HW215306   3.421   3.623   6.620
 4992SOL     OW15307   2.578   2.427   7.294
 4992SOL    HW115308   2.597   2.492   7.368
 4992SOL    HW215309   2.638   2.347   7.303
 4993SOL     OW15310   3.312   3.082   7.219
 4993SOL    HW115311   3.303   3.072   7.318
 4993SOL    HW215312   3.408   3.075   7.193
 4994SOL     OW15313   2.252   3.603   7.146
 4994SOL    HW115314   2.161   3.644   7.144
 4994SOL    HW215315   2.245   3.509   7.178
 4995SOL     OW15316   3.536   2.745   6.840
 4995SOL    HW115317   3.509   2.656   6.803
 4995SOL    HW215318   3.537   2.813   6.767
 4996SOL     OW15319   3.087   2.187   6.035
 4996SOL    HW115320   3.152   2.113   6.024
 4996SOL    HW215321   3.107   2.237   6.119
 4997SOL     OW15322   2.456   2.607   6.238
 4997SOL    HW115323   2.506   2.692   6.219
 4997SOL    HW215324   2.368   2.609   6.190
 4998SOL     OW15325   3.639   2.204   7.228
 4998SOL    HW115326   3.622   2.235   7.134
 4998SOL    HW215327   3.555   2.167   7.266
 4999SOL     OW15328   3.592   2.796   7.103
 4999SOL    HW115329   3.630   2.887   7.118
 4999SOL    HW215330   3.584   2.779   7.004
 5000SOL     OW15331   2.721   3.236   5.602
 5000SOL    HW115332   2.675   3.251   5.690
 5000SOL    HW215333   2.765   3.321   5.572
 5001SOL     OW15334   2.523   3.652   6.539
 5001SOL    HW115335   2.477   3.740   6.526
 5001SOL    HW215336   2.622   3.664   6.532
 5002SOL     OW15337   2.721   2.818   6.447
 5002SOL    HW115338   2.775   2.749   6.495
 5002SOL    HW215339   2.689   2.887   6.513
 5003SOL     OW15340   2.945   2.846   5.673
 5003SOL    HW115341   2.922   2.899   5.591
 5003SOL    HW215342   3.026   2.790   5.654
 5004SOL     OW15343   3.723   3.431   6.437
 5004SOL    HW115344   3.652   3.419   6.367
 5004SOL    HW215345   3.724   3.352   6.497
 5005SOL     OW15346   2.083   3.176   7.430
 5005SOL    HW115347   2.018   3.103   7.409
 5005SOL    HW215348   2.087   3.190   7.528
 5006SOL     OW15349   1.941   3.102   6.239
 5006SOL    HW115350   1.940   3.055   6.327
 5006SOL    HW215351   2.023   3.074   6.188
 5007SOL     OW15352   2.534   3.253   7.210
 5007SOL    HW115353   2.456   3.203   7.248
 5007SOL    HW215354   2.531   3.348   7.241
 5008SOL     OW15355   3.686   2.054   6.813
 5008SOL    HW115356   3.682   1.964   6.857
 5008SOL    HW215357   3.689   2.043   6.714
 5009SOL     OW15358   3.567   3.349   6.690
 5009SOL    HW115359   3.474   3.324   6.663
 5009SOL    HW215360   3.593   3.299   6.772
 5010SOL     OW15361   2.674   3.448   6.273
 5010SOL    HW115362   2.706   3.458   6.179
 5010SOL    HW215363   2.595   3.386   6.275
 5011SOL     OW15364   3.286   2.076   6.698
 5011SOL    HW115365   3.338   2.011   6.753
 5011SOL    HW215366   3.237   2.139   6.759
 5012SOL     OW15367   2.863   1.896   6.740
 5012SOL    HW115368   2.800   1.824   6.709
 5012SOL    HW215369   2.956   1.860   6.740
 5013SOL     OW15370   2.632   3.192   5.887
 5013SOL    HW115371   2.586   3.105   5.904
 5013SOL    HW215372   2.723   3.189   5.928
 5014SOL     OW15373   2.480   3.429   6.870
 5014SOL    HW115374   2.475   3.511   6.927
 5014SOL    HW215375   2.569   3.426   6.825
 5015SOL     OW15376   3.214   1.914   5.754
 5015SOL    HW115377   3.249   1.873   5.670
 5015SOL    HW215378   3.124   1.876   5.774
 5016SOL     OW15379   3.162   2.315   6.277
 5016SOL    HW115380   3.103   2.395   6.281
 5016SOL    HW215381   3.177   2.280   6.370
 5017SOL     OW15382   3.455   2.083   6.468
 5017SOL    HW115383   3.371   2.082   6.522
 5017SOL    HW215384   3.457   2.166   6.412
 5018SOL     OW15385   1.901   2.939   5.886
 5018SOL    HW115386   2.000   2.928   5.877
 5018SOL    HW215387   1.861   2.853   5.918
 5019SOL     OW15388   2.737   3.508   5.923
 5019SOL    HW115389   2.660   3.473   5.869
 5019SOL    HW215390   2.705   3.579   5.985
 5020SOL     OW15391   2.092   2.490   7.561
 5020SOL    HW115392   1.999   2.488   7.598
 5020SOL    HW215393   2.093   2.451   7.469
 5021SOL     OW15394   1.881   2.230   8.095
 5021SOL    HW115395   1.799   2.273   8.134
 5021SOL    HW215396   1.853   2.157   8.032
 5022SOL     OW15397   2.431   3.137   8.613
 5022SOL    HW115398   2.338   3.130   8.576
 5022SOL    HW215399   2.442   3.226   8.657
 5023SOL     OW15400   3.417   3.373   8.151
 5023SOL    HW115401   3.360   3.357   8.232
 5023SOL    HW215402   3.358   3.383   8.071
 5024SOL     OW15403   2.997   2.565   8.165
 5024SOL    HW115404   3.054   2.643   8.140
 5024SOL    HW215405   2.937   2.591   8.241
 5025SOL     OW15406   3.617   2.469   7.679
 5025SOL    HW115407   3.605   2.456   7.580
 5025SOL    HW215408   3.587   2.388   7.728
 5026SOL     OW15409   2.630   3.006   8.471
 5026SOL    HW115410   2.552   3.023   8.531
 5026SOL    HW215411   2.664   3.093   8.435
 5027SOL     OW15412   2.712   2.660   9.271
 5027SOL    HW115413   2.708   2.736   9.336
 5027SOL    HW215414   2.734   2.696   9.180
 5028SOL     OW15415   2.547   2.874   8.113
 5028SOL    HW115416   2.616   2.858   8.183
 5028SOL    HW215417   2.474   2.931   8.151
 5029SOL     OW15418   2.548   3.023   9.251
 5029SOL    HW115419   2.608   3.102   9.265
 5029SOL    HW215420   2.462   3.054   9.210
 5030SOL     OW15421   2.197   3.297   8.509
 5030SOL    HW115422   2.119   3.266   8.456
 5030SOL    HW215423   2.255   3.355   8.452
 5031SOL     OW15424   3.322   3.367   8.787
 5031SOL    HW115425   3.346   3.461   8.813
 5031SOL    HW215426   3.306   3.313   8.869
 5032SOL     OW15427   3.465   2.309   8.185
 5032SOL    HW115428   3.391   2.355   8.135
 5032SOL    HW215429   3.516   2.377   8.238
 5033SOL     OW15430   2.093   3.575   7.931
 5033SOL    HW115431   2.127   3.652   7.985
 5033SOL    HW215432   2.137   3.575   7.841
 5034SOL     OW15433   2.989   3.203   9.138
 5034SOL    HW115434   3.036   3.203   9.226
 5034SOL    HW215435   2.941   3.116   9.127
 5035SOL     OW15436   2.092   3.296   7.986
 5035SOL    HW115437   2.066   3.392   7.986
 5035SOL    HW215438   2.021   3.242   8.031
 5036SOL     OW15439   2.102   2.953   8.334
 5036SOL    HW115440   2.116   2.869   8.386
 5036SOL    HW215441   2.047   3.017   8.389
 5037SOL     OW15442   2.482   3.648   8.887
 5037SOL    HW115443   2.390   3.631   8.922
 5037SOL    HW215444   2.510   3.740   8.913
 5038SOL     OW15445   2.468   2.826   7.571
 5038SOL    HW115446   2.475   2.910   7.517
 5038SOL    HW215447   2.514   2.839   7.659
 5039SOL     OW15448   3.456   1.976   8.928
 5039SOL    HW115449   3.438   2.043   8.856
 5039SOL    HW215450   3.453   2.022   9.017
 5040SOL     OW15451   1.984   2.505   8.011
 5040SOL    HW115452   1.939   2.417   8.028
 5040SOL    HW215453   1.983   2.559   8.095
 5041SOL     OW15454   3.704   3.629   7.807
 5041SOL    HW115455   3.758   3.600   7.887
 5041SOL    HW215456   3.734   3.719   7.778
 5042SOL     OW15457   1.889   3.458   7.565
 5042SOL    HW115458   1.870   3.362   7.586
 5042SOL    HW215459   1.856   3.516   7.640
 5043SOL     OW15460   3.551   2.784   8.060
 5043SOL    HW115461   3.646   2.755   8.068
 5043SOL    HW215462   3.543   2.849   7.985
 5044SOL     OW15463   3.503   2.970   7.880
 5044SOL    HW115464   3.589   2.972   7.828
 5044SOL    HW215465   3.517   3.017   7.968
 5045SOL     OW15466   1.975   2.599   9.045
 5045SOL    HW115467   2.063   2.586   9.090
 5045SOL    HW215468   1.962   2.696   9.023
 5046SOL     OW15469   2.475   3.227   8.174
 5046SOL    HW115470   2.426   3.140   8.183
 5046SOL    HW215471   2.452   3.270   8.087
 5047SOL     OW15472   3.155   3.090   8.871
 5047SOL    HW115473   3.192   3.017   8.813
 5047SOL    HW215474   3.207   3.095   8.956
 5048SOL     OW15475   2.671   1.866   7.950
 5048SOL    HW115476   2.711   1.957   7.941
 5048SOL    HW215477   2.571   1.874   7.956
 5049SOL     OW15478   2.059   2.838   8.712
 5049SOL    HW115479   2.148   2.793   8.698
 5049SOL    HW215480   1.986   2.773   8.693
 5050SOL     OW15481   3.387   2.861   7.638
 5050SOL    HW115482   3.324   2.785   7.651
 5050SOL    HW215483   3.435   2.879   7.724
 5051SOL     OW15484   3.049   3.654   9.064
 5051SOL    HW115485   3.073   3.714   8.988
 5051SOL    HW215486   3.056   3.559   9.034
 5052SOL     OW15487   3.328   3.279   8.401
 5052SOL    HW115488   3.269   3.285   8.481
 5052SOL    HW215489   3.313   3.191   8.355
 5053SOL     OW15490   3.529   3.576   8.020
 5053SOL    HW115491   3.488   3.553   7.932
 5053SOL    HW215492   3.511   3.502   8.085
 5054SOL     OW15493   2.460   2.591   7.718
 5054SOL    HW115494   2.484   2.660   7.650
 5054SOL    HW215495   2.382   2.624   7.772
 5055SOL     OW15496   3.143   2.207   8.392
 5055SOL    HW115497   3.057   2.157   8.379
 5055SOL    HW215498   3.205   2.153   8.448
 5056SOL     OW15499   3.438   3.524   7.755
 5056SOL    HW115500   3.527   3.570   7.758
 5056SOL    HW215501   3.417   3.500   7.660
 5057SOL     OW15502   2.669   2.467   8.913
 5057SOL    HW115503   2.622   2.464   9.002
 5057SOL    HW215504   2.618   2.412   8.847
 5058SOL     OW15505   3.256   2.331   9.122
 5058SOL    HW115506   3.236   2.374   9.210
 5058SOL    HW215507   3.334   2.269   9.131
 5059SOL     OW15508   2.835   2.752   9.020
 5059SOL    HW115509   2.881   2.668   8.991
 5059SOL    HW215510   2.779   2.786   8.945
 5060SOL     OW15511   2.853   2.272   8.690
 5060SOL    HW115512   2.776   2.306   8.744
 5060SOL    HW215513   2.819   2.221   8.611
 5061SOL     OW15514   2.903   2.563   7.877
 5061SOL    HW115515   2.929   2.559   7.973
 5061SOL    HW215516   2.818   2.512   7.863
 5062SOL     OW15517   1.938   2.673   8.237
 5062SOL    HW115518   2.037   2.661   8.246
 5062SOL    HW215519   1.914   2.768   8.258
 5063SOL     OW15520   1.992   3.683   9.019
 5063SOL    HW115521   1.982   3.668   9.118
 5063SOL    HW215522   1.906   3.719   8.983
 5064SOL     OW15523   2.727   2.210   7.643
 5064SOL    HW115524   2.786   2.273   7.594
 5064SOL    HW215525   2.746   2.116   7.614
 5065SOL     OW15526   3.581   2.447   9.279
 5065SOL    HW115527   3.555   2.536   9.243
 5065SOL    HW215528   3.579   2.379   9.206
 5066SOL     OW15529   3.224   3.006   7.993
 5066SOL    HW115530   3.307   2.977   7.945
 5066SOL    HW215531   3.175   3.073   7.937
 5067SOL     OW15532   2.412   2.058   8.333
 5067SOL    HW115533   2.407   2.053   8.433
 5067SOL    HW215534   2.414   2.154   8.304
 5068SOL     OW15535   2.870   3.318   7.925
 5068SOL    HW115536   2.824   3.390   7.873
 5068SOL    HW215537   2.866   3.338   8.023
 5069SOL     OW15538   2.213   3.663   8.301
 5069SOL    HW115539   2.263   3.577   8.307
 5069SOL    HW215540   2.278   3.740   8.298
 5070SOL     OW15541   3.657   2.928   8.321
 5070SOL    HW115542   3.595   2.913   8.245
 5070SOL    HW215543   3.605   2.939   8.406
 5071SOL     OW15544   3.089   3.412   8.954
 5071SOL    HW115545   3.095   3.335   9.018
 5071SOL    HW215546   3.037   3.386   8.874
 5072SOL     OW15547   2.183   2.805   7.690
 5072SOL    HW115548   2.265   2.844   7.648
 5072SOL    HW215549   2.156   2.723   7.641
 5073SOL     OW15550   3.320   2.597   8.176
 5073SOL    HW115551   3.315   2.532   8.251
 5073SOL    HW215552   3.400   2.656   8.189
 5074SOL     OW15553   2.323   3.128   9.175
 5074SOL    HW115554   2.273   3.129   9.089
 5074SOL    HW215555   2.260   3.110   9.251
 5075SOL     OW15556   2.973   3.638   7.685
 5075SOL    HW115557   2.913   3.576   7.735
 5075SOL    HW215558   3.004   3.594   7.600
 5076SOL     OW15559   2.064   2.147   8.946
 5076SOL    HW115560   1.984   2.207   8.933
 5076SOL    HW215561   2.054   2.098   9.032
 5077SOL     OW15562   3.494   3.239   7.529
 5077SOL    HW115563   3.462   3.333   7.519
 5077SOL    HW215564   3.418   3.176   7.517
 5078SOL     OW15565   2.326   3.605   7.771
 5078SOL    HW115566   2.359   3.644   7.857
 5078SOL    HW215567   2.402   3.598   7.706
 5079SOL     OW15568   3.262   1.969   7.874
 5079SOL    HW115569   3.238   1.932   7.784
 5079SOL    HW215570   3.361   1.985   7.878
 5080SOL     OW15571   2.111   3.647   8.689
 5080SOL    HW115572   2.168   3.582   8.739
 5080SOL    HW215573   2.095   3.614   8.596
 5081SOL     OW15574   2.802   3.560   8.352
 5081SOL    HW115575   2.882   3.503   8.373
 5081SOL    HW215576   2.753   3.520   8.275
 5082SOL     OW15577   3.409   2.084   9.177
 5082SOL    HW115578   3.404   2.121   9.269
 5082SOL    HW215579   3.337   2.015   9.165
 5083SOL     OW15580   2.476   1.984   7.565
 5083SOL    HW115581   2.574   1.962   7.572
 5083SOL    HW215582   2.445   1.967   7.472
 5084SOL     OW15583   2.643   2.126   9.197
 5084SOL    HW115584   2.710   2.065   9.240
 5084SOL    HW215585   2.570   2.145   9.262
 5085SOL     OW15586   2.750   3.376   8.643
 5085SOL    HW115587   2.727   3.351   8.549
 5085SOL    HW215588   2.811   3.307   8.682
 5086SOL     OW15589   3.213   2.452   8.881
 5086SOL    HW115590   3.241   2.409   8.966
 5086SOL    HW215591   3.238   2.548   8.882
 5087SOL     OW15592   2.665   3.264   8.372
 5087SOL    HW115593   2.755   3.278   8.330
 5087SOL    HW215594   2.594   3.266   8.301
 5088SOL     OW15595   2.784   2.365   8.347
 5088SOL    HW115596   2.759   2.356   8.251
 5088SOL    HW215597   2.832   2.283   8.378
 5089SOL     OW15598   2.401   1.926   7.960
 5089SOL    HW115599   2.320   1.927   8.018
 5089SOL    HW215600   2.404   2.009   7.905
 5090SOL     OW15601   3.296   3.050   7.489
 5090SOL    HW115602   3.328   2.974   7.546
 5090SOL    HW215603   3.204   3.077   7.519
 5091SOL     OW15604   2.797   2.098   7.928
 5091SOL    HW115605   2.749   2.139   7.850
 5091SOL    HW215606   2.896   2.096   7.909
 5092SOL     OW15607   2.938   2.545   8.912
 5092SOL    HW115608   2.858   2.484   8.915
 5092SOL    HW215609   3.019   2.492   8.888
 5093SOL     OW15610   3.089   3.432   8.241
 5093SOL    HW115611   3.110   3.506   8.176
 5093SOL    HW215612   3.157   3.432   8.314
 5094SOL     OW15613   2.321   3.014   8.189
 5094SOL    HW115614   2.250   2.987   8.254
 5094SOL    HW215615   2.295   2.986   8.096
 5095SOL     OW15616   3.133   3.659   8.039
 5095SOL    HW115617   3.177   3.723   7.975
 5095SOL    HW215618   3.083   3.711   8.109
 5096SOL     OW15619   2.894   2.411   7.464
 5096SOL    HW115620   2.853   2.493   7.425
 5096SOL    HW215621   2.958   2.437   7.537
 5097SOL     OW15622   1.940   2.418   8.834
 5097SOL    HW115623   2.032   2.417   8.793
 5097SOL    HW215624   1.934   2.492   8.901
 5098SOL     OW15625   2.728   2.316   8.090
 5098SOL    HW115626   2.696   2.388   8.028
 5098SOL    HW215627   2.752   2.235   8.037
 5099SOL     OW15628   2.879   1.901   8.201
 5099SOL    HW115629   2.807   1.906   8.132
 5099SOL    HW215630   2.855   1.832   8.270
 5100SOL     OW15631   3.291   3.035   8.315
 5100SOL    HW115632   3.236   2.951   8.308
 5100SOL    HW215633   3.317   3.064   8.223
 5101SOL     OW15634   3.328   2.452   8.440
 5101SOL    HW115635   3.298   2.357   8.447
 5101SOL    HW215636   3.401   2.468   8.506
 5102SOL     OW15637   3.719   2.695   7.825
 5102SOL    HW115638   3.761   2.631   7.889
 5102SOL    HW215639   3.681   2.644   7.747
 5103SOL     OW15640   2.350   3.247   7.622
 5103SOL    HW115641   2.263   3.232   7.669
 5103SOL    HW215642   2.333   3.273   7.527
 5104SOL     OW15643   3.526   3.142   8.105
 5104SOL    HW115644   3.625   3.150   8.119
 5104SOL    HW215645   3.481   3.226   8.136
 5105SOL     OW15646   3.252   2.437   7.526
 5105SOL    HW115647   3.198   2.416   7.607
 5105SOL    HW215648   3.343   2.396   7.535
 5106SOL     OW15649   3.616   3.085   9.036
 5106SOL    HW115650   3.707   3.046   9.023
 5106SOL    HW215651   3.624   3.181   9.060
 5107SOL     OW15652   2.926   3.209   8.788
 5107SOL    HW115653   2.846   3.186   8.843
 5107SOL    HW215654   3.009   3.183   8.837
 5108SOL     OW15655   3.454   3.491   9.073
 5108SOL    HW115656   3.481   3.525   8.983
 5108SOL    HW215657   3.533   3.453   9.119
 5109SOL     OW15658   2.973   3.057   8.548
 5109SOL    HW115659   2.933   3.101   8.629
 5109SOL    HW215660   2.932   3.094   8.465
 5110SOL     OW15661   3.500   2.961   8.527
 5110SOL    HW115662   3.505   3.042   8.586
 5110SOL    HW215663   3.414   2.963   8.476
 5111SOL     OW15664   2.777   1.951   8.850
 5111SOL    HW115665   2.802   1.931   8.755
 5111SOL    HW215666   2.849   2.007   8.892
 5112SOL     OW15667   2.842   2.978   9.167
 5112SOL    HW115668   2.743   2.984   9.177
 5112SOL    HW215669   2.865   2.898   9.111
 5113SOL     OW15670   2.567   2.912   7.816
 5113SOL    HW115671   2.553   2.919   7.915
 5113SOL    HW215672   2.651   2.861   7.798
 5114SOL     OW15673   2.272   2.675   8.699
 5114SOL    HW115674   2.358   2.687   8.749
 5114SOL    HW215675   2.230   2.588   8.726
 5115SOL     OW15676   3.136   2.248   8.710
 5115SOL    HW115677   3.157   2.322   8.774
 5115SOL    HW215678   3.047   2.265   8.667
 5116SOL     OW15679   1.926   3.426   8.779
 5116SOL    HW115680   1.880   3.508   8.745
 5116SOL    HW215681   2.024   3.445   8.788
 5117SOL     OW15682   2.229   2.962   7.949
 5117SOL    HW115683   2.222   3.045   7.893
 5117SOL    HW215684   2.233   2.882   7.889
 5118SOL     OW15685   2.428   2.399   8.313
 5118SOL    HW115686   2.440   2.465   8.239
 5118SOL    HW215687   2.474   2.433   8.396
 5119SOL     OW15688   3.114   3.210   7.836
 5119SOL    HW115689   3.164   3.287   7.876
 5119SOL    HW215690   3.019   3.212   7.868
 5120SOL     OW15691   3.134   3.307   8.590
 5120SOL    HW115692   3.181   3.320   8.677
 5120SOL    HW215693   3.068   3.233   8.599
 5121SOL     OW15694   3.444   2.501   7.920
 5121SOL    HW115695   3.413   2.562   7.993
 5121SOL    HW215696   3.494   2.553   7.851
 5122SOL     OW15697   2.216   3.372   8.777
 5122SOL    HW115698   2.195   3.328   8.690
 5122SOL    HW215699   2.313   3.398   8.780
 5123SOL     OW15700   2.264   2.613   9.046
 5123SOL    HW115701   2.332   2.668   8.999
 5123SOL    HW215702   2.304   2.525   9.073
 5124SOL     OW15703   3.449   2.641   9.118
 5124SOL    HW115704   3.357   2.679   9.113
 5124SOL    HW215705   3.509   2.688   9.053
 5125SOL     OW15706   2.875   1.967   9.218
 5125SOL    HW115707   2.881   2.052   9.166
 5125SOL    HW215708   2.907   1.891   9.161
 5126SOL     OW15709   2.366   1.912   9.188
 5126SOL    HW115710   2.324   1.855   9.118
 5126SOL    HW215711   2.300   1.981   9.220
 5127SOL     OW15712   2.435   2.732   8.477
 5127SOL    HW115713   2.479   2.821   8.468
 5127SOL    HW215714   2.372   2.732   8.554
 5128SOL     OW15715   3.222   2.724   8.493
 5128SOL    HW115716   3.147   2.724   8.427
 5128SOL    HW215717   3.259   2.632   8.502
 5129SOL     OW15718   3.071   2.387   7.723
 5129SOL    HW115719   3.084   2.303   7.777
 5129SOL    HW215720   3.042   2.461   7.783
 5130SOL     OW15721   1.899   3.172   8.730
 5130SOL    HW115722   1.952   3.123   8.798
 5130SOL    HW215723   1.921   3.270   8.735
 5131SOL     OW15724   2.594   2.496   8.512
 5131SOL    HW115725   2.653   2.470   8.436
 5131SOL    HW215726   2.566   2.592   8.501
 5132SOL     OW15727   3.590   2.797   9.302
 5132SOL    HW115728   3.544   2.790   9.213
 5132SOL    HW215729   3.528   2.841   9.368
 5133SOL     OW15730   2.169   1.925   8.066
 5133SOL    HW115731   2.158   2.019   8.099
 5133SOL    HW215732   2.164   1.862   8.143
 5134SOL     OW15733   3.484   2.229   7.822
 5134SOL    HW115734   3.486   2.153   7.886
 5134SOL    HW215735   3.436   2.306   7.862
 5135SOL     OW15736   2.885   2.628   8.414
 5135SOL    HW115737   2.900   2.649   8.510
 5135SOL    HW215738   2.855   2.533   8.405
 5136SOL     OW15739   2.842   3.435   9.148
 5136SOL    HW115740   2.822   3.479   9.060
 5136SOL    HW215741   2.881   3.344   9.132
 5137SOL     OW15742   3.721   3.380   9.053
 5137SOL    HW115743   3.735   3.407   8.958
 5137SOL    HW215744   3.804   3.402   9.106
 5138SOL     OW15745   2.212   2.760   9.252
 5138SOL    HW115746   2.288   2.804   9.300
 5138SOL    HW215747   2.247   2.713   9.170
 5139SOL     OW15748   3.402   2.136   7.573
 5139SOL    HW115749   3.341   2.061   7.596
 5139SOL    HW215750   3.424   2.188   7.656
 5140SOL     OW15751   3.165   2.700   7.490
 5140SOL    HW115752   3.199   2.607   7.505
 5140SOL    HW215753   3.183   2.727   7.395
 5141SOL     OW15754   2.930   3.195   8.297
 5141SOL    HW115755   2.937   3.111   8.242
 5141SOL    HW215756   2.992   3.264   8.261
 5142SOL     OW15757   2.181   2.672   8.397
 5142SOL    HW115758   2.274   2.708   8.402
 5142SOL    HW215759   2.175   2.587   8.449
 5143SOL     OW15760   3.000   2.242   9.126
 5143SOL    HW115761   2.955   2.305   9.190
 5143SOL    HW215762   3.093   2.273   9.109
 5144SOL     OW15763   3.022   2.069   8.925
 5144SOL    HW115764   3.022   2.133   9.002
 5144SOL    HW215765   3.050   2.117   8.842
 5145SOL     OW15766   1.870   3.188   7.648
 5145SOL    HW115767   1.777   3.209   7.617
 5145SOL    HW215768   1.880   3.089   7.661
 5146SOL     OW15769   1.950   3.663   8.375
 5146SOL    HW115770   1.908   3.577   8.348
 5146SOL    HW215771   2.044   3.666   8.341
 5147SOL     OW15772   2.366   3.430   8.358
 5147SOL    HW115773   2.432   3.504   8.367
 5147SOL    HW215774   2.410   3.351   8.316
 5148SOL     OW15775   2.864   2.658   8.686
 5148SOL    HW115776   2.905   2.626   8.772
 5148SOL    HW215777   2.768   2.631   8.683
 5149SOL     OW15778   1.902   2.406   8.562
 5149SOL    HW115779   1.987   2.373   8.521
 5149SOL    HW215780   1.915   2.421   8.660
 5150SOL     OW15781   3.231   2.812   9.108
 5150SOL    HW115782   3.270   2.901   9.128
 5150SOL    HW215783   3.241   2.792   9.011
 5151SOL     OW15784   2.677   2.434   7.773
 5151SOL    HW115785   2.684   2.345   7.727
 5151SOL    HW215786   2.583   2.468   7.765
 5152SOL     OW15787   3.519   2.466   8.654
 5152SOL    HW115788   3.481   2.397   8.716
 5152SOL    HW215789   3.601   2.430   8.610
 5153SOL     OW15790   2.114   3.426   9.192
 5153SOL    HW115791   2.084   3.483   9.268
 5153SOL    HW215792   2.107   3.329   9.218
 5154SOL     OW15793   2.792   3.540   8.913
 5154SOL    HW115794   2.768   3.522   8.818
 5154SOL    HW215795   2.822   3.634   8.923
 5155SOL     OW15796   2.021   2.999   8.914
 5155SOL    HW115797   2.043   2.938   8.990
 5155SOL    HW215798   2.031   2.950   8.828
 5156SOL     OW15799   3.209   2.921   8.682
 5156SOL    HW115800   3.233   2.858   8.608
 5156SOL    HW215801   3.119   2.961   8.664
 5157SOL     OW15802   3.164   2.717   7.757
 5157SOL    HW115803   3.078   2.686   7.799
 5157SOL    HW215804   3.160   2.703   7.658
 5158SOL     OW15805   3.621   3.609   8.602
 5158SOL    HW115806   3.682   3.639   8.529
 5158SOL    HW215807   3.583   3.520   8.580
 5159SOL     OW15808   3.114   3.593   8.576
 5159SOL    HW115809   3.198   3.598   8.522
 5159SOL    HW215810   3.091   3.497   8.594
 5160SOL     OW15811   1.945   3.120   8.470
 5160SOL    HW115812   1.940   3.119   8.570
 5160SOL    HW215813   1.862   3.079   8.432
 5161SOL     OW15814   2.550   3.524   9.164
 5161SOL    HW115815   2.494   3.605   9.173
 5161SOL    HW215816   2.602   3.528   9.078
 5162SOL     OW15817   3.588   1.997   7.971
 5162SOL    HW115818   3.661   1.980   7.904
 5162SOL    HW215819   3.557   1.910   8.009
 5163SOL     OW15820   3.250   3.435   7.925
 5163SOL    HW115821   3.317   3.447   7.851
 5163SOL    HW215822   3.210   3.524   7.948
 5164SOL     OW15823   1.992   3.656   9.299
 5164SOL    HW115824   1.951   3.582   9.352
 5164SOL    HW215825   2.056   3.707   9.357
 5165SOL     OW15826   3.142   2.789   8.120
 5165SOL    HW115827   3.202   2.708   8.122
 5165SOL    HW215828   3.182   2.858   8.060
 5166SOL     OW15829   2.692   3.135   8.870
 5166SOL    HW115830   2.687   3.168   8.965
 5166SOL    HW215831   2.606   3.154   8.824
 5167SOL     OW15832   2.534   3.478   7.602
 5167SOL    HW115833   2.543   3.488   7.503
 5167SOL    HW215834   2.494   3.389   7.623
 5168SOL     OW15835   3.512   3.582   8.842
 5168SOL    HW115836   3.565   3.592   8.758
 5168SOL    HW215837   3.485   3.672   8.876
 5169SOL     OW15838   3.703   2.037   8.411
 5169SOL    HW115839   3.742   1.952   8.375
 5169SOL    HW215840   3.605   2.039   8.392
 5170SOL     OW15841   3.056   3.474   7.479
 5170SOL    HW115842   3.062   3.381   7.516
 5170SOL    HW215843   2.997   3.474   7.399
 5171SOL     OW15844   2.684   2.864   8.820
 5171SOL    HW115845   2.724   2.863   8.728
 5171SOL    HW215846   2.694   2.956   8.860
 5172SOL     OW15847   2.778   2.772   7.739
 5172SOL    HW115848   2.841   2.810   7.671
 5172SOL    HW215849   2.818   2.689   7.778
 5173SOL     OW15850   3.366   3.469   7.492
 5173SOL    HW115851   3.274   3.506   7.499
 5173SOL    HW215852   3.404   3.489   7.402
 5174SOL     OW15853   2.234   3.150   8.938
 5174SOL    HW115854   2.221   3.243   8.904
 5174SOL    HW215855   2.150   3.098   8.925
 5175SOL     OW15856   3.476   3.154   8.737
 5175SOL    HW115857   3.536   3.157   8.817
 5175SOL    HW215858   3.401   3.218   8.750
 5176SOL     OW15859   2.901   2.960   8.144
 5176SOL    HW115860   2.831   2.913   8.198
 5176SOL    HW215861   2.960   2.892   8.101
 5177SOL     OW15862   2.876   2.098   8.419
 5177SOL    HW115863   2.868   2.062   8.326
 5177SOL    HW215864   2.874   2.022   8.484
 5178SOL     OW15865   2.452   3.349   7.939
 5178SOL    HW115866   2.494   3.291   7.869
 5178SOL    HW215867   2.408   3.428   7.895
 5179SOL     OW15868   3.571   2.247   8.829
 5179SOL    HW115869   3.644   2.316   8.833
 5179SOL    HW215870   3.599   2.172   8.770
 5180SOL     OW15871   2.117   3.210   7.738
 5180SOL    HW115872   2.021   3.211   7.711
 5180SOL    HW215873   2.129   3.263   7.822
 5181SOL     OW15874   1.967   2.875   9.174
 5181SOL    HW115875   1.890   2.842   9.228
 5181SOL    HW215876   2.052   2.845   9.216
 5182SOL     OW15877   2.534   2.065   8.937
 5182SOL    HW115878   2.624   2.049   8.897
 5182SOL    HW215879   2.542   2.070   9.036
 5183SOL     OW15880   1.937   2.207   7.481
 5183SOL    HW115881   1.845   2.179   7.452
 5183SOL    HW215882   1.968   2.284   7.425
 5184SOL     OW15883   3.302   2.718   8.846
 5184SOL    HW115884   3.245   2.770   8.783
 5184SOL    HW215885   3.398   2.730   8.822
 5185SOL     OW15886   1.934   2.028   7.766
 5185SOL    HW115887   1.917   2.111   7.712
 5185SOL    HW215888   2.024   1.991   7.744
 5186SOL     OW15889   3.045   3.197   7.567
 5186SOL    HW115890   2.946   3.186   7.569
 5186SOL    HW215891   3.079   3.212   7.660
 5187SOL     OW15892   2.475   2.704   8.879
 5187SOL    HW115893   2.531   2.785   8.862
 5187SOL    HW215894   2.534   2.624   8.882
 5188SOL     OW15895   3.355   3.629   8.407
 5188SOL    HW115896   3.388   3.693   8.338
 5188SOL    HW215897   3.421   3.623   8.482
 5189SOL     OW15898   2.578   2.427   9.156
 5189SOL    HW115899   2.597   2.492   9.230
 5189SOL    HW215900   2.638   2.347   9.165
 5190SOL     OW15901   3.312   3.082   9.081
 5190SOL    HW115902   3.303   3.072   9.180
 5190SOL    HW215903   3.408   3.075   9.055
 5191SOL     OW15904   2.252   3.603   9.008
 5191SOL    HW115905   2.161   3.644   9.006
 5191SOL    HW215906   2.245   3.509   9.040
 5192SOL     OW15907   3.536   2.745   8.702
 5192SOL    HW115908   3.509   2.656   8.665
 5192SOL    HW215909   3.537   2.813   8.629
 5193SOL     OW15910   3.087   2.187   7.897
 5193SOL    HW115911   3.152   2.113   7.886
 5193SOL    HW215912   3.107   2.237   7.981
 5194SOL     OW15913   2.456   2.607   8.100
 5194SOL    HW115914   2.506   2.692   8.081
 5194SOL    HW215915   2.368   2.609   8.052
 5195SOL     OW15916   3.639   2.204   9.090
 5195SOL    HW115917   3.622   2.235   8.996
 5195SOL    HW215918   3.555   2.167   9.128
 5196SOL     OW15919   3.592   2.796   8.965
 5196SOL    HW115920   3.630   2.887   8.980
 5196SOL    HW215921   3.584   2.779   8.866
 5197SOL     OW15922   2.721   3.236   7.464
 5197SOL    HW115923   2.675   3.251   7.552
 5197SOL    HW215924   2.765   3.321   7.434
 5198SOL     OW15925   2.523   3.652   8.401
 5198SOL    HW115926   2.477   3.740   8.388
 5198SOL    HW215927   2.622   3.664   8.394
 5199SOL     OW15928   2.721   2.818   8.309
 5199SOL    HW115929   2.775   2.749   8.357
 5199SOL    HW215930   2.689   2.887   8.375
 5200SOL     OW15931   2.945   2.846   7.535
 5200SOL    HW115932   2.922   2.899   7.453
 5200SOL    HW215933   3.026   2.790   7.516
 5201SOL     OW15934   3.723   3.431   8.299
 5201SOL    HW115935   3.652   3.419   8.229
 5201SOL    HW215936   3.724   3.352   8.359
 5202SOL     OW15937   2.083   3.176   9.292
 5202SOL    HW115938   2.018   3.103   9.271
 5202SOL    HW215939   2.087   3.190   9.390
 5203SOL     OW15940   1.941   3.102   8.101
 5203SOL    HW115941   1.940   3.055   8.189
 5203SOL    HW215942   2.023   3.074   8.050
 5204SOL     OW15943   2.534   3.253   9.072
 5204SOL    HW115944   2.456   3.203   9.110
 5204SOL    HW215945   2.531   3.348   9.103
 5205SOL     OW15946   3.686   2.054   8.675
 5205SOL    HW115947   3.682   1.964   8.719
 5205SOL    HW215948   3.689   2.043   8.576
 5206SOL     OW15949   3.567   3.349   8.552
 5206SOL    HW115950   3.474   3.324   8.525
 5206SOL    HW215951   3.593   3.299   8.634
 5207SOL     OW15952   2.674   3.448   8.135
 5207SOL    HW115953   2.706   3.458   8.041
 5207SOL    HW215954   2.595   3.386   8.137
 5208SOL     OW15955   3.286   2.076   8.560
 5208SOL    HW115956   3.338   2.011   8.615
 5208SOL    HW215957   3.237   2.139   8.621
 5209SOL     OW15958   2.863   1.896   8.602
 5209SOL    HW115959   2.800   1.824   8.571
 5209SOL    HW215960   2.956   1.860   8.602
 5210SOL     OW15961   2.632   3.192   7.749
 5210SOL    HW115962   2.586   3.105   7.766
 5210SOL    HW215963   2.723   3.189   7.790
 5211SOL     OW15964   2.480   3.429   8.732
 5211SOL    HW115965   2.475   3.511   8.789
 5211SOL    HW215966   2.569   3.426   8.687
 5212SOL     OW15967   3.214   1.914   7.616
 5212SOL    HW115968   3.249   1.873   7.532
 5212SOL    HW215969   3.124   1.876   7.636
 5213SOL     OW15970   3.162   2.315   8.139
 5213SOL    HW115971   3.103   2.395   8.143
 5213SOL    HW215972   3.177   2.280   8.232
 5214SOL     OW15973   3.455   2.083   8.330
 5214SOL    HW115974   3.371   2.082   8.384
 5214SOL    HW215975   3.457   2.166   8.274
 5215SOL     OW15976   1.901   2.939   7.748
 5215SOL    HW115977   2.000   2.928   7.739
 5215SOL    HW215978   1.861   2.853   7.780
 5216SOL     OW15979   2.737   3.508   7.785
 5216SOL    HW115980   2.660   3.473   7.731
 5216SOL    HW215981   2.705   3.579   7.847
 5217SOL     OW15982   2.092   2.490   9.423
 5217SOL    HW115983   1.999   2.488   9.460
 5217SOL    HW215984   2.093   2.451   9.331
 5218SOL     OW15985   1.881   2.230   9.957
 5218SOL    HW115986   1.799   2.273   9.996
 5218SOL    HW215987   1.853   2.157   9.894
 5219SOL     OW15988   2.431   3.137  10.475
 5219SOL    HW115989   2.338   3.130  10.438
 5219SOL    HW215990   2.442   3.226  10.519
 5220SOL     OW15991   3.417   3.373  10.013
 5220SOL    HW115992   3.360   3.357  10.094
 5220SOL    HW215993   3.358   3.383   9.933
 5221SOL     OW15994   2.997   2.565  10.027
 5221SOL    HW115995   3.054   2.643  10.002
 5221SOL    HW215996   2.937   2.591  10.103
 5222SOL     OW15997   3.617   2.469   9.541
 5222SOL    HW115998   3.605   2.456   9.442
 5222SOL    HW215999   3.587   2.388   9.590
 5223SOL     OW16000   2.630   3.006  10.333
 5223SOL    HW116001   2.552   3.023  10.393
 5223SOL    HW216002   2.664   3.093  10.297
 5224SOL     OW16003   2.547   2.874   9.975
 5224SOL    HW116004   2.616   2.858  10.045
 5224SOL    HW216005   2.474   2.931  10.013
 5225SOL     OW16006   2.197   3.297  10.371
 5225SOL    HW116007   2.119   3.266  10.318
 5225SOL    HW216008   2.255   3.355  10.314
 5226SOL     OW16009   3.322   3.367  10.649
 5226SOL    HW116010   3.346   3.461  10.675
 5226SOL    HW216011   3.306   3.313  10.731
 5227SOL     OW16012   3.465   2.309  10.047
 5227SOL    HW116013   3.391   2.355   9.997
 5227SOL    HW216014   3.516   2.377  10.100
 5228SOL     OW16015   2.093   3.575   9.793
 5228SOL    HW116016   2.127   3.652   9.847
 5228SOL    HW216017   2.137   3.575   9.703
 5229SOL     OW16018   2.092   3.296   9.848
 5229SOL    HW116019   2.066   3.392   9.848
 5229SOL    HW216020   2.021   3.242   9.893
 5230SOL     OW16021   2.102   2.953  10.196
 5230SOL    HW116022   2.116   2.869  10.248
 5230SOL    HW216023   2.047   3.017  10.251
 5231SOL     OW16024   2.482   3.648  10.749
 5231SOL    HW116025   2.390   3.631  10.784
 5231SOL    HW216026   2.510   3.740  10.775
 5232SOL     OW16027   2.468   2.826   9.433
 5232SOL    HW116028   2.475   2.910   9.379
 5232SOL    HW216029   2.514   2.839   9.521
 5233SOL     OW16030   3.456   1.976  10.790
 5233SOL    HW116031   3.438   2.043  10.718
 5233SOL    HW216032   3.453   2.022  10.879
 5234SOL     OW16033   1.984   2.505   9.873
 5234SOL    HW116034   1.939   2.417   9.890
 5234SOL    HW216035   1.983   2.559   9.957
 5235SOL     OW16036   3.704   3.629   9.669
 5235SOL    HW116037   3.758   3.600   9.749
 5235SOL    HW216038   3.734   3.719   9.640
 5236SOL     OW16039   1.889   3.458   9.427
 5236SOL    HW116040   1.870   3.362   9.448
 5236SOL    HW216041   1.856   3.516   9.502
 5237SOL     OW16042   3.551   2.784   9.922
 5237SOL    HW116043   3.646   2.755   9.930
 5237SOL    HW216044   3.543   2.849   9.847
 5238SOL     OW16045   3.503   2.970   9.742
 5238SOL    HW116046   3.589   2.972   9.690
 5238SOL    HW216047   3.517   3.017   9.830
 5239SOL     OW16048   1.975   2.599  10.907
 5239SOL    HW116049   2.063   2.586  10.952
 5239SOL    HW216050   1.962   2.696  10.885
 5240SOL     OW16051   2.475   3.227  10.036
 5240SOL    HW116052   2.426   3.140  10.045
 5240SOL    HW216053   2.452   3.270   9.949
 5241SOL     OW16054   3.155   3.090  10.733
 5241SOL    HW116055   3.192   3.017  10.675
 5241SOL    HW216056   3.207   3.095  10.818
 5242SOL     OW16057   2.671   1.866   9.812
 5242SOL    HW116058   2.711   1.957   9.803
 5242SOL    HW216059   2.571   1.874   9.818
 5243SOL     OW16060   2.059   2.838  10.574
 5243SOL    HW116061   2.148   2.793  10.560
 5243SOL    HW216062   1.986   2.773  10.555
 5244SOL     OW16063   3.387   2.861   9.500
 5244SOL    HW116064   3.324   2.785   9.513
 5244SOL    HW216065   3.435   2.879   9.586
 5245SOL     OW16066   3.328   3.279  10.263
 5245SOL    HW116067   3.269   3.285  10.343
 5245SOL    HW216068   3.313   3.191  10.217
 5246SOL     OW16069   3.529   3.576   9.882
 5246SOL    HW116070   3.488   3.553   9.794
 5246SOL    HW216071   3.511   3.502   9.947
 5247SOL     OW16072   2.460   2.591   9.580
 5247SOL    HW116073   2.484   2.660   9.512
 5247SOL    HW216074   2.382   2.624   9.634
 5248SOL     OW16075   3.143   2.207  10.254
 5248SOL    HW116076   3.057   2.157  10.241
 5248SOL    HW216077   3.205   2.153  10.310
 5249SOL     OW16078   3.438   3.524   9.617
 5249SOL    HW116079   3.527   3.570   9.620
 5249SOL    HW216080   3.417   3.500   9.522
 5250SOL     OW16081   2.669   2.467  10.775
 5250SOL    HW116082   2.622   2.464  10.864
 5250SOL    HW216083   2.618   2.412  10.709
 5251SOL     OW16084   2.835   2.752  10.882
 5251SOL    HW116085   2.881   2.668  10.853
 5251SOL    HW216086   2.779   2.786  10.807
 5252SOL     OW16087   2.853   2.272  10.552
 5252SOL    HW116088   2.776   2.306  10.606
 5252SOL    HW216089   2.819   2.221  10.473
 5253SOL     OW16090   2.903   2.563   9.739
 5253SOL    HW116091   2.929   2.559   9.835
 5253SOL    HW216092   2.818   2.512   9.725
 5254SOL     OW16093   1.938   2.673  10.099
 5254SOL    HW116094   2.037   2.661  10.108
 5254SOL    HW216095   1.914   2.768  10.120
 5255SOL     OW16096   1.992   3.683  10.881
 5255SOL    HW116097   1.982   3.668  10.980
 5255SOL    HW216098   1.906   3.719  10.845
 5256SOL     OW16099   2.727   2.210   9.505
 5256SOL    HW116100   2.786   2.273   9.456
 5256SOL    HW216101   2.746   2.116   9.476
 5257SOL     OW16102   3.224   3.006   9.855
 5257SOL    HW116103   3.307   2.977   9.807
 5257SOL    HW216104   3.175   3.073   9.799
 5258SOL     OW16105   2.870   3.318   9.787
 5258SOL    HW116106   2.824   3.390   9.735
 5258SOL    HW216107   2.866   3.338   9.885
 5259SOL     OW16108   2.213   3.663  10.163
 5259SOL    HW116109   2.263   3.577  10.169
 5259SOL    HW216110   2.278   3.740  10.160
 5260SOL     OW16111   3.657   2.928  10.183
 5260SOL    HW116112   3.595   2.913  10.107
 5260SOL    HW216113   3.605   2.939  10.268
 5261SOL     OW16114   3.089   3.412  10.816
 5261SOL    HW116115   3.095   3.335  10.880
 5261SOL    HW216116   3.037   3.386  10.736
 5262SOL     OW16117   2.183   2.805   9.552
 5262SOL    HW116118   2.265   2.844   9.510
 5262SOL    HW216119   2.156   2.723   9.503
 5263SOL     OW16120   3.320   2.597  10.038
 5263SOL    HW116121   3.315   2.532  10.113
 5263SOL    HW216122   3.400   2.656  10.051
 5264SOL     OW16123   2.973   3.638   9.547
 5264SOL    HW116124   2.913   3.576   9.597
 5264SOL    HW216125   3.004   3.594   9.462
 5265SOL     OW16126   3.494   3.239   9.391
 5265SOL    HW116127   3.462   3.333   9.381
 5265SOL    HW216128   3.418   3.176   9.379
 5266SOL     OW16129   2.326   3.605   9.633
 5266SOL    HW116130   2.359   3.644   9.719
 5266SOL    HW216131   2.402   3.598   9.568
 5267SOL     OW16132   3.262   1.969   9.736
 5267SOL    HW116133   3.238   1.932   9.646
 5267SOL    HW216134   3.361   1.985   9.740
 5268SOL     OW16135   2.111   3.647  10.551
 5268SOL    HW116136   2.168   3.582  10.601
 5268SOL    HW216137   2.095   3.614  10.458
 5269SOL     OW16138   2.802   3.560  10.214
 5269SOL    HW116139   2.882   3.503  10.235
 5269SOL    HW216140   2.753   3.520  10.137
 5270SOL     OW16141   2.244   2.562   9.790
 5270SOL    HW116142   2.289   2.472   9.787
 5270SOL    HW216143   2.150   2.551   9.823
 5271SOL     OW16144   2.476   1.984   9.427
 5271SOL    HW116145   2.574   1.962   9.434
 5271SOL    HW216146   2.445   1.967   9.334
 5272SOL     OW16147   2.750   3.376  10.505
 5272SOL    HW116148   2.727   3.351  10.411
 5272SOL    HW216149   2.811   3.307  10.544
 5273SOL     OW16150   3.213   2.452  10.743
 5273SOL    HW116151   3.241   2.409  10.828
 5273SOL    HW216152   3.238   2.548  10.744
 5274SOL     OW16153   2.665   3.264  10.234
 5274SOL    HW116154   2.755   3.278  10.192
 5274SOL    HW216155   2.594   3.266  10.163
 5275SOL     OW16156   2.784   2.365  10.209
 5275SOL    HW116157   2.759   2.356  10.113
 5275SOL    HW216158   2.832   2.283  10.240
 5276SOL     OW16159   2.401   1.926   9.822
 5276SOL    HW116160   2.320   1.927   9.880
 5276SOL    HW216161   2.404   2.009   9.767
 5277SOL     OW16162   3.296   3.050   9.351
 5277SOL    HW116163   3.328   2.974   9.408
 5277SOL    HW216164   3.204   3.077   9.381
 5278SOL     OW16165   2.159   1.897   9.481
 5278SOL    HW116166   2.208   1.981   9.460
 5278SOL    HW216167   2.221   1.832   9.526
 5279SOL     OW16168   2.797   2.098   9.790
 5279SOL    HW116169   2.749   2.139   9.712
 5279SOL    HW216170   2.896   2.096   9.771
 5280SOL     OW16171   2.938   2.545  10.774
 5280SOL    HW116172   2.858   2.484  10.777
 5280SOL    HW216173   3.019   2.492  10.750
 5281SOL     OW16174   3.089   3.432  10.103
 5281SOL    HW116175   3.110   3.506  10.038
 5281SOL    HW216176   3.157   3.432  10.176
 5282SOL     OW16177   2.321   3.014  10.051
 5282SOL    HW116178   2.250   2.987  10.116
 5282SOL    HW216179   2.295   2.986   9.958
 5283SOL     OW16180   3.133   3.659   9.901
 5283SOL    HW116181   3.177   3.723   9.837
 5283SOL    HW216182   3.083   3.711   9.971
 5284SOL     OW16183   2.894   2.411   9.326
 5284SOL    HW116184   2.853   2.493   9.287
 5284SOL    HW216185   2.958   2.437   9.399
 5285SOL     OW16186   1.940   2.418  10.696
 5285SOL    HW116187   2.032   2.417  10.655
 5285SOL    HW216188   1.934   2.492  10.763
 5286SOL     OW16189   2.728   2.316   9.952
 5286SOL    HW116190   2.696   2.388   9.890
 5286SOL    HW216191   2.752   2.235   9.899
 5287SOL     OW16192   2.879   1.901  10.063
 5287SOL    HW116193   2.807   1.906   9.994
 5287SOL    HW216194   2.855   1.832  10.132
 5288SOL     OW16195   3.291   3.035  10.177
 5288SOL    HW116196   3.236   2.951  10.170
 5288SOL    HW216197   3.317   3.064  10.085
 5289SOL     OW16198   3.328   2.452  10.302
 5289SOL    HW116199   3.298   2.357  10.309
 5289SOL    HW216200   3.401   2.468  10.368
 5290SOL     OW16201   3.719   2.695   9.687
 5290SOL    HW116202   3.761   2.631   9.751
 5290SOL    HW216203   3.681   2.644   9.609
 5291SOL     OW16204   2.350   3.247   9.484
 5291SOL    HW116205   2.263   3.232   9.531
 5291SOL    HW216206   2.333   3.273   9.389
 5292SOL     OW16207   3.526   3.142   9.967
 5292SOL    HW116208   3.625   3.150   9.981
 5292SOL    HW216209   3.481   3.226   9.998
 5293SOL     OW16210   3.252   2.437   9.388
 5293SOL    HW116211   3.198   2.416   9.469
 5293SOL    HW216212   3.343   2.396   9.397
 5294SOL     OW16213   3.616   3.085  10.898
 5294SOL    HW116214   3.707   3.046  10.885
 5294SOL    HW216215   3.624   3.181  10.922
 5295SOL     OW16216   2.926   3.209  10.650
 5295SOL    HW116217   2.846   3.186  10.705
 5295SOL    HW216218   3.009   3.183  10.699
 5296SOL     OW16219   2.973   3.057  10.410
 5296SOL    HW116220   2.933   3.101  10.491
 5296SOL    HW216221   2.932   3.094  10.327
 5297SOL     OW16222   3.500   2.961  10.389
 5297SOL    HW116223   3.505   3.042  10.448
 5297SOL    HW216224   3.414   2.963  10.338
 5298SOL     OW16225   2.777   1.951  10.712
 5298SOL    HW116226   2.802   1.931  10.617
 5298SOL    HW216227   2.849   2.007  10.754
 5299SOL     OW16228   2.567   2.912   9.678
 5299SOL    HW116229   2.553   2.919   9.777
 5299SOL    HW216230   2.651   2.861   9.660
 5300SOL     OW16231   2.272   2.675  10.561
 5300SOL    HW116232   2.358   2.687  10.611
 5300SOL    HW216233   2.230   2.588  10.588
 5301SOL     OW16234   3.136   2.248  10.572
 5301SOL    HW116235   3.157   2.322  10.636
 5301SOL    HW216236   3.047   2.265  10.529
 5302SOL     OW16237   1.926   3.426  10.641
 5302SOL    HW116238   1.880   3.508  10.607
 5302SOL    HW216239   2.024   3.445  10.650
 5303SOL     OW16240   2.229   2.962   9.811
 5303SOL    HW116241   2.222   3.045   9.755
 5303SOL    HW216242   2.233   2.882   9.751
 5304SOL     OW16243   3.114   3.210   9.698
 5304SOL    HW116244   3.164   3.287   9.738
 5304SOL    HW216245   3.019   3.212   9.730
 5305SOL     OW16246   3.134   3.307  10.452
 5305SOL    HW116247   3.181   3.320  10.539
 5305SOL    HW216248   3.068   3.233  10.461
 5306SOL     OW16249   3.444   2.501   9.782
 5306SOL    HW116250   3.413   2.562   9.855
 5306SOL    HW216251   3.494   2.553   9.713
 5307SOL     OW16252   2.216   3.372  10.639
 5307SOL    HW116253   2.195   3.328  10.552
 5307SOL    HW216254   2.313   3.398  10.642
 5308SOL     OW16255   2.264   2.613  10.908
 5308SOL    HW116256   2.332   2.668  10.861
 5308SOL    HW216257   2.304   2.525  10.935
 5309SOL     OW16258   3.449   2.641  10.980
 5309SOL    HW116259   3.357   2.679  10.975
 5309SOL    HW216260   3.509   2.688  10.915
 5310SOL     OW16261   2.435   2.732  10.339
 5310SOL    HW116262   2.479   2.821  10.330
 5310SOL    HW216263   2.372   2.732  10.416
 5311SOL     OW16264   3.222   2.724  10.355
 5311SOL    HW116265   3.147   2.724  10.289
 5311SOL    HW216266   3.259   2.632  10.364
 5312SOL     OW16267   3.071   2.387   9.585
 5312SOL    HW116268   3.084   2.303   9.639
 5312SOL    HW216269   3.042   2.461   9.645
 5313SOL     OW16270   1.899   3.172  10.592
 5313SOL    HW116271   1.952   3.123  10.660
 5313SOL    HW216272   1.921   3.270  10.597
 5314SOL     OW16273   2.594   2.496  10.374
 5314SOL    HW116274   2.653   2.470  10.298
 5314SOL    HW216275   2.566   2.592  10.363
 5315SOL     OW16276   3.484   2.229   9.684
 5315SOL    HW116277   3.486   2.153   9.748
 5315SOL    HW216278   3.436   2.306   9.724
 5316SOL     OW16279   2.885   2.628  10.276
 5316SOL    HW116280   2.900   2.649  10.372
 5316SOL    HW216281   2.855   2.533  10.267
 5317SOL     OW16282   3.402   2.136   9.435
 5317SOL    HW116283   3.341   2.061   9.458
 5317SOL    HW216284   3.424   2.188   9.518
 5318SOL     OW16285   3.165   2.700   9.352
 5318SOL    HW116286   3.199   2.607   9.367
 5318SOL    HW216287   3.183   2.727   9.257
 5319SOL     OW16288   2.930   3.195  10.159
 5319SOL    HW116289   2.937   3.111  10.104
 5319SOL    HW216290   2.992   3.264  10.123
 5320SOL     OW16291   2.181   2.672  10.259
 5320SOL    HW116292   2.274   2.708  10.264
 5320SOL    HW216293   2.175   2.587  10.311
 5321SOL     OW16294   3.022   2.069  10.787
 5321SOL    HW116295   3.022   2.133  10.864
 5321SOL    HW216296   3.050   2.117  10.704
 5322SOL     OW16297   1.870   3.188   9.510
 5322SOL    HW116298   1.777   3.209   9.479
 5322SOL    HW216299   1.880   3.089   9.523
 5323SOL     OW16300   1.950   3.663  10.237
 5323SOL    HW116301   1.908   3.577  10.210
 5323SOL    HW216302   2.044   3.666  10.203
 5324SOL     OW16303   2.366   3.430  10.220
 5324SOL    HW116304   2.432   3.504  10.229
 5324SOL    HW216305   2.410   3.351  10.178
 5325SOL     OW16306   2.864   2.658  10.548
 5325SOL    HW116307   2.905   2.626  10.634
 5325SOL    HW216308   2.768   2.631  10.545
 5326SOL     OW16309   1.902   2.406  10.424
 5326SOL    HW116310   1.987   2.373  10.383
 5326SOL    HW216311   1.915   2.421  10.522
 5327SOL     OW16312   2.677   2.434   9.635
 5327SOL    HW116313   2.684   2.345   9.589
 5327SOL    HW216314   2.583   2.468   9.627
 5328SOL     OW16315   3.519   2.466  10.516
 5328SOL    HW116316   3.481   2.397  10.578
 5328SOL    HW216317   3.601   2.430  10.472
 5329SOL     OW16318   2.114   3.426  11.054
 5329SOL    HW116319   2.084   3.483  11.130
 5329SOL    HW216320   2.107   3.329  11.080
 5330SOL     OW16321   2.533   2.326  10.579
 5330SOL    HW116322   2.499   2.237  10.549
 5330SOL    HW216323   2.559   2.380  10.499
 5331SOL     OW16324   2.792   3.540  10.775
 5331SOL    HW116325   2.768   3.522  10.680
 5331SOL    HW216326   2.822   3.634  10.785
 5332SOL     OW16327   2.021   2.999  10.776
 5332SOL    HW116328   2.043   2.938  10.852
 5332SOL    HW216329   2.031   2.950  10.690
 5333SOL     OW16330   3.209   2.921  10.544
 5333SOL    HW116331   3.233   2.858  10.470
 5333SOL    HW216332   3.119   2.961  10.526
 5334SOL     OW16333   3.164   2.717   9.619
 5334SOL    HW116334   3.078   2.686   9.661
 5334SOL    HW216335   3.160   2.703   9.520
 5335SOL     OW16336   3.621   3.609  10.464
 5335SOL    HW116337   3.682   3.639  10.391
 5335SOL    HW216338   3.583   3.520  10.442
 5336SOL     OW16339   3.114   3.593  10.438
 5336SOL    HW116340   3.198   3.598  10.384
 5336SOL    HW216341   3.091   3.497  10.456
 5337SOL     OW16342   1.945   3.120  10.332
 5337SOL    HW116343   1.940   3.119  10.432
 5337SOL    HW216344   1.862   3.079  10.294
 5338SOL     OW16345   3.588   1.997   9.833
 5338SOL    HW116346   3.661   1.980   9.766
 5338SOL    HW216347   3.557   1.910   9.871
 5339SOL     OW16348   3.250   3.435   9.787
 5339SOL    HW116349   3.317   3.447   9.713
 5339SOL    HW216350   3.210   3.524   9.810
 5340SOL     OW16351   3.142   2.789   9.982
 5340SOL    HW116352   3.202   2.708   9.984
 5340SOL    HW216353   3.182   2.858   9.922
 5341SOL     OW16354   2.692   3.135  10.732
 5341SOL    HW116355   2.687   3.168  10.827
 5341SOL    HW216356   2.606   3.154  10.686
 5342SOL     OW16357   2.534   3.478   9.464
 5342SOL    HW116358   2.543   3.488   9.365
 5342SOL    HW216359   2.494   3.389   9.485
 5343SOL     OW16360   3.512   3.582  10.704
 5343SOL    HW116361   3.565   3.592  10.620
 5343SOL    HW216362   3.485   3.672  10.738
 5344SOL     OW16363   3.703   2.037  10.273
 5344SOL    HW116364   3.742   1.952  10.237
 5344SOL    HW216365   3.605   2.039  10.254
 5345SOL     OW16366   3.056   3.474   9.341
 5345SOL    HW116367   3.062   3.381   9.378
 5345SOL    HW216368   2.997   3.474   9.261
 5346SOL     OW16369   2.684   2.864  10.682
 5346SOL    HW116370   2.724   2.863  10.590
 5346SOL    HW216371   2.694   2.956  10.722
 5347SOL     OW16372   2.778   2.772   9.601
 5347SOL    HW116373   2.841   2.810   9.533
 5347SOL    HW216374   2.818   2.689   9.640
 5348SOL     OW16375   3.366   3.469   9.354
 5348SOL    HW116376   3.274   3.506   9.361
 5348SOL    HW216377   3.404   3.489   9.264
 5349SOL     OW16378   2.234   3.150  10.800
 5349SOL    HW116379   2.221   3.243  10.766
 5349SOL    HW216380   2.150   3.098  10.787
 5350SOL     OW16381   3.476   3.154  10.599
 5350SOL    HW116382   3.536   3.157  10.679
 5350SOL    HW216383   3.401   3.218  10.612
 5351SOL     OW16384   2.901   2.960  10.006
 5351SOL    HW116385   2.831   2.913  10.060
 5351SOL    HW216386   2.960   2.892   9.963
 5352SOL     OW16387   2.876   2.098  10.281
 5352SOL    HW116388   2.868   2.062  10.188
 5352SOL    HW216389   2.874   2.022  10.346
 5353SOL     OW16390   2.452   3.349   9.801
 5353SOL    HW116391   2.494   3.291   9.731
 5353SOL    HW216392   2.408   3.428   9.757
 5354SOL     OW16393   3.571   2.247  10.691
 5354SOL    HW116394   3.644   2.316  10.695
 5354SOL    HW216395   3.599   2.172  10.632
 5355SOL     OW16396   2.117   3.210   9.600
 5355SOL    HW116397   2.021   3.211   9.573
 5355SOL    HW216398   2.129   3.263   9.684
 5356SOL     OW16399   1.967   2.875  11.036
 5356SOL    HW116400   1.890   2.842  11.090
 5356SOL    HW216401   2.052   2.845  11.078
 5357SOL     OW16402   2.534   2.065  10.799
 5357SOL    HW116403   2.624   2.049  10.759
 5357SOL    HW216404   2.542   2.070  10.898
 5358SOL     OW16405   1.937   2.207   9.343
 5358SOL    HW116406   1.845   2.179   9.314
 5358SOL    HW216407   1.968   2.284   9.287
 5359SOL     OW16408   3.302   2.718  10.708
 5359SOL    HW116409   3.245   2.770  10.645
 5359SOL    HW216410   3.398   2.730  10.684
 5360SOL     OW16411   1.934   2.028   9.628
 5360SOL    HW116412   1.917   2.111   9.574
 5360SOL    HW216413   2.024   1.991   9.606
 5361SOL     OW16414   3.045   3.197   9.429
 5361SOL    HW116415   2.946   3.186   9.431
 5361SOL    HW216416   3.079   3.212   9.522
 5362SOL     OW16417   2.475   2.704  10.741
 5362SOL    HW116418   2.531   2.785  10.724
 5362SOL    HW216419   2.534   2.624  10.744
 5363SOL     OW16420   3.355   3.629  10.269
 5363SOL    HW116421   3.388   3.693  10.200
 5363SOL    HW216422   3.421   3.623  10.344
 5364SOL     OW16423   2.578   2.427  11.018
 5364SOL    HW116424   2.597   2.492  11.092
 5364SOL    HW216425   2.638   2.347  11.027
 5365SOL     OW16426   2.252   3.603  10.870
 5365SOL    HW116427   2.161   3.644  10.868
 5365SOL    HW216428   2.245   3.509  10.902
 5366SOL     OW16429   3.536   2.745  10.564
 5366SOL    HW116430   3.509   2.656  10.527
 5366SOL    HW216431   3.537   2.813  10.491
 5367SOL     OW16432   3.087   2.187   9.759
 5367SOL    HW116433   3.152   2.113   9.748
 5367SOL    HW216434   3.107   2.237   9.843
 5368SOL     OW16435   2.456   2.607   9.962
 5368SOL    HW116436   2.506   2.692   9.943
 5368SOL    HW216437   2.368   2.609   9.914
 5369SOL     OW16438   3.639   2.204  10.952
 5369SOL    HW116439   3.622   2.235  10.858
 5369SOL    HW216440   3.555   2.167  10.990
 5370SOL     OW16441   3.592   2.796  10.827
 5370SOL    HW116442   3.630   2.887  10.842
 5370SOL    HW216443   3.584   2.779  10.728
 5371SOL     OW16444   2.721   3.236   9.326
 5371SOL    HW116445   2.675   3.251   9.414
 5371SOL    HW216446   2.765   3.321   9.296
 5372SOL     OW16447   2.523   3.652  10.263
 5372SOL    HW116448   2.477   3.740  10.250
 5372SOL    HW216449   2.622   3.664  10.256
 5373SOL     OW16450   2.721   2.818  10.171
 5373SOL    HW116451   2.775   2.749  10.219
 5373SOL    HW216452   2.689   2.887  10.237
 5374SOL     OW16453   2.945   2.846   9.397
 5374SOL    HW116454   2.922   2.899   9.315
 5374SOL    HW216455   3.026   2.790   9.378
 5375SOL     OW16456   3.723   3.431  10.161
 5375SOL    HW116457   3.652   3.419  10.091
 5375SOL    HW216458   3.724   3.352  10.221
 5376SOL     OW16459   1.941   3.102   9.963
 5376SOL    HW116460   1.940   3.055  10.051
 5376SOL    HW216461   2.023   3.074   9.912
 5377SOL     OW16462   2.534   3.253  10.934
 5377SOL    HW116463   2.456   3.203  10.972
 5377SOL    HW216464   2.531   3.348  10.965
 5378SOL     OW16465   3.686   2.054  10.537
 5378SOL    HW116466   3.682   1.964  10.581
 5378SOL    HW216467   3.689   2.043  10.438
 5379SOL     OW16468   3.567   3.349  10.414
 5379SOL    HW116469   3.474   3.324  10.387
 5379SOL    HW216470   3.593   3.299  10.496
 5380SOL     OW16471   2.674   3.448   9.997
 5380SOL    HW116472   2.706   3.458   9.903
 5380SOL    HW216473   2.595   3.386   9.999
 5381SOL     OW16474   3.286   2.076  10.422
 5381SOL    HW116475   3.338   2.011  10.477
 5381SOL    HW216476   3.237   2.139  10.483
 5382SOL     OW16477   2.863   1.896  10.464
 5382SOL    HW116478   2.800   1.824  10.433
 5382SOL    HW216479   2.956   1.860  10.464
 5383SOL     OW16480   2.632   3.192   9.611
 5383SOL    HW116481   2.586   3.105   9.628
 5383SOL    HW216482   2.723   3.189   9.652
 5384SOL     OW16483   2.480   3.429  10.594
 5384SOL    HW116484   2.475   3.511  10.651
 5384SOL    HW216485   2.569   3.426  10.549
 5385SOL     OW16486   3.214   1.914   9.478
 5385SOL    HW116487   3.249   1.873   9.394
 5385SOL    HW216488   3.124   1.876   9.498
 5386SOL     OW16489   3.162   2.315  10.001
 5386SOL    HW116490   3.103   2.395  10.005
 5386SOL    HW216491   3.177   2.280  10.094
 5387SOL     OW16492   3.455   2.083  10.192
 5387SOL    HW116493   3.371   2.082  10.246
 5387SOL    HW216494   3.457   2.166  10.136
 5388SOL     OW16495   1.901   2.939   9.610
 5388SOL    HW116496   2.000   2.928   9.601
 5388SOL    HW216497   1.861   2.853   9.642
 5389SOL     OW16498   2.737   3.508   9.647
 5389SOL    HW116499   2.660   3.473   9.593
 5389SOL    HW216500   2.705   3.579   9.709
 5390SOL     OW16501   2.092   4.352   0.113
 5390SOL    HW116502   1.999   4.350   0.150
 5390SOL    HW216503   2.093   4.313   0.021
 5391SOL     OW16504   2.087   3.999   0.996
 5391SOL    HW116505   2.122   3.982   1.088
 5391SOL    HW216506   1.999   3.954   0.984
 5392SOL     OW16507   1.881   4.092   0.647
 5392SOL    HW116508   1.799   4.135   0.686
 5392SOL    HW216509   1.853   4.019   0.584
 5393SOL     OW16510   3.617   4.331   0.231
 5393SOL    HW116511   3.605   4.318   0.132
 5393SOL    HW216512   3.587   4.250   0.280
 5394SOL     OW16513   2.547   4.736   0.665
 5394SOL    HW116514   2.616   4.720   0.735
 5394SOL    HW216515   2.474   4.793   0.703
 5395SOL     OW16516   2.300   4.116   1.499
 5395SOL    HW116517   2.382   4.060   1.508
 5395SOL    HW216518   2.219   4.058   1.503
 5396SOL     OW16519   3.465   4.171   0.737
 5396SOL    HW116520   3.391   4.217   0.687
 5396SOL    HW216521   3.516   4.239   0.790
 5397SOL     OW16522   3.456   3.838   1.480
 5397SOL    HW116523   3.438   3.905   1.408
 5397SOL    HW216524   3.453   3.884   1.569
 5398SOL     OW16525   1.984   4.367   0.563
 5398SOL    HW116526   1.939   4.279   0.580
 5398SOL    HW216527   1.983   4.421   0.647
 5399SOL     OW16528   1.975   4.461   1.597
 5399SOL    HW116529   2.063   4.448   1.642
 5399SOL    HW216530   1.962   4.558   1.575
 5400SOL     OW16531   2.671   3.728   0.502
 5400SOL    HW116532   2.711   3.819   0.493
 5400SOL    HW216533   2.571   3.736   0.508
 5401SOL     OW16534   2.179   3.975   1.801
 5401SOL    HW116535   2.250   4.046   1.807
 5401SOL    HW216536   2.091   4.014   1.829
 5402SOL     OW16537   3.143   4.069   0.944
 5402SOL    HW116538   3.057   4.019   0.931
 5402SOL    HW216539   3.205   4.015   1.000
 5403SOL     OW16540   2.669   4.329   1.465
 5403SOL    HW116541   2.622   4.326   1.554
 5403SOL    HW216542   2.618   4.274   1.399
 5404SOL     OW16543   3.256   4.193   1.674
 5404SOL    HW116544   3.236   4.236   1.762
 5404SOL    HW216545   3.334   4.131   1.683
 5405SOL     OW16546   2.853   4.134   1.242
 5405SOL    HW116547   2.776   4.168   1.296
 5405SOL    HW216548   2.819   4.083   1.163
 5406SOL     OW16549   2.903   4.425   0.429
 5406SOL    HW116550   2.929   4.421   0.525
 5406SOL    HW216551   2.818   4.374   0.415
 5407SOL     OW16552   2.727   4.072   0.195
 5407SOL    HW116553   2.786   4.135   0.146
 5407SOL    HW216554   2.746   3.978   0.166
 5408SOL     OW16555   3.581   4.309   1.831
 5408SOL    HW116556   3.555   4.398   1.795
 5408SOL    HW216557   3.579   4.241   1.758
 5409SOL     OW16558   2.412   3.920   0.885
 5409SOL    HW116559   2.407   3.915   0.985
 5409SOL    HW216560   2.414   4.016   0.856
 5410SOL     OW16561   3.320   4.459   0.728
 5410SOL    HW116562   3.315   4.394   0.803
 5410SOL    HW216563   3.400   4.518   0.741
 5411SOL     OW16564   2.064   4.009   1.498
 5411SOL    HW116565   1.984   4.069   1.485
 5411SOL    HW216566   2.054   3.960   1.584
 5412SOL     OW16567   3.262   3.831   0.426
 5412SOL    HW116568   3.238   3.794   0.336
 5412SOL    HW216569   3.361   3.847   0.430
 5413SOL     OW16570   2.244   4.424   0.480
 5413SOL    HW116571   2.289   4.334   0.477
 5413SOL    HW216572   2.150   4.413   0.513
 5414SOL     OW16573   3.409   3.946   1.729
 5414SOL    HW116574   3.404   3.983   1.821
 5414SOL    HW216575   3.337   3.877   1.717
 5415SOL     OW16576   2.476   3.846   0.117
 5415SOL    HW116577   2.574   3.824   0.124
 5415SOL    HW216578   2.445   3.829   0.024
 5416SOL     OW16579   2.643   3.988   1.749
 5416SOL    HW116580   2.710   3.927   1.792
 5416SOL    HW216581   2.570   4.007   1.814
 5417SOL     OW16582   3.213   4.314   1.433
 5417SOL    HW116583   3.241   4.271   1.518
 5417SOL    HW216584   3.238   4.410   1.434
 5418SOL     OW16585   2.784   4.227   0.899
 5418SOL    HW116586   2.759   4.218   0.803
 5418SOL    HW216587   2.832   4.145   0.930
 5419SOL     OW16588   2.401   3.788   0.512
 5419SOL    HW116589   2.320   3.789   0.570
 5419SOL    HW216590   2.404   3.871   0.457
 5420SOL     OW16591   2.159   3.759   0.171
 5420SOL    HW116592   2.208   3.843   0.150
 5420SOL    HW216593   2.221   3.694   0.216
 5421SOL     OW16594   2.797   3.960   0.480
 5421SOL    HW116595   2.749   4.001   0.402
 5421SOL    HW216596   2.896   3.958   0.461
 5422SOL     OW16597   2.938   4.407   1.464
 5422SOL    HW116598   2.858   4.346   1.467
 5422SOL    HW216599   3.019   4.354   1.440
 5423SOL     OW16600   2.894   4.273   0.016
 5423SOL    HW116601   2.853   4.355  -0.023
 5423SOL    HW216602   2.958   4.299   0.089
 5424SOL     OW16603   1.940   4.280   1.386
 5424SOL    HW116604   2.032   4.279   1.345
 5424SOL    HW216605   1.934   4.354   1.453
 5425SOL     OW16606   2.423   3.946   1.147
 5425SOL    HW116607   2.461   3.862   1.184
 5425SOL    HW216608   2.335   3.965   1.191
 5426SOL     OW16609   2.728   4.178   0.642
 5426SOL    HW116610   2.696   4.250   0.580
 5426SOL    HW216611   2.752   4.097   0.589
 5427SOL     OW16612   2.879   3.763   0.753
 5427SOL    HW116613   2.807   3.768   0.684
 5427SOL    HW216614   2.855   3.694   0.822
 5428SOL     OW16615   3.328   4.314   0.992
 5428SOL    HW116616   3.298   4.219   0.999
 5428SOL    HW216617   3.401   4.330   1.058
 5429SOL     OW16618   3.252   4.299   0.078
 5429SOL    HW116619   3.198   4.278   0.159
 5429SOL    HW216620   3.343   4.258   0.087
 5430SOL     OW16621   2.389   3.980   0.328
 5430SOL    HW116622   2.416   3.921   0.253
 5430SOL    HW216623   2.389   4.075   0.297
 5431SOL     OW16624   2.777   3.813   1.402
 5431SOL    HW116625   2.802   3.793   1.307
 5431SOL    HW216626   2.849   3.869   1.444
 5432SOL     OW16627   2.272   4.537   1.251
 5432SOL    HW116628   2.358   4.549   1.301
 5432SOL    HW216629   2.230   4.450   1.278
 5433SOL     OW16630   3.136   4.110   1.262
 5433SOL    HW116631   3.157   4.184   1.326
 5433SOL    HW216632   3.047   4.127   1.219
 5434SOL     OW16633   2.428   4.261   0.865
 5434SOL    HW116634   2.440   4.327   0.791
 5434SOL    HW216635   2.474   4.295   0.948
 5435SOL     OW16636   3.444   4.363   0.472
 5435SOL    HW116637   3.413   4.424   0.545
 5435SOL    HW216638   3.494   4.415   0.403
 5436SOL     OW16639   2.875   3.829   1.770
 5436SOL    HW116640   2.881   3.914   1.718
 5436SOL    HW216641   2.907   3.753   1.713
 5437SOL     OW16642   2.366   3.774   1.740
 5437SOL    HW116643   2.324   3.717   1.670
 5437SOL    HW216644   2.300   3.843   1.772
 5438SOL     OW16645   3.071   4.249   0.275
 5438SOL    HW116646   3.084   4.165   0.329
 5438SOL    HW216647   3.042   4.323   0.335
 5439SOL     OW16648   2.169   3.937   1.231
 5439SOL    HW116649   2.146   3.974   1.321
 5439SOL    HW216650   2.139   3.842   1.225
 5440SOL     OW16651   2.594   4.358   1.064
 5440SOL    HW116652   2.653   4.332   0.988
 5440SOL    HW216653   2.566   4.454   1.053
 5441SOL     OW16654   3.590   4.659   1.854
 5441SOL    HW116655   3.544   4.652   1.765
 5441SOL    HW216656   3.528   4.703   1.920
 5442SOL     OW16657   2.169   3.787   0.618
 5442SOL    HW116658   2.158   3.881   0.651
 5442SOL    HW216659   2.164   3.724   0.695
 5443SOL     OW16660   3.484   4.091   0.374
 5443SOL    HW116661   3.486   4.015   0.438
 5443SOL    HW216662   3.436   4.168   0.414
 5444SOL     OW16663   3.402   3.998   0.125
 5444SOL    HW116664   3.341   3.923   0.148
 5444SOL    HW216665   3.424   4.050   0.208
 5445SOL     OW16666   2.181   4.534   0.949
 5445SOL    HW116667   2.274   4.570   0.954
 5445SOL    HW216668   2.175   4.449   1.001
 5446SOL     OW16669   2.201   4.233   1.006
 5446SOL    HW116670   2.149   4.150   0.989
 5446SOL    HW216671   2.278   4.238   0.942
 5447SOL     OW16672   3.000   4.104   1.678
 5447SOL    HW116673   2.955   4.167   1.742
 5447SOL    HW216674   3.093   4.135   1.661
 5448SOL     OW16675   3.022   3.931   1.477
 5448SOL    HW116676   3.022   3.995   1.554
 5448SOL    HW216677   3.050   3.979   1.394
 5449SOL     OW16678   1.902   4.268   1.114
 5449SOL    HW116679   1.987   4.235   1.073
 5449SOL    HW216680   1.915   4.283   1.212
 5450SOL     OW16681   2.051   4.244   1.722
 5450SOL    HW116682   2.110   4.204   1.652
 5450SOL    HW216683   1.993   4.315   1.681
 5451SOL     OW16684   2.677   4.296   0.325
 5451SOL    HW116685   2.684   4.207   0.279
 5451SOL    HW216686   2.583   4.330   0.317
 5452SOL     OW16687   3.519   4.328   1.206
 5452SOL    HW116688   3.481   4.259   1.268
 5452SOL    HW216689   3.601   4.292   1.162
 5453SOL     OW16690   2.533   4.188   1.269
 5453SOL    HW116691   2.499   4.099   1.239
 5453SOL    HW216692   2.559   4.242   1.189
 5454SOL     OW16693   2.335   4.224   0.191
 5454SOL    HW116694   2.396   4.304   0.195
 5454SOL    HW216695   2.240   4.255   0.198
 5455SOL     OW16696   2.765   3.810   0.133
 5455SOL    HW116697   2.816   3.811   0.047
 5455SOL    HW216698   2.821   3.768   0.204
 5456SOL     OW16699   3.588   3.859   0.523
 5456SOL    HW116700   3.661   3.842   0.456
 5456SOL    HW216701   3.557   3.772   0.561
 5457SOL     OW16702   3.142   4.651   0.672
 5457SOL    HW116703   3.202   4.570   0.674
 5457SOL    HW216704   3.182   4.720   0.612
 5458SOL     OW16705   3.703   3.899   0.963
 5458SOL    HW116706   3.742   3.814   0.927
 5458SOL    HW216707   3.605   3.901   0.944
 5459SOL     OW16708   2.125   4.050   0.720
 5459SOL    HW116709   2.046   4.101   0.686
 5459SOL    HW216710   2.116   4.035   0.818
 5460SOL     OW16711   2.901   4.822   0.696
 5460SOL    HW116712   2.831   4.775   0.750
 5460SOL    HW216713   2.960   4.754   0.653
 5461SOL     OW16714   2.876   3.960   0.971
 5461SOL    HW116715   2.868   3.924   0.878
 5461SOL    HW216716   2.874   3.884   1.036
 5462SOL     OW16717   3.571   4.109   1.381
 5462SOL    HW116718   3.644   4.178   1.385
 5462SOL    HW216719   3.599   4.034   1.322
 5463SOL     OW16720   2.534   3.927   1.489
 5463SOL    HW116721   2.624   3.911   1.449
 5463SOL    HW216722   2.542   3.932   1.588
 5464SOL     OW16723   1.937   4.069   0.033
 5464SOL    HW116724   1.845   4.041   0.004
 5464SOL    HW216725   1.968   4.146  -0.023
 5465SOL     OW16726   1.934   3.890   0.318
 5465SOL    HW116727   1.917   3.973   0.264
 5465SOL    HW216728   2.024   3.853   0.296
 5466SOL     OW16729   2.578   4.289   1.708
 5466SOL    HW116730   2.597   4.354   1.782
 5466SOL    HW216731   2.638   4.209   1.717
 5467SOL     OW16732   3.087   4.049   0.449
 5467SOL    HW116733   3.152   3.975   0.438
 5467SOL    HW216734   3.107   4.099   0.533
 5468SOL     OW16735   3.639   4.066   1.642
 5468SOL    HW116736   3.622   4.097   1.548
 5468SOL    HW216737   3.555   4.029   1.680
 5469SOL     OW16738   2.945   4.708   0.087
 5469SOL    HW116739   2.922   4.761   0.005
 5469SOL    HW216740   3.026   4.652   0.068
 5470SOL     OW16741   3.686   3.916   1.227
 5470SOL    HW116742   3.682   3.826   1.271
 5470SOL    HW216743   3.689   3.905   1.128
 5471SOL     OW16744   2.290   4.148   0.520
 5471SOL    HW116745   2.320   4.076   0.458
 5471SOL    HW216746   2.251   4.108   0.603
 5472SOL     OW16747   2.179   4.271   1.280
 5472SOL    HW116748   2.217   4.212   1.352
 5472SOL    HW216749   2.219   4.245   1.192
 5473SOL     OW16750   3.286   3.938   1.112
 5473SOL    HW116751   3.338   3.873   1.167
 5473SOL    HW216752   3.237   4.001   1.173
 5474SOL     OW16753   2.863   3.758   1.154
 5474SOL    HW116754   2.800   3.686   1.123
 5474SOL    HW216755   2.956   3.722   1.154
 5475SOL     OW16756   3.214   3.776   0.168
 5475SOL    HW116757   3.249   3.735   0.084
 5475SOL    HW216758   3.124   3.738   0.188
 5476SOL     OW16759   3.162   4.177   0.691
 5476SOL    HW116760   3.103   4.257   0.695
 5476SOL    HW216761   3.177   4.142   0.784
 5477SOL     OW16762   3.455   3.945   0.882
 5477SOL    HW116763   3.371   3.944   0.936
 5477SOL    HW216764   3.457   4.028   0.826
 5478SOL     OW16765   2.092   4.352   1.975
 5478SOL    HW116766   1.999   4.350   2.012
 5478SOL    HW216767   2.093   4.313   1.883
 5479SOL     OW16768   2.087   3.999   2.858
 5479SOL    HW116769   2.122   3.982   2.950
 5479SOL    HW216770   1.999   3.954   2.846
 5480SOL     OW16771   1.881   4.092   2.509
 5480SOL    HW116772   1.799   4.135   2.548
 5480SOL    HW216773   1.853   4.019   2.446
 5481SOL     OW16774   3.617   4.331   2.093
 5481SOL    HW116775   3.605   4.318   1.994
 5481SOL    HW216776   3.587   4.250   2.142
 5482SOL     OW16777   2.547   4.736   2.527
 5482SOL    HW116778   2.616   4.720   2.597
 5482SOL    HW216779   2.474   4.793   2.565
 5483SOL     OW16780   2.300   4.116   3.361
 5483SOL    HW116781   2.382   4.060   3.370
 5483SOL    HW216782   2.219   4.058   3.365
 5484SOL     OW16783   3.465   4.171   2.599
 5484SOL    HW116784   3.391   4.217   2.549
 5484SOL    HW216785   3.516   4.239   2.652
 5485SOL     OW16786   3.456   3.838   3.342
 5485SOL    HW116787   3.438   3.905   3.270
 5485SOL    HW216788   3.453   3.884   3.431
 5486SOL     OW16789   1.984   4.367   2.425
 5486SOL    HW116790   1.939   4.279   2.442
 5486SOL    HW216791   1.983   4.421   2.509
 5487SOL     OW16792   1.975   4.461   3.459
 5487SOL    HW116793   2.063   4.448   3.504
 5487SOL    HW216794   1.962   4.558   3.437
 5488SOL     OW16795   2.671   3.728   2.364
 5488SOL    HW116796   2.711   3.819   2.355
 5488SOL    HW216797   2.571   3.736   2.370
 5489SOL     OW16798   2.179   3.975   3.663
 5489SOL    HW116799   2.250   4.046   3.669
 5489SOL    HW216800   2.091   4.014   3.691
 5490SOL     OW16801   3.143   4.069   2.806
 5490SOL    HW116802   3.057   4.019   2.793
 5490SOL    HW216803   3.205   4.015   2.862
 5491SOL     OW16804   2.669   4.329   3.327
 5491SOL    HW116805   2.622   4.326   3.416
 5491SOL    HW216806   2.618   4.274   3.261
 5492SOL     OW16807   3.256   4.193   3.536
 5492SOL    HW116808   3.236   4.236   3.624
 5492SOL    HW216809   3.334   4.131   3.545
 5493SOL     OW16810   2.853   4.134   3.104
 5493SOL    HW116811   2.776   4.168   3.158
 5493SOL    HW216812   2.819   4.083   3.025
 5494SOL     OW16813   2.903   4.425   2.291
 5494SOL    HW116814   2.929   4.421   2.387
 5494SOL    HW216815   2.818   4.374   2.277
 5495SOL     OW16816   2.727   4.072   2.057
 5495SOL    HW116817   2.786   4.135   2.008
 5495SOL    HW216818   2.746   3.978   2.028
 5496SOL     OW16819   3.581   4.309   3.693
 5496SOL    HW116820   3.555   4.398   3.657
 5496SOL    HW216821   3.579   4.241   3.620
 5497SOL     OW16822   2.412   3.920   2.747
 5497SOL    HW116823   2.407   3.915   2.847
 5497SOL    HW216824   2.414   4.016   2.718
 5498SOL     OW16825   3.320   4.459   2.590
 5498SOL    HW116826   3.315   4.394   2.665
 5498SOL    HW216827   3.400   4.518   2.603
 5499SOL     OW16828   2.064   4.009   3.360
 5499SOL    HW116829   1.984   4.069   3.347
 5499SOL    HW216830   2.054   3.960   3.446
 5500SOL     OW16831   3.262   3.831   2.288
 5500SOL    HW116832   3.238   3.794   2.198
 5500SOL    HW216833   3.361   3.847   2.292
 5501SOL     OW16834   2.244   4.424   2.342
 5501SOL    HW116835   2.289   4.334   2.339
 5501SOL    HW216836   2.150   4.413   2.375
 5502SOL     OW16837   3.409   3.946   3.591
 5502SOL    HW116838   3.404   3.983   3.683
 5502SOL    HW216839   3.337   3.877   3.579
 5503SOL     OW16840   2.476   3.846   1.979
 5503SOL    HW116841   2.574   3.824   1.986
 5503SOL    HW216842   2.445   3.829   1.886
 5504SOL     OW16843   2.643   3.988   3.611
 5504SOL    HW116844   2.710   3.927   3.654
 5504SOL    HW216845   2.570   4.007   3.676
 5505SOL     OW16846   3.213   4.314   3.295
 5505SOL    HW116847   3.241   4.271   3.380
 5505SOL    HW216848   3.238   4.410   3.296
 5506SOL     OW16849   2.784   4.227   2.761
 5506SOL    HW116850   2.759   4.218   2.665
 5506SOL    HW216851   2.832   4.145   2.792
 5507SOL     OW16852   2.401   3.788   2.374
 5507SOL    HW116853   2.320   3.789   2.432
 5507SOL    HW216854   2.404   3.871   2.319
 5508SOL     OW16855   2.159   3.759   2.033
 5508SOL    HW116856   2.208   3.843   2.012
 5508SOL    HW216857   2.221   3.694   2.078
 5509SOL     OW16858   2.797   3.960   2.342
 5509SOL    HW116859   2.749   4.001   2.264
 5509SOL    HW216860   2.896   3.958   2.323
 5510SOL     OW16861   2.938   4.407   3.326
 5510SOL    HW116862   2.858   4.346   3.329
 5510SOL    HW216863   3.019   4.354   3.302
 5511SOL     OW16864   2.894   4.273   1.878
 5511SOL    HW116865   2.853   4.355   1.839
 5511SOL    HW216866   2.958   4.299   1.951
 5512SOL     OW16867   1.940   4.280   3.248
 5512SOL    HW116868   2.032   4.279   3.207
 5512SOL    HW216869   1.934   4.354   3.315
 5513SOL     OW16870   2.423   3.946   3.009
 5513SOL    HW116871   2.461   3.862   3.046
 5513SOL    HW216872   2.335   3.965   3.053
 5514SOL     OW16873   2.728   4.178   2.504
 5514SOL    HW116874   2.696   4.250   2.442
 5514SOL    HW216875   2.752   4.097   2.451
 5515SOL     OW16876   2.879   3.763   2.615
 5515SOL    HW116877   2.807   3.768   2.546
 5515SOL    HW216878   2.855   3.694   2.684
 5516SOL     OW16879   3.328   4.314   2.854
 5516SOL    HW116880   3.298   4.219   2.861
 5516SOL    HW216881   3.401   4.330   2.920
 5517SOL     OW16882   3.252   4.299   1.940
 5517SOL    HW116883   3.198   4.278   2.021
 5517SOL    HW216884   3.343   4.258   1.949
 5518SOL     OW16885   2.389   3.980   2.190
 5518SOL    HW116886   2.416   3.921   2.115
 5518SOL    HW216887   2.389   4.075   2.159
 5519SOL     OW16888   2.777   3.813   3.264
 5519SOL    HW116889   2.802   3.793   3.169
 5519SOL    HW216890   2.849   3.869   3.306
 5520SOL     OW16891   2.272   4.537   3.113
 5520SOL    HW116892   2.358   4.549   3.163
 5520SOL    HW216893   2.230   4.450   3.140
 5521SOL     OW16894   3.136   4.110   3.124
 5521SOL    HW116895   3.157   4.184   3.188
 5521SOL    HW216896   3.047   4.127   3.081
 5522SOL     OW16897   2.428   4.261   2.727
 5522SOL    HW116898   2.440   4.327   2.653
 5522SOL    HW216899   2.474   4.295   2.810
 5523SOL     OW16900   3.444   4.363   2.334
 5523SOL    HW116901   3.413   4.424   2.407
 5523SOL    HW216902   3.494   4.415   2.265
 5524SOL     OW16903   2.875   3.829   3.632
 5524SOL    HW116904   2.881   3.914   3.580
 5524SOL    HW216905   2.907   3.753   3.575
 5525SOL     OW16906   2.366   3.774   3.602
 5525SOL    HW116907   2.324   3.717   3.532
 5525SOL    HW216908   2.300   3.843   3.634
 5526SOL     OW16909   3.071   4.249   2.137
 5526SOL    HW116910   3.084   4.165   2.191
 5526SOL    HW216911   3.042   4.323   2.197
 5527SOL     OW16912   2.169   3.937   3.093
 5527SOL    HW116913   2.146   3.974   3.183
 5527SOL    HW216914   2.139   3.842   3.087
 5528SOL     OW16915   2.594   4.358   2.926
 5528SOL    HW116916   2.653   4.332   2.850
 5528SOL    HW216917   2.566   4.454   2.915
 5529SOL     OW16918   3.590   4.659   3.716
 5529SOL    HW116919   3.544   4.652   3.627
 5529SOL    HW216920   3.528   4.703   3.782
 5530SOL     OW16921   2.169   3.787   2.480
 5530SOL    HW116922   2.158   3.881   2.513
 5530SOL    HW216923   2.164   3.724   2.557
 5531SOL     OW16924   3.484   4.091   2.236
 5531SOL    HW116925   3.486   4.015   2.300
 5531SOL    HW216926   3.436   4.168   2.276
 5532SOL     OW16927   3.402   3.998   1.987
 5532SOL    HW116928   3.341   3.923   2.010
 5532SOL    HW216929   3.424   4.050   2.070
 5533SOL     OW16930   2.181   4.534   2.811
 5533SOL    HW116931   2.274   4.570   2.816
 5533SOL    HW216932   2.175   4.449   2.863
 5534SOL     OW16933   2.201   4.233   2.868
 5534SOL    HW116934   2.149   4.150   2.851
 5534SOL    HW216935   2.278   4.238   2.804
 5535SOL     OW16936   3.000   4.104   3.540
 5535SOL    HW116937   2.955   4.167   3.604
 5535SOL    HW216938   3.093   4.135   3.523
 5536SOL     OW16939   3.022   3.931   3.339
 5536SOL    HW116940   3.022   3.995   3.416
 5536SOL    HW216941   3.050   3.979   3.256
 5537SOL     OW16942   1.902   4.268   2.976
 5537SOL    HW116943   1.987   4.235   2.935
 5537SOL    HW216944   1.915   4.283   3.074
 5538SOL     OW16945   2.051   4.244   3.584
 5538SOL    HW116946   2.110   4.204   3.514
 5538SOL    HW216947   1.993   4.315   3.543
 5539SOL     OW16948   2.677   4.296   2.187
 5539SOL    HW116949   2.684   4.207   2.141
 5539SOL    HW216950   2.583   4.330   2.179
 5540SOL     OW16951   3.519   4.328   3.068
 5540SOL    HW116952   3.481   4.259   3.130
 5540SOL    HW216953   3.601   4.292   3.024
 5541SOL     OW16954   2.533   4.188   3.131
 5541SOL    HW116955   2.499   4.099   3.101
 5541SOL    HW216956   2.559   4.242   3.051
 5542SOL     OW16957   2.335   4.224   2.053
 5542SOL    HW116958   2.396   4.304   2.057
 5542SOL    HW216959   2.240   4.255   2.060
 5543SOL     OW16960   3.588   3.859   2.385
 5543SOL    HW116961   3.661   3.842   2.318
 5543SOL    HW216962   3.557   3.772   2.423
 5544SOL     OW16963   3.142   4.651   2.534
 5544SOL    HW116964   3.202   4.570   2.536
 5544SOL    HW216965   3.182   4.720   2.474
 5545SOL     OW16966   3.703   3.899   2.825
 5545SOL    HW116967   3.742   3.814   2.789
 5545SOL    HW216968   3.605   3.901   2.806
 5546SOL     OW16969   2.125   4.050   2.582
 5546SOL    HW116970   2.046   4.101   2.548
 5546SOL    HW216971   2.116   4.035   2.680
 5547SOL     OW16972   2.778   4.634   2.153
 5547SOL    HW116973   2.841   4.672   2.085
 5547SOL    HW216974   2.818   4.551   2.192
 5548SOL     OW16975   2.901   4.822   2.558
 5548SOL    HW116976   2.831   4.775   2.612
 5548SOL    HW216977   2.960   4.754   2.515
 5549SOL     OW16978   2.876   3.960   2.833
 5549SOL    HW116979   2.868   3.924   2.740
 5549SOL    HW216980   2.874   3.884   2.898
 5550SOL     OW16981   3.571   4.109   3.243
 5550SOL    HW116982   3.644   4.178   3.247
 5550SOL    HW216983   3.599   4.034   3.184
 5551SOL     OW16984   2.534   3.927   3.351
 5551SOL    HW116985   2.624   3.911   3.311
 5551SOL    HW216986   2.542   3.932   3.450
 5552SOL     OW16987   1.937   4.069   1.895
 5552SOL    HW116988   1.845   4.041   1.866
 5552SOL    HW216989   1.968   4.146   1.839
 5553SOL     OW16990   1.934   3.890   2.180
 5553SOL    HW116991   1.917   3.973   2.126
 5553SOL    HW216992   2.024   3.853   2.158
 5554SOL     OW16993   2.578   4.289   3.570
 5554SOL    HW116994   2.597   4.354   3.644
 5554SOL    HW216995   2.638   4.209   3.579
 5555SOL     OW16996   3.087   4.049   2.311
 5555SOL    HW116997   3.152   3.975   2.300
 5555SOL    HW216998   3.107   4.099   2.395
 5556SOL     OW16999   3.639   4.066   3.504
 5556SOL    HW117000   3.622   4.097   3.410
 5556SOL    HW217001   3.555   4.029   3.542
 5557SOL     OW17002   2.945   4.708   1.949
 5557SOL    HW117003   2.922   4.761   1.867
 5557SOL    HW217004   3.026   4.652   1.930
 5558SOL     OW17005   3.686   3.916   3.089
 5558SOL    HW117006   3.682   3.826   3.133
 5558SOL    HW217007   3.689   3.905   2.990
 5559SOL     OW17008   2.290   4.148   2.382
 5559SOL    HW117009   2.320   4.076   2.320
 5559SOL    HW217010   2.251   4.108   2.465
 5560SOL     OW17011   2.179   4.271   3.142
 5560SOL    HW117012   2.217   4.212   3.214
 5560SOL    HW217013   2.219   4.245   3.054
 5561SOL     OW17014   3.286   3.938   2.974
 5561SOL    HW117015   3.338   3.873   3.029
 5561SOL    HW217016   3.237   4.001   3.035
 5562SOL     OW17017   2.863   3.758   3.016
 5562SOL    HW117018   2.800   3.686   2.985
 5562SOL    HW217019   2.956   3.722   3.016
 5563SOL     OW17020   3.214   3.776   2.030
 5563SOL    HW117021   3.249   3.735   1.946
 5563SOL    HW217022   3.124   3.738   2.050
 5564SOL     OW17023   3.162   4.177   2.553
 5564SOL    HW117024   3.103   4.257   2.557
 5564SOL    HW217025   3.177   4.142   2.646
 5565SOL     OW17026   3.455   3.945   2.744
 5565SOL    HW117027   3.371   3.944   2.798
 5565SOL    HW217028   3.457   4.028   2.688
 5566SOL     OW17029   2.092   4.352   3.837
 5566SOL    HW117030   1.999   4.350   3.874
 5566SOL    HW217031   2.093   4.313   3.745
 5567SOL     OW17032   2.087   3.999   4.720
 5567SOL    HW117033   2.122   3.982   4.812
 5567SOL    HW217034   1.999   3.954   4.708
 5568SOL     OW17035   1.881   4.092   4.371
 5568SOL    HW117036   1.799   4.135   4.410
 5568SOL    HW217037   1.853   4.019   4.308
 5569SOL     OW17038   3.617   4.331   3.955
 5569SOL    HW117039   3.605   4.318   3.856
 5569SOL    HW217040   3.587   4.250   4.004
 5570SOL     OW17041   2.547   4.736   4.389
 5570SOL    HW117042   2.616   4.720   4.459
 5570SOL    HW217043   2.474   4.793   4.427
 5571SOL     OW17044   2.300   4.116   5.223
 5571SOL    HW117045   2.382   4.060   5.232
 5571SOL    HW217046   2.219   4.058   5.227
 5572SOL     OW17047   3.465   4.171   4.461
 5572SOL    HW117048   3.391   4.217   4.411
 5572SOL    HW217049   3.516   4.239   4.514
 5573SOL     OW17050   3.456   3.838   5.204
 5573SOL    HW117051   3.438   3.905   5.132
 5573SOL    HW217052   3.453   3.884   5.293
 5574SOL     OW17053   1.984   4.367   4.287
 5574SOL    HW117054   1.939   4.279   4.304
 5574SOL    HW217055   1.983   4.421   4.371
 5575SOL     OW17056   1.975   4.461   5.321
 5575SOL    HW117057   2.063   4.448   5.366
 5575SOL    HW217058   1.962   4.558   5.299
 5576SOL     OW17059   2.671   3.728   4.226
 5576SOL    HW117060   2.711   3.819   4.217
 5576SOL    HW217061   2.571   3.736   4.232
 5577SOL     OW17062   2.179   3.975   5.525
 5577SOL    HW117063   2.250   4.046   5.531
 5577SOL    HW217064   2.091   4.014   5.553
 5578SOL     OW17065   3.143   4.069   4.668
 5578SOL    HW117066   3.057   4.019   4.655
 5578SOL    HW217067   3.205   4.015   4.724
 5579SOL     OW17068   2.669   4.329   5.189
 5579SOL    HW117069   2.622   4.326   5.278
 5579SOL    HW217070   2.618   4.274   5.123
 5580SOL     OW17071   3.256   4.193   5.398
 5580SOL    HW117072   3.236   4.236   5.486
 5580SOL    HW217073   3.334   4.131   5.407
 5581SOL     OW17074   2.853   4.134   4.966
 5581SOL    HW117075   2.776   4.168   5.020
 5581SOL    HW217076   2.819   4.083   4.887
 5582SOL     OW17077   2.903   4.425   4.153
 5582SOL    HW117078   2.929   4.421   4.249
 5582SOL    HW217079   2.818   4.374   4.139
 5583SOL     OW17080   2.727   4.072   3.919
 5583SOL    HW117081   2.786   4.135   3.870
 5583SOL    HW217082   2.746   3.978   3.890
 5584SOL     OW17083   3.581   4.309   5.555
 5584SOL    HW117084   3.555   4.398   5.519
 5584SOL    HW217085   3.579   4.241   5.482
 5585SOL     OW17086   2.412   3.920   4.609
 5585SOL    HW117087   2.407   3.915   4.709
 5585SOL    HW217088   2.414   4.016   4.580
 5586SOL     OW17089   3.320   4.459   4.452
 5586SOL    HW117090   3.315   4.394   4.527
 5586SOL    HW217091   3.400   4.518   4.465
 5587SOL     OW17092   2.064   4.009   5.222
 5587SOL    HW117093   1.984   4.069   5.209
 5587SOL    HW217094   2.054   3.960   5.308
 5588SOL     OW17095   3.262   3.831   4.150
 5588SOL    HW117096   3.238   3.794   4.060
 5588SOL    HW217097   3.361   3.847   4.154
 5589SOL     OW17098   2.244   4.424   4.204
 5589SOL    HW117099   2.289   4.334   4.201
 5589SOL    HW217100   2.150   4.413   4.237
 5590SOL     OW17101   3.409   3.946   5.453
 5590SOL    HW117102   3.404   3.983   5.545
 5590SOL    HW217103   3.337   3.877   5.441
 5591SOL     OW17104   2.476   3.846   3.841
 5591SOL    HW117105   2.574   3.824   3.848
 5591SOL    HW217106   2.445   3.829   3.748
 5592SOL     OW17107   2.643   3.988   5.473
 5592SOL    HW117108   2.710   3.927   5.516
 5592SOL    HW217109   2.570   4.007   5.538
 5593SOL     OW17110   3.213   4.314   5.157
 5593SOL    HW117111   3.241   4.271   5.242
 5593SOL    HW217112   3.238   4.410   5.158
 5594SOL     OW17113   2.784   4.227   4.623
 5594SOL    HW117114   2.759   4.218   4.527
 5594SOL    HW217115   2.832   4.145   4.654
 5595SOL     OW17116   2.401   3.788   4.236
 5595SOL    HW117117   2.320   3.789   4.294
 5595SOL    HW217118   2.404   3.871   4.181
 5596SOL     OW17119   2.159   3.759   3.895
 5596SOL    HW117120   2.208   3.843   3.874
 5596SOL    HW217121   2.221   3.694   3.940
 5597SOL     OW17122   2.797   3.960   4.204
 5597SOL    HW117123   2.749   4.001   4.126
 5597SOL    HW217124   2.896   3.958   4.185
 5598SOL     OW17125   2.938   4.407   5.188
 5598SOL    HW117126   2.858   4.346   5.191
 5598SOL    HW217127   3.019   4.354   5.164
 5599SOL     OW17128   2.894   4.273   3.740
 5599SOL    HW117129   2.853   4.355   3.701
 5599SOL    HW217130   2.958   4.299   3.813
 5600SOL     OW17131   1.940   4.280   5.110
 5600SOL    HW117132   2.032   4.279   5.069
 5600SOL    HW217133   1.934   4.354   5.177
 5601SOL     OW17134   2.423   3.946   4.871
 5601SOL    HW117135   2.461   3.862   4.908
 5601SOL    HW217136   2.335   3.965   4.915
 5602SOL     OW17137   2.728   4.178   4.366
 5602SOL    HW117138   2.696   4.250   4.304
 5602SOL    HW217139   2.752   4.097   4.313
 5603SOL     OW17140   2.879   3.763   4.477
 5603SOL    HW117141   2.807   3.768   4.408
 5603SOL    HW217142   2.855   3.694   4.546
 5604SOL     OW17143   3.328   4.314   4.716
 5604SOL    HW117144   3.298   4.219   4.723
 5604SOL    HW217145   3.401   4.330   4.782
 5605SOL     OW17146   3.252   4.299   3.802
 5605SOL    HW117147   3.198   4.278   3.883
 5605SOL    HW217148   3.343   4.258   3.811
 5606SOL     OW17149   2.389   3.980   4.052
 5606SOL    HW117150   2.416   3.921   3.977
 5606SOL    HW217151   2.389   4.075   4.021
 5607SOL     OW17152   2.777   3.813   5.126
 5607SOL    HW117153   2.802   3.793   5.031
 5607SOL    HW217154   2.849   3.869   5.168
 5608SOL     OW17155   2.272   4.537   4.975
 5608SOL    HW117156   2.358   4.549   5.025
 5608SOL    HW217157   2.230   4.450   5.002
 5609SOL     OW17158   3.136   4.110   4.986
 5609SOL    HW117159   3.157   4.184   5.050
 5609SOL    HW217160   3.047   4.127   4.943
 5610SOL     OW17161   2.428   4.261   4.589
 5610SOL    HW117162   2.440   4.327   4.515
 5610SOL    HW217163   2.474   4.295   4.672
 5611SOL     OW17164   3.444   4.363   4.196
 5611SOL    HW117165   3.413   4.424   4.269
 5611SOL    HW217166   3.494   4.415   4.127
 5612SOL     OW17167   2.875   3.829   5.494
 5612SOL    HW117168   2.881   3.914   5.442
 5612SOL    HW217169   2.907   3.753   5.437
 5613SOL     OW17170   2.366   3.774   5.464
 5613SOL    HW117171   2.324   3.717   5.394
 5613SOL    HW217172   2.300   3.843   5.496
 5614SOL     OW17173   3.071   4.249   3.999
 5614SOL    HW117174   3.084   4.165   4.053
 5614SOL    HW217175   3.042   4.323   4.059
 5615SOL     OW17176   2.169   3.937   4.955
 5615SOL    HW117177   2.146   3.974   5.045
 5615SOL    HW217178   2.139   3.842   4.949
 5616SOL     OW17179   2.594   4.358   4.788
 5616SOL    HW117180   2.653   4.332   4.712
 5616SOL    HW217181   2.566   4.454   4.777
 5617SOL     OW17182   3.590   4.659   5.578
 5617SOL    HW117183   3.544   4.652   5.489
 5617SOL    HW217184   3.528   4.703   5.644
 5618SOL     OW17185   2.169   3.787   4.342
 5618SOL    HW117186   2.158   3.881   4.375
 5618SOL    HW217187   2.164   3.724   4.419
 5619SOL     OW17188   3.484   4.091   4.098
 5619SOL    HW117189   3.486   4.015   4.162
 5619SOL    HW217190   3.436   4.168   4.138
 5620SOL     OW17191   3.402   3.998   3.849
 5620SOL    HW117192   3.341   3.923   3.872
 5620SOL    HW217193   3.424   4.050   3.932
 5621SOL     OW17194   2.181   4.534   4.673
 5621SOL    HW117195   2.274   4.570   4.678
 5621SOL    HW217196   2.175   4.449   4.725
 5622SOL     OW17197   2.201   4.233   4.730
 5622SOL    HW117198   2.149   4.150   4.713
 5622SOL    HW217199   2.278   4.238   4.666
 5623SOL     OW17200   3.000   4.104   5.402
 5623SOL    HW117201   2.955   4.167   5.466
 5623SOL    HW217202   3.093   4.135   5.385
 5624SOL     OW17203   3.022   3.931   5.201
 5624SOL    HW117204   3.022   3.995   5.278
 5624SOL    HW217205   3.050   3.979   5.118
 5625SOL     OW17206   1.902   4.268   4.838
 5625SOL    HW117207   1.987   4.235   4.797
 5625SOL    HW217208   1.915   4.283   4.936
 5626SOL     OW17209   2.051   4.244   5.446
 5626SOL    HW117210   2.110   4.204   5.376
 5626SOL    HW217211   1.993   4.315   5.405
 5627SOL     OW17212   2.677   4.296   4.049
 5627SOL    HW117213   2.684   4.207   4.003
 5627SOL    HW217214   2.583   4.330   4.041
 5628SOL     OW17215   3.519   4.328   4.930
 5628SOL    HW117216   3.481   4.259   4.992
 5628SOL    HW217217   3.601   4.292   4.886
 5629SOL     OW17218   2.533   4.188   4.993
 5629SOL    HW117219   2.499   4.099   4.963
 5629SOL    HW217220   2.559   4.242   4.913
 5630SOL     OW17221   2.335   4.224   3.915
 5630SOL    HW117222   2.396   4.304   3.919
 5630SOL    HW217223   2.240   4.255   3.922
 5631SOL     OW17224   3.588   3.859   4.247
 5631SOL    HW117225   3.661   3.842   4.180
 5631SOL    HW217226   3.557   3.772   4.285
 5632SOL     OW17227   3.142   4.651   4.396
 5632SOL    HW117228   3.202   4.570   4.398
 5632SOL    HW217229   3.182   4.720   4.336
 5633SOL     OW17230   3.703   3.899   4.687
 5633SOL    HW117231   3.742   3.814   4.651
 5633SOL    HW217232   3.605   3.901   4.668
 5634SOL     OW17233   2.125   4.050   4.444
 5634SOL    HW117234   2.046   4.101   4.410
 5634SOL    HW217235   2.116   4.035   4.542
 5635SOL     OW17236   2.778   4.634   4.015
 5635SOL    HW117237   2.841   4.672   3.947
 5635SOL    HW217238   2.818   4.551   4.054
 5636SOL     OW17239   2.901   4.822   4.420
 5636SOL    HW117240   2.831   4.775   4.474
 5636SOL    HW217241   2.960   4.754   4.377
 5637SOL     OW17242   2.876   3.960   4.695
 5637SOL    HW117243   2.868   3.924   4.602
 5637SOL    HW217244   2.874   3.884   4.760
 5638SOL     OW17245   3.571   4.109   5.105
 5638SOL    HW117246   3.644   4.178   5.109
 5638SOL    HW217247   3.599   4.034   5.046
 5639SOL     OW17248   2.534   3.927   5.213
 5639SOL    HW117249   2.624   3.911   5.173
 5639SOL    HW217250   2.542   3.932   5.312
 5640SOL     OW17251   1.937   4.069   3.757
 5640SOL    HW117252   1.845   4.041   3.728
 5640SOL    HW217253   1.968   4.146   3.701
 5641SOL     OW17254   1.934   3.890   4.042
 5641SOL    HW117255   1.917   3.973   3.988
 5641SOL    HW217256   2.024   3.853   4.020
 5642SOL     OW17257   2.578   4.289   5.432
 5642SOL    HW117258   2.597   4.354   5.506
 5642SOL    HW217259   2.638   4.209   5.441
 5643SOL     OW17260   3.087   4.049   4.173
 5643SOL    HW117261   3.152   3.975   4.162
 5643SOL    HW217262   3.107   4.099   4.257
 5644SOL     OW17263   3.639   4.066   5.366
 5644SOL    HW117264   3.622   4.097   5.272
 5644SOL    HW217265   3.555   4.029   5.404
 5645SOL     OW17266   2.945   4.708   3.811
 5645SOL    HW117267   2.922   4.761   3.729
 5645SOL    HW217268   3.026   4.652   3.792
 5646SOL     OW17269   3.686   3.916   4.951
 5646SOL    HW117270   3.682   3.826   4.995
 5646SOL    HW217271   3.689   3.905   4.852
 5647SOL     OW17272   2.290   4.148   4.244
 5647SOL    HW117273   2.320   4.076   4.182
 5647SOL    HW217274   2.251   4.108   4.327
 5648SOL     OW17275   2.179   4.271   5.004
 5648SOL    HW117276   2.217   4.212   5.076
 5648SOL    HW217277   2.219   4.245   4.916
 5649SOL     OW17278   3.286   3.938   4.836
 5649SOL    HW117279   3.338   3.873   4.891
 5649SOL    HW217280   3.237   4.001   4.897
 5650SOL     OW17281   2.863   3.758   4.878
 5650SOL    HW117282   2.800   3.686   4.847
 5650SOL    HW217283   2.956   3.722   4.878
 5651SOL     OW17284   3.214   3.776   3.892
 5651SOL    HW117285   3.249   3.735   3.808
 5651SOL    HW217286   3.124   3.738   3.912
 5652SOL     OW17287   3.162   4.177   4.415
 5652SOL    HW117288   3.103   4.257   4.419
 5652SOL    HW217289   3.177   4.142   4.508
 5653SOL     OW17290   3.455   3.945   4.606
 5653SOL    HW117291   3.371   3.944   4.660
 5653SOL    HW217292   3.457   4.028   4.550
 5654SOL     OW17293   2.092   4.352   5.699
 5654SOL    HW117294   1.999   4.350   5.736
 5654SOL    HW217295   2.093   4.313   5.607
 5655SOL     OW17296   2.087   3.999   6.582
 5655SOL    HW117297   2.122   3.982   6.674
 5655SOL    HW217298   1.999   3.954   6.570
 5656SOL     OW17299   1.881   4.092   6.233
 5656SOL    HW117300   1.799   4.135   6.272
 5656SOL    HW217301   1.853   4.019   6.170
 5657SOL     OW17302   3.617   4.331   5.817
 5657SOL    HW117303   3.605   4.318   5.718
 5657SOL    HW217304   3.587   4.250   5.866
 5658SOL     OW17305   2.547   4.736   6.251
 5658SOL    HW117306   2.616   4.720   6.321
 5658SOL    HW217307   2.474   4.793   6.289
 5659SOL     OW17308   2.300   4.116   7.085
 5659SOL    HW117309   2.382   4.060   7.094
 5659SOL    HW217310   2.219   4.058   7.089
 5660SOL     OW17311   3.465   4.171   6.323
 5660SOL    HW117312   3.391   4.217   6.273
 5660SOL    HW217313   3.516   4.239   6.376
 5661SOL     OW17314   3.456   3.838   7.066
 5661SOL    HW117315   3.438   3.905   6.994
 5661SOL    HW217316   3.453   3.884   7.155
 5662SOL     OW17317   1.984   4.367   6.149
 5662SOL    HW117318   1.939   4.279   6.166
 5662SOL    HW217319   1.983   4.421   6.233
 5663SOL     OW17320   1.975   4.461   7.183
 5663SOL    HW117321   2.063   4.448   7.228
 5663SOL    HW217322   1.962   4.558   7.161
 5664SOL     OW17323   2.671   3.728   6.088
 5664SOL    HW117324   2.711   3.819   6.079
 5664SOL    HW217325   2.571   3.736   6.094
 5665SOL     OW17326   2.179   3.975   7.387
 5665SOL    HW117327   2.250   4.046   7.393
 5665SOL    HW217328   2.091   4.014   7.415
 5666SOL     OW17329   3.143   4.069   6.530
 5666SOL    HW117330   3.057   4.019   6.517
 5666SOL    HW217331   3.205   4.015   6.586
 5667SOL     OW17332   2.669   4.329   7.051
 5667SOL    HW117333   2.622   4.326   7.140
 5667SOL    HW217334   2.618   4.274   6.985
 5668SOL     OW17335   3.256   4.193   7.260
 5668SOL    HW117336   3.236   4.236   7.348
 5668SOL    HW217337   3.334   4.131   7.269
 5669SOL     OW17338   2.853   4.134   6.828
 5669SOL    HW117339   2.776   4.168   6.882
 5669SOL    HW217340   2.819   4.083   6.749
 5670SOL     OW17341   2.903   4.425   6.015
 5670SOL    HW117342   2.929   4.421   6.111
 5670SOL    HW217343   2.818   4.374   6.001
 5671SOL     OW17344   2.727   4.072   5.781
 5671SOL    HW117345   2.786   4.135   5.732
 5671SOL    HW217346   2.746   3.978   5.752
 5672SOL     OW17347   3.581   4.309   7.417
 5672SOL    HW117348   3.555   4.398   7.381
 5672SOL    HW217349   3.579   4.241   7.344
 5673SOL     OW17350   2.412   3.920   6.471
 5673SOL    HW117351   2.407   3.915   6.571
 5673SOL    HW217352   2.414   4.016   6.442
 5674SOL     OW17353   3.320   4.459   6.314
 5674SOL    HW117354   3.315   4.394   6.389
 5674SOL    HW217355   3.400   4.518   6.327
 5675SOL     OW17356   2.064   4.009   7.084
 5675SOL    HW117357   1.984   4.069   7.071
 5675SOL    HW217358   2.054   3.960   7.170
 5676SOL     OW17359   3.262   3.831   6.012
 5676SOL    HW117360   3.238   3.794   5.922
 5676SOL    HW217361   3.361   3.847   6.016
 5677SOL     OW17362   2.244   4.424   6.066
 5677SOL    HW117363   2.289   4.334   6.063
 5677SOL    HW217364   2.150   4.413   6.099
 5678SOL     OW17365   3.409   3.946   7.315
 5678SOL    HW117366   3.404   3.983   7.407
 5678SOL    HW217367   3.337   3.877   7.303
 5679SOL     OW17368   2.476   3.846   5.703
 5679SOL    HW117369   2.574   3.824   5.710
 5679SOL    HW217370   2.445   3.829   5.610
 5680SOL     OW17371   2.643   3.988   7.335
 5680SOL    HW117372   2.710   3.927   7.378
 5680SOL    HW217373   2.570   4.007   7.400
 5681SOL     OW17374   3.213   4.314   7.019
 5681SOL    HW117375   3.241   4.271   7.104
 5681SOL    HW217376   3.238   4.410   7.020
 5682SOL     OW17377   2.784   4.227   6.485
 5682SOL    HW117378   2.759   4.218   6.389
 5682SOL    HW217379   2.832   4.145   6.516
 5683SOL     OW17380   2.401   3.788   6.098
 5683SOL    HW117381   2.320   3.789   6.156
 5683SOL    HW217382   2.404   3.871   6.043
 5684SOL     OW17383   2.159   3.759   5.757
 5684SOL    HW117384   2.208   3.843   5.736
 5684SOL    HW217385   2.221   3.694   5.802
 5685SOL     OW17386   2.797   3.960   6.066
 5685SOL    HW117387   2.749   4.001   5.988
 5685SOL    HW217388   2.896   3.958   6.047
 5686SOL     OW17389   2.938   4.407   7.050
 5686SOL    HW117390   2.858   4.346   7.053
 5686SOL    HW217391   3.019   4.354   7.026
 5687SOL     OW17392   2.894   4.273   5.602
 5687SOL    HW117393   2.853   4.355   5.563
 5687SOL    HW217394   2.958   4.299   5.675
 5688SOL     OW17395   1.940   4.280   6.972
 5688SOL    HW117396   2.032   4.279   6.931
 5688SOL    HW217397   1.934   4.354   7.039
 5689SOL     OW17398   2.423   3.946   6.733
 5689SOL    HW117399   2.461   3.862   6.770
 5689SOL    HW217400   2.335   3.965   6.777
 5690SOL     OW17401   2.728   4.178   6.228
 5690SOL    HW117402   2.696   4.250   6.166
 5690SOL    HW217403   2.752   4.097   6.175
 5691SOL     OW17404   2.879   3.763   6.339
 5691SOL    HW117405   2.807   3.768   6.270
 5691SOL    HW217406   2.855   3.694   6.408
 5692SOL     OW17407   3.328   4.314   6.578
 5692SOL    HW117408   3.298   4.219   6.585
 5692SOL    HW217409   3.401   4.330   6.644
 5693SOL     OW17410   3.252   4.299   5.664
 5693SOL    HW117411   3.198   4.278   5.745
 5693SOL    HW217412   3.343   4.258   5.673
 5694SOL     OW17413   2.389   3.980   5.914
 5694SOL    HW117414   2.416   3.921   5.839
 5694SOL    HW217415   2.389   4.075   5.883
 5695SOL     OW17416   2.777   3.813   6.988
 5695SOL    HW117417   2.802   3.793   6.893
 5695SOL    HW217418   2.849   3.869   7.030
 5696SOL     OW17419   2.272   4.537   6.837
 5696SOL    HW117420   2.358   4.549   6.887
 5696SOL    HW217421   2.230   4.450   6.864
 5697SOL     OW17422   3.136   4.110   6.848
 5697SOL    HW117423   3.157   4.184   6.912
 5697SOL    HW217424   3.047   4.127   6.805
 5698SOL     OW17425   2.428   4.261   6.451
 5698SOL    HW117426   2.440   4.327   6.377
 5698SOL    HW217427   2.474   4.295   6.534
 5699SOL     OW17428   3.444   4.363   6.058
 5699SOL    HW117429   3.413   4.424   6.131
 5699SOL    HW217430   3.494   4.415   5.989
 5700SOL     OW17431   2.875   3.829   7.356
 5700SOL    HW117432   2.881   3.914   7.304
 5700SOL    HW217433   2.907   3.753   7.299
 5701SOL     OW17434   2.366   3.774   7.326
 5701SOL    HW117435   2.324   3.717   7.256
 5701SOL    HW217436   2.300   3.843   7.358
 5702SOL     OW17437   3.071   4.249   5.861
 5702SOL    HW117438   3.084   4.165   5.915
 5702SOL    HW217439   3.042   4.323   5.921
 5703SOL     OW17440   2.169   3.937   6.817
 5703SOL    HW117441   2.146   3.974   6.907
 5703SOL    HW217442   2.139   3.842   6.811
 5704SOL     OW17443   2.594   4.358   6.650
 5704SOL    HW117444   2.653   4.332   6.574
 5704SOL    HW217445   2.566   4.454   6.639
 5705SOL     OW17446   3.590   4.659   7.440
 5705SOL    HW117447   3.544   4.652   7.351
 5705SOL    HW217448   3.528   4.703   7.506
 5706SOL     OW17449   2.169   3.787   6.204
 5706SOL    HW117450   2.158   3.881   6.237
 5706SOL    HW217451   2.164   3.724   6.281
 5707SOL     OW17452   3.484   4.091   5.960
 5707SOL    HW117453   3.486   4.015   6.024
 5707SOL    HW217454   3.436   4.168   6.000
 5708SOL     OW17455   3.402   3.998   5.711
 5708SOL    HW117456   3.341   3.923   5.734
 5708SOL    HW217457   3.424   4.050   5.794
 5709SOL     OW17458   2.181   4.534   6.535
 5709SOL    HW117459   2.274   4.570   6.540
 5709SOL    HW217460   2.175   4.449   6.587
 5710SOL     OW17461   2.201   4.233   6.592
 5710SOL    HW117462   2.149   4.150   6.575
 5710SOL    HW217463   2.278   4.238   6.528
 5711SOL     OW17464   3.000   4.104   7.264
 5711SOL    HW117465   2.955   4.167   7.328
 5711SOL    HW217466   3.093   4.135   7.247
 5712SOL     OW17467   3.022   3.931   7.063
 5712SOL    HW117468   3.022   3.995   7.140
 5712SOL    HW217469   3.050   3.979   6.980
 5713SOL     OW17470   1.902   4.268   6.700
 5713SOL    HW117471   1.987   4.235   6.659
 5713SOL    HW217472   1.915   4.283   6.798
 5714SOL     OW17473   2.051   4.244   7.308
 5714SOL    HW117474   2.110   4.204   7.238
 5714SOL    HW217475   1.993   4.315   7.267
 5715SOL     OW17476   2.677   4.296   5.911
 5715SOL    HW117477   2.684   4.207   5.865
 5715SOL    HW217478   2.583   4.330   5.903
 5716SOL     OW17479   3.519   4.328   6.792
 5716SOL    HW117480   3.481   4.259   6.854
 5716SOL    HW217481   3.601   4.292   6.748
 5717SOL     OW17482   2.533   4.188   6.855
 5717SOL    HW117483   2.499   4.099   6.825
 5717SOL    HW217484   2.559   4.242   6.775
 5718SOL     OW17485   2.335   4.224   5.777
 5718SOL    HW117486   2.396   4.304   5.781
 5718SOL    HW217487   2.240   4.255   5.784
 5719SOL     OW17488   3.588   3.859   6.109
 5719SOL    HW117489   3.661   3.842   6.042
 5719SOL    HW217490   3.557   3.772   6.147
 5720SOL     OW17491   3.142   4.651   6.258
 5720SOL    HW117492   3.202   4.570   6.260
 5720SOL    HW217493   3.182   4.720   6.198
 5721SOL     OW17494   3.703   3.899   6.549
 5721SOL    HW117495   3.742   3.814   6.513
 5721SOL    HW217496   3.605   3.901   6.530
 5722SOL     OW17497   2.125   4.050   6.306
 5722SOL    HW117498   2.046   4.101   6.272
 5722SOL    HW217499   2.116   4.035   6.404
 5723SOL     OW17500   2.778   4.634   5.877
 5723SOL    HW117501   2.841   4.672   5.809
 5723SOL    HW217502   2.818   4.551   5.916
 5724SOL     OW17503   2.901   4.822   6.282
 5724SOL    HW117504   2.831   4.775   6.336
 5724SOL    HW217505   2.960   4.754   6.239
 5725SOL     OW17506   2.876   3.960   6.557
 5725SOL    HW117507   2.868   3.924   6.464
 5725SOL    HW217508   2.874   3.884   6.622
 5726SOL     OW17509   3.571   4.109   6.967
 5726SOL    HW117510   3.644   4.178   6.971
 5726SOL    HW217511   3.599   4.034   6.908
 5727SOL     OW17512   2.534   3.927   7.075
 5727SOL    HW117513   2.624   3.911   7.035
 5727SOL    HW217514   2.542   3.932   7.174
 5728SOL     OW17515   1.937   4.069   5.619
 5728SOL    HW117516   1.845   4.041   5.590
 5728SOL    HW217517   1.968   4.146   5.563
 5729SOL     OW17518   1.934   3.890   5.904
 5729SOL    HW117519   1.917   3.973   5.850
 5729SOL    HW217520   2.024   3.853   5.882
 5730SOL     OW17521   2.578   4.289   7.294
 5730SOL    HW117522   2.597   4.354   7.368
 5730SOL    HW217523   2.638   4.209   7.303
 5731SOL     OW17524   3.087   4.049   6.035
 5731SOL    HW117525   3.152   3.975   6.024
 5731SOL    HW217526   3.107   4.099   6.119
 5732SOL     OW17527   3.639   4.066   7.228
 5732SOL    HW117528   3.622   4.097   7.134
 5732SOL    HW217529   3.555   4.029   7.266
 5733SOL     OW17530   2.945   4.708   5.673
 5733SOL    HW117531   2.922   4.761   5.591
 5733SOL    HW217532   3.026   4.652   5.654
 5734SOL     OW17533   3.686   3.916   6.813
 5734SOL    HW117534   3.682   3.826   6.857
 5734SOL    HW217535   3.689   3.905   6.714
 5735SOL     OW17536   2.290   4.148   6.106
 5735SOL    HW117537   2.320   4.076   6.044
 5735SOL    HW217538   2.251   4.108   6.189
 5736SOL     OW17539   2.179   4.271   6.866
 5736SOL    HW117540   2.217   4.212   6.938
 5736SOL    HW217541   2.219   4.245   6.778
 5737SOL     OW17542   3.286   3.938   6.698
 5737SOL    HW117543   3.338   3.873   6.753
 5737SOL    HW217544   3.237   4.001   6.759
 5738SOL     OW17545   2.863   3.758   6.740
 5738SOL    HW117546   2.800   3.686   6.709
 5738SOL    HW217547   2.956   3.722   6.740
 5739SOL     OW17548   3.214   3.776   5.754
 5739SOL    HW117549   3.249   3.735   5.670
 5739SOL    HW217550   3.124   3.738   5.774
 5740SOL     OW17551   3.162   4.177   6.277
 5740SOL    HW117552   3.103   4.257   6.281
 5740SOL    HW217553   3.177   4.142   6.370
 5741SOL     OW17554   3.455   3.945   6.468
 5741SOL    HW117555   3.371   3.944   6.522
 5741SOL    HW217556   3.457   4.028   6.412
 5742SOL     OW17557   2.092   4.352   7.561
 5742SOL    HW117558   1.999   4.350   7.598
 5742SOL    HW217559   2.093   4.313   7.469
 5743SOL     OW17560   2.087   3.999   8.444
 5743SOL    HW117561   2.122   3.982   8.536
 5743SOL    HW217562   1.999   3.954   8.432
 5744SOL     OW17563   1.881   4.092   8.095
 5744SOL    HW117564   1.799   4.135   8.134
 5744SOL    HW217565   1.853   4.019   8.032
 5745SOL     OW17566   3.617   4.331   7.679
 5745SOL    HW117567   3.605   4.318   7.580
 5745SOL    HW217568   3.587   4.250   7.728
 5746SOL     OW17569   2.547   4.736   8.113
 5746SOL    HW117570   2.616   4.720   8.183
 5746SOL    HW217571   2.474   4.793   8.151
 5747SOL     OW17572   2.300   4.116   8.947
 5747SOL    HW117573   2.382   4.060   8.956
 5747SOL    HW217574   2.219   4.058   8.951
 5748SOL     OW17575   3.465   4.171   8.185
 5748SOL    HW117576   3.391   4.217   8.135
 5748SOL    HW217577   3.516   4.239   8.238
 5749SOL     OW17578   3.456   3.838   8.928
 5749SOL    HW117579   3.438   3.905   8.856
 5749SOL    HW217580   3.453   3.884   9.017
 5750SOL     OW17581   1.984   4.367   8.011
 5750SOL    HW117582   1.939   4.279   8.028
 5750SOL    HW217583   1.983   4.421   8.095
 5751SOL     OW17584   1.975   4.461   9.045
 5751SOL    HW117585   2.063   4.448   9.090
 5751SOL    HW217586   1.962   4.558   9.023
 5752SOL     OW17587   2.671   3.728   7.950
 5752SOL    HW117588   2.711   3.819   7.941
 5752SOL    HW217589   2.571   3.736   7.956
 5753SOL     OW17590   2.179   3.975   9.249
 5753SOL    HW117591   2.250   4.046   9.255
 5753SOL    HW217592   2.091   4.014   9.277
 5754SOL     OW17593   3.143   4.069   8.392
 5754SOL    HW117594   3.057   4.019   8.379
 5754SOL    HW217595   3.205   4.015   8.448
 5755SOL     OW17596   2.669   4.329   8.913
 5755SOL    HW117597   2.622   4.326   9.002
 5755SOL    HW217598   2.618   4.274   8.847
 5756SOL     OW17599   3.256   4.193   9.122
 5756SOL    HW117600   3.236   4.236   9.210
 5756SOL    HW217601   3.334   4.131   9.131
 5757SOL     OW17602   2.853   4.134   8.690
 5757SOL    HW117603   2.776   4.168   8.744
 5757SOL    HW217604   2.819   4.083   8.611
 5758SOL     OW17605   2.903   4.425   7.877
 5758SOL    HW117606   2.929   4.421   7.973
 5758SOL    HW217607   2.818   4.374   7.863
 5759SOL     OW17608   2.727   4.072   7.643
 5759SOL    HW117609   2.786   4.135   7.594
 5759SOL    HW217610   2.746   3.978   7.614
 5760SOL     OW17611   3.581   4.309   9.279
 5760SOL    HW117612   3.555   4.398   9.243
 5760SOL    HW217613   3.579   4.241   9.206
 5761SOL     OW17614   2.412   3.920   8.333
 5761SOL    HW117615   2.407   3.915   8.433
 5761SOL    HW217616   2.414   4.016   8.304
 5762SOL     OW17617   3.320   4.459   8.176
 5762SOL    HW117618   3.315   4.394   8.251
 5762SOL    HW217619   3.400   4.518   8.189
 5763SOL     OW17620   2.064   4.009   8.946
 5763SOL    HW117621   1.984   4.069   8.933
 5763SOL    HW217622   2.054   3.960   9.032
 5764SOL     OW17623   3.262   3.831   7.874
 5764SOL    HW117624   3.238   3.794   7.784
 5764SOL    HW217625   3.361   3.847   7.878
 5765SOL     OW17626   2.244   4.424   7.928
 5765SOL    HW117627   2.289   4.334   7.925
 5765SOL    HW217628   2.150   4.413   7.961
 5766SOL     OW17629   3.409   3.946   9.177
 5766SOL    HW117630   3.404   3.983   9.269
 5766SOL    HW217631   3.337   3.877   9.165
 5767SOL     OW17632   2.476   3.846   7.565
 5767SOL    HW117633   2.574   3.824   7.572
 5767SOL    HW217634   2.445   3.829   7.472
 5768SOL     OW17635   2.643   3.988   9.197
 5768SOL    HW117636   2.710   3.927   9.240
 5768SOL    HW217637   2.570   4.007   9.262
 5769SOL     OW17638   3.213   4.314   8.881
 5769SOL    HW117639   3.241   4.271   8.966
 5769SOL    HW217640   3.238   4.410   8.882
 5770SOL     OW17641   2.784   4.227   8.347
 5770SOL    HW117642   2.759   4.218   8.251
 5770SOL    HW217643   2.832   4.145   8.378
 5771SOL     OW17644   2.401   3.788   7.960
 5771SOL    HW117645   2.320   3.789   8.018
 5771SOL    HW217646   2.404   3.871   7.905
 5772SOL     OW17647   2.159   3.759   7.619
 5772SOL    HW117648   2.208   3.843   7.598
 5772SOL    HW217649   2.221   3.694   7.664
 5773SOL     OW17650   2.797   3.960   7.928
 5773SOL    HW117651   2.749   4.001   7.850
 5773SOL    HW217652   2.896   3.958   7.909
 5774SOL     OW17653   2.938   4.407   8.912
 5774SOL    HW117654   2.858   4.346   8.915
 5774SOL    HW217655   3.019   4.354   8.888
 5775SOL     OW17656   2.894   4.273   7.464
 5775SOL    HW117657   2.853   4.355   7.425
 5775SOL    HW217658   2.958   4.299   7.537
 5776SOL     OW17659   1.940   4.280   8.834
 5776SOL    HW117660   2.032   4.279   8.793
 5776SOL    HW217661   1.934   4.354   8.901
 5777SOL     OW17662   2.423   3.946   8.595
 5777SOL    HW117663   2.461   3.862   8.632
 5777SOL    HW217664   2.335   3.965   8.639
 5778SOL     OW17665   2.728   4.178   8.090
 5778SOL    HW117666   2.696   4.250   8.028
 5778SOL    HW217667   2.752   4.097   8.037
 5779SOL     OW17668   2.879   3.763   8.201
 5779SOL    HW117669   2.807   3.768   8.132
 5779SOL    HW217670   2.855   3.694   8.270
 5780SOL     OW17671   3.328   4.314   8.440
 5780SOL    HW117672   3.298   4.219   8.447
 5780SOL    HW217673   3.401   4.330   8.506
 5781SOL     OW17674   3.252   4.299   7.526
 5781SOL    HW117675   3.198   4.278   7.607
 5781SOL    HW217676   3.343   4.258   7.535
 5782SOL     OW17677   2.389   3.980   7.776
 5782SOL    HW117678   2.416   3.921   7.701
 5782SOL    HW217679   2.389   4.075   7.745
 5783SOL     OW17680   2.777   3.813   8.850
 5783SOL    HW117681   2.802   3.793   8.755
 5783SOL    HW217682   2.849   3.869   8.892
 5784SOL     OW17683   2.272   4.537   8.699
 5784SOL    HW117684   2.358   4.549   8.749
 5784SOL    HW217685   2.230   4.450   8.726
 5785SOL     OW17686   3.136   4.110   8.710
 5785SOL    HW117687   3.157   4.184   8.774
 5785SOL    HW217688   3.047   4.127   8.667
 5786SOL     OW17689   2.428   4.261   8.313
 5786SOL    HW117690   2.440   4.327   8.239
 5786SOL    HW217691   2.474   4.295   8.396
 5787SOL     OW17692   3.444   4.363   7.920
 5787SOL    HW117693   3.413   4.424   7.993
 5787SOL    HW217694   3.494   4.415   7.851
 5788SOL     OW17695   2.875   3.829   9.218
 5788SOL    HW117696   2.881   3.914   9.166
 5788SOL    HW217697   2.907   3.753   9.161
 5789SOL     OW17698   2.366   3.774   9.188
 5789SOL    HW117699   2.324   3.717   9.118
 5789SOL    HW217700   2.300   3.843   9.220
 5790SOL     OW17701   3.071   4.249   7.723
 5790SOL    HW117702   3.084   4.165   7.777
 5790SOL    HW217703   3.042   4.323   7.783
 5791SOL     OW17704   2.169   3.937   8.679
 5791SOL    HW117705   2.146   3.974   8.769
 5791SOL    HW217706   2.139   3.842   8.673
 5792SOL     OW17707   2.594   4.358   8.512
 5792SOL    HW117708   2.653   4.332   8.436
 5792SOL    HW217709   2.566   4.454   8.501
 5793SOL     OW17710   3.590   4.659   9.302
 5793SOL    HW117711   3.544   4.652   9.213
 5793SOL    HW217712   3.528   4.703   9.368
 5794SOL     OW17713   2.169   3.787   8.066
 5794SOL    HW117714   2.158   3.881   8.099
 5794SOL    HW217715   2.164   3.724   8.143
 5795SOL     OW17716   3.484   4.091   7.822
 5795SOL    HW117717   3.486   4.015   7.886
 5795SOL    HW217718   3.436   4.168   7.862
 5796SOL     OW17719   3.402   3.998   7.573
 5796SOL    HW117720   3.341   3.923   7.596
 5796SOL    HW217721   3.424   4.050   7.656
 5797SOL     OW17722   2.181   4.534   8.397
 5797SOL    HW117723   2.274   4.570   8.402
 5797SOL    HW217724   2.175   4.449   8.449
 5798SOL     OW17725   2.201   4.233   8.454
 5798SOL    HW117726   2.149   4.150   8.437
 5798SOL    HW217727   2.278   4.238   8.390
 5799SOL     OW17728   3.000   4.104   9.126
 5799SOL    HW117729   2.955   4.167   9.190
 5799SOL    HW217730   3.093   4.135   9.109
 5800SOL     OW17731   3.022   3.931   8.925
 5800SOL    HW117732   3.022   3.995   9.002
 5800SOL    HW217733   3.050   3.979   8.842
 5801SOL     OW17734   1.902   4.268   8.562
 5801SOL    HW117735   1.987   4.235   8.521
 5801SOL    HW217736   1.915   4.283   8.660
 5802SOL     OW17737   2.051   4.244   9.170
 5802SOL    HW117738   2.110   4.204   9.100
 5802SOL    HW217739   1.993   4.315   9.129
 5803SOL     OW17740   2.677   4.296   7.773
 5803SOL    HW117741   2.684   4.207   7.727
 5803SOL    HW217742   2.583   4.330   7.765
 5804SOL     OW17743   3.519   4.328   8.654
 5804SOL    HW117744   3.481   4.259   8.716
 5804SOL    HW217745   3.601   4.292   8.610
 5805SOL     OW17746   2.533   4.188   8.717
 5805SOL    HW117747   2.499   4.099   8.687
 5805SOL    HW217748   2.559   4.242   8.637
 5806SOL     OW17749   2.335   4.224   7.639
 5806SOL    HW117750   2.396   4.304   7.643
 5806SOL    HW217751   2.240   4.255   7.646
 5807SOL     OW17752   3.588   3.859   7.971
 5807SOL    HW117753   3.661   3.842   7.904
 5807SOL    HW217754   3.557   3.772   8.009
 5808SOL     OW17755   3.142   4.651   8.120
 5808SOL    HW117756   3.202   4.570   8.122
 5808SOL    HW217757   3.182   4.720   8.060
 5809SOL     OW17758   3.703   3.899   8.411
 5809SOL    HW117759   3.742   3.814   8.375
 5809SOL    HW217760   3.605   3.901   8.392
 5810SOL     OW17761   2.125   4.050   8.168
 5810SOL    HW117762   2.046   4.101   8.134
 5810SOL    HW217763   2.116   4.035   8.266
 5811SOL     OW17764   2.778   4.634   7.739
 5811SOL    HW117765   2.841   4.672   7.671
 5811SOL    HW217766   2.818   4.551   7.778
 5812SOL     OW17767   2.901   4.822   8.144
 5812SOL    HW117768   2.831   4.775   8.198
 5812SOL    HW217769   2.960   4.754   8.101
 5813SOL     OW17770   2.876   3.960   8.419
 5813SOL    HW117771   2.868   3.924   8.326
 5813SOL    HW217772   2.874   3.884   8.484
 5814SOL     OW17773   3.571   4.109   8.829
 5814SOL    HW117774   3.644   4.178   8.833
 5814SOL    HW217775   3.599   4.034   8.770
 5815SOL     OW17776   2.534   3.927   8.937
 5815SOL    HW117777   2.624   3.911   8.897
 5815SOL    HW217778   2.542   3.932   9.036
 5816SOL     OW17779   1.937   4.069   7.481
 5816SOL    HW117780   1.845   4.041   7.452
 5816SOL    HW217781   1.968   4.146   7.425
 5817SOL     OW17782   1.934   3.890   7.766
 5817SOL    HW117783   1.917   3.973   7.712
 5817SOL    HW217784   2.024   3.853   7.744
 5818SOL     OW17785   2.578   4.289   9.156
 5818SOL    HW117786   2.597   4.354   9.230
 5818SOL    HW217787   2.638   4.209   9.165
 5819SOL     OW17788   3.087   4.049   7.897
 5819SOL    HW117789   3.152   3.975   7.886
 5819SOL    HW217790   3.107   4.099   7.981
 5820SOL     OW17791   3.639   4.066   9.090
 5820SOL    HW117792   3.622   4.097   8.996
 5820SOL    HW217793   3.555   4.029   9.128
 5821SOL     OW17794   2.945   4.708   7.535
 5821SOL    HW117795   2.922   4.761   7.453
 5821SOL    HW217796   3.026   4.652   7.516
 5822SOL     OW17797   3.686   3.916   8.675
 5822SOL    HW117798   3.682   3.826   8.719
 5822SOL    HW217799   3.689   3.905   8.576
 5823SOL     OW17800   2.290   4.148   7.968
 5823SOL    HW117801   2.320   4.076   7.906
 5823SOL    HW217802   2.251   4.108   8.051
 5824SOL     OW17803   2.179   4.271   8.728
 5824SOL    HW117804   2.217   4.212   8.800
 5824SOL    HW217805   2.219   4.245   8.640
 5825SOL     OW17806   3.286   3.938   8.560
 5825SOL    HW117807   3.338   3.873   8.615
 5825SOL    HW217808   3.237   4.001   8.621
 5826SOL     OW17809   2.863   3.758   8.602
 5826SOL    HW117810   2.800   3.686   8.571
 5826SOL    HW217811   2.956   3.722   8.602
 5827SOL     OW17812   3.214   3.776   7.616
 5827SOL    HW117813   3.249   3.735   7.532
 5827SOL    HW217814   3.124   3.738   7.636
 5828SOL     OW17815   3.162   4.177   8.139
 5828SOL    HW117816   3.103   4.257   8.143
 5828SOL    HW217817   3.177   4.142   8.232
 5829SOL     OW17818   3.455   3.945   8.330
 5829SOL    HW117819   3.371   3.944   8.384
 5829SOL    HW217820   3.457   4.028   8.274
 5830SOL     OW17821   2.092   4.352   9.423
 5830SOL    HW117822   1.999   4.350   9.460
 5830SOL    HW217823   2.093   4.313   9.331
 5831SOL     OW17824   2.087   3.999  10.306
 5831SOL    HW117825   2.122   3.982  10.398
 5831SOL    HW217826   1.999   3.954  10.294
 5832SOL     OW17827   1.881   4.092   9.957
 5832SOL    HW117828   1.799   4.135   9.996
 5832SOL    HW217829   1.853   4.019   9.894
 5833SOL     OW17830   3.617   4.331   9.541
 5833SOL    HW117831   3.605   4.318   9.442
 5833SOL    HW217832   3.587   4.250   9.590
 5834SOL     OW17833   2.547   4.736   9.975
 5834SOL    HW117834   2.616   4.720  10.045
 5834SOL    HW217835   2.474   4.793  10.013
 5835SOL     OW17836   2.300   4.116  10.809
 5835SOL    HW117837   2.382   4.060  10.818
 5835SOL    HW217838   2.219   4.058  10.813
 5836SOL     OW17839   3.465   4.171  10.047
 5836SOL    HW117840   3.391   4.217   9.997
 5836SOL    HW217841   3.516   4.239  10.100
 5837SOL     OW17842   3.456   3.838  10.790
 5837SOL    HW117843   3.438   3.905  10.718
 5837SOL    HW217844   3.453   3.884  10.879
 5838SOL     OW17845   1.984   4.367   9.873
 5838SOL    HW117846   1.939   4.279   9.890
 5838SOL    HW217847   1.983   4.421   9.957
 5839SOL     OW17848   1.975   4.461  10.907
 5839SOL    HW117849   2.063   4.448  10.952
 5839SOL    HW217850   1.962   4.558  10.885
 5840SOL     OW17851   2.671   3.728   9.812
 5840SOL    HW117852   2.711   3.819   9.803
 5840SOL    HW217853   2.571   3.736   9.818
 5841SOL     OW17854   3.143   4.069  10.254
 5841SOL    HW117855   3.057   4.019  10.241
 5841SOL    HW217856   3.205   4.015  10.310
 5842SOL     OW17857   2.669   4.329  10.775
 5842SOL    HW117858   2.622   4.326  10.864
 5842SOL    HW217859   2.618   4.274  10.709
 5843SOL     OW17860   2.853   4.134  10.552
 5843SOL    HW117861   2.776   4.168  10.606
 5843SOL    HW217862   2.819   4.083  10.473
 5844SOL     OW17863   2.903   4.425   9.739
 5844SOL    HW117864   2.929   4.421   9.835
 5844SOL    HW217865   2.818   4.374   9.725
 5845SOL     OW17866   2.727   4.072   9.505
 5845SOL    HW117867   2.786   4.135   9.456
 5845SOL    HW217868   2.746   3.978   9.476
 5846SOL     OW17869   2.412   3.920  10.195
 5846SOL    HW117870   2.407   3.915  10.295
 5846SOL    HW217871   2.414   4.016  10.166
 5847SOL     OW17872   3.320   4.459  10.038
 5847SOL    HW117873   3.315   4.394  10.113
 5847SOL    HW217874   3.400   4.518  10.051
 5848SOL     OW17875   2.064   4.009  10.808
 5848SOL    HW117876   1.984   4.069  10.795
 5848SOL    HW217877   2.054   3.960  10.894
 5849SOL     OW17878   3.262   3.831   9.736
 5849SOL    HW117879   3.238   3.794   9.646
 5849SOL    HW217880   3.361   3.847   9.740
 5850SOL     OW17881   2.244   4.424   9.790
 5850SOL    HW117882   2.289   4.334   9.787
 5850SOL    HW217883   2.150   4.413   9.823
 5851SOL     OW17884   2.476   3.846   9.427
 5851SOL    HW117885   2.574   3.824   9.434
 5851SOL    HW217886   2.445   3.829   9.334
 5852SOL     OW17887   3.213   4.314  10.743
 5852SOL    HW117888   3.241   4.271  10.828
 5852SOL    HW217889   3.238   4.410  10.744
 5853SOL     OW17890   2.784   4.227  10.209
 5853SOL    HW117891   2.759   4.218  10.113
 5853SOL    HW217892   2.832   4.145  10.240
 5854SOL     OW17893   2.401   3.788   9.822
 5854SOL    HW117894   2.320   3.789   9.880
 5854SOL    HW217895   2.404   3.871   9.767
 5855SOL     OW17896   2.159   3.759   9.481
 5855SOL    HW117897   2.208   3.843   9.460
 5855SOL    HW217898   2.221   3.694   9.526
 5856SOL     OW17899   2.797   3.960   9.790
 5856SOL    HW117900   2.749   4.001   9.712
 5856SOL    HW217901   2.896   3.958   9.771
 5857SOL     OW17902   2.938   4.407  10.774
 5857SOL    HW117903   2.858   4.346  10.777
 5857SOL    HW217904   3.019   4.354  10.750
 5858SOL     OW17905   2.894   4.273   9.326
 5858SOL    HW117906   2.853   4.355   9.287
 5858SOL    HW217907   2.958   4.299   9.399
 5859SOL     OW17908   1.940   4.280  10.696
 5859SOL    HW117909   2.032   4.279  10.655
 5859SOL    HW217910   1.934   4.354  10.763
 5860SOL     OW17911   2.423   3.946  10.457
 5860SOL    HW117912   2.461   3.862  10.494
 5860SOL    HW217913   2.335   3.965  10.501
 5861SOL     OW17914   2.728   4.178   9.952
 5861SOL    HW117915   2.696   4.250   9.890
 5861SOL    HW217916   2.752   4.097   9.899
 5862SOL     OW17917   2.879   3.763  10.063
 5862SOL    HW117918   2.807   3.768   9.994
 5862SOL    HW217919   2.855   3.694  10.132
 5863SOL     OW17920   3.328   4.314  10.302
 5863SOL    HW117921   3.298   4.219  10.309
 5863SOL    HW217922   3.401   4.330  10.368
 5864SOL     OW17923   3.252   4.299   9.388
 5864SOL    HW117924   3.198   4.278   9.469
 5864SOL    HW217925   3.343   4.258   9.397
 5865SOL     OW17926   2.389   3.980   9.638
 5865SOL    HW117927   2.416   3.921   9.563
 5865SOL    HW217928   2.389   4.075   9.607
 5866SOL     OW17929   2.777   3.813  10.712
 5866SOL    HW117930   2.802   3.793  10.617
 5866SOL    HW217931   2.849   3.869  10.754
 5867SOL     OW17932   2.272   4.537  10.561
 5867SOL    HW117933   2.358   4.549  10.611
 5867SOL    HW217934   2.230   4.450  10.588
 5868SOL     OW17935   3.136   4.110  10.572
 5868SOL    HW117936   3.157   4.184  10.636
 5868SOL    HW217937   3.047   4.127  10.529
 5869SOL     OW17938   2.428   4.261  10.175
 5869SOL    HW117939   2.440   4.327  10.101
 5869SOL    HW217940   2.474   4.295  10.258
 5870SOL     OW17941   3.444   4.363   9.782
 5870SOL    HW117942   3.413   4.424   9.855
 5870SOL    HW217943   3.494   4.415   9.713
 5871SOL     OW17944   2.264   4.475  10.908
 5871SOL    HW117945   2.332   4.530  10.861
 5871SOL    HW217946   2.304   4.387  10.935
 5872SOL     OW17947   3.071   4.249   9.585
 5872SOL    HW117948   3.084   4.165   9.639
 5872SOL    HW217949   3.042   4.323   9.645
 5873SOL     OW17950   2.169   3.937  10.541
 5873SOL    HW117951   2.146   3.974  10.631
 5873SOL    HW217952   2.139   3.842  10.535
 5874SOL     OW17953   2.594   4.358  10.374
 5874SOL    HW117954   2.653   4.332  10.298
 5874SOL    HW217955   2.566   4.454  10.363
 5875SOL     OW17956   3.590   4.659  11.164
 5875SOL    HW117957   3.544   4.652  11.075
 5875SOL    HW217958   3.528   4.703  11.230
 5876SOL     OW17959   2.169   3.787   9.928
 5876SOL    HW117960   2.158   3.881   9.961
 5876SOL    HW217961   2.164   3.724  10.005
 5877SOL     OW17962   3.484   4.091   9.684
 5877SOL    HW117963   3.486   4.015   9.748
 5877SOL    HW217964   3.436   4.168   9.724
 5878SOL     OW17965   3.402   3.998   9.435
 5878SOL    HW117966   3.341   3.923   9.458
 5878SOL    HW217967   3.424   4.050   9.518
 5879SOL     OW17968   2.181   4.534  10.259
 5879SOL    HW117969   2.274   4.570  10.264
 5879SOL    HW217970   2.175   4.449  10.311
 5880SOL     OW17971   2.201   4.233  10.316
 5880SOL    HW117972   2.149   4.150  10.299
 5880SOL    HW217973   2.278   4.238  10.252
 5881SOL     OW17974   3.022   3.931  10.787
 5881SOL    HW117975   3.022   3.995  10.864
 5881SOL    HW217976   3.050   3.979  10.704
 5882SOL     OW17977   1.902   4.268  10.424
 5882SOL    HW117978   1.987   4.235  10.383
 5882SOL    HW217979   1.915   4.283  10.522
 5883SOL     OW17980   3.231   4.674  10.970
 5883SOL    HW117981   3.270   4.763  10.990
 5883SOL    HW217982   3.241   4.654  10.873
 5884SOL     OW17983   2.677   4.296   9.635
 5884SOL    HW117984   2.684   4.207   9.589
 5884SOL    HW217985   2.583   4.330   9.627
 5885SOL     OW17986   3.519   4.328  10.516
 5885SOL    HW117987   3.481   4.259  10.578
 5885SOL    HW217988   3.601   4.292  10.472
 5886SOL     OW17989   2.533   4.188  10.579
 5886SOL    HW117990   2.499   4.099  10.549
 5886SOL    HW217991   2.559   4.242  10.499
 5887SOL     OW17992   2.335   4.224   9.501
 5887SOL    HW117993   2.396   4.304   9.505
 5887SOL    HW217994   2.240   4.255   9.508
 5888SOL     OW17995   3.588   3.859   9.833
 5888SOL    HW117996   3.661   3.842   9.766
 5888SOL    HW217997   3.557   3.772   9.871
 5889SOL     OW17998   3.142   4.651   9.982
 5889SOL    HW117999   3.202   4.570   9.984
 5889SOL    HW218000   3.182   4.720   9.922
 5890SOL     OW18001   3.703   3.899  10.273
 5890SOL    HW118002   3.742   3.814  10.237
 5890SOL    HW218003   3.605   3.901  10.254
 5891SOL     OW18004   2.125   4.050  10.030
 5891SOL    HW118005   2.046   4.101   9.996
 5891SOL    HW218006   2.116   4.035  10.128
 5892SOL     OW18007   2.778   4.634   9.601
 5892SOL    HW118008   2.841   4.672   9.533
 5892SOL    HW218009   2.818   4.551   9.640
 5893SOL     OW18010   2.901   4.822  10.006
 5893SOL    HW118011   2.831   4.775  10.060
 5893SOL    HW218012   2.960   4.754   9.963
 5894SOL     OW18013   2.876   3.960  10.281
 5894SOL    HW118014   2.868   3.924  10.188
 5894SOL    HW218015   2.874   3.884  10.346
 5895SOL     OW18016   3.571   4.109  10.691
 5895SOL    HW118017   3.644   4.178  10.695
 5895SOL    HW218018   3.599   4.034  10.632
 5896SOL     OW18019   1.967   4.737  11.036
 5896SOL    HW118020   1.890   4.704  11.090
 5896SOL    HW218021   2.052   4.707  11.078
 5897SOL     OW18022   2.534   3.927  10.799
 5897SOL    HW118023   2.624   3.911  10.759
 5897SOL    HW218024   2.542   3.932  10.898
 5898SOL     OW18025   1.937   4.069   9.343
 5898SOL    HW118026   1.845   4.041   9.314
 5898SOL    HW218027   1.968   4.146   9.287
 5899SOL     OW18028   1.934   3.890   9.628
 5899SOL    HW118029   1.917   3.973   9.574
 5899SOL    HW218030   2.024   3.853   9.606
 5900SOL     OW18031   2.578   4.289  11.018
 5900SOL    HW118032   2.597   4.354  11.092
 5900SOL    HW218033   2.638   4.209  11.027
 5901SOL     OW18034   3.087   4.049   9.759
 5901SOL    HW118035   3.152   3.975   9.748
 5901SOL    HW218036   3.107   4.099   9.843
 5902SOL     OW18037   2.945   4.708   9.397
 5902SOL    HW118038   2.922   4.761   9.315
 5902SOL    HW218039   3.026   4.652   9.378
 5903SOL     OW18040   3.686   3.916  10.537
 5903SOL    HW118041   3.682   3.826  10.581
 5903SOL    HW218042   3.689   3.905  10.438
 5904SOL     OW18043   2.290   4.148   9.830
 5904SOL    HW118044   2.320   4.076   9.768
 5904SOL    HW218045   2.251   4.108   9.913
 5905SOL     OW18046   2.179   4.271  10.590
 5905SOL    HW118047   2.217   4.212  10.662
 5905SOL    HW218048   2.219   4.245  10.502
 5906SOL     OW18049   3.286   3.938  10.422
 5906SOL    HW118050   3.338   3.873  10.477
 5906SOL    HW218051   3.237   4.001  10.483
 5907SOL     OW18052   2.863   3.758  10.464
 5907SOL    HW118053   2.800   3.686  10.433
 5907SOL    HW218054   2.956   3.722  10.464
 5908SOL     OW18055   3.214   3.776   9.478
 5908SOL    HW118056   3.249   3.735   9.394
 5908SOL    HW218057   3.124   3.738   9.498
 5909SOL     OW18058   3.162   4.177  10.001
 5909SOL    HW118059   3.103   4.257  10.005
 5909SOL    HW218060   3.177   4.142  10.094
 5910SOL     OW18061   3.455   3.945  10.192
 5910SOL    HW118062   3.371   3.944  10.246
 5910SOL    HW218063   3.457   4.028  10.136
 5911SOL     OW18064   3.954   0.628   0.113
 5911SOL    HW118065   3.861   0.626   0.150
 5911SOL    HW218066   3.955   0.589   0.021
 5912SOL     OW18067   3.949   0.275   0.996
 5912SOL    HW118068   3.984   0.258   1.088
 5912SOL    HW218069   3.861   0.230   0.984
 5913SOL     OW18070   3.743   0.368   0.647
 5913SOL    HW118071   3.661   0.411   0.686
 5913SOL    HW218072   3.715   0.295   0.584
 5914SOL     OW18073   4.293   1.275   1.165
 5914SOL    HW118074   4.200   1.268   1.128
 5914SOL    HW218075   4.304   1.364   1.209
 5915SOL     OW18076   4.574   0.798   1.823
 5915SOL    HW118077   4.570   0.874   1.888
 5915SOL    HW218078   4.596   0.834   1.732
 5916SOL     OW18079   4.409   1.012   0.665
 5916SOL    HW118080   4.478   0.996   0.735
 5916SOL    HW218081   4.336   1.069   0.703
 5917SOL     OW18082   4.410   1.161   1.803
 5917SOL    HW118083   4.470   1.240   1.817
 5917SOL    HW218084   4.324   1.192   1.762
 5918SOL     OW18085   4.059   1.435   1.061
 5918SOL    HW118086   3.981   1.404   1.008
 5918SOL    HW218087   4.117   1.493   1.004
 5919SOL     OW18088   4.162   0.392   1.499
 5919SOL    HW118089   4.244   0.336   1.508
 5919SOL    HW218090   4.081   0.334   1.503
 5920SOL     OW18091   3.955   1.713   0.483
 5920SOL    HW118092   3.989   1.790   0.537
 5920SOL    HW218093   3.999   1.713   0.393
 5921SOL     OW18094   3.954   1.434   0.538
 5921SOL    HW118095   3.928   1.530   0.538
 5921SOL    HW218096   3.883   1.380   0.583
 5922SOL     OW18097   3.964   1.091   0.886
 5922SOL    HW118098   3.978   1.007   0.938
 5922SOL    HW218099   3.909   1.155   0.941
 5923SOL     OW18100   4.344   1.786   1.439
 5923SOL    HW118101   4.252   1.769   1.474
 5923SOL    HW218102   4.372   1.878   1.465
 5924SOL     OW18103   4.330   0.964   0.123
 5924SOL    HW118104   4.337   1.048   0.069
 5924SOL    HW218105   4.376   0.977   0.211
 5925SOL     OW18106   3.846   0.643   0.563
 5925SOL    HW118107   3.801   0.555   0.580
 5925SOL    HW218108   3.845   0.697   0.647
 5926SOL     OW18109   3.751   1.596   0.117
 5926SOL    HW118110   3.732   1.500   0.138
 5926SOL    HW218111   3.718   1.654   0.192
 5927SOL     OW18112   3.837   0.737   1.597
 5927SOL    HW118113   3.925   0.724   1.642
 5927SOL    HW218114   3.824   0.834   1.575
 5928SOL     OW18115   4.337   1.365   0.726
 5928SOL    HW118116   4.288   1.278   0.735
 5928SOL    HW218117   4.314   1.408   0.639
 5929SOL     OW18118   4.533   0.004   0.502
 5929SOL    HW118119   4.573   0.095   0.493
 5929SOL    HW218120   4.433   0.012   0.508
 5930SOL     OW18121   3.921   0.976   1.264
 5930SOL    HW118122   4.010   0.931   1.250
 5930SOL    HW218123   3.848   0.911   1.245
 5931SOL     OW18124   4.041   0.251   1.801
 5931SOL    HW118125   4.112   0.322   1.807
 5931SOL    HW218126   3.953   0.290   1.829
 5932SOL     OW18127   4.322   0.729   0.270
 5932SOL    HW118128   4.346   0.798   0.202
 5932SOL    HW218129   4.244   0.762   0.324
 5933SOL     OW18130   3.800   0.811   0.789
 5933SOL    HW118131   3.899   0.799   0.798
 5933SOL    HW218132   3.776   0.906   0.810
 5934SOL     OW18133   3.854   1.821   1.571
 5934SOL    HW118134   3.844   1.806   1.670
 5934SOL    HW218135   3.768   1.857   1.535
 5935SOL     OW18136   4.274   0.196   0.885
 5935SOL    HW118137   4.269   0.191   0.985
 5935SOL    HW218138   4.276   0.292   0.856
 5936SOL     OW18139   4.075   1.801   0.853
 5936SOL    HW118140   4.125   1.715   0.859
 5936SOL    HW218141   4.140   1.878   0.850
 5937SOL     OW18142   4.045   0.943   0.242
 5937SOL    HW118143   4.127   0.982   0.200
 5937SOL    HW218144   4.018   0.861   0.193
 5938SOL     OW18145   4.185   1.266   1.727
 5938SOL    HW118146   4.135   1.267   1.641
 5938SOL    HW218147   4.122   1.248   1.803
 5939SOL     OW18148   3.926   0.285   1.498
 5939SOL    HW118149   3.846   0.345   1.485
 5939SOL    HW218150   3.916   0.236   1.584
 5940SOL     OW18151   4.188   1.743   0.323
 5940SOL    HW118152   4.221   1.782   0.409
 5940SOL    HW218153   4.264   1.736   0.258
 5941SOL     OW18154   3.973   1.785   1.241
 5941SOL    HW118155   4.030   1.720   1.291
 5941SOL    HW218156   3.957   1.752   1.148
 5942SOL     OW18157   4.106   0.700   0.480
 5942SOL    HW118158   4.151   0.610   0.477
 5942SOL    HW218159   4.012   0.689   0.513
 5943SOL     OW18160   4.338   0.122   0.117
 5943SOL    HW118161   4.436   0.100   0.124
 5943SOL    HW218162   4.307   0.105   0.024
 5944SOL     OW18163   4.527   1.402   0.924
 5944SOL    HW118164   4.617   1.416   0.882
 5944SOL    HW218165   4.456   1.404   0.853
 5945SOL     OW18166   4.263   0.064   0.512
 5945SOL    HW118167   4.182   0.065   0.570
 5945SOL    HW218168   4.266   0.147   0.457
 5946SOL     OW18169   4.021   0.035   0.171
 5946SOL    HW118170   4.070   0.119   0.150
 5946SOL    HW218171   4.083  -0.030   0.216
 5947SOL     OW18172   4.800   0.683   1.464
 5947SOL    HW118173   4.720   0.622   1.467
 5947SOL    HW218174   4.881   0.630   1.440
 5948SOL     OW18175   4.183   1.152   0.741
 5948SOL    HW118176   4.112   1.125   0.806
 5948SOL    HW218177   4.157   1.124   0.648
 5949SOL     OW18178   3.802   0.556   1.386
 5949SOL    HW118179   3.894   0.555   1.345
 5949SOL    HW218180   3.796   0.630   1.453
 5950SOL     OW18181   4.285   0.222   1.147
 5950SOL    HW118182   4.323   0.138   1.184
 5950SOL    HW218183   4.197   0.241   1.191
 5951SOL     OW18184   4.212   1.385   0.174
 5951SOL    HW118185   4.125   1.370   0.221
 5951SOL    HW218186   4.195   1.411   0.079
 5952SOL     OW18187   4.251   0.256   0.328
 5952SOL    HW118188   4.278   0.197   0.253
 5952SOL    HW218189   4.251   0.351   0.297
 5953SOL     OW18190   4.134   0.813   1.251
 5953SOL    HW118191   4.220   0.825   1.301
 5953SOL    HW218192   4.092   0.726   1.278
 5954SOL     OW18193   3.788   1.564   1.331
 5954SOL    HW118194   3.742   1.646   1.297
 5954SOL    HW218195   3.886   1.583   1.340
 5955SOL     OW18196   4.091   1.100   0.501
 5955SOL    HW118197   4.084   1.183   0.445
 5955SOL    HW218198   4.095   1.020   0.441
 5956SOL     OW18199   4.290   0.537   0.865
 5956SOL    HW118200   4.302   0.603   0.791
 5956SOL    HW218201   4.336   0.571   0.948
 5957SOL     OW18202   4.078   1.510   1.329
 5957SOL    HW118203   4.057   1.466   1.242
 5957SOL    HW218204   4.175   1.536   1.332
 5958SOL     OW18205   4.126   0.751   1.598
 5958SOL    HW118206   4.194   0.806   1.551
 5958SOL    HW218207   4.166   0.663   1.625
 5959SOL     OW18208   4.228   0.050   1.740
 5959SOL    HW118209   4.186  -0.007   1.670
 5959SOL    HW218210   4.162   0.119   1.772
 5960SOL     OW18211   4.297   0.870   1.029
 5960SOL    HW118212   4.341   0.959   1.020
 5960SOL    HW218213   4.234   0.870   1.106
 5961SOL     OW18214   4.031   0.213   1.231
 5961SOL    HW118215   4.008   0.250   1.321
 5961SOL    HW218216   4.001   0.118   1.225
 5962SOL     OW18217   3.761   1.310   1.282
 5962SOL    HW118218   3.814   1.261   1.350
 5962SOL    HW218219   3.783   1.408   1.287
 5963SOL     OW18220   4.031   0.063   0.618
 5963SOL    HW118221   4.020   0.157   0.651
 5963SOL    HW218222   4.026   0.000   0.695
 5964SOL     OW18223   4.074   0.898   1.804
 5964SOL    HW118224   4.150   0.942   1.852
 5964SOL    HW218225   4.109   0.851   1.722
 5965SOL     OW18226   4.043   0.810   0.949
 5965SOL    HW118227   4.136   0.846   0.954
 5965SOL    HW218228   4.037   0.725   1.001
 5966SOL     OW18229   4.063   0.509   1.006
 5966SOL    HW118230   4.011   0.426   0.989
 5966SOL    HW218231   4.140   0.514   0.942
 5967SOL     OW18232   3.732   1.326   0.200
 5967SOL    HW118233   3.639   1.347   0.169
 5967SOL    HW218234   3.742   1.227   0.213
 5968SOL     OW18235   3.812   1.801   0.927
 5968SOL    HW118236   3.770   1.715   0.900
 5968SOL    HW218237   3.906   1.804   0.893
 5969SOL     OW18238   4.228   1.568   0.910
 5969SOL    HW118239   4.294   1.642   0.919
 5969SOL    HW218240   4.272   1.489   0.868
 5970SOL     OW18241   3.764   0.544   1.114
 5970SOL    HW118242   3.849   0.511   1.073
 5970SOL    HW218243   3.777   0.559   1.212
 5971SOL     OW18244   3.913   0.520   1.722
 5971SOL    HW118245   3.972   0.480   1.652
 5971SOL    HW218246   3.855   0.591   1.681
 5972SOL     OW18247   4.539   0.572   0.325
 5972SOL    HW118248   4.546   0.483   0.279
 5972SOL    HW218249   4.445   0.606   0.317
 5973SOL     OW18250   3.976   1.564   1.744
 5973SOL    HW118251   3.946   1.621   1.820
 5973SOL    HW218252   3.969   1.467   1.770
 5974SOL     OW18253   4.197   0.500   0.191
 5974SOL    HW118254   4.258   0.580   0.195
 5974SOL    HW218255   4.102   0.531   0.198
 5975SOL     OW18256   3.883   1.137   1.466
 5975SOL    HW118257   3.905   1.076   1.542
 5975SOL    HW218258   3.893   1.088   1.380
 5976SOL     OW18259   3.807   1.258   1.022
 5976SOL    HW118260   3.802   1.257   1.122
 5976SOL    HW218261   3.724   1.217   0.984
 5977SOL     OW18262   4.412   1.662   1.716
 5977SOL    HW118263   4.356   1.743   1.725
 5977SOL    HW218264   4.464   1.666   1.630
 5978SOL     OW18265   3.854   1.794   1.851
 5978SOL    HW118266   3.813   1.720   1.904
 5978SOL    HW218267   3.918   1.845   1.909
 5979SOL     OW18268   3.987   0.326   0.720
 5979SOL    HW118269   3.908   0.377   0.686
 5979SOL    HW218270   3.978   0.311   0.818
 5980SOL     OW18271   4.096   1.288   1.490
 5980SOL    HW118272   4.083   1.381   1.456
 5980SOL    HW218273   4.012   1.236   1.477
 5981SOL     OW18274   4.314   1.487   0.491
 5981SOL    HW118275   4.356   1.429   0.421
 5981SOL    HW218276   4.270   1.566   0.447
 5982SOL     OW18277   3.979   1.348   0.290
 5982SOL    HW118278   3.883   1.349   0.263
 5982SOL    HW218279   3.991   1.401   0.374
 5983SOL     OW18280   3.829   1.013   1.726
 5983SOL    HW118281   3.752   0.980   1.780
 5983SOL    HW218282   3.914   0.983   1.768
 5984SOL     OW18283   4.396   0.203   1.489
 5984SOL    HW118284   4.486   0.187   1.449
 5984SOL    HW218285   4.404   0.208   1.588
 5985SOL     OW18286   3.796   0.166   0.318
 5985SOL    HW118287   3.779   0.249   0.264
 5985SOL    HW218288   3.886   0.129   0.296
 5986SOL     OW18289   4.337   0.842   1.431
 5986SOL    HW118290   4.393   0.923   1.414
 5986SOL    HW218291   4.396   0.762   1.434
 5987SOL     OW18292   4.440   0.565   1.708
 5987SOL    HW118293   4.459   0.630   1.782
 5987SOL    HW218294   4.500   0.485   1.717
 5988SOL     OW18295   4.114   1.741   1.560
 5988SOL    HW118296   4.023   1.782   1.558
 5988SOL    HW218297   4.107   1.647   1.592
 5989SOL     OW18298   4.318   0.745   0.652
 5989SOL    HW118299   4.368   0.830   0.633
 5989SOL    HW218300   4.230   0.747   0.604
 5990SOL     OW18301   3.945   1.314   1.844
 5990SOL    HW118302   3.880   1.241   1.823
 5990SOL    HW218303   3.949   1.328   1.942
 5991SOL     OW18304   3.803   1.240   0.653
 5991SOL    HW118305   3.802   1.193   0.741
 5991SOL    HW218306   3.885   1.212   0.602
 5992SOL     OW18307   4.396   1.391   1.624
 5992SOL    HW118308   4.318   1.341   1.662
 5992SOL    HW218309   4.393   1.486   1.655
 5993SOL     OW18310   4.152   0.424   0.520
 5993SOL    HW118311   4.182   0.352   0.458
 5993SOL    HW218312   4.113   0.384   0.603
 5994SOL     OW18313   4.041   0.547   1.280
 5994SOL    HW118314   4.079   0.488   1.352
 5994SOL    HW218315   4.081   0.521   1.192
 5995SOL     OW18316   4.536   1.586   0.687
 5995SOL    HW118317   4.568   1.596   0.593
 5995SOL    HW218318   4.457   1.524   0.689
 5996SOL     OW18319   3.763   1.077   0.300
 5996SOL    HW118320   3.862   1.066   0.291
 5996SOL    HW218321   3.723   0.991   0.332
 5997SOL     OW18322   3.954   0.628   1.975
 5997SOL    HW118323   3.861   0.626   2.012
 5997SOL    HW218324   3.955   0.589   1.883
 5998SOL     OW18325   3.949   0.275   2.858
 5998SOL    HW118326   3.984   0.258   2.950
 5998SOL    HW218327   3.861   0.230   2.846
 5999SOL     OW18328   3.743   0.368   2.509
 5999SOL    HW118329   3.661   0.411   2.548
 5999SOL    HW218330   3.715   0.295   2.446
 6000SOL     OW18331   4.293   1.275   3.027
 6000SOL    HW118332   4.200   1.268   2.990
 6000SOL    HW218333   4.304   1.364   3.071
 6001SOL     OW18334   4.574   0.798   3.685
 6001SOL    HW118335   4.570   0.874   3.750
 6001SOL    HW218336   4.596   0.834   3.594
 6002SOL     OW18337   4.409   1.012   2.527
 6002SOL    HW118338   4.478   0.996   2.597
 6002SOL    HW218339   4.336   1.069   2.565
 6003SOL     OW18340   4.410   1.161   3.665
 6003SOL    HW118341   4.470   1.240   3.679
 6003SOL    HW218342   4.324   1.192   3.624
 6004SOL     OW18343   4.059   1.435   2.923
 6004SOL    HW118344   3.981   1.404   2.870
 6004SOL    HW218345   4.117   1.493   2.866
 6005SOL     OW18346   4.162   0.392   3.361
 6005SOL    HW118347   4.244   0.336   3.370
 6005SOL    HW218348   4.081   0.334   3.365
 6006SOL     OW18349   3.955   1.713   2.345
 6006SOL    HW118350   3.989   1.790   2.399
 6006SOL    HW218351   3.999   1.713   2.255
 6007SOL     OW18352   3.954   1.434   2.400
 6007SOL    HW118353   3.928   1.530   2.400
 6007SOL    HW218354   3.883   1.380   2.445
 6008SOL     OW18355   3.964   1.091   2.748
 6008SOL    HW118356   3.978   1.007   2.800
 6008SOL    HW218357   3.909   1.155   2.803
 6009SOL     OW18358   4.344   1.786   3.301
 6009SOL    HW118359   4.252   1.769   3.336
 6009SOL    HW218360   4.372   1.878   3.327
 6010SOL     OW18361   4.330   0.964   1.985
 6010SOL    HW118362   4.337   1.048   1.931
 6010SOL    HW218363   4.376   0.977   2.073
 6011SOL     OW18364   3.846   0.643   2.425
 6011SOL    HW118365   3.801   0.555   2.442
 6011SOL    HW218366   3.845   0.697   2.509
 6012SOL     OW18367   3.751   1.596   1.979
 6012SOL    HW118368   3.732   1.500   2.000
 6012SOL    HW218369   3.718   1.654   2.054
 6013SOL     OW18370   3.837   0.737   3.459
 6013SOL    HW118371   3.925   0.724   3.504
 6013SOL    HW218372   3.824   0.834   3.437
 6014SOL     OW18373   4.337   1.365   2.588
 6014SOL    HW118374   4.288   1.278   2.597
 6014SOL    HW218375   4.314   1.408   2.501
 6015SOL     OW18376   4.533   0.004   2.364
 6015SOL    HW118377   4.573   0.095   2.355
 6015SOL    HW218378   4.433   0.012   2.370
 6016SOL     OW18379   3.921   0.976   3.126
 6016SOL    HW118380   4.010   0.931   3.112
 6016SOL    HW218381   3.848   0.911   3.107
 6017SOL     OW18382   4.041   0.251   3.663
 6017SOL    HW118383   4.112   0.322   3.669
 6017SOL    HW218384   3.953   0.290   3.691
 6018SOL     OW18385   4.322   0.729   2.132
 6018SOL    HW118386   4.346   0.798   2.064
 6018SOL    HW218387   4.244   0.762   2.186
 6019SOL     OW18388   3.800   0.811   2.651
 6019SOL    HW118389   3.899   0.799   2.660
 6019SOL    HW218390   3.776   0.906   2.672
 6020SOL     OW18391   3.854   1.821   3.433
 6020SOL    HW118392   3.844   1.806   3.532
 6020SOL    HW218393   3.768   1.857   3.397
 6021SOL     OW18394   4.274   0.196   2.747
 6021SOL    HW118395   4.269   0.191   2.847
 6021SOL    HW218396   4.276   0.292   2.718
 6022SOL     OW18397   4.075   1.801   2.715
 6022SOL    HW118398   4.125   1.715   2.721
 6022SOL    HW218399   4.140   1.878   2.712
 6023SOL     OW18400   4.045   0.943   2.104
 6023SOL    HW118401   4.127   0.982   2.062
 6023SOL    HW218402   4.018   0.861   2.055
 6024SOL     OW18403   4.185   1.266   3.589
 6024SOL    HW118404   4.135   1.267   3.503
 6024SOL    HW218405   4.122   1.248   3.665
 6025SOL     OW18406   3.926   0.285   3.360
 6025SOL    HW118407   3.846   0.345   3.347
 6025SOL    HW218408   3.916   0.236   3.446
 6026SOL     OW18409   4.188   1.743   2.185
 6026SOL    HW118410   4.221   1.782   2.271
 6026SOL    HW218411   4.264   1.736   2.120
 6027SOL     OW18412   3.973   1.785   3.103
 6027SOL    HW118413   4.030   1.720   3.153
 6027SOL    HW218414   3.957   1.752   3.010
 6028SOL     OW18415   4.106   0.700   2.342
 6028SOL    HW118416   4.151   0.610   2.339
 6028SOL    HW218417   4.012   0.689   2.375
 6029SOL     OW18418   4.338   0.122   1.979
 6029SOL    HW118419   4.436   0.100   1.986
 6029SOL    HW218420   4.307   0.105   1.886
 6030SOL     OW18421   4.527   1.402   2.786
 6030SOL    HW118422   4.617   1.416   2.744
 6030SOL    HW218423   4.456   1.404   2.715
 6031SOL     OW18424   4.263   0.064   2.374
 6031SOL    HW118425   4.182   0.065   2.432
 6031SOL    HW218426   4.266   0.147   2.319
 6032SOL     OW18427   4.021   0.035   2.033
 6032SOL    HW118428   4.070   0.119   2.012
 6032SOL    HW218429   4.083  -0.030   2.078
 6033SOL     OW18430   4.800   0.683   3.326
 6033SOL    HW118431   4.720   0.622   3.329
 6033SOL    HW218432   4.881   0.630   3.302
 6034SOL     OW18433   4.183   1.152   2.603
 6034SOL    HW118434   4.112   1.125   2.668
 6034SOL    HW218435   4.157   1.124   2.510
 6035SOL     OW18436   3.802   0.556   3.248
 6035SOL    HW118437   3.894   0.555   3.207
 6035SOL    HW218438   3.796   0.630   3.315
 6036SOL     OW18439   4.285   0.222   3.009
 6036SOL    HW118440   4.323   0.138   3.046
 6036SOL    HW218441   4.197   0.241   3.053
 6037SOL     OW18442   4.212   1.385   2.036
 6037SOL    HW118443   4.125   1.370   2.083
 6037SOL    HW218444   4.195   1.411   1.941
 6038SOL     OW18445   4.251   0.256   2.190
 6038SOL    HW118446   4.278   0.197   2.115
 6038SOL    HW218447   4.251   0.351   2.159
 6039SOL     OW18448   4.134   0.813   3.113
 6039SOL    HW118449   4.220   0.825   3.163
 6039SOL    HW218450   4.092   0.726   3.140
 6040SOL     OW18451   3.788   1.564   3.193
 6040SOL    HW118452   3.742   1.646   3.159
 6040SOL    HW218453   3.886   1.583   3.202
 6041SOL     OW18454   4.091   1.100   2.363
 6041SOL    HW118455   4.084   1.183   2.307
 6041SOL    HW218456   4.095   1.020   2.303
 6042SOL     OW18457   4.290   0.537   2.727
 6042SOL    HW118458   4.302   0.603   2.653
 6042SOL    HW218459   4.336   0.571   2.810
 6043SOL     OW18460   4.078   1.510   3.191
 6043SOL    HW118461   4.057   1.466   3.104
 6043SOL    HW218462   4.175   1.536   3.194
 6044SOL     OW18463   4.126   0.751   3.460
 6044SOL    HW118464   4.194   0.806   3.413
 6044SOL    HW218465   4.166   0.663   3.487
 6045SOL     OW18466   4.228   0.050   3.602
 6045SOL    HW118467   4.186  -0.007   3.532
 6045SOL    HW218468   4.162   0.119   3.634
 6046SOL     OW18469   4.297   0.870   2.891
 6046SOL    HW118470   4.341   0.959   2.882
 6046SOL    HW218471   4.234   0.870   2.968
 6047SOL     OW18472   4.031   0.213   3.093
 6047SOL    HW118473   4.008   0.250   3.183
 6047SOL    HW218474   4.001   0.118   3.087
 6048SOL     OW18475   3.761   1.310   3.144
 6048SOL    HW118476   3.814   1.261   3.212
 6048SOL    HW218477   3.783   1.408   3.149
 6049SOL     OW18478   4.031   0.063   2.480
 6049SOL    HW118479   4.020   0.157   2.513
 6049SOL    HW218480   4.026   0.000   2.557
 6050SOL     OW18481   4.074   0.898   3.666
 6050SOL    HW118482   4.150   0.942   3.714
 6050SOL    HW218483   4.109   0.851   3.584
 6051SOL     OW18484   4.043   0.810   2.811
 6051SOL    HW118485   4.136   0.846   2.816
 6051SOL    HW218486   4.037   0.725   2.863
 6052SOL     OW18487   4.063   0.509   2.868
 6052SOL    HW118488   4.011   0.426   2.851
 6052SOL    HW218489   4.140   0.514   2.804
 6053SOL     OW18490   3.732   1.326   2.062
 6053SOL    HW118491   3.639   1.347   2.031
 6053SOL    HW218492   3.742   1.227   2.075
 6054SOL     OW18493   3.812   1.801   2.789
 6054SOL    HW118494   3.770   1.715   2.762
 6054SOL    HW218495   3.906   1.804   2.755
 6055SOL     OW18496   4.228   1.568   2.772
 6055SOL    HW118497   4.294   1.642   2.781
 6055SOL    HW218498   4.272   1.489   2.730
 6056SOL     OW18499   3.764   0.544   2.976
 6056SOL    HW118500   3.849   0.511   2.935
 6056SOL    HW218501   3.777   0.559   3.074
 6057SOL     OW18502   3.913   0.520   3.584
 6057SOL    HW118503   3.972   0.480   3.514
 6057SOL    HW218504   3.855   0.591   3.543
 6058SOL     OW18505   4.539   0.572   2.187
 6058SOL    HW118506   4.546   0.483   2.141
 6058SOL    HW218507   4.445   0.606   2.179
 6059SOL     OW18508   3.976   1.564   3.606
 6059SOL    HW118509   3.946   1.621   3.682
 6059SOL    HW218510   3.969   1.467   3.632
 6060SOL     OW18511   4.197   0.500   2.053
 6060SOL    HW118512   4.258   0.580   2.057
 6060SOL    HW218513   4.102   0.531   2.060
 6061SOL     OW18514   3.883   1.137   3.328
 6061SOL    HW118515   3.905   1.076   3.404
 6061SOL    HW218516   3.893   1.088   3.242
 6062SOL     OW18517   3.807   1.258   2.884
 6062SOL    HW118518   3.802   1.257   2.984
 6062SOL    HW218519   3.724   1.217   2.846
 6063SOL     OW18520   4.412   1.662   3.578
 6063SOL    HW118521   4.356   1.743   3.587
 6063SOL    HW218522   4.464   1.666   3.492
 6064SOL     OW18523   3.854   1.794   3.713
 6064SOL    HW118524   3.813   1.720   3.766
 6064SOL    HW218525   3.918   1.845   3.771
 6065SOL     OW18526   3.987   0.326   2.582
 6065SOL    HW118527   3.908   0.377   2.548
 6065SOL    HW218528   3.978   0.311   2.680
 6066SOL     OW18529   4.096   1.288   3.352
 6066SOL    HW118530   4.083   1.381   3.318
 6066SOL    HW218531   4.012   1.236   3.339
 6067SOL     OW18532   4.314   1.487   2.353
 6067SOL    HW118533   4.356   1.429   2.283
 6067SOL    HW218534   4.270   1.566   2.309
 6068SOL     OW18535   3.979   1.348   2.152
 6068SOL    HW118536   3.883   1.349   2.125
 6068SOL    HW218537   3.991   1.401   2.236
 6069SOL     OW18538   3.829   1.013   3.588
 6069SOL    HW118539   3.752   0.980   3.642
 6069SOL    HW218540   3.914   0.983   3.630
 6070SOL     OW18541   4.396   0.203   3.351
 6070SOL    HW118542   4.486   0.187   3.311
 6070SOL    HW218543   4.404   0.208   3.450
 6071SOL     OW18544   3.799   0.345   1.895
 6071SOL    HW118545   3.707   0.317   1.866
 6071SOL    HW218546   3.830   0.422   1.839
 6072SOL     OW18547   3.796   0.166   2.180
 6072SOL    HW118548   3.779   0.249   2.126
 6072SOL    HW218549   3.886   0.129   2.158
 6073SOL     OW18550   4.337   0.842   3.293
 6073SOL    HW118551   4.393   0.923   3.276
 6073SOL    HW218552   4.396   0.762   3.296
 6074SOL     OW18553   4.440   0.565   3.570
 6074SOL    HW118554   4.459   0.630   3.644
 6074SOL    HW218555   4.500   0.485   3.579
 6075SOL     OW18556   4.114   1.741   3.422
 6075SOL    HW118557   4.023   1.782   3.420
 6075SOL    HW218558   4.107   1.647   3.454
 6076SOL     OW18559   4.318   0.745   2.514
 6076SOL    HW118560   4.368   0.830   2.495
 6076SOL    HW218561   4.230   0.747   2.466
 6077SOL     OW18562   3.945   1.314   3.706
 6077SOL    HW118563   3.880   1.241   3.685
 6077SOL    HW218564   3.949   1.328   3.804
 6078SOL     OW18565   3.803   1.240   2.515
 6078SOL    HW118566   3.802   1.193   2.603
 6078SOL    HW218567   3.885   1.212   2.464
 6079SOL     OW18568   4.396   1.391   3.486
 6079SOL    HW118569   4.318   1.341   3.524
 6079SOL    HW218570   4.393   1.486   3.517
 6080SOL     OW18571   4.152   0.424   2.382
 6080SOL    HW118572   4.182   0.352   2.320
 6080SOL    HW218573   4.113   0.384   2.465
 6081SOL     OW18574   4.041   0.547   3.142
 6081SOL    HW118575   4.079   0.488   3.214
 6081SOL    HW218576   4.081   0.521   3.054
 6082SOL     OW18577   4.536   1.586   2.549
 6082SOL    HW118578   4.568   1.596   2.455
 6082SOL    HW218579   4.457   1.524   2.551
 6083SOL     OW18580   3.763   1.077   2.162
 6083SOL    HW118581   3.862   1.066   2.153
 6083SOL    HW218582   3.723   0.991   2.194
 6084SOL     OW18583   3.954   0.628   3.837
 6084SOL    HW118584   3.861   0.626   3.874
 6084SOL    HW218585   3.955   0.589   3.745
 6085SOL     OW18586   3.949   0.275   4.720
 6085SOL    HW118587   3.984   0.258   4.812
 6085SOL    HW218588   3.861   0.230   4.708
 6086SOL     OW18589   3.743   0.368   4.371
 6086SOL    HW118590   3.661   0.411   4.410
 6086SOL    HW218591   3.715   0.295   4.308
 6087SOL     OW18592   4.293   1.275   4.889
 6087SOL    HW118593   4.200   1.268   4.852
 6087SOL    HW218594   4.304   1.364   4.933
 6088SOL     OW18595   4.574   0.798   5.547
 6088SOL    HW118596   4.570   0.874   5.612
 6088SOL    HW218597   4.596   0.834   5.456
 6089SOL     OW18598   4.409   1.012   4.389
 6089SOL    HW118599   4.478   0.996   4.459
 6089SOL    HW218600   4.336   1.069   4.427
 6090SOL     OW18601   4.410   1.161   5.527
 6090SOL    HW118602   4.470   1.240   5.541
 6090SOL    HW218603   4.324   1.192   5.486
 6091SOL     OW18604   4.059   1.435   4.785
 6091SOL    HW118605   3.981   1.404   4.732
 6091SOL    HW218606   4.117   1.493   4.728
 6092SOL     OW18607   4.162   0.392   5.223
 6092SOL    HW118608   4.244   0.336   5.232
 6092SOL    HW218609   4.081   0.334   5.227
 6093SOL     OW18610   3.955   1.713   4.207
 6093SOL    HW118611   3.989   1.790   4.261
 6093SOL    HW218612   3.999   1.713   4.117
 6094SOL     OW18613   3.954   1.434   4.262
 6094SOL    HW118614   3.928   1.530   4.262
 6094SOL    HW218615   3.883   1.380   4.307
 6095SOL     OW18616   3.964   1.091   4.610
 6095SOL    HW118617   3.978   1.007   4.662
 6095SOL    HW218618   3.909   1.155   4.665
 6096SOL     OW18619   4.344   1.786   5.163
 6096SOL    HW118620   4.252   1.769   5.198
 6096SOL    HW218621   4.372   1.878   5.189
 6097SOL     OW18622   4.330   0.964   3.847
 6097SOL    HW118623   4.337   1.048   3.793
 6097SOL    HW218624   4.376   0.977   3.935
 6098SOL     OW18625   3.846   0.643   4.287
 6098SOL    HW118626   3.801   0.555   4.304
 6098SOL    HW218627   3.845   0.697   4.371
 6099SOL     OW18628   3.751   1.596   3.841
 6099SOL    HW118629   3.732   1.500   3.862
 6099SOL    HW218630   3.718   1.654   3.916
 6100SOL     OW18631   3.837   0.737   5.321
 6100SOL    HW118632   3.925   0.724   5.366
 6100SOL    HW218633   3.824   0.834   5.299
 6101SOL     OW18634   4.337   1.365   4.450
 6101SOL    HW118635   4.288   1.278   4.459
 6101SOL    HW218636   4.314   1.408   4.363
 6102SOL     OW18637   4.533   0.004   4.226
 6102SOL    HW118638   4.573   0.095   4.217
 6102SOL    HW218639   4.433   0.012   4.232
 6103SOL     OW18640   3.921   0.976   4.988
 6103SOL    HW118641   4.010   0.931   4.974
 6103SOL    HW218642   3.848   0.911   4.969
 6104SOL     OW18643   4.041   0.251   5.525
 6104SOL    HW118644   4.112   0.322   5.531
 6104SOL    HW218645   3.953   0.290   5.553
 6105SOL     OW18646   4.322   0.729   3.994
 6105SOL    HW118647   4.346   0.798   3.926
 6105SOL    HW218648   4.244   0.762   4.048
 6106SOL     OW18649   3.800   0.811   4.513
 6106SOL    HW118650   3.899   0.799   4.522
 6106SOL    HW218651   3.776   0.906   4.534
 6107SOL     OW18652   3.854   1.821   5.295
 6107SOL    HW118653   3.844   1.806   5.394
 6107SOL    HW218654   3.768   1.857   5.259
 6108SOL     OW18655   4.274   0.196   4.609
 6108SOL    HW118656   4.269   0.191   4.709
 6108SOL    HW218657   4.276   0.292   4.580
 6109SOL     OW18658   4.075   1.801   4.577
 6109SOL    HW118659   4.125   1.715   4.583
 6109SOL    HW218660   4.140   1.878   4.574
 6110SOL     OW18661   4.045   0.943   3.966
 6110SOL    HW118662   4.127   0.982   3.924
 6110SOL    HW218663   4.018   0.861   3.917
 6111SOL     OW18664   4.185   1.266   5.451
 6111SOL    HW118665   4.135   1.267   5.365
 6111SOL    HW218666   4.122   1.248   5.527
 6112SOL     OW18667   3.926   0.285   5.222
 6112SOL    HW118668   3.846   0.345   5.209
 6112SOL    HW218669   3.916   0.236   5.308
 6113SOL     OW18670   4.188   1.743   4.047
 6113SOL    HW118671   4.221   1.782   4.133
 6113SOL    HW218672   4.264   1.736   3.982
 6114SOL     OW18673   3.973   1.785   4.965
 6114SOL    HW118674   4.030   1.720   5.015
 6114SOL    HW218675   3.957   1.752   4.872
 6115SOL     OW18676   4.106   0.700   4.204
 6115SOL    HW118677   4.151   0.610   4.201
 6115SOL    HW218678   4.012   0.689   4.237
 6116SOL     OW18679   4.338   0.122   3.841
 6116SOL    HW118680   4.436   0.100   3.848
 6116SOL    HW218681   4.307   0.105   3.748
 6117SOL     OW18682   4.527   1.402   4.648
 6117SOL    HW118683   4.617   1.416   4.606
 6117SOL    HW218684   4.456   1.404   4.577
 6118SOL     OW18685   4.263   0.064   4.236
 6118SOL    HW118686   4.182   0.065   4.294
 6118SOL    HW218687   4.266   0.147   4.181
 6119SOL     OW18688   4.021   0.035   3.895
 6119SOL    HW118689   4.070   0.119   3.874
 6119SOL    HW218690   4.083  -0.030   3.940
 6120SOL     OW18691   4.800   0.683   5.188
 6120SOL    HW118692   4.720   0.622   5.191
 6120SOL    HW218693   4.881   0.630   5.164
 6121SOL     OW18694   4.183   1.152   4.465
 6121SOL    HW118695   4.112   1.125   4.530
 6121SOL    HW218696   4.157   1.124   4.372
 6122SOL     OW18697   3.802   0.556   5.110
 6122SOL    HW118698   3.894   0.555   5.069
 6122SOL    HW218699   3.796   0.630   5.177
 6123SOL     OW18700   4.285   0.222   4.871
 6123SOL    HW118701   4.323   0.138   4.908
 6123SOL    HW218702   4.197   0.241   4.915
 6124SOL     OW18703   4.212   1.385   3.898
 6124SOL    HW118704   4.125   1.370   3.945
 6124SOL    HW218705   4.195   1.411   3.803
 6125SOL     OW18706   4.251   0.256   4.052
 6125SOL    HW118707   4.278   0.197   3.977
 6125SOL    HW218708   4.251   0.351   4.021
 6126SOL     OW18709   4.134   0.813   4.975
 6126SOL    HW118710   4.220   0.825   5.025
 6126SOL    HW218711   4.092   0.726   5.002
 6127SOL     OW18712   3.788   1.564   5.055
 6127SOL    HW118713   3.742   1.646   5.021
 6127SOL    HW218714   3.886   1.583   5.064
 6128SOL     OW18715   4.091   1.100   4.225
 6128SOL    HW118716   4.084   1.183   4.169
 6128SOL    HW218717   4.095   1.020   4.165
 6129SOL     OW18718   4.290   0.537   4.589
 6129SOL    HW118719   4.302   0.603   4.515
 6129SOL    HW218720   4.336   0.571   4.672
 6130SOL     OW18721   4.078   1.510   5.053
 6130SOL    HW118722   4.057   1.466   4.966
 6130SOL    HW218723   4.175   1.536   5.056
 6131SOL     OW18724   4.126   0.751   5.322
 6131SOL    HW118725   4.194   0.806   5.275
 6131SOL    HW218726   4.166   0.663   5.349
 6132SOL     OW18727   4.228   0.050   5.464
 6132SOL    HW118728   4.186  -0.007   5.394
 6132SOL    HW218729   4.162   0.119   5.496
 6133SOL     OW18730   4.297   0.870   4.753
 6133SOL    HW118731   4.341   0.959   4.744
 6133SOL    HW218732   4.234   0.870   4.830
 6134SOL     OW18733   4.031   0.213   4.955
 6134SOL    HW118734   4.008   0.250   5.045
 6134SOL    HW218735   4.001   0.118   4.949
 6135SOL     OW18736   3.761   1.310   5.006
 6135SOL    HW118737   3.814   1.261   5.074
 6135SOL    HW218738   3.783   1.408   5.011
 6136SOL     OW18739   4.031   0.063   4.342
 6136SOL    HW118740   4.020   0.157   4.375
 6136SOL    HW218741   4.026   0.000   4.419
 6137SOL     OW18742   4.074   0.898   5.528
 6137SOL    HW118743   4.150   0.942   5.576
 6137SOL    HW218744   4.109   0.851   5.446
 6138SOL     OW18745   4.043   0.810   4.673
 6138SOL    HW118746   4.136   0.846   4.678
 6138SOL    HW218747   4.037   0.725   4.725
 6139SOL     OW18748   4.063   0.509   4.730
 6139SOL    HW118749   4.011   0.426   4.713
 6139SOL    HW218750   4.140   0.514   4.666
 6140SOL     OW18751   3.732   1.326   3.924
 6140SOL    HW118752   3.639   1.347   3.893
 6140SOL    HW218753   3.742   1.227   3.937
 6141SOL     OW18754   3.812   1.801   4.651
 6141SOL    HW118755   3.770   1.715   4.624
 6141SOL    HW218756   3.906   1.804   4.617
 6142SOL     OW18757   4.228   1.568   4.634
 6142SOL    HW118758   4.294   1.642   4.643
 6142SOL    HW218759   4.272   1.489   4.592
 6143SOL     OW18760   3.764   0.544   4.838
 6143SOL    HW118761   3.849   0.511   4.797
 6143SOL    HW218762   3.777   0.559   4.936
 6144SOL     OW18763   3.913   0.520   5.446
 6144SOL    HW118764   3.972   0.480   5.376
 6144SOL    HW218765   3.855   0.591   5.405
 6145SOL     OW18766   4.539   0.572   4.049
 6145SOL    HW118767   4.546   0.483   4.003
 6145SOL    HW218768   4.445   0.606   4.041
 6146SOL     OW18769   3.976   1.564   5.468
 6146SOL    HW118770   3.946   1.621   5.544
 6146SOL    HW218771   3.969   1.467   5.494
 6147SOL     OW18772   4.197   0.500   3.915
 6147SOL    HW118773   4.258   0.580   3.919
 6147SOL    HW218774   4.102   0.531   3.922
 6148SOL     OW18775   3.883   1.137   5.190
 6148SOL    HW118776   3.905   1.076   5.266
 6148SOL    HW218777   3.893   1.088   5.104
 6149SOL     OW18778   3.807   1.258   4.746
 6149SOL    HW118779   3.802   1.257   4.846
 6149SOL    HW218780   3.724   1.217   4.708
 6150SOL     OW18781   4.412   1.662   5.440
 6150SOL    HW118782   4.356   1.743   5.449
 6150SOL    HW218783   4.464   1.666   5.354
 6151SOL     OW18784   3.854   1.794   5.575
 6151SOL    HW118785   3.813   1.720   5.628
 6151SOL    HW218786   3.918   1.845   5.633
 6152SOL     OW18787   3.987   0.326   4.444
 6152SOL    HW118788   3.908   0.377   4.410
 6152SOL    HW218789   3.978   0.311   4.542
 6153SOL     OW18790   4.096   1.288   5.214
 6153SOL    HW118791   4.083   1.381   5.180
 6153SOL    HW218792   4.012   1.236   5.201
 6154SOL     OW18793   4.314   1.487   4.215
 6154SOL    HW118794   4.356   1.429   4.145
 6154SOL    HW218795   4.270   1.566   4.171
 6155SOL     OW18796   3.979   1.348   4.014
 6155SOL    HW118797   3.883   1.349   3.987
 6155SOL    HW218798   3.991   1.401   4.098
 6156SOL     OW18799   3.829   1.013   5.450
 6156SOL    HW118800   3.752   0.980   5.504
 6156SOL    HW218801   3.914   0.983   5.492
 6157SOL     OW18802   4.396   0.203   5.213
 6157SOL    HW118803   4.486   0.187   5.173
 6157SOL    HW218804   4.404   0.208   5.312
 6158SOL     OW18805   3.799   0.345   3.757
 6158SOL    HW118806   3.707   0.317   3.728
 6158SOL    HW218807   3.830   0.422   3.701
 6159SOL     OW18808   3.796   0.166   4.042
 6159SOL    HW118809   3.779   0.249   3.988
 6159SOL    HW218810   3.886   0.129   4.020
 6160SOL     OW18811   4.337   0.842   5.155
 6160SOL    HW118812   4.393   0.923   5.138
 6160SOL    HW218813   4.396   0.762   5.158
 6161SOL     OW18814   4.440   0.565   5.432
 6161SOL    HW118815   4.459   0.630   5.506
 6161SOL    HW218816   4.500   0.485   5.441
 6162SOL     OW18817   4.114   1.741   5.284
 6162SOL    HW118818   4.023   1.782   5.282
 6162SOL    HW218819   4.107   1.647   5.316
 6163SOL     OW18820   4.318   0.745   4.376
 6163SOL    HW118821   4.368   0.830   4.357
 6163SOL    HW218822   4.230   0.747   4.328
 6164SOL     OW18823   3.945   1.314   5.568
 6164SOL    HW118824   3.880   1.241   5.547
 6164SOL    HW218825   3.949   1.328   5.666
 6165SOL     OW18826   3.803   1.240   4.377
 6165SOL    HW118827   3.802   1.193   4.465
 6165SOL    HW218828   3.885   1.212   4.326
 6166SOL     OW18829   4.396   1.391   5.348
 6166SOL    HW118830   4.318   1.341   5.386
 6166SOL    HW218831   4.393   1.486   5.379
 6167SOL     OW18832   4.152   0.424   4.244
 6167SOL    HW118833   4.182   0.352   4.182
 6167SOL    HW218834   4.113   0.384   4.327
 6168SOL     OW18835   4.041   0.547   5.004
 6168SOL    HW118836   4.079   0.488   5.076
 6168SOL    HW218837   4.081   0.521   4.916
 6169SOL     OW18838   4.536   1.586   4.411
 6169SOL    HW118839   4.568   1.596   4.317
 6169SOL    HW218840   4.457   1.524   4.413
 6170SOL     OW18841   3.763   1.077   4.024
 6170SOL    HW118842   3.862   1.066   4.015
 6170SOL    HW218843   3.723   0.991   4.056
 6171SOL     OW18844   3.954   0.628   5.699
 6171SOL    HW118845   3.861   0.626   5.736
 6171SOL    HW218846   3.955   0.589   5.607
 6172SOL     OW18847   3.949   0.275   6.582
 6172SOL    HW118848   3.984   0.258   6.674
 6172SOL    HW218849   3.861   0.230   6.570
 6173SOL     OW18850   3.743   0.368   6.233
 6173SOL    HW118851   3.661   0.411   6.272
 6173SOL    HW218852   3.715   0.295   6.170
 6174SOL     OW18853   4.293   1.275   6.751
 6174SOL    HW118854   4.200   1.268   6.714
 6174SOL    HW218855   4.304   1.364   6.795
 6175SOL     OW18856   4.574   0.798   7.409
 6175SOL    HW118857   4.570   0.874   7.474
 6175SOL    HW218858   4.596   0.834   7.318
 6176SOL     OW18859   4.409   1.012   6.251
 6176SOL    HW118860   4.478   0.996   6.321
 6176SOL    HW218861   4.336   1.069   6.289
 6177SOL     OW18862   4.410   1.161   7.389
 6177SOL    HW118863   4.470   1.240   7.403
 6177SOL    HW218864   4.324   1.192   7.348
 6178SOL     OW18865   4.059   1.435   6.647
 6178SOL    HW118866   3.981   1.404   6.594
 6178SOL    HW218867   4.117   1.493   6.590
 6179SOL     OW18868   4.162   0.392   7.085
 6179SOL    HW118869   4.244   0.336   7.094
 6179SOL    HW218870   4.081   0.334   7.089
 6180SOL     OW18871   3.955   1.713   6.069
 6180SOL    HW118872   3.989   1.790   6.123
 6180SOL    HW218873   3.999   1.713   5.979
 6181SOL     OW18874   3.954   1.434   6.124
 6181SOL    HW118875   3.928   1.530   6.124
 6181SOL    HW218876   3.883   1.380   6.169
 6182SOL     OW18877   3.964   1.091   6.472
 6182SOL    HW118878   3.978   1.007   6.524
 6182SOL    HW218879   3.909   1.155   6.527
 6183SOL     OW18880   4.344   1.786   7.025
 6183SOL    HW118881   4.252   1.769   7.060
 6183SOL    HW218882   4.372   1.878   7.051
 6184SOL     OW18883   4.330   0.964   5.709
 6184SOL    HW118884   4.337   1.048   5.655
 6184SOL    HW218885   4.376   0.977   5.797
 6185SOL     OW18886   3.846   0.643   6.149
 6185SOL    HW118887   3.801   0.555   6.166
 6185SOL    HW218888   3.845   0.697   6.233
 6186SOL     OW18889   3.751   1.596   5.703
 6186SOL    HW118890   3.732   1.500   5.724
 6186SOL    HW218891   3.718   1.654   5.778
 6187SOL     OW18892   3.837   0.737   7.183
 6187SOL    HW118893   3.925   0.724   7.228
 6187SOL    HW218894   3.824   0.834   7.161
 6188SOL     OW18895   4.337   1.365   6.312
 6188SOL    HW118896   4.288   1.278   6.321
 6188SOL    HW218897   4.314   1.408   6.225
 6189SOL     OW18898   4.533   0.004   6.088
 6189SOL    HW118899   4.573   0.095   6.079
 6189SOL    HW218900   4.433   0.012   6.094
 6190SOL     OW18901   3.921   0.976   6.850
 6190SOL    HW118902   4.010   0.931   6.836
 6190SOL    HW218903   3.848   0.911   6.831
 6191SOL     OW18904   4.041   0.251   7.387
 6191SOL    HW118905   4.112   0.322   7.393
 6191SOL    HW218906   3.953   0.290   7.415
 6192SOL     OW18907   4.322   0.729   5.856
 6192SOL    HW118908   4.346   0.798   5.788
 6192SOL    HW218909   4.244   0.762   5.910
 6193SOL     OW18910   3.800   0.811   6.375
 6193SOL    HW118911   3.899   0.799   6.384
 6193SOL    HW218912   3.776   0.906   6.396
 6194SOL     OW18913   3.854   1.821   7.157
 6194SOL    HW118914   3.844   1.806   7.256
 6194SOL    HW218915   3.768   1.857   7.121
 6195SOL     OW18916   4.274   0.196   6.471
 6195SOL    HW118917   4.269   0.191   6.571
 6195SOL    HW218918   4.276   0.292   6.442
 6196SOL     OW18919   4.075   1.801   6.439
 6196SOL    HW118920   4.125   1.715   6.445
 6196SOL    HW218921   4.140   1.878   6.436
 6197SOL     OW18922   4.045   0.943   5.828
 6197SOL    HW118923   4.127   0.982   5.786
 6197SOL    HW218924   4.018   0.861   5.779
 6198SOL     OW18925   4.185   1.266   7.313
 6198SOL    HW118926   4.135   1.267   7.227
 6198SOL    HW218927   4.122   1.248   7.389
 6199SOL     OW18928   3.926   0.285   7.084
 6199SOL    HW118929   3.846   0.345   7.071
 6199SOL    HW218930   3.916   0.236   7.170
 6200SOL     OW18931   4.188   1.743   5.909
 6200SOL    HW118932   4.221   1.782   5.995
 6200SOL    HW218933   4.264   1.736   5.844
 6201SOL     OW18934   3.973   1.785   6.827
 6201SOL    HW118935   4.030   1.720   6.877
 6201SOL    HW218936   3.957   1.752   6.734
 6202SOL     OW18937   4.106   0.700   6.066
 6202SOL    HW118938   4.151   0.610   6.063
 6202SOL    HW218939   4.012   0.689   6.099
 6203SOL     OW18940   4.338   0.122   5.703
 6203SOL    HW118941   4.436   0.100   5.710
 6203SOL    HW218942   4.307   0.105   5.610
 6204SOL     OW18943   4.527   1.402   6.510
 6204SOL    HW118944   4.617   1.416   6.468
 6204SOL    HW218945   4.456   1.404   6.439
 6205SOL     OW18946   4.263   0.064   6.098
 6205SOL    HW118947   4.182   0.065   6.156
 6205SOL    HW218948   4.266   0.147   6.043
 6206SOL     OW18949   4.021   0.035   5.757
 6206SOL    HW118950   4.070   0.119   5.736
 6206SOL    HW218951   4.083  -0.030   5.802
 6207SOL     OW18952   4.800   0.683   7.050
 6207SOL    HW118953   4.720   0.622   7.053
 6207SOL    HW218954   4.881   0.630   7.026
 6208SOL     OW18955   4.183   1.152   6.327
 6208SOL    HW118956   4.112   1.125   6.392
 6208SOL    HW218957   4.157   1.124   6.234
 6209SOL     OW18958   3.802   0.556   6.972
 6209SOL    HW118959   3.894   0.555   6.931
 6209SOL    HW218960   3.796   0.630   7.039
 6210SOL     OW18961   4.285   0.222   6.733
 6210SOL    HW118962   4.323   0.138   6.770
 6210SOL    HW218963   4.197   0.241   6.777
 6211SOL     OW18964   4.212   1.385   5.760
 6211SOL    HW118965   4.125   1.370   5.807
 6211SOL    HW218966   4.195   1.411   5.665
 6212SOL     OW18967   4.251   0.256   5.914
 6212SOL    HW118968   4.278   0.197   5.839
 6212SOL    HW218969   4.251   0.351   5.883
 6213SOL     OW18970   4.134   0.813   6.837
 6213SOL    HW118971   4.220   0.825   6.887
 6213SOL    HW218972   4.092   0.726   6.864
 6214SOL     OW18973   3.788   1.564   6.917
 6214SOL    HW118974   3.742   1.646   6.883
 6214SOL    HW218975   3.886   1.583   6.926
 6215SOL     OW18976   4.091   1.100   6.087
 6215SOL    HW118977   4.084   1.183   6.031
 6215SOL    HW218978   4.095   1.020   6.027
 6216SOL     OW18979   4.290   0.537   6.451
 6216SOL    HW118980   4.302   0.603   6.377
 6216SOL    HW218981   4.336   0.571   6.534
 6217SOL     OW18982   4.078   1.510   6.915
 6217SOL    HW118983   4.057   1.466   6.828
 6217SOL    HW218984   4.175   1.536   6.918
 6218SOL     OW18985   4.126   0.751   7.184
 6218SOL    HW118986   4.194   0.806   7.137
 6218SOL    HW218987   4.166   0.663   7.211
 6219SOL     OW18988   4.228   0.050   7.326
 6219SOL    HW118989   4.186  -0.007   7.256
 6219SOL    HW218990   4.162   0.119   7.358
 6220SOL     OW18991   4.297   0.870   6.615
 6220SOL    HW118992   4.341   0.959   6.606
 6220SOL    HW218993   4.234   0.870   6.692
 6221SOL     OW18994   4.031   0.213   6.817
 6221SOL    HW118995   4.008   0.250   6.907
 6221SOL    HW218996   4.001   0.118   6.811
 6222SOL     OW18997   3.761   1.310   6.868
 6222SOL    HW118998   3.814   1.261   6.936
 6222SOL    HW218999   3.783   1.408   6.873
 6223SOL     OW19000   4.031   0.063   6.204
 6223SOL    HW119001   4.020   0.157   6.237
 6223SOL    HW219002   4.026   0.000   6.281
 6224SOL     OW19003   4.074   0.898   7.390
 6224SOL    HW119004   4.150   0.942   7.438
 6224SOL    HW219005   4.109   0.851   7.308
 6225SOL     OW19006   4.043   0.810   6.535
 6225SOL    HW119007   4.136   0.846   6.540
 6225SOL    HW219008   4.037   0.725   6.587
 6226SOL     OW19009   4.063   0.509   6.592
 6226SOL    HW119010   4.011   0.426   6.575
 6226SOL    HW219011   4.140   0.514   6.528
 6227SOL     OW19012   3.732   1.326   5.786
 6227SOL    HW119013   3.639   1.347   5.755
 6227SOL    HW219014   3.742   1.227   5.799
 6228SOL     OW19015   3.812   1.801   6.513
 6228SOL    HW119016   3.770   1.715   6.486
 6228SOL    HW219017   3.906   1.804   6.479
 6229SOL     OW19018   4.228   1.568   6.496
 6229SOL    HW119019   4.294   1.642   6.505
 6229SOL    HW219020   4.272   1.489   6.454
 6230SOL     OW19021   3.764   0.544   6.700
 6230SOL    HW119022   3.849   0.511   6.659
 6230SOL    HW219023   3.777   0.559   6.798
 6231SOL     OW19024   3.913   0.520   7.308
 6231SOL    HW119025   3.972   0.480   7.238
 6231SOL    HW219026   3.855   0.591   7.267
 6232SOL     OW19027   4.539   0.572   5.911
 6232SOL    HW119028   4.546   0.483   5.865
 6232SOL    HW219029   4.445   0.606   5.903
 6233SOL     OW19030   3.976   1.564   7.330
 6233SOL    HW119031   3.946   1.621   7.406
 6233SOL    HW219032   3.969   1.467   7.356
 6234SOL     OW19033   4.197   0.500   5.777
 6234SOL    HW119034   4.258   0.580   5.781
 6234SOL    HW219035   4.102   0.531   5.784
 6235SOL     OW19036   3.883   1.137   7.052
 6235SOL    HW119037   3.905   1.076   7.128
 6235SOL    HW219038   3.893   1.088   6.966
 6236SOL     OW19039   3.807   1.258   6.608
 6236SOL    HW119040   3.802   1.257   6.708
 6236SOL    HW219041   3.724   1.217   6.570
 6237SOL     OW19042   4.412   1.662   7.302
 6237SOL    HW119043   4.356   1.743   7.311
 6237SOL    HW219044   4.464   1.666   7.216
 6238SOL     OW19045   3.854   1.794   7.437
 6238SOL    HW119046   3.813   1.720   7.490
 6238SOL    HW219047   3.918   1.845   7.495
 6239SOL     OW19048   3.987   0.326   6.306
 6239SOL    HW119049   3.908   0.377   6.272
 6239SOL    HW219050   3.978   0.311   6.404
 6240SOL     OW19051   4.096   1.288   7.076
 6240SOL    HW119052   4.083   1.381   7.042
 6240SOL    HW219053   4.012   1.236   7.063
 6241SOL     OW19054   4.314   1.487   6.077
 6241SOL    HW119055   4.356   1.429   6.007
 6241SOL    HW219056   4.270   1.566   6.033
 6242SOL     OW19057   3.979   1.348   5.876
 6242SOL    HW119058   3.883   1.349   5.849
 6242SOL    HW219059   3.991   1.401   5.960
 6243SOL     OW19060   3.829   1.013   7.312
 6243SOL    HW119061   3.752   0.980   7.366
 6243SOL    HW219062   3.914   0.983   7.354
 6244SOL     OW19063   4.396   0.203   7.075
 6244SOL    HW119064   4.486   0.187   7.035
 6244SOL    HW219065   4.404   0.208   7.174
 6245SOL     OW19066   3.799   0.345   5.619
 6245SOL    HW119067   3.707   0.317   5.590
 6245SOL    HW219068   3.830   0.422   5.563
 6246SOL     OW19069   3.796   0.166   5.904
 6246SOL    HW119070   3.779   0.249   5.850
 6246SOL    HW219071   3.886   0.129   5.882
 6247SOL     OW19072   4.337   0.842   7.017
 6247SOL    HW119073   4.393   0.923   7.000
 6247SOL    HW219074   4.396   0.762   7.020
 6248SOL     OW19075   4.440   0.565   7.294
 6248SOL    HW119076   4.459   0.630   7.368
 6248SOL    HW219077   4.500   0.485   7.303
 6249SOL     OW19078   4.114   1.741   7.146
 6249SOL    HW119079   4.023   1.782   7.144
 6249SOL    HW219080   4.107   1.647   7.178
 6250SOL     OW19081   4.318   0.745   6.238
 6250SOL    HW119082   4.368   0.830   6.219
 6250SOL    HW219083   4.230   0.747   6.190
 6251SOL     OW19084   3.945   1.314   7.430
 6251SOL    HW119085   3.880   1.241   7.409
 6251SOL    HW219086   3.949   1.328   7.528
 6252SOL     OW19087   3.803   1.240   6.239
 6252SOL    HW119088   3.802   1.193   6.327
 6252SOL    HW219089   3.885   1.212   6.188
 6253SOL     OW19090   4.396   1.391   7.210
 6253SOL    HW119091   4.318   1.341   7.248
 6253SOL    HW219092   4.393   1.486   7.241
 6254SOL     OW19093   4.152   0.424   6.106
 6254SOL    HW119094   4.182   0.352   6.044
 6254SOL    HW219095   4.113   0.384   6.189
 6255SOL     OW19096   4.041   0.547   6.866
 6255SOL    HW119097   4.079   0.488   6.938
 6255SOL    HW219098   4.081   0.521   6.778
 6256SOL     OW19099   4.536   1.586   6.273
 6256SOL    HW119100   4.568   1.596   6.179
 6256SOL    HW219101   4.457   1.524   6.275
 6257SOL     OW19102   3.763   1.077   5.886
 6257SOL    HW119103   3.862   1.066   5.877
 6257SOL    HW219104   3.723   0.991   5.918
 6258SOL     OW19105   3.954   0.628   7.561
 6258SOL    HW119106   3.861   0.626   7.598
 6258SOL    HW219107   3.955   0.589   7.469
 6259SOL     OW19108   3.949   0.275   8.444
 6259SOL    HW119109   3.984   0.258   8.536
 6259SOL    HW219110   3.861   0.230   8.432
 6260SOL     OW19111   3.743   0.368   8.095
 6260SOL    HW119112   3.661   0.411   8.134
 6260SOL    HW219113   3.715   0.295   8.032
 6261SOL     OW19114   4.293   1.275   8.613
 6261SOL    HW119115   4.200   1.268   8.576
 6261SOL    HW219116   4.304   1.364   8.657
 6262SOL     OW19117   4.574   0.798   9.271
 6262SOL    HW119118   4.570   0.874   9.336
 6262SOL    HW219119   4.596   0.834   9.180
 6263SOL     OW19120   4.409   1.012   8.113
 6263SOL    HW119121   4.478   0.996   8.183
 6263SOL    HW219122   4.336   1.069   8.151
 6264SOL     OW19123   4.410   1.161   9.251
 6264SOL    HW119124   4.470   1.240   9.265
 6264SOL    HW219125   4.324   1.192   9.210
 6265SOL     OW19126   4.059   1.435   8.509
 6265SOL    HW119127   3.981   1.404   8.456
 6265SOL    HW219128   4.117   1.493   8.452
 6266SOL     OW19129   4.162   0.392   8.947
 6266SOL    HW119130   4.244   0.336   8.956
 6266SOL    HW219131   4.081   0.334   8.951
 6267SOL     OW19132   3.955   1.713   7.931
 6267SOL    HW119133   3.989   1.790   7.985
 6267SOL    HW219134   3.999   1.713   7.841
 6268SOL     OW19135   3.954   1.434   7.986
 6268SOL    HW119136   3.928   1.530   7.986
 6268SOL    HW219137   3.883   1.380   8.031
 6269SOL     OW19138   3.964   1.091   8.334
 6269SOL    HW119139   3.978   1.007   8.386
 6269SOL    HW219140   3.909   1.155   8.389
 6270SOL     OW19141   4.344   1.786   8.887
 6270SOL    HW119142   4.252   1.769   8.922
 6270SOL    HW219143   4.372   1.878   8.913
 6271SOL     OW19144   4.330   0.964   7.571
 6271SOL    HW119145   4.337   1.048   7.517
 6271SOL    HW219146   4.376   0.977   7.659
 6272SOL     OW19147   3.846   0.643   8.011
 6272SOL    HW119148   3.801   0.555   8.028
 6272SOL    HW219149   3.845   0.697   8.095
 6273SOL     OW19150   3.751   1.596   7.565
 6273SOL    HW119151   3.732   1.500   7.586
 6273SOL    HW219152   3.718   1.654   7.640
 6274SOL     OW19153   3.837   0.737   9.045
 6274SOL    HW119154   3.925   0.724   9.090
 6274SOL    HW219155   3.824   0.834   9.023
 6275SOL     OW19156   4.337   1.365   8.174
 6275SOL    HW119157   4.288   1.278   8.183
 6275SOL    HW219158   4.314   1.408   8.087
 6276SOL     OW19159   4.533   0.004   7.950
 6276SOL    HW119160   4.573   0.095   7.941
 6276SOL    HW219161   4.433   0.012   7.956
 6277SOL     OW19162   3.921   0.976   8.712
 6277SOL    HW119163   4.010   0.931   8.698
 6277SOL    HW219164   3.848   0.911   8.693
 6278SOL     OW19165   4.041   0.251   9.249
 6278SOL    HW119166   4.112   0.322   9.255
 6278SOL    HW219167   3.953   0.290   9.277
 6279SOL     OW19168   4.322   0.729   7.718
 6279SOL    HW119169   4.346   0.798   7.650
 6279SOL    HW219170   4.244   0.762   7.772
 6280SOL     OW19171   3.800   0.811   8.237
 6280SOL    HW119172   3.899   0.799   8.246
 6280SOL    HW219173   3.776   0.906   8.258
 6281SOL     OW19174   3.854   1.821   9.019
 6281SOL    HW119175   3.844   1.806   9.118
 6281SOL    HW219176   3.768   1.857   8.983
 6282SOL     OW19177   4.274   0.196   8.333
 6282SOL    HW119178   4.269   0.191   8.433
 6282SOL    HW219179   4.276   0.292   8.304
 6283SOL     OW19180   4.075   1.801   8.301
 6283SOL    HW119181   4.125   1.715   8.307
 6283SOL    HW219182   4.140   1.878   8.298
 6284SOL     OW19183   4.045   0.943   7.690
 6284SOL    HW119184   4.127   0.982   7.648
 6284SOL    HW219185   4.018   0.861   7.641
 6285SOL     OW19186   4.185   1.266   9.175
 6285SOL    HW119187   4.135   1.267   9.089
 6285SOL    HW219188   4.122   1.248   9.251
 6286SOL     OW19189   3.926   0.285   8.946
 6286SOL    HW119190   3.846   0.345   8.933
 6286SOL    HW219191   3.916   0.236   9.032
 6287SOL     OW19192   4.188   1.743   7.771
 6287SOL    HW119193   4.221   1.782   7.857
 6287SOL    HW219194   4.264   1.736   7.706
 6288SOL     OW19195   3.973   1.785   8.689
 6288SOL    HW119196   4.030   1.720   8.739
 6288SOL    HW219197   3.957   1.752   8.596
 6289SOL     OW19198   4.106   0.700   7.928
 6289SOL    HW119199   4.151   0.610   7.925
 6289SOL    HW219200   4.012   0.689   7.961
 6290SOL     OW19201   4.338   0.122   7.565
 6290SOL    HW119202   4.436   0.100   7.572
 6290SOL    HW219203   4.307   0.105   7.472
 6291SOL     OW19204   4.527   1.402   8.372
 6291SOL    HW119205   4.617   1.416   8.330
 6291SOL    HW219206   4.456   1.404   8.301
 6292SOL     OW19207   4.263   0.064   7.960
 6292SOL    HW119208   4.182   0.065   8.018
 6292SOL    HW219209   4.266   0.147   7.905
 6293SOL     OW19210   4.021   0.035   7.619
 6293SOL    HW119211   4.070   0.119   7.598
 6293SOL    HW219212   4.083  -0.030   7.664
 6294SOL     OW19213   4.800   0.683   8.912
 6294SOL    HW119214   4.720   0.622   8.915
 6294SOL    HW219215   4.881   0.630   8.888
 6295SOL     OW19216   4.183   1.152   8.189
 6295SOL    HW119217   4.112   1.125   8.254
 6295SOL    HW219218   4.157   1.124   8.096
 6296SOL     OW19219   3.802   0.556   8.834
 6296SOL    HW119220   3.894   0.555   8.793
 6296SOL    HW219221   3.796   0.630   8.901
 6297SOL     OW19222   4.285   0.222   8.595
 6297SOL    HW119223   4.323   0.138   8.632
 6297SOL    HW219224   4.197   0.241   8.639
 6298SOL     OW19225   4.212   1.385   7.622
 6298SOL    HW119226   4.125   1.370   7.669
 6298SOL    HW219227   4.195   1.411   7.527
 6299SOL     OW19228   4.251   0.256   7.776
 6299SOL    HW119229   4.278   0.197   7.701
 6299SOL    HW219230   4.251   0.351   7.745
 6300SOL     OW19231   4.134   0.813   8.699
 6300SOL    HW119232   4.220   0.825   8.749
 6300SOL    HW219233   4.092   0.726   8.726
 6301SOL     OW19234   3.788   1.564   8.779
 6301SOL    HW119235   3.742   1.646   8.745
 6301SOL    HW219236   3.886   1.583   8.788
 6302SOL     OW19237   4.091   1.100   7.949
 6302SOL    HW119238   4.084   1.183   7.893
 6302SOL    HW219239   4.095   1.020   7.889
 6303SOL     OW19240   4.290   0.537   8.313
 6303SOL    HW119241   4.302   0.603   8.239
 6303SOL    HW219242   4.336   0.571   8.396
 6304SOL     OW19243   4.078   1.510   8.777
 6304SOL    HW119244   4.057   1.466   8.690
 6304SOL    HW219245   4.175   1.536   8.780
 6305SOL     OW19246   4.126   0.751   9.046
 6305SOL    HW119247   4.194   0.806   8.999
 6305SOL    HW219248   4.166   0.663   9.073
 6306SOL     OW19249   4.228   0.050   9.188
 6306SOL    HW119250   4.186  -0.007   9.118
 6306SOL    HW219251   4.162   0.119   9.220
 6307SOL     OW19252   4.297   0.870   8.477
 6307SOL    HW119253   4.341   0.959   8.468
 6307SOL    HW219254   4.234   0.870   8.554
 6308SOL     OW19255   4.031   0.213   8.679
 6308SOL    HW119256   4.008   0.250   8.769
 6308SOL    HW219257   4.001   0.118   8.673
 6309SOL     OW19258   3.761   1.310   8.730
 6309SOL    HW119259   3.814   1.261   8.798
 6309SOL    HW219260   3.783   1.408   8.735
 6310SOL     OW19261   4.031   0.063   8.066
 6310SOL    HW119262   4.020   0.157   8.099
 6310SOL    HW219263   4.026   0.000   8.143
 6311SOL     OW19264   4.074   0.898   9.252
 6311SOL    HW119265   4.150   0.942   9.300
 6311SOL    HW219266   4.109   0.851   9.170
 6312SOL     OW19267   4.043   0.810   8.397
 6312SOL    HW119268   4.136   0.846   8.402
 6312SOL    HW219269   4.037   0.725   8.449
 6313SOL     OW19270   4.063   0.509   8.454
 6313SOL    HW119271   4.011   0.426   8.437
 6313SOL    HW219272   4.140   0.514   8.390
 6314SOL     OW19273   3.732   1.326   7.648
 6314SOL    HW119274   3.639   1.347   7.617
 6314SOL    HW219275   3.742   1.227   7.661
 6315SOL     OW19276   3.812   1.801   8.375
 6315SOL    HW119277   3.770   1.715   8.348
 6315SOL    HW219278   3.906   1.804   8.341
 6316SOL     OW19279   4.228   1.568   8.358
 6316SOL    HW119280   4.294   1.642   8.367
 6316SOL    HW219281   4.272   1.489   8.316
 6317SOL     OW19282   3.764   0.544   8.562
 6317SOL    HW119283   3.849   0.511   8.521
 6317SOL    HW219284   3.777   0.559   8.660
 6318SOL     OW19285   3.913   0.520   9.170
 6318SOL    HW119286   3.972   0.480   9.100
 6318SOL    HW219287   3.855   0.591   9.129
 6319SOL     OW19288   4.539   0.572   7.773
 6319SOL    HW119289   4.546   0.483   7.727
 6319SOL    HW219290   4.445   0.606   7.765
 6320SOL     OW19291   3.976   1.564   9.192
 6320SOL    HW119292   3.946   1.621   9.268
 6320SOL    HW219293   3.969   1.467   9.218
 6321SOL     OW19294   4.197   0.500   7.639
 6321SOL    HW119295   4.258   0.580   7.643
 6321SOL    HW219296   4.102   0.531   7.646
 6322SOL     OW19297   3.883   1.137   8.914
 6322SOL    HW119298   3.905   1.076   8.990
 6322SOL    HW219299   3.893   1.088   8.828
 6323SOL     OW19300   3.807   1.258   8.470
 6323SOL    HW119301   3.802   1.257   8.570
 6323SOL    HW219302   3.724   1.217   8.432
 6324SOL     OW19303   4.412   1.662   9.164
 6324SOL    HW119304   4.356   1.743   9.173
 6324SOL    HW219305   4.464   1.666   9.078
 6325SOL     OW19306   3.854   1.794   9.299
 6325SOL    HW119307   3.813   1.720   9.352
 6325SOL    HW219308   3.918   1.845   9.357
 6326SOL     OW19309   3.987   0.326   8.168
 6326SOL    HW119310   3.908   0.377   8.134
 6326SOL    HW219311   3.978   0.311   8.266
 6327SOL     OW19312   4.096   1.288   8.938
 6327SOL    HW119313   4.083   1.381   8.904
 6327SOL    HW219314   4.012   1.236   8.925
 6328SOL     OW19315   4.314   1.487   7.939
 6328SOL    HW119316   4.356   1.429   7.869
 6328SOL    HW219317   4.270   1.566   7.895
 6329SOL     OW19318   3.979   1.348   7.738
 6329SOL    HW119319   3.883   1.349   7.711
 6329SOL    HW219320   3.991   1.401   7.822
 6330SOL     OW19321   3.829   1.013   9.174
 6330SOL    HW119322   3.752   0.980   9.228
 6330SOL    HW219323   3.914   0.983   9.216
 6331SOL     OW19324   4.396   0.203   8.937
 6331SOL    HW119325   4.486   0.187   8.897
 6331SOL    HW219326   4.404   0.208   9.036
 6332SOL     OW19327   3.799   0.345   7.481
 6332SOL    HW119328   3.707   0.317   7.452
 6332SOL    HW219329   3.830   0.422   7.425
 6333SOL     OW19330   3.796   0.166   7.766
 6333SOL    HW119331   3.779   0.249   7.712
 6333SOL    HW219332   3.886   0.129   7.744
 6334SOL     OW19333   4.337   0.842   8.879
 6334SOL    HW119334   4.393   0.923   8.862
 6334SOL    HW219335   4.396   0.762   8.882
 6335SOL     OW19336   4.440   0.565   9.156
 6335SOL    HW119337   4.459   0.630   9.230
 6335SOL    HW219338   4.500   0.485   9.165
 6336SOL     OW19339   4.114   1.741   9.008
 6336SOL    HW119340   4.023   1.782   9.006
 6336SOL    HW219341   4.107   1.647   9.040
 6337SOL     OW19342   4.318   0.745   8.100
 6337SOL    HW119343   4.368   0.830   8.081
 6337SOL    HW219344   4.230   0.747   8.052
 6338SOL     OW19345   3.945   1.314   9.292
 6338SOL    HW119346   3.880   1.241   9.271
 6338SOL    HW219347   3.949   1.328   9.390
 6339SOL     OW19348   3.803   1.240   8.101
 6339SOL    HW119349   3.802   1.193   8.189
 6339SOL    HW219350   3.885   1.212   8.050
 6340SOL     OW19351   4.396   1.391   9.072
 6340SOL    HW119352   4.318   1.341   9.110
 6340SOL    HW219353   4.393   1.486   9.103
 6341SOL     OW19354   4.152   0.424   7.968
 6341SOL    HW119355   4.182   0.352   7.906
 6341SOL    HW219356   4.113   0.384   8.051
 6342SOL     OW19357   4.041   0.547   8.728
 6342SOL    HW119358   4.079   0.488   8.800
 6342SOL    HW219359   4.081   0.521   8.640
 6343SOL     OW19360   4.536   1.586   8.135
 6343SOL    HW119361   4.568   1.596   8.041
 6343SOL    HW219362   4.457   1.524   8.137
 6344SOL     OW19363   3.763   1.077   7.748
 6344SOL    HW119364   3.862   1.066   7.739
 6344SOL    HW219365   3.723   0.991   7.780
 6345SOL     OW19366   3.954   0.628   9.423
 6345SOL    HW119367   3.861   0.626   9.460
 6345SOL    HW219368   3.955   0.589   9.331
 6346SOL     OW19369   3.949   0.275  10.306
 6346SOL    HW119370   3.984   0.258  10.398
 6346SOL    HW219371   3.861   0.230  10.294
 6347SOL     OW19372   3.743   0.368   9.957
 6347SOL    HW119373   3.661   0.411   9.996
 6347SOL    HW219374   3.715   0.295   9.894
 6348SOL     OW19375   4.293   1.275  10.475
 6348SOL    HW119376   4.200   1.268  10.438
 6348SOL    HW219377   4.304   1.364  10.519
 6349SOL     OW19378   4.574   0.798  11.133
 6349SOL    HW119379   4.570   0.874  11.198
 6349SOL    HW219380   4.596   0.834  11.042
 6350SOL     OW19381   4.409   1.012   9.975
 6350SOL    HW119382   4.478   0.996  10.045
 6350SOL    HW219383   4.336   1.069  10.013
 6351SOL     OW19384   4.059   1.435  10.371
 6351SOL    HW119385   3.981   1.404  10.318
 6351SOL    HW219386   4.117   1.493  10.314
 6352SOL     OW19387   4.162   0.392  10.809
 6352SOL    HW119388   4.244   0.336  10.818
 6352SOL    HW219389   4.081   0.334  10.813
 6353SOL     OW19390   3.955   1.713   9.793
 6353SOL    HW119391   3.989   1.790   9.847
 6353SOL    HW219392   3.999   1.713   9.703
 6354SOL     OW19393   3.954   1.434   9.848
 6354SOL    HW119394   3.928   1.530   9.848
 6354SOL    HW219395   3.883   1.380   9.893
 6355SOL     OW19396   3.964   1.091  10.196
 6355SOL    HW119397   3.978   1.007  10.248
 6355SOL    HW219398   3.909   1.155  10.251
 6356SOL     OW19399   4.344   1.786  10.749
 6356SOL    HW119400   4.252   1.769  10.784
 6356SOL    HW219401   4.372   1.878  10.775
 6357SOL     OW19402   4.330   0.964   9.433
 6357SOL    HW119403   4.337   1.048   9.379
 6357SOL    HW219404   4.376   0.977   9.521
 6358SOL     OW19405   3.846   0.643   9.873
 6358SOL    HW119406   3.801   0.555   9.890
 6358SOL    HW219407   3.845   0.697   9.957
 6359SOL     OW19408   3.751   1.596   9.427
 6359SOL    HW119409   3.732   1.500   9.448
 6359SOL    HW219410   3.718   1.654   9.502
 6360SOL     OW19411   3.837   0.737  10.907
 6360SOL    HW119412   3.925   0.724  10.952
 6360SOL    HW219413   3.824   0.834  10.885
 6361SOL     OW19414   4.337   1.365  10.036
 6361SOL    HW119415   4.288   1.278  10.045
 6361SOL    HW219416   4.314   1.408   9.949
 6362SOL     OW19417   4.533   0.004   9.812
 6362SOL    HW119418   4.573   0.095   9.803
 6362SOL    HW219419   4.433   0.012   9.818
 6363SOL     OW19420   3.921   0.976  10.574
 6363SOL    HW119421   4.010   0.931  10.560
 6363SOL    HW219422   3.848   0.911  10.555
 6364SOL     OW19423   4.322   0.729   9.580
 6364SOL    HW119424   4.346   0.798   9.512
 6364SOL    HW219425   4.244   0.762   9.634
 6365SOL     OW19426   3.800   0.811  10.099
 6365SOL    HW119427   3.899   0.799  10.108
 6365SOL    HW219428   3.776   0.906  10.120
 6366SOL     OW19429   3.854   1.821  10.881
 6366SOL    HW119430   3.844   1.806  10.980
 6366SOL    HW219431   3.768   1.857  10.845
 6367SOL     OW19432   4.274   0.196  10.195
 6367SOL    HW119433   4.269   0.191  10.295
 6367SOL    HW219434   4.276   0.292  10.166
 6368SOL     OW19435   4.075   1.801  10.163
 6368SOL    HW119436   4.125   1.715  10.169
 6368SOL    HW219437   4.140   1.878  10.160
 6369SOL     OW19438   4.045   0.943   9.552
 6369SOL    HW119439   4.127   0.982   9.510
 6369SOL    HW219440   4.018   0.861   9.503
 6370SOL     OW19441   3.926   0.285  10.808
 6370SOL    HW119442   3.846   0.345  10.795
 6370SOL    HW219443   3.916   0.236  10.894
 6371SOL     OW19444   4.188   1.743   9.633
 6371SOL    HW119445   4.221   1.782   9.719
 6371SOL    HW219446   4.264   1.736   9.568
 6372SOL     OW19447   3.973   1.785  10.551
 6372SOL    HW119448   4.030   1.720  10.601
 6372SOL    HW219449   3.957   1.752  10.458
 6373SOL     OW19450   4.106   0.700   9.790
 6373SOL    HW119451   4.151   0.610   9.787
 6373SOL    HW219452   4.012   0.689   9.823
 6374SOL     OW19453   4.338   0.122   9.427
 6374SOL    HW119454   4.436   0.100   9.434
 6374SOL    HW219455   4.307   0.105   9.334
 6375SOL     OW19456   4.527   1.402  10.234
 6375SOL    HW119457   4.617   1.416  10.192
 6375SOL    HW219458   4.456   1.404  10.163
 6376SOL     OW19459   4.263   0.064   9.822
 6376SOL    HW119460   4.182   0.065   9.880
 6376SOL    HW219461   4.266   0.147   9.767
 6377SOL     OW19462   4.021   0.035   9.481
 6377SOL    HW119463   4.070   0.119   9.460
 6377SOL    HW219464   4.083  -0.030   9.526
 6378SOL     OW19465   4.800   0.683  10.774
 6378SOL    HW119466   4.720   0.622  10.777
 6378SOL    HW219467   4.881   0.630  10.750
 6379SOL     OW19468   4.183   1.152  10.051
 6379SOL    HW119469   4.112   1.125  10.116
 6379SOL    HW219470   4.157   1.124   9.958
 6380SOL     OW19471   3.802   0.556  10.696
 6380SOL    HW119472   3.894   0.555  10.655
 6380SOL    HW219473   3.796   0.630  10.763
 6381SOL     OW19474   4.285   0.222  10.457
 6381SOL    HW119475   4.323   0.138  10.494
 6381SOL    HW219476   4.197   0.241  10.501
 6382SOL     OW19477   4.212   1.385   9.484
 6382SOL    HW119478   4.125   1.370   9.531
 6382SOL    HW219479   4.195   1.411   9.389
 6383SOL     OW19480   4.251   0.256   9.638
 6383SOL    HW119481   4.278   0.197   9.563
 6383SOL    HW219482   4.251   0.351   9.607
 6384SOL     OW19483   4.134   0.813  10.561
 6384SOL    HW119484   4.220   0.825  10.611
 6384SOL    HW219485   4.092   0.726  10.588
 6385SOL     OW19486   3.788   1.564  10.641
 6385SOL    HW119487   3.742   1.646  10.607
 6385SOL    HW219488   3.886   1.583  10.650
 6386SOL     OW19489   4.091   1.100   9.811
 6386SOL    HW119490   4.084   1.183   9.755
 6386SOL    HW219491   4.095   1.020   9.751
 6387SOL     OW19492   4.290   0.537  10.175
 6387SOL    HW119493   4.302   0.603  10.101
 6387SOL    HW219494   4.336   0.571  10.258
 6388SOL     OW19495   4.078   1.510  10.639
 6388SOL    HW119496   4.057   1.466  10.552
 6388SOL    HW219497   4.175   1.536  10.642
 6389SOL     OW19498   4.126   0.751  10.908
 6389SOL    HW119499   4.194   0.806  10.861
 6389SOL    HW219500   4.166   0.663  10.935
 6390SOL     OW19501   4.297   0.870  10.339
 6390SOL    HW119502   4.341   0.959  10.330
 6390SOL    HW219503   4.234   0.870  10.416
 6391SOL     OW19504   4.031   0.213  10.541
 6391SOL    HW119505   4.008   0.250  10.631
 6391SOL    HW219506   4.001   0.118  10.535
 6392SOL     OW19507   3.761   1.310  10.592
 6392SOL    HW119508   3.814   1.261  10.660
 6392SOL    HW219509   3.783   1.408  10.597
 6393SOL     OW19510   4.031   0.063   9.928
 6393SOL    HW119511   4.020   0.157   9.961
 6393SOL    HW219512   4.026   0.000  10.005
 6394SOL     OW19513   4.043   0.810  10.259
 6394SOL    HW119514   4.136   0.846  10.264
 6394SOL    HW219515   4.037   0.725  10.311
 6395SOL     OW19516   4.063   0.509  10.316
 6395SOL    HW119517   4.011   0.426  10.299
 6395SOL    HW219518   4.140   0.514  10.252
 6396SOL     OW19519   3.732   1.326   9.510
 6396SOL    HW119520   3.639   1.347   9.479
 6396SOL    HW219521   3.742   1.227   9.523
 6397SOL     OW19522   3.812   1.801  10.237
 6397SOL    HW119523   3.770   1.715  10.210
 6397SOL    HW219524   3.906   1.804  10.203
 6398SOL     OW19525   4.228   1.568  10.220
 6398SOL    HW119526   4.294   1.642  10.229
 6398SOL    HW219527   4.272   1.489  10.178
 6399SOL     OW19528   3.764   0.544  10.424
 6399SOL    HW119529   3.849   0.511  10.383
 6399SOL    HW219530   3.777   0.559  10.522
 6400SOL     OW19531   4.539   0.572   9.635
 6400SOL    HW119532   4.546   0.483   9.589
 6400SOL    HW219533   4.445   0.606   9.627
 6401SOL     OW19534   3.976   1.564  11.054
 6401SOL    HW119535   3.946   1.621  11.130
 6401SOL    HW219536   3.969   1.467  11.080
 6402SOL     OW19537   4.197   0.500   9.501
 6402SOL    HW119538   4.258   0.580   9.505
 6402SOL    HW219539   4.102   0.531   9.508
 6403SOL     OW19540   3.883   1.137  10.776
 6403SOL    HW119541   3.905   1.076  10.852
 6403SOL    HW219542   3.893   1.088  10.690
 6404SOL     OW19543   3.807   1.258  10.332
 6404SOL    HW119544   3.802   1.257  10.432
 6404SOL    HW219545   3.724   1.217  10.294
 6405SOL     OW19546   3.987   0.326  10.030
 6405SOL    HW119547   3.908   0.377   9.996
 6405SOL    HW219548   3.978   0.311  10.128
 6406SOL     OW19549   4.096   1.288  10.800
 6406SOL    HW119550   4.083   1.381  10.766
 6406SOL    HW219551   4.012   1.236  10.787
 6407SOL     OW19552   4.314   1.487   9.801
 6407SOL    HW119553   4.356   1.429   9.731
 6407SOL    HW219554   4.270   1.566   9.757
 6408SOL     OW19555   3.979   1.348   9.600
 6408SOL    HW119556   3.883   1.349   9.573
 6408SOL    HW219557   3.991   1.401   9.684
 6409SOL     OW19558   3.829   1.013  11.036
 6409SOL    HW119559   3.752   0.980  11.090
 6409SOL    HW219560   3.914   0.983  11.078
 6410SOL     OW19561   4.396   0.203  10.799
 6410SOL    HW119562   4.486   0.187  10.759
 6410SOL    HW219563   4.404   0.208  10.898
 6411SOL     OW19564   3.799   0.345   9.343
 6411SOL    HW119565   3.707   0.317   9.314
 6411SOL    HW219566   3.830   0.422   9.287
 6412SOL     OW19567   3.796   0.166   9.628
 6412SOL    HW119568   3.779   0.249   9.574
 6412SOL    HW219569   3.886   0.129   9.606
 6413SOL     OW19570   4.337   0.842  10.741
 6413SOL    HW119571   4.393   0.923  10.724
 6413SOL    HW219572   4.396   0.762  10.744
 6414SOL     OW19573   4.440   0.565  11.018
 6414SOL    HW119574   4.459   0.630  11.092
 6414SOL    HW219575   4.500   0.485  11.027
 6415SOL     OW19576   4.114   1.741  10.870
 6415SOL    HW119577   4.023   1.782  10.868
 6415SOL    HW219578   4.107   1.647  10.902
 6416SOL     OW19579   4.318   0.745   9.962
 6416SOL    HW119580   4.368   0.830   9.943
 6416SOL    HW219581   4.230   0.747   9.914
 6417SOL     OW19582   3.803   1.240   9.963
 6417SOL    HW119583   3.802   1.193  10.051
 6417SOL    HW219584   3.885   1.212   9.912
 6418SOL     OW19585   4.396   1.391  10.934
 6418SOL    HW119586   4.318   1.341  10.972
 6418SOL    HW219587   4.393   1.486  10.965
 6419SOL     OW19588   4.152   0.424   9.830
 6419SOL    HW119589   4.182   0.352   9.768
 6419SOL    HW219590   4.113   0.384   9.913
 6420SOL     OW19591   4.041   0.547  10.590
 6420SOL    HW119592   4.079   0.488  10.662
 6420SOL    HW219593   4.081   0.521  10.502
 6421SOL     OW19594   4.536   1.586   9.997
 6421SOL    HW119595   4.568   1.596   9.903
 6421SOL    HW219596   4.457   1.524   9.999
 6422SOL     OW19597   3.763   1.077   9.610
 6422SOL    HW119598   3.862   1.066   9.601
 6422SOL    HW219599   3.723   0.991   9.642
 6423SOL     OW19600   3.954   2.490   0.113
 6423SOL    HW119601   3.861   2.488   0.150
 6423SOL    HW219602   3.955   2.451   0.021
 6424SOL     OW19603   3.949   2.137   0.996
 6424SOL    HW119604   3.984   2.120   1.088
 6424SOL    HW219605   3.861   2.092   0.984
 6425SOL     OW19606   3.743   2.230   0.647
 6425SOL    HW119607   3.661   2.273   0.686
 6425SOL    HW219608   3.715   2.157   0.584
 6426SOL     OW19609   4.293   3.137   1.165
 6426SOL    HW119610   4.200   3.130   1.128
 6426SOL    HW219611   4.304   3.226   1.209
 6427SOL     OW19612   4.574   2.660   1.823
 6427SOL    HW119613   4.570   2.736   1.888
 6427SOL    HW219614   4.596   2.696   1.732
 6428SOL     OW19615   4.409   2.874   0.665
 6428SOL    HW119616   4.478   2.858   0.735
 6428SOL    HW219617   4.336   2.931   0.703
 6429SOL     OW19618   4.410   3.023   1.803
 6429SOL    HW119619   4.470   3.102   1.817
 6429SOL    HW219620   4.324   3.054   1.762
 6430SOL     OW19621   4.059   3.297   1.061
 6430SOL    HW119622   3.981   3.266   1.008
 6430SOL    HW219623   4.117   3.355   1.004
 6431SOL     OW19624   4.162   2.254   1.499
 6431SOL    HW119625   4.244   2.198   1.508
 6431SOL    HW219626   4.081   2.196   1.503
 6432SOL     OW19627   3.955   3.575   0.483
 6432SOL    HW119628   3.989   3.652   0.537
 6432SOL    HW219629   3.999   3.575   0.393
 6433SOL     OW19630   3.954   3.296   0.538
 6433SOL    HW119631   3.928   3.392   0.538
 6433SOL    HW219632   3.883   3.242   0.583
 6434SOL     OW19633   3.964   2.953   0.886
 6434SOL    HW119634   3.978   2.869   0.938
 6434SOL    HW219635   3.909   3.017   0.941
 6435SOL     OW19636   4.344   3.648   1.439
 6435SOL    HW119637   4.252   3.631   1.474
 6435SOL    HW219638   4.372   3.740   1.465
 6436SOL     OW19639   4.330   2.826   0.123
 6436SOL    HW119640   4.337   2.910   0.069
 6436SOL    HW219641   4.376   2.839   0.211
 6437SOL     OW19642   3.846   2.505   0.563
 6437SOL    HW119643   3.801   2.417   0.580
 6437SOL    HW219644   3.845   2.559   0.647
 6438SOL     OW19645   3.751   3.458   0.117
 6438SOL    HW119646   3.732   3.362   0.138
 6438SOL    HW219647   3.718   3.516   0.192
 6439SOL     OW19648   3.837   2.599   1.597
 6439SOL    HW119649   3.925   2.586   1.642
 6439SOL    HW219650   3.824   2.696   1.575
 6440SOL     OW19651   4.337   3.227   0.726
 6440SOL    HW119652   4.288   3.140   0.735
 6440SOL    HW219653   4.314   3.270   0.639
 6441SOL     OW19654   4.533   1.866   0.502
 6441SOL    HW119655   4.573   1.957   0.493
 6441SOL    HW219656   4.433   1.874   0.508
 6442SOL     OW19657   3.921   2.838   1.264
 6442SOL    HW119658   4.010   2.793   1.250
 6442SOL    HW219659   3.848   2.773   1.245
 6443SOL     OW19660   4.041   2.113   1.801
 6443SOL    HW119661   4.112   2.184   1.807
 6443SOL    HW219662   3.953   2.152   1.829
 6444SOL     OW19663   4.322   2.591   0.270
 6444SOL    HW119664   4.346   2.660   0.202
 6444SOL    HW219665   4.244   2.624   0.324
 6445SOL     OW19666   3.800   2.673   0.789
 6445SOL    HW119667   3.899   2.661   0.798
 6445SOL    HW219668   3.776   2.768   0.810
 6446SOL     OW19669   3.854   3.683   1.571
 6446SOL    HW119670   3.844   3.668   1.670
 6446SOL    HW219671   3.768   3.719   1.535
 6447SOL     OW19672   4.274   2.058   0.885
 6447SOL    HW119673   4.269   2.053   0.985
 6447SOL    HW219674   4.276   2.154   0.856
 6448SOL     OW19675   4.075   3.663   0.853
 6448SOL    HW119676   4.125   3.577   0.859
 6448SOL    HW219677   4.140   3.740   0.850
 6449SOL     OW19678   4.045   2.805   0.242
 6449SOL    HW119679   4.127   2.844   0.200
 6449SOL    HW219680   4.018   2.723   0.193
 6450SOL     OW19681   4.185   3.128   1.727
 6450SOL    HW119682   4.135   3.129   1.641
 6450SOL    HW219683   4.122   3.110   1.803
 6451SOL     OW19684   3.926   2.147   1.498
 6451SOL    HW119685   3.846   2.207   1.485
 6451SOL    HW219686   3.916   2.098   1.584
 6452SOL     OW19687   4.188   3.605   0.323
 6452SOL    HW119688   4.221   3.644   0.409
 6452SOL    HW219689   4.264   3.598   0.258
 6453SOL     OW19690   3.973   3.647   1.241
 6453SOL    HW119691   4.030   3.582   1.291
 6453SOL    HW219692   3.957   3.614   1.148
 6454SOL     OW19693   4.106   2.562   0.480
 6454SOL    HW119694   4.151   2.472   0.477
 6454SOL    HW219695   4.012   2.551   0.513
 6455SOL     OW19696   4.338   1.984   0.117
 6455SOL    HW119697   4.436   1.962   0.124
 6455SOL    HW219698   4.307   1.967   0.024
 6456SOL     OW19699   4.527   3.264   0.924
 6456SOL    HW119700   4.617   3.278   0.882
 6456SOL    HW219701   4.456   3.266   0.853
 6457SOL     OW19702   4.263   1.926   0.512
 6457SOL    HW119703   4.182   1.927   0.570
 6457SOL    HW219704   4.266   2.009   0.457
 6458SOL     OW19705   4.021   1.897   0.171
 6458SOL    HW119706   4.070   1.981   0.150
 6458SOL    HW219707   4.083   1.832   0.216
 6459SOL     OW19708   4.800   2.545   1.464
 6459SOL    HW119709   4.720   2.484   1.467
 6459SOL    HW219710   4.881   2.492   1.440
 6460SOL     OW19711   4.183   3.014   0.741
 6460SOL    HW119712   4.112   2.987   0.806
 6460SOL    HW219713   4.157   2.986   0.648
 6461SOL     OW19714   3.802   2.418   1.386
 6461SOL    HW119715   3.894   2.417   1.345
 6461SOL    HW219716   3.796   2.492   1.453
 6462SOL     OW19717   4.285   2.084   1.147
 6462SOL    HW119718   4.323   2.000   1.184
 6462SOL    HW219719   4.197   2.103   1.191
 6463SOL     OW19720   4.212   3.247   0.174
 6463SOL    HW119721   4.125   3.232   0.221
 6463SOL    HW219722   4.195   3.273   0.079
 6464SOL     OW19723   4.251   2.118   0.328
 6464SOL    HW119724   4.278   2.059   0.253
 6464SOL    HW219725   4.251   2.213   0.297
 6465SOL     OW19726   4.134   2.675   1.251
 6465SOL    HW119727   4.220   2.687   1.301
 6465SOL    HW219728   4.092   2.588   1.278
 6466SOL     OW19729   3.788   3.426   1.331
 6466SOL    HW119730   3.742   3.508   1.297
 6466SOL    HW219731   3.886   3.445   1.340
 6467SOL     OW19732   4.091   2.962   0.501
 6467SOL    HW119733   4.084   3.045   0.445
 6467SOL    HW219734   4.095   2.882   0.441
 6468SOL     OW19735   4.290   2.399   0.865
 6468SOL    HW119736   4.302   2.465   0.791
 6468SOL    HW219737   4.336   2.433   0.948
 6469SOL     OW19738   4.078   3.372   1.329
 6469SOL    HW119739   4.057   3.328   1.242
 6469SOL    HW219740   4.175   3.398   1.332
 6470SOL     OW19741   4.126   2.613   1.598
 6470SOL    HW119742   4.194   2.668   1.551
 6470SOL    HW219743   4.166   2.525   1.625
 6471SOL     OW19744   4.228   1.912   1.740
 6471SOL    HW119745   4.186   1.855   1.670
 6471SOL    HW219746   4.162   1.981   1.772
 6472SOL     OW19747   4.297   2.732   1.029
 6472SOL    HW119748   4.341   2.821   1.020
 6472SOL    HW219749   4.234   2.732   1.106
 6473SOL     OW19750   4.031   2.075   1.231
 6473SOL    HW119751   4.008   2.112   1.321
 6473SOL    HW219752   4.001   1.980   1.225
 6474SOL     OW19753   3.761   3.172   1.282
 6474SOL    HW119754   3.814   3.123   1.350
 6474SOL    HW219755   3.783   3.270   1.287
 6475SOL     OW19756   4.031   1.925   0.618
 6475SOL    HW119757   4.020   2.019   0.651
 6475SOL    HW219758   4.026   1.862   0.695
 6476SOL     OW19759   4.074   2.760   1.804
 6476SOL    HW119760   4.150   2.804   1.852
 6476SOL    HW219761   4.109   2.713   1.722
 6477SOL     OW19762   4.043   2.672   0.949
 6477SOL    HW119763   4.136   2.708   0.954
 6477SOL    HW219764   4.037   2.587   1.001
 6478SOL     OW19765   4.063   2.371   1.006
 6478SOL    HW119766   4.011   2.288   0.989
 6478SOL    HW219767   4.140   2.376   0.942
 6479SOL     OW19768   3.732   3.188   0.200
 6479SOL    HW119769   3.639   3.209   0.169
 6479SOL    HW219770   3.742   3.089   0.213
 6480SOL     OW19771   3.812   3.663   0.927
 6480SOL    HW119772   3.770   3.577   0.900
 6480SOL    HW219773   3.906   3.666   0.893
 6481SOL     OW19774   4.228   3.430   0.910
 6481SOL    HW119775   4.294   3.504   0.919
 6481SOL    HW219776   4.272   3.351   0.868
 6482SOL     OW19777   3.764   2.406   1.114
 6482SOL    HW119778   3.849   2.373   1.073
 6482SOL    HW219779   3.777   2.421   1.212
 6483SOL     OW19780   3.913   2.382   1.722
 6483SOL    HW119781   3.972   2.342   1.652
 6483SOL    HW219782   3.855   2.453   1.681
 6484SOL     OW19783   4.539   2.434   0.325
 6484SOL    HW119784   4.546   2.345   0.279
 6484SOL    HW219785   4.445   2.468   0.317
 6485SOL     OW19786   3.976   3.426   1.744
 6485SOL    HW119787   3.946   3.483   1.820
 6485SOL    HW219788   3.969   3.329   1.770
 6486SOL     OW19789   4.197   2.362   0.191
 6486SOL    HW119790   4.258   2.442   0.195
 6486SOL    HW219791   4.102   2.393   0.198
 6487SOL     OW19792   3.883   2.999   1.466
 6487SOL    HW119793   3.905   2.938   1.542
 6487SOL    HW219794   3.893   2.950   1.380
 6488SOL     OW19795   3.807   3.120   1.022
 6488SOL    HW119796   3.802   3.119   1.122
 6488SOL    HW219797   3.724   3.079   0.984
 6489SOL     OW19798   4.412   3.524   1.716
 6489SOL    HW119799   4.356   3.605   1.725
 6489SOL    HW219800   4.464   3.528   1.630
 6490SOL     OW19801   3.854   3.656   1.851
 6490SOL    HW119802   3.813   3.582   1.904
 6490SOL    HW219803   3.918   3.707   1.909
 6491SOL     OW19804   3.987   2.188   0.720
 6491SOL    HW119805   3.908   2.239   0.686
 6491SOL    HW219806   3.978   2.173   0.818
 6492SOL     OW19807   4.096   3.150   1.490
 6492SOL    HW119808   4.083   3.243   1.456
 6492SOL    HW219809   4.012   3.098   1.477
 6493SOL     OW19810   4.314   3.349   0.491
 6493SOL    HW119811   4.356   3.291   0.421
 6493SOL    HW219812   4.270   3.428   0.447
 6494SOL     OW19813   3.979   3.210   0.290
 6494SOL    HW119814   3.883   3.211   0.263
 6494SOL    HW219815   3.991   3.263   0.374
 6495SOL     OW19816   3.829   2.875   1.726
 6495SOL    HW119817   3.752   2.842   1.780
 6495SOL    HW219818   3.914   2.845   1.768
 6496SOL     OW19819   4.396   2.065   1.489
 6496SOL    HW119820   4.486   2.049   1.449
 6496SOL    HW219821   4.404   2.070   1.588
 6497SOL     OW19822   3.796   2.028   0.318
 6497SOL    HW119823   3.779   2.111   0.264
 6497SOL    HW219824   3.886   1.991   0.296
 6498SOL     OW19825   4.337   2.704   1.431
 6498SOL    HW119826   4.393   2.785   1.414
 6498SOL    HW219827   4.396   2.624   1.434
 6499SOL     OW19828   4.440   2.427   1.708
 6499SOL    HW119829   4.459   2.492   1.782
 6499SOL    HW219830   4.500   2.347   1.717
 6500SOL     OW19831   4.114   3.603   1.560
 6500SOL    HW119832   4.023   3.644   1.558
 6500SOL    HW219833   4.107   3.509   1.592
 6501SOL     OW19834   4.318   2.607   0.652
 6501SOL    HW119835   4.368   2.692   0.633
 6501SOL    HW219836   4.230   2.609   0.604
 6502SOL     OW19837   3.945   3.176   1.844
 6502SOL    HW119838   3.880   3.103   1.823
 6502SOL    HW219839   3.949   3.190   1.942
 6503SOL     OW19840   3.803   3.102   0.653
 6503SOL    HW119841   3.802   3.055   0.741
 6503SOL    HW219842   3.885   3.074   0.602
 6504SOL     OW19843   4.396   3.253   1.624
 6504SOL    HW119844   4.318   3.203   1.662
 6504SOL    HW219845   4.393   3.348   1.655
 6505SOL     OW19846   4.152   2.286   0.520
 6505SOL    HW119847   4.182   2.214   0.458
 6505SOL    HW219848   4.113   2.246   0.603
 6506SOL     OW19849   4.041   2.409   1.280
 6506SOL    HW119850   4.079   2.350   1.352
 6506SOL    HW219851   4.081   2.383   1.192
 6507SOL     OW19852   4.536   3.448   0.687
 6507SOL    HW119853   4.568   3.458   0.593
 6507SOL    HW219854   4.457   3.386   0.689
 6508SOL     OW19855   3.763   2.939   0.300
 6508SOL    HW119856   3.862   2.928   0.291
 6508SOL    HW219857   3.723   2.853   0.332
 6509SOL     OW19858   3.954   2.490   1.975
 6509SOL    HW119859   3.861   2.488   2.012
 6509SOL    HW219860   3.955   2.451   1.883
 6510SOL     OW19861   3.949   2.137   2.858
 6510SOL    HW119862   3.984   2.120   2.950
 6510SOL    HW219863   3.861   2.092   2.846
 6511SOL     OW19864   3.743   2.230   2.509
 6511SOL    HW119865   3.661   2.273   2.548
 6511SOL    HW219866   3.715   2.157   2.446
 6512SOL     OW19867   4.293   3.137   3.027
 6512SOL    HW119868   4.200   3.130   2.990
 6512SOL    HW219869   4.304   3.226   3.071
 6513SOL     OW19870   4.574   2.660   3.685
 6513SOL    HW119871   4.570   2.736   3.750
 6513SOL    HW219872   4.596   2.696   3.594
 6514SOL     OW19873   4.409   2.874   2.527
 6514SOL    HW119874   4.478   2.858   2.597
 6514SOL    HW219875   4.336   2.931   2.565
 6515SOL     OW19876   4.410   3.023   3.665
 6515SOL    HW119877   4.470   3.102   3.679
 6515SOL    HW219878   4.324   3.054   3.624
 6516SOL     OW19879   4.059   3.297   2.923
 6516SOL    HW119880   3.981   3.266   2.870
 6516SOL    HW219881   4.117   3.355   2.866
 6517SOL     OW19882   4.162   2.254   3.361
 6517SOL    HW119883   4.244   2.198   3.370
 6517SOL    HW219884   4.081   2.196   3.365
 6518SOL     OW19885   3.955   3.575   2.345
 6518SOL    HW119886   3.989   3.652   2.399
 6518SOL    HW219887   3.999   3.575   2.255
 6519SOL     OW19888   3.954   3.296   2.400
 6519SOL    HW119889   3.928   3.392   2.400
 6519SOL    HW219890   3.883   3.242   2.445
 6520SOL     OW19891   3.964   2.953   2.748
 6520SOL    HW119892   3.978   2.869   2.800
 6520SOL    HW219893   3.909   3.017   2.803
 6521SOL     OW19894   4.344   3.648   3.301
 6521SOL    HW119895   4.252   3.631   3.336
 6521SOL    HW219896   4.372   3.740   3.327
 6522SOL     OW19897   4.330   2.826   1.985
 6522SOL    HW119898   4.337   2.910   1.931
 6522SOL    HW219899   4.376   2.839   2.073
 6523SOL     OW19900   3.846   2.505   2.425
 6523SOL    HW119901   3.801   2.417   2.442
 6523SOL    HW219902   3.845   2.559   2.509
 6524SOL     OW19903   3.751   3.458   1.979
 6524SOL    HW119904   3.732   3.362   2.000
 6524SOL    HW219905   3.718   3.516   2.054
 6525SOL     OW19906   3.837   2.599   3.459
 6525SOL    HW119907   3.925   2.586   3.504
 6525SOL    HW219908   3.824   2.696   3.437
 6526SOL     OW19909   4.337   3.227   2.588
 6526SOL    HW119910   4.288   3.140   2.597
 6526SOL    HW219911   4.314   3.270   2.501
 6527SOL     OW19912   4.533   1.866   2.364
 6527SOL    HW119913   4.573   1.957   2.355
 6527SOL    HW219914   4.433   1.874   2.370
 6528SOL     OW19915   3.921   2.838   3.126
 6528SOL    HW119916   4.010   2.793   3.112
 6528SOL    HW219917   3.848   2.773   3.107
 6529SOL     OW19918   4.041   2.113   3.663
 6529SOL    HW119919   4.112   2.184   3.669
 6529SOL    HW219920   3.953   2.152   3.691
 6530SOL     OW19921   4.322   2.591   2.132
 6530SOL    HW119922   4.346   2.660   2.064
 6530SOL    HW219923   4.244   2.624   2.186
 6531SOL     OW19924   3.800   2.673   2.651
 6531SOL    HW119925   3.899   2.661   2.660
 6531SOL    HW219926   3.776   2.768   2.672
 6532SOL     OW19927   3.854   3.683   3.433
 6532SOL    HW119928   3.844   3.668   3.532
 6532SOL    HW219929   3.768   3.719   3.397
 6533SOL     OW19930   4.274   2.058   2.747
 6533SOL    HW119931   4.269   2.053   2.847
 6533SOL    HW219932   4.276   2.154   2.718
 6534SOL     OW19933   4.075   3.663   2.715
 6534SOL    HW119934   4.125   3.577   2.721
 6534SOL    HW219935   4.140   3.740   2.712
 6535SOL     OW19936   4.045   2.805   2.104
 6535SOL    HW119937   4.127   2.844   2.062
 6535SOL    HW219938   4.018   2.723   2.055
 6536SOL     OW19939   4.185   3.128   3.589
 6536SOL    HW119940   4.135   3.129   3.503
 6536SOL    HW219941   4.122   3.110   3.665
 6537SOL     OW19942   3.926   2.147   3.360
 6537SOL    HW119943   3.846   2.207   3.347
 6537SOL    HW219944   3.916   2.098   3.446
 6538SOL     OW19945   4.188   3.605   2.185
 6538SOL    HW119946   4.221   3.644   2.271
 6538SOL    HW219947   4.264   3.598   2.120
 6539SOL     OW19948   3.973   3.647   3.103
 6539SOL    HW119949   4.030   3.582   3.153
 6539SOL    HW219950   3.957   3.614   3.010
 6540SOL     OW19951   4.106   2.562   2.342
 6540SOL    HW119952   4.151   2.472   2.339
 6540SOL    HW219953   4.012   2.551   2.375
 6541SOL     OW19954   4.338   1.984   1.979
 6541SOL    HW119955   4.436   1.962   1.986
 6541SOL    HW219956   4.307   1.967   1.886
 6542SOL     OW19957   4.527   3.264   2.786
 6542SOL    HW119958   4.617   3.278   2.744
 6542SOL    HW219959   4.456   3.266   2.715
 6543SOL     OW19960   4.263   1.926   2.374
 6543SOL    HW119961   4.182   1.927   2.432
 6543SOL    HW219962   4.266   2.009   2.319
 6544SOL     OW19963   4.021   1.897   2.033
 6544SOL    HW119964   4.070   1.981   2.012
 6544SOL    HW219965   4.083   1.832   2.078
 6545SOL     OW19966   4.800   2.545   3.326
 6545SOL    HW119967   4.720   2.484   3.329
 6545SOL    HW219968   4.881   2.492   3.302
 6546SOL     OW19969   4.183   3.014   2.603
 6546SOL    HW119970   4.112   2.987   2.668
 6546SOL    HW219971   4.157   2.986   2.510
 6547SOL     OW19972   3.802   2.418   3.248
 6547SOL    HW119973   3.894   2.417   3.207
 6547SOL    HW219974   3.796   2.492   3.315
 6548SOL     OW19975   4.285   2.084   3.009
 6548SOL    HW119976   4.323   2.000   3.046
 6548SOL    HW219977   4.197   2.103   3.053
 6549SOL     OW19978   4.212   3.247   2.036
 6549SOL    HW119979   4.125   3.232   2.083
 6549SOL    HW219980   4.195   3.273   1.941
 6550SOL     OW19981   4.251   2.118   2.190
 6550SOL    HW119982   4.278   2.059   2.115
 6550SOL    HW219983   4.251   2.213   2.159
 6551SOL     OW19984   4.134   2.675   3.113
 6551SOL    HW119985   4.220   2.687   3.163
 6551SOL    HW219986   4.092   2.588   3.140
 6552SOL     OW19987   3.788   3.426   3.193
 6552SOL    HW119988   3.742   3.508   3.159
 6552SOL    HW219989   3.886   3.445   3.202
 6553SOL     OW19990   4.091   2.962   2.363
 6553SOL    HW119991   4.084   3.045   2.307
 6553SOL    HW219992   4.095   2.882   2.303
 6554SOL     OW19993   4.290   2.399   2.727
 6554SOL    HW119994   4.302   2.465   2.653
 6554SOL    HW219995   4.336   2.433   2.810
 6555SOL     OW19996   4.078   3.372   3.191
 6555SOL    HW119997   4.057   3.328   3.104
 6555SOL    HW219998   4.175   3.398   3.194
 6556SOL     OW19999   4.126   2.613   3.460
 6556SOL    HW120000   4.194   2.668   3.413
 6556SOL    HW220001   4.166   2.525   3.487
 6557SOL     OW20002   4.228   1.912   3.602
 6557SOL    HW120003   4.186   1.855   3.532
 6557SOL    HW220004   4.162   1.981   3.634
 6558SOL     OW20005   4.297   2.732   2.891
 6558SOL    HW120006   4.341   2.821   2.882
 6558SOL    HW220007   4.234   2.732   2.968
 6559SOL     OW20008   4.031   2.075   3.093
 6559SOL    HW120009   4.008   2.112   3.183
 6559SOL    HW220010   4.001   1.980   3.087
 6560SOL     OW20011   3.761   3.172   3.144
 6560SOL    HW120012   3.814   3.123   3.212
 6560SOL    HW220013   3.783   3.270   3.149
 6561SOL     OW20014   4.031   1.925   2.480
 6561SOL    HW120015   4.020   2.019   2.513
 6561SOL    HW220016   4.026   1.862   2.557
 6562SOL     OW20017   4.074   2.760   3.666
 6562SOL    HW120018   4.150   2.804   3.714
 6562SOL    HW220019   4.109   2.713   3.584
 6563SOL     OW20020   4.043   2.672   2.811
 6563SOL    HW120021   4.136   2.708   2.816
 6563SOL    HW220022   4.037   2.587   2.863
 6564SOL     OW20023   4.063   2.371   2.868
 6564SOL    HW120024   4.011   2.288   2.851
 6564SOL    HW220025   4.140   2.376   2.804
 6565SOL     OW20026   3.732   3.188   2.062
 6565SOL    HW120027   3.639   3.209   2.031
 6565SOL    HW220028   3.742   3.089   2.075
 6566SOL     OW20029   3.812   3.663   2.789
 6566SOL    HW120030   3.770   3.577   2.762
 6566SOL    HW220031   3.906   3.666   2.755
 6567SOL     OW20032   4.228   3.430   2.772
 6567SOL    HW120033   4.294   3.504   2.781
 6567SOL    HW220034   4.272   3.351   2.730
 6568SOL     OW20035   3.764   2.406   2.976
 6568SOL    HW120036   3.849   2.373   2.935
 6568SOL    HW220037   3.777   2.421   3.074
 6569SOL     OW20038   3.913   2.382   3.584
 6569SOL    HW120039   3.972   2.342   3.514
 6569SOL    HW220040   3.855   2.453   3.543
 6570SOL     OW20041   4.539   2.434   2.187
 6570SOL    HW120042   4.546   2.345   2.141
 6570SOL    HW220043   4.445   2.468   2.179
 6571SOL     OW20044   3.976   3.426   3.606
 6571SOL    HW120045   3.946   3.483   3.682
 6571SOL    HW220046   3.969   3.329   3.632
 6572SOL     OW20047   4.197   2.362   2.053
 6572SOL    HW120048   4.258   2.442   2.057
 6572SOL    HW220049   4.102   2.393   2.060
 6573SOL     OW20050   3.883   2.999   3.328
 6573SOL    HW120051   3.905   2.938   3.404
 6573SOL    HW220052   3.893   2.950   3.242
 6574SOL     OW20053   3.807   3.120   2.884
 6574SOL    HW120054   3.802   3.119   2.984
 6574SOL    HW220055   3.724   3.079   2.846
 6575SOL     OW20056   4.412   3.524   3.578
 6575SOL    HW120057   4.356   3.605   3.587
 6575SOL    HW220058   4.464   3.528   3.492
 6576SOL     OW20059   3.854   3.656   3.713
 6576SOL    HW120060   3.813   3.582   3.766
 6576SOL    HW220061   3.918   3.707   3.771
 6577SOL     OW20062   3.987   2.188   2.582
 6577SOL    HW120063   3.908   2.239   2.548
 6577SOL    HW220064   3.978   2.173   2.680
 6578SOL     OW20065   4.096   3.150   3.352
 6578SOL    HW120066   4.083   3.243   3.318
 6578SOL    HW220067   4.012   3.098   3.339
 6579SOL     OW20068   4.314   3.349   2.353
 6579SOL    HW120069   4.356   3.291   2.283
 6579SOL    HW220070   4.270   3.428   2.309
 6580SOL     OW20071   3.979   3.210   2.152
 6580SOL    HW120072   3.883   3.211   2.125
 6580SOL    HW220073   3.991   3.263   2.236
 6581SOL     OW20074   3.829   2.875   3.588
 6581SOL    HW120075   3.752   2.842   3.642
 6581SOL    HW220076   3.914   2.845   3.630
 6582SOL     OW20077   4.396   2.065   3.351
 6582SOL    HW120078   4.486   2.049   3.311
 6582SOL    HW220079   4.404   2.070   3.450
 6583SOL     OW20080   3.799   2.207   1.895
 6583SOL    HW120081   3.707   2.179   1.866
 6583SOL    HW220082   3.830   2.284   1.839
 6584SOL     OW20083   3.796   2.028   2.180
 6584SOL    HW120084   3.779   2.111   2.126
 6584SOL    HW220085   3.886   1.991   2.158
 6585SOL     OW20086   4.337   2.704   3.293
 6585SOL    HW120087   4.393   2.785   3.276
 6585SOL    HW220088   4.396   2.624   3.296
 6586SOL     OW20089   4.440   2.427   3.570
 6586SOL    HW120090   4.459   2.492   3.644
 6586SOL    HW220091   4.500   2.347   3.579
 6587SOL     OW20092   4.114   3.603   3.422
 6587SOL    HW120093   4.023   3.644   3.420
 6587SOL    HW220094   4.107   3.509   3.454
 6588SOL     OW20095   4.318   2.607   2.514
 6588SOL    HW120096   4.368   2.692   2.495
 6588SOL    HW220097   4.230   2.609   2.466
 6589SOL     OW20098   3.945   3.176   3.706
 6589SOL    HW120099   3.880   3.103   3.685
 6589SOL    HW220100   3.949   3.190   3.804
 6590SOL     OW20101   3.803   3.102   2.515
 6590SOL    HW120102   3.802   3.055   2.603
 6590SOL    HW220103   3.885   3.074   2.464
 6591SOL     OW20104   4.396   3.253   3.486
 6591SOL    HW120105   4.318   3.203   3.524
 6591SOL    HW220106   4.393   3.348   3.517
 6592SOL     OW20107   4.152   2.286   2.382
 6592SOL    HW120108   4.182   2.214   2.320
 6592SOL    HW220109   4.113   2.246   2.465
 6593SOL     OW20110   4.041   2.409   3.142
 6593SOL    HW120111   4.079   2.350   3.214
 6593SOL    HW220112   4.081   2.383   3.054
 6594SOL     OW20113   4.536   3.448   2.549
 6594SOL    HW120114   4.568   3.458   2.455
 6594SOL    HW220115   4.457   3.386   2.551
 6595SOL     OW20116   3.763   2.939   2.162
 6595SOL    HW120117   3.862   2.928   2.153
 6595SOL    HW220118   3.723   2.853   2.194
 6596SOL     OW20119   3.954   2.490   3.837
 6596SOL    HW120120   3.861   2.488   3.874
 6596SOL    HW220121   3.955   2.451   3.745
 6597SOL     OW20122   3.949   2.137   4.720
 6597SOL    HW120123   3.984   2.120   4.812
 6597SOL    HW220124   3.861   2.092   4.708
 6598SOL     OW20125   3.743   2.230   4.371
 6598SOL    HW120126   3.661   2.273   4.410
 6598SOL    HW220127   3.715   2.157   4.308
 6599SOL     OW20128   4.293   3.137   4.889
 6599SOL    HW120129   4.200   3.130   4.852
 6599SOL    HW220130   4.304   3.226   4.933
 6600SOL     OW20131   4.574   2.660   5.547
 6600SOL    HW120132   4.570   2.736   5.612
 6600SOL    HW220133   4.596   2.696   5.456
 6601SOL     OW20134   4.409   2.874   4.389
 6601SOL    HW120135   4.478   2.858   4.459
 6601SOL    HW220136   4.336   2.931   4.427
 6602SOL     OW20137   4.410   3.023   5.527
 6602SOL    HW120138   4.470   3.102   5.541
 6602SOL    HW220139   4.324   3.054   5.486
 6603SOL     OW20140   4.059   3.297   4.785
 6603SOL    HW120141   3.981   3.266   4.732
 6603SOL    HW220142   4.117   3.355   4.728
 6604SOL     OW20143   4.162   2.254   5.223
 6604SOL    HW120144   4.244   2.198   5.232
 6604SOL    HW220145   4.081   2.196   5.227
 6605SOL     OW20146   3.955   3.575   4.207
 6605SOL    HW120147   3.989   3.652   4.261
 6605SOL    HW220148   3.999   3.575   4.117
 6606SOL     OW20149   3.954   3.296   4.262
 6606SOL    HW120150   3.928   3.392   4.262
 6606SOL    HW220151   3.883   3.242   4.307
 6607SOL     OW20152   3.964   2.953   4.610
 6607SOL    HW120153   3.978   2.869   4.662
 6607SOL    HW220154   3.909   3.017   4.665
 6608SOL     OW20155   4.344   3.648   5.163
 6608SOL    HW120156   4.252   3.631   5.198
 6608SOL    HW220157   4.372   3.740   5.189
 6609SOL     OW20158   4.330   2.826   3.847
 6609SOL    HW120159   4.337   2.910   3.793
 6609SOL    HW220160   4.376   2.839   3.935
 6610SOL     OW20161   3.846   2.505   4.287
 6610SOL    HW120162   3.801   2.417   4.304
 6610SOL    HW220163   3.845   2.559   4.371
 6611SOL     OW20164   3.751   3.458   3.841
 6611SOL    HW120165   3.732   3.362   3.862
 6611SOL    HW220166   3.718   3.516   3.916
 6612SOL     OW20167   3.837   2.599   5.321
 6612SOL    HW120168   3.925   2.586   5.366
 6612SOL    HW220169   3.824   2.696   5.299
 6613SOL     OW20170   4.337   3.227   4.450
 6613SOL    HW120171   4.288   3.140   4.459
 6613SOL    HW220172   4.314   3.270   4.363
 6614SOL     OW20173   4.533   1.866   4.226
 6614SOL    HW120174   4.573   1.957   4.217
 6614SOL    HW220175   4.433   1.874   4.232
 6615SOL     OW20176   3.921   2.838   4.988
 6615SOL    HW120177   4.010   2.793   4.974
 6615SOL    HW220178   3.848   2.773   4.969
 6616SOL     OW20179   4.041   2.113   5.525
 6616SOL    HW120180   4.112   2.184   5.531
 6616SOL    HW220181   3.953   2.152   5.553
 6617SOL     OW20182   4.322   2.591   3.994
 6617SOL    HW120183   4.346   2.660   3.926
 6617SOL    HW220184   4.244   2.624   4.048
 6618SOL     OW20185   3.800   2.673   4.513
 6618SOL    HW120186   3.899   2.661   4.522
 6618SOL    HW220187   3.776   2.768   4.534
 6619SOL     OW20188   3.854   3.683   5.295
 6619SOL    HW120189   3.844   3.668   5.394
 6619SOL    HW220190   3.768   3.719   5.259
 6620SOL     OW20191   4.274   2.058   4.609
 6620SOL    HW120192   4.269   2.053   4.709
 6620SOL    HW220193   4.276   2.154   4.580
 6621SOL     OW20194   4.075   3.663   4.577
 6621SOL    HW120195   4.125   3.577   4.583
 6621SOL    HW220196   4.140   3.740   4.574
 6622SOL     OW20197   4.045   2.805   3.966
 6622SOL    HW120198   4.127   2.844   3.924
 6622SOL    HW220199   4.018   2.723   3.917
 6623SOL     OW20200   4.185   3.128   5.451
 6623SOL    HW120201   4.135   3.129   5.365
 6623SOL    HW220202   4.122   3.110   5.527
 6624SOL     OW20203   3.926   2.147   5.222
 6624SOL    HW120204   3.846   2.207   5.209
 6624SOL    HW220205   3.916   2.098   5.308
 6625SOL     OW20206   4.188   3.605   4.047
 6625SOL    HW120207   4.221   3.644   4.133
 6625SOL    HW220208   4.264   3.598   3.982
 6626SOL     OW20209   3.973   3.647   4.965
 6626SOL    HW120210   4.030   3.582   5.015
 6626SOL    HW220211   3.957   3.614   4.872
 6627SOL     OW20212   4.106   2.562   4.204
 6627SOL    HW120213   4.151   2.472   4.201
 6627SOL    HW220214   4.012   2.551   4.237
 6628SOL     OW20215   4.338   1.984   3.841
 6628SOL    HW120216   4.436   1.962   3.848
 6628SOL    HW220217   4.307   1.967   3.748
 6629SOL     OW20218   4.527   3.264   4.648
 6629SOL    HW120219   4.617   3.278   4.606
 6629SOL    HW220220   4.456   3.266   4.577
 6630SOL     OW20221   4.263   1.926   4.236
 6630SOL    HW120222   4.182   1.927   4.294
 6630SOL    HW220223   4.266   2.009   4.181
 6631SOL     OW20224   4.021   1.897   3.895
 6631SOL    HW120225   4.070   1.981   3.874
 6631SOL    HW220226   4.083   1.832   3.940
 6632SOL     OW20227   4.800   2.545   5.188
 6632SOL    HW120228   4.720   2.484   5.191
 6632SOL    HW220229   4.881   2.492   5.164
 6633SOL     OW20230   4.183   3.014   4.465
 6633SOL    HW120231   4.112   2.987   4.530
 6633SOL    HW220232   4.157   2.986   4.372
 6634SOL     OW20233   3.802   2.418   5.110
 6634SOL    HW120234   3.894   2.417   5.069
 6634SOL    HW220235   3.796   2.492   5.177
 6635SOL     OW20236   4.285   2.084   4.871
 6635SOL    HW120237   4.323   2.000   4.908
 6635SOL    HW220238   4.197   2.103   4.915
 6636SOL     OW20239   4.212   3.247   3.898
 6636SOL    HW120240   4.125   3.232   3.945
 6636SOL    HW220241   4.195   3.273   3.803
 6637SOL     OW20242   4.251   2.118   4.052
 6637SOL    HW120243   4.278   2.059   3.977
 6637SOL    HW220244   4.251   2.213   4.021
 6638SOL     OW20245   4.134   2.675   4.975
 6638SOL    HW120246   4.220   2.687   5.025
 6638SOL    HW220247   4.092   2.588   5.002
 6639SOL     OW20248   3.788   3.426   5.055
 6639SOL    HW120249   3.742   3.508   5.021
 6639SOL    HW220250   3.886   3.445   5.064
 6640SOL     OW20251   4.091   2.962   4.225
 6640SOL    HW120252   4.084   3.045   4.169
 6640SOL    HW220253   4.095   2.882   4.165
 6641SOL     OW20254   4.290   2.399   4.589
 6641SOL    HW120255   4.302   2.465   4.515
 6641SOL    HW220256   4.336   2.433   4.672
 6642SOL     OW20257   4.078   3.372   5.053
 6642SOL    HW120258   4.057   3.328   4.966
 6642SOL    HW220259   4.175   3.398   5.056
 6643SOL     OW20260   4.126   2.613   5.322
 6643SOL    HW120261   4.194   2.668   5.275
 6643SOL    HW220262   4.166   2.525   5.349
 6644SOL     OW20263   4.228   1.912   5.464
 6644SOL    HW120264   4.186   1.855   5.394
 6644SOL    HW220265   4.162   1.981   5.496
 6645SOL     OW20266   4.297   2.732   4.753
 6645SOL    HW120267   4.341   2.821   4.744
 6645SOL    HW220268   4.234   2.732   4.830
 6646SOL     OW20269   4.031   2.075   4.955
 6646SOL    HW120270   4.008   2.112   5.045
 6646SOL    HW220271   4.001   1.980   4.949
 6647SOL     OW20272   3.761   3.172   5.006
 6647SOL    HW120273   3.814   3.123   5.074
 6647SOL    HW220274   3.783   3.270   5.011
 6648SOL     OW20275   4.031   1.925   4.342
 6648SOL    HW120276   4.020   2.019   4.375
 6648SOL    HW220277   4.026   1.862   4.419
 6649SOL     OW20278   4.074   2.760   5.528
 6649SOL    HW120279   4.150   2.804   5.576
 6649SOL    HW220280   4.109   2.713   5.446
 6650SOL     OW20281   4.043   2.672   4.673
 6650SOL    HW120282   4.136   2.708   4.678
 6650SOL    HW220283   4.037   2.587   4.725
 6651SOL     OW20284   4.063   2.371   4.730
 6651SOL    HW120285   4.011   2.288   4.713
 6651SOL    HW220286   4.140   2.376   4.666
 6652SOL     OW20287   3.732   3.188   3.924
 6652SOL    HW120288   3.639   3.209   3.893
 6652SOL    HW220289   3.742   3.089   3.937
 6653SOL     OW20290   3.812   3.663   4.651
 6653SOL    HW120291   3.770   3.577   4.624
 6653SOL    HW220292   3.906   3.666   4.617
 6654SOL     OW20293   4.228   3.430   4.634
 6654SOL    HW120294   4.294   3.504   4.643
 6654SOL    HW220295   4.272   3.351   4.592
 6655SOL     OW20296   3.764   2.406   4.838
 6655SOL    HW120297   3.849   2.373   4.797
 6655SOL    HW220298   3.777   2.421   4.936
 6656SOL     OW20299   3.913   2.382   5.446
 6656SOL    HW120300   3.972   2.342   5.376
 6656SOL    HW220301   3.855   2.453   5.405
 6657SOL     OW20302   4.539   2.434   4.049
 6657SOL    HW120303   4.546   2.345   4.003
 6657SOL    HW220304   4.445   2.468   4.041
 6658SOL     OW20305   3.976   3.426   5.468
 6658SOL    HW120306   3.946   3.483   5.544
 6658SOL    HW220307   3.969   3.329   5.494
 6659SOL     OW20308   4.197   2.362   3.915
 6659SOL    HW120309   4.258   2.442   3.919
 6659SOL    HW220310   4.102   2.393   3.922
 6660SOL     OW20311   3.883   2.999   5.190
 6660SOL    HW120312   3.905   2.938   5.266
 6660SOL    HW220313   3.893   2.950   5.104
 6661SOL     OW20314   3.807   3.120   4.746
 6661SOL    HW120315   3.802   3.119   4.846
 6661SOL    HW220316   3.724   3.079   4.708
 6662SOL     OW20317   4.412   3.524   5.440
 6662SOL    HW120318   4.356   3.605   5.449
 6662SOL    HW220319   4.464   3.528   5.354
 6663SOL     OW20320   3.854   3.656   5.575
 6663SOL    HW120321   3.813   3.582   5.628
 6663SOL    HW220322   3.918   3.707   5.633
 6664SOL     OW20323   3.987   2.188   4.444
 6664SOL    HW120324   3.908   2.239   4.410
 6664SOL    HW220325   3.978   2.173   4.542
 6665SOL     OW20326   4.096   3.150   5.214
 6665SOL    HW120327   4.083   3.243   5.180
 6665SOL    HW220328   4.012   3.098   5.201
 6666SOL     OW20329   4.314   3.349   4.215
 6666SOL    HW120330   4.356   3.291   4.145
 6666SOL    HW220331   4.270   3.428   4.171
 6667SOL     OW20332   3.979   3.210   4.014
 6667SOL    HW120333   3.883   3.211   3.987
 6667SOL    HW220334   3.991   3.263   4.098
 6668SOL     OW20335   3.829   2.875   5.450
 6668SOL    HW120336   3.752   2.842   5.504
 6668SOL    HW220337   3.914   2.845   5.492
 6669SOL     OW20338   4.396   2.065   5.213
 6669SOL    HW120339   4.486   2.049   5.173
 6669SOL    HW220340   4.404   2.070   5.312
 6670SOL     OW20341   3.799   2.207   3.757
 6670SOL    HW120342   3.707   2.179   3.728
 6670SOL    HW220343   3.830   2.284   3.701
 6671SOL     OW20344   3.796   2.028   4.042
 6671SOL    HW120345   3.779   2.111   3.988
 6671SOL    HW220346   3.886   1.991   4.020
 6672SOL     OW20347   4.337   2.704   5.155
 6672SOL    HW120348   4.393   2.785   5.138
 6672SOL    HW220349   4.396   2.624   5.158
 6673SOL     OW20350   4.440   2.427   5.432
 6673SOL    HW120351   4.459   2.492   5.506
 6673SOL    HW220352   4.500   2.347   5.441
 6674SOL     OW20353   4.114   3.603   5.284
 6674SOL    HW120354   4.023   3.644   5.282
 6674SOL    HW220355   4.107   3.509   5.316
 6675SOL     OW20356   4.318   2.607   4.376
 6675SOL    HW120357   4.368   2.692   4.357
 6675SOL    HW220358   4.230   2.609   4.328
 6676SOL     OW20359   3.945   3.176   5.568
 6676SOL    HW120360   3.880   3.103   5.547
 6676SOL    HW220361   3.949   3.190   5.666
 6677SOL     OW20362   3.803   3.102   4.377
 6677SOL    HW120363   3.802   3.055   4.465
 6677SOL    HW220364   3.885   3.074   4.326
 6678SOL     OW20365   4.396   3.253   5.348
 6678SOL    HW120366   4.318   3.203   5.386
 6678SOL    HW220367   4.393   3.348   5.379
 6679SOL     OW20368   4.152   2.286   4.244
 6679SOL    HW120369   4.182   2.214   4.182
 6679SOL    HW220370   4.113   2.246   4.327
 6680SOL     OW20371   4.041   2.409   5.004
 6680SOL    HW120372   4.079   2.350   5.076
 6680SOL    HW220373   4.081   2.383   4.916
 6681SOL     OW20374   4.536   3.448   4.411
 6681SOL    HW120375   4.568   3.458   4.317
 6681SOL    HW220376   4.457   3.386   4.413
 6682SOL     OW20377   3.763   2.939   4.024
 6682SOL    HW120378   3.862   2.928   4.015
 6682SOL    HW220379   3.723   2.853   4.056
 6683SOL     OW20380   3.954   2.490   5.699
 6683SOL    HW120381   3.861   2.488   5.736
 6683SOL    HW220382   3.955   2.451   5.607
 6684SOL     OW20383   3.949   2.137   6.582
 6684SOL    HW120384   3.984   2.120   6.674
 6684SOL    HW220385   3.861   2.092   6.570
 6685SOL     OW20386   3.743   2.230   6.233
 6685SOL    HW120387   3.661   2.273   6.272
 6685SOL    HW220388   3.715   2.157   6.170
 6686SOL     OW20389   4.293   3.137   6.751
 6686SOL    HW120390   4.200   3.130   6.714
 6686SOL    HW220391   4.304   3.226   6.795
 6687SOL     OW20392   4.574   2.660   7.409
 6687SOL    HW120393   4.570   2.736   7.474
 6687SOL    HW220394   4.596   2.696   7.318
 6688SOL     OW20395   4.409   2.874   6.251
 6688SOL    HW120396   4.478   2.858   6.321
 6688SOL    HW220397   4.336   2.931   6.289
 6689SOL     OW20398   4.410   3.023   7.389
 6689SOL    HW120399   4.470   3.102   7.403
 6689SOL    HW220400   4.324   3.054   7.348
 6690SOL     OW20401   4.059   3.297   6.647
 6690SOL    HW120402   3.981   3.266   6.594
 6690SOL    HW220403   4.117   3.355   6.590
 6691SOL     OW20404   4.162   2.254   7.085
 6691SOL    HW120405   4.244   2.198   7.094
 6691SOL    HW220406   4.081   2.196   7.089
 6692SOL     OW20407   3.955   3.575   6.069
 6692SOL    HW120408   3.989   3.652   6.123
 6692SOL    HW220409   3.999   3.575   5.979
 6693SOL     OW20410   3.954   3.296   6.124
 6693SOL    HW120411   3.928   3.392   6.124
 6693SOL    HW220412   3.883   3.242   6.169
 6694SOL     OW20413   3.964   2.953   6.472
 6694SOL    HW120414   3.978   2.869   6.524
 6694SOL    HW220415   3.909   3.017   6.527
 6695SOL     OW20416   4.344   3.648   7.025
 6695SOL    HW120417   4.252   3.631   7.060
 6695SOL    HW220418   4.372   3.740   7.051
 6696SOL     OW20419   4.330   2.826   5.709
 6696SOL    HW120420   4.337   2.910   5.655
 6696SOL    HW220421   4.376   2.839   5.797
 6697SOL     OW20422   3.846   2.505   6.149
 6697SOL    HW120423   3.801   2.417   6.166
 6697SOL    HW220424   3.845   2.559   6.233
 6698SOL     OW20425   3.751   3.458   5.703
 6698SOL    HW120426   3.732   3.362   5.724
 6698SOL    HW220427   3.718   3.516   5.778
 6699SOL     OW20428   3.837   2.599   7.183
 6699SOL    HW120429   3.925   2.586   7.228
 6699SOL    HW220430   3.824   2.696   7.161
 6700SOL     OW20431   4.337   3.227   6.312
 6700SOL    HW120432   4.288   3.140   6.321
 6700SOL    HW220433   4.314   3.270   6.225
 6701SOL     OW20434   4.533   1.866   6.088
 6701SOL    HW120435   4.573   1.957   6.079
 6701SOL    HW220436   4.433   1.874   6.094
 6702SOL     OW20437   3.921   2.838   6.850
 6702SOL    HW120438   4.010   2.793   6.836
 6702SOL    HW220439   3.848   2.773   6.831
 6703SOL     OW20440   4.041   2.113   7.387
 6703SOL    HW120441   4.112   2.184   7.393
 6703SOL    HW220442   3.953   2.152   7.415
 6704SOL     OW20443   4.322   2.591   5.856
 6704SOL    HW120444   4.346   2.660   5.788
 6704SOL    HW220445   4.244   2.624   5.910
 6705SOL     OW20446   3.800   2.673   6.375
 6705SOL    HW120447   3.899   2.661   6.384
 6705SOL    HW220448   3.776   2.768   6.396
 6706SOL     OW20449   3.854   3.683   7.157
 6706SOL    HW120450   3.844   3.668   7.256
 6706SOL    HW220451   3.768   3.719   7.121
 6707SOL     OW20452   4.274   2.058   6.471
 6707SOL    HW120453   4.269   2.053   6.571
 6707SOL    HW220454   4.276   2.154   6.442
 6708SOL     OW20455   4.075   3.663   6.439
 6708SOL    HW120456   4.125   3.577   6.445
 6708SOL    HW220457   4.140   3.740   6.436
 6709SOL     OW20458   4.045   2.805   5.828
 6709SOL    HW120459   4.127   2.844   5.786
 6709SOL    HW220460   4.018   2.723   5.779
 6710SOL     OW20461   4.185   3.128   7.313
 6710SOL    HW120462   4.135   3.129   7.227
 6710SOL    HW220463   4.122   3.110   7.389
 6711SOL     OW20464   3.926   2.147   7.084
 6711SOL    HW120465   3.846   2.207   7.071
 6711SOL    HW220466   3.916   2.098   7.170
 6712SOL     OW20467   4.188   3.605   5.909
 6712SOL    HW120468   4.221   3.644   5.995
 6712SOL    HW220469   4.264   3.598   5.844
 6713SOL     OW20470   3.973   3.647   6.827
 6713SOL    HW120471   4.030   3.582   6.877
 6713SOL    HW220472   3.957   3.614   6.734
 6714SOL     OW20473   4.106   2.562   6.066
 6714SOL    HW120474   4.151   2.472   6.063
 6714SOL    HW220475   4.012   2.551   6.099
 6715SOL     OW20476   4.338   1.984   5.703
 6715SOL    HW120477   4.436   1.962   5.710
 6715SOL    HW220478   4.307   1.967   5.610
 6716SOL     OW20479   4.527   3.264   6.510
 6716SOL    HW120480   4.617   3.278   6.468
 6716SOL    HW220481   4.456   3.266   6.439
 6717SOL     OW20482   4.263   1.926   6.098
 6717SOL    HW120483   4.182   1.927   6.156
 6717SOL    HW220484   4.266   2.009   6.043
 6718SOL     OW20485   4.021   1.897   5.757
 6718SOL    HW120486   4.070   1.981   5.736
 6718SOL    HW220487   4.083   1.832   5.802
 6719SOL     OW20488   4.800   2.545   7.050
 6719SOL    HW120489   4.720   2.484   7.053
 6719SOL    HW220490   4.881   2.492   7.026
 6720SOL     OW20491   4.183   3.014   6.327
 6720SOL    HW120492   4.112   2.987   6.392
 6720SOL    HW220493   4.157   2.986   6.234
 6721SOL     OW20494   3.802   2.418   6.972
 6721SOL    HW120495   3.894   2.417   6.931
 6721SOL    HW220496   3.796   2.492   7.039
 6722SOL     OW20497   4.285   2.084   6.733
 6722SOL    HW120498   4.323   2.000   6.770
 6722SOL    HW220499   4.197   2.103   6.777
 6723SOL     OW20500   4.212   3.247   5.760
 6723SOL    HW120501   4.125   3.232   5.807
 6723SOL    HW220502   4.195   3.273   5.665
 6724SOL     OW20503   4.251   2.118   5.914
 6724SOL    HW120504   4.278   2.059   5.839
 6724SOL    HW220505   4.251   2.213   5.883
 6725SOL     OW20506   4.134   2.675   6.837
 6725SOL    HW120507   4.220   2.687   6.887
 6725SOL    HW220508   4.092   2.588   6.864
 6726SOL     OW20509   3.788   3.426   6.917
 6726SOL    HW120510   3.742   3.508   6.883
 6726SOL    HW220511   3.886   3.445   6.926
 6727SOL     OW20512   4.091   2.962   6.087
 6727SOL    HW120513   4.084   3.045   6.031
 6727SOL    HW220514   4.095   2.882   6.027
 6728SOL     OW20515   4.290   2.399   6.451
 6728SOL    HW120516   4.302   2.465   6.377
 6728SOL    HW220517   4.336   2.433   6.534
 6729SOL     OW20518   4.078   3.372   6.915
 6729SOL    HW120519   4.057   3.328   6.828
 6729SOL    HW220520   4.175   3.398   6.918
 6730SOL     OW20521   4.126   2.613   7.184
 6730SOL    HW120522   4.194   2.668   7.137
 6730SOL    HW220523   4.166   2.525   7.211
 6731SOL     OW20524   4.228   1.912   7.326
 6731SOL    HW120525   4.186   1.855   7.256
 6731SOL    HW220526   4.162   1.981   7.358
 6732SOL     OW20527   4.297   2.732   6.615
 6732SOL    HW120528   4.341   2.821   6.606
 6732SOL    HW220529   4.234   2.732   6.692
 6733SOL     OW20530   4.031   2.075   6.817
 6733SOL    HW120531   4.008   2.112   6.907
 6733SOL    HW220532   4.001   1.980   6.811
 6734SOL     OW20533   3.761   3.172   6.868
 6734SOL    HW120534   3.814   3.123   6.936
 6734SOL    HW220535   3.783   3.270   6.873
 6735SOL     OW20536   4.031   1.925   6.204
 6735SOL    HW120537   4.020   2.019   6.237
 6735SOL    HW220538   4.026   1.862   6.281
 6736SOL     OW20539   4.074   2.760   7.390
 6736SOL    HW120540   4.150   2.804   7.438
 6736SOL    HW220541   4.109   2.713   7.308
 6737SOL     OW20542   4.043   2.672   6.535
 6737SOL    HW120543   4.136   2.708   6.540
 6737SOL    HW220544   4.037   2.587   6.587
 6738SOL     OW20545   4.063   2.371   6.592
 6738SOL    HW120546   4.011   2.288   6.575
 6738SOL    HW220547   4.140   2.376   6.528
 6739SOL     OW20548   3.732   3.188   5.786
 6739SOL    HW120549   3.639   3.209   5.755
 6739SOL    HW220550   3.742   3.089   5.799
 6740SOL     OW20551   3.812   3.663   6.513
 6740SOL    HW120552   3.770   3.577   6.486
 6740SOL    HW220553   3.906   3.666   6.479
 6741SOL     OW20554   4.228   3.430   6.496
 6741SOL    HW120555   4.294   3.504   6.505
 6741SOL    HW220556   4.272   3.351   6.454
 6742SOL     OW20557   3.764   2.406   6.700
 6742SOL    HW120558   3.849   2.373   6.659
 6742SOL    HW220559   3.777   2.421   6.798
 6743SOL     OW20560   3.913   2.382   7.308
 6743SOL    HW120561   3.972   2.342   7.238
 6743SOL    HW220562   3.855   2.453   7.267
 6744SOL     OW20563   4.539   2.434   5.911
 6744SOL    HW120564   4.546   2.345   5.865
 6744SOL    HW220565   4.445   2.468   5.903
 6745SOL     OW20566   3.976   3.426   7.330
 6745SOL    HW120567   3.946   3.483   7.406
 6745SOL    HW220568   3.969   3.329   7.356
 6746SOL     OW20569   4.197   2.362   5.777
 6746SOL    HW120570   4.258   2.442   5.781
 6746SOL    HW220571   4.102   2.393   5.784
 6747SOL     OW20572   3.883   2.999   7.052
 6747SOL    HW120573   3.905   2.938   7.128
 6747SOL    HW220574   3.893   2.950   6.966
 6748SOL     OW20575   3.807   3.120   6.608
 6748SOL    HW120576   3.802   3.119   6.708
 6748SOL    HW220577   3.724   3.079   6.570
 6749SOL     OW20578   4.412   3.524   7.302
 6749SOL    HW120579   4.356   3.605   7.311
 6749SOL    HW220580   4.464   3.528   7.216
 6750SOL     OW20581   3.854   3.656   7.437
 6750SOL    HW120582   3.813   3.582   7.490
 6750SOL    HW220583   3.918   3.707   7.495
 6751SOL     OW20584   3.987   2.188   6.306
 6751SOL    HW120585   3.908   2.239   6.272
 6751SOL    HW220586   3.978   2.173   6.404
 6752SOL     OW20587   4.096   3.150   7.076
 6752SOL    HW120588   4.083   3.243   7.042
 6752SOL    HW220589   4.012   3.098   7.063
 6753SOL     OW20590   4.314   3.349   6.077
 6753SOL    HW120591   4.356   3.291   6.007
 6753SOL    HW220592   4.270   3.428   6.033
 6754SOL     OW20593   3.979   3.210   5.876
 6754SOL    HW120594   3.883   3.211   5.849
 6754SOL    HW220595   3.991   3.263   5.960
 6755SOL     OW20596   3.829   2.875   7.312
 6755SOL    HW120597   3.752   2.842   7.366
 6755SOL    HW220598   3.914   2.845   7.354
 6756SOL     OW20599   4.396   2.065   7.075
 6756SOL    HW120600   4.486   2.049   7.035
 6756SOL    HW220601   4.404   2.070   7.174
 6757SOL     OW20602   3.799   2.207   5.619
 6757SOL    HW120603   3.707   2.179   5.590
 6757SOL    HW220604   3.830   2.284   5.563
 6758SOL     OW20605   3.796   2.028   5.904
 6758SOL    HW120606   3.779   2.111   5.850
 6758SOL    HW220607   3.886   1.991   5.882
 6759SOL     OW20608   4.337   2.704   7.017
 6759SOL    HW120609   4.393   2.785   7.000
 6759SOL    HW220610   4.396   2.624   7.020
 6760SOL     OW20611   4.440   2.427   7.294
 6760SOL    HW120612   4.459   2.492   7.368
 6760SOL    HW220613   4.500   2.347   7.303
 6761SOL     OW20614   4.114   3.603   7.146
 6761SOL    HW120615   4.023   3.644   7.144
 6761SOL    HW220616   4.107   3.509   7.178
 6762SOL     OW20617   4.318   2.607   6.238
 6762SOL    HW120618   4.368   2.692   6.219
 6762SOL    HW220619   4.230   2.609   6.190
 6763SOL     OW20620   3.945   3.176   7.430
 6763SOL    HW120621   3.880   3.103   7.409
 6763SOL    HW220622   3.949   3.190   7.528
 6764SOL     OW20623   3.803   3.102   6.239
 6764SOL    HW120624   3.802   3.055   6.327
 6764SOL    HW220625   3.885   3.074   6.188
 6765SOL     OW20626   4.396   3.253   7.210
 6765SOL    HW120627   4.318   3.203   7.248
 6765SOL    HW220628   4.393   3.348   7.241
 6766SOL     OW20629   4.152   2.286   6.106
 6766SOL    HW120630   4.182   2.214   6.044
 6766SOL    HW220631   4.113   2.246   6.189
 6767SOL     OW20632   4.041   2.409   6.866
 6767SOL    HW120633   4.079   2.350   6.938
 6767SOL    HW220634   4.081   2.383   6.778
 6768SOL     OW20635   4.536   3.448   6.273
 6768SOL    HW120636   4.568   3.458   6.179
 6768SOL    HW220637   4.457   3.386   6.275
 6769SOL     OW20638   3.763   2.939   5.886
 6769SOL    HW120639   3.862   2.928   5.877
 6769SOL    HW220640   3.723   2.853   5.918
 6770SOL     OW20641   3.954   2.490   7.561
 6770SOL    HW120642   3.861   2.488   7.598
 6770SOL    HW220643   3.955   2.451   7.469
 6771SOL     OW20644   3.949   2.137   8.444
 6771SOL    HW120645   3.984   2.120   8.536
 6771SOL    HW220646   3.861   2.092   8.432
 6772SOL     OW20647   3.743   2.230   8.095
 6772SOL    HW120648   3.661   2.273   8.134
 6772SOL    HW220649   3.715   2.157   8.032
 6773SOL     OW20650   4.293   3.137   8.613
 6773SOL    HW120651   4.200   3.130   8.576
 6773SOL    HW220652   4.304   3.226   8.657
 6774SOL     OW20653   4.574   2.660   9.271
 6774SOL    HW120654   4.570   2.736   9.336
 6774SOL    HW220655   4.596   2.696   9.180
 6775SOL     OW20656   4.409   2.874   8.113
 6775SOL    HW120657   4.478   2.858   8.183
 6775SOL    HW220658   4.336   2.931   8.151
 6776SOL     OW20659   4.410   3.023   9.251
 6776SOL    HW120660   4.470   3.102   9.265
 6776SOL    HW220661   4.324   3.054   9.210
 6777SOL     OW20662   4.059   3.297   8.509
 6777SOL    HW120663   3.981   3.266   8.456
 6777SOL    HW220664   4.117   3.355   8.452
 6778SOL     OW20665   4.162   2.254   8.947
 6778SOL    HW120666   4.244   2.198   8.956
 6778SOL    HW220667   4.081   2.196   8.951
 6779SOL     OW20668   3.955   3.575   7.931
 6779SOL    HW120669   3.989   3.652   7.985
 6779SOL    HW220670   3.999   3.575   7.841
 6780SOL     OW20671   3.954   3.296   7.986
 6780SOL    HW120672   3.928   3.392   7.986
 6780SOL    HW220673   3.883   3.242   8.031
 6781SOL     OW20674   3.964   2.953   8.334
 6781SOL    HW120675   3.978   2.869   8.386
 6781SOL    HW220676   3.909   3.017   8.389
 6782SOL     OW20677   4.344   3.648   8.887
 6782SOL    HW120678   4.252   3.631   8.922
 6782SOL    HW220679   4.372   3.740   8.913
 6783SOL     OW20680   4.330   2.826   7.571
 6783SOL    HW120681   4.337   2.910   7.517
 6783SOL    HW220682   4.376   2.839   7.659
 6784SOL     OW20683   3.846   2.505   8.011
 6784SOL    HW120684   3.801   2.417   8.028
 6784SOL    HW220685   3.845   2.559   8.095
 6785SOL     OW20686   3.751   3.458   7.565
 6785SOL    HW120687   3.732   3.362   7.586
 6785SOL    HW220688   3.718   3.516   7.640
 6786SOL     OW20689   3.837   2.599   9.045
 6786SOL    HW120690   3.925   2.586   9.090
 6786SOL    HW220691   3.824   2.696   9.023
 6787SOL     OW20692   4.337   3.227   8.174
 6787SOL    HW120693   4.288   3.140   8.183
 6787SOL    HW220694   4.314   3.270   8.087
 6788SOL     OW20695   4.533   1.866   7.950
 6788SOL    HW120696   4.573   1.957   7.941
 6788SOL    HW220697   4.433   1.874   7.956
 6789SOL     OW20698   3.921   2.838   8.712
 6789SOL    HW120699   4.010   2.793   8.698
 6789SOL    HW220700   3.848   2.773   8.693
 6790SOL     OW20701   4.041   2.113   9.249
 6790SOL    HW120702   4.112   2.184   9.255
 6790SOL    HW220703   3.953   2.152   9.277
 6791SOL     OW20704   4.322   2.591   7.718
 6791SOL    HW120705   4.346   2.660   7.650
 6791SOL    HW220706   4.244   2.624   7.772
 6792SOL     OW20707   3.800   2.673   8.237
 6792SOL    HW120708   3.899   2.661   8.246
 6792SOL    HW220709   3.776   2.768   8.258
 6793SOL     OW20710   3.854   3.683   9.019
 6793SOL    HW120711   3.844   3.668   9.118
 6793SOL    HW220712   3.768   3.719   8.983
 6794SOL     OW20713   4.274   2.058   8.333
 6794SOL    HW120714   4.269   2.053   8.433
 6794SOL    HW220715   4.276   2.154   8.304
 6795SOL     OW20716   4.075   3.663   8.301
 6795SOL    HW120717   4.125   3.577   8.307
 6795SOL    HW220718   4.140   3.740   8.298
 6796SOL     OW20719   4.045   2.805   7.690
 6796SOL    HW120720   4.127   2.844   7.648
 6796SOL    HW220721   4.018   2.723   7.641
 6797SOL     OW20722   4.185   3.128   9.175
 6797SOL    HW120723   4.135   3.129   9.089
 6797SOL    HW220724   4.122   3.110   9.251
 6798SOL     OW20725   3.926   2.147   8.946
 6798SOL    HW120726   3.846   2.207   8.933
 6798SOL    HW220727   3.916   2.098   9.032
 6799SOL     OW20728   4.188   3.605   7.771
 6799SOL    HW120729   4.221   3.644   7.857
 6799SOL    HW220730   4.264   3.598   7.706
 6800SOL     OW20731   3.973   3.647   8.689
 6800SOL    HW120732   4.030   3.582   8.739
 6800SOL    HW220733   3.957   3.614   8.596
 6801SOL     OW20734   4.106   2.562   7.928
 6801SOL    HW120735   4.151   2.472   7.925
 6801SOL    HW220736   4.012   2.551   7.961
 6802SOL     OW20737   4.338   1.984   7.565
 6802SOL    HW120738   4.436   1.962   7.572
 6802SOL    HW220739   4.307   1.967   7.472
 6803SOL     OW20740   4.527   3.264   8.372
 6803SOL    HW120741   4.617   3.278   8.330
 6803SOL    HW220742   4.456   3.266   8.301
 6804SOL     OW20743   4.263   1.926   7.960
 6804SOL    HW120744   4.182   1.927   8.018
 6804SOL    HW220745   4.266   2.009   7.905
 6805SOL     OW20746   4.021   1.897   7.619
 6805SOL    HW120747   4.070   1.981   7.598
 6805SOL    HW220748   4.083   1.832   7.664
 6806SOL     OW20749   4.800   2.545   8.912
 6806SOL    HW120750   4.720   2.484   8.915
 6806SOL    HW220751   4.881   2.492   8.888
 6807SOL     OW20752   4.183   3.014   8.189
 6807SOL    HW120753   4.112   2.987   8.254
 6807SOL    HW220754   4.157   2.986   8.096
 6808SOL     OW20755   3.802   2.418   8.834
 6808SOL    HW120756   3.894   2.417   8.793
 6808SOL    HW220757   3.796   2.492   8.901
 6809SOL     OW20758   4.285   2.084   8.595
 6809SOL    HW120759   4.323   2.000   8.632
 6809SOL    HW220760   4.197   2.103   8.639
 6810SOL     OW20761   4.212   3.247   7.622
 6810SOL    HW120762   4.125   3.232   7.669
 6810SOL    HW220763   4.195   3.273   7.527
 6811SOL     OW20764   4.251   2.118   7.776
 6811SOL    HW120765   4.278   2.059   7.701
 6811SOL    HW220766   4.251   2.213   7.745
 6812SOL     OW20767   4.134   2.675   8.699
 6812SOL    HW120768   4.220   2.687   8.749
 6812SOL    HW220769   4.092   2.588   8.726
 6813SOL     OW20770   3.788   3.426   8.779
 6813SOL    HW120771   3.742   3.508   8.745
 6813SOL    HW220772   3.886   3.445   8.788
 6814SOL     OW20773   4.091   2.962   7.949
 6814SOL    HW120774   4.084   3.045   7.893
 6814SOL    HW220775   4.095   2.882   7.889
 6815SOL     OW20776   4.290   2.399   8.313
 6815SOL    HW120777   4.302   2.465   8.239
 6815SOL    HW220778   4.336   2.433   8.396
 6816SOL     OW20779   4.078   3.372   8.777
 6816SOL    HW120780   4.057   3.328   8.690
 6816SOL    HW220781   4.175   3.398   8.780
 6817SOL     OW20782   4.126   2.613   9.046
 6817SOL    HW120783   4.194   2.668   8.999
 6817SOL    HW220784   4.166   2.525   9.073
 6818SOL     OW20785   4.228   1.912   9.188
 6818SOL    HW120786   4.186   1.855   9.118
 6818SOL    HW220787   4.162   1.981   9.220
 6819SOL     OW20788   4.297   2.732   8.477
 6819SOL    HW120789   4.341   2.821   8.468
 6819SOL    HW220790   4.234   2.732   8.554
 6820SOL     OW20791   4.031   2.075   8.679
 6820SOL    HW120792   4.008   2.112   8.769
 6820SOL    HW220793   4.001   1.980   8.673
 6821SOL     OW20794   3.761   3.172   8.730
 6821SOL    HW120795   3.814   3.123   8.798
 6821SOL    HW220796   3.783   3.270   8.735
 6822SOL     OW20797   4.031   1.925   8.066
 6822SOL    HW120798   4.020   2.019   8.099
 6822SOL    HW220799   4.026   1.862   8.143
 6823SOL     OW20800   4.074   2.760   9.252
 6823SOL    HW120801   4.150   2.804   9.300
 6823SOL    HW220802   4.109   2.713   9.170
 6824SOL     OW20803   4.043   2.672   8.397
 6824SOL    HW120804   4.136   2.708   8.402
 6824SOL    HW220805   4.037   2.587   8.449
 6825SOL     OW20806   4.063   2.371   8.454
 6825SOL    HW120807   4.011   2.288   8.437
 6825SOL    HW220808   4.140   2.376   8.390
 6826SOL     OW20809   3.732   3.188   7.648
 6826SOL    HW120810   3.639   3.209   7.617
 6826SOL    HW220811   3.742   3.089   7.661
 6827SOL     OW20812   3.812   3.663   8.375
 6827SOL    HW120813   3.770   3.577   8.348
 6827SOL    HW220814   3.906   3.666   8.341
 6828SOL     OW20815   4.228   3.430   8.358
 6828SOL    HW120816   4.294   3.504   8.367
 6828SOL    HW220817   4.272   3.351   8.316
 6829SOL     OW20818   3.764   2.406   8.562
 6829SOL    HW120819   3.849   2.373   8.521
 6829SOL    HW220820   3.777   2.421   8.660
 6830SOL     OW20821   3.913   2.382   9.170
 6830SOL    HW120822   3.972   2.342   9.100
 6830SOL    HW220823   3.855   2.453   9.129
 6831SOL     OW20824   4.539   2.434   7.773
 6831SOL    HW120825   4.546   2.345   7.727
 6831SOL    HW220826   4.445   2.468   7.765
 6832SOL     OW20827   3.976   3.426   9.192
 6832SOL    HW120828   3.946   3.483   9.268
 6832SOL    HW220829   3.969   3.329   9.218
 6833SOL     OW20830   4.197   2.362   7.639
 6833SOL    HW120831   4.258   2.442   7.643
 6833SOL    HW220832   4.102   2.393   7.646
 6834SOL     OW20833   3.883   2.999   8.914
 6834SOL    HW120834   3.905   2.938   8.990
 6834SOL    HW220835   3.893   2.950   8.828
 6835SOL     OW20836   3.807   3.120   8.470
 6835SOL    HW120837   3.802   3.119   8.570
 6835SOL    HW220838   3.724   3.079   8.432
 6836SOL     OW20839   4.412   3.524   9.164
 6836SOL    HW120840   4.356   3.605   9.173
 6836SOL    HW220841   4.464   3.528   9.078
 6837SOL     OW20842   3.854   3.656   9.299
 6837SOL    HW120843   3.813   3.582   9.352
 6837SOL    HW220844   3.918   3.707   9.357
 6838SOL     OW20845   3.987   2.188   8.168
 6838SOL    HW120846   3.908   2.239   8.134
 6838SOL    HW220847   3.978   2.173   8.266
 6839SOL     OW20848   4.096   3.150   8.938
 6839SOL    HW120849   4.083   3.243   8.904
 6839SOL    HW220850   4.012   3.098   8.925
 6840SOL     OW20851   4.314   3.349   7.939
 6840SOL    HW120852   4.356   3.291   7.869
 6840SOL    HW220853   4.270   3.428   7.895
 6841SOL     OW20854   3.979   3.210   7.738
 6841SOL    HW120855   3.883   3.211   7.711
 6841SOL    HW220856   3.991   3.263   7.822
 6842SOL     OW20857   3.829   2.875   9.174
 6842SOL    HW120858   3.752   2.842   9.228
 6842SOL    HW220859   3.914   2.845   9.216
 6843SOL     OW20860   4.396   2.065   8.937
 6843SOL    HW120861   4.486   2.049   8.897
 6843SOL    HW220862   4.404   2.070   9.036
 6844SOL     OW20863   3.799   2.207   7.481
 6844SOL    HW120864   3.707   2.179   7.452
 6844SOL    HW220865   3.830   2.284   7.425
 6845SOL     OW20866   3.796   2.028   7.766
 6845SOL    HW120867   3.779   2.111   7.712
 6845SOL    HW220868   3.886   1.991   7.744
 6846SOL     OW20869   4.337   2.704   8.879
 6846SOL    HW120870   4.393   2.785   8.862
 6846SOL    HW220871   4.396   2.624   8.882
 6847SOL     OW20872   4.440   2.427   9.156
 6847SOL    HW120873   4.459   2.492   9.230
 6847SOL    HW220874   4.500   2.347   9.165
 6848SOL     OW20875   4.114   3.603   9.008
 6848SOL    HW120876   4.023   3.644   9.006
 6848SOL    HW220877   4.107   3.509   9.040
 6849SOL     OW20878   4.318   2.607   8.100
 6849SOL    HW120879   4.368   2.692   8.081
 6849SOL    HW220880   4.230   2.609   8.052
 6850SOL     OW20881   3.945   3.176   9.292
 6850SOL    HW120882   3.880   3.103   9.271
 6850SOL    HW220883   3.949   3.190   9.390
 6851SOL     OW20884   3.803   3.102   8.101
 6851SOL    HW120885   3.802   3.055   8.189
 6851SOL    HW220886   3.885   3.074   8.050
 6852SOL     OW20887   4.396   3.253   9.072
 6852SOL    HW120888   4.318   3.203   9.110
 6852SOL    HW220889   4.393   3.348   9.103
 6853SOL     OW20890   4.152   2.286   7.968
 6853SOL    HW120891   4.182   2.214   7.906
 6853SOL    HW220892   4.113   2.246   8.051
 6854SOL     OW20893   4.041   2.409   8.728
 6854SOL    HW120894   4.079   2.350   8.800
 6854SOL    HW220895   4.081   2.383   8.640
 6855SOL     OW20896   4.536   3.448   8.135
 6855SOL    HW120897   4.568   3.458   8.041
 6855SOL    HW220898   4.457   3.386   8.137
 6856SOL     OW20899   3.763   2.939   7.748
 6856SOL    HW120900   3.862   2.928   7.739
 6856SOL    HW220901   3.723   2.853   7.780
 6857SOL     OW20902   3.954   2.490   9.423
 6857SOL    HW120903   3.861   2.488   9.460
 6857SOL    HW220904   3.955   2.451   9.331
 6858SOL     OW20905   3.949   2.137  10.306
 6858SOL    HW120906   3.984   2.120  10.398
 6858SOL    HW220907   3.861   2.092  10.294
 6859SOL     OW20908   3.743   2.230   9.957
 6859SOL    HW120909   3.661   2.273   9.996
 6859SOL    HW220910   3.715   2.157   9.894
 6860SOL     OW20911   4.293   3.137  10.475
 6860SOL    HW120912   4.200   3.130  10.438
 6860SOL    HW220913   4.304   3.226  10.519
 6861SOL     OW20914   4.574   2.660  11.133
 6861SOL    HW120915   4.570   2.736  11.198
 6861SOL    HW220916   4.596   2.696  11.042
 6862SOL     OW20917   4.409   2.874   9.975
 6862SOL    HW120918   4.478   2.858  10.045
 6862SOL    HW220919   4.336   2.931  10.013
 6863SOL     OW20920   4.059   3.297  10.371
 6863SOL    HW120921   3.981   3.266  10.318
 6863SOL    HW220922   4.117   3.355  10.314
 6864SOL     OW20923   4.162   2.254  10.809
 6864SOL    HW120924   4.244   2.198  10.818
 6864SOL    HW220925   4.081   2.196  10.813
 6865SOL     OW20926   3.955   3.575   9.793
 6865SOL    HW120927   3.989   3.652   9.847
 6865SOL    HW220928   3.999   3.575   9.703
 6866SOL     OW20929   3.954   3.296   9.848
 6866SOL    HW120930   3.928   3.392   9.848
 6866SOL    HW220931   3.883   3.242   9.893
 6867SOL     OW20932   3.964   2.953  10.196
 6867SOL    HW120933   3.978   2.869  10.248
 6867SOL    HW220934   3.909   3.017  10.251
 6868SOL     OW20935   4.344   3.648  10.749
 6868SOL    HW120936   4.252   3.631  10.784
 6868SOL    HW220937   4.372   3.740  10.775
 6869SOL     OW20938   4.330   2.826   9.433
 6869SOL    HW120939   4.337   2.910   9.379
 6869SOL    HW220940   4.376   2.839   9.521
 6870SOL     OW20941   3.846   2.505   9.873
 6870SOL    HW120942   3.801   2.417   9.890
 6870SOL    HW220943   3.845   2.559   9.957
 6871SOL     OW20944   3.751   3.458   9.427
 6871SOL    HW120945   3.732   3.362   9.448
 6871SOL    HW220946   3.718   3.516   9.502
 6872SOL     OW20947   3.837   2.599  10.907
 6872SOL    HW120948   3.925   2.586  10.952
 6872SOL    HW220949   3.824   2.696  10.885
 6873SOL     OW20950   4.337   3.227  10.036
 6873SOL    HW120951   4.288   3.140  10.045
 6873SOL    HW220952   4.314   3.270   9.949
 6874SOL     OW20953   4.533   1.866   9.812
 6874SOL    HW120954   4.573   1.957   9.803
 6874SOL    HW220955   4.433   1.874   9.818
 6875SOL     OW20956   3.921   2.838  10.574
 6875SOL    HW120957   4.010   2.793  10.560
 6875SOL    HW220958   3.848   2.773  10.555
 6876SOL     OW20959   4.322   2.591   9.580
 6876SOL    HW120960   4.346   2.660   9.512
 6876SOL    HW220961   4.244   2.624   9.634
 6877SOL     OW20962   3.800   2.673  10.099
 6877SOL    HW120963   3.899   2.661  10.108
 6877SOL    HW220964   3.776   2.768  10.120
 6878SOL     OW20965   3.854   3.683  10.881
 6878SOL    HW120966   3.844   3.668  10.980
 6878SOL    HW220967   3.768   3.719  10.845
 6879SOL     OW20968   4.274   2.058  10.195
 6879SOL    HW120969   4.269   2.053  10.295
 6879SOL    HW220970   4.276   2.154  10.166
 6880SOL     OW20971   4.075   3.663  10.163
 6880SOL    HW120972   4.125   3.577  10.169
 6880SOL    HW220973   4.140   3.740  10.160
 6881SOL     OW20974   4.045   2.805   9.552
 6881SOL    HW120975   4.127   2.844   9.510
 6881SOL    HW220976   4.018   2.723   9.503
 6882SOL     OW20977   3.926   2.147  10.808
 6882SOL    HW120978   3.846   2.207  10.795
 6882SOL    HW220979   3.916   2.098  10.894
 6883SOL     OW20980   4.188   3.605   9.633
 6883SOL    HW120981   4.221   3.644   9.719
 6883SOL    HW220982   4.264   3.598   9.568
 6884SOL     OW20983   3.973   3.647  10.551
 6884SOL    HW120984   4.030   3.582  10.601
 6884SOL    HW220985   3.957   3.614  10.458
 6885SOL     OW20986   4.106   2.562   9.790
 6885SOL    HW120987   4.151   2.472   9.787
 6885SOL    HW220988   4.012   2.551   9.823
 6886SOL     OW20989   4.338   1.984   9.427
 6886SOL    HW120990   4.436   1.962   9.434
 6886SOL    HW220991   4.307   1.967   9.334
 6887SOL     OW20992   4.527   3.264  10.234
 6887SOL    HW120993   4.617   3.278  10.192
 6887SOL    HW220994   4.456   3.266  10.163
 6888SOL     OW20995   4.263   1.926   9.822
 6888SOL    HW120996   4.182   1.927   9.880
 6888SOL    HW220997   4.266   2.009   9.767
 6889SOL     OW20998   4.021   1.897   9.481
 6889SOL    HW120999   4.070   1.981   9.460
 6889SOL    HW221000   4.083   1.832   9.526
 6890SOL     OW21001   4.800   2.545  10.774
 6890SOL    HW121002   4.720   2.484  10.777
 6890SOL    HW221003   4.881   2.492  10.750
 6891SOL     OW21004   4.183   3.014  10.051
 6891SOL    HW121005   4.112   2.987  10.116
 6891SOL    HW221006   4.157   2.986   9.958
 6892SOL     OW21007   3.802   2.418  10.696
 6892SOL    HW121008   3.894   2.417  10.655
 6892SOL    HW221009   3.796   2.492  10.763
 6893SOL     OW21010   4.285   2.084  10.457
 6893SOL    HW121011   4.323   2.000  10.494
 6893SOL    HW221012   4.197   2.103  10.501
 6894SOL     OW21013   4.212   3.247   9.484
 6894SOL    HW121014   4.125   3.232   9.531
 6894SOL    HW221015   4.195   3.273   9.389
 6895SOL     OW21016   4.251   2.118   9.638
 6895SOL    HW121017   4.278   2.059   9.563
 6895SOL    HW221018   4.251   2.213   9.607
 6896SOL     OW21019   4.134   2.675  10.561
 6896SOL    HW121020   4.220   2.687  10.611
 6896SOL    HW221021   4.092   2.588  10.588
 6897SOL     OW21022   3.788   3.426  10.641
 6897SOL    HW121023   3.742   3.508  10.607
 6897SOL    HW221024   3.886   3.445  10.650
 6898SOL     OW21025   4.091   2.962   9.811
 6898SOL    HW121026   4.084   3.045   9.755
 6898SOL    HW221027   4.095   2.882   9.751
 6899SOL     OW21028   4.290   2.399  10.175
 6899SOL    HW121029   4.302   2.465  10.101
 6899SOL    HW221030   4.336   2.433  10.258
 6900SOL     OW21031   4.078   3.372  10.639
 6900SOL    HW121032   4.057   3.328  10.552
 6900SOL    HW221033   4.175   3.398  10.642
 6901SOL     OW21034   4.126   2.613  10.908
 6901SOL    HW121035   4.194   2.668  10.861
 6901SOL    HW221036   4.166   2.525  10.935
 6902SOL     OW21037   4.297   2.732  10.339
 6902SOL    HW121038   4.341   2.821  10.330
 6902SOL    HW221039   4.234   2.732  10.416
 6903SOL     OW21040   4.031   2.075  10.541
 6903SOL    HW121041   4.008   2.112  10.631
 6903SOL    HW221042   4.001   1.980  10.535
 6904SOL     OW21043   3.761   3.172  10.592
 6904SOL    HW121044   3.814   3.123  10.660
 6904SOL    HW221045   3.783   3.270  10.597
 6905SOL     OW21046   4.031   1.925   9.928
 6905SOL    HW121047   4.020   2.019   9.961
 6905SOL    HW221048   4.026   1.862  10.005
 6906SOL     OW21049   4.043   2.672  10.259
 6906SOL    HW121050   4.136   2.708  10.264
 6906SOL    HW221051   4.037   2.587  10.311
 6907SOL     OW21052   4.063   2.371  10.316
 6907SOL    HW121053   4.011   2.288  10.299
 6907SOL    HW221054   4.140   2.376  10.252
 6908SOL     OW21055   3.732   3.188   9.510
 6908SOL    HW121056   3.639   3.209   9.479
 6908SOL    HW221057   3.742   3.089   9.523
 6909SOL     OW21058   3.812   3.663  10.237
 6909SOL    HW121059   3.770   3.577  10.210
 6909SOL    HW221060   3.906   3.666  10.203
 6910SOL     OW21061   4.228   3.430  10.220
 6910SOL    HW121062   4.294   3.504  10.229
 6910SOL    HW221063   4.272   3.351  10.178
 6911SOL     OW21064   3.764   2.406  10.424
 6911SOL    HW121065   3.849   2.373  10.383
 6911SOL    HW221066   3.777   2.421  10.522
 6912SOL     OW21067   4.539   2.434   9.635
 6912SOL    HW121068   4.546   2.345   9.589
 6912SOL    HW221069   4.445   2.468   9.627
 6913SOL     OW21070   3.976   3.426  11.054
 6913SOL    HW121071   3.946   3.483  11.130
 6913SOL    HW221072   3.969   3.329  11.080
 6914SOL     OW21073   4.197   2.362   9.501
 6914SOL    HW121074   4.258   2.442   9.505
 6914SOL    HW221075   4.102   2.393   9.508
 6915SOL     OW21076   3.883   2.999  10.776
 6915SOL    HW121077   3.905   2.938  10.852
 6915SOL    HW221078   3.893   2.950  10.690
 6916SOL     OW21079   3.807   3.120  10.332
 6916SOL    HW121080   3.802   3.119  10.432
 6916SOL    HW221081   3.724   3.079  10.294
 6917SOL     OW21082   3.987   2.188  10.030
 6917SOL    HW121083   3.908   2.239   9.996
 6917SOL    HW221084   3.978   2.173  10.128
 6918SOL     OW21085   4.096   3.150  10.800
 6918SOL    HW121086   4.083   3.243  10.766
 6918SOL    HW221087   4.012   3.098  10.787
 6919SOL     OW21088   4.314   3.349   9.801
 6919SOL    HW121089   4.356   3.291   9.731
 6919SOL    HW221090   4.270   3.428   9.757
 6920SOL     OW21091   3.979   3.210   9.600
 6920SOL    HW121092   3.883   3.211   9.573
 6920SOL    HW221093   3.991   3.263   9.684
 6921SOL     OW21094   3.829   2.875  11.036
 6921SOL    HW121095   3.752   2.842  11.090
 6921SOL    HW221096   3.914   2.845  11.078
 6922SOL     OW21097   4.396   2.065  10.799
 6922SOL    HW121098   4.486   2.049  10.759
 6922SOL    HW221099   4.404   2.070  10.898
 6923SOL     OW21100   3.799   2.207   9.343
 6923SOL    HW121101   3.707   2.179   9.314
 6923SOL    HW221102   3.830   2.284   9.287
 6924SOL     OW21103   3.796   2.028   9.628
 6924SOL    HW121104   3.779   2.111   9.574
 6924SOL    HW221105   3.886   1.991   9.606
 6925SOL     OW21106   4.337   2.704  10.741
 6925SOL    HW121107   4.393   2.785  10.724
 6925SOL    HW221108   4.396   2.624  10.744
 6926SOL     OW21109   4.440   2.427  11.018
 6926SOL    HW121110   4.459   2.492  11.092
 6926SOL    HW221111   4.500   2.347  11.027
 6927SOL     OW21112   4.114   3.603  10.870
 6927SOL    HW121113   4.023   3.644  10.868
 6927SOL    HW221114   4.107   3.509  10.902
 6928SOL     OW21115   4.318   2.607   9.962
 6928SOL    HW121116   4.368   2.692   9.943
 6928SOL    HW221117   4.230   2.609   9.914
 6929SOL     OW21118   3.803   3.102   9.963
 6929SOL    HW121119   3.802   3.055  10.051
 6929SOL    HW221120   3.885   3.074   9.912
 6930SOL     OW21121   4.396   3.253  10.934
 6930SOL    HW121122   4.318   3.203  10.972
 6930SOL    HW221123   4.393   3.348  10.965
 6931SOL     OW21124   4.152   2.286   9.830
 6931SOL    HW121125   4.182   2.214   9.768
 6931SOL    HW221126   4.113   2.246   9.913
 6932SOL     OW21127   4.041   2.409  10.590
 6932SOL    HW121128   4.079   2.350  10.662
 6932SOL    HW221129   4.081   2.383  10.502
 6933SOL     OW21130   4.536   3.448   9.997
 6933SOL    HW121131   4.568   3.458   9.903
 6933SOL    HW221132   4.457   3.386   9.999
 6934SOL     OW21133   3.763   2.939   9.610
 6934SOL    HW121134   3.862   2.928   9.601
 6934SOL    HW221135   3.723   2.853   9.642
 6935SOL     OW21136   3.954   4.352   0.113
 6935SOL    HW121137   3.861   4.350   0.150
 6935SOL    HW221138   3.955   4.313   0.021
 6936SOL     OW21139   3.949   3.999   0.996
 6936SOL    HW121140   3.984   3.982   1.088
 6936SOL    HW221141   3.861   3.954   0.984
 6937SOL     OW21142   3.743   4.092   0.647
 6937SOL    HW121143   3.661   4.135   0.686
 6937SOL    HW221144   3.715   4.019   0.584
 6938SOL     OW21145   4.574   4.522   1.823
 6938SOL    HW121146   4.570   4.598   1.888
 6938SOL    HW221147   4.596   4.558   1.732
 6939SOL     OW21148   4.162   4.116   1.499
 6939SOL    HW121149   4.244   4.060   1.508
 6939SOL    HW221150   4.081   4.058   1.503
 6940SOL     OW21151   3.846   4.367   0.563
 6940SOL    HW121152   3.801   4.279   0.580
 6940SOL    HW221153   3.845   4.421   0.647
 6941SOL     OW21154   3.837   4.461   1.597
 6941SOL    HW121155   3.925   4.448   1.642
 6941SOL    HW221156   3.824   4.558   1.575
 6942SOL     OW21157   4.533   3.728   0.502
 6942SOL    HW121158   4.573   3.819   0.493
 6942SOL    HW221159   4.433   3.736   0.508
 6943SOL     OW21160   4.041   3.975   1.801
 6943SOL    HW121161   4.112   4.046   1.807
 6943SOL    HW221162   3.953   4.014   1.829
 6944SOL     OW21163   4.274   3.920   0.885
 6944SOL    HW121164   4.269   3.915   0.985
 6944SOL    HW221165   4.276   4.016   0.856
 6945SOL     OW21166   3.926   4.009   1.498
 6945SOL    HW121167   3.846   4.069   1.485
 6945SOL    HW221168   3.916   3.960   1.584
 6946SOL     OW21169   4.106   4.424   0.480
 6946SOL    HW121170   4.151   4.334   0.477
 6946SOL    HW221171   4.012   4.413   0.513
 6947SOL     OW21172   4.338   3.846   0.117
 6947SOL    HW121173   4.436   3.824   0.124
 6947SOL    HW221174   4.307   3.829   0.024
 6948SOL     OW21175   4.263   3.788   0.512
 6948SOL    HW121176   4.182   3.789   0.570
 6948SOL    HW221177   4.266   3.871   0.457
 6949SOL     OW21178   4.021   3.759   0.171
 6949SOL    HW121179   4.070   3.843   0.150
 6949SOL    HW221180   4.083   3.694   0.216
 6950SOL     OW21181   4.800   4.407   1.464
 6950SOL    HW121182   4.720   4.346   1.467
 6950SOL    HW221183   4.881   4.354   1.440
 6951SOL     OW21184   3.802   4.280   1.386
 6951SOL    HW121185   3.894   4.279   1.345
 6951SOL    HW221186   3.796   4.354   1.453
 6952SOL     OW21187   4.285   3.946   1.147
 6952SOL    HW121188   4.323   3.862   1.184
 6952SOL    HW221189   4.197   3.965   1.191
 6953SOL     OW21190   4.251   3.980   0.328
 6953SOL    HW121191   4.278   3.921   0.253
 6953SOL    HW221192   4.251   4.075   0.297
 6954SOL     OW21193   4.134   4.537   1.251
 6954SOL    HW121194   4.220   4.549   1.301
 6954SOL    HW221195   4.092   4.450   1.278
 6955SOL     OW21196   4.290   4.261   0.865
 6955SOL    HW121197   4.302   4.327   0.791
 6955SOL    HW221198   4.336   4.295   0.948
 6956SOL     OW21199   4.228   3.774   1.740
 6956SOL    HW121200   4.186   3.717   1.670
 6956SOL    HW221201   4.162   3.843   1.772
 6957SOL     OW21202   4.031   3.937   1.231
 6957SOL    HW121203   4.008   3.974   1.321
 6957SOL    HW221204   4.001   3.842   1.225
 6958SOL     OW21205   4.031   3.787   0.618
 6958SOL    HW121206   4.020   3.881   0.651
 6958SOL    HW221207   4.026   3.724   0.695
 6959SOL     OW21208   4.043   4.534   0.949
 6959SOL    HW121209   4.136   4.570   0.954
 6959SOL    HW221210   4.037   4.449   1.001
 6960SOL     OW21211   4.063   4.233   1.006
 6960SOL    HW121212   4.011   4.150   0.989
 6960SOL    HW221213   4.140   4.238   0.942
 6961SOL     OW21214   3.764   4.268   1.114
 6961SOL    HW121215   3.849   4.235   1.073
 6961SOL    HW221216   3.777   4.283   1.212
 6962SOL     OW21217   3.913   4.244   1.722
 6962SOL    HW121218   3.972   4.204   1.652
 6962SOL    HW221219   3.855   4.315   1.681
 6963SOL     OW21220   4.539   4.296   0.325
 6963SOL    HW121221   4.546   4.207   0.279
 6963SOL    HW221222   4.445   4.330   0.317
 6964SOL     OW21223   4.197   4.224   0.191
 6964SOL    HW121224   4.258   4.304   0.195
 6964SOL    HW221225   4.102   4.255   0.198
 6965SOL     OW21226   3.987   4.050   0.720
 6965SOL    HW121227   3.908   4.101   0.686
 6965SOL    HW221228   3.978   4.035   0.818
 6966SOL     OW21229   4.396   3.927   1.489
 6966SOL    HW121230   4.486   3.911   1.449
 6966SOL    HW221231   4.404   3.932   1.588
 6967SOL     OW21232   3.799   4.069   0.033
 6967SOL    HW121233   3.707   4.041   0.004
 6967SOL    HW221234   3.830   4.146  -0.023
 6968SOL     OW21235   3.796   3.890   0.318
 6968SOL    HW121236   3.779   3.973   0.264
 6968SOL    HW221237   3.886   3.853   0.296
 6969SOL     OW21238   4.440   4.289   1.708
 6969SOL    HW121239   4.459   4.354   1.782
 6969SOL    HW221240   4.500   4.209   1.717
 6970SOL     OW21241   4.152   4.148   0.520
 6970SOL    HW121242   4.182   4.076   0.458
 6970SOL    HW221243   4.113   4.108   0.603
 6971SOL     OW21244   4.041   4.271   1.280
 6971SOL    HW121245   4.079   4.212   1.352
 6971SOL    HW221246   4.081   4.245   1.192
 6972SOL     OW21247   3.954   4.352   1.975
 6972SOL    HW121248   3.861   4.350   2.012
 6972SOL    HW221249   3.955   4.313   1.883
 6973SOL     OW21250   3.949   3.999   2.858
 6973SOL    HW121251   3.984   3.982   2.950
 6973SOL    HW221252   3.861   3.954   2.846
 6974SOL     OW21253   3.743   4.092   2.509
 6974SOL    HW121254   3.661   4.135   2.548
 6974SOL    HW221255   3.715   4.019   2.446
 6975SOL     OW21256   4.574   4.522   3.685
 6975SOL    HW121257   4.570   4.598   3.750
 6975SOL    HW221258   4.596   4.558   3.594
 6976SOL     OW21259   4.162   4.116   3.361
 6976SOL    HW121260   4.244   4.060   3.370
 6976SOL    HW221261   4.081   4.058   3.365
 6977SOL     OW21262   3.846   4.367   2.425
 6977SOL    HW121263   3.801   4.279   2.442
 6977SOL    HW221264   3.845   4.421   2.509
 6978SOL     OW21265   3.837   4.461   3.459
 6978SOL    HW121266   3.925   4.448   3.504
 6978SOL    HW221267   3.824   4.558   3.437
 6979SOL     OW21268   4.533   3.728   2.364
 6979SOL    HW121269   4.573   3.819   2.355
 6979SOL    HW221270   4.433   3.736   2.370
 6980SOL     OW21271   4.041   3.975   3.663
 6980SOL    HW121272   4.112   4.046   3.669
 6980SOL    HW221273   3.953   4.014   3.691
 6981SOL     OW21274   4.274   3.920   2.747
 6981SOL    HW121275   4.269   3.915   2.847
 6981SOL    HW221276   4.276   4.016   2.718
 6982SOL     OW21277   3.926   4.009   3.360
 6982SOL    HW121278   3.846   4.069   3.347
 6982SOL    HW221279   3.916   3.960   3.446
 6983SOL     OW21280   4.106   4.424   2.342
 6983SOL    HW121281   4.151   4.334   2.339
 6983SOL    HW221282   4.012   4.413   2.375
 6984SOL     OW21283   4.338   3.846   1.979
 6984SOL    HW121284   4.436   3.824   1.986
 6984SOL    HW221285   4.307   3.829   1.886
 6985SOL     OW21286   4.263   3.788   2.374
 6985SOL    HW121287   4.182   3.789   2.432
 6985SOL    HW221288   4.266   3.871   2.319
 6986SOL     OW21289   4.021   3.759   2.033
 6986SOL    HW121290   4.070   3.843   2.012
 6986SOL    HW221291   4.083   3.694   2.078
 6987SOL     OW21292   4.800   4.407   3.326
 6987SOL    HW121293   4.720   4.346   3.329
 6987SOL    HW221294   4.881   4.354   3.302
 6988SOL     OW21295   3.802   4.280   3.248
 6988SOL    HW121296   3.894   4.279   3.207
 6988SOL    HW221297   3.796   4.354   3.315
 6989SOL     OW21298   4.285   3.946   3.009
 6989SOL    HW121299   4.323   3.862   3.046
 6989SOL    HW221300   4.197   3.965   3.053
 6990SOL     OW21301   4.251   3.980   2.190
 6990SOL    HW121302   4.278   3.921   2.115
 6990SOL    HW221303   4.251   4.075   2.159
 6991SOL     OW21304   4.134   4.537   3.113
 6991SOL    HW121305   4.220   4.549   3.163
 6991SOL    HW221306   4.092   4.450   3.140
 6992SOL     OW21307   4.290   4.261   2.727
 6992SOL    HW121308   4.302   4.327   2.653
 6992SOL    HW221309   4.336   4.295   2.810
 6993SOL     OW21310   4.228   3.774   3.602
 6993SOL    HW121311   4.186   3.717   3.532
 6993SOL    HW221312   4.162   3.843   3.634
 6994SOL     OW21313   4.031   3.937   3.093
 6994SOL    HW121314   4.008   3.974   3.183
 6994SOL    HW221315   4.001   3.842   3.087
 6995SOL     OW21316   4.031   3.787   2.480
 6995SOL    HW121317   4.020   3.881   2.513
 6995SOL    HW221318   4.026   3.724   2.557
 6996SOL     OW21319   4.043   4.534   2.811
 6996SOL    HW121320   4.136   4.570   2.816
 6996SOL    HW221321   4.037   4.449   2.863
 6997SOL     OW21322   4.063   4.233   2.868
 6997SOL    HW121323   4.011   4.150   2.851
 6997SOL    HW221324   4.140   4.238   2.804
 6998SOL     OW21325   3.764   4.268   2.976
 6998SOL    HW121326   3.849   4.235   2.935
 6998SOL    HW221327   3.777   4.283   3.074
 6999SOL     OW21328   3.913   4.244   3.584
 6999SOL    HW121329   3.972   4.204   3.514
 6999SOL    HW221330   3.855   4.315   3.543
 7000SOL     OW21331   4.539   4.296   2.187
 7000SOL    HW121332   4.546   4.207   2.141
 7000SOL    HW221333   4.445   4.330   2.179
 7001SOL     OW21334   4.197   4.224   2.053
 7001SOL    HW121335   4.258   4.304   2.057
 7001SOL    HW221336   4.102   4.255   2.060
 7002SOL     OW21337   3.987   4.050   2.582
 7002SOL    HW121338   3.908   4.101   2.548
 7002SOL    HW221339   3.978   4.035   2.680
 7003SOL     OW21340   4.396   3.927   3.351
 7003SOL    HW121341   4.486   3.911   3.311
 7003SOL    HW221342   4.404   3.932   3.450
 7004SOL     OW21343   3.799   4.069   1.895
 7004SOL    HW121344   3.707   4.041   1.866
 7004SOL    HW221345   3.830   4.146   1.839
 7005SOL     OW21346   3.796   3.890   2.180
 7005SOL    HW121347   3.779   3.973   2.126
 7005SOL    HW221348   3.886   3.853   2.158
 7006SOL     OW21349   4.440   4.289   3.570
 7006SOL    HW121350   4.459   4.354   3.644
 7006SOL    HW221351   4.500   4.209   3.579
 7007SOL     OW21352   4.152   4.148   2.382
 7007SOL    HW121353   4.182   4.076   2.320
 7007SOL    HW221354   4.113   4.108   2.465
 7008SOL     OW21355   4.041   4.271   3.142
 7008SOL    HW121356   4.079   4.212   3.214
 7008SOL    HW221357   4.081   4.245   3.054
 7009SOL     OW21358   3.954   4.352   3.837
 7009SOL    HW121359   3.861   4.350   3.874
 7009SOL    HW221360   3.955   4.313   3.745
 7010SOL     OW21361   3.949   3.999   4.720
 7010SOL    HW121362   3.984   3.982   4.812
 7010SOL    HW221363   3.861   3.954   4.708
 7011SOL     OW21364   3.743   4.092   4.371
 7011SOL    HW121365   3.661   4.135   4.410
 7011SOL    HW221366   3.715   4.019   4.308
 7012SOL     OW21367   4.574   4.522   5.547
 7012SOL    HW121368   4.570   4.598   5.612
 7012SOL    HW221369   4.596   4.558   5.456
 7013SOL     OW21370   4.162   4.116   5.223
 7013SOL    HW121371   4.244   4.060   5.232
 7013SOL    HW221372   4.081   4.058   5.227
 7014SOL     OW21373   3.846   4.367   4.287
 7014SOL    HW121374   3.801   4.279   4.304
 7014SOL    HW221375   3.845   4.421   4.371
 7015SOL     OW21376   3.837   4.461   5.321
 7015SOL    HW121377   3.925   4.448   5.366
 7015SOL    HW221378   3.824   4.558   5.299
 7016SOL     OW21379   4.533   3.728   4.226
 7016SOL    HW121380   4.573   3.819   4.217
 7016SOL    HW221381   4.433   3.736   4.232
 7017SOL     OW21382   4.041   3.975   5.525
 7017SOL    HW121383   4.112   4.046   5.531
 7017SOL    HW221384   3.953   4.014   5.553
 7018SOL     OW21385   4.274   3.920   4.609
 7018SOL    HW121386   4.269   3.915   4.709
 7018SOL    HW221387   4.276   4.016   4.580
 7019SOL     OW21388   3.926   4.009   5.222
 7019SOL    HW121389   3.846   4.069   5.209
 7019SOL    HW221390   3.916   3.960   5.308
 7020SOL     OW21391   4.106   4.424   4.204
 7020SOL    HW121392   4.151   4.334   4.201
 7020SOL    HW221393   4.012   4.413   4.237
 7021SOL     OW21394   4.338   3.846   3.841
 7021SOL    HW121395   4.436   3.824   3.848
 7021SOL    HW221396   4.307   3.829   3.748
 7022SOL     OW21397   4.263   3.788   4.236
 7022SOL    HW121398   4.182   3.789   4.294
 7022SOL    HW221399   4.266   3.871   4.181
 7023SOL     OW21400   4.021   3.759   3.895
 7023SOL    HW121401   4.070   3.843   3.874
 7023SOL    HW221402   4.083   3.694   3.940
 7024SOL     OW21403   4.800   4.407   5.188
 7024SOL    HW121404   4.720   4.346   5.191
 7024SOL    HW221405   4.881   4.354   5.164
 7025SOL     OW21406   3.802   4.280   5.110
 7025SOL    HW121407   3.894   4.279   5.069
 7025SOL    HW221408   3.796   4.354   5.177
 7026SOL     OW21409   4.285   3.946   4.871
 7026SOL    HW121410   4.323   3.862   4.908
 7026SOL    HW221411   4.197   3.965   4.915
 7027SOL     OW21412   4.251   3.980   4.052
 7027SOL    HW121413   4.278   3.921   3.977
 7027SOL    HW221414   4.251   4.075   4.021
 7028SOL     OW21415   4.134   4.537   4.975
 7028SOL    HW121416   4.220   4.549   5.025
 7028SOL    HW221417   4.092   4.450   5.002
 7029SOL     OW21418   4.290   4.261   4.589
 7029SOL    HW121419   4.302   4.327   4.515
 7029SOL    HW221420   4.336   4.295   4.672
 7030SOL     OW21421   4.228   3.774   5.464
 7030SOL    HW121422   4.186   3.717   5.394
 7030SOL    HW221423   4.162   3.843   5.496
 7031SOL     OW21424   4.031   3.937   4.955
 7031SOL    HW121425   4.008   3.974   5.045
 7031SOL    HW221426   4.001   3.842   4.949
 7032SOL     OW21427   4.031   3.787   4.342
 7032SOL    HW121428   4.020   3.881   4.375
 7032SOL    HW221429   4.026   3.724   4.419
 7033SOL     OW21430   4.043   4.534   4.673
 7033SOL    HW121431   4.136   4.570   4.678
 7033SOL    HW221432   4.037   4.449   4.725
 7034SOL     OW21433   4.063   4.233   4.730
 7034SOL    HW121434   4.011   4.150   4.713
 7034SOL    HW221435   4.140   4.238   4.666
 7035SOL     OW21436   3.764   4.268   4.838
 7035SOL    HW121437   3.849   4.235   4.797
 7035SOL    HW221438   3.777   4.283   4.936
 7036SOL     OW21439   3.913   4.244   5.446
 7036SOL    HW121440   3.972   4.204   5.376
 7036SOL    HW221441   3.855   4.315   5.405
 7037SOL     OW21442   4.539   4.296   4.049
 7037SOL    HW121443   4.546   4.207   4.003
 7037SOL    HW221444   4.445   4.330   4.041
 7038SOL     OW21445   4.197   4.224   3.915
 7038SOL    HW121446   4.258   4.304   3.919
 7038SOL    HW221447   4.102   4.255   3.922
 7039SOL     OW21448   3.987   4.050   4.444
 7039SOL    HW121449   3.908   4.101   4.410
 7039SOL    HW221450   3.978   4.035   4.542
 7040SOL     OW21451   4.396   3.927   5.213
 7040SOL    HW121452   4.486   3.911   5.173
 7040SOL    HW221453   4.404   3.932   5.312
 7041SOL     OW21454   3.799   4.069   3.757
 7041SOL    HW121455   3.707   4.041   3.728
 7041SOL    HW221456   3.830   4.146   3.701
 7042SOL     OW21457   3.796   3.890   4.042
 7042SOL    HW121458   3.779   3.973   3.988
 7042SOL    HW221459   3.886   3.853   4.020
 7043SOL     OW21460   4.440   4.289   5.432
 7043SOL    HW121461   4.459   4.354   5.506
 7043SOL    HW221462   4.500   4.209   5.441
 7044SOL     OW21463   4.152   4.148   4.244
 7044SOL    HW121464   4.182   4.076   4.182
 7044SOL    HW221465   4.113   4.108   4.327
 7045SOL     OW21466   4.041   4.271   5.004
 7045SOL    HW121467   4.079   4.212   5.076
 7045SOL    HW221468   4.081   4.245   4.916
 7046SOL     OW21469   3.954   4.352   5.699
 7046SOL    HW121470   3.861   4.350   5.736
 7046SOL    HW221471   3.955   4.313   5.607
 7047SOL     OW21472   3.949   3.999   6.582
 7047SOL    HW121473   3.984   3.982   6.674
 7047SOL    HW221474   3.861   3.954   6.570
 7048SOL     OW21475   3.743   4.092   6.233
 7048SOL    HW121476   3.661   4.135   6.272
 7048SOL    HW221477   3.715   4.019   6.170
 7049SOL     OW21478   4.574   4.522   7.409
 7049SOL    HW121479   4.570   4.598   7.474
 7049SOL    HW221480   4.596   4.558   7.318
 7050SOL     OW21481   4.162   4.116   7.085
 7050SOL    HW121482   4.244   4.060   7.094
 7050SOL    HW221483   4.081   4.058   7.089
 7051SOL     OW21484   3.846   4.367   6.149
 7051SOL    HW121485   3.801   4.279   6.166
 7051SOL    HW221486   3.845   4.421   6.233
 7052SOL     OW21487   3.837   4.461   7.183
 7052SOL    HW121488   3.925   4.448   7.228
 7052SOL    HW221489   3.824   4.558   7.161
 7053SOL     OW21490   4.533   3.728   6.088
 7053SOL    HW121491   4.573   3.819   6.079
 7053SOL    HW221492   4.433   3.736   6.094
 7054SOL     OW21493   4.041   3.975   7.387
 7054SOL    HW121494   4.112   4.046   7.393
 7054SOL    HW221495   3.953   4.014   7.415
 7055SOL     OW21496   4.274   3.920   6.471
 7055SOL    HW121497   4.269   3.915   6.571
 7055SOL    HW221498   4.276   4.016   6.442
 7056SOL     OW21499   3.926   4.009   7.084
 7056SOL    HW121500   3.846   4.069   7.071
 7056SOL    HW221501   3.916   3.960   7.170
 7057SOL     OW21502   4.106   4.424   6.066
 7057SOL    HW121503   4.151   4.334   6.063
 7057SOL    HW221504   4.012   4.413   6.099
 7058SOL     OW21505   4.338   3.846   5.703
 7058SOL    HW121506   4.436   3.824   5.710
 7058SOL    HW221507   4.307   3.829   5.610
 7059SOL     OW21508   4.263   3.788   6.098
 7059SOL    HW121509   4.182   3.789   6.156
 7059SOL    HW221510   4.266   3.871   6.043
 7060SOL     OW21511   4.021   3.759   5.757
 7060SOL    HW121512   4.070   3.843   5.736
 7060SOL    HW221513   4.083   3.694   5.802
 7061SOL     OW21514   4.800   4.407   7.050
 7061SOL    HW121515   4.720   4.346   7.053
 7061SOL    HW221516   4.881   4.354   7.026
 7062SOL     OW21517   3.802   4.280   6.972
 7062SOL    HW121518   3.894   4.279   6.931
 7062SOL    HW221519   3.796   4.354   7.039
 7063SOL     OW21520   4.285   3.946   6.733
 7063SOL    HW121521   4.323   3.862   6.770
 7063SOL    HW221522   4.197   3.965   6.777
 7064SOL     OW21523   4.251   3.980   5.914
 7064SOL    HW121524   4.278   3.921   5.839
 7064SOL    HW221525   4.251   4.075   5.883
 7065SOL     OW21526   4.134   4.537   6.837
 7065SOL    HW121527   4.220   4.549   6.887
 7065SOL    HW221528   4.092   4.450   6.864
 7066SOL     OW21529   4.290   4.261   6.451
 7066SOL    HW121530   4.302   4.327   6.377
 7066SOL    HW221531   4.336   4.295   6.534
 7067SOL     OW21532   4.228   3.774   7.326
 7067SOL    HW121533   4.186   3.717   7.256
 7067SOL    HW221534   4.162   3.843   7.358
 7068SOL     OW21535   4.031   3.937   6.817
 7068SOL    HW121536   4.008   3.974   6.907
 7068SOL    HW221537   4.001   3.842   6.811
 7069SOL     OW21538   4.031   3.787   6.204
 7069SOL    HW121539   4.020   3.881   6.237
 7069SOL    HW221540   4.026   3.724   6.281
 7070SOL     OW21541   4.043   4.534   6.535
 7070SOL    HW121542   4.136   4.570   6.540
 7070SOL    HW221543   4.037   4.449   6.587
 7071SOL     OW21544   4.063   4.233   6.592
 7071SOL    HW121545   4.011   4.150   6.575
 7071SOL    HW221546   4.140   4.238   6.528
 7072SOL     OW21547   3.764   4.268   6.700
 7072SOL    HW121548   3.849   4.235   6.659
 7072SOL    HW221549   3.777   4.283   6.798
 7073SOL     OW21550   3.913   4.244   7.308
 7073SOL    HW121551   3.972   4.204   7.238
 7073SOL    HW221552   3.855   4.315   7.267
 7074SOL     OW21553   4.539   4.296   5.911
 7074SOL    HW121554   4.546   4.207   5.865
 7074SOL    HW221555   4.445   4.330   5.903
 7075SOL     OW21556   4.197   4.224   5.777
 7075SOL    HW121557   4.258   4.304   5.781
 7075SOL    HW221558   4.102   4.255   5.784
 7076SOL     OW21559   3.987   4.050   6.306
 7076SOL    HW121560   3.908   4.101   6.272
 7076SOL    HW221561   3.978   4.035   6.404
 7077SOL     OW21562   4.396   3.927   7.075
 7077SOL    HW121563   4.486   3.911   7.035
 7077SOL    HW221564   4.404   3.932   7.174
 7078SOL     OW21565   3.799   4.069   5.619
 7078SOL    HW121566   3.707   4.041   5.590
 7078SOL    HW221567   3.830   4.146   5.563
 7079SOL     OW21568   3.796   3.890   5.904
 7079SOL    HW121569   3.779   3.973   5.850
 7079SOL    HW221570   3.886   3.853   5.882
 7080SOL     OW21571   4.440   4.289   7.294
 7080SOL    HW121572   4.459   4.354   7.368
 7080SOL    HW221573   4.500   4.209   7.303
 7081SOL     OW21574   4.152   4.148   6.106
 7081SOL    HW121575   4.182   4.076   6.044
 7081SOL    HW221576   4.113   4.108   6.189
 7082SOL     OW21577   4.041   4.271   6.866
 7082SOL    HW121578   4.079   4.212   6.938
 7082SOL    HW221579   4.081   4.245   6.778
 7083SOL     OW21580   3.954   4.352   7.561
 7083SOL    HW121581   3.861   4.350   7.598
 7083SOL    HW221582   3.955   4.313   7.469
 7084SOL     OW21583   3.949   3.999   8.444
 7084SOL    HW121584   3.984   3.982   8.536
 7084SOL    HW221585   3.861   3.954   8.432
 7085SOL     OW21586   3.743   4.092   8.095
 7085SOL    HW121587   3.661   4.135   8.134
 7085SOL    HW221588   3.715   4.019   8.032
 7086SOL     OW21589   4.574   4.522   9.271
 7086SOL    HW121590   4.570   4.598   9.336
 7086SOL    HW221591   4.596   4.558   9.180
 7087SOL     OW21592   4.162   4.116   8.947
 7087SOL    HW121593   4.244   4.060   8.956
 7087SOL    HW221594   4.081   4.058   8.951
 7088SOL     OW21595   3.846   4.367   8.011
 7088SOL    HW121596   3.801   4.279   8.028
 7088SOL    HW221597   3.845   4.421   8.095
 7089SOL     OW21598   3.837   4.461   9.045
 7089SOL    HW121599   3.925   4.448   9.090
 7089SOL    HW221600   3.824   4.558   9.023
 7090SOL     OW21601   4.533   3.728   7.950
 7090SOL    HW121602   4.573   3.819   7.941
 7090SOL    HW221603   4.433   3.736   7.956
 7091SOL     OW21604   4.041   3.975   9.249
 7091SOL    HW121605   4.112   4.046   9.255
 7091SOL    HW221606   3.953   4.014   9.277
 7092SOL     OW21607   4.274   3.920   8.333
 7092SOL    HW121608   4.269   3.915   8.433
 7092SOL    HW221609   4.276   4.016   8.304
 7093SOL     OW21610   3.926   4.009   8.946
 7093SOL    HW121611   3.846   4.069   8.933
 7093SOL    HW221612   3.916   3.960   9.032
 7094SOL     OW21613   4.106   4.424   7.928
 7094SOL    HW121614   4.151   4.334   7.925
 7094SOL    HW221615   4.012   4.413   7.961
 7095SOL     OW21616   4.338   3.846   7.565
 7095SOL    HW121617   4.436   3.824   7.572
 7095SOL    HW221618   4.307   3.829   7.472
 7096SOL     OW21619   4.263   3.788   7.960
 7096SOL    HW121620   4.182   3.789   8.018
 7096SOL    HW221621   4.266   3.871   7.905
 7097SOL     OW21622   4.021   3.759   7.619
 7097SOL    HW121623   4.070   3.843   7.598
 7097SOL    HW221624   4.083   3.694   7.664
 7098SOL     OW21625   4.800   4.407   8.912
 7098SOL    HW121626   4.720   4.346   8.915
 7098SOL    HW221627   4.881   4.354   8.888
 7099SOL     OW21628   3.802   4.280   8.834
 7099SOL    HW121629   3.894   4.279   8.793
 7099SOL    HW221630   3.796   4.354   8.901
 7100SOL     OW21631   4.285   3.946   8.595
 7100SOL    HW121632   4.323   3.862   8.632
 7100SOL    HW221633   4.197   3.965   8.639
 7101SOL     OW21634   4.251   3.980   7.776
 7101SOL    HW121635   4.278   3.921   7.701
 7101SOL    HW221636   4.251   4.075   7.745
 7102SOL     OW21637   4.134   4.537   8.699
 7102SOL    HW121638   4.220   4.549   8.749
 7102SOL    HW221639   4.092   4.450   8.726
 7103SOL     OW21640   4.290   4.261   8.313
 7103SOL    HW121641   4.302   4.327   8.239
 7103SOL    HW221642   4.336   4.295   8.396
 7104SOL     OW21643   4.228   3.774   9.188
 7104SOL    HW121644   4.186   3.717   9.118
 7104SOL    HW221645   4.162   3.843   9.220
 7105SOL     OW21646   4.031   3.937   8.679
 7105SOL    HW121647   4.008   3.974   8.769
 7105SOL    HW221648   4.001   3.842   8.673
 7106SOL     OW21649   4.031   3.787   8.066
 7106SOL    HW121650   4.020   3.881   8.099
 7106SOL    HW221651   4.026   3.724   8.143
 7107SOL     OW21652   4.043   4.534   8.397
 7107SOL    HW121653   4.136   4.570   8.402
 7107SOL    HW221654   4.037   4.449   8.449
 7108SOL     OW21655   4.063   4.233   8.454
 7108SOL    HW121656   4.011   4.150   8.437
 7108SOL    HW221657   4.140   4.238   8.390
 7109SOL     OW21658   3.764   4.268   8.562
 7109SOL    HW121659   3.849   4.235   8.521
 7109SOL    HW221660   3.777   4.283   8.660
 7110SOL     OW21661   3.913   4.244   9.170
 7110SOL    HW121662   3.972   4.204   9.100
 7110SOL    HW221663   3.855   4.315   9.129
 7111SOL     OW21664   4.539   4.296   7.773
 7111SOL    HW121665   4.546   4.207   7.727
 7111SOL    HW221666   4.445   4.330   7.765
 7112SOL     OW21667   4.197   4.224   7.639
 7112SOL    HW121668   4.258   4.304   7.643
 7112SOL    HW221669   4.102   4.255   7.646
 7113SOL     OW21670   3.987   4.050   8.168
 7113SOL    HW121671   3.908   4.101   8.134
 7113SOL    HW221672   3.978   4.035   8.266
 7114SOL     OW21673   4.396   3.927   8.937
 7114SOL    HW121674   4.486   3.911   8.897
 7114SOL    HW221675   4.404   3.932   9.036
 7115SOL     OW21676   3.799   4.069   7.481
 7115SOL    HW121677   3.707   4.041   7.452
 7115SOL    HW221678   3.830   4.146   7.425
 7116SOL     OW21679   3.796   3.890   7.766
 7116SOL    HW121680   3.779   3.973   7.712
 7116SOL    HW221681   3.886   3.853   7.744
 7117SOL     OW21682   4.440   4.289   9.156
 7117SOL    HW121683   4.459   4.354   9.230
 7117SOL    HW221684   4.500   4.209   9.165
 7118SOL     OW21685   4.152   4.148   7.968
 7118SOL    HW121686   4.182   4.076   7.906
 7118SOL    HW221687   4.113   4.108   8.051
 7119SOL     OW21688   4.041   4.271   8.728
 7119SOL    HW121689   4.079   4.212   8.800
 7119SOL    HW221690   4.081   4.245   8.640
 7120SOL     OW21691   3.954   4.352   9.423
 7120SOL    HW121692   3.861   4.350   9.460
 7120SOL    HW221693   3.955   4.313   9.331
 7121SOL     OW21694   3.949   3.999  10.306
 7121SOL    HW121695   3.984   3.982  10.398
 7121SOL    HW221696   3.861   3.954  10.294
 7122SOL     OW21697   3.743   4.092   9.957
 7122SOL    HW121698   3.661   4.135   9.996
 7122SOL    HW221699   3.715   4.019   9.894
 7123SOL     OW21700   4.162   4.116  10.809
 7123SOL    HW121701   4.244   4.060  10.818
 7123SOL    HW221702   4.081   4.058  10.813
 7124SOL     OW21703   3.846   4.367   9.873
 7124SOL    HW121704   3.801   4.279   9.890
 7124SOL    HW221705   3.845   4.421   9.957
 7125SOL     OW21706   3.837   4.461  10.907
 7125SOL    HW121707   3.925   4.448  10.952
 7125SOL    HW221708   3.824   4.558  10.885
 7126SOL     OW21709   4.533   3.728   9.812
 7126SOL    HW121710   4.573   3.819   9.803
 7126SOL    HW221711   4.433   3.736   9.818
 7127SOL     OW21712   4.274   3.920  10.195
 7127SOL    HW121713   4.269   3.915  10.295
 7127SOL    HW221714   4.276   4.016  10.166
 7128SOL     OW21715   3.926   4.009  10.808
 7128SOL    HW121716   3.846   4.069  10.795
 7128SOL    HW221717   3.916   3.960  10.894
 7129SOL     OW21718   4.106   4.424   9.790
 7129SOL    HW121719   4.151   4.334   9.787
 7129SOL    HW221720   4.012   4.413   9.823
 7130SOL     OW21721   4.338   3.846   9.427
 7130SOL    HW121722   4.436   3.824   9.434
 7130SOL    HW221723   4.307   3.829   9.334
 7131SOL     OW21724   4.263   3.788   9.822
 7131SOL    HW121725   4.182   3.789   9.880
 7131SOL    HW221726   4.266   3.871   9.767
 7132SOL     OW21727   4.021   3.759   9.481
 7132SOL    HW121728   4.070   3.843   9.460
 7132SOL    HW221729   4.083   3.694   9.526
 7133SOL     OW21730   4.800   4.407  10.774
 7133SOL    HW121731   4.720   4.346  10.777
 7133SOL    HW221732   4.881   4.354  10.750
 7134SOL     OW21733   3.802   4.280  10.696
 7134SOL    HW121734   3.894   4.279  10.655
 7134SOL    HW221735   3.796   4.354  10.763
 7135SOL     OW21736   4.285   3.946  10.457
 7135SOL    HW121737   4.323   3.862  10.494
 7135SOL    HW221738   4.197   3.965  10.501
 7136SOL     OW21739   4.251   3.980   9.638
 7136SOL    HW121740   4.278   3.921   9.563
 7136SOL    HW221741   4.251   4.075   9.607
 7137SOL     OW21742   4.134   4.537  10.561
 7137SOL    HW121743   4.220   4.549  10.611
 7137SOL    HW221744   4.092   4.450  10.588
 7138SOL     OW21745   4.290   4.261  10.175
 7138SOL    HW121746   4.302   4.327  10.101
 7138SOL    HW221747   4.336   4.295  10.258
 7139SOL     OW21748   4.126   4.475  10.908
 7139SOL    HW121749   4.194   4.530  10.861
 7139SOL    HW221750   4.166   4.387  10.935
 7140SOL     OW21751   4.031   3.937  10.541
 7140SOL    HW121752   4.008   3.974  10.631
 7140SOL    HW221753   4.001   3.842  10.535
 7141SOL     OW21754   4.031   3.787   9.928
 7141SOL    HW121755   4.020   3.881   9.961
 7141SOL    HW221756   4.026   3.724  10.005
 7142SOL     OW21757   4.043   4.534  10.259
 7142SOL    HW121758   4.136   4.570  10.264
 7142SOL    HW221759   4.037   4.449  10.311
 7143SOL     OW21760   4.063   4.233  10.316
 7143SOL    HW121761   4.011   4.150  10.299
 7143SOL    HW221762   4.140   4.238  10.252
 7144SOL     OW21763   3.764   4.268  10.424
 7144SOL    HW121764   3.849   4.235  10.383
 7144SOL    HW221765   3.777   4.283  10.522
 7145SOL     OW21766   4.539   4.296   9.635
 7145SOL    HW121767   4.546   4.207   9.589
 7145SOL    HW221768   4.445   4.330   9.627
 7146SOL     OW21769   4.197   4.224   9.501
 7146SOL    HW121770   4.258   4.304   9.505
 7146SOL    HW221771   4.102   4.255   9.508
 7147SOL     OW21772   3.987   4.050  10.030
 7147SOL    HW121773   3.908   4.101   9.996
 7147SOL    HW221774   3.978   4.035  10.128
 7148SOL     OW21775   3.829   4.737  11.036
 7148SOL    HW121776   3.752   4.704  11.090
 7148SOL    HW221777   3.914   4.707  11.078
 7149SOL     OW21778   4.396   3.927  10.799
 7149SOL    HW121779   4.486   3.911  10.759
 7149SOL    HW221780   4.404   3.932  10.898
 7150SOL     OW21781   3.799   4.069   9.343
 7150SOL    HW121782   3.707   4.041   9.314
 7150SOL    HW221783   3.830   4.146   9.287
 7151SOL     OW21784   3.796   3.890   9.628
 7151SOL    HW121785   3.779   3.973   9.574
 7151SOL    HW221786   3.886   3.853   9.606
 7152SOL     OW21787   4.440   4.289  11.018
 7152SOL    HW121788   4.459   4.354  11.092
 7152SOL    HW221789   4.500   4.209  11.027
 7153SOL     OW21790   4.152   4.148   9.830
 7153SOL    HW121791   4.182   4.076   9.768
 7153SOL    HW221792   4.113   4.108   9.913
 7154SOL     OW21793   4.041   4.271  10.590
 7154SOL    HW121794   4.079   4.212  10.662
 7154SOL    HW221795   4.081   4.245  10.502
   4.50000   4.50000  10.98232
