Built with Packmol
22206
    1LIG      O    1   2.162   2.086   0.066
    1LIG      C    2   2.090   2.124   0.217
    1LIG     C1    3   2.167   2.082   0.377
    1LIG     O1    4   2.096   2.119   0.530
    1LIG     C2    5   2.167   2.081   0.681
    1LIG     C3    6   2.087   2.123   0.838
    1LIG     O2    7   2.158   2.084   0.990
    1LIG     C4    8   2.086   2.121   1.142
    1LIG     C5    9   2.166   2.078   1.300
    1LIG     O3   10   2.094   2.115   1.452
    1LIG     C6   11   2.165   2.076   1.603
    1LIG     C7   12   2.085   2.118   1.760
    1LIG     O4   13   2.155   2.080   1.913
    1LIG     C8   14   2.084   2.117   2.065
    1LIG     C9   15   2.164   2.074   2.221
    1LIG     O5   16   2.093   2.111   2.373
    1LIG    C10   17   2.164   2.073   2.525
    1LIG    C11   18   2.083   2.116   2.682
    1LIG     O6   19   2.154   2.078   2.833
    1LIG    C12   20   2.083   2.115   2.985
    1LIG    C13   21   2.164   2.072   3.142
    1LIG     O7   22   2.092   2.110   3.294
    1LIG    C14   23   2.163   2.072   3.446
    1LIG    C15   24   2.083   2.114   3.604
    1LIG     O8   25   2.154   2.076   3.757
    1LIG    C16   26   2.082   2.114   3.908
    1LIG    C17   27   2.162   2.071   4.066
    1LIG     O9   28   2.091   2.109   4.219
    1LIG    C18   29   2.163   2.070   4.369
    1LIG    C19   30   2.083   2.113   4.526
    1LIG    O10   31   2.154   2.075   4.678
    1LIG    C20   32   2.082   2.113   4.830
    1LIG    C21   33   2.163   2.070   4.986
    1LIG    O11   34   2.091   2.108   5.138
    1LIG    C22   35   2.163   2.070   5.290
    1LIG    C23   36   2.082   2.113   5.447
    1LIG    O12   37   2.153   2.075   5.598
    1LIG    C24   38   2.082   2.112   5.751
    1LIG    C25   39   2.162   2.069   5.909
    1LIG    O13   40   2.091   2.107   6.061
    1LIG    C26   41   2.163   2.069   6.212
    1LIG    C27   42   2.082   2.112   6.369
    1LIG    O14   43   2.154   2.074   6.521
    1LIG    C28   44   2.082   2.112   6.673
    1LIG    C29   45   2.163   2.070   6.831
    1LIG    O15   46   2.091   2.108   6.983
    1LIG    C30   47   2.163   2.070   7.134
    1LIG    C31   48   2.083   2.113   7.291
    1LIG    O16   49   2.154   2.075   7.442
    1LIG    C32   50   2.083   2.113   7.594
    1LIG    C33   51   2.163   2.071   7.752
    1LIG    O17   52   2.092   2.108   7.904
    1LIG    C34   53   2.164   2.071   8.056
    1LIG    C35   54   2.084   2.112   8.213
    1LIG    O18   55   2.155   2.075   8.365
    1LIG    C36   56   2.083   2.113   8.516
    1LIG    C37   57   2.163   2.071   8.674
    1LIG    O19   58   2.092   2.109   8.827
    1LIG    C38   59   2.164   2.072   8.978
    1LIG    C39   60   2.085   2.114   9.136
    1LIG    O20   61   2.156   2.076   9.288
    1LIG    C40   62   2.084   2.114   9.439
    1LIG    C41   63   2.164   2.073   9.597
    1LIG    O21   64   2.093   2.110   9.749
    1LIG    C42   65   2.165   2.073   9.900
    1LIG    C43   66   2.085   2.115  10.057
    1LIG    O22   67   2.156   2.078  10.209
    1LIG    C44   68   2.085   2.116  10.361
    1LIG    C45   69   2.166   2.074  10.518
    1LIG    O23   70   2.095   2.111  10.670
    1LIG    C46   71   2.166   2.074  10.822
    1LIG    C47   72   2.085   2.116  10.979
    1LIG    O24   73   2.157   2.079  11.130
    1LIG    C48   74   2.086   2.116  11.282
    1LIG    C49   75   2.167   2.074  11.439
    1LIG    O25   76   2.096   2.112  11.591
    1LIG    C50   77   2.166   2.075  11.743
    1LIG    C51   78   2.086   2.117  11.900
    1LIG    O26   79   2.157   2.080  12.051
    1LIG    C52   80   2.087   2.118  12.204
    1LIG    C53   81   2.168   2.076  12.360
    1LIG    O27   82   2.096   2.113  12.512
    1LIG    C54   83   2.167   2.077  12.664
    1LIG    C55   84   2.087   2.119  12.822
    1LIG    O28   85   2.159   2.082  12.974
    1LIG    C56   86   2.088   2.119  13.127
    1LIG    C57   87   2.168   2.078  13.285
    1LIG    O29   88   2.097   2.116  13.438
    1LIG    C58   89   2.169   2.078  13.589
    1LIG    C59   90   2.090   2.120  13.747
    1LIG      H   91   1.991   2.076   0.214
    1LIG     H1   92   2.074   2.233   0.215
    1LIG     H2   93   2.266   2.130   0.377
    1LIG     H3   94   2.183   1.974   0.375
    1LIG     H4   95   2.266   2.129   0.683
    1LIG     H5   96   2.183   1.972   0.682
    1LIG     H6   97   1.988   2.075   0.836
    1LIG     H7   98   2.071   2.231   0.837
    1LIG     H8   99   1.987   2.073   1.143
    1LIG     H9  100   2.071   2.229   1.145
    1LIG    H10  101   2.264   2.126   1.299
    1LIG    H11  102   2.181   1.969   1.297
    1LIG    H12  103   2.264   2.124   1.606
    1LIG    H13  104   2.181   1.968   1.604
    1LIG    H14  105   1.986   2.070   1.758
    1LIG    H15  106   2.069   2.226   1.759
    1LIG    H16  107   1.985   2.069   2.066
    1LIG    H17  108   2.068   2.226   2.067
    1LIG    H18  109   2.263   2.122   2.219
    1LIG    H19  110   2.180   1.965   2.219
    1LIG    H20  111   2.262   2.121   2.527
    1LIG    H21  112   2.179   1.965   2.527
    1LIG    H22  113   1.985   2.068   2.679
    1LIG    H23  114   2.068   2.224   2.680
    1LIG    H24  115   1.985   2.067   2.987
    1LIG    H25  116   2.068   2.223   2.988
    1LIG    H26  117   2.262   2.120   3.141
    1LIG    H27  118   2.179   1.963   3.140
    1LIG    H28  119   2.262   2.120   3.448
    1LIG    H29  120   2.179   1.963   3.448
    1LIG    H30  121   1.985   2.065   3.602
    1LIG    H31  122   2.068   2.222   3.603
    1LIG    H32  123   1.984   2.066   3.909
    1LIG    H33  124   2.067   2.222   3.910
    1LIG    H34  125   2.260   2.120   4.064
    1LIG    H35  126   2.178   1.963   4.064
    1LIG    H36  127   2.262   2.119   4.371
    1LIG    H37  128   2.179   1.962   4.371
    1LIG    H38  129   1.984   2.065   4.524
    1LIG    H39  130   2.067   2.221   4.524
    1LIG    H40  131   1.984   2.065   4.832
    1LIG    H41  132   2.067   2.221   4.832
    1LIG    H42  133   2.261   2.119   4.985
    1LIG    H43  134   2.178   1.962   4.984
    1LIG    H44  135   2.261   2.118   5.292
    1LIG    H45  136   2.178   1.962   5.292
    1LIG    H46  137   1.984   2.064   5.445
    1LIG    H47  138   2.066   2.221   5.445
    1LIG    H48  139   1.984   2.064   5.753
    1LIG    H49  140   2.067   2.220   5.753
    1LIG    H50  141   2.261   2.118   5.907
    1LIG    H51  142   2.178   1.961   5.907
    1LIG    H52  143   2.261   2.117   6.214
    1LIG    H53  144   2.178   1.960   6.214
    1LIG    H54  145   1.984   2.063   6.368
    1LIG    H55  146   2.067   2.220   6.367
    1LIG    H56  147   1.984   2.064   6.675
    1LIG    H57  148   2.067   2.221   6.675
    1LIG    H58  149   2.261   2.118   6.829
    1LIG    H59  150   2.178   1.961   6.830
    1LIG    H60  151   2.261   2.118   7.136
    1LIG    H61  152   2.179   1.962   7.136
    1LIG    H62  153   1.984   2.064   7.289
    1LIG    H63  154   2.067   2.221   7.289
    1LIG    H64  155   1.985   2.064   7.596
    1LIG    H65  156   2.067   2.221   7.596
    1LIG    H66  157   2.262   2.119   7.750
    1LIG    H67  158   2.179   1.962   7.751
    1LIG    H68  159   2.262   2.119   8.057
    1LIG    H69  160   2.179   1.962   8.057
    1LIG    H70  161   1.985   2.064   8.212
    1LIG    H71  162   2.068   2.221   8.211
    1LIG    H72  163   1.985   2.065   8.518
    1LIG    H73  164   2.068   2.222   8.518
    1LIG    H74  165   2.262   2.120   8.673
    1LIG    H75  166   2.179   1.963   8.673
    1LIG    H76  167   2.263   2.120   8.979
    1LIG    H77  168   2.180   1.963   8.979
    1LIG    H78  169   1.986   2.066   9.134
    1LIG    H79  170   2.069   2.222   9.134
    1LIG    H80  171   1.986   2.066   9.441
    1LIG    H81  172   2.068   2.223   9.440
    1LIG    H82  173   2.263   2.121   9.595
    1LIG    H83  174   2.180   1.964   9.595
    1LIG    H84  175   2.264   2.121   9.902
    1LIG    H85  176   2.181   1.964   9.902
    1LIG    H86  177   1.987   2.066  10.055
    1LIG    H87  178   2.069   2.223  10.055
    1LIG    H88  179   1.986   2.067  10.363
    1LIG    H89  180   2.069   2.224  10.363
    1LIG    H90  181   2.264   2.122  10.516
    1LIG    H91  182   2.182   1.965  10.516
    1LIG    H92  183   2.264   2.122  10.824
    1LIG    H93  184   2.182   1.965  10.824
    1LIG    H94  185   1.987   2.068  10.977
    1LIG    H95  186   2.069   2.225  10.977
    1LIG    H96  187   1.988   2.068  11.285
    1LIG    H97  188   2.070   2.225  11.284
    1LIG    H98  189   2.265   2.123  11.437
    1LIG    H99  190   2.183   1.966  11.438
    1LIG   H100  191   2.265   2.123  11.745
    1LIG   H101  192   2.183   1.967  11.746
    1LIG   H102  193   1.988   2.069  11.898
    1LIG   H103  194   2.070   2.226  11.898
    1LIG   H104  195   1.988   2.069  12.206
    1LIG   H105  196   2.071   2.226  12.206
    1LIG   H106  197   2.266   2.124  12.358
    1LIG   H107  198   2.184   1.967  12.359
    1LIG   H108  199   2.265   2.125  12.666
    1LIG   H109  200   2.183   1.968  12.666
    1LIG   H110  201   1.989   2.070  12.821
    1LIG   H111  202   2.071   2.227  12.820
    1LIG   H112  203   1.989   2.071  13.128
    1LIG   H113  204   2.071   2.228  13.128
    1LIG   H114  205   2.266   2.127  13.283
    1LIG   H115  206   2.184   1.970  13.284
    1LIG   H116  207   2.267   2.128  13.589
    1LIG   H117  208   2.184   1.970  13.590
    1LIG   H118  209   2.073   2.228  13.747
    1LIG   H119  210   2.143   2.093  13.866
    1LIG      O  211   1.862   1.865   0.066
    1LIG      C  212   1.927   1.915   0.217
    1LIG     C1  213   1.857   1.862   0.377
    1LIG     O1  214   1.920   1.911   0.530
    1LIG     C2  215   1.855   1.863   0.681
    1LIG     C3  216   1.927   1.918   0.838
    1LIG     O2  217   1.862   1.870   0.990
    1LIG     C4  218   1.926   1.919   1.142
    1LIG     C5  219   1.853   1.865   1.300
    1LIG     O3  220   1.916   1.915   1.452
    1LIG     C6  221   1.852   1.866   1.603
    1LIG     C7  222   1.923   1.922   1.760
    1LIG     O4  223   1.860   1.874   1.913
    1LIG     C8  224   1.923   1.923   2.065
    1LIG     C9  225   1.850   1.868   2.221
    1LIG     O5  226   1.914   1.917   2.373
    1LIG    C10  227   1.850   1.869   2.525
    1LIG    C11  228   1.922   1.924   2.682
    1LIG     O6  229   1.858   1.875   2.833
    1LIG    C12  230   1.921   1.924   2.985
    1LIG    C13  231   1.849   1.869   3.142
    1LIG     O7  232   1.913   1.919   3.294
    1LIG    C14  233   1.849   1.870   3.446
    1LIG    C15  234   1.920   1.925   3.604
    1LIG     O8  235   1.856   1.876   3.757
    1LIG    C16  236   1.921   1.926   3.908
    1LIG    C17  237   1.849   1.871   4.066
    1LIG     O9  238   1.912   1.920   4.219
    1LIG    C18  239   1.847   1.870   4.369
    1LIG    C19  240   1.919   1.926   4.526
    1LIG    O10  241   1.856   1.877   4.678
    1LIG    C20  242   1.920   1.926   4.830
    1LIG    C21  243   1.848   1.871   4.986
    1LIG    O11  244   1.911   1.920   5.138
    1LIG    C22  245   1.848   1.871   5.290
    1LIG    C23  246   1.920   1.927   5.447
    1LIG    O12  247   1.855   1.878   5.598
    1LIG    C24  248   1.919   1.927   5.751
    1LIG    C25  249   1.847   1.872   5.909
    1LIG    O13  250   1.911   1.921   6.061
    1LIG    C26  251   1.846   1.871   6.212
    1LIG    C27  252   1.919   1.927   6.369
    1LIG    O14  253   1.855   1.877   6.521
    1LIG    C28  254   1.919   1.926   6.673
    1LIG    C29  255   1.847   1.871   6.831
    1LIG    O15  256   1.911   1.920   6.983
    1LIG    C30  257   1.847   1.871   7.134
    1LIG    C31  258   1.920   1.926   7.291
    1LIG    O16  259   1.855   1.877   7.442
    1LIG    C32  260   1.919   1.926   7.594
    1LIG    C33  261   1.848   1.870   7.752
    1LIG    O17  262   1.912   1.920   7.904
    1LIG    C34  263   1.848   1.870   8.056
    1LIG    C35  264   1.919   1.925   8.213
    1LIG    O18  265   1.855   1.876   8.365
    1LIG    C36  266   1.920   1.925   8.516
    1LIG    C37  267   1.848   1.870   8.674
    1LIG    O19  268   1.912   1.919   8.827
    1LIG    C38  269   1.848   1.869   8.978
    1LIG    C39  270   1.919   1.924   9.136
    1LIG    O20  271   1.856   1.874   9.288
    1LIG    C40  272   1.920   1.924   9.439
    1LIG    C41  273   1.849   1.868   9.597
    1LIG    O21  274   1.913   1.918   9.749
    1LIG    C42  275   1.849   1.868   9.900
    1LIG    C43  276   1.921   1.923  10.057
    1LIG    O22  277   1.857   1.874  10.209
    1LIG    C44  278   1.921   1.923  10.361
    1LIG    C45  279   1.849   1.867  10.518
    1LIG    O23  280   1.913   1.916  10.670
    1LIG    C46  281   1.850   1.866  10.822
    1LIG    C47  282   1.922   1.922  10.979
    1LIG    O24  283   1.858   1.873  11.130
    1LIG    C48  284   1.921   1.922  11.282
    1LIG    C49  285   1.849   1.865  11.439
    1LIG    O25  286   1.913   1.915  11.591
    1LIG    C50  287   1.850   1.866  11.743
    1LIG    C51  288   1.922   1.921  11.900
    1LIG    O26  289   1.859   1.871  12.051
    1LIG    C52  290   1.922   1.920  12.204
    1LIG    C53  291   1.850   1.864  12.360
    1LIG    O27  292   1.915   1.914  12.512
    1LIG    C54  293   1.851   1.864  12.664
    1LIG    C55  294   1.923   1.919  12.822
    1LIG    O28  295   1.859   1.869  12.974
    1LIG    C56  296   1.924   1.919  13.127
    1LIG    C57  297   1.853   1.863  13.285
    1LIG    O29  298   1.916   1.912  13.438
    1LIG    C58  299   1.852   1.862  13.589
    1LIG    C59  300   1.923   1.916  13.747
    1LIG      H  301   1.924   2.024   0.214
    1LIG     H1  302   2.032   1.884   0.215
    1LIG     H2  303   1.859   1.752   0.377
    1LIG     H3  304   1.751   1.893   0.375
    1LIG     H4  305   1.858   1.753   0.683
    1LIG     H5  306   1.750   1.894   0.682
    1LIG     H6  307   1.924   2.028   0.836
    1LIG     H7  308   2.032   1.887   0.837
    1LIG     H8  309   1.923   2.029   1.143
    1LIG     H9  310   2.031   1.888   1.145
    1LIG    H10  311   1.856   1.756   1.299
    1LIG    H11  312   1.748   1.896   1.297
    1LIG    H12  313   1.855   1.756   1.606
    1LIG    H13  314   1.747   1.897   1.604
    1LIG    H14  315   1.921   2.032   1.758
    1LIG    H15  316   2.029   1.891   1.759
    1LIG    H16  317   1.920   2.033   2.066
    1LIG    H17  318   2.028   1.892   2.067
    1LIG    H18  319   1.853   1.758   2.219
    1LIG    H19  320   1.745   1.899   2.219
    1LIG    H20  321   1.852   1.759   2.527
    1LIG    H21  322   1.745   1.900   2.527
    1LIG    H22  323   1.919   2.034   2.679
    1LIG    H23  324   2.027   1.893   2.680
    1LIG    H24  325   1.919   2.034   2.987
    1LIG    H25  326   2.026   1.893   2.988
    1LIG    H26  327   1.852   1.760   3.141
    1LIG    H27  328   1.744   1.900   3.140
    1LIG    H28  329   1.852   1.760   3.448
    1LIG    H29  330   1.744   1.901   3.448
    1LIG    H30  331   1.917   2.035   3.602
    1LIG    H31  332   2.025   1.894   3.603
    1LIG    H32  333   1.918   2.036   3.909
    1LIG    H33  334   2.026   1.895   3.910
    1LIG    H34  335   1.852   1.761   4.064
    1LIG    H35  336   1.744   1.902   4.064
    1LIG    H36  337   1.850   1.761   4.371
    1LIG    H37  338   1.742   1.901   4.371
    1LIG    H38  339   1.917   2.035   4.524
    1LIG    H39  340   2.025   1.895   4.524
    1LIG    H40  341   1.917   2.036   4.832
    1LIG    H41  342   2.025   1.895   4.832
    1LIG    H42  343   1.851   1.761   4.985
    1LIG    H43  344   1.742   1.902   4.984
    1LIG    H44  345   1.850   1.761   5.292
    1LIG    H45  346   1.742   1.902   5.292
    1LIG    H46  347   1.917   2.036   5.445
    1LIG    H47  348   2.025   1.896   5.445
    1LIG    H48  349   1.916   2.036   5.753
    1LIG    H49  350   2.024   1.896   5.753
    1LIG    H50  351   1.850   1.762   5.907
    1LIG    H51  352   1.742   1.903   5.907
    1LIG    H52  353   1.849   1.762   6.214
    1LIG    H53  354   1.741   1.902   6.214
    1LIG    H54  355   1.916   2.036   6.368
    1LIG    H55  356   2.024   1.896   6.367
    1LIG    H56  357   1.916   2.036   6.675
    1LIG    H57  358   2.024   1.896   6.675
    1LIG    H58  359   1.850   1.762   6.829
    1LIG    H59  360   1.742   1.902   6.830
    1LIG    H60  361   1.850   1.761   7.136
    1LIG    H61  362   1.742   1.902   7.136
    1LIG    H62  363   1.917   2.036   7.289
    1LIG    H63  364   2.025   1.895   7.289
    1LIG    H64  365   1.916   2.035   7.596
    1LIG    H65  366   2.024   1.895   7.596
    1LIG    H66  367   1.851   1.761   7.750
    1LIG    H67  368   1.742   1.901   7.751
    1LIG    H68  369   1.851   1.760   8.057
    1LIG    H69  370   1.742   1.901   8.057
    1LIG    H70  371   1.916   2.035   8.212
    1LIG    H71  372   2.024   1.895   8.211
    1LIG    H72  373   1.917   2.035   8.518
    1LIG    H73  374   2.025   1.894   8.518
    1LIG    H74  375   1.851   1.760   8.673
    1LIG    H75  376   1.743   1.901   8.673
    1LIG    H76  377   1.851   1.759   8.979
    1LIG    H77  378   1.743   1.900   8.979
    1LIG    H78  379   1.917   2.033   9.134
    1LIG    H79  380   2.025   1.893   9.134
    1LIG    H80  381   1.917   2.034   9.441
    1LIG    H81  382   2.026   1.893   9.440
    1LIG    H82  383   1.852   1.759   9.595
    1LIG    H83  384   1.744   1.899   9.595
    1LIG    H84  385   1.852   1.758   9.902
    1LIG    H85  386   1.743   1.898   9.902
    1LIG    H86  387   1.917   2.033  10.055
    1LIG    H87  388   2.026   1.893  10.055
    1LIG    H88  389   1.918   2.033  10.363
    1LIG    H89  390   2.027   1.892  10.363
    1LIG    H90  391   1.853   1.757  10.516
    1LIG    H91  392   1.744   1.897  10.516
    1LIG    H92  393   1.853   1.757  10.824
    1LIG    H93  394   1.744   1.897  10.824
    1LIG    H94  395   1.919   2.032  10.977
    1LIG    H95  396   2.027   1.892  10.977
    1LIG    H96  397   1.918   2.031  11.285
    1LIG    H97  398   2.027   1.891  11.284
    1LIG    H98  399   1.853   1.756  11.437
    1LIG    H99  400   1.744   1.896  11.438
    1LIG   H100  401   1.853   1.756  11.745
    1LIG   H101  402   1.745   1.896  11.746
    1LIG   H102  403   1.919   2.031  11.898
    1LIG   H103  404   2.028   1.891  11.898
    1LIG   H104  405   1.919   2.030  12.206
    1LIG   H105  406   2.028   1.890  12.206
    1LIG   H106  407   1.854   1.755  12.358
    1LIG   H107  408   1.745   1.895  12.359
    1LIG   H108  409   1.855   1.755  12.666
    1LIG   H109  410   1.746   1.895  12.666
    1LIG   H110  411   1.919   2.029  12.821
    1LIG   H111  412   2.028   1.889  12.820
    1LIG   H112  413   1.920   2.028  13.128
    1LIG   H113  414   2.029   1.888  13.128
    1LIG   H114  415   1.856   1.753  13.283
    1LIG   H115  416   1.747   1.893  13.284
    1LIG   H116  417   1.857   1.752  13.589
    1LIG   H117  418   1.747   1.893  13.590
    1LIG   H118  419   2.029   1.887  13.747
    1LIG   H119  420   1.876   1.879  13.866
    1MOL     C1  421   2.516   1.552   6.484
    1MOL     H1  422   2.538   1.445   6.494
    1MOL     O1  423   2.562   1.585   6.354
    1MOL     C2  424   2.542   1.723   6.318
    1MOL     H2  425   2.437   1.749   6.332
    1MOL     C3  426   2.574   1.736   6.170
    1MOL     H3  427   2.541   1.835   6.135
    1MOL     H4  428   2.518   1.659   6.115
    1MOL     O2  429   2.713   1.721   6.148
    1MOL     C4  430   2.749   1.737   6.012
    1MOL     C5  431   2.598   1.633   6.587
    1MOL     H5  432   2.702   1.597   6.578
    1MOL     O3  433   2.553   1.618   6.720
    1MOL     C6  434   2.583   1.493   6.780
    1MOL     C7  435   2.600   1.783   6.557
    1MOL     H6  436   2.501   1.825   6.581
    1MOL     O4  437   2.701   1.844   6.635
    1MOL     C8  438   2.655   1.935   6.733
    1MOL     C9  439   2.629   1.811   6.409
    1MOL     H7  440   2.734   1.788   6.390
    1MOL     O5  441   2.605   1.951   6.387
    1MOL    C10  442   2.690   2.020   6.298
    1MOL     H8  443   2.769   1.952   6.263
    1MOL     O6  444   2.622   2.060   6.181
    1MOL    C11  445   2.510   2.148   6.205
    1MOL     H9  446   2.441   2.100   6.275
    1MOL    C12  447   2.438   2.167   6.073
    1MOL    H10  448   2.341   2.215   6.092
    1MOL    H11  449   2.420   2.068   6.028
    1MOL     O7  450   2.516   2.247   5.986
    1MOL    C13  451   2.449   2.275   5.865
    1MOL    C14  452   2.751   2.144   6.367
    1MOL    H12  453   2.826   2.185   6.298
    1MOL     O8  454   2.811   2.116   6.492
    1MOL    C15  455   2.935   2.048   6.485
    1MOL    C16  456   2.646   2.253   6.392
    1MOL    H13  457   2.580   2.221   6.473
    1MOL     O9  458   2.713   2.374   6.426
    1MOL    C17  459   2.698   2.414   6.561
    1MOL    C18  460   2.560   2.279   6.268
    1MOL    H14  461   2.622   2.332   6.194
    1MOL    O10  462   2.451   2.362   6.309
    1MOL    C19  463   2.410   2.466   6.224
    1MOL    H15  464   2.478   2.474   6.138
    1MOL    O11  465   2.283   2.441   6.166
    1MOL    C20  466   2.177   2.426   6.262
    1MOL    H16  467   2.204   2.348   6.335
    1MOL    C21  468   2.054   2.378   6.187
    1MOL    H17  469   1.978   2.346   6.259
    1MOL    H18  470   2.083   2.290   6.127
    1MOL    O12  471   2.004   2.480   6.103
    1MOL    C22  472   1.903   2.435   6.016
    1MOL    C23  473   2.404   2.600   6.302
    1MOL    H19  474   2.383   2.679   6.228
    1MOL    O13  475   2.524   2.629   6.371
    1MOL    C24  476   2.632   2.671   6.288
    1MOL    C25  477   2.290   2.600   6.404
    1MOL    H20  478   2.313   2.528   6.484
    1MOL    O14  479   2.276   2.730   6.459
    1MOL    C26  480   2.333   2.747   6.589
    1MOL    C27  481   2.157   2.558   6.339
    1MOL    H21  482   2.124   2.636   6.269
    1MOL    O15  483   2.057   2.535   6.439
    1MOL    C28  484   1.985   2.649   6.482
    1MOL    H22  485   2.051   2.735   6.486
    1MOL    O16  486   1.882   2.685   6.392
    1MOL    C29  487   1.782   2.586   6.369
    1MOL    H23  488   1.828   2.496   6.326
    1MOL    C30  489   1.688   2.643   6.264
    1MOL    H24  490   1.625   2.563   6.223
    1MOL    H25  491   1.750   2.684   6.183
    1MOL    O17  492   1.608   2.745   6.322
    1MOL    C31  493   1.524   2.807   6.227
    1MOL    C32  494   1.925   2.618   6.619
    1MOL    H26  495   1.877   2.711   6.654
    1MOL    O18  496   2.029   2.582   6.709
    1MOL    C33  497   2.015   2.634   6.840
    1MOL    C34  498   1.818   2.509   6.609
    1MOL    H27  499   1.867   2.415   6.581
    1MOL    O19  500   1.755   2.496   6.736
    1MOL    C35  501   1.740   2.363   6.782
    1MOL    C36  502   1.714   2.547   6.502
    1MOL    H28  503   1.657   2.633   6.539
    1MOL    O20  504   1.626   2.434   6.486
    1MOL    C37  505   1.492   2.460   6.451
    1MOL    H29  506   1.475   2.568   6.449
    1MOL    O21  507   1.463   2.417   6.319
    1MOL    C38  508   1.481   2.276   6.298
    1MOL    H30  509   1.583   2.247   6.327
    1MOL    C39  510   1.467   2.251   6.148
    1MOL    H31  511   1.500   2.149   6.126
    1MOL    H32  512   1.532   2.321   6.094
    1MOL    O22  513   1.332   2.268   6.108
    1MOL    C40  514   1.312   2.235   5.973
    1MOL    C41  515   1.395   2.390   6.549
    1MOL    H33  516   1.295   2.428   6.526
    1MOL    O23  517   1.426   2.414   6.685
    1MOL    C42  518   1.395   2.544   6.732
    1MOL    C43  519   1.392   2.238   6.531
    1MOL    H34  520   1.485   2.195   6.571
    1MOL    O24  521   1.279   2.186   6.601
    1MOL    C44  522   1.311   2.107   6.714
    1MOL    C45  523   1.379   2.199   6.384
    1MOL    H35  524   1.279   2.224   6.349
    1MOL    O25  525   1.400   2.057   6.375
    1MOL    C46  526   1.319   1.984   6.286
    1MOL    H36  527   1.243   2.050   6.242
    1MOL    O26  528   1.392   1.935   6.176
    1MOL    C47  529   1.499   1.844   6.209
    1MOL    H37  530   1.567   1.893   6.280
    1MOL    C48  531   1.576   1.816   6.081
    1MOL    H38  532   1.672   1.768   6.106
    1MOL    H39  533   1.599   1.912   6.032
    1MOL    O27  534   1.499   1.734   5.996
    1MOL    C49  535   1.572   1.693   5.881
    1MOL    C50  536   1.252   1.865   6.359
    1MOL    H40  537   1.180   1.822   6.289
    1MOL    O28  538   1.186   1.902   6.479
    1MOL    C51  539   1.064   1.971   6.461
    1MOL    C52  540   1.353   1.755   6.395
    1MOL    H41  541   1.418   1.791   6.476
    1MOL    O29  542   1.282   1.639   6.436
    1MOL    C53  543   1.286   1.612   6.575
    1MOL    C54  544   1.439   1.718   6.274
    1MOL    H42  545   1.377   1.667   6.200
    1MOL    O30  546   1.543   1.630   6.320
    1MOL    C55  547   1.566   1.512   6.246
    1MOL    H43  548   1.487   1.498   6.172
    1MOL    O31  549   1.685   1.520   6.169
    1MOL    C56  550   1.806   1.538   6.243
    1MOL    H44  551   1.803   1.633   6.298
    1MOL    C57  552   1.918   1.544   6.140
    1MOL    H45  553   1.902   1.462   6.067
    1MOL    H46  554   2.015   1.528   6.188
    1MOL    O32  555   1.914   1.670   6.074
    1MOL    C58  556   2.015   1.681   5.976
    1MOL    C59  557   1.577   1.391   6.340
    1MOL    H47  558   1.587   1.302   6.276
    1MOL    O33  559   1.464   1.374   6.425
    1MOL    C60  560   1.348   1.327   6.360
    1MOL    C61  561   1.702   1.399   6.429
    1MOL    H48  562   1.691   1.483   6.499
    1MOL    O34  563   1.722   1.277   6.499
    1MOL    C62  564   1.669   1.274   6.631
    1MOL    C63  565   1.827   1.424   6.344
    1MOL    H49  566   1.851   1.332   6.289
    1MOL    O35  567   1.937   1.459   6.429
    1MOL    C64  568   2.020   1.351   6.467
    1MOL    H50  569   1.963   1.258   6.467
    1MOL    O36  570   2.126   1.330   6.376
    1MOL    C65  571   2.222   1.437   6.364
    1MOL    H51  572   2.171   1.530   6.335
    1MOL    C66  573   2.316   1.395   6.252
    1MOL    H52  574   2.341   1.289   6.265
    1MOL    H53  575   2.409   1.454   6.255
    1MOL    O37  576   2.249   1.416   6.128
    1MOL    C67  577   2.323   1.364   6.019
    1MOL    C68  578   2.078   1.376   6.608
    1MOL    H54  579   2.129   1.282   6.636
    1MOL    O38  580   1.974   1.405   6.699
    1MOL    C69  581   1.985   1.337   6.824
    1MOL    C70  582   2.183   1.488   6.607
    1MOL    H55  583   2.133   1.582   6.584
    1MOL    O39  584   2.243   1.493   6.736
    1MOL    C71  585   2.237   1.621   6.798
    1MOL    C72  586   2.290   1.461   6.500
    1MOL    H56  587   2.347   1.371   6.529
    1MOL    O40  588   2.378   1.575   6.499
    1MOL    H57  589   2.857   1.724   6.006
    1MOL    H58  590   2.700   1.662   5.948
    1MOL    H59  591   2.722   1.838   5.976
    1MOL    H60  592   2.264   1.385   5.928
    1MOL    H61  593   2.422   1.412   6.009
    1MOL    H62  594   2.337   1.255   6.027
    1MOL    H63  595   2.011   1.783   5.936
    1MOL    H64  596   2.115   1.663   6.019
    1MOL    H65  597   2.000   1.609   5.894
    1MOL    H66  598   1.507   1.627   5.824
    1MOL    H67  599   1.599   1.780   5.818
    1MOL    H68  600   1.664   1.640   5.909
    1MOL    H69  601   1.206   2.251   5.951
    1MOL    H70  602   1.372   2.299   5.906
    1MOL    H71  603   1.337   2.129   5.953
    1MOL    H72  604   1.465   2.883   6.280
    1MOL    H73  605   1.582   2.856   6.147
    1MOL    H74  606   1.454   2.735   6.180
    1MOL    H75  607   1.872   2.520   5.956
    1MOL    H76  608   1.941   2.356   5.948
    1MOL    H77  609   1.816   2.395   6.070
    1MOL    H78  610   2.516   2.337   5.805
    1MOL    H79  611   2.426   2.183   5.809
    1MOL    H80  612   2.355   2.330   5.882
    1MOL    H81  613   2.756   2.506   6.573
    1MOL    H82  614   2.593   2.436   6.585
    1MOL    H83  615   2.737   2.338   6.630
    1MOL    H84  616   2.976   2.047   6.586
    1MOL    H85  617   2.924   1.944   6.451
    1MOL    H86  618   3.005   2.101   6.419
    1MOL    H87  619   2.743   1.972   6.786
    1MOL    H88  620   2.603   2.020   6.687
    1MOL    H89  621   2.588   1.886   6.805
    1MOL    H90  622   2.561   1.504   6.886
    1MOL    H91  623   2.520   1.412   6.740
    1MOL    H92  624   2.689   1.467   6.767
    1MOL    H93  625   2.283   1.610   6.897
    1MOL    H94  626   2.292   1.696   6.741
    1MOL    H95  627   2.132   1.653   6.812
    1MOL    H96  628   1.900   1.369   6.885
    1MOL    H97  629   1.979   1.228   6.811
    1MOL    H98  630   2.079   1.362   6.875
    1MOL    H99  631   1.699   1.177   6.673
    1MOL   H100  632   1.713   1.354   6.692
    1MOL   H101  633   1.560   1.282   6.631
    1MOL   H102  634   1.277   1.298   6.438
    1MOL   H103  635   1.301   1.405   6.298
    1MOL   H104  636   1.369   1.239   6.298
    1MOL   H105  637   1.224   1.524   6.592
    1MOL   H106  638   1.388   1.590   6.608
    1MOL   H107  639   1.246   1.697   6.633
    1MOL   H108  640   1.017   1.978   6.559
    1MOL   H109  641   1.079   2.073   6.423
    1MOL   H110  642   0.997   1.917   6.392
    1MOL   H111  643   1.215   2.077   6.758
    1MOL   H112  644   1.366   2.017   6.685
    1MOL   H113  645   1.368   2.164   6.788
    1MOL   H114  646   1.410   2.543   6.840
    1MOL   H115  647   1.460   2.621   6.688
    1MOL   H116  648   1.290   2.570   6.710
    1MOL   H117  649   1.692   2.368   6.880
    1MOL   H118  650   1.676   2.304   6.715
    1MOL   H119  651   1.838   2.313   6.792
    1MOL   H120  652   2.101   2.598   6.897
    1MOL   H121  653   2.017   2.744   6.840
    1MOL   H122  654   1.922   2.600   6.888
    1MOL   H123  655   2.316   2.851   6.616
    1MOL   H124  656   2.282   2.682   6.662
    1MOL   H125  657   2.440   2.726   6.588
    1MOL   H126  658   2.710   2.707   6.355
    1MOL   H127  659   2.673   2.588   6.229
    1MOL   H128  660   2.601   2.752   6.221
    1MOL     C1  661   1.474   1.552   7.416
    1MOL     H1  662   1.453   1.445   7.406
    1MOL     O1  663   1.429   1.585   7.546
    1MOL     C2  664   1.448   1.723   7.582
    1MOL     H2  665   1.554   1.749   7.568
    1MOL     C3  666   1.417   1.736   7.730
    1MOL     H3  667   1.450   1.835   7.765
    1MOL     H4  668   1.473   1.659   7.785
    1MOL     O2  669   1.278   1.721   7.752
    1MOL     C4  670   1.242   1.737   7.888
    1MOL     C5  671   1.393   1.633   7.313
    1MOL     H5  672   1.289   1.597   7.321
    1MOL     O3  673   1.438   1.618   7.180
    1MOL     C6  674   1.408   1.493   7.120
    1MOL     C7  675   1.391   1.783   7.343
    1MOL     H6  676   1.489   1.825   7.319
    1MOL     O4  677   1.289   1.844   7.265
    1MOL     C8  678   1.336   1.935   7.167
    1MOL     C9  679   1.362   1.811   7.491
    1MOL     H7  680   1.256   1.788   7.510
    1MOL     O5  681   1.386   1.951   7.513
    1MOL    C10  682   1.301   2.020   7.602
    1MOL     H8  683   1.222   1.952   7.637
    1MOL     O6  684   1.369   2.060   7.719
    1MOL    C11  685   1.480   2.148   7.695
    1MOL     H9  686   1.550   2.100   7.625
    1MOL    C12  687   1.553   2.167   7.827
    1MOL    H10  688   1.650   2.215   7.808
    1MOL    H11  689   1.571   2.068   7.872
    1MOL     O7  690   1.475   2.247   7.914
    1MOL    C13  691   1.542   2.275   8.035
    1MOL    C14  692   1.240   2.144   7.533
    1MOL    H12  693   1.165   2.185   7.602
    1MOL     O8  694   1.180   2.116   7.408
    1MOL    C15  695   1.056   2.048   7.415
    1MOL    C16  696   1.345   2.253   7.508
    1MOL    H13  697   1.411   2.221   7.427
    1MOL     O9  698   1.278   2.374   7.474
    1MOL    C17  699   1.293   2.414   7.339
    1MOL    C18  700   1.430   2.279   7.632
    1MOL    H14  701   1.369   2.332   7.706
    1MOL    O10  702   1.540   2.362   7.591
    1MOL    C19  703   1.581   2.466   7.676
    1MOL    H15  704   1.513   2.474   7.762
    1MOL    O11  705   1.708   2.441   7.733
    1MOL    C20  706   1.814   2.426   7.638
    1MOL    H16  707   1.787   2.348   7.565
    1MOL    C21  708   1.937   2.378   7.713
    1MOL    H17  709   2.013   2.346   7.640
    1MOL    H18  710   1.908   2.290   7.773
    1MOL    O12  711   1.987   2.480   7.797
    1MOL    C22  712   2.087   2.435   7.884
    1MOL    C23  713   1.587   2.600   7.598
    1MOL    H19  714   1.608   2.679   7.672
    1MOL    O13  715   1.467   2.629   7.529
    1MOL    C24  716   1.359   2.671   7.612
    1MOL    C25  717   1.701   2.600   7.496
    1MOL    H20  718   1.678   2.528   7.416
    1MOL    O14  719   1.715   2.730   7.441
    1MOL    C26  720   1.658   2.747   7.311
    1MOL    C27  721   1.833   2.558   7.561
    1MOL    H21  722   1.867   2.636   7.631
    1MOL    O15  723   1.934   2.535   7.461
    1MOL    C28  724   2.006   2.649   7.418
    1MOL    H22  725   1.940   2.735   7.414
    1MOL    O16  726   2.108   2.685   7.508
    1MOL    C29  727   2.209   2.586   7.531
    1MOL    H23  728   2.162   2.496   7.574
    1MOL    C30  729   2.303   2.643   7.636
    1MOL    H24  730   2.366   2.563   7.677
    1MOL    H25  731   2.241   2.684   7.717
    1MOL    O17  732   2.383   2.745   7.578
    1MOL    C31  733   2.467   2.807   7.673
    1MOL    C32  734   2.066   2.618   7.280
    1MOL    H26  735   2.114   2.711   7.246
    1MOL    O18  736   1.962   2.582   7.191
    1MOL    C33  737   1.976   2.634   7.060
    1MOL    C34  738   2.173   2.509   7.291
    1MOL    H27  739   2.124   2.415   7.319
    1MOL    O19  740   2.236   2.496   7.164
    1MOL    C35  741   2.251   2.363   7.118
    1MOL    C36  742   2.277   2.547   7.398
    1MOL    H28  743   2.334   2.633   7.361
    1MOL    O20  744   2.364   2.434   7.414
    1MOL    C37  745   2.498   2.460   7.449
    1MOL    H29  746   2.516   2.568   7.451
    1MOL    O21  747   2.528   2.417   7.581
    1MOL    C38  748   2.510   2.276   7.602
    1MOL    H30  749   2.408   2.247   7.573
    1MOL    C39  750   2.524   2.251   7.752
    1MOL    H31  751   2.490   2.149   7.774
    1MOL    H32  752   2.458   2.321   7.806
    1MOL    O22  753   2.659   2.268   7.791
    1MOL    C40  754   2.679   2.235   7.927
    1MOL    C41  755   2.595   2.390   7.351
    1MOL    H33  756   2.696   2.428   7.374
    1MOL    O23  757   2.564   2.414   7.215
    1MOL    C42  758   2.596   2.544   7.168
    1MOL    C43  759   2.599   2.238   7.369
    1MOL    H34  760   2.506   2.195   7.329
    1MOL    O24  761   2.711   2.186   7.299
    1MOL    C44  762   2.680   2.107   7.186
    1MOL    C45  763   2.611   2.199   7.516
    1MOL    H35  764   2.712   2.224   7.551
    1MOL    O25  765   2.591   2.057   7.524
    1MOL    C46  766   2.672   1.984   7.614
    1MOL    H36  767   2.747   2.050   7.658
    1MOL    O26  768   2.599   1.935   7.724
    1MOL    C47  769   2.492   1.844   7.691
    1MOL    H37  770   2.424   1.893   7.620
    1MOL    C48  771   2.414   1.816   7.819
    1MOL    H38  772   2.319   1.768   7.794
    1MOL    H39  773   2.392   1.912   7.868
    1MOL    O27  774   2.491   1.734   7.904
    1MOL    C49  775   2.419   1.693   8.019
    1MOL    C50  776   2.739   1.865   7.541
    1MOL    H40  777   2.811   1.822   7.611
    1MOL    O28  778   2.804   1.902   7.421
    1MOL    C51  779   2.927   1.971   7.439
    1MOL    C52  780   2.638   1.755   7.505
    1MOL    H41  781   2.573   1.791   7.424
    1MOL    O29  782   2.709   1.639   7.464
    1MOL    C53  783   2.705   1.612   7.325
    1MOL    C54  784   2.551   1.718   7.625
    1MOL    H42  785   2.614   1.667   7.700
    1MOL    O30  786   2.448   1.630   7.580
    1MOL    C55  787   2.424   1.512   7.654
    1MOL    H43  788   2.504   1.498   7.727
    1MOL    O31  789   2.306   1.520   7.731
    1MOL    C56  790   2.184   1.538   7.657
    1MOL    H44  791   2.188   1.633   7.602
    1MOL    C57  792   2.073   1.544   7.760
    1MOL    H45  793   2.088   1.462   7.833
    1MOL    H46  794   1.976   1.528   7.712
    1MOL    O32  795   2.076   1.670   7.826
    1MOL    C58  796   1.975   1.681   7.924
    1MOL    C59  797   2.414   1.391   7.559
    1MOL    H47  798   2.403   1.302   7.624
    1MOL    O33  799   2.526   1.374   7.475
    1MOL    C60  800   2.643   1.327   7.540
    1MOL    C61  801   2.289   1.399   7.471
    1MOL    H48  802   2.300   1.483   7.401
    1MOL    O34  803   2.269   1.277   7.401
    1MOL    C62  804   2.321   1.274   7.269
    1MOL    C63  805   2.164   1.424   7.556
    1MOL    H49  806   2.140   1.332   7.611
    1MOL    O35  807   2.053   1.459   7.471
    1MOL    C64  808   1.971   1.351   7.432
    1MOL    H50  809   2.028   1.258   7.433
    1MOL    O36  810   1.864   1.330   7.524
    1MOL    C65  811   1.769   1.437   7.536
    1MOL    H51  812   1.819   1.530   7.565
    1MOL    C66  813   1.675   1.395   7.648
    1MOL    H52  814   1.650   1.289   7.635
    1MOL    H53  815   1.582   1.454   7.645
    1MOL    O37  816   1.741   1.416   7.772
    1MOL    C67  817   1.668   1.364   7.881
    1MOL    C68  818   1.913   1.376   7.292
    1MOL    H54  819   1.862   1.282   7.264
    1MOL    O38  820   2.017   1.405   7.200
    1MOL    C69  821   2.006   1.337   7.076
    1MOL    C70  822   1.807   1.488   7.293
    1MOL    H55  823   1.857   1.582   7.316
    1MOL    O39  824   1.747   1.493   7.164
    1MOL    C71  825   1.754   1.621   7.102
    1MOL    C72  826   1.700   1.461   7.400
    1MOL    H56  827   1.644   1.371   7.371
    1MOL    O40  828   1.613   1.575   7.401
    1MOL    H57  829   1.134   1.724   7.894
    1MOL    H58  830   1.291   1.662   7.952
    1MOL    H59  831   1.269   1.838   7.924
    1MOL    H60  832   1.726   1.385   7.971
    1MOL    H61  833   1.569   1.412   7.891
    1MOL    H62  834   1.653   1.255   7.873
    1MOL    H63  835   1.980   1.783   7.964
    1MOL    H64  836   1.875   1.663   7.881
    1MOL    H65  837   1.991   1.609   8.006
    1MOL    H66  838   2.484   1.627   8.076
    1MOL    H67  839   2.392   1.780   8.082
    1MOL    H68  840   2.327   1.640   7.991
    1MOL    H69  841   2.785   2.251   7.949
    1MOL    H70  842   2.619   2.299   7.994
    1MOL    H71  843   2.654   2.129   7.947
    1MOL    H72  844   2.525   2.883   7.620
    1MOL    H73  845   2.409   2.856   7.753
    1MOL    H74  846   2.536   2.735   7.720
    1MOL    H75  847   2.119   2.520   7.944
    1MOL    H76  848   2.050   2.356   7.951
    1MOL    H77  849   2.174   2.395   7.830
    1MOL    H78  850   1.475   2.337   8.095
    1MOL    H79  851   1.565   2.183   8.091
    1MOL    H80  852   1.635   2.330   8.018
    1MOL    H81  853   1.235   2.506   7.327
    1MOL    H82  854   1.398   2.436   7.315
    1MOL    H83  855   1.254   2.338   7.270
    1MOL    H84  856   1.015   2.047   7.314
    1MOL    H85  857   1.066   1.944   7.449
    1MOL    H86  858   0.986   2.101   7.481
    1MOL    H87  859   1.247   1.972   7.114
    1MOL    H88  860   1.388   2.020   7.213
    1MOL    H89  861   1.402   1.886   7.094
    1MOL    H90  862   1.430   1.504   7.014
    1MOL    H91  863   1.471   1.412   7.160
    1MOL    H92  864   1.302   1.467   7.133
    1MOL    H93  865   1.707   1.610   7.003
    1MOL    H94  866   1.699   1.696   7.159
    1MOL    H95  867   1.858   1.653   7.088
    1MOL    H96  868   2.090   1.369   7.015
    1MOL    H97  869   2.011   1.228   7.089
    1MOL    H98  870   1.912   1.362   7.025
    1MOL    H99  871   2.292   1.177   7.227
    1MOL   H100  872   2.278   1.354   7.208
    1MOL   H101  873   2.430   1.282   7.269
    1MOL   H102  874   2.713   1.298   7.462
    1MOL   H103  875   2.690   1.405   7.602
    1MOL   H104  876   2.621   1.239   7.602
    1MOL   H105  877   2.767   1.524   7.308
    1MOL   H106  878   2.602   1.590   7.292
    1MOL   H107  879   2.745   1.697   7.267
    1MOL   H108  880   2.974   1.978   7.341
    1MOL   H109  881   2.911   2.073   7.477
    1MOL   H110  882   2.994   1.917   7.508
    1MOL   H111  883   2.775   2.077   7.142
    1MOL   H112  884   2.625   2.017   7.215
    1MOL   H113  885   2.622   2.164   7.112
    1MOL   H114  886   2.581   2.543   7.060
    1MOL   H115  887   2.531   2.621   7.211
    1MOL   H116  888   2.701   2.570   7.190
    1MOL   H117  889   2.299   2.368   7.020
    1MOL   H118  890   2.315   2.304   7.185
    1MOL   H119  891   2.153   2.313   7.107
    1MOL   H120  892   1.890   2.598   7.003
    1MOL   H121  893   1.974   2.744   7.060
    1MOL   H122  894   2.068   2.600   7.012
    1MOL   H123  895   1.674   2.851   7.283
    1MOL   H124  896   1.708   2.682   7.238
    1MOL   H125  897   1.551   2.726   7.312
    1MOL   H126  898   1.281   2.707   7.545
    1MOL   H127  899   1.318   2.588   7.671
    1MOL   H128  900   1.389   2.752   7.679
    2SOL     OW  901   0.230   0.628   0.113
    2SOL    HW1  902   0.137   0.626   0.150
    2SOL    HW2  903   0.231   0.589   0.021
    3SOL     OW  904   0.225   0.275   0.996
    3SOL    HW1  905   0.260   0.258   1.088
    3SOL    HW2  906   0.137   0.230   0.984
    4SOL     OW  907   0.019   0.368   0.647
    4SOL    HW1  908  -0.063   0.411   0.686
    4SOL    HW2  909  -0.009   0.295   0.584
    5SOL     OW  910   0.569   1.275   1.165
    5SOL    HW1  911   0.476   1.268   1.128
    5SOL    HW2  912   0.580   1.364   1.209
    6SOL     OW  913   1.555   1.511   0.703
    6SOL    HW1  914   1.498   1.495   0.784
    6SOL    HW2  915   1.496   1.521   0.623
    7SOL     OW  916   1.135   0.703   0.717
    7SOL    HW1  917   1.192   0.781   0.692
    7SOL    HW2  918   1.075   0.729   0.793
    8SOL     OW  919   1.755   0.607   0.231
    8SOL    HW1  920   1.743   0.594   0.132
    8SOL    HW2  921   1.725   0.526   0.280
    9SOL     OW  922   0.768   1.144   1.023
    9SOL    HW1  923   0.690   1.161   1.083
    9SOL    HW2  924   0.802   1.231   0.987
   10SOL     OW  925   0.850   0.798   1.823
   10SOL    HW1  926   0.846   0.874   1.888
   10SOL    HW2  927   0.872   0.834   1.732
   11SOL     OW  928   0.685   1.012   0.665
   11SOL    HW1  929   0.754   0.996   0.735
   11SOL    HW2  930   0.612   1.069   0.703
   12SOL     OW  931   0.686   1.161   1.803
   12SOL    HW1  932   0.746   1.240   1.817
   12SOL    HW2  933   0.600   1.192   1.762
   13SOL     OW  934   0.335   1.435   1.061
   13SOL    HW1  935   0.257   1.404   1.008
   13SOL    HW2  936   0.393   1.493   1.004
   14SOL     OW  937   1.460   1.505   1.339
   14SOL    HW1  938   1.484   1.599   1.365
   14SOL    HW2  939   1.444   1.451   1.421
   15SOL     OW  940   0.438   0.392   1.499
   15SOL    HW1  941   0.520   0.336   1.508
   15SOL    HW2  942   0.357   0.334   1.503
   16SOL     OW  943   1.603   0.447   0.737
   16SOL    HW1  944   1.529   0.493   0.687
   16SOL    HW2  945   1.654   0.515   0.790
   17SOL     OW  946   0.231   1.713   0.483
   17SOL    HW1  947   0.265   1.790   0.537
   17SOL    HW2  948   0.275   1.713   0.393
   18SOL     OW  949   1.127   1.341   1.690
   18SOL    HW1  950   1.174   1.341   1.778
   18SOL    HW2  951   1.079   1.254   1.679
   19SOL     OW  952   0.230   1.434   0.538
   19SOL    HW1  953   0.204   1.530   0.538
   19SOL    HW2  954   0.159   1.380   0.583
   20SOL     OW  955   0.240   1.091   0.886
   20SOL    HW1  956   0.254   1.007   0.938
   20SOL    HW2  957   0.185   1.155   0.941
   21SOL     OW  958   0.620   1.786   1.439
   21SOL    HW1  959   0.528   1.769   1.474
   21SOL    HW2  960   0.648   1.878   1.465
   22SOL     OW  961   0.606   0.964   0.123
   22SOL    HW1  962   0.613   1.048   0.069
   22SOL    HW2  963   0.652   0.977   0.211
   23SOL     OW  964   1.594   0.114   1.480
   23SOL    HW1  965   1.576   0.181   1.408
   23SOL    HW2  966   1.591   0.160   1.569
   24SOL     OW  967   0.122   0.643   0.563
   24SOL    HW1  968   0.077   0.555   0.580
   24SOL    HW2  969   0.121   0.697   0.647
   25SOL     OW  970   0.027   1.596   0.117
   25SOL    HW1  971   0.008   1.500   0.138
   25SOL    HW2  972  -0.006   1.654   0.192
   26SOL     OW  973   1.689   0.922   0.612
   26SOL    HW1  974   1.784   0.893   0.620
   26SOL    HW2  975   1.681   0.987   0.537
   27SOL     OW  976   1.641   1.108   0.432
   27SOL    HW1  977   1.727   1.110   0.380
   27SOL    HW2  978   1.655   1.155   0.520
   28SOL     OW  979   0.113   0.737   1.597
   28SOL    HW1  980   0.201   0.724   1.642
   28SOL    HW2  981   0.100   0.834   1.575
   29SOL     OW  982   0.613   1.365   0.726
   29SOL    HW1  983   0.564   1.278   0.735
   29SOL    HW2  984   0.590   1.408   0.639
   30SOL     OW  985   1.293   1.228   1.423
   30SOL    HW1  986   1.330   1.155   1.365
   30SOL    HW2  987   1.345   1.233   1.508
   31SOL     OW  988   0.809   0.004   0.502
   31SOL    HW1  989   0.849   0.095   0.493
   31SOL    HW2  990   0.709   0.012   0.508
   32SOL     OW  991   0.197   0.976   1.264
   32SOL    HW1  992   0.286   0.931   1.250
   32SOL    HW2  993   0.124   0.911   1.245
   33SOL     OW  994   1.525   0.999   0.190
   33SOL    HW1  995   1.462   0.923   0.203
   33SOL    HW2  996   1.573   1.017   0.276
   34SOL     OW  997   1.187   1.792   1.616
   34SOL    HW1  998   1.211   1.852   1.540
   34SOL    HW2  999   1.194   1.697   1.586
   35SOL     OW 1000   0.317   0.251   1.801
   35SOL    HW1 1001   0.388   0.322   1.807
   35SOL    HW2 1002   0.229   0.290   1.829
   36SOL     OW 1003   1.466   1.417   0.953
   36SOL    HW1 1004   1.407   1.423   1.033
   36SOL    HW2 1005   1.451   1.329   0.907
   37SOL     OW 1006   1.667   1.714   0.572
   37SOL    HW1 1007   1.626   1.691   0.484
   37SOL    HW2 1008   1.649   1.640   0.637
   38SOL     OW 1009   0.598   0.729   0.270
   38SOL    HW1 1010   0.622   0.798   0.202
   38SOL    HW2 1011   0.520   0.762   0.324
   39SOL     OW 1012   1.281   0.345   0.944
   39SOL    HW1 1013   1.195   0.295   0.931
   39SOL    HW2 1014   1.343   0.291   1.000
   40SOL     OW 1015   1.576   1.662   0.307
   40SOL    HW1 1016   1.665   1.708   0.310
   40SOL    HW2 1017   1.555   1.638   0.212
   41SOL     OW 1018   0.807   0.605   1.465
   41SOL    HW1 1019   0.760   0.602   1.554
   41SOL    HW2 1020   0.756   0.550   1.399
   42SOL     OW 1021   1.394   0.469   1.674
   42SOL    HW1 1022   1.374   0.512   1.762
   42SOL    HW2 1023   1.472   0.407   1.683
   43SOL     OW 1024   0.973   0.890   1.572
   43SOL    HW1 1025   1.019   0.806   1.543
   43SOL    HW2 1026   0.917   0.924   1.497
   44SOL     OW 1027   0.991   0.410   1.242
   44SOL    HW1 1028   0.914   0.444   1.296
   44SOL    HW2 1029   0.957   0.359   1.163
   45SOL     OW 1030   1.041   0.701   0.429
   45SOL    HW1 1031   1.067   0.697   0.525
   45SOL    HW2 1032   0.956   0.650   0.415
   46SOL     OW 1033   0.076   0.811   0.789
   46SOL    HW1 1034   0.175   0.799   0.798
   46SOL    HW2 1035   0.052   0.906   0.810
   47SOL     OW 1036   0.130   1.821   1.571
   47SOL    HW1 1037   0.120   1.806   1.670
   47SOL    HW2 1038   0.044   1.857   1.535
   48SOL     OW 1039   0.865   0.348   0.195
   48SOL    HW1 1040   0.924   0.411   0.146
   48SOL    HW2 1041   0.884   0.254   0.166
   49SOL     OW 1042   1.719   0.585   1.831
   49SOL    HW1 1043   1.693   0.674   1.795
   49SOL    HW2 1044   1.717   0.517   1.758
   50SOL     OW 1045   1.362   1.144   0.545
   50SOL    HW1 1046   1.445   1.115   0.497
   50SOL    HW2 1047   1.313   1.211   0.489
   51SOL     OW 1048   0.550   0.196   0.885
   51SOL    HW1 1049   0.545   0.191   0.985
   51SOL    HW2 1050   0.552   0.292   0.856
   52SOL     OW 1051   1.008   1.456   0.477
   52SOL    HW1 1052   0.962   1.528   0.425
   52SOL    HW2 1053   1.004   1.476   0.575
   53SOL     OW 1054   0.351   1.801   0.853
   53SOL    HW1 1055   0.401   1.715   0.859
   53SOL    HW2 1056   0.416   1.878   0.850
   54SOL     OW 1057   1.795   1.066   0.873
   54SOL    HW1 1058   1.733   1.051   0.797
   54SOL    HW2 1059   1.743   1.077   0.958
   55SOL     OW 1060   1.227   1.550   1.506
   55SOL    HW1 1061   1.233   1.473   1.570
   55SOL    HW2 1062   1.175   1.524   1.426
   56SOL     OW 1063   0.321   0.943   0.242
   56SOL    HW1 1064   0.403   0.982   0.200
   56SOL    HW2 1065   0.294   0.861   0.193
   57SOL     OW 1066   1.458   0.735   0.728
   57SOL    HW1 1067   1.453   0.670   0.803
   57SOL    HW2 1068   1.538   0.794   0.741
   58SOL     OW 1069   0.461   1.266   1.727
   58SOL    HW1 1070   0.411   1.267   1.641
   58SOL    HW2 1071   0.398   1.248   1.803
   59SOL     OW 1072   1.111   1.776   0.237
   59SOL    HW1 1073   1.051   1.714   0.287
   59SOL    HW2 1074   1.142   1.732   0.152
   60SOL     OW 1075   0.202   0.285   1.498
   60SOL    HW1 1076   0.122   0.345   1.485
   60SOL    HW2 1077   0.192   0.236   1.584
   61SOL     OW 1078   1.632   1.377   0.081
   61SOL    HW1 1079   1.600   1.471   0.071
   61SOL    HW2 1080   1.556   1.314   0.069
   62SOL     OW 1081   0.464   1.743   0.323
   62SOL    HW1 1082   0.497   1.782   0.409
   62SOL    HW2 1083   0.540   1.736   0.258
   63SOL     OW 1084   1.400   0.107   0.426
   63SOL    HW1 1085   1.376   0.070   0.336
   63SOL    HW2 1086   1.499   0.123   0.430
   64SOL     OW 1087   0.249   1.785   1.241
   64SOL    HW1 1088   0.306   1.720   1.291
   64SOL    HW2 1089   0.233   1.752   1.148
   65SOL     OW 1090   0.940   1.698   0.904
   65SOL    HW1 1091   1.020   1.641   0.925
   65SOL    HW2 1092   0.891   1.658   0.827
   66SOL     OW 1093   0.382   0.700   0.480
   66SOL    HW1 1094   0.427   0.610   0.477
   66SOL    HW2 1095   0.288   0.689   0.513
   67SOL     OW 1096   1.547   0.222   1.729
   67SOL    HW1 1097   1.542   0.259   1.821
   67SOL    HW2 1098   1.475   0.153   1.717
   68SOL     OW 1099   0.614   0.122   0.117
   68SOL    HW1 1100   0.712   0.100   0.124
   68SOL    HW2 1101   0.583   0.105   0.024
   69SOL     OW 1102   0.781   0.264   1.749
   69SOL    HW1 1103   0.848   0.203   1.792
   69SOL    HW2 1104   0.708   0.283   1.814
   70SOL     OW 1105   0.888   1.514   1.195
   70SOL    HW1 1106   0.865   1.489   1.101
   70SOL    HW2 1107   0.949   1.445   1.234
   71SOL     OW 1108   1.351   0.590   1.433
   71SOL    HW1 1109   1.379   0.547   1.518
   71SOL    HW2 1110   1.376   0.686   1.434
   72SOL     OW 1111   0.803   1.402   0.924
   72SOL    HW1 1112   0.893   1.416   0.882
   72SOL    HW2 1113   0.732   1.404   0.853
   73SOL     OW 1114   0.922   0.503   0.899
   73SOL    HW1 1115   0.897   0.494   0.803
   73SOL    HW2 1116   0.970   0.421   0.930
   74SOL     OW 1117   0.539   0.064   0.512
   74SOL    HW1 1118   0.458   0.065   0.570
   74SOL    HW2 1119   0.542   0.147   0.457
   75SOL     OW 1120   1.434   1.188   0.041
   75SOL    HW1 1121   1.466   1.112   0.098
   75SOL    HW2 1122   1.342   1.215   0.071
   76SOL     OW 1123   0.297   0.035   0.171
   76SOL    HW1 1124   0.346   0.119   0.150
   76SOL    HW2 1125   0.359  -0.030   0.216
   77SOL     OW 1126   0.935   0.236   0.480
   77SOL    HW1 1127   0.887   0.277   0.402
   77SOL    HW2 1128   1.034   0.234   0.461
   78SOL     OW 1129   1.076   0.683   1.464
   78SOL    HW1 1130   0.996   0.622   1.467
   78SOL    HW2 1131   1.157   0.630   1.440
   79SOL     OW 1132   1.227   1.570   0.793
   79SOL    HW1 1133   1.248   1.644   0.728
   79SOL    HW2 1134   1.295   1.570   0.866
   80SOL     OW 1135   0.459   1.152   0.741
   80SOL    HW1 1136   0.388   1.125   0.806
   80SOL    HW2 1137   0.433   1.124   0.648
   81SOL     OW 1138   1.271   1.797   0.591
   81SOL    HW1 1139   1.315   1.861   0.527
   81SOL    HW2 1140   1.221   1.849   0.661
   82SOL     OW 1141   1.032   0.549   0.016
   82SOL    HW1 1142   0.991   0.631  -0.023
   82SOL    HW2 1143   1.096   0.575   0.089
   83SOL     OW 1144   0.078   0.556   1.386
   83SOL    HW1 1145   0.170   0.555   1.345
   83SOL    HW2 1146   0.072   0.630   1.453
   84SOL     OW 1147   0.561   0.222   1.147
   84SOL    HW1 1148   0.599   0.138   1.184
   84SOL    HW2 1149   0.473   0.241   1.191
   85SOL     OW 1150   0.866   0.454   0.642
   85SOL    HW1 1151   0.834   0.526   0.580
   85SOL    HW2 1152   0.890   0.373   0.589
   86SOL     OW 1153   1.017   0.039   0.753
   86SOL    HW1 1154   0.945   0.044   0.684
   86SOL    HW2 1155   0.993  -0.030   0.822
   87SOL     OW 1156   1.429   1.173   0.867
   87SOL    HW1 1157   1.374   1.089   0.860
   87SOL    HW2 1158   1.455   1.202   0.775
   88SOL     OW 1159   1.466   0.590   0.992
   88SOL    HW1 1160   1.436   0.495   0.999
   88SOL    HW2 1161   1.539   0.606   1.058
   89SOL     OW 1162   1.857   0.833   0.377
   89SOL    HW1 1163   1.899   0.769   0.441
   89SOL    HW2 1164   1.819   0.782   0.299
   90SOL     OW 1165   0.488   1.385   0.174
   90SOL    HW1 1166   0.401   1.370   0.221
   90SOL    HW2 1167   0.471   1.411   0.079
   91SOL     OW 1168   1.664   1.280   0.657
   91SOL    HW1 1169   1.763   1.288   0.671
   91SOL    HW2 1170   1.619   1.364   0.688
   92SOL     OW 1171   1.390   0.575   0.078
   92SOL    HW1 1172   1.336   0.554   0.159
   92SOL    HW2 1173   1.481   0.534   0.087
   93SOL     OW 1174   0.527   0.256   0.328
   93SOL    HW1 1175   0.554   0.197   0.253
   93SOL    HW2 1176   0.527   0.351   0.297
   94SOL     OW 1177   1.754   1.223   1.588
   94SOL    HW1 1178   1.845   1.184   1.575
   94SOL    HW2 1179   1.762   1.319   1.612
   95SOL     OW 1180   1.064   1.347   1.340
   95SOL    HW1 1181   0.984   1.324   1.395
   95SOL    HW2 1182   1.147   1.321   1.389
   96SOL     OW 1183   1.592   1.629   1.625
   96SOL    HW1 1184   1.619   1.663   1.535
   96SOL    HW2 1185   1.671   1.591   1.671
   97SOL     OW 1186   1.111   1.195   1.100
   97SOL    HW1 1187   1.071   1.239   1.181
   97SOL    HW2 1188   1.070   1.232   1.017
   98SOL     OW 1189   1.638   1.099   1.079
   98SOL    HW1 1190   1.643   1.180   1.138
   98SOL    HW2 1191   1.552   1.101   1.028
   99SOL     OW 1192   0.915   0.089   1.402
   99SOL    HW1 1193   0.940   0.069   1.307
   99SOL    HW2 1194   0.987   0.145   1.444
  100SOL     OW 1195   0.980   1.116   1.719
  100SOL    HW1 1196   0.881   1.122   1.729
  100SOL    HW2 1197   1.003   1.036   1.663
  101SOL     OW 1198   0.705   1.050   0.368
  101SOL    HW1 1199   0.691   1.057   0.467
  101SOL    HW2 1200   0.789   0.999   0.350
  102SOL     OW 1201   0.410   0.813   1.251
  102SOL    HW1 1202   0.496   0.825   1.301
  102SOL    HW2 1203   0.368   0.726   1.278
  103SOL     OW 1204   1.274   0.386   1.262
  103SOL    HW1 1205   1.295   0.460   1.326
  103SOL    HW2 1206   1.185   0.403   1.219
  104SOL     OW 1207   0.064   1.564   1.331
  104SOL    HW1 1208   0.018   1.646   1.297
  104SOL    HW2 1209   0.162   1.583   1.340
  105SOL     OW 1210   0.367   1.100   0.501
  105SOL    HW1 1211   0.360   1.183   0.445
  105SOL    HW2 1212   0.371   1.020   0.441
  106SOL     OW 1213   0.566   0.537   0.865
  106SOL    HW1 1214   0.578   0.603   0.791
  106SOL    HW2 1215   0.612   0.571   0.948
  107SOL     OW 1216   1.252   1.348   0.388
  107SOL    HW1 1217   1.302   1.425   0.428
  107SOL    HW2 1218   1.157   1.350   0.420
  108SOL     OW 1219   1.272   1.445   1.142
  108SOL    HW1 1220   1.319   1.458   1.229
  108SOL    HW2 1221   1.206   1.371   1.151
  109SOL     OW 1222   1.582   0.639   0.472
  109SOL    HW1 1223   1.551   0.700   0.545
  109SOL    HW2 1224   1.632   0.691   0.403
  110SOL     OW 1225   0.354   1.510   1.329
  110SOL    HW1 1226   0.333   1.466   1.242
  110SOL    HW2 1227   0.451   1.536   1.332
  111SOL     OW 1228   0.402   0.751   1.598
  111SOL    HW1 1229   0.470   0.806   1.551
  111SOL    HW2 1230   0.442   0.663   1.625
  112SOL     OW 1231   1.587   0.779   1.670
  112SOL    HW1 1232   1.495   0.817   1.665
  112SOL    HW2 1233   1.647   0.826   1.605
  113SOL     OW 1234   1.013   0.105   1.770
  113SOL    HW1 1235   1.019   0.190   1.718
  113SOL    HW2 1236   1.045   0.029   1.713
  114SOL     OW 1237   0.504   0.050   1.740
  114SOL    HW1 1238   0.462  -0.007   1.670
  114SOL    HW2 1239   0.438   0.119   1.772
  115SOL     OW 1240   0.573   0.870   1.029
  115SOL    HW1 1241   0.617   0.959   1.020
  115SOL    HW2 1242   0.510   0.870   1.106
  116SOL     OW 1243   1.360   0.862   1.045
  116SOL    HW1 1244   1.285   0.862   0.979
  116SOL    HW2 1245   1.397   0.770   1.054
  117SOL     OW 1246   1.209   0.525   0.275
  117SOL    HW1 1247   1.222   0.441   0.329
  117SOL    HW2 1248   1.180   0.599   0.335
  118SOL     OW 1249   0.307   0.213   1.231
  118SOL    HW1 1250   0.284   0.250   1.321
  118SOL    HW2 1251   0.277   0.118   1.225
  119SOL     OW 1252   0.037   1.310   1.282
  119SOL    HW1 1253   0.090   1.261   1.350
  119SOL    HW2 1254   0.059   1.408   1.287
  120SOL     OW 1255   0.732   0.634   1.064
  120SOL    HW1 1256   0.791   0.608   0.988
  120SOL    HW2 1257   0.704   0.730   1.053
  121SOL     OW 1258   1.728   0.935   1.854
  121SOL    HW1 1259   1.682   0.928   1.765
  121SOL    HW2 1260   1.666   0.979   1.920
  122SOL     OW 1261   0.307   0.063   0.618
  122SOL    HW1 1262   0.296   0.157   0.651
  122SOL    HW2 1263   0.302   0.000   0.695
  123SOL     OW 1264   1.622   0.367   0.374
  123SOL    HW1 1265   1.624   0.291   0.438
  123SOL    HW2 1266   1.574   0.444   0.414
  124SOL     OW 1267   1.023   0.766   0.966
  124SOL    HW1 1268   1.038   0.787   1.062
  124SOL    HW2 1269   0.993   0.671   0.957
  125SOL     OW 1270   0.980   1.573   1.700
  125SOL    HW1 1271   0.960   1.617   1.612
  125SOL    HW2 1272   1.019   1.482   1.684
  126SOL     OW 1273   1.859   1.518   1.605
  126SOL    HW1 1274   1.873   1.545   1.510
  126SOL    HW2 1275   1.942   1.540   1.658
  127SOL     OW 1276   0.350   0.898   1.804
  127SOL    HW1 1277   0.426   0.942   1.852
  127SOL    HW2 1278   0.385   0.851   1.722
  128SOL     OW 1279   1.540   0.274   0.125
  128SOL    HW1 1280   1.479   0.199   0.148
  128SOL    HW2 1281   1.562   0.326   0.208
  129SOL     OW 1282   1.303   0.838   0.042
  129SOL    HW1 1283   1.337   0.745   0.057
  129SOL    HW2 1284   1.321   0.865  -0.053
  130SOL     OW 1285   1.068   1.333   0.849
  130SOL    HW1 1286   1.075   1.249   0.794
  130SOL    HW2 1287   1.130   1.402   0.813
  131SOL     OW 1288   0.319   0.810   0.949
  131SOL    HW1 1289   0.412   0.846   0.954
  131SOL    HW2 1290   0.313   0.725   1.001
  132SOL     OW 1291   0.339   0.509   1.006
  132SOL    HW1 1292   0.287   0.426   0.989
  132SOL    HW2 1293   0.416   0.514   0.942
  133SOL     OW 1294   1.138   0.380   1.678
  133SOL    HW1 1295   1.093   0.443   1.742
  133SOL    HW2 1296   1.231   0.411   1.661
  134SOL     OW 1297   1.160   0.207   1.477
  134SOL    HW1 1298   1.160   0.271   1.554
  134SOL    HW2 1299   1.188   0.255   1.394
  135SOL     OW 1300   0.008   1.326   0.200
  135SOL    HW1 1301  -0.085   1.347   0.169
  135SOL    HW2 1302   0.018   1.227   0.213
  136SOL     OW 1303   0.088   1.801   0.927
  136SOL    HW1 1304   0.046   1.715   0.900
  136SOL    HW2 1305   0.182   1.804   0.893
  137SOL     OW 1306   0.504   1.568   0.910
  137SOL    HW1 1307   0.570   1.642   0.919
  137SOL    HW2 1308   0.548   1.489   0.868
  138SOL     OW 1309   1.002   0.796   1.238
  138SOL    HW1 1310   1.043   0.764   1.324
  138SOL    HW2 1311   0.906   0.769   1.235
  139SOL     OW 1312   0.040   0.544   1.114
  139SOL    HW1 1313   0.125   0.511   1.073
  139SOL    HW2 1314   0.053   0.559   1.212
  140SOL     OW 1315   0.189   0.520   1.722
  140SOL    HW1 1316   0.248   0.480   1.652
  140SOL    HW2 1317   0.131   0.591   1.681
  141SOL     OW 1318   1.369   0.950   1.660
  141SOL    HW1 1319   1.408   1.039   1.680
  141SOL    HW2 1320   1.379   0.930   1.563
  142SOL     OW 1321   0.815   0.572   0.325
  142SOL    HW1 1322   0.822   0.483   0.279
  142SOL    HW2 1323   0.721   0.606   0.317
  143SOL     OW 1324   1.657   0.604   1.206
  143SOL    HW1 1325   1.619   0.535   1.268
  143SOL    HW2 1326   1.739   0.568   1.162
  144SOL     OW 1327   0.252   1.564   1.744
  144SOL    HW1 1328   0.222   1.621   1.820
  144SOL    HW2 1329   0.245   1.467   1.770
  145SOL     OW 1330   0.671   0.464   1.269
  145SOL    HW1 1331   0.637   0.375   1.239
  145SOL    HW2 1332   0.697   0.518   1.189
  146SOL     OW 1333   0.930   1.678   1.465
  146SOL    HW1 1334   0.906   1.660   1.370
  146SOL    HW2 1335   0.960   1.772   1.475
  147SOL     OW 1336   0.473   0.500   0.191
  147SOL    HW1 1337   0.534   0.580   0.195
  147SOL    HW2 1338   0.378   0.531   0.198
  148SOL     OW 1339   0.159   1.137   1.466
  148SOL    HW1 1340   0.181   1.076   1.542
  148SOL    HW2 1341   0.169   1.088   1.380
  149SOL     OW 1342   1.347   1.059   1.234
  149SOL    HW1 1343   1.371   0.996   1.160
  149SOL    HW2 1344   1.257   1.099   1.216
  150SOL     OW 1345   1.302   0.855   0.309
  150SOL    HW1 1346   1.216   0.824   0.351
  150SOL    HW2 1347   1.298   0.841   0.210
  151SOL     OW 1348   1.252   1.731   1.128
  151SOL    HW1 1349   1.336   1.736   1.074
  151SOL    HW2 1350   1.229   1.635   1.146
  152SOL     OW 1351   0.083   1.258   1.022
  152SOL    HW1 1352   0.078   1.257   1.122
  152SOL    HW2 1353   0.000   1.217   0.984
  153SOL     OW 1354   0.688   1.662   1.716
  153SOL    HW1 1355   0.632   1.743   1.725
  153SOL    HW2 1356   0.740   1.666   1.630
  154SOL     OW 1357   0.903   0.086   0.133
  154SOL    HW1 1358   0.954   0.087   0.047
  154SOL    HW2 1359   0.959   0.044   0.204
  155SOL     OW 1360   1.726   0.135   0.523
  155SOL    HW1 1361   1.799   0.118   0.456
  155SOL    HW2 1362   1.695   0.048   0.561
  156SOL     OW 1363   1.388   1.573   0.477
  156SOL    HW1 1364   1.455   1.585   0.403
  156SOL    HW2 1365   1.348   1.662   0.500
  157SOL     OW 1366   0.130   1.794   1.851
  157SOL    HW1 1367   0.089   1.720   1.904
  157SOL    HW2 1368   0.194   1.845   1.909
  158SOL     OW 1369   1.280   0.927   0.672
  158SOL    HW1 1370   1.340   0.846   0.674
  158SOL    HW2 1371   1.320   0.996   0.612
  159SOL     OW 1372   0.830   1.273   1.422
  159SOL    HW1 1373   0.825   1.306   1.517
  159SOL    HW2 1374   0.744   1.292   1.376
  160SOL     OW 1375   0.672   1.616   0.154
  160SOL    HW1 1376   0.681   1.626   0.055
  160SOL    HW2 1377   0.632   1.527   0.175
  161SOL     OW 1378   1.650   1.720   1.394
  161SOL    HW1 1379   1.703   1.730   1.310
  161SOL    HW2 1380   1.623   1.810   1.428
  162SOL     OW 1381   1.841   0.175   0.963
  162SOL    HW1 1382   1.880   0.090   0.927
  162SOL    HW2 1383   1.743   0.177   0.944
  163SOL     OW 1384   0.263   0.326   0.720
  163SOL    HW1 1385   0.184   0.377   0.686
  163SOL    HW2 1386   0.254   0.311   0.818
  164SOL     OW 1387   1.194   1.612   0.031
  164SOL    HW1 1388   1.200   1.519   0.068
  164SOL    HW2 1389   1.135   1.612  -0.049
  165SOL     OW 1390   0.822   1.002   1.372
  165SOL    HW1 1391   0.862   1.001   1.280
  165SOL    HW2 1392   0.832   1.094   1.412
  166SOL     OW 1393   0.916   0.910   0.291
  166SOL    HW1 1394   0.979   0.948   0.223
  166SOL    HW2 1395   0.956   0.827   0.330
  167SOL     OW 1396   1.504   1.607   0.044
  167SOL    HW1 1397   1.412   1.644   0.051
  167SOL    HW2 1398   1.542   1.627  -0.046
  168SOL     OW 1399   0.372   1.288   1.490
  168SOL    HW1 1400   0.359   1.381   1.456
  168SOL    HW2 1401   0.288   1.236   1.477
  169SOL     OW 1402   1.614   1.292   1.289
  169SOL    HW1 1403   1.674   1.295   1.369
  169SOL    HW2 1404   1.539   1.356   1.302
  170SOL     OW 1405   1.039   1.098   0.696
  170SOL    HW1 1406   0.969   1.051   0.750
  170SOL    HW2 1407   1.098   1.030   0.653
  171SOL     OW 1408   1.014   0.236   0.971
  171SOL    HW1 1409   1.006   0.200   0.878
  171SOL    HW2 1410   1.012   0.160   1.036
  172SOL     OW 1411   0.590   1.487   0.491
  172SOL    HW1 1412   0.632   1.429   0.421
  172SOL    HW2 1413   0.546   1.566   0.447
  173SOL     OW 1414   1.709   0.385   1.381
  173SOL    HW1 1415   1.782   0.454   1.385
  173SOL    HW2 1416   1.737   0.310   1.322
  174SOL     OW 1417   0.255   1.348   0.290
  174SOL    HW1 1418   0.159   1.349   0.263
  174SOL    HW2 1419   0.267   1.401   0.374
  175SOL     OW 1420   0.105   1.013   1.726
  175SOL    HW1 1421   0.028   0.980   1.780
  175SOL    HW2 1422   0.190   0.983   1.768
  176SOL     OW 1423   0.672   0.203   1.489
  176SOL    HW1 1424   0.762   0.187   1.449
  176SOL    HW2 1425   0.680   0.208   1.588
  177SOL     OW 1426   0.075   0.345   0.033
  177SOL    HW1 1427  -0.017   0.317   0.004
  177SOL    HW2 1428   0.106   0.422  -0.023
  178SOL     OW 1429   1.440   0.856   1.398
  178SOL    HW1 1430   1.383   0.908   1.335
  178SOL    HW2 1431   1.536   0.868   1.374
  179SOL     OW 1432   0.072   0.166   0.318
  179SOL    HW1 1433   0.055   0.249   0.264
  179SOL    HW2 1434   0.162   0.129   0.296
  180SOL     OW 1435   1.183   1.335   0.119
  180SOL    HW1 1436   1.084   1.324   0.121
  180SOL    HW2 1437   1.217   1.350   0.212
  181SOL     OW 1438   0.613   0.842   1.431
  181SOL    HW1 1439   0.669   0.923   1.414
  181SOL    HW2 1440   0.672   0.762   1.434
  182SOL     OW 1441   1.493   1.767   0.959
  182SOL    HW1 1442   1.526   1.831   0.890
  182SOL    HW2 1443   1.559   1.761   1.034
  183SOL     OW 1444   0.716   0.565   1.708
  183SOL    HW1 1445   0.735   0.630   1.782
  183SOL    HW2 1446   0.776   0.485   1.717
  184SOL     OW 1447   1.450   1.220   1.633
  184SOL    HW1 1448   1.441   1.210   1.732
  184SOL    HW2 1449   1.546   1.213   1.607
  185SOL     OW 1450   0.390   1.741   1.560
  185SOL    HW1 1451   0.299   1.782   1.558
  185SOL    HW2 1452   0.383   1.647   1.592
  186SOL     OW 1453   1.674   0.883   1.254
  186SOL    HW1 1454   1.647   0.794   1.217
  186SOL    HW2 1455   1.675   0.951   1.181
  187SOL     OW 1456   1.225   0.325   0.449
  187SOL    HW1 1457   1.290   0.251   0.438
  187SOL    HW2 1458   1.245   0.375   0.533
  188SOL     OW 1459   0.594   0.745   0.652
  188SOL    HW1 1460   0.644   0.830   0.633
  188SOL    HW2 1461   0.506   0.747   0.604
  189SOL     OW 1462   1.777   0.342   1.642
  189SOL    HW1 1463   1.760   0.373   1.548
  189SOL    HW2 1464   1.693   0.305   1.680
  190SOL     OW 1465   1.730   0.934   1.517
  190SOL    HW1 1466   1.768   1.025   1.532
  190SOL    HW2 1467   1.722   0.917   1.418
  191SOL     OW 1468   0.859   1.374   0.016
  191SOL    HW1 1469   0.813   1.389   0.104
  191SOL    HW2 1470   0.903   1.459  -0.014
  192SOL     OW 1471   0.661   1.790   0.953
  192SOL    HW1 1472   0.615   1.878   0.940
  192SOL    HW2 1473   0.760   1.802   0.946
  193SOL     OW 1474   0.859   0.956   0.861
  193SOL    HW1 1475   0.913   0.887   0.909
  193SOL    HW2 1476   0.827   1.025   0.927
  194SOL     OW 1477   1.083   0.984   0.087
  194SOL    HW1 1478   1.060   1.037   0.005
  194SOL    HW2 1479   1.164   0.928   0.068
  195SOL     OW 1480   1.861   1.569   0.851
  195SOL    HW1 1481   1.790   1.557   0.781
  195SOL    HW2 1482   1.862   1.490   0.911
  196SOL     OW 1483   0.221   1.314   1.844
  196SOL    HW1 1484   0.156   1.241   1.823
  196SOL    HW2 1485   0.225   1.328   1.942
  197SOL     OW 1486   0.079   1.240   0.653
  197SOL    HW1 1487   0.078   1.193   0.741
  197SOL    HW2 1488   0.161   1.212   0.602
  198SOL     OW 1489   0.672   1.391   1.624
  198SOL    HW1 1490   0.594   1.341   1.662
  198SOL    HW2 1491   0.669   1.486   1.655
  199SOL     OW 1492   1.824   0.192   1.227
  199SOL    HW1 1493   1.820   0.102   1.271
  199SOL    HW2 1494   1.827   0.181   1.128
  200SOL     OW 1495   0.428   0.424   0.520
  200SOL    HW1 1496   0.458   0.352   0.458
  200SOL    HW2 1497   0.389   0.384   0.603
  201SOL     OW 1498   1.705   1.487   1.104
  201SOL    HW1 1499   1.612   1.462   1.077
  201SOL    HW2 1500   1.731   1.437   1.186
  202SOL     OW 1501   0.317   0.547   1.280
  202SOL    HW1 1502   0.355   0.488   1.352
  202SOL    HW2 1503   0.357   0.521   1.192
  203SOL     OW 1504   0.812   1.586   0.687
  203SOL    HW1 1505   0.844   1.596   0.593
  203SOL    HW2 1506   0.733   1.524   0.689
  204SOL     OW 1507   1.424   0.214   1.112
  204SOL    HW1 1508   1.476   0.149   1.167
  204SOL    HW2 1509   1.375   0.277   1.173
  205SOL     OW 1510   1.001   0.034   1.154
  205SOL    HW1 1511   0.938  -0.038   1.123
  205SOL    HW2 1512   1.094  -0.002   1.154
  206SOL     OW 1513   0.770   1.330   0.301
  206SOL    HW1 1514   0.724   1.243   0.318
  206SOL    HW2 1515   0.861   1.327   0.342
  207SOL     OW 1516   0.618   1.567   1.284
  207SOL    HW1 1517   0.613   1.649   1.341
  207SOL    HW2 1518   0.707   1.564   1.239
  208SOL     OW 1519   1.352   0.052   0.168
  208SOL    HW1 1520   1.387   0.011   0.084
  208SOL    HW2 1521   1.262   0.014   0.188
  209SOL     OW 1522   1.300   0.453   0.691
  209SOL    HW1 1523   1.241   0.533   0.695
  209SOL    HW2 1524   1.315   0.418   0.784
  210SOL     OW 1525   1.593   0.221   0.882
  210SOL    HW1 1526   1.509   0.220   0.936
  210SOL    HW2 1527   1.595   0.304   0.826
  211SOL     OW 1528   0.039   1.077   0.300
  211SOL    HW1 1529   0.138   1.066   0.291
  211SOL    HW2 1530  -0.001   0.991   0.332
  212SOL     OW 1531   0.875   1.646   0.337
  212SOL    HW1 1532   0.798   1.611   0.283
  212SOL    HW2 1533   0.843   1.717   0.399
  213SOL     OW 1534   0.230   0.628   1.975
  213SOL    HW1 1535   0.137   0.626   2.012
  213SOL    HW2 1536   0.231   0.589   1.883
  214SOL     OW 1537   0.225   0.275   2.858
  214SOL    HW1 1538   0.260   0.258   2.950
  214SOL    HW2 1539   0.137   0.230   2.846
  215SOL     OW 1540   0.019   0.368   2.509
  215SOL    HW1 1541  -0.063   0.411   2.548
  215SOL    HW2 1542  -0.009   0.295   2.446
  216SOL     OW 1543   0.569   1.275   3.027
  216SOL    HW1 1544   0.476   1.268   2.990
  216SOL    HW2 1545   0.580   1.364   3.071
  217SOL     OW 1546   1.555   1.511   2.565
  217SOL    HW1 1547   1.498   1.495   2.646
  217SOL    HW2 1548   1.496   1.521   2.485
  218SOL     OW 1549   1.135   0.703   2.579
  218SOL    HW1 1550   1.192   0.781   2.554
  218SOL    HW2 1551   1.075   0.729   2.655
  219SOL     OW 1552   1.755   0.607   2.093
  219SOL    HW1 1553   1.743   0.594   1.994
  219SOL    HW2 1554   1.725   0.526   2.142
  220SOL     OW 1555   0.768   1.144   2.885
  220SOL    HW1 1556   0.690   1.161   2.945
  220SOL    HW2 1557   0.802   1.231   2.849
  221SOL     OW 1558   0.850   0.798   3.685
  221SOL    HW1 1559   0.846   0.874   3.750
  221SOL    HW2 1560   0.872   0.834   3.594
  222SOL     OW 1561   0.685   1.012   2.527
  222SOL    HW1 1562   0.754   0.996   2.597
  222SOL    HW2 1563   0.612   1.069   2.565
  223SOL     OW 1564   0.686   1.161   3.665
  223SOL    HW1 1565   0.746   1.240   3.679
  223SOL    HW2 1566   0.600   1.192   3.624
  224SOL     OW 1567   0.335   1.435   2.923
  224SOL    HW1 1568   0.257   1.404   2.870
  224SOL    HW2 1569   0.393   1.493   2.866
  225SOL     OW 1570   1.460   1.505   3.201
  225SOL    HW1 1571   1.484   1.599   3.227
  225SOL    HW2 1572   1.444   1.451   3.283
  226SOL     OW 1573   0.438   0.392   3.361
  226SOL    HW1 1574   0.520   0.336   3.370
  226SOL    HW2 1575   0.357   0.334   3.365
  227SOL     OW 1576   1.603   0.447   2.599
  227SOL    HW1 1577   1.529   0.493   2.549
  227SOL    HW2 1578   1.654   0.515   2.652
  228SOL     OW 1579   0.231   1.713   2.345
  228SOL    HW1 1580   0.265   1.790   2.399
  228SOL    HW2 1581   0.275   1.713   2.255
  229SOL     OW 1582   1.127   1.341   3.552
  229SOL    HW1 1583   1.174   1.341   3.640
  229SOL    HW2 1584   1.079   1.254   3.541
  230SOL     OW 1585   0.230   1.434   2.400
  230SOL    HW1 1586   0.204   1.530   2.400
  230SOL    HW2 1587   0.159   1.380   2.445
  231SOL     OW 1588   0.240   1.091   2.748
  231SOL    HW1 1589   0.254   1.007   2.800
  231SOL    HW2 1590   0.185   1.155   2.803
  232SOL     OW 1591   0.620   1.786   3.301
  232SOL    HW1 1592   0.528   1.769   3.336
  232SOL    HW2 1593   0.648   1.878   3.327
  233SOL     OW 1594   0.606   0.964   1.985
  233SOL    HW1 1595   0.613   1.048   1.931
  233SOL    HW2 1596   0.652   0.977   2.073
  234SOL     OW 1597   1.594   0.114   3.342
  234SOL    HW1 1598   1.576   0.181   3.270
  234SOL    HW2 1599   1.591   0.160   3.431
  235SOL     OW 1600   0.122   0.643   2.425
  235SOL    HW1 1601   0.077   0.555   2.442
  235SOL    HW2 1602   0.121   0.697   2.509
  236SOL     OW 1603   0.027   1.596   1.979
  236SOL    HW1 1604   0.008   1.500   2.000
  236SOL    HW2 1605  -0.006   1.654   2.054
  237SOL     OW 1606   1.689   0.922   2.474
  237SOL    HW1 1607   1.784   0.893   2.482
  237SOL    HW2 1608   1.681   0.987   2.399
  238SOL     OW 1609   1.641   1.108   2.294
  238SOL    HW1 1610   1.727   1.110   2.242
  238SOL    HW2 1611   1.655   1.155   2.382
  239SOL     OW 1612   0.113   0.737   3.459
  239SOL    HW1 1613   0.201   0.724   3.504
  239SOL    HW2 1614   0.100   0.834   3.437
  240SOL     OW 1615   0.613   1.365   2.588
  240SOL    HW1 1616   0.564   1.278   2.597
  240SOL    HW2 1617   0.590   1.408   2.501
  241SOL     OW 1618   1.293   1.228   3.285
  241SOL    HW1 1619   1.330   1.155   3.227
  241SOL    HW2 1620   1.345   1.233   3.370
  242SOL     OW 1621   0.809   0.004   2.364
  242SOL    HW1 1622   0.849   0.095   2.355
  242SOL    HW2 1623   0.709   0.012   2.370
  243SOL     OW 1624   0.197   0.976   3.126
  243SOL    HW1 1625   0.286   0.931   3.112
  243SOL    HW2 1626   0.124   0.911   3.107
  244SOL     OW 1627   1.525   0.999   2.052
  244SOL    HW1 1628   1.462   0.923   2.065
  244SOL    HW2 1629   1.573   1.017   2.138
  245SOL     OW 1630   1.187   1.792   3.478
  245SOL    HW1 1631   1.211   1.852   3.402
  245SOL    HW2 1632   1.194   1.697   3.448
  246SOL     OW 1633   0.317   0.251   3.663
  246SOL    HW1 1634   0.388   0.322   3.669
  246SOL    HW2 1635   0.229   0.290   3.691
  247SOL     OW 1636   1.466   1.417   2.815
  247SOL    HW1 1637   1.407   1.423   2.895
  247SOL    HW2 1638   1.451   1.329   2.769
  248SOL     OW 1639   1.667   1.714   2.434
  248SOL    HW1 1640   1.626   1.691   2.346
  248SOL    HW2 1641   1.649   1.640   2.499
  249SOL     OW 1642   0.598   0.729   2.132
  249SOL    HW1 1643   0.622   0.798   2.064
  249SOL    HW2 1644   0.520   0.762   2.186
  250SOL     OW 1645   1.281   0.345   2.806
  250SOL    HW1 1646   1.195   0.295   2.793
  250SOL    HW2 1647   1.343   0.291   2.862
  251SOL     OW 1648   1.576   1.662   2.169
  251SOL    HW1 1649   1.665   1.708   2.172
  251SOL    HW2 1650   1.555   1.638   2.074
  252SOL     OW 1651   0.807   0.605   3.327
  252SOL    HW1 1652   0.760   0.602   3.416
  252SOL    HW2 1653   0.756   0.550   3.261
  253SOL     OW 1654   1.394   0.469   3.536
  253SOL    HW1 1655   1.374   0.512   3.624
  253SOL    HW2 1656   1.472   0.407   3.545
  254SOL     OW 1657   0.973   0.890   3.434
  254SOL    HW1 1658   1.019   0.806   3.405
  254SOL    HW2 1659   0.917   0.924   3.359
  255SOL     OW 1660   0.991   0.410   3.104
  255SOL    HW1 1661   0.914   0.444   3.158
  255SOL    HW2 1662   0.957   0.359   3.025
  256SOL     OW 1663   1.041   0.701   2.291
  256SOL    HW1 1664   1.067   0.697   2.387
  256SOL    HW2 1665   0.956   0.650   2.277
  257SOL     OW 1666   0.076   0.811   2.651
  257SOL    HW1 1667   0.175   0.799   2.660
  257SOL    HW2 1668   0.052   0.906   2.672
  258SOL     OW 1669   0.130   1.821   3.433
  258SOL    HW1 1670   0.120   1.806   3.532
  258SOL    HW2 1671   0.044   1.857   3.397
  259SOL     OW 1672   0.865   0.348   2.057
  259SOL    HW1 1673   0.924   0.411   2.008
  259SOL    HW2 1674   0.884   0.254   2.028
  260SOL     OW 1675   1.719   0.585   3.693
  260SOL    HW1 1676   1.693   0.674   3.657
  260SOL    HW2 1677   1.717   0.517   3.620
  261SOL     OW 1678   1.362   1.144   2.407
  261SOL    HW1 1679   1.445   1.115   2.359
  261SOL    HW2 1680   1.313   1.211   2.351
  262SOL     OW 1681   0.550   0.196   2.747
  262SOL    HW1 1682   0.545   0.191   2.847
  262SOL    HW2 1683   0.552   0.292   2.718
  263SOL     OW 1684   1.008   1.456   2.339
  263SOL    HW1 1685   0.962   1.528   2.287
  263SOL    HW2 1686   1.004   1.476   2.437
  264SOL     OW 1687   0.351   1.801   2.715
  264SOL    HW1 1688   0.401   1.715   2.721
  264SOL    HW2 1689   0.416   1.878   2.712
  265SOL     OW 1690   1.795   1.066   2.735
  265SOL    HW1 1691   1.733   1.051   2.659
  265SOL    HW2 1692   1.743   1.077   2.820
  266SOL     OW 1693   1.227   1.550   3.368
  266SOL    HW1 1694   1.233   1.473   3.432
  266SOL    HW2 1695   1.175   1.524   3.288
  267SOL     OW 1696   0.321   0.943   2.104
  267SOL    HW1 1697   0.403   0.982   2.062
  267SOL    HW2 1698   0.294   0.861   2.055
  268SOL     OW 1699   1.458   0.735   2.590
  268SOL    HW1 1700   1.453   0.670   2.665
  268SOL    HW2 1701   1.538   0.794   2.603
  269SOL     OW 1702   0.461   1.266   3.589
  269SOL    HW1 1703   0.411   1.267   3.503
  269SOL    HW2 1704   0.398   1.248   3.665
  270SOL     OW 1705   1.111   1.776   2.099
  270SOL    HW1 1706   1.051   1.714   2.149
  270SOL    HW2 1707   1.142   1.732   2.014
  271SOL     OW 1708   0.202   0.285   3.360
  271SOL    HW1 1709   0.122   0.345   3.347
  271SOL    HW2 1710   0.192   0.236   3.446
  272SOL     OW 1711   1.632   1.377   1.943
  272SOL    HW1 1712   1.600   1.471   1.933
  272SOL    HW2 1713   1.556   1.314   1.931
  273SOL     OW 1714   0.464   1.743   2.185
  273SOL    HW1 1715   0.497   1.782   2.271
  273SOL    HW2 1716   0.540   1.736   2.120
  274SOL     OW 1717   1.400   0.107   2.288
  274SOL    HW1 1718   1.376   0.070   2.198
  274SOL    HW2 1719   1.499   0.123   2.292
  275SOL     OW 1720   0.249   1.785   3.103
  275SOL    HW1 1721   0.306   1.720   3.153
  275SOL    HW2 1722   0.233   1.752   3.010
  276SOL     OW 1723   0.940   1.698   2.766
  276SOL    HW1 1724   1.020   1.641   2.787
  276SOL    HW2 1725   0.891   1.658   2.689
  277SOL     OW 1726   0.382   0.700   2.342
  277SOL    HW1 1727   0.427   0.610   2.339
  277SOL    HW2 1728   0.288   0.689   2.375
  278SOL     OW 1729   1.547   0.222   3.591
  278SOL    HW1 1730   1.542   0.259   3.683
  278SOL    HW2 1731   1.475   0.153   3.579
  279SOL     OW 1732   0.614   0.122   1.979
  279SOL    HW1 1733   0.712   0.100   1.986
  279SOL    HW2 1734   0.583   0.105   1.886
  280SOL     OW 1735   0.781   0.264   3.611
  280SOL    HW1 1736   0.848   0.203   3.654
  280SOL    HW2 1737   0.708   0.283   3.676
  281SOL     OW 1738   0.888   1.514   3.057
  281SOL    HW1 1739   0.865   1.489   2.963
  281SOL    HW2 1740   0.949   1.445   3.096
  282SOL     OW 1741   1.351   0.590   3.295
  282SOL    HW1 1742   1.379   0.547   3.380
  282SOL    HW2 1743   1.376   0.686   3.296
  283SOL     OW 1744   0.803   1.402   2.786
  283SOL    HW1 1745   0.893   1.416   2.744
  283SOL    HW2 1746   0.732   1.404   2.715
  284SOL     OW 1747   0.922   0.503   2.761
  284SOL    HW1 1748   0.897   0.494   2.665
  284SOL    HW2 1749   0.970   0.421   2.792
  285SOL     OW 1750   0.539   0.064   2.374
  285SOL    HW1 1751   0.458   0.065   2.432
  285SOL    HW2 1752   0.542   0.147   2.319
  286SOL     OW 1753   1.434   1.188   1.903
  286SOL    HW1 1754   1.466   1.112   1.960
  286SOL    HW2 1755   1.342   1.215   1.933
  287SOL     OW 1756   0.297   0.035   2.033
  287SOL    HW1 1757   0.346   0.119   2.012
  287SOL    HW2 1758   0.359  -0.030   2.078
  288SOL     OW 1759   0.935   0.236   2.342
  288SOL    HW1 1760   0.887   0.277   2.264
  288SOL    HW2 1761   1.034   0.234   2.323
  289SOL     OW 1762   1.076   0.683   3.326
  289SOL    HW1 1763   0.996   0.622   3.329
  289SOL    HW2 1764   1.157   0.630   3.302
  290SOL     OW 1765   1.227   1.570   2.655
  290SOL    HW1 1766   1.248   1.644   2.590
  290SOL    HW2 1767   1.295   1.570   2.728
  291SOL     OW 1768   0.459   1.152   2.603
  291SOL    HW1 1769   0.388   1.125   2.668
  291SOL    HW2 1770   0.433   1.124   2.510
  292SOL     OW 1771   1.271   1.797   2.453
  292SOL    HW1 1772   1.315   1.861   2.389
  292SOL    HW2 1773   1.221   1.849   2.523
  293SOL     OW 1774   1.032   0.549   1.878
  293SOL    HW1 1775   0.991   0.631   1.839
  293SOL    HW2 1776   1.096   0.575   1.951
  294SOL     OW 1777   0.078   0.556   3.248
  294SOL    HW1 1778   0.170   0.555   3.207
  294SOL    HW2 1779   0.072   0.630   3.315
  295SOL     OW 1780   0.561   0.222   3.009
  295SOL    HW1 1781   0.599   0.138   3.046
  295SOL    HW2 1782   0.473   0.241   3.053
  296SOL     OW 1783   0.866   0.454   2.504
  296SOL    HW1 1784   0.834   0.526   2.442
  296SOL    HW2 1785   0.890   0.373   2.451
  297SOL     OW 1786   1.017   0.039   2.615
  297SOL    HW1 1787   0.945   0.044   2.546
  297SOL    HW2 1788   0.993  -0.030   2.684
  298SOL     OW 1789   1.429   1.173   2.729
  298SOL    HW1 1790   1.374   1.089   2.722
  298SOL    HW2 1791   1.455   1.202   2.637
  299SOL     OW 1792   1.466   0.590   2.854
  299SOL    HW1 1793   1.436   0.495   2.861
  299SOL    HW2 1794   1.539   0.606   2.920
  300SOL     OW 1795   1.857   0.833   2.239
  300SOL    HW1 1796   1.899   0.769   2.303
  300SOL    HW2 1797   1.819   0.782   2.161
  301SOL     OW 1798   0.488   1.385   2.036
  301SOL    HW1 1799   0.401   1.370   2.083
  301SOL    HW2 1800   0.471   1.411   1.941
  302SOL     OW 1801   1.664   1.280   2.519
  302SOL    HW1 1802   1.763   1.288   2.533
  302SOL    HW2 1803   1.619   1.364   2.550
  303SOL     OW 1804   1.390   0.575   1.940
  303SOL    HW1 1805   1.336   0.554   2.021
  303SOL    HW2 1806   1.481   0.534   1.949
  304SOL     OW 1807   0.527   0.256   2.190
  304SOL    HW1 1808   0.554   0.197   2.115
  304SOL    HW2 1809   0.527   0.351   2.159
  305SOL     OW 1810   1.754   1.223   3.450
  305SOL    HW1 1811   1.845   1.184   3.437
  305SOL    HW2 1812   1.762   1.319   3.474
  306SOL     OW 1813   1.064   1.347   3.202
  306SOL    HW1 1814   0.984   1.324   3.257
  306SOL    HW2 1815   1.147   1.321   3.251
  307SOL     OW 1816   1.592   1.629   3.487
  307SOL    HW1 1817   1.619   1.663   3.397
  307SOL    HW2 1818   1.671   1.591   3.533
  308SOL     OW 1819   1.111   1.195   2.962
  308SOL    HW1 1820   1.071   1.239   3.043
  308SOL    HW2 1821   1.070   1.232   2.879
  309SOL     OW 1822   1.638   1.099   2.941
  309SOL    HW1 1823   1.643   1.180   3.000
  309SOL    HW2 1824   1.552   1.101   2.890
  310SOL     OW 1825   0.915   0.089   3.264
  310SOL    HW1 1826   0.940   0.069   3.169
  310SOL    HW2 1827   0.987   0.145   3.306
  311SOL     OW 1828   0.980   1.116   3.581
  311SOL    HW1 1829   0.881   1.122   3.591
  311SOL    HW2 1830   1.003   1.036   3.525
  312SOL     OW 1831   0.705   1.050   2.230
  312SOL    HW1 1832   0.691   1.057   2.329
  312SOL    HW2 1833   0.789   0.999   2.212
  313SOL     OW 1834   0.410   0.813   3.113
  313SOL    HW1 1835   0.496   0.825   3.163
  313SOL    HW2 1836   0.368   0.726   3.140
  314SOL     OW 1837   1.274   0.386   3.124
  314SOL    HW1 1838   1.295   0.460   3.188
  314SOL    HW2 1839   1.185   0.403   3.081
  315SOL     OW 1840   0.064   1.564   3.193
  315SOL    HW1 1841   0.018   1.646   3.159
  315SOL    HW2 1842   0.162   1.583   3.202
  316SOL     OW 1843   0.367   1.100   2.363
  316SOL    HW1 1844   0.360   1.183   2.307
  316SOL    HW2 1845   0.371   1.020   2.303
  317SOL     OW 1846   0.566   0.537   2.727
  317SOL    HW1 1847   0.578   0.603   2.653
  317SOL    HW2 1848   0.612   0.571   2.810
  318SOL     OW 1849   1.252   1.348   2.250
  318SOL    HW1 1850   1.302   1.425   2.290
  318SOL    HW2 1851   1.157   1.350   2.282
  319SOL     OW 1852   1.272   1.445   3.004
  319SOL    HW1 1853   1.319   1.458   3.091
  319SOL    HW2 1854   1.206   1.371   3.013
  320SOL     OW 1855   1.582   0.639   2.334
  320SOL    HW1 1856   1.551   0.700   2.407
  320SOL    HW2 1857   1.632   0.691   2.265
  321SOL     OW 1858   0.354   1.510   3.191
  321SOL    HW1 1859   0.333   1.466   3.104
  321SOL    HW2 1860   0.451   1.536   3.194
  322SOL     OW 1861   0.402   0.751   3.460
  322SOL    HW1 1862   0.470   0.806   3.413
  322SOL    HW2 1863   0.442   0.663   3.487
  323SOL     OW 1864   1.587   0.779   3.532
  323SOL    HW1 1865   1.495   0.817   3.527
  323SOL    HW2 1866   1.647   0.826   3.467
  324SOL     OW 1867   1.013   0.105   3.632
  324SOL    HW1 1868   1.019   0.190   3.580
  324SOL    HW2 1869   1.045   0.029   3.575
  325SOL     OW 1870   0.504   0.050   3.602
  325SOL    HW1 1871   0.462  -0.007   3.532
  325SOL    HW2 1872   0.438   0.119   3.634
  326SOL     OW 1873   0.573   0.870   2.891
  326SOL    HW1 1874   0.617   0.959   2.882
  326SOL    HW2 1875   0.510   0.870   2.968
  327SOL     OW 1876   1.360   0.862   2.907
  327SOL    HW1 1877   1.285   0.862   2.841
  327SOL    HW2 1878   1.397   0.770   2.916
  328SOL     OW 1879   1.209   0.525   2.137
  328SOL    HW1 1880   1.222   0.441   2.191
  328SOL    HW2 1881   1.180   0.599   2.197
  329SOL     OW 1882   0.307   0.213   3.093
  329SOL    HW1 1883   0.284   0.250   3.183
  329SOL    HW2 1884   0.277   0.118   3.087
  330SOL     OW 1885   0.037   1.310   3.144
  330SOL    HW1 1886   0.090   1.261   3.212
  330SOL    HW2 1887   0.059   1.408   3.149
  331SOL     OW 1888   0.732   0.634   2.926
  331SOL    HW1 1889   0.791   0.608   2.850
  331SOL    HW2 1890   0.704   0.730   2.915
  332SOL     OW 1891   1.728   0.935   3.716
  332SOL    HW1 1892   1.682   0.928   3.627
  332SOL    HW2 1893   1.666   0.979   3.782
  333SOL     OW 1894   0.307   0.063   2.480
  333SOL    HW1 1895   0.296   0.157   2.513
  333SOL    HW2 1896   0.302   0.000   2.557
  334SOL     OW 1897   1.622   0.367   2.236
  334SOL    HW1 1898   1.624   0.291   2.300
  334SOL    HW2 1899   1.574   0.444   2.276
  335SOL     OW 1900   1.023   0.766   2.828
  335SOL    HW1 1901   1.038   0.787   2.924
  335SOL    HW2 1902   0.993   0.671   2.819
  336SOL     OW 1903   0.980   1.573   3.562
  336SOL    HW1 1904   0.960   1.617   3.474
  336SOL    HW2 1905   1.019   1.482   3.546
  337SOL     OW 1906   1.859   1.518   3.467
  337SOL    HW1 1907   1.873   1.545   3.372
  337SOL    HW2 1908   1.942   1.540   3.520
  338SOL     OW 1909   0.350   0.898   3.666
  338SOL    HW1 1910   0.426   0.942   3.714
  338SOL    HW2 1911   0.385   0.851   3.584
  339SOL     OW 1912   1.540   0.274   1.987
  339SOL    HW1 1913   1.479   0.199   2.010
  339SOL    HW2 1914   1.562   0.326   2.070
  340SOL     OW 1915   1.303   0.838   1.904
  340SOL    HW1 1916   1.337   0.745   1.919
  340SOL    HW2 1917   1.321   0.865   1.809
  341SOL     OW 1918   1.068   1.333   2.711
  341SOL    HW1 1919   1.075   1.249   2.656
  341SOL    HW2 1920   1.130   1.402   2.675
  342SOL     OW 1921   0.319   0.810   2.811
  342SOL    HW1 1922   0.412   0.846   2.816
  342SOL    HW2 1923   0.313   0.725   2.863
  343SOL     OW 1924   0.339   0.509   2.868
  343SOL    HW1 1925   0.287   0.426   2.851
  343SOL    HW2 1926   0.416   0.514   2.804
  344SOL     OW 1927   1.138   0.380   3.540
  344SOL    HW1 1928   1.093   0.443   3.604
  344SOL    HW2 1929   1.231   0.411   3.523
  345SOL     OW 1930   1.160   0.207   3.339
  345SOL    HW1 1931   1.160   0.271   3.416
  345SOL    HW2 1932   1.188   0.255   3.256
  346SOL     OW 1933   0.008   1.326   2.062
  346SOL    HW1 1934  -0.085   1.347   2.031
  346SOL    HW2 1935   0.018   1.227   2.075
  347SOL     OW 1936   0.088   1.801   2.789
  347SOL    HW1 1937   0.046   1.715   2.762
  347SOL    HW2 1938   0.182   1.804   2.755
  348SOL     OW 1939   0.504   1.568   2.772
  348SOL    HW1 1940   0.570   1.642   2.781
  348SOL    HW2 1941   0.548   1.489   2.730
  349SOL     OW 1942   1.002   0.796   3.100
  349SOL    HW1 1943   1.043   0.764   3.186
  349SOL    HW2 1944   0.906   0.769   3.097
  350SOL     OW 1945   0.040   0.544   2.976
  350SOL    HW1 1946   0.125   0.511   2.935
  350SOL    HW2 1947   0.053   0.559   3.074
  351SOL     OW 1948   0.189   0.520   3.584
  351SOL    HW1 1949   0.248   0.480   3.514
  351SOL    HW2 1950   0.131   0.591   3.543
  352SOL     OW 1951   1.369   0.950   3.522
  352SOL    HW1 1952   1.408   1.039   3.542
  352SOL    HW2 1953   1.379   0.930   3.425
  353SOL     OW 1954   0.815   0.572   2.187
  353SOL    HW1 1955   0.822   0.483   2.141
  353SOL    HW2 1956   0.721   0.606   2.179
  354SOL     OW 1957   1.657   0.604   3.068
  354SOL    HW1 1958   1.619   0.535   3.130
  354SOL    HW2 1959   1.739   0.568   3.024
  355SOL     OW 1960   0.252   1.564   3.606
  355SOL    HW1 1961   0.222   1.621   3.682
  355SOL    HW2 1962   0.245   1.467   3.632
  356SOL     OW 1963   0.671   0.464   3.131
  356SOL    HW1 1964   0.637   0.375   3.101
  356SOL    HW2 1965   0.697   0.518   3.051
  357SOL     OW 1966   0.930   1.678   3.327
  357SOL    HW1 1967   0.906   1.660   3.232
  357SOL    HW2 1968   0.960   1.772   3.337
  358SOL     OW 1969   0.473   0.500   2.053
  358SOL    HW1 1970   0.534   0.580   2.057
  358SOL    HW2 1971   0.378   0.531   2.060
  359SOL     OW 1972   0.159   1.137   3.328
  359SOL    HW1 1973   0.181   1.076   3.404
  359SOL    HW2 1974   0.169   1.088   3.242
  360SOL     OW 1975   1.347   1.059   3.096
  360SOL    HW1 1976   1.371   0.996   3.022
  360SOL    HW2 1977   1.257   1.099   3.078
  361SOL     OW 1978   1.302   0.855   2.171
  361SOL    HW1 1979   1.216   0.824   2.213
  361SOL    HW2 1980   1.298   0.841   2.072
  362SOL     OW 1981   1.252   1.731   2.990
  362SOL    HW1 1982   1.336   1.736   2.936
  362SOL    HW2 1983   1.229   1.635   3.008
  363SOL     OW 1984   0.083   1.258   2.884
  363SOL    HW1 1985   0.078   1.257   2.984
  363SOL    HW2 1986   0.000   1.217   2.846
  364SOL     OW 1987   0.688   1.662   3.578
  364SOL    HW1 1988   0.632   1.743   3.587
  364SOL    HW2 1989   0.740   1.666   3.492
  365SOL     OW 1990   1.726   0.135   2.385
  365SOL    HW1 1991   1.799   0.118   2.318
  365SOL    HW2 1992   1.695   0.048   2.423
  366SOL     OW 1993   1.388   1.573   2.339
  366SOL    HW1 1994   1.455   1.585   2.265
  366SOL    HW2 1995   1.348   1.662   2.362
  367SOL     OW 1996   0.130   1.794   3.713
  367SOL    HW1 1997   0.089   1.720   3.766
  367SOL    HW2 1998   0.194   1.845   3.771
  368SOL     OW 1999   1.280   0.927   2.534
  368SOL    HW1 2000   1.340   0.846   2.536
  368SOL    HW2 2001   1.320   0.996   2.474
  369SOL     OW 2002   0.830   1.273   3.284
  369SOL    HW1 2003   0.825   1.306   3.379
  369SOL    HW2 2004   0.744   1.292   3.238
  370SOL     OW 2005   0.672   1.616   2.016
  370SOL    HW1 2006   0.681   1.626   1.917
  370SOL    HW2 2007   0.632   1.527   2.037
  371SOL     OW 2008   1.650   1.720   3.256
  371SOL    HW1 2009   1.703   1.730   3.172
  371SOL    HW2 2010   1.623   1.810   3.290
  372SOL     OW 2011   1.841   0.175   2.825
  372SOL    HW1 2012   1.880   0.090   2.789
  372SOL    HW2 2013   1.743   0.177   2.806
  373SOL     OW 2014   0.263   0.326   2.582
  373SOL    HW1 2015   0.184   0.377   2.548
  373SOL    HW2 2016   0.254   0.311   2.680
  374SOL     OW 2017   1.194   1.612   1.893
  374SOL    HW1 2018   1.200   1.519   1.930
  374SOL    HW2 2019   1.135   1.612   1.813
  375SOL     OW 2020   0.822   1.002   3.234
  375SOL    HW1 2021   0.862   1.001   3.142
  375SOL    HW2 2022   0.832   1.094   3.274
  376SOL     OW 2023   0.916   0.910   2.153
  376SOL    HW1 2024   0.979   0.948   2.085
  376SOL    HW2 2025   0.956   0.827   2.192
  377SOL     OW 2026   1.504   1.607   1.906
  377SOL    HW1 2027   1.412   1.644   1.913
  377SOL    HW2 2028   1.542   1.627   1.816
  378SOL     OW 2029   0.372   1.288   3.352
  378SOL    HW1 2030   0.359   1.381   3.318
  378SOL    HW2 2031   0.288   1.236   3.339
  379SOL     OW 2032   1.614   1.292   3.151
  379SOL    HW1 2033   1.674   1.295   3.231
  379SOL    HW2 2034   1.539   1.356   3.164
  380SOL     OW 2035   1.039   1.098   2.558
  380SOL    HW1 2036   0.969   1.051   2.612
  380SOL    HW2 2037   1.098   1.030   2.515
  381SOL     OW 2038   1.014   0.236   2.833
  381SOL    HW1 2039   1.006   0.200   2.740
  381SOL    HW2 2040   1.012   0.160   2.898
  382SOL     OW 2041   0.590   1.487   2.353
  382SOL    HW1 2042   0.632   1.429   2.283
  382SOL    HW2 2043   0.546   1.566   2.309
  383SOL     OW 2044   1.709   0.385   3.243
  383SOL    HW1 2045   1.782   0.454   3.247
  383SOL    HW2 2046   1.737   0.310   3.184
  384SOL     OW 2047   0.255   1.348   2.152
  384SOL    HW1 2048   0.159   1.349   2.125
  384SOL    HW2 2049   0.267   1.401   2.236
  385SOL     OW 2050   0.105   1.013   3.588
  385SOL    HW1 2051   0.028   0.980   3.642
  385SOL    HW2 2052   0.190   0.983   3.630
  386SOL     OW 2053   0.672   0.203   3.351
  386SOL    HW1 2054   0.762   0.187   3.311
  386SOL    HW2 2055   0.680   0.208   3.450
  387SOL     OW 2056   0.075   0.345   1.895
  387SOL    HW1 2057  -0.017   0.317   1.866
  387SOL    HW2 2058   0.106   0.422   1.839
  388SOL     OW 2059   1.440   0.856   3.260
  388SOL    HW1 2060   1.383   0.908   3.197
  388SOL    HW2 2061   1.536   0.868   3.236
  389SOL     OW 2062   0.072   0.166   2.180
  389SOL    HW1 2063   0.055   0.249   2.126
  389SOL    HW2 2064   0.162   0.129   2.158
  390SOL     OW 2065   1.183   1.335   1.981
  390SOL    HW1 2066   1.084   1.324   1.983
  390SOL    HW2 2067   1.217   1.350   2.074
  391SOL     OW 2068   0.613   0.842   3.293
  391SOL    HW1 2069   0.669   0.923   3.276
  391SOL    HW2 2070   0.672   0.762   3.296
  392SOL     OW 2071   1.493   1.767   2.821
  392SOL    HW1 2072   1.526   1.831   2.752
  392SOL    HW2 2073   1.559   1.761   2.896
  393SOL     OW 2074   0.716   0.565   3.570
  393SOL    HW1 2075   0.735   0.630   3.644
  393SOL    HW2 2076   0.776   0.485   3.579
  394SOL     OW 2077   1.450   1.220   3.495
  394SOL    HW1 2078   1.441   1.210   3.594
  394SOL    HW2 2079   1.546   1.213   3.469
  395SOL     OW 2080   0.390   1.741   3.422
  395SOL    HW1 2081   0.299   1.782   3.420
  395SOL    HW2 2082   0.383   1.647   3.454
  396SOL     OW 2083   1.674   0.883   3.116
  396SOL    HW1 2084   1.647   0.794   3.079
  396SOL    HW2 2085   1.675   0.951   3.043
  397SOL     OW 2086   1.225   0.325   2.311
  397SOL    HW1 2087   1.290   0.251   2.300
  397SOL    HW2 2088   1.245   0.375   2.395
  398SOL     OW 2089   0.594   0.745   2.514
  398SOL    HW1 2090   0.644   0.830   2.495
  398SOL    HW2 2091   0.506   0.747   2.466
  399SOL     OW 2092   1.777   0.342   3.504
  399SOL    HW1 2093   1.760   0.373   3.410
  399SOL    HW2 2094   1.693   0.305   3.542
  400SOL     OW 2095   1.730   0.934   3.379
  400SOL    HW1 2096   1.768   1.025   3.394
  400SOL    HW2 2097   1.722   0.917   3.280
  401SOL     OW 2098   0.859   1.374   1.878
  401SOL    HW1 2099   0.813   1.389   1.966
  401SOL    HW2 2100   0.903   1.459   1.848
  402SOL     OW 2101   0.661   1.790   2.815
  402SOL    HW1 2102   0.615   1.878   2.802
  402SOL    HW2 2103   0.760   1.802   2.808
  403SOL     OW 2104   0.859   0.956   2.723
  403SOL    HW1 2105   0.913   0.887   2.771
  403SOL    HW2 2106   0.827   1.025   2.789
  404SOL     OW 2107   1.083   0.984   1.949
  404SOL    HW1 2108   1.060   1.037   1.867
  404SOL    HW2 2109   1.164   0.928   1.930
  405SOL     OW 2110   1.861   1.569   2.713
  405SOL    HW1 2111   1.790   1.557   2.643
  405SOL    HW2 2112   1.862   1.490   2.773
  406SOL     OW 2113   0.221   1.314   3.706
  406SOL    HW1 2114   0.156   1.241   3.685
  406SOL    HW2 2115   0.225   1.328   3.804
  407SOL     OW 2116   0.079   1.240   2.515
  407SOL    HW1 2117   0.078   1.193   2.603
  407SOL    HW2 2118   0.161   1.212   2.464
  408SOL     OW 2119   0.672   1.391   3.486
  408SOL    HW1 2120   0.594   1.341   3.524
  408SOL    HW2 2121   0.669   1.486   3.517
  409SOL     OW 2122   1.824   0.192   3.089
  409SOL    HW1 2123   1.820   0.102   3.133
  409SOL    HW2 2124   1.827   0.181   2.990
  410SOL     OW 2125   0.428   0.424   2.382
  410SOL    HW1 2126   0.458   0.352   2.320
  410SOL    HW2 2127   0.389   0.384   2.465
  411SOL     OW 2128   1.705   1.487   2.966
  411SOL    HW1 2129   1.612   1.462   2.939
  411SOL    HW2 2130   1.731   1.437   3.048
  412SOL     OW 2131   0.317   0.547   3.142
  412SOL    HW1 2132   0.355   0.488   3.214
  412SOL    HW2 2133   0.357   0.521   3.054
  413SOL     OW 2134   0.812   1.586   2.549
  413SOL    HW1 2135   0.844   1.596   2.455
  413SOL    HW2 2136   0.733   1.524   2.551
  414SOL     OW 2137   1.424   0.214   2.974
  414SOL    HW1 2138   1.476   0.149   3.029
  414SOL    HW2 2139   1.375   0.277   3.035
  415SOL     OW 2140   1.001   0.034   3.016
  415SOL    HW1 2141   0.938  -0.038   2.985
  415SOL    HW2 2142   1.094  -0.002   3.016
  416SOL     OW 2143   0.770   1.330   2.163
  416SOL    HW1 2144   0.724   1.243   2.180
  416SOL    HW2 2145   0.861   1.327   2.204
  417SOL     OW 2146   0.618   1.567   3.146
  417SOL    HW1 2147   0.613   1.649   3.203
  417SOL    HW2 2148   0.707   1.564   3.101
  418SOL     OW 2149   1.352   0.052   2.030
  418SOL    HW1 2150   1.387   0.011   1.946
  418SOL    HW2 2151   1.262   0.014   2.050
  419SOL     OW 2152   1.300   0.453   2.553
  419SOL    HW1 2153   1.241   0.533   2.557
  419SOL    HW2 2154   1.315   0.418   2.646
  420SOL     OW 2155   1.593   0.221   2.744
  420SOL    HW1 2156   1.509   0.220   2.798
  420SOL    HW2 2157   1.595   0.304   2.688
  421SOL     OW 2158   0.039   1.077   2.162
  421SOL    HW1 2159   0.138   1.066   2.153
  421SOL    HW2 2160  -0.001   0.991   2.194
  422SOL     OW 2161   0.875   1.646   2.199
  422SOL    HW1 2162   0.798   1.611   2.145
  422SOL    HW2 2163   0.843   1.717   2.261
  423SOL     OW 2164   0.230   0.628   3.837
  423SOL    HW1 2165   0.137   0.626   3.874
  423SOL    HW2 2166   0.231   0.589   3.745
  424SOL     OW 2167   0.225   0.275   4.720
  424SOL    HW1 2168   0.260   0.258   4.812
  424SOL    HW2 2169   0.137   0.230   4.708
  425SOL     OW 2170   0.019   0.368   4.371
  425SOL    HW1 2171  -0.063   0.411   4.410
  425SOL    HW2 2172  -0.009   0.295   4.308
  426SOL     OW 2173   0.569   1.275   4.889
  426SOL    HW1 2174   0.476   1.268   4.852
  426SOL    HW2 2175   0.580   1.364   4.933
  427SOL     OW 2176   1.555   1.511   4.427
  427SOL    HW1 2177   1.498   1.495   4.508
  427SOL    HW2 2178   1.496   1.521   4.347
  428SOL     OW 2179   1.135   0.703   4.441
  428SOL    HW1 2180   1.192   0.781   4.416
  428SOL    HW2 2181   1.075   0.729   4.517
  429SOL     OW 2182   1.755   0.607   3.955
  429SOL    HW1 2183   1.743   0.594   3.856
  429SOL    HW2 2184   1.725   0.526   4.004
  430SOL     OW 2185   0.768   1.144   4.747
  430SOL    HW1 2186   0.690   1.161   4.807
  430SOL    HW2 2187   0.802   1.231   4.711
  431SOL     OW 2188   0.850   0.798   5.547
  431SOL    HW1 2189   0.846   0.874   5.612
  431SOL    HW2 2190   0.872   0.834   5.456
  432SOL     OW 2191   0.685   1.012   4.389
  432SOL    HW1 2192   0.754   0.996   4.459
  432SOL    HW2 2193   0.612   1.069   4.427
  433SOL     OW 2194   0.686   1.161   5.527
  433SOL    HW1 2195   0.746   1.240   5.541
  433SOL    HW2 2196   0.600   1.192   5.486
  434SOL     OW 2197   0.335   1.435   4.785
  434SOL    HW1 2198   0.257   1.404   4.732
  434SOL    HW2 2199   0.393   1.493   4.728
  435SOL     OW 2200   1.460   1.505   5.063
  435SOL    HW1 2201   1.484   1.599   5.089
  435SOL    HW2 2202   1.444   1.451   5.145
  436SOL     OW 2203   0.438   0.392   5.223
  436SOL    HW1 2204   0.520   0.336   5.232
  436SOL    HW2 2205   0.357   0.334   5.227
  437SOL     OW 2206   1.603   0.447   4.461
  437SOL    HW1 2207   1.529   0.493   4.411
  437SOL    HW2 2208   1.654   0.515   4.514
  438SOL     OW 2209   0.231   1.713   4.207
  438SOL    HW1 2210   0.265   1.790   4.261
  438SOL    HW2 2211   0.275   1.713   4.117
  439SOL     OW 2212   1.127   1.341   5.414
  439SOL    HW1 2213   1.174   1.341   5.502
  439SOL    HW2 2214   1.079   1.254   5.403
  440SOL     OW 2215   0.230   1.434   4.262
  440SOL    HW1 2216   0.204   1.530   4.262
  440SOL    HW2 2217   0.159   1.380   4.307
  441SOL     OW 2218   0.240   1.091   4.610
  441SOL    HW1 2219   0.254   1.007   4.662
  441SOL    HW2 2220   0.185   1.155   4.665
  442SOL     OW 2221   0.620   1.786   5.163
  442SOL    HW1 2222   0.528   1.769   5.198
  442SOL    HW2 2223   0.648   1.878   5.189
  443SOL     OW 2224   0.606   0.964   3.847
  443SOL    HW1 2225   0.613   1.048   3.793
  443SOL    HW2 2226   0.652   0.977   3.935
  444SOL     OW 2227   1.594   0.114   5.204
  444SOL    HW1 2228   1.576   0.181   5.132
  444SOL    HW2 2229   1.591   0.160   5.293
  445SOL     OW 2230   0.122   0.643   4.287
  445SOL    HW1 2231   0.077   0.555   4.304
  445SOL    HW2 2232   0.121   0.697   4.371
  446SOL     OW 2233   0.027   1.596   3.841
  446SOL    HW1 2234   0.008   1.500   3.862
  446SOL    HW2 2235  -0.006   1.654   3.916
  447SOL     OW 2236   1.689   0.922   4.336
  447SOL    HW1 2237   1.784   0.893   4.344
  447SOL    HW2 2238   1.681   0.987   4.261
  448SOL     OW 2239   1.641   1.108   4.156
  448SOL    HW1 2240   1.727   1.110   4.104
  448SOL    HW2 2241   1.655   1.155   4.244
  449SOL     OW 2242   0.113   0.737   5.321
  449SOL    HW1 2243   0.201   0.724   5.366
  449SOL    HW2 2244   0.100   0.834   5.299
  450SOL     OW 2245   0.613   1.365   4.450
  450SOL    HW1 2246   0.564   1.278   4.459
  450SOL    HW2 2247   0.590   1.408   4.363
  451SOL     OW 2248   1.293   1.228   5.147
  451SOL    HW1 2249   1.330   1.155   5.089
  451SOL    HW2 2250   1.345   1.233   5.232
  452SOL     OW 2251   0.809   0.004   4.226
  452SOL    HW1 2252   0.849   0.095   4.217
  452SOL    HW2 2253   0.709   0.012   4.232
  453SOL     OW 2254   0.197   0.976   4.988
  453SOL    HW1 2255   0.286   0.931   4.974
  453SOL    HW2 2256   0.124   0.911   4.969
  454SOL     OW 2257   1.525   0.999   3.914
  454SOL    HW1 2258   1.462   0.923   3.927
  454SOL    HW2 2259   1.573   1.017   4.000
  455SOL     OW 2260   1.187   1.792   5.340
  455SOL    HW1 2261   1.211   1.852   5.264
  455SOL    HW2 2262   1.194   1.697   5.310
  456SOL     OW 2263   0.317   0.251   5.525
  456SOL    HW1 2264   0.388   0.322   5.531
  456SOL    HW2 2265   0.229   0.290   5.553
  457SOL     OW 2266   1.466   1.417   4.677
  457SOL    HW1 2267   1.407   1.423   4.757
  457SOL    HW2 2268   1.451   1.329   4.631
  458SOL     OW 2269   1.667   1.714   4.296
  458SOL    HW1 2270   1.626   1.691   4.208
  458SOL    HW2 2271   1.649   1.640   4.361
  459SOL     OW 2272   0.598   0.729   3.994
  459SOL    HW1 2273   0.622   0.798   3.926
  459SOL    HW2 2274   0.520   0.762   4.048
  460SOL     OW 2275   1.281   0.345   4.668
  460SOL    HW1 2276   1.195   0.295   4.655
  460SOL    HW2 2277   1.343   0.291   4.724
  461SOL     OW 2278   1.576   1.662   4.031
  461SOL    HW1 2279   1.665   1.708   4.034
  461SOL    HW2 2280   1.555   1.638   3.936
  462SOL     OW 2281   0.807   0.605   5.189
  462SOL    HW1 2282   0.760   0.602   5.278
  462SOL    HW2 2283   0.756   0.550   5.123
  463SOL     OW 2284   1.394   0.469   5.398
  463SOL    HW1 2285   1.374   0.512   5.486
  463SOL    HW2 2286   1.472   0.407   5.407
  464SOL     OW 2287   0.973   0.890   5.296
  464SOL    HW1 2288   1.019   0.806   5.267
  464SOL    HW2 2289   0.917   0.924   5.221
  465SOL     OW 2290   0.991   0.410   4.966
  465SOL    HW1 2291   0.914   0.444   5.020
  465SOL    HW2 2292   0.957   0.359   4.887
  466SOL     OW 2293   1.041   0.701   4.153
  466SOL    HW1 2294   1.067   0.697   4.249
  466SOL    HW2 2295   0.956   0.650   4.139
  467SOL     OW 2296   0.076   0.811   4.513
  467SOL    HW1 2297   0.175   0.799   4.522
  467SOL    HW2 2298   0.052   0.906   4.534
  468SOL     OW 2299   0.130   1.821   5.295
  468SOL    HW1 2300   0.120   1.806   5.394
  468SOL    HW2 2301   0.044   1.857   5.259
  469SOL     OW 2302   0.865   0.348   3.919
  469SOL    HW1 2303   0.924   0.411   3.870
  469SOL    HW2 2304   0.884   0.254   3.890
  470SOL     OW 2305   1.719   0.585   5.555
  470SOL    HW1 2306   1.693   0.674   5.519
  470SOL    HW2 2307   1.717   0.517   5.482
  471SOL     OW 2308   1.362   1.144   4.269
  471SOL    HW1 2309   1.445   1.115   4.221
  471SOL    HW2 2310   1.313   1.211   4.213
  472SOL     OW 2311   0.550   0.196   4.609
  472SOL    HW1 2312   0.545   0.191   4.709
  472SOL    HW2 2313   0.552   0.292   4.580
  473SOL     OW 2314   1.008   1.456   4.201
  473SOL    HW1 2315   0.962   1.528   4.149
  473SOL    HW2 2316   1.004   1.476   4.299
  474SOL     OW 2317   0.351   1.801   4.577
  474SOL    HW1 2318   0.401   1.715   4.583
  474SOL    HW2 2319   0.416   1.878   4.574
  475SOL     OW 2320   1.795   1.066   4.597
  475SOL    HW1 2321   1.733   1.051   4.521
  475SOL    HW2 2322   1.743   1.077   4.682
  476SOL     OW 2323   1.227   1.550   5.230
  476SOL    HW1 2324   1.233   1.473   5.294
  476SOL    HW2 2325   1.175   1.524   5.150
  477SOL     OW 2326   0.321   0.943   3.966
  477SOL    HW1 2327   0.403   0.982   3.924
  477SOL    HW2 2328   0.294   0.861   3.917
  478SOL     OW 2329   1.458   0.735   4.452
  478SOL    HW1 2330   1.453   0.670   4.527
  478SOL    HW2 2331   1.538   0.794   4.465
  479SOL     OW 2332   0.461   1.266   5.451
  479SOL    HW1 2333   0.411   1.267   5.365
  479SOL    HW2 2334   0.398   1.248   5.527
  480SOL     OW 2335   1.111   1.776   3.961
  480SOL    HW1 2336   1.051   1.714   4.011
  480SOL    HW2 2337   1.142   1.732   3.876
  481SOL     OW 2338   0.202   0.285   5.222
  481SOL    HW1 2339   0.122   0.345   5.209
  481SOL    HW2 2340   0.192   0.236   5.308
  482SOL     OW 2341   1.632   1.377   3.805
  482SOL    HW1 2342   1.600   1.471   3.795
  482SOL    HW2 2343   1.556   1.314   3.793
  483SOL     OW 2344   0.464   1.743   4.047
  483SOL    HW1 2345   0.497   1.782   4.133
  483SOL    HW2 2346   0.540   1.736   3.982
  484SOL     OW 2347   1.400   0.107   4.150
  484SOL    HW1 2348   1.376   0.070   4.060
  484SOL    HW2 2349   1.499   0.123   4.154
  485SOL     OW 2350   0.249   1.785   4.965
  485SOL    HW1 2351   0.306   1.720   5.015
  485SOL    HW2 2352   0.233   1.752   4.872
  486SOL     OW 2353   0.940   1.698   4.628
  486SOL    HW1 2354   1.020   1.641   4.649
  486SOL    HW2 2355   0.891   1.658   4.551
  487SOL     OW 2356   0.382   0.700   4.204
  487SOL    HW1 2357   0.427   0.610   4.201
  487SOL    HW2 2358   0.288   0.689   4.237
  488SOL     OW 2359   1.547   0.222   5.453
  488SOL    HW1 2360   1.542   0.259   5.545
  488SOL    HW2 2361   1.475   0.153   5.441
  489SOL     OW 2362   0.614   0.122   3.841
  489SOL    HW1 2363   0.712   0.100   3.848
  489SOL    HW2 2364   0.583   0.105   3.748
  490SOL     OW 2365   0.781   0.264   5.473
  490SOL    HW1 2366   0.848   0.203   5.516
  490SOL    HW2 2367   0.708   0.283   5.538
  491SOL     OW 2368   0.888   1.514   4.919
  491SOL    HW1 2369   0.865   1.489   4.825
  491SOL    HW2 2370   0.949   1.445   4.958
  492SOL     OW 2371   1.351   0.590   5.157
  492SOL    HW1 2372   1.379   0.547   5.242
  492SOL    HW2 2373   1.376   0.686   5.158
  493SOL     OW 2374   0.803   1.402   4.648
  493SOL    HW1 2375   0.893   1.416   4.606
  493SOL    HW2 2376   0.732   1.404   4.577
  494SOL     OW 2377   0.922   0.503   4.623
  494SOL    HW1 2378   0.897   0.494   4.527
  494SOL    HW2 2379   0.970   0.421   4.654
  495SOL     OW 2380   0.539   0.064   4.236
  495SOL    HW1 2381   0.458   0.065   4.294
  495SOL    HW2 2382   0.542   0.147   4.181
  496SOL     OW 2383   1.434   1.188   3.765
  496SOL    HW1 2384   1.466   1.112   3.822
  496SOL    HW2 2385   1.342   1.215   3.795
  497SOL     OW 2386   0.297   0.035   3.895
  497SOL    HW1 2387   0.346   0.119   3.874
  497SOL    HW2 2388   0.359  -0.030   3.940
  498SOL     OW 2389   0.935   0.236   4.204
  498SOL    HW1 2390   0.887   0.277   4.126
  498SOL    HW2 2391   1.034   0.234   4.185
  499SOL     OW 2392   1.076   0.683   5.188
  499SOL    HW1 2393   0.996   0.622   5.191
  499SOL    HW2 2394   1.157   0.630   5.164
  500SOL     OW 2395   1.227   1.570   4.517
  500SOL    HW1 2396   1.248   1.644   4.452
  500SOL    HW2 2397   1.295   1.570   4.590
  501SOL     OW 2398   0.459   1.152   4.465
  501SOL    HW1 2399   0.388   1.125   4.530
  501SOL    HW2 2400   0.433   1.124   4.372
  502SOL     OW 2401   1.271   1.797   4.315
  502SOL    HW1 2402   1.315   1.861   4.251
  502SOL    HW2 2403   1.221   1.849   4.385
  503SOL     OW 2404   1.032   0.549   3.740
  503SOL    HW1 2405   0.991   0.631   3.701
  503SOL    HW2 2406   1.096   0.575   3.813
  504SOL     OW 2407   0.078   0.556   5.110
  504SOL    HW1 2408   0.170   0.555   5.069
  504SOL    HW2 2409   0.072   0.630   5.177
  505SOL     OW 2410   0.561   0.222   4.871
  505SOL    HW1 2411   0.599   0.138   4.908
  505SOL    HW2 2412   0.473   0.241   4.915
  506SOL     OW 2413   0.866   0.454   4.366
  506SOL    HW1 2414   0.834   0.526   4.304
  506SOL    HW2 2415   0.890   0.373   4.313
  507SOL     OW 2416   1.017   0.039   4.477
  507SOL    HW1 2417   0.945   0.044   4.408
  507SOL    HW2 2418   0.993  -0.030   4.546
  508SOL     OW 2419   1.429   1.173   4.591
  508SOL    HW1 2420   1.374   1.089   4.584
  508SOL    HW2 2421   1.455   1.202   4.499
  509SOL     OW 2422   1.466   0.590   4.716
  509SOL    HW1 2423   1.436   0.495   4.723
  509SOL    HW2 2424   1.539   0.606   4.782
  510SOL     OW 2425   1.857   0.833   4.101
  510SOL    HW1 2426   1.899   0.769   4.165
  510SOL    HW2 2427   1.819   0.782   4.023
  511SOL     OW 2428   0.488   1.385   3.898
  511SOL    HW1 2429   0.401   1.370   3.945
  511SOL    HW2 2430   0.471   1.411   3.803
  512SOL     OW 2431   1.664   1.280   4.381
  512SOL    HW1 2432   1.763   1.288   4.395
  512SOL    HW2 2433   1.619   1.364   4.412
  513SOL     OW 2434   1.390   0.575   3.802
  513SOL    HW1 2435   1.336   0.554   3.883
  513SOL    HW2 2436   1.481   0.534   3.811
  514SOL     OW 2437   0.527   0.256   4.052
  514SOL    HW1 2438   0.554   0.197   3.977
  514SOL    HW2 2439   0.527   0.351   4.021
  515SOL     OW 2440   1.754   1.223   5.312
  515SOL    HW1 2441   1.845   1.184   5.299
  515SOL    HW2 2442   1.762   1.319   5.336
  516SOL     OW 2443   1.064   1.347   5.064
  516SOL    HW1 2444   0.984   1.324   5.119
  516SOL    HW2 2445   1.147   1.321   5.113
  517SOL     OW 2446   1.592   1.629   5.349
  517SOL    HW1 2447   1.619   1.663   5.259
  517SOL    HW2 2448   1.671   1.591   5.395
  518SOL     OW 2449   1.111   1.195   4.824
  518SOL    HW1 2450   1.071   1.239   4.905
  518SOL    HW2 2451   1.070   1.232   4.741
  519SOL     OW 2452   1.638   1.099   4.803
  519SOL    HW1 2453   1.643   1.180   4.862
  519SOL    HW2 2454   1.552   1.101   4.752
  520SOL     OW 2455   0.915   0.089   5.126
  520SOL    HW1 2456   0.940   0.069   5.031
  520SOL    HW2 2457   0.987   0.145   5.168
  521SOL     OW 2458   0.980   1.116   5.443
  521SOL    HW1 2459   0.881   1.122   5.453
  521SOL    HW2 2460   1.003   1.036   5.387
  522SOL     OW 2461   0.705   1.050   4.092
  522SOL    HW1 2462   0.691   1.057   4.191
  522SOL    HW2 2463   0.789   0.999   4.074
  523SOL     OW 2464   0.410   0.813   4.975
  523SOL    HW1 2465   0.496   0.825   5.025
  523SOL    HW2 2466   0.368   0.726   5.002
  524SOL     OW 2467   1.274   0.386   4.986
  524SOL    HW1 2468   1.295   0.460   5.050
  524SOL    HW2 2469   1.185   0.403   4.943
  525SOL     OW 2470   0.064   1.564   5.055
  525SOL    HW1 2471   0.018   1.646   5.021
  525SOL    HW2 2472   0.162   1.583   5.064
  526SOL     OW 2473   0.367   1.100   4.225
  526SOL    HW1 2474   0.360   1.183   4.169
  526SOL    HW2 2475   0.371   1.020   4.165
  527SOL     OW 2476   0.566   0.537   4.589
  527SOL    HW1 2477   0.578   0.603   4.515
  527SOL    HW2 2478   0.612   0.571   4.672
  528SOL     OW 2479   1.252   1.348   4.112
  528SOL    HW1 2480   1.302   1.425   4.152
  528SOL    HW2 2481   1.157   1.350   4.144
  529SOL     OW 2482   1.272   1.445   4.866
  529SOL    HW1 2483   1.319   1.458   4.953
  529SOL    HW2 2484   1.206   1.371   4.875
  530SOL     OW 2485   1.582   0.639   4.196
  530SOL    HW1 2486   1.551   0.700   4.269
  530SOL    HW2 2487   1.632   0.691   4.127
  531SOL     OW 2488   0.354   1.510   5.053
  531SOL    HW1 2489   0.333   1.466   4.966
  531SOL    HW2 2490   0.451   1.536   5.056
  532SOL     OW 2491   0.402   0.751   5.322
  532SOL    HW1 2492   0.470   0.806   5.275
  532SOL    HW2 2493   0.442   0.663   5.349
  533SOL     OW 2494   1.587   0.779   5.394
  533SOL    HW1 2495   1.495   0.817   5.389
  533SOL    HW2 2496   1.647   0.826   5.329
  534SOL     OW 2497   1.013   0.105   5.494
  534SOL    HW1 2498   1.019   0.190   5.442
  534SOL    HW2 2499   1.045   0.029   5.437
  535SOL     OW 2500   0.504   0.050   5.464
  535SOL    HW1 2501   0.462  -0.007   5.394
  535SOL    HW2 2502   0.438   0.119   5.496
  536SOL     OW 2503   0.573   0.870   4.753
  536SOL    HW1 2504   0.617   0.959   4.744
  536SOL    HW2 2505   0.510   0.870   4.830
  537SOL     OW 2506   1.360   0.862   4.769
  537SOL    HW1 2507   1.285   0.862   4.703
  537SOL    HW2 2508   1.397   0.770   4.778
  538SOL     OW 2509   1.209   0.525   3.999
  538SOL    HW1 2510   1.222   0.441   4.053
  538SOL    HW2 2511   1.180   0.599   4.059
  539SOL     OW 2512   0.307   0.213   4.955
  539SOL    HW1 2513   0.284   0.250   5.045
  539SOL    HW2 2514   0.277   0.118   4.949
  540SOL     OW 2515   0.037   1.310   5.006
  540SOL    HW1 2516   0.090   1.261   5.074
  540SOL    HW2 2517   0.059   1.408   5.011
  541SOL     OW 2518   0.732   0.634   4.788
  541SOL    HW1 2519   0.791   0.608   4.712
  541SOL    HW2 2520   0.704   0.730   4.777
  542SOL     OW 2521   1.728   0.935   5.578
  542SOL    HW1 2522   1.682   0.928   5.489
  542SOL    HW2 2523   1.666   0.979   5.644
  543SOL     OW 2524   0.307   0.063   4.342
  543SOL    HW1 2525   0.296   0.157   4.375
  543SOL    HW2 2526   0.302   0.000   4.419
  544SOL     OW 2527   1.622   0.367   4.098
  544SOL    HW1 2528   1.624   0.291   4.162
  544SOL    HW2 2529   1.574   0.444   4.138
  545SOL     OW 2530   1.023   0.766   4.690
  545SOL    HW1 2531   1.038   0.787   4.786
  545SOL    HW2 2532   0.993   0.671   4.681
  546SOL     OW 2533   0.980   1.573   5.424
  546SOL    HW1 2534   0.960   1.617   5.336
  546SOL    HW2 2535   1.019   1.482   5.408
  547SOL     OW 2536   1.859   1.518   5.329
  547SOL    HW1 2537   1.873   1.545   5.234
  547SOL    HW2 2538   1.942   1.540   5.382
  548SOL     OW 2539   0.350   0.898   5.528
  548SOL    HW1 2540   0.426   0.942   5.576
  548SOL    HW2 2541   0.385   0.851   5.446
  549SOL     OW 2542   1.540   0.274   3.849
  549SOL    HW1 2543   1.479   0.199   3.872
  549SOL    HW2 2544   1.562   0.326   3.932
  550SOL     OW 2545   1.303   0.838   3.766
  550SOL    HW1 2546   1.337   0.745   3.781
  550SOL    HW2 2547   1.321   0.865   3.671
  551SOL     OW 2548   1.068   1.333   4.573
  551SOL    HW1 2549   1.075   1.249   4.518
  551SOL    HW2 2550   1.130   1.402   4.537
  552SOL     OW 2551   0.319   0.810   4.673
  552SOL    HW1 2552   0.412   0.846   4.678
  552SOL    HW2 2553   0.313   0.725   4.725
  553SOL     OW 2554   0.339   0.509   4.730
  553SOL    HW1 2555   0.287   0.426   4.713
  553SOL    HW2 2556   0.416   0.514   4.666
  554SOL     OW 2557   1.138   0.380   5.402
  554SOL    HW1 2558   1.093   0.443   5.466
  554SOL    HW2 2559   1.231   0.411   5.385
  555SOL     OW 2560   1.160   0.207   5.201
  555SOL    HW1 2561   1.160   0.271   5.278
  555SOL    HW2 2562   1.188   0.255   5.118
  556SOL     OW 2563   0.008   1.326   3.924
  556SOL    HW1 2564  -0.085   1.347   3.893
  556SOL    HW2 2565   0.018   1.227   3.937
  557SOL     OW 2566   0.088   1.801   4.651
  557SOL    HW1 2567   0.046   1.715   4.624
  557SOL    HW2 2568   0.182   1.804   4.617
  558SOL     OW 2569   0.504   1.568   4.634
  558SOL    HW1 2570   0.570   1.642   4.643
  558SOL    HW2 2571   0.548   1.489   4.592
  559SOL     OW 2572   1.002   0.796   4.962
  559SOL    HW1 2573   1.043   0.764   5.048
  559SOL    HW2 2574   0.906   0.769   4.959
  560SOL     OW 2575   0.040   0.544   4.838
  560SOL    HW1 2576   0.125   0.511   4.797
  560SOL    HW2 2577   0.053   0.559   4.936
  561SOL     OW 2578   0.189   0.520   5.446
  561SOL    HW1 2579   0.248   0.480   5.376
  561SOL    HW2 2580   0.131   0.591   5.405
  562SOL     OW 2581   1.369   0.950   5.384
  562SOL    HW1 2582   1.408   1.039   5.404
  562SOL    HW2 2583   1.379   0.930   5.287
  563SOL     OW 2584   0.815   0.572   4.049
  563SOL    HW1 2585   0.822   0.483   4.003
  563SOL    HW2 2586   0.721   0.606   4.041
  564SOL     OW 2587   1.657   0.604   4.930
  564SOL    HW1 2588   1.619   0.535   4.992
  564SOL    HW2 2589   1.739   0.568   4.886
  565SOL     OW 2590   0.252   1.564   5.468
  565SOL    HW1 2591   0.222   1.621   5.544
  565SOL    HW2 2592   0.245   1.467   5.494
  566SOL     OW 2593   0.671   0.464   4.993
  566SOL    HW1 2594   0.637   0.375   4.963
  566SOL    HW2 2595   0.697   0.518   4.913
  567SOL     OW 2596   0.930   1.678   5.189
  567SOL    HW1 2597   0.906   1.660   5.094
  567SOL    HW2 2598   0.960   1.772   5.199
  568SOL     OW 2599   0.473   0.500   3.915
  568SOL    HW1 2600   0.534   0.580   3.919
  568SOL    HW2 2601   0.378   0.531   3.922
  569SOL     OW 2602   0.159   1.137   5.190
  569SOL    HW1 2603   0.181   1.076   5.266
  569SOL    HW2 2604   0.169   1.088   5.104
  570SOL     OW 2605   1.347   1.059   4.958
  570SOL    HW1 2606   1.371   0.996   4.884
  570SOL    HW2 2607   1.257   1.099   4.940
  571SOL     OW 2608   1.302   0.855   4.033
  571SOL    HW1 2609   1.216   0.824   4.075
  571SOL    HW2 2610   1.298   0.841   3.934
  572SOL     OW 2611   1.252   1.731   4.852
  572SOL    HW1 2612   1.336   1.736   4.798
  572SOL    HW2 2613   1.229   1.635   4.870
  573SOL     OW 2614   0.083   1.258   4.746
  573SOL    HW1 2615   0.078   1.257   4.846
  573SOL    HW2 2616   0.000   1.217   4.708
  574SOL     OW 2617   0.688   1.662   5.440
  574SOL    HW1 2618   0.632   1.743   5.449
  574SOL    HW2 2619   0.740   1.666   5.354
  575SOL     OW 2620   1.726   0.135   4.247
  575SOL    HW1 2621   1.799   0.118   4.180
  575SOL    HW2 2622   1.695   0.048   4.285
  576SOL     OW 2623   1.388   1.573   4.201
  576SOL    HW1 2624   1.455   1.585   4.127
  576SOL    HW2 2625   1.348   1.662   4.224
  577SOL     OW 2626   0.130   1.794   5.575
  577SOL    HW1 2627   0.089   1.720   5.628
  577SOL    HW2 2628   0.194   1.845   5.633
  578SOL     OW 2629   1.280   0.927   4.396
  578SOL    HW1 2630   1.340   0.846   4.398
  578SOL    HW2 2631   1.320   0.996   4.336
  579SOL     OW 2632   0.830   1.273   5.146
  579SOL    HW1 2633   0.825   1.306   5.241
  579SOL    HW2 2634   0.744   1.292   5.100
  580SOL     OW 2635   0.672   1.616   3.878
  580SOL    HW1 2636   0.681   1.626   3.779
  580SOL    HW2 2637   0.632   1.527   3.899
  581SOL     OW 2638   1.650   1.720   5.118
  581SOL    HW1 2639   1.703   1.730   5.034
  581SOL    HW2 2640   1.623   1.810   5.152
  582SOL     OW 2641   1.841   0.175   4.687
  582SOL    HW1 2642   1.880   0.090   4.651
  582SOL    HW2 2643   1.743   0.177   4.668
  583SOL     OW 2644   0.263   0.326   4.444
  583SOL    HW1 2645   0.184   0.377   4.410
  583SOL    HW2 2646   0.254   0.311   4.542
  584SOL     OW 2647   1.194   1.612   3.755
  584SOL    HW1 2648   1.200   1.519   3.792
  584SOL    HW2 2649   1.135   1.612   3.675
  585SOL     OW 2650   0.822   1.002   5.096
  585SOL    HW1 2651   0.862   1.001   5.004
  585SOL    HW2 2652   0.832   1.094   5.136
  586SOL     OW 2653   0.916   0.910   4.015
  586SOL    HW1 2654   0.979   0.948   3.947
  586SOL    HW2 2655   0.956   0.827   4.054
  587SOL     OW 2656   1.504   1.607   3.768
  587SOL    HW1 2657   1.412   1.644   3.775
  587SOL    HW2 2658   1.542   1.627   3.678
  588SOL     OW 2659   0.372   1.288   5.214
  588SOL    HW1 2660   0.359   1.381   5.180
  588SOL    HW2 2661   0.288   1.236   5.201
  589SOL     OW 2662   1.614   1.292   5.013
  589SOL    HW1 2663   1.674   1.295   5.093
  589SOL    HW2 2664   1.539   1.356   5.026
  590SOL     OW 2665   1.039   1.098   4.420
  590SOL    HW1 2666   0.969   1.051   4.474
  590SOL    HW2 2667   1.098   1.030   4.377
  591SOL     OW 2668   1.014   0.236   4.695
  591SOL    HW1 2669   1.006   0.200   4.602
  591SOL    HW2 2670   1.012   0.160   4.760
  592SOL     OW 2671   0.590   1.487   4.215
  592SOL    HW1 2672   0.632   1.429   4.145
  592SOL    HW2 2673   0.546   1.566   4.171
  593SOL     OW 2674   1.709   0.385   5.105
  593SOL    HW1 2675   1.782   0.454   5.109
  593SOL    HW2 2676   1.737   0.310   5.046
  594SOL     OW 2677   0.255   1.348   4.014
  594SOL    HW1 2678   0.159   1.349   3.987
  594SOL    HW2 2679   0.267   1.401   4.098
  595SOL     OW 2680   0.105   1.013   5.450
  595SOL    HW1 2681   0.028   0.980   5.504
  595SOL    HW2 2682   0.190   0.983   5.492
  596SOL     OW 2683   0.672   0.203   5.213
  596SOL    HW1 2684   0.762   0.187   5.173
  596SOL    HW2 2685   0.680   0.208   5.312
  597SOL     OW 2686   0.075   0.345   3.757
  597SOL    HW1 2687  -0.017   0.317   3.728
  597SOL    HW2 2688   0.106   0.422   3.701
  598SOL     OW 2689   1.440   0.856   5.122
  598SOL    HW1 2690   1.383   0.908   5.059
  598SOL    HW2 2691   1.536   0.868   5.098
  599SOL     OW 2692   0.072   0.166   4.042
  599SOL    HW1 2693   0.055   0.249   3.988
  599SOL    HW2 2694   0.162   0.129   4.020
  600SOL     OW 2695   1.183   1.335   3.843
  600SOL    HW1 2696   1.084   1.324   3.845
  600SOL    HW2 2697   1.217   1.350   3.936
  601SOL     OW 2698   0.613   0.842   5.155
  601SOL    HW1 2699   0.669   0.923   5.138
  601SOL    HW2 2700   0.672   0.762   5.158
  602SOL     OW 2701   1.493   1.767   4.683
  602SOL    HW1 2702   1.526   1.831   4.614
  602SOL    HW2 2703   1.559   1.761   4.758
  603SOL     OW 2704   0.716   0.565   5.432
  603SOL    HW1 2705   0.735   0.630   5.506
  603SOL    HW2 2706   0.776   0.485   5.441
  604SOL     OW 2707   1.450   1.220   5.357
  604SOL    HW1 2708   1.441   1.210   5.456
  604SOL    HW2 2709   1.546   1.213   5.331
  605SOL     OW 2710   0.390   1.741   5.284
  605SOL    HW1 2711   0.299   1.782   5.282
  605SOL    HW2 2712   0.383   1.647   5.316
  606SOL     OW 2713   1.674   0.883   4.978
  606SOL    HW1 2714   1.647   0.794   4.941
  606SOL    HW2 2715   1.675   0.951   4.905
  607SOL     OW 2716   1.225   0.325   4.173
  607SOL    HW1 2717   1.290   0.251   4.162
  607SOL    HW2 2718   1.245   0.375   4.257
  608SOL     OW 2719   0.594   0.745   4.376
  608SOL    HW1 2720   0.644   0.830   4.357
  608SOL    HW2 2721   0.506   0.747   4.328
  609SOL     OW 2722   1.777   0.342   5.366
  609SOL    HW1 2723   1.760   0.373   5.272
  609SOL    HW2 2724   1.693   0.305   5.404
  610SOL     OW 2725   1.730   0.934   5.241
  610SOL    HW1 2726   1.768   1.025   5.256
  610SOL    HW2 2727   1.722   0.917   5.142
  611SOL     OW 2728   0.859   1.374   3.740
  611SOL    HW1 2729   0.813   1.389   3.828
  611SOL    HW2 2730   0.903   1.459   3.710
  612SOL     OW 2731   0.661   1.790   4.677
  612SOL    HW1 2732   0.615   1.878   4.664
  612SOL    HW2 2733   0.760   1.802   4.670
  613SOL     OW 2734   0.859   0.956   4.585
  613SOL    HW1 2735   0.913   0.887   4.633
  613SOL    HW2 2736   0.827   1.025   4.651
  614SOL     OW 2737   1.083   0.984   3.811
  614SOL    HW1 2738   1.060   1.037   3.729
  614SOL    HW2 2739   1.164   0.928   3.792
  615SOL     OW 2740   1.861   1.569   4.575
  615SOL    HW1 2741   1.790   1.557   4.505
  615SOL    HW2 2742   1.862   1.490   4.635
  616SOL     OW 2743   0.221   1.314   5.568
  616SOL    HW1 2744   0.156   1.241   5.547
  616SOL    HW2 2745   0.225   1.328   5.666
  617SOL     OW 2746   0.079   1.240   4.377
  617SOL    HW1 2747   0.078   1.193   4.465
  617SOL    HW2 2748   0.161   1.212   4.326
  618SOL     OW 2749   0.672   1.391   5.348
  618SOL    HW1 2750   0.594   1.341   5.386
  618SOL    HW2 2751   0.669   1.486   5.379
  619SOL     OW 2752   1.824   0.192   4.951
  619SOL    HW1 2753   1.820   0.102   4.995
  619SOL    HW2 2754   1.827   0.181   4.852
  620SOL     OW 2755   0.428   0.424   4.244
  620SOL    HW1 2756   0.458   0.352   4.182
  620SOL    HW2 2757   0.389   0.384   4.327
  621SOL     OW 2758   1.705   1.487   4.828
  621SOL    HW1 2759   1.612   1.462   4.801
  621SOL    HW2 2760   1.731   1.437   4.910
  622SOL     OW 2761   0.317   0.547   5.004
  622SOL    HW1 2762   0.355   0.488   5.076
  622SOL    HW2 2763   0.357   0.521   4.916
  623SOL     OW 2764   0.812   1.586   4.411
  623SOL    HW1 2765   0.844   1.596   4.317
  623SOL    HW2 2766   0.733   1.524   4.413
  624SOL     OW 2767   1.424   0.214   4.836
  624SOL    HW1 2768   1.476   0.149   4.891
  624SOL    HW2 2769   1.375   0.277   4.897
  625SOL     OW 2770   1.001   0.034   4.878
  625SOL    HW1 2771   0.938  -0.038   4.847
  625SOL    HW2 2772   1.094  -0.002   4.878
  626SOL     OW 2773   0.770   1.330   4.025
  626SOL    HW1 2774   0.724   1.243   4.042
  626SOL    HW2 2775   0.861   1.327   4.066
  627SOL     OW 2776   0.618   1.567   5.008
  627SOL    HW1 2777   0.613   1.649   5.065
  627SOL    HW2 2778   0.707   1.564   4.963
  628SOL     OW 2779   1.352   0.052   3.892
  628SOL    HW1 2780   1.387   0.011   3.808
  628SOL    HW2 2781   1.262   0.014   3.912
  629SOL     OW 2782   1.300   0.453   4.415
  629SOL    HW1 2783   1.241   0.533   4.419
  629SOL    HW2 2784   1.315   0.418   4.508
  630SOL     OW 2785   1.593   0.221   4.606
  630SOL    HW1 2786   1.509   0.220   4.660
  630SOL    HW2 2787   1.595   0.304   4.550
  631SOL     OW 2788   0.039   1.077   4.024
  631SOL    HW1 2789   0.138   1.066   4.015
  631SOL    HW2 2790  -0.001   0.991   4.056
  632SOL     OW 2791   0.875   1.646   4.061
  632SOL    HW1 2792   0.798   1.611   4.007
  632SOL    HW2 2793   0.843   1.717   4.123
  633SOL     OW 2794   0.230   0.628   5.699
  633SOL    HW1 2795   0.137   0.626   5.736
  633SOL    HW2 2796   0.231   0.589   5.607
  634SOL     OW 2797   0.225   0.275   6.582
  634SOL    HW1 2798   0.260   0.258   6.674
  634SOL    HW2 2799   0.137   0.230   6.570
  635SOL     OW 2800   0.019   0.368   6.233
  635SOL    HW1 2801  -0.063   0.411   6.272
  635SOL    HW2 2802  -0.009   0.295   6.170
  636SOL     OW 2803   0.569   1.275   6.751
  636SOL    HW1 2804   0.476   1.268   6.714
  636SOL    HW2 2805   0.580   1.364   6.795
  637SOL     OW 2806   1.135   0.703   6.303
  637SOL    HW1 2807   1.192   0.781   6.278
  637SOL    HW2 2808   1.075   0.729   6.379
  638SOL     OW 2809   1.755   0.607   5.817
  638SOL    HW1 2810   1.743   0.594   5.718
  638SOL    HW2 2811   1.725   0.526   5.866
  639SOL     OW 2812   0.768   1.144   6.609
  639SOL    HW1 2813   0.690   1.161   6.669
  639SOL    HW2 2814   0.802   1.231   6.573
  640SOL     OW 2815   0.850   0.798   7.409
  640SOL    HW1 2816   0.846   0.874   7.474
  640SOL    HW2 2817   0.872   0.834   7.318
  641SOL     OW 2818   0.685   1.012   6.251
  641SOL    HW1 2819   0.754   0.996   6.321
  641SOL    HW2 2820   0.612   1.069   6.289
  642SOL     OW 2821   0.686   1.161   7.389
  642SOL    HW1 2822   0.746   1.240   7.403
  642SOL    HW2 2823   0.600   1.192   7.348
  643SOL     OW 2824   0.335   1.435   6.647
  643SOL    HW1 2825   0.257   1.404   6.594
  643SOL    HW2 2826   0.393   1.493   6.590
  644SOL     OW 2827   0.438   0.392   7.085
  644SOL    HW1 2828   0.520   0.336   7.094
  644SOL    HW2 2829   0.357   0.334   7.089
  645SOL     OW 2830   1.603   0.447   6.323
  645SOL    HW1 2831   1.529   0.493   6.273
  645SOL    HW2 2832   1.654   0.515   6.376
  646SOL     OW 2833   0.231   1.713   6.069
  646SOL    HW1 2834   0.265   1.790   6.123
  646SOL    HW2 2835   0.275   1.713   5.979
  647SOL     OW 2836   1.127   1.341   7.276
  647SOL    HW1 2837   1.174   1.341   7.364
  647SOL    HW2 2838   1.079   1.254   7.265
  648SOL     OW 2839   0.230   1.434   6.124
  648SOL    HW1 2840   0.204   1.530   6.124
  648SOL    HW2 2841   0.159   1.380   6.169
  649SOL     OW 2842   0.240   1.091   6.472
  649SOL    HW1 2843   0.254   1.007   6.524
  649SOL    HW2 2844   0.185   1.155   6.527
  650SOL     OW 2845   0.620   1.786   7.025
  650SOL    HW1 2846   0.528   1.769   7.060
  650SOL    HW2 2847   0.648   1.878   7.051
  651SOL     OW 2848   0.606   0.964   5.709
  651SOL    HW1 2849   0.613   1.048   5.655
  651SOL    HW2 2850   0.652   0.977   5.797
  652SOL     OW 2851   1.594   0.114   7.066
  652SOL    HW1 2852   1.576   0.181   6.994
  652SOL    HW2 2853   1.591   0.160   7.155
  653SOL     OW 2854   0.122   0.643   6.149
  653SOL    HW1 2855   0.077   0.555   6.166
  653SOL    HW2 2856   0.121   0.697   6.233
  654SOL     OW 2857   0.027   1.596   5.703
  654SOL    HW1 2858   0.008   1.500   5.724
  654SOL    HW2 2859  -0.006   1.654   5.778
  655SOL     OW 2860   1.689   0.922   6.198
  655SOL    HW1 2861   1.784   0.893   6.206
  655SOL    HW2 2862   1.681   0.987   6.123
  656SOL     OW 2863   1.641   1.108   6.018
  656SOL    HW1 2864   1.727   1.110   5.966
  656SOL    HW2 2865   1.655   1.155   6.106
  657SOL     OW 2866   0.113   0.737   7.183
  657SOL    HW1 2867   0.201   0.724   7.228
  657SOL    HW2 2868   0.100   0.834   7.161
  658SOL     OW 2869   0.613   1.365   6.312
  658SOL    HW1 2870   0.564   1.278   6.321
  658SOL    HW2 2871   0.590   1.408   6.225
  659SOL     OW 2872   1.293   1.228   7.009
  659SOL    HW1 2873   1.330   1.155   6.951
  659SOL    HW2 2874   1.345   1.233   7.094
  660SOL     OW 2875   0.809   0.004   6.088
  660SOL    HW1 2876   0.849   0.095   6.079
  660SOL    HW2 2877   0.709   0.012   6.094
  661SOL     OW 2878   0.197   0.976   6.850
  661SOL    HW1 2879   0.286   0.931   6.836
  661SOL    HW2 2880   0.124   0.911   6.831
  662SOL     OW 2881   1.525   0.999   5.776
  662SOL    HW1 2882   1.462   0.923   5.789
  662SOL    HW2 2883   1.573   1.017   5.862
  663SOL     OW 2884   0.317   0.251   7.387
  663SOL    HW1 2885   0.388   0.322   7.393
  663SOL    HW2 2886   0.229   0.290   7.415
  664SOL     OW 2887   0.598   0.729   5.856
  664SOL    HW1 2888   0.622   0.798   5.788
  664SOL    HW2 2889   0.520   0.762   5.910
  665SOL     OW 2890   1.281   0.345   6.530
  665SOL    HW1 2891   1.195   0.295   6.517
  665SOL    HW2 2892   1.343   0.291   6.586
  666SOL     OW 2893   0.807   0.605   7.051
  666SOL    HW1 2894   0.760   0.602   7.140
  666SOL    HW2 2895   0.756   0.550   6.985
  667SOL     OW 2896   1.394   0.469   7.260
  667SOL    HW1 2897   1.374   0.512   7.348
  667SOL    HW2 2898   1.472   0.407   7.269
  668SOL     OW 2899   0.973   0.890   7.158
  668SOL    HW1 2900   1.019   0.806   7.129
  668SOL    HW2 2901   0.917   0.924   7.083
  669SOL     OW 2902   0.991   0.410   6.828
  669SOL    HW1 2903   0.914   0.444   6.882
  669SOL    HW2 2904   0.957   0.359   6.749
  670SOL     OW 2905   1.041   0.701   6.015
  670SOL    HW1 2906   1.067   0.697   6.111
  670SOL    HW2 2907   0.956   0.650   6.001
  671SOL     OW 2908   0.076   0.811   6.375
  671SOL    HW1 2909   0.175   0.799   6.384
  671SOL    HW2 2910   0.052   0.906   6.396
  672SOL     OW 2911   0.130   1.821   7.157
  672SOL    HW1 2912   0.120   1.806   7.256
  672SOL    HW2 2913   0.044   1.857   7.121
  673SOL     OW 2914   0.865   0.348   5.781
  673SOL    HW1 2915   0.924   0.411   5.732
  673SOL    HW2 2916   0.884   0.254   5.752
  674SOL     OW 2917   1.719   0.585   7.417
  674SOL    HW1 2918   1.693   0.674   7.381
  674SOL    HW2 2919   1.717   0.517   7.344
  675SOL     OW 2920   1.362   1.144   6.131
  675SOL    HW1 2921   1.445   1.115   6.083
  675SOL    HW2 2922   1.313   1.211   6.075
  676SOL     OW 2923   0.550   0.196   6.471
  676SOL    HW1 2924   0.545   0.191   6.571
  676SOL    HW2 2925   0.552   0.292   6.442
  677SOL     OW 2926   1.008   1.456   6.063
  677SOL    HW1 2927   0.962   1.528   6.011
  677SOL    HW2 2928   1.004   1.476   6.161
  678SOL     OW 2929   0.351   1.801   6.439
  678SOL    HW1 2930   0.401   1.715   6.445
  678SOL    HW2 2931   0.416   1.878   6.436
  679SOL     OW 2932   1.795   1.066   6.459
  679SOL    HW1 2933   1.733   1.051   6.383
  679SOL    HW2 2934   1.743   1.077   6.544
  680SOL     OW 2935   0.321   0.943   5.828
  680SOL    HW1 2936   0.403   0.982   5.786
  680SOL    HW2 2937   0.294   0.861   5.779
  681SOL     OW 2938   1.458   0.735   6.314
  681SOL    HW1 2939   1.453   0.670   6.389
  681SOL    HW2 2940   1.538   0.794   6.327
  682SOL     OW 2941   0.461   1.266   7.313
  682SOL    HW1 2942   0.411   1.267   7.227
  682SOL    HW2 2943   0.398   1.248   7.389
  683SOL     OW 2944   1.111   1.776   5.823
  683SOL    HW1 2945   1.051   1.714   5.873
  683SOL    HW2 2946   1.142   1.732   5.738
  684SOL     OW 2947   0.202   0.285   7.084
  684SOL    HW1 2948   0.122   0.345   7.071
  684SOL    HW2 2949   0.192   0.236   7.170
  685SOL     OW 2950   1.632   1.377   5.667
  685SOL    HW1 2951   1.600   1.471   5.657
  685SOL    HW2 2952   1.556   1.314   5.655
  686SOL     OW 2953   0.464   1.743   5.909
  686SOL    HW1 2954   0.497   1.782   5.995
  686SOL    HW2 2955   0.540   1.736   5.844
  687SOL     OW 2956   1.400   0.107   6.012
  687SOL    HW1 2957   1.376   0.070   5.922
  687SOL    HW2 2958   1.499   0.123   6.016
  688SOL     OW 2959   0.249   1.785   6.827
  688SOL    HW1 2960   0.306   1.720   6.877
  688SOL    HW2 2961   0.233   1.752   6.734
  689SOL     OW 2962   0.940   1.698   6.490
  689SOL    HW1 2963   1.020   1.641   6.511
  689SOL    HW2 2964   0.891   1.658   6.413
  690SOL     OW 2965   0.382   0.700   6.066
  690SOL    HW1 2966   0.427   0.610   6.063
  690SOL    HW2 2967   0.288   0.689   6.099
  691SOL     OW 2968   1.547   0.222   7.315
  691SOL    HW1 2969   1.542   0.259   7.407
  691SOL    HW2 2970   1.475   0.153   7.303
  692SOL     OW 2971   0.614   0.122   5.703
  692SOL    HW1 2972   0.712   0.100   5.710
  692SOL    HW2 2973   0.583   0.105   5.610
  693SOL     OW 2974   0.781   0.264   7.335
  693SOL    HW1 2975   0.848   0.203   7.378
  693SOL    HW2 2976   0.708   0.283   7.400
  694SOL     OW 2977   0.888   1.514   6.781
  694SOL    HW1 2978   0.865   1.489   6.687
  694SOL    HW2 2979   0.949   1.445   6.820
  695SOL     OW 2980   1.351   0.590   7.019
  695SOL    HW1 2981   1.379   0.547   7.104
  695SOL    HW2 2982   1.376   0.686   7.020
  696SOL     OW 2983   0.803   1.402   6.510
  696SOL    HW1 2984   0.893   1.416   6.468
  696SOL    HW2 2985   0.732   1.404   6.439
  697SOL     OW 2986   0.922   0.503   6.485
  697SOL    HW1 2987   0.897   0.494   6.389
  697SOL    HW2 2988   0.970   0.421   6.516
  698SOL     OW 2989   0.539   0.064   6.098
  698SOL    HW1 2990   0.458   0.065   6.156
  698SOL    HW2 2991   0.542   0.147   6.043
  699SOL     OW 2992   1.434   1.188   5.627
  699SOL    HW1 2993   1.466   1.112   5.684
  699SOL    HW2 2994   1.342   1.215   5.657
  700SOL     OW 2995   0.297   0.035   5.757
  700SOL    HW1 2996   0.346   0.119   5.736
  700SOL    HW2 2997   0.359  -0.030   5.802
  701SOL     OW 2998   0.935   0.236   6.066
  701SOL    HW1 2999   0.887   0.277   5.988
  701SOL    HW2 3000   1.034   0.234   6.047
  702SOL     OW 3001   1.076   0.683   7.050
  702SOL    HW1 3002   0.996   0.622   7.053
  702SOL    HW2 3003   1.157   0.630   7.026
  703SOL     OW 3004   0.459   1.152   6.327
  703SOL    HW1 3005   0.388   1.125   6.392
  703SOL    HW2 3006   0.433   1.124   6.234
  704SOL     OW 3007   1.032   0.549   5.602
  704SOL    HW1 3008   0.991   0.631   5.563
  704SOL    HW2 3009   1.096   0.575   5.675
  705SOL     OW 3010   0.078   0.556   6.972
  705SOL    HW1 3011   0.170   0.555   6.931
  705SOL    HW2 3012   0.072   0.630   7.039
  706SOL     OW 3013   0.561   0.222   6.733
  706SOL    HW1 3014   0.599   0.138   6.770
  706SOL    HW2 3015   0.473   0.241   6.777
  707SOL     OW 3016   0.866   0.454   6.228
  707SOL    HW1 3017   0.834   0.526   6.166
  707SOL    HW2 3018   0.890   0.373   6.175
  708SOL     OW 3019   1.017   0.039   6.339
  708SOL    HW1 3020   0.945   0.044   6.270
  708SOL    HW2 3021   0.993  -0.030   6.408
  709SOL     OW 3022   1.466   0.590   6.578
  709SOL    HW1 3023   1.436   0.495   6.585
  709SOL    HW2 3024   1.539   0.606   6.644
  710SOL     OW 3025   1.857   0.833   5.963
  710SOL    HW1 3026   1.899   0.769   6.027
  710SOL    HW2 3027   1.819   0.782   5.885
  711SOL     OW 3028   0.488   1.385   5.760
  711SOL    HW1 3029   0.401   1.370   5.807
  711SOL    HW2 3030   0.471   1.411   5.665
  712SOL     OW 3031   1.390   0.575   5.664
  712SOL    HW1 3032   1.336   0.554   5.745
  712SOL    HW2 3033   1.481   0.534   5.673
  713SOL     OW 3034   0.527   0.256   5.914
  713SOL    HW1 3035   0.554   0.197   5.839
  713SOL    HW2 3036   0.527   0.351   5.883
  714SOL     OW 3037   1.064   1.347   6.926
  714SOL    HW1 3038   0.984   1.324   6.981
  714SOL    HW2 3039   1.147   1.321   6.975
  715SOL     OW 3040   1.111   1.195   6.686
  715SOL    HW1 3041   1.071   1.239   6.767
  715SOL    HW2 3042   1.070   1.232   6.603
  716SOL     OW 3043   0.915   0.089   6.988
  716SOL    HW1 3044   0.940   0.069   6.893
  716SOL    HW2 3045   0.987   0.145   7.030
  717SOL     OW 3046   0.980   1.116   7.305
  717SOL    HW1 3047   0.881   1.122   7.315
  717SOL    HW2 3048   1.003   1.036   7.249
  718SOL     OW 3049   0.705   1.050   5.954
  718SOL    HW1 3050   0.691   1.057   6.053
  718SOL    HW2 3051   0.789   0.999   5.936
  719SOL     OW 3052   0.410   0.813   6.837
  719SOL    HW1 3053   0.496   0.825   6.887
  719SOL    HW2 3054   0.368   0.726   6.864
  720SOL     OW 3055   1.274   0.386   6.848
  720SOL    HW1 3056   1.295   0.460   6.912
  720SOL    HW2 3057   1.185   0.403   6.805
  721SOL     OW 3058   0.064   1.564   6.917
  721SOL    HW1 3059   0.018   1.646   6.883
  721SOL    HW2 3060   0.162   1.583   6.926
  722SOL     OW 3061   0.367   1.100   6.087
  722SOL    HW1 3062   0.360   1.183   6.031
  722SOL    HW2 3063   0.371   1.020   6.027
  723SOL     OW 3064   0.566   0.537   6.451
  723SOL    HW1 3065   0.578   0.603   6.377
  723SOL    HW2 3066   0.612   0.571   6.534
  724SOL     OW 3067   1.252   1.348   5.974
  724SOL    HW1 3068   1.302   1.425   6.014
  724SOL    HW2 3069   1.157   1.350   6.006
  725SOL     OW 3070   1.272   1.445   6.728
  725SOL    HW1 3071   1.319   1.458   6.815
  725SOL    HW2 3072   1.206   1.371   6.737
  726SOL     OW 3073   1.582   0.639   6.058
  726SOL    HW1 3074   1.551   0.700   6.131
  726SOL    HW2 3075   1.632   0.691   5.989
  727SOL     OW 3076   0.354   1.510   6.915
  727SOL    HW1 3077   0.333   1.466   6.828
  727SOL    HW2 3078   0.451   1.536   6.918
  728SOL     OW 3079   0.402   0.751   7.184
  728SOL    HW1 3080   0.470   0.806   7.137
  728SOL    HW2 3081   0.442   0.663   7.211
  729SOL     OW 3082   1.587   0.779   7.256
  729SOL    HW1 3083   1.495   0.817   7.251
  729SOL    HW2 3084   1.647   0.826   7.191
  730SOL     OW 3085   1.013   0.105   7.356
  730SOL    HW1 3086   1.019   0.190   7.304
  730SOL    HW2 3087   1.045   0.029   7.299
  731SOL     OW 3088   0.504   0.050   7.326
  731SOL    HW1 3089   0.462  -0.007   7.256
  731SOL    HW2 3090   0.438   0.119   7.358
  732SOL     OW 3091   0.573   0.870   6.615
  732SOL    HW1 3092   0.617   0.959   6.606
  732SOL    HW2 3093   0.510   0.870   6.692
  733SOL     OW 3094   1.360   0.862   6.631
  733SOL    HW1 3095   1.285   0.862   6.565
  733SOL    HW2 3096   1.397   0.770   6.640
  734SOL     OW 3097   1.209   0.525   5.861
  734SOL    HW1 3098   1.222   0.441   5.915
  734SOL    HW2 3099   1.180   0.599   5.921
  735SOL     OW 3100   0.307   0.213   6.817
  735SOL    HW1 3101   0.284   0.250   6.907
  735SOL    HW2 3102   0.277   0.118   6.811
  736SOL     OW 3103   0.037   1.310   6.868
  736SOL    HW1 3104   0.090   1.261   6.936
  736SOL    HW2 3105   0.059   1.408   6.873
  737SOL     OW 3106   0.732   0.634   6.650
  737SOL    HW1 3107   0.791   0.608   6.574
  737SOL    HW2 3108   0.704   0.730   6.639
  738SOL     OW 3109   1.728   0.935   7.440
  738SOL    HW1 3110   1.682   0.928   7.351
  738SOL    HW2 3111   1.666   0.979   7.506
  739SOL     OW 3112   0.307   0.063   6.204
  739SOL    HW1 3113   0.296   0.157   6.237
  739SOL    HW2 3114   0.302   0.000   6.281
  740SOL     OW 3115   1.622   0.367   5.960
  740SOL    HW1 3116   1.624   0.291   6.024
  740SOL    HW2 3117   1.574   0.444   6.000
  741SOL     OW 3118   1.023   0.766   6.552
  741SOL    HW1 3119   1.038   0.787   6.648
  741SOL    HW2 3120   0.993   0.671   6.543
  742SOL     OW 3121   0.980   1.573   7.286
  742SOL    HW1 3122   0.960   1.617   7.198
  742SOL    HW2 3123   1.019   1.482   7.270
  743SOL     OW 3124   0.350   0.898   7.390
  743SOL    HW1 3125   0.426   0.942   7.438
  743SOL    HW2 3126   0.385   0.851   7.308
  744SOL     OW 3127   1.540   0.274   5.711
  744SOL    HW1 3128   1.479   0.199   5.734
  744SOL    HW2 3129   1.562   0.326   5.794
  745SOL     OW 3130   1.303   0.838   5.628
  745SOL    HW1 3131   1.337   0.745   5.643
  745SOL    HW2 3132   1.321   0.865   5.533
  746SOL     OW 3133   1.068   1.333   6.435
  746SOL    HW1 3134   1.075   1.249   6.380
  746SOL    HW2 3135   1.130   1.402   6.399
  747SOL     OW 3136   0.319   0.810   6.535
  747SOL    HW1 3137   0.412   0.846   6.540
  747SOL    HW2 3138   0.313   0.725   6.587
  748SOL     OW 3139   0.339   0.509   6.592
  748SOL    HW1 3140   0.287   0.426   6.575
  748SOL    HW2 3141   0.416   0.514   6.528
  749SOL     OW 3142   1.138   0.380   7.264
  749SOL    HW1 3143   1.093   0.443   7.328
  749SOL    HW2 3144   1.231   0.411   7.247
  750SOL     OW 3145   1.160   0.207   7.063
  750SOL    HW1 3146   1.160   0.271   7.140
  750SOL    HW2 3147   1.188   0.255   6.980
  751SOL     OW 3148   0.008   1.326   5.786
  751SOL    HW1 3149  -0.085   1.347   5.755
  751SOL    HW2 3150   0.018   1.227   5.799
  752SOL     OW 3151   0.088   1.801   6.513
  752SOL    HW1 3152   0.046   1.715   6.486
  752SOL    HW2 3153   0.182   1.804   6.479
  753SOL     OW 3154   0.504   1.568   6.496
  753SOL    HW1 3155   0.570   1.642   6.505
  753SOL    HW2 3156   0.548   1.489   6.454
  754SOL     OW 3157   1.002   0.796   6.824
  754SOL    HW1 3158   1.043   0.764   6.910
  754SOL    HW2 3159   0.906   0.769   6.821
  755SOL     OW 3160   0.040   0.544   6.700
  755SOL    HW1 3161   0.125   0.511   6.659
  755SOL    HW2 3162   0.053   0.559   6.798
  756SOL     OW 3163   0.189   0.520   7.308
  756SOL    HW1 3164   0.248   0.480   7.238
  756SOL    HW2 3165   0.131   0.591   7.267
  757SOL     OW 3166   1.369   0.950   7.246
  757SOL    HW1 3167   1.408   1.039   7.266
  757SOL    HW2 3168   1.379   0.930   7.149
  758SOL     OW 3169   0.815   0.572   5.911
  758SOL    HW1 3170   0.822   0.483   5.865
  758SOL    HW2 3171   0.721   0.606   5.903
  759SOL     OW 3172   1.657   0.604   6.792
  759SOL    HW1 3173   1.619   0.535   6.854
  759SOL    HW2 3174   1.739   0.568   6.748
  760SOL     OW 3175   0.252   1.564   7.330
  760SOL    HW1 3176   0.222   1.621   7.406
  760SOL    HW2 3177   0.245   1.467   7.356
  761SOL     OW 3178   0.671   0.464   6.855
  761SOL    HW1 3179   0.637   0.375   6.825
  761SOL    HW2 3180   0.697   0.518   6.775
  762SOL     OW 3181   0.930   1.678   7.051
  762SOL    HW1 3182   0.906   1.660   6.956
  762SOL    HW2 3183   0.960   1.772   7.061
  763SOL     OW 3184   0.473   0.500   5.777
  763SOL    HW1 3185   0.534   0.580   5.781
  763SOL    HW2 3186   0.378   0.531   5.784
  764SOL     OW 3187   0.159   1.137   7.052
  764SOL    HW1 3188   0.181   1.076   7.128
  764SOL    HW2 3189   0.169   1.088   6.966
  765SOL     OW 3190   1.347   1.059   6.820
  765SOL    HW1 3191   1.371   0.996   6.746
  765SOL    HW2 3192   1.257   1.099   6.802
  766SOL     OW 3193   1.302   0.855   5.895
  766SOL    HW1 3194   1.216   0.824   5.937
  766SOL    HW2 3195   1.298   0.841   5.796
  767SOL     OW 3196   0.083   1.258   6.608
  767SOL    HW1 3197   0.078   1.257   6.708
  767SOL    HW2 3198   0.000   1.217   6.570
  768SOL     OW 3199   0.688   1.662   7.302
  768SOL    HW1 3200   0.632   1.743   7.311
  768SOL    HW2 3201   0.740   1.666   7.216
  769SOL     OW 3202   1.726   0.135   6.109
  769SOL    HW1 3203   1.799   0.118   6.042
  769SOL    HW2 3204   1.695   0.048   6.147
  770SOL     OW 3205   0.130   1.794   7.437
  770SOL    HW1 3206   0.089   1.720   7.490
  770SOL    HW2 3207   0.194   1.845   7.495
  771SOL     OW 3208   1.280   0.927   6.258
  771SOL    HW1 3209   1.340   0.846   6.260
  771SOL    HW2 3210   1.320   0.996   6.198
  772SOL     OW 3211   0.830   1.273   7.008
  772SOL    HW1 3212   0.825   1.306   7.103
  772SOL    HW2 3213   0.744   1.292   6.962
  773SOL     OW 3214   0.672   1.616   5.740
  773SOL    HW1 3215   0.681   1.626   5.641
  773SOL    HW2 3216   0.632   1.527   5.761
  774SOL     OW 3217   1.841   0.175   6.549
  774SOL    HW1 3218   1.880   0.090   6.513
  774SOL    HW2 3219   1.743   0.177   6.530
  775SOL     OW 3220   0.263   0.326   6.306
  775SOL    HW1 3221   0.184   0.377   6.272
  775SOL    HW2 3222   0.254   0.311   6.404
  776SOL     OW 3223   1.194   1.612   5.617
  776SOL    HW1 3224   1.200   1.519   5.654
  776SOL    HW2 3225   1.135   1.612   5.537
  777SOL     OW 3226   0.822   1.002   6.958
  777SOL    HW1 3227   0.862   1.001   6.866
  777SOL    HW2 3228   0.832   1.094   6.998
  778SOL     OW 3229   0.916   0.910   5.877
  778SOL    HW1 3230   0.979   0.948   5.809
  778SOL    HW2 3231   0.956   0.827   5.916
  779SOL     OW 3232   1.504   1.607   5.630
  779SOL    HW1 3233   1.412   1.644   5.637
  779SOL    HW2 3234   1.542   1.627   5.540
  780SOL     OW 3235   0.372   1.288   7.076
  780SOL    HW1 3236   0.359   1.381   7.042
  780SOL    HW2 3237   0.288   1.236   7.063
  781SOL     OW 3238   1.614   1.292   6.875
  781SOL    HW1 3239   1.674   1.295   6.955
  781SOL    HW2 3240   1.539   1.356   6.888
  782SOL     OW 3241   1.039   1.098   6.282
  782SOL    HW1 3242   0.969   1.051   6.336
  782SOL    HW2 3243   1.098   1.030   6.239
  783SOL     OW 3244   1.014   0.236   6.557
  783SOL    HW1 3245   1.006   0.200   6.464
  783SOL    HW2 3246   1.012   0.160   6.622
  784SOL     OW 3247   0.590   1.487   6.077
  784SOL    HW1 3248   0.632   1.429   6.007
  784SOL    HW2 3249   0.546   1.566   6.033
  785SOL     OW 3250   1.709   0.385   6.967
  785SOL    HW1 3251   1.782   0.454   6.971
  785SOL    HW2 3252   1.737   0.310   6.908
  786SOL     OW 3253   0.255   1.348   5.876
  786SOL    HW1 3254   0.159   1.349   5.849
  786SOL    HW2 3255   0.267   1.401   5.960
  787SOL     OW 3256   0.105   1.013   7.312
  787SOL    HW1 3257   0.028   0.980   7.366
  787SOL    HW2 3258   0.190   0.983   7.354
  788SOL     OW 3259   0.672   0.203   7.075
  788SOL    HW1 3260   0.762   0.187   7.035
  788SOL    HW2 3261   0.680   0.208   7.174
  789SOL     OW 3262   0.075   0.345   5.619
  789SOL    HW1 3263  -0.017   0.317   5.590
  789SOL    HW2 3264   0.106   0.422   5.563
  790SOL     OW 3265   1.440   0.856   6.984
  790SOL    HW1 3266   1.383   0.908   6.921
  790SOL    HW2 3267   1.536   0.868   6.960
  791SOL     OW 3268   0.072   0.166   5.904
  791SOL    HW1 3269   0.055   0.249   5.850
  791SOL    HW2 3270   0.162   0.129   5.882
  792SOL     OW 3271   1.183   1.335   5.705
  792SOL    HW1 3272   1.084   1.324   5.707
  792SOL    HW2 3273   1.217   1.350   5.798
  793SOL     OW 3274   0.613   0.842   7.017
  793SOL    HW1 3275   0.669   0.923   7.000
  793SOL    HW2 3276   0.672   0.762   7.020
  794SOL     OW 3277   0.716   0.565   7.294
  794SOL    HW1 3278   0.735   0.630   7.368
  794SOL    HW2 3279   0.776   0.485   7.303
  795SOL     OW 3280   1.450   1.220   7.219
  795SOL    HW1 3281   1.441   1.210   7.318
  795SOL    HW2 3282   1.546   1.213   7.193
  796SOL     OW 3283   0.390   1.741   7.146
  796SOL    HW1 3284   0.299   1.782   7.144
  796SOL    HW2 3285   0.383   1.647   7.178
  797SOL     OW 3286   1.674   0.883   6.840
  797SOL    HW1 3287   1.647   0.794   6.803
  797SOL    HW2 3288   1.675   0.951   6.767
  798SOL     OW 3289   1.225   0.325   6.035
  798SOL    HW1 3290   1.290   0.251   6.024
  798SOL    HW2 3291   1.245   0.375   6.119
  799SOL     OW 3292   0.594   0.745   6.238
  799SOL    HW1 3293   0.644   0.830   6.219
  799SOL    HW2 3294   0.506   0.747   6.190
  800SOL     OW 3295   1.777   0.342   7.228
  800SOL    HW1 3296   1.760   0.373   7.134
  800SOL    HW2 3297   1.693   0.305   7.266
  801SOL     OW 3298   1.730   0.934   7.103
  801SOL    HW1 3299   1.768   1.025   7.118
  801SOL    HW2 3300   1.722   0.917   7.004
  802SOL     OW 3301   0.859   1.374   5.602
  802SOL    HW1 3302   0.813   1.389   5.690
  802SOL    HW2 3303   0.903   1.459   5.572
  803SOL     OW 3304   0.661   1.790   6.539
  803SOL    HW1 3305   0.615   1.878   6.526
  803SOL    HW2 3306   0.760   1.802   6.532
  804SOL     OW 3307   0.859   0.956   6.447
  804SOL    HW1 3308   0.913   0.887   6.495
  804SOL    HW2 3309   0.827   1.025   6.513
  805SOL     OW 3310   1.083   0.984   5.673
  805SOL    HW1 3311   1.060   1.037   5.591
  805SOL    HW2 3312   1.164   0.928   5.654
  806SOL     OW 3313   0.221   1.314   7.430
  806SOL    HW1 3314   0.156   1.241   7.409
  806SOL    HW2 3315   0.225   1.328   7.528
  807SOL     OW 3316   0.079   1.240   6.239
  807SOL    HW1 3317   0.078   1.193   6.327
  807SOL    HW2 3318   0.161   1.212   6.188
  808SOL     OW 3319   0.672   1.391   7.210
  808SOL    HW1 3320   0.594   1.341   7.248
  808SOL    HW2 3321   0.669   1.486   7.241
  809SOL     OW 3322   1.824   0.192   6.813
  809SOL    HW1 3323   1.820   0.102   6.857
  809SOL    HW2 3324   1.827   0.181   6.714
  810SOL     OW 3325   0.428   0.424   6.106
  810SOL    HW1 3326   0.458   0.352   6.044
  810SOL    HW2 3327   0.389   0.384   6.189
  811SOL     OW 3328   0.317   0.547   6.866
  811SOL    HW1 3329   0.355   0.488   6.938
  811SOL    HW2 3330   0.357   0.521   6.778
  812SOL     OW 3331   0.812   1.586   6.273
  812SOL    HW1 3332   0.844   1.596   6.179
  812SOL    HW2 3333   0.733   1.524   6.275
  813SOL     OW 3334   1.424   0.214   6.698
  813SOL    HW1 3335   1.476   0.149   6.753
  813SOL    HW2 3336   1.375   0.277   6.759
  814SOL     OW 3337   1.001   0.034   6.740
  814SOL    HW1 3338   0.938  -0.038   6.709
  814SOL    HW2 3339   1.094  -0.002   6.740
  815SOL     OW 3340   0.770   1.330   5.887
  815SOL    HW1 3341   0.724   1.243   5.904
  815SOL    HW2 3342   0.861   1.327   5.928
  816SOL     OW 3343   0.618   1.567   6.870
  816SOL    HW1 3344   0.613   1.649   6.927
  816SOL    HW2 3345   0.707   1.564   6.825
  817SOL     OW 3346   1.352   0.052   5.754
  817SOL    HW1 3347   1.387   0.011   5.670
  817SOL    HW2 3348   1.262   0.014   5.774
  818SOL     OW 3349   1.300   0.453   6.277
  818SOL    HW1 3350   1.241   0.533   6.281
  818SOL    HW2 3351   1.315   0.418   6.370
  819SOL     OW 3352   1.593   0.221   6.468
  819SOL    HW1 3353   1.509   0.220   6.522
  819SOL    HW2 3354   1.595   0.304   6.412
  820SOL     OW 3355   0.039   1.077   5.886
  820SOL    HW1 3356   0.138   1.066   5.877
  820SOL    HW2 3357  -0.001   0.991   5.918
  821SOL     OW 3358   0.875   1.646   5.923
  821SOL    HW1 3359   0.798   1.611   5.869
  821SOL    HW2 3360   0.843   1.717   5.985
  822SOL     OW 3361   0.230   0.628   7.561
  822SOL    HW1 3362   0.137   0.626   7.598
  822SOL    HW2 3363   0.231   0.589   7.469
  823SOL     OW 3364   0.225   0.275   8.444
  823SOL    HW1 3365   0.260   0.258   8.536
  823SOL    HW2 3366   0.137   0.230   8.432
  824SOL     OW 3367   0.019   0.368   8.095
  824SOL    HW1 3368  -0.063   0.411   8.134
  824SOL    HW2 3369  -0.009   0.295   8.032
  825SOL     OW 3370   0.569   1.275   8.613
  825SOL    HW1 3371   0.476   1.268   8.576
  825SOL    HW2 3372   0.580   1.364   8.657
  826SOL     OW 3373   1.555   1.511   8.151
  826SOL    HW1 3374   1.498   1.495   8.232
  826SOL    HW2 3375   1.496   1.521   8.071
  827SOL     OW 3376   1.135   0.703   8.165
  827SOL    HW1 3377   1.192   0.781   8.140
  827SOL    HW2 3378   1.075   0.729   8.241
  828SOL     OW 3379   1.755   0.607   7.679
  828SOL    HW1 3380   1.743   0.594   7.580
  828SOL    HW2 3381   1.725   0.526   7.728
  829SOL     OW 3382   0.768   1.144   8.471
  829SOL    HW1 3383   0.690   1.161   8.531
  829SOL    HW2 3384   0.802   1.231   8.435
  830SOL     OW 3385   0.850   0.798   9.271
  830SOL    HW1 3386   0.846   0.874   9.336
  830SOL    HW2 3387   0.872   0.834   9.180
  831SOL     OW 3388   0.685   1.012   8.113
  831SOL    HW1 3389   0.754   0.996   8.183
  831SOL    HW2 3390   0.612   1.069   8.151
  832SOL     OW 3391   0.686   1.161   9.251
  832SOL    HW1 3392   0.746   1.240   9.265
  832SOL    HW2 3393   0.600   1.192   9.210
  833SOL     OW 3394   0.335   1.435   8.509
  833SOL    HW1 3395   0.257   1.404   8.456
  833SOL    HW2 3396   0.393   1.493   8.452
  834SOL     OW 3397   1.460   1.505   8.787
  834SOL    HW1 3398   1.484   1.599   8.813
  834SOL    HW2 3399   1.444   1.451   8.869
  835SOL     OW 3400   0.438   0.392   8.947
  835SOL    HW1 3401   0.520   0.336   8.956
  835SOL    HW2 3402   0.357   0.334   8.951
  836SOL     OW 3403   1.603   0.447   8.185
  836SOL    HW1 3404   1.529   0.493   8.135
  836SOL    HW2 3405   1.654   0.515   8.238
  837SOL     OW 3406   0.231   1.713   7.931
  837SOL    HW1 3407   0.265   1.790   7.985
  837SOL    HW2 3408   0.275   1.713   7.841
  838SOL     OW 3409   1.127   1.341   9.138
  838SOL    HW1 3410   1.174   1.341   9.226
  838SOL    HW2 3411   1.079   1.254   9.127
  839SOL     OW 3412   0.230   1.434   7.986
  839SOL    HW1 3413   0.204   1.530   7.986
  839SOL    HW2 3414   0.159   1.380   8.031
  840SOL     OW 3415   0.240   1.091   8.334
  840SOL    HW1 3416   0.254   1.007   8.386
  840SOL    HW2 3417   0.185   1.155   8.389
  841SOL     OW 3418   0.620   1.786   8.887
  841SOL    HW1 3419   0.528   1.769   8.922
  841SOL    HW2 3420   0.648   1.878   8.913
  842SOL     OW 3421   0.606   0.964   7.571
  842SOL    HW1 3422   0.613   1.048   7.517
  842SOL    HW2 3423   0.652   0.977   7.659
  843SOL     OW 3424   1.594   0.114   8.928
  843SOL    HW1 3425   1.576   0.181   8.856
  843SOL    HW2 3426   1.591   0.160   9.017
  844SOL     OW 3427   0.122   0.643   8.011
  844SOL    HW1 3428   0.077   0.555   8.028
  844SOL    HW2 3429   0.121   0.697   8.095
  845SOL     OW 3430   0.027   1.596   7.565
  845SOL    HW1 3431   0.008   1.500   7.586
  845SOL    HW2 3432  -0.006   1.654   7.640
  846SOL     OW 3433   1.689   0.922   8.060
  846SOL    HW1 3434   1.784   0.893   8.068
  846SOL    HW2 3435   1.681   0.987   7.985
  847SOL     OW 3436   0.113   0.737   9.045
  847SOL    HW1 3437   0.201   0.724   9.090
  847SOL    HW2 3438   0.100   0.834   9.023
  848SOL     OW 3439   0.613   1.365   8.174
  848SOL    HW1 3440   0.564   1.278   8.183
  848SOL    HW2 3441   0.590   1.408   8.087
  849SOL     OW 3442   1.293   1.228   8.871
  849SOL    HW1 3443   1.330   1.155   8.813
  849SOL    HW2 3444   1.345   1.233   8.956
  850SOL     OW 3445   0.809   0.004   7.950
  850SOL    HW1 3446   0.849   0.095   7.941
  850SOL    HW2 3447   0.709   0.012   7.956
  851SOL     OW 3448   0.197   0.976   8.712
  851SOL    HW1 3449   0.286   0.931   8.698
  851SOL    HW2 3450   0.124   0.911   8.693
  852SOL     OW 3451   1.525   0.999   7.638
  852SOL    HW1 3452   1.462   0.923   7.651
  852SOL    HW2 3453   1.573   1.017   7.724
  853SOL     OW 3454   1.187   1.792   9.064
  853SOL    HW1 3455   1.211   1.852   8.988
  853SOL    HW2 3456   1.194   1.697   9.034
  854SOL     OW 3457   0.317   0.251   9.249
  854SOL    HW1 3458   0.388   0.322   9.255
  854SOL    HW2 3459   0.229   0.290   9.277
  855SOL     OW 3460   1.466   1.417   8.401
  855SOL    HW1 3461   1.407   1.423   8.481
  855SOL    HW2 3462   1.451   1.329   8.355
  856SOL     OW 3463   1.667   1.714   8.020
  856SOL    HW1 3464   1.626   1.691   7.932
  856SOL    HW2 3465   1.649   1.640   8.085
  857SOL     OW 3466   0.598   0.729   7.718
  857SOL    HW1 3467   0.622   0.798   7.650
  857SOL    HW2 3468   0.520   0.762   7.772
  858SOL     OW 3469   1.281   0.345   8.392
  858SOL    HW1 3470   1.195   0.295   8.379
  858SOL    HW2 3471   1.343   0.291   8.448
  859SOL     OW 3472   0.807   0.605   8.913
  859SOL    HW1 3473   0.760   0.602   9.002
  859SOL    HW2 3474   0.756   0.550   8.847
  860SOL     OW 3475   1.394   0.469   9.122
  860SOL    HW1 3476   1.374   0.512   9.210
  860SOL    HW2 3477   1.472   0.407   9.131
  861SOL     OW 3478   0.973   0.890   9.020
  861SOL    HW1 3479   1.019   0.806   8.991
  861SOL    HW2 3480   0.917   0.924   8.945
  862SOL     OW 3481   0.991   0.410   8.690
  862SOL    HW1 3482   0.914   0.444   8.744
  862SOL    HW2 3483   0.957   0.359   8.611
  863SOL     OW 3484   1.041   0.701   7.877
  863SOL    HW1 3485   1.067   0.697   7.973
  863SOL    HW2 3486   0.956   0.650   7.863
  864SOL     OW 3487   0.076   0.811   8.237
  864SOL    HW1 3488   0.175   0.799   8.246
  864SOL    HW2 3489   0.052   0.906   8.258
  865SOL     OW 3490   0.130   1.821   9.019
  865SOL    HW1 3491   0.120   1.806   9.118
  865SOL    HW2 3492   0.044   1.857   8.983
  866SOL     OW 3493   0.865   0.348   7.643
  866SOL    HW1 3494   0.924   0.411   7.594
  866SOL    HW2 3495   0.884   0.254   7.614
  867SOL     OW 3496   1.719   0.585   9.279
  867SOL    HW1 3497   1.693   0.674   9.243
  867SOL    HW2 3498   1.717   0.517   9.206
  868SOL     OW 3499   1.362   1.144   7.993
  868SOL    HW1 3500   1.445   1.115   7.945
  868SOL    HW2 3501   1.313   1.211   7.937
  869SOL     OW 3502   0.550   0.196   8.333
  869SOL    HW1 3503   0.545   0.191   8.433
  869SOL    HW2 3504   0.552   0.292   8.304
  870SOL     OW 3505   1.008   1.456   7.925
  870SOL    HW1 3506   0.962   1.528   7.873
  870SOL    HW2 3507   1.004   1.476   8.023
  871SOL     OW 3508   0.351   1.801   8.301
  871SOL    HW1 3509   0.401   1.715   8.307
  871SOL    HW2 3510   0.416   1.878   8.298
  872SOL     OW 3511   1.795   1.066   8.321
  872SOL    HW1 3512   1.733   1.051   8.245
  872SOL    HW2 3513   1.743   1.077   8.406
  873SOL     OW 3514   1.227   1.550   8.954
  873SOL    HW1 3515   1.233   1.473   9.018
  873SOL    HW2 3516   1.175   1.524   8.874
  874SOL     OW 3517   0.321   0.943   7.690
  874SOL    HW1 3518   0.403   0.982   7.648
  874SOL    HW2 3519   0.294   0.861   7.641
  875SOL     OW 3520   1.458   0.735   8.176
  875SOL    HW1 3521   1.453   0.670   8.251
  875SOL    HW2 3522   1.538   0.794   8.189
  876SOL     OW 3523   0.461   1.266   9.175
  876SOL    HW1 3524   0.411   1.267   9.089
  876SOL    HW2 3525   0.398   1.248   9.251
  877SOL     OW 3526   1.111   1.776   7.685
  877SOL    HW1 3527   1.051   1.714   7.735
  877SOL    HW2 3528   1.142   1.732   7.600
  878SOL     OW 3529   0.202   0.285   8.946
  878SOL    HW1 3530   0.122   0.345   8.933
  878SOL    HW2 3531   0.192   0.236   9.032
  879SOL     OW 3532   0.464   1.743   7.771
  879SOL    HW1 3533   0.497   1.782   7.857
  879SOL    HW2 3534   0.540   1.736   7.706
  880SOL     OW 3535   1.400   0.107   7.874
  880SOL    HW1 3536   1.376   0.070   7.784
  880SOL    HW2 3537   1.499   0.123   7.878
  881SOL     OW 3538   0.249   1.785   8.689
  881SOL    HW1 3539   0.306   1.720   8.739
  881SOL    HW2 3540   0.233   1.752   8.596
  882SOL     OW 3541   0.940   1.698   8.352
  882SOL    HW1 3542   1.020   1.641   8.373
  882SOL    HW2 3543   0.891   1.658   8.275
  883SOL     OW 3544   0.382   0.700   7.928
  883SOL    HW1 3545   0.427   0.610   7.925
  883SOL    HW2 3546   0.288   0.689   7.961
  884SOL     OW 3547   1.547   0.222   9.177
  884SOL    HW1 3548   1.542   0.259   9.269
  884SOL    HW2 3549   1.475   0.153   9.165
  885SOL     OW 3550   0.614   0.122   7.565
  885SOL    HW1 3551   0.712   0.100   7.572
  885SOL    HW2 3552   0.583   0.105   7.472
  886SOL     OW 3553   0.781   0.264   9.197
  886SOL    HW1 3554   0.848   0.203   9.240
  886SOL    HW2 3555   0.708   0.283   9.262
  887SOL     OW 3556   0.888   1.514   8.643
  887SOL    HW1 3557   0.865   1.489   8.549
  887SOL    HW2 3558   0.949   1.445   8.682
  888SOL     OW 3559   1.351   0.590   8.881
  888SOL    HW1 3560   1.379   0.547   8.966
  888SOL    HW2 3561   1.376   0.686   8.882
  889SOL     OW 3562   0.803   1.402   8.372
  889SOL    HW1 3563   0.893   1.416   8.330
  889SOL    HW2 3564   0.732   1.404   8.301
  890SOL     OW 3565   0.922   0.503   8.347
  890SOL    HW1 3566   0.897   0.494   8.251
  890SOL    HW2 3567   0.970   0.421   8.378
  891SOL     OW 3568   0.539   0.064   7.960
  891SOL    HW1 3569   0.458   0.065   8.018
  891SOL    HW2 3570   0.542   0.147   7.905
  892SOL     OW 3571   1.434   1.188   7.489
  892SOL    HW1 3572   1.466   1.112   7.546
  892SOL    HW2 3573   1.342   1.215   7.519
  893SOL     OW 3574   0.297   0.035   7.619
  893SOL    HW1 3575   0.346   0.119   7.598
  893SOL    HW2 3576   0.359  -0.030   7.664
  894SOL     OW 3577   0.935   0.236   7.928
  894SOL    HW1 3578   0.887   0.277   7.850
  894SOL    HW2 3579   1.034   0.234   7.909
  895SOL     OW 3580   1.076   0.683   8.912
  895SOL    HW1 3581   0.996   0.622   8.915
  895SOL    HW2 3582   1.157   0.630   8.888
  896SOL     OW 3583   1.227   1.570   8.241
  896SOL    HW1 3584   1.248   1.644   8.176
  896SOL    HW2 3585   1.295   1.570   8.314
  897SOL     OW 3586   0.459   1.152   8.189
  897SOL    HW1 3587   0.388   1.125   8.254
  897SOL    HW2 3588   0.433   1.124   8.096
  898SOL     OW 3589   1.032   0.549   7.464
  898SOL    HW1 3590   0.991   0.631   7.425
  898SOL    HW2 3591   1.096   0.575   7.537
  899SOL     OW 3592   0.078   0.556   8.834
  899SOL    HW1 3593   0.170   0.555   8.793
  899SOL    HW2 3594   0.072   0.630   8.901
  900SOL     OW 3595   0.561   0.222   8.595
  900SOL    HW1 3596   0.599   0.138   8.632
  900SOL    HW2 3597   0.473   0.241   8.639
  901SOL     OW 3598   0.866   0.454   8.090
  901SOL    HW1 3599   0.834   0.526   8.028
  901SOL    HW2 3600   0.890   0.373   8.037
  902SOL     OW 3601   1.017   0.039   8.201
  902SOL    HW1 3602   0.945   0.044   8.132
  902SOL    HW2 3603   0.993  -0.030   8.270
  903SOL     OW 3604   1.429   1.173   8.315
  903SOL    HW1 3605   1.374   1.089   8.308
  903SOL    HW2 3606   1.455   1.202   8.223
  904SOL     OW 3607   1.466   0.590   8.440
  904SOL    HW1 3608   1.436   0.495   8.447
  904SOL    HW2 3609   1.539   0.606   8.506
  905SOL     OW 3610   1.857   0.833   7.825
  905SOL    HW1 3611   1.899   0.769   7.889
  905SOL    HW2 3612   1.819   0.782   7.747
  906SOL     OW 3613   0.488   1.385   7.622
  906SOL    HW1 3614   0.401   1.370   7.669
  906SOL    HW2 3615   0.471   1.411   7.527
  907SOL     OW 3616   1.664   1.280   8.105
  907SOL    HW1 3617   1.763   1.288   8.119
  907SOL    HW2 3618   1.619   1.364   8.136
  908SOL     OW 3619   1.390   0.575   7.526
  908SOL    HW1 3620   1.336   0.554   7.607
  908SOL    HW2 3621   1.481   0.534   7.535
  909SOL     OW 3622   0.527   0.256   7.776
  909SOL    HW1 3623   0.554   0.197   7.701
  909SOL    HW2 3624   0.527   0.351   7.745
  910SOL     OW 3625   1.754   1.223   9.036
  910SOL    HW1 3626   1.845   1.184   9.023
  910SOL    HW2 3627   1.762   1.319   9.060
  911SOL     OW 3628   1.064   1.347   8.788
  911SOL    HW1 3629   0.984   1.324   8.843
  911SOL    HW2 3630   1.147   1.321   8.837
  912SOL     OW 3631   1.592   1.629   9.073
  912SOL    HW1 3632   1.619   1.663   8.983
  912SOL    HW2 3633   1.671   1.591   9.119
  913SOL     OW 3634   1.111   1.195   8.548
  913SOL    HW1 3635   1.071   1.239   8.629
  913SOL    HW2 3636   1.070   1.232   8.465
  914SOL     OW 3637   1.638   1.099   8.527
  914SOL    HW1 3638   1.643   1.180   8.586
  914SOL    HW2 3639   1.552   1.101   8.476
  915SOL     OW 3640   0.915   0.089   8.850
  915SOL    HW1 3641   0.940   0.069   8.755
  915SOL    HW2 3642   0.987   0.145   8.892
  916SOL     OW 3643   0.980   1.116   9.167
  916SOL    HW1 3644   0.881   1.122   9.177
  916SOL    HW2 3645   1.003   1.036   9.111
  917SOL     OW 3646   0.705   1.050   7.816
  917SOL    HW1 3647   0.691   1.057   7.915
  917SOL    HW2 3648   0.789   0.999   7.798
  918SOL     OW 3649   0.410   0.813   8.699
  918SOL    HW1 3650   0.496   0.825   8.749
  918SOL    HW2 3651   0.368   0.726   8.726
  919SOL     OW 3652   1.274   0.386   8.710
  919SOL    HW1 3653   1.295   0.460   8.774
  919SOL    HW2 3654   1.185   0.403   8.667
  920SOL     OW 3655   0.064   1.564   8.779
  920SOL    HW1 3656   0.018   1.646   8.745
  920SOL    HW2 3657   0.162   1.583   8.788
  921SOL     OW 3658   0.367   1.100   7.949
  921SOL    HW1 3659   0.360   1.183   7.893
  921SOL    HW2 3660   0.371   1.020   7.889
  922SOL     OW 3661   0.566   0.537   8.313
  922SOL    HW1 3662   0.578   0.603   8.239
  922SOL    HW2 3663   0.612   0.571   8.396
  923SOL     OW 3664   1.252   1.348   7.836
  923SOL    HW1 3665   1.302   1.425   7.876
  923SOL    HW2 3666   1.157   1.350   7.868
  924SOL     OW 3667   1.272   1.445   8.590
  924SOL    HW1 3668   1.319   1.458   8.677
  924SOL    HW2 3669   1.206   1.371   8.599
  925SOL     OW 3670   1.582   0.639   7.920
  925SOL    HW1 3671   1.551   0.700   7.993
  925SOL    HW2 3672   1.632   0.691   7.851
  926SOL     OW 3673   0.354   1.510   8.777
  926SOL    HW1 3674   0.333   1.466   8.690
  926SOL    HW2 3675   0.451   1.536   8.780
  927SOL     OW 3676   0.402   0.751   9.046
  927SOL    HW1 3677   0.470   0.806   8.999
  927SOL    HW2 3678   0.442   0.663   9.073
  928SOL     OW 3679   1.587   0.779   9.118
  928SOL    HW1 3680   1.495   0.817   9.113
  928SOL    HW2 3681   1.647   0.826   9.053
  929SOL     OW 3682   1.013   0.105   9.218
  929SOL    HW1 3683   1.019   0.190   9.166
  929SOL    HW2 3684   1.045   0.029   9.161
  930SOL     OW 3685   0.504   0.050   9.188
  930SOL    HW1 3686   0.462  -0.007   9.118
  930SOL    HW2 3687   0.438   0.119   9.220
  931SOL     OW 3688   0.573   0.870   8.477
  931SOL    HW1 3689   0.617   0.959   8.468
  931SOL    HW2 3690   0.510   0.870   8.554
  932SOL     OW 3691   1.360   0.862   8.493
  932SOL    HW1 3692   1.285   0.862   8.427
  932SOL    HW2 3693   1.397   0.770   8.502
  933SOL     OW 3694   1.209   0.525   7.723
  933SOL    HW1 3695   1.222   0.441   7.777
  933SOL    HW2 3696   1.180   0.599   7.783
  934SOL     OW 3697   0.307   0.213   8.679
  934SOL    HW1 3698   0.284   0.250   8.769
  934SOL    HW2 3699   0.277   0.118   8.673
  935SOL     OW 3700   0.037   1.310   8.730
  935SOL    HW1 3701   0.090   1.261   8.798
  935SOL    HW2 3702   0.059   1.408   8.735
  936SOL     OW 3703   0.732   0.634   8.512
  936SOL    HW1 3704   0.791   0.608   8.436
  936SOL    HW2 3705   0.704   0.730   8.501
  937SOL     OW 3706   1.728   0.935   9.302
  937SOL    HW1 3707   1.682   0.928   9.213
  937SOL    HW2 3708   1.666   0.979   9.368
  938SOL     OW 3709   0.307   0.063   8.066
  938SOL    HW1 3710   0.296   0.157   8.099
  938SOL    HW2 3711   0.302   0.000   8.143
  939SOL     OW 3712   1.622   0.367   7.822
  939SOL    HW1 3713   1.624   0.291   7.886
  939SOL    HW2 3714   1.574   0.444   7.862
  940SOL     OW 3715   1.023   0.766   8.414
  940SOL    HW1 3716   1.038   0.787   8.510
  940SOL    HW2 3717   0.993   0.671   8.405
  941SOL     OW 3718   0.980   1.573   9.148
  941SOL    HW1 3719   0.960   1.617   9.060
  941SOL    HW2 3720   1.019   1.482   9.132
  942SOL     OW 3721   1.859   1.518   9.053
  942SOL    HW1 3722   1.873   1.545   8.958
  942SOL    HW2 3723   1.942   1.540   9.106
  943SOL     OW 3724   0.350   0.898   9.252
  943SOL    HW1 3725   0.426   0.942   9.300
  943SOL    HW2 3726   0.385   0.851   9.170
  944SOL     OW 3727   1.540   0.274   7.573
  944SOL    HW1 3728   1.479   0.199   7.596
  944SOL    HW2 3729   1.562   0.326   7.656
  945SOL     OW 3730   1.303   0.838   7.490
  945SOL    HW1 3731   1.337   0.745   7.505
  945SOL    HW2 3732   1.321   0.865   7.395
  946SOL     OW 3733   1.068   1.333   8.297
  946SOL    HW1 3734   1.075   1.249   8.242
  946SOL    HW2 3735   1.130   1.402   8.261
  947SOL     OW 3736   0.319   0.810   8.397
  947SOL    HW1 3737   0.412   0.846   8.402
  947SOL    HW2 3738   0.313   0.725   8.449
  948SOL     OW 3739   0.339   0.509   8.454
  948SOL    HW1 3740   0.287   0.426   8.437
  948SOL    HW2 3741   0.416   0.514   8.390
  949SOL     OW 3742   1.138   0.380   9.126
  949SOL    HW1 3743   1.093   0.443   9.190
  949SOL    HW2 3744   1.231   0.411   9.109
  950SOL     OW 3745   1.160   0.207   8.925
  950SOL    HW1 3746   1.160   0.271   9.002
  950SOL    HW2 3747   1.188   0.255   8.842
  951SOL     OW 3748   0.008   1.326   7.648
  951SOL    HW1 3749  -0.085   1.347   7.617
  951SOL    HW2 3750   0.018   1.227   7.661
  952SOL     OW 3751   0.088   1.801   8.375
  952SOL    HW1 3752   0.046   1.715   8.348
  952SOL    HW2 3753   0.182   1.804   8.341
  953SOL     OW 3754   0.504   1.568   8.358
  953SOL    HW1 3755   0.570   1.642   8.367
  953SOL    HW2 3756   0.548   1.489   8.316
  954SOL     OW 3757   1.002   0.796   8.686
  954SOL    HW1 3758   1.043   0.764   8.772
  954SOL    HW2 3759   0.906   0.769   8.683
  955SOL     OW 3760   0.040   0.544   8.562
  955SOL    HW1 3761   0.125   0.511   8.521
  955SOL    HW2 3762   0.053   0.559   8.660
  956SOL     OW 3763   0.189   0.520   9.170
  956SOL    HW1 3764   0.248   0.480   9.100
  956SOL    HW2 3765   0.131   0.591   9.129
  957SOL     OW 3766   1.369   0.950   9.108
  957SOL    HW1 3767   1.408   1.039   9.128
  957SOL    HW2 3768   1.379   0.930   9.011
  958SOL     OW 3769   0.815   0.572   7.773
  958SOL    HW1 3770   0.822   0.483   7.727
  958SOL    HW2 3771   0.721   0.606   7.765
  959SOL     OW 3772   1.657   0.604   8.654
  959SOL    HW1 3773   1.619   0.535   8.716
  959SOL    HW2 3774   1.739   0.568   8.610
  960SOL     OW 3775   0.252   1.564   9.192
  960SOL    HW1 3776   0.222   1.621   9.268
  960SOL    HW2 3777   0.245   1.467   9.218
  961SOL     OW 3778   0.671   0.464   8.717
  961SOL    HW1 3779   0.637   0.375   8.687
  961SOL    HW2 3780   0.697   0.518   8.637
  962SOL     OW 3781   0.930   1.678   8.913
  962SOL    HW1 3782   0.906   1.660   8.818
  962SOL    HW2 3783   0.960   1.772   8.923
  963SOL     OW 3784   0.473   0.500   7.639
  963SOL    HW1 3785   0.534   0.580   7.643
  963SOL    HW2 3786   0.378   0.531   7.646
  964SOL     OW 3787   0.159   1.137   8.914
  964SOL    HW1 3788   0.181   1.076   8.990
  964SOL    HW2 3789   0.169   1.088   8.828
  965SOL     OW 3790   1.347   1.059   8.682
  965SOL    HW1 3791   1.371   0.996   8.608
  965SOL    HW2 3792   1.257   1.099   8.664
  966SOL     OW 3793   1.302   0.855   7.757
  966SOL    HW1 3794   1.216   0.824   7.799
  966SOL    HW2 3795   1.298   0.841   7.658
  967SOL     OW 3796   1.252   1.731   8.576
  967SOL    HW1 3797   1.336   1.736   8.522
  967SOL    HW2 3798   1.229   1.635   8.594
  968SOL     OW 3799   0.083   1.258   8.470
  968SOL    HW1 3800   0.078   1.257   8.570
  968SOL    HW2 3801   0.000   1.217   8.432
  969SOL     OW 3802   0.688   1.662   9.164
  969SOL    HW1 3803   0.632   1.743   9.173
  969SOL    HW2 3804   0.740   1.666   9.078
  970SOL     OW 3805   1.726   0.135   7.971
  970SOL    HW1 3806   1.799   0.118   7.904
  970SOL    HW2 3807   1.695   0.048   8.009
  971SOL     OW 3808   0.130   1.794   9.299
  971SOL    HW1 3809   0.089   1.720   9.352
  971SOL    HW2 3810   0.194   1.845   9.357
  972SOL     OW 3811   1.280   0.927   8.120
  972SOL    HW1 3812   1.340   0.846   8.122
  972SOL    HW2 3813   1.320   0.996   8.060
  973SOL     OW 3814   0.830   1.273   8.870
  973SOL    HW1 3815   0.825   1.306   8.965
  973SOL    HW2 3816   0.744   1.292   8.824
  974SOL     OW 3817   0.672   1.616   7.602
  974SOL    HW1 3818   0.681   1.626   7.503
  974SOL    HW2 3819   0.632   1.527   7.623
  975SOL     OW 3820   1.650   1.720   8.842
  975SOL    HW1 3821   1.703   1.730   8.758
  975SOL    HW2 3822   1.623   1.810   8.876
  976SOL     OW 3823   1.841   0.175   8.411
  976SOL    HW1 3824   1.880   0.090   8.375
  976SOL    HW2 3825   1.743   0.177   8.392
  977SOL     OW 3826   0.263   0.326   8.168
  977SOL    HW1 3827   0.184   0.377   8.134
  977SOL    HW2 3828   0.254   0.311   8.266
  978SOL     OW 3829   1.194   1.612   7.479
  978SOL    HW1 3830   1.200   1.519   7.516
  978SOL    HW2 3831   1.135   1.612   7.399
  979SOL     OW 3832   0.822   1.002   8.820
  979SOL    HW1 3833   0.862   1.001   8.728
  979SOL    HW2 3834   0.832   1.094   8.860
  980SOL     OW 3835   0.916   0.910   7.739
  980SOL    HW1 3836   0.979   0.948   7.671
  980SOL    HW2 3837   0.956   0.827   7.778
  981SOL     OW 3838   0.372   1.288   8.938
  981SOL    HW1 3839   0.359   1.381   8.904
  981SOL    HW2 3840   0.288   1.236   8.925
  982SOL     OW 3841   1.614   1.292   8.737
  982SOL    HW1 3842   1.674   1.295   8.817
  982SOL    HW2 3843   1.539   1.356   8.750
  983SOL     OW 3844   1.039   1.098   8.144
  983SOL    HW1 3845   0.969   1.051   8.198
  983SOL    HW2 3846   1.098   1.030   8.101
  984SOL     OW 3847   1.014   0.236   8.419
  984SOL    HW1 3848   1.006   0.200   8.326
  984SOL    HW2 3849   1.012   0.160   8.484
  985SOL     OW 3850   0.590   1.487   7.939
  985SOL    HW1 3851   0.632   1.429   7.869
  985SOL    HW2 3852   0.546   1.566   7.895
  986SOL     OW 3853   1.709   0.385   8.829
  986SOL    HW1 3854   1.782   0.454   8.833
  986SOL    HW2 3855   1.737   0.310   8.770
  987SOL     OW 3856   0.255   1.348   7.738
  987SOL    HW1 3857   0.159   1.349   7.711
  987SOL    HW2 3858   0.267   1.401   7.822
  988SOL     OW 3859   0.105   1.013   9.174
  988SOL    HW1 3860   0.028   0.980   9.228
  988SOL    HW2 3861   0.190   0.983   9.216
  989SOL     OW 3862   0.672   0.203   8.937
  989SOL    HW1 3863   0.762   0.187   8.897
  989SOL    HW2 3864   0.680   0.208   9.036
  990SOL     OW 3865   0.075   0.345   7.481
  990SOL    HW1 3866  -0.017   0.317   7.452
  990SOL    HW2 3867   0.106   0.422   7.425
  991SOL     OW 3868   1.440   0.856   8.846
  991SOL    HW1 3869   1.383   0.908   8.783
  991SOL    HW2 3870   1.536   0.868   8.822
  992SOL     OW 3871   0.072   0.166   7.766
  992SOL    HW1 3872   0.055   0.249   7.712
  992SOL    HW2 3873   0.162   0.129   7.744
  993SOL     OW 3874   1.183   1.335   7.567
  993SOL    HW1 3875   1.084   1.324   7.569
  993SOL    HW2 3876   1.217   1.350   7.660
  994SOL     OW 3877   0.613   0.842   8.879
  994SOL    HW1 3878   0.669   0.923   8.862
  994SOL    HW2 3879   0.672   0.762   8.882
  995SOL     OW 3880   1.493   1.767   8.407
  995SOL    HW1 3881   1.526   1.831   8.338
  995SOL    HW2 3882   1.559   1.761   8.482
  996SOL     OW 3883   0.716   0.565   9.156
  996SOL    HW1 3884   0.735   0.630   9.230
  996SOL    HW2 3885   0.776   0.485   9.165
  997SOL     OW 3886   1.450   1.220   9.081
  997SOL    HW1 3887   1.441   1.210   9.180
  997SOL    HW2 3888   1.546   1.213   9.055
  998SOL     OW 3889   0.390   1.741   9.008
  998SOL    HW1 3890   0.299   1.782   9.006
  998SOL    HW2 3891   0.383   1.647   9.040
  999SOL     OW 3892   1.674   0.883   8.702
  999SOL    HW1 3893   1.647   0.794   8.665
  999SOL    HW2 3894   1.675   0.951   8.629
 1000SOL     OW 3895   1.225   0.325   7.897
 1000SOL    HW1 3896   1.290   0.251   7.886
 1000SOL    HW2 3897   1.245   0.375   7.981
 1001SOL     OW 3898   0.594   0.745   8.100
 1001SOL    HW1 3899   0.644   0.830   8.081
 1001SOL    HW2 3900   0.506   0.747   8.052
 1002SOL     OW 3901   1.777   0.342   9.090
 1002SOL    HW1 3902   1.760   0.373   8.996
 1002SOL    HW2 3903   1.693   0.305   9.128
 1003SOL     OW 3904   1.730   0.934   8.965
 1003SOL    HW1 3905   1.768   1.025   8.980
 1003SOL    HW2 3906   1.722   0.917   8.866
 1004SOL     OW 3907   0.859   1.374   7.464
 1004SOL    HW1 3908   0.813   1.389   7.552
 1004SOL    HW2 3909   0.903   1.459   7.434
 1005SOL     OW 3910   0.661   1.790   8.401
 1005SOL    HW1 3911   0.615   1.878   8.388
 1005SOL    HW2 3912   0.760   1.802   8.394
 1006SOL     OW 3913   0.859   0.956   8.309
 1006SOL    HW1 3914   0.913   0.887   8.357
 1006SOL    HW2 3915   0.827   1.025   8.375
 1007SOL     OW 3916   1.083   0.984   7.535
 1007SOL    HW1 3917   1.060   1.037   7.453
 1007SOL    HW2 3918   1.164   0.928   7.516
 1008SOL     OW 3919   1.861   1.569   8.299
 1008SOL    HW1 3920   1.790   1.557   8.229
 1008SOL    HW2 3921   1.862   1.490   8.359
 1009SOL     OW 3922   0.221   1.314   9.292
 1009SOL    HW1 3923   0.156   1.241   9.271
 1009SOL    HW2 3924   0.225   1.328   9.390
 1010SOL     OW 3925   0.079   1.240   8.101
 1010SOL    HW1 3926   0.078   1.193   8.189
 1010SOL    HW2 3927   0.161   1.212   8.050
 1011SOL     OW 3928   0.672   1.391   9.072
 1011SOL    HW1 3929   0.594   1.341   9.110
 1011SOL    HW2 3930   0.669   1.486   9.103
 1012SOL     OW 3931   1.824   0.192   8.675
 1012SOL    HW1 3932   1.820   0.102   8.719
 1012SOL    HW2 3933   1.827   0.181   8.576
 1013SOL     OW 3934   0.428   0.424   7.968
 1013SOL    HW1 3935   0.458   0.352   7.906
 1013SOL    HW2 3936   0.389   0.384   8.051
 1014SOL     OW 3937   1.705   1.487   8.552
 1014SOL    HW1 3938   1.612   1.462   8.525
 1014SOL    HW2 3939   1.731   1.437   8.634
 1015SOL     OW 3940   0.317   0.547   8.728
 1015SOL    HW1 3941   0.355   0.488   8.800
 1015SOL    HW2 3942   0.357   0.521   8.640
 1016SOL     OW 3943   0.812   1.586   8.135
 1016SOL    HW1 3944   0.844   1.596   8.041
 1016SOL    HW2 3945   0.733   1.524   8.137
 1017SOL     OW 3946   1.424   0.214   8.560
 1017SOL    HW1 3947   1.476   0.149   8.615
 1017SOL    HW2 3948   1.375   0.277   8.621
 1018SOL     OW 3949   1.001   0.034   8.602
 1018SOL    HW1 3950   0.938  -0.038   8.571
 1018SOL    HW2 3951   1.094  -0.002   8.602
 1019SOL     OW 3952   0.770   1.330   7.749
 1019SOL    HW1 3953   0.724   1.243   7.766
 1019SOL    HW2 3954   0.861   1.327   7.790
 1020SOL     OW 3955   0.618   1.567   8.732
 1020SOL    HW1 3956   0.613   1.649   8.789
 1020SOL    HW2 3957   0.707   1.564   8.687
 1021SOL     OW 3958   1.352   0.052   7.616
 1021SOL    HW1 3959   1.387   0.011   7.532
 1021SOL    HW2 3960   1.262   0.014   7.636
 1022SOL     OW 3961   1.300   0.453   8.139
 1022SOL    HW1 3962   1.241   0.533   8.143
 1022SOL    HW2 3963   1.315   0.418   8.232
 1023SOL     OW 3964   1.593   0.221   8.330
 1023SOL    HW1 3965   1.509   0.220   8.384
 1023SOL    HW2 3966   1.595   0.304   8.274
 1024SOL     OW 3967   0.039   1.077   7.748
 1024SOL    HW1 3968   0.138   1.066   7.739
 1024SOL    HW2 3969  -0.001   0.991   7.780
 1025SOL     OW 3970   0.875   1.646   7.785
 1025SOL    HW1 3971   0.798   1.611   7.731
 1025SOL    HW2 3972   0.843   1.717   7.847
 1026SOL     OW 3973   0.230   0.628   9.423
 1026SOL    HW1 3974   0.137   0.626   9.460
 1026SOL    HW2 3975   0.231   0.589   9.331
 1027SOL     OW 3976   0.225   0.275  10.306
 1027SOL    HW1 3977   0.260   0.258  10.398
 1027SOL    HW2 3978   0.137   0.230  10.294
 1028SOL     OW 3979   0.019   0.368   9.957
 1028SOL    HW1 3980  -0.063   0.411   9.996
 1028SOL    HW2 3981  -0.009   0.295   9.894
 1029SOL     OW 3982   0.569   1.275  10.475
 1029SOL    HW1 3983   0.476   1.268  10.438
 1029SOL    HW2 3984   0.580   1.364  10.519
 1030SOL     OW 3985   1.555   1.511  10.013
 1030SOL    HW1 3986   1.498   1.495  10.094
 1030SOL    HW2 3987   1.496   1.521   9.933
 1031SOL     OW 3988   1.135   0.703  10.027
 1031SOL    HW1 3989   1.192   0.781  10.002
 1031SOL    HW2 3990   1.075   0.729  10.103
 1032SOL     OW 3991   1.755   0.607   9.541
 1032SOL    HW1 3992   1.743   0.594   9.442
 1032SOL    HW2 3993   1.725   0.526   9.590
 1033SOL     OW 3994   0.768   1.144  10.333
 1033SOL    HW1 3995   0.690   1.161  10.393
 1033SOL    HW2 3996   0.802   1.231  10.297
 1034SOL     OW 3997   0.850   0.798  11.133
 1034SOL    HW1 3998   0.846   0.874  11.198
 1034SOL    HW2 3999   0.872   0.834  11.042
 1035SOL     OW 4000   0.685   1.012   9.975
 1035SOL    HW1 4001   0.754   0.996  10.045
 1035SOL    HW2 4002   0.612   1.069  10.013
 1036SOL     OW 4003   0.686   1.161  11.113
 1036SOL    HW1 4004   0.746   1.240  11.127
 1036SOL    HW2 4005   0.600   1.192  11.072
 1037SOL     OW 4006   0.335   1.435  10.371
 1037SOL    HW1 4007   0.257   1.404  10.318
 1037SOL    HW2 4008   0.393   1.493  10.314
 1038SOL     OW 4009   1.460   1.505  10.649
 1038SOL    HW1 4010   1.484   1.599  10.675
 1038SOL    HW2 4011   1.444   1.451  10.731
 1039SOL     OW 4012   0.438   0.392  10.809
 1039SOL    HW1 4013   0.520   0.336  10.818
 1039SOL    HW2 4014   0.357   0.334  10.813
 1040SOL     OW 4015   1.603   0.447  10.047
 1040SOL    HW1 4016   1.529   0.493   9.997
 1040SOL    HW2 4017   1.654   0.515  10.100
 1041SOL     OW 4018   0.231   1.713   9.793
 1041SOL    HW1 4019   0.265   1.790   9.847
 1041SOL    HW2 4020   0.275   1.713   9.703
 1042SOL     OW 4021   1.127   1.341  11.000
 1042SOL    HW1 4022   1.174   1.341  11.088
 1042SOL    HW2 4023   1.079   1.254  10.989
 1043SOL     OW 4024   0.230   1.434   9.848
 1043SOL    HW1 4025   0.204   1.530   9.848
 1043SOL    HW2 4026   0.159   1.380   9.893
 1044SOL     OW 4027   0.240   1.091  10.196
 1044SOL    HW1 4028   0.254   1.007  10.248
 1044SOL    HW2 4029   0.185   1.155  10.251
 1045SOL     OW 4030   0.620   1.786  10.749
 1045SOL    HW1 4031   0.528   1.769  10.784
 1045SOL    HW2 4032   0.648   1.878  10.775
 1046SOL     OW 4033   0.606   0.964   9.433
 1046SOL    HW1 4034   0.613   1.048   9.379
 1046SOL    HW2 4035   0.652   0.977   9.521
 1047SOL     OW 4036   1.594   0.114  10.790
 1047SOL    HW1 4037   1.576   0.181  10.718
 1047SOL    HW2 4038   1.591   0.160  10.879
 1048SOL     OW 4039   0.122   0.643   9.873
 1048SOL    HW1 4040   0.077   0.555   9.890
 1048SOL    HW2 4041   0.121   0.697   9.957
 1049SOL     OW 4042   0.027   1.596   9.427
 1049SOL    HW1 4043   0.008   1.500   9.448
 1049SOL    HW2 4044  -0.006   1.654   9.502
 1050SOL     OW 4045   1.689   0.922   9.922
 1050SOL    HW1 4046   1.784   0.893   9.930
 1050SOL    HW2 4047   1.681   0.987   9.847
 1051SOL     OW 4048   1.641   1.108   9.742
 1051SOL    HW1 4049   1.727   1.110   9.690
 1051SOL    HW2 4050   1.655   1.155   9.830
 1052SOL     OW 4051   0.113   0.737  10.907
 1052SOL    HW1 4052   0.201   0.724  10.952
 1052SOL    HW2 4053   0.100   0.834  10.885
 1053SOL     OW 4054   0.613   1.365  10.036
 1053SOL    HW1 4055   0.564   1.278  10.045
 1053SOL    HW2 4056   0.590   1.408   9.949
 1054SOL     OW 4057   1.293   1.228  10.733
 1054SOL    HW1 4058   1.330   1.155  10.675
 1054SOL    HW2 4059   1.345   1.233  10.818
 1055SOL     OW 4060   0.809   0.004   9.812
 1055SOL    HW1 4061   0.849   0.095   9.803
 1055SOL    HW2 4062   0.709   0.012   9.818
 1056SOL     OW 4063   0.197   0.976  10.574
 1056SOL    HW1 4064   0.286   0.931  10.560
 1056SOL    HW2 4065   0.124   0.911  10.555
 1057SOL     OW 4066   1.525   0.999   9.500
 1057SOL    HW1 4067   1.462   0.923   9.513
 1057SOL    HW2 4068   1.573   1.017   9.586
 1058SOL     OW 4069   1.187   1.792  10.926
 1058SOL    HW1 4070   1.211   1.852  10.850
 1058SOL    HW2 4071   1.194   1.697  10.896
 1059SOL     OW 4072   0.317   0.251  11.111
 1059SOL    HW1 4073   0.388   0.322  11.117
 1059SOL    HW2 4074   0.229   0.290  11.139
 1060SOL     OW 4075   1.466   1.417  10.263
 1060SOL    HW1 4076   1.407   1.423  10.343
 1060SOL    HW2 4077   1.451   1.329  10.217
 1061SOL     OW 4078   1.667   1.714   9.882
 1061SOL    HW1 4079   1.626   1.691   9.794
 1061SOL    HW2 4080   1.649   1.640   9.947
 1062SOL     OW 4081   0.598   0.729   9.580
 1062SOL    HW1 4082   0.622   0.798   9.512
 1062SOL    HW2 4083   0.520   0.762   9.634
 1063SOL     OW 4084   1.281   0.345  10.254
 1063SOL    HW1 4085   1.195   0.295  10.241
 1063SOL    HW2 4086   1.343   0.291  10.310
 1064SOL     OW 4087   1.576   1.662   9.617
 1064SOL    HW1 4088   1.665   1.708   9.620
 1064SOL    HW2 4089   1.555   1.638   9.522
 1065SOL     OW 4090   0.807   0.605  10.775
 1065SOL    HW1 4091   0.760   0.602  10.864
 1065SOL    HW2 4092   0.756   0.550  10.709
 1066SOL     OW 4093   1.394   0.469  10.984
 1066SOL    HW1 4094   1.374   0.512  11.072
 1066SOL    HW2 4095   1.472   0.407  10.993
 1067SOL     OW 4096   0.973   0.890  10.882
 1067SOL    HW1 4097   1.019   0.806  10.853
 1067SOL    HW2 4098   0.917   0.924  10.807
 1068SOL     OW 4099   0.991   0.410  10.552
 1068SOL    HW1 4100   0.914   0.444  10.606
 1068SOL    HW2 4101   0.957   0.359  10.473
 1069SOL     OW 4102   1.041   0.701   9.739
 1069SOL    HW1 4103   1.067   0.697   9.835
 1069SOL    HW2 4104   0.956   0.650   9.725
 1070SOL     OW 4105   0.076   0.811  10.099
 1070SOL    HW1 4106   0.175   0.799  10.108
 1070SOL    HW2 4107   0.052   0.906  10.120
 1071SOL     OW 4108   0.130   1.821  10.881
 1071SOL    HW1 4109   0.120   1.806  10.980
 1071SOL    HW2 4110   0.044   1.857  10.845
 1072SOL     OW 4111   0.865   0.348   9.505
 1072SOL    HW1 4112   0.924   0.411   9.456
 1072SOL    HW2 4113   0.884   0.254   9.476
 1073SOL     OW 4114   1.719   0.585  11.141
 1073SOL    HW1 4115   1.693   0.674  11.105
 1073SOL    HW2 4116   1.717   0.517  11.068
 1074SOL     OW 4117   1.362   1.144   9.855
 1074SOL    HW1 4118   1.445   1.115   9.807
 1074SOL    HW2 4119   1.313   1.211   9.799
 1075SOL     OW 4120   0.550   0.196  10.195
 1075SOL    HW1 4121   0.545   0.191  10.295
 1075SOL    HW2 4122   0.552   0.292  10.166
 1076SOL     OW 4123   1.008   1.456   9.787
 1076SOL    HW1 4124   0.962   1.528   9.735
 1076SOL    HW2 4125   1.004   1.476   9.885
 1077SOL     OW 4126   0.351   1.801  10.163
 1077SOL    HW1 4127   0.401   1.715  10.169
 1077SOL    HW2 4128   0.416   1.878  10.160
 1078SOL     OW 4129   1.795   1.066  10.183
 1078SOL    HW1 4130   1.733   1.051  10.107
 1078SOL    HW2 4131   1.743   1.077  10.268
 1079SOL     OW 4132   1.227   1.550  10.816
 1079SOL    HW1 4133   1.233   1.473  10.880
 1079SOL    HW2 4134   1.175   1.524  10.736
 1080SOL     OW 4135   0.321   0.943   9.552
 1080SOL    HW1 4136   0.403   0.982   9.510
 1080SOL    HW2 4137   0.294   0.861   9.503
 1081SOL     OW 4138   1.458   0.735  10.038
 1081SOL    HW1 4139   1.453   0.670  10.113
 1081SOL    HW2 4140   1.538   0.794  10.051
 1082SOL     OW 4141   0.461   1.266  11.037
 1082SOL    HW1 4142   0.411   1.267  10.951
 1082SOL    HW2 4143   0.398   1.248  11.113
 1083SOL     OW 4144   1.111   1.776   9.547
 1083SOL    HW1 4145   1.051   1.714   9.597
 1083SOL    HW2 4146   1.142   1.732   9.462
 1084SOL     OW 4147   0.202   0.285  10.808
 1084SOL    HW1 4148   0.122   0.345  10.795
 1084SOL    HW2 4149   0.192   0.236  10.894
 1085SOL     OW 4150   1.632   1.377   9.391
 1085SOL    HW1 4151   1.600   1.471   9.381
 1085SOL    HW2 4152   1.556   1.314   9.379
 1086SOL     OW 4153   0.464   1.743   9.633
 1086SOL    HW1 4154   0.497   1.782   9.719
 1086SOL    HW2 4155   0.540   1.736   9.568
 1087SOL     OW 4156   1.400   0.107   9.736
 1087SOL    HW1 4157   1.376   0.070   9.646
 1087SOL    HW2 4158   1.499   0.123   9.740
 1088SOL     OW 4159   0.249   1.785  10.551
 1088SOL    HW1 4160   0.306   1.720  10.601
 1088SOL    HW2 4161   0.233   1.752  10.458
 1089SOL     OW 4162   0.940   1.698  10.214
 1089SOL    HW1 4163   1.020   1.641  10.235
 1089SOL    HW2 4164   0.891   1.658  10.137
 1090SOL     OW 4165   0.382   0.700   9.790
 1090SOL    HW1 4166   0.427   0.610   9.787
 1090SOL    HW2 4167   0.288   0.689   9.823
 1091SOL     OW 4168   1.547   0.222  11.039
 1091SOL    HW1 4169   1.542   0.259  11.131
 1091SOL    HW2 4170   1.475   0.153  11.027
 1092SOL     OW 4171   0.614   0.122   9.427
 1092SOL    HW1 4172   0.712   0.100   9.434
 1092SOL    HW2 4173   0.583   0.105   9.334
 1093SOL     OW 4174   0.781   0.264  11.059
 1093SOL    HW1 4175   0.848   0.203  11.102
 1093SOL    HW2 4176   0.708   0.283  11.124
 1094SOL     OW 4177   0.888   1.514  10.505
 1094SOL    HW1 4178   0.865   1.489  10.411
 1094SOL    HW2 4179   0.949   1.445  10.544
 1095SOL     OW 4180   1.351   0.590  10.743
 1095SOL    HW1 4181   1.379   0.547  10.828
 1095SOL    HW2 4182   1.376   0.686  10.744
 1096SOL     OW 4183   0.803   1.402  10.234
 1096SOL    HW1 4184   0.893   1.416  10.192
 1096SOL    HW2 4185   0.732   1.404  10.163
 1097SOL     OW 4186   0.922   0.503  10.209
 1097SOL    HW1 4187   0.897   0.494  10.113
 1097SOL    HW2 4188   0.970   0.421  10.240
 1098SOL     OW 4189   0.539   0.064   9.822
 1098SOL    HW1 4190   0.458   0.065   9.880
 1098SOL    HW2 4191   0.542   0.147   9.767
 1099SOL     OW 4192   1.434   1.188   9.351
 1099SOL    HW1 4193   1.466   1.112   9.408
 1099SOL    HW2 4194   1.342   1.215   9.381
 1100SOL     OW 4195   0.297   0.035   9.481
 1100SOL    HW1 4196   0.346   0.119   9.460
 1100SOL    HW2 4197   0.359  -0.030   9.526
 1101SOL     OW 4198   0.935   0.236   9.790
 1101SOL    HW1 4199   0.887   0.277   9.712
 1101SOL    HW2 4200   1.034   0.234   9.771
 1102SOL     OW 4201   1.076   0.683  10.774
 1102SOL    HW1 4202   0.996   0.622  10.777
 1102SOL    HW2 4203   1.157   0.630  10.750
 1103SOL     OW 4204   1.227   1.570  10.103
 1103SOL    HW1 4205   1.248   1.644  10.038
 1103SOL    HW2 4206   1.295   1.570  10.176
 1104SOL     OW 4207   0.459   1.152  10.051
 1104SOL    HW1 4208   0.388   1.125  10.116
 1104SOL    HW2 4209   0.433   1.124   9.958
 1105SOL     OW 4210   1.271   1.797   9.901
 1105SOL    HW1 4211   1.315   1.861   9.837
 1105SOL    HW2 4212   1.221   1.849   9.971
 1106SOL     OW 4213   1.032   0.549   9.326
 1106SOL    HW1 4214   0.991   0.631   9.287
 1106SOL    HW2 4215   1.096   0.575   9.399
 1107SOL     OW 4216   0.078   0.556  10.696
 1107SOL    HW1 4217   0.170   0.555  10.655
 1107SOL    HW2 4218   0.072   0.630  10.763
 1108SOL     OW 4219   0.561   0.222  10.457
 1108SOL    HW1 4220   0.599   0.138  10.494
 1108SOL    HW2 4221   0.473   0.241  10.501
 1109SOL     OW 4222   0.866   0.454   9.952
 1109SOL    HW1 4223   0.834   0.526   9.890
 1109SOL    HW2 4224   0.890   0.373   9.899
 1110SOL     OW 4225   1.017   0.039  10.063
 1110SOL    HW1 4226   0.945   0.044   9.994
 1110SOL    HW2 4227   0.993  -0.030  10.132
 1111SOL     OW 4228   1.429   1.173  10.177
 1111SOL    HW1 4229   1.374   1.089  10.170
 1111SOL    HW2 4230   1.455   1.202  10.085
 1112SOL     OW 4231   1.466   0.590  10.302
 1112SOL    HW1 4232   1.436   0.495  10.309
 1112SOL    HW2 4233   1.539   0.606  10.368
 1113SOL     OW 4234   1.857   0.833   9.687
 1113SOL    HW1 4235   1.899   0.769   9.751
 1113SOL    HW2 4236   1.819   0.782   9.609
 1114SOL     OW 4237   0.488   1.385   9.484
 1114SOL    HW1 4238   0.401   1.370   9.531
 1114SOL    HW2 4239   0.471   1.411   9.389
 1115SOL     OW 4240   1.664   1.280   9.967
 1115SOL    HW1 4241   1.763   1.288   9.981
 1115SOL    HW2 4242   1.619   1.364   9.998
 1116SOL     OW 4243   1.390   0.575   9.388
 1116SOL    HW1 4244   1.336   0.554   9.469
 1116SOL    HW2 4245   1.481   0.534   9.397
 1117SOL     OW 4246   0.527   0.256   9.638
 1117SOL    HW1 4247   0.554   0.197   9.563
 1117SOL    HW2 4248   0.527   0.351   9.607
 1118SOL     OW 4249   1.754   1.223  10.898
 1118SOL    HW1 4250   1.845   1.184  10.885
 1118SOL    HW2 4251   1.762   1.319  10.922
 1119SOL     OW 4252   1.064   1.347  10.650
 1119SOL    HW1 4253   0.984   1.324  10.705
 1119SOL    HW2 4254   1.147   1.321  10.699
 1120SOL     OW 4255   1.592   1.629  10.935
 1120SOL    HW1 4256   1.619   1.663  10.845
 1120SOL    HW2 4257   1.671   1.591  10.981
 1121SOL     OW 4258   1.111   1.195  10.410
 1121SOL    HW1 4259   1.071   1.239  10.491
 1121SOL    HW2 4260   1.070   1.232  10.327
 1122SOL     OW 4261   1.638   1.099  10.389
 1122SOL    HW1 4262   1.643   1.180  10.448
 1122SOL    HW2 4263   1.552   1.101  10.338
 1123SOL     OW 4264   0.915   0.089  10.712
 1123SOL    HW1 4265   0.940   0.069  10.617
 1123SOL    HW2 4266   0.987   0.145  10.754
 1124SOL     OW 4267   0.980   1.116  11.029
 1124SOL    HW1 4268   0.881   1.122  11.039
 1124SOL    HW2 4269   1.003   1.036  10.973
 1125SOL     OW 4270   0.705   1.050   9.678
 1125SOL    HW1 4271   0.691   1.057   9.777
 1125SOL    HW2 4272   0.789   0.999   9.660
 1126SOL     OW 4273   0.410   0.813  10.561
 1126SOL    HW1 4274   0.496   0.825  10.611
 1126SOL    HW2 4275   0.368   0.726  10.588
 1127SOL     OW 4276   1.274   0.386  10.572
 1127SOL    HW1 4277   1.295   0.460  10.636
 1127SOL    HW2 4278   1.185   0.403  10.529
 1128SOL     OW 4279   0.064   1.564  10.641
 1128SOL    HW1 4280   0.018   1.646  10.607
 1128SOL    HW2 4281   0.162   1.583  10.650
 1129SOL     OW 4282   0.367   1.100   9.811
 1129SOL    HW1 4283   0.360   1.183   9.755
 1129SOL    HW2 4284   0.371   1.020   9.751
 1130SOL     OW 4285   0.566   0.537  10.175
 1130SOL    HW1 4286   0.578   0.603  10.101
 1130SOL    HW2 4287   0.612   0.571  10.258
 1131SOL     OW 4288   1.252   1.348   9.698
 1131SOL    HW1 4289   1.302   1.425   9.738
 1131SOL    HW2 4290   1.157   1.350   9.730
 1132SOL     OW 4291   1.272   1.445  10.452
 1132SOL    HW1 4292   1.319   1.458  10.539
 1132SOL    HW2 4293   1.206   1.371  10.461
 1133SOL     OW 4294   1.582   0.639   9.782
 1133SOL    HW1 4295   1.551   0.700   9.855
 1133SOL    HW2 4296   1.632   0.691   9.713
 1134SOL     OW 4297   0.354   1.510  10.639
 1134SOL    HW1 4298   0.333   1.466  10.552
 1134SOL    HW2 4299   0.451   1.536  10.642
 1135SOL     OW 4300   0.402   0.751  10.908
 1135SOL    HW1 4301   0.470   0.806  10.861
 1135SOL    HW2 4302   0.442   0.663  10.935
 1136SOL     OW 4303   1.587   0.779  10.980
 1136SOL    HW1 4304   1.495   0.817  10.975
 1136SOL    HW2 4305   1.647   0.826  10.915
 1137SOL     OW 4306   1.013   0.105  11.080
 1137SOL    HW1 4307   1.019   0.190  11.028
 1137SOL    HW2 4308   1.045   0.029  11.023
 1138SOL     OW 4309   0.504   0.050  11.050
 1138SOL    HW1 4310   0.462  -0.007  10.980
 1138SOL    HW2 4311   0.438   0.119  11.082
 1139SOL     OW 4312   0.573   0.870  10.339
 1139SOL    HW1 4313   0.617   0.959  10.330
 1139SOL    HW2 4314   0.510   0.870  10.416
 1140SOL     OW 4315   1.360   0.862  10.355
 1140SOL    HW1 4316   1.285   0.862  10.289
 1140SOL    HW2 4317   1.397   0.770  10.364
 1141SOL     OW 4318   1.209   0.525   9.585
 1141SOL    HW1 4319   1.222   0.441   9.639
 1141SOL    HW2 4320   1.180   0.599   9.645
 1142SOL     OW 4321   0.307   0.213  10.541
 1142SOL    HW1 4322   0.284   0.250  10.631
 1142SOL    HW2 4323   0.277   0.118  10.535
 1143SOL     OW 4324   0.037   1.310  10.592
 1143SOL    HW1 4325   0.090   1.261  10.660
 1143SOL    HW2 4326   0.059   1.408  10.597
 1144SOL     OW 4327   0.732   0.634  10.374
 1144SOL    HW1 4328   0.791   0.608  10.298
 1144SOL    HW2 4329   0.704   0.730  10.363
 1145SOL     OW 4330   1.728   0.935  11.164
 1145SOL    HW1 4331   1.682   0.928  11.075
 1145SOL    HW2 4332   1.666   0.979  11.230
 1146SOL     OW 4333   0.307   0.063   9.928
 1146SOL    HW1 4334   0.296   0.157   9.961
 1146SOL    HW2 4335   0.302   0.000  10.005
 1147SOL     OW 4336   1.622   0.367   9.684
 1147SOL    HW1 4337   1.624   0.291   9.748
 1147SOL    HW2 4338   1.574   0.444   9.724
 1148SOL     OW 4339   1.023   0.766  10.276
 1148SOL    HW1 4340   1.038   0.787  10.372
 1148SOL    HW2 4341   0.993   0.671  10.267
 1149SOL     OW 4342   0.980   1.573  11.010
 1149SOL    HW1 4343   0.960   1.617  10.922
 1149SOL    HW2 4344   1.019   1.482  10.994
 1150SOL     OW 4345   1.859   1.518  10.915
 1150SOL    HW1 4346   1.873   1.545  10.820
 1150SOL    HW2 4347   1.942   1.540  10.968
 1151SOL     OW 4348   0.350   0.898  11.114
 1151SOL    HW1 4349   0.426   0.942  11.162
 1151SOL    HW2 4350   0.385   0.851  11.032
 1152SOL     OW 4351   1.540   0.274   9.435
 1152SOL    HW1 4352   1.479   0.199   9.458
 1152SOL    HW2 4353   1.562   0.326   9.518
 1153SOL     OW 4354   1.303   0.838   9.352
 1153SOL    HW1 4355   1.337   0.745   9.367
 1153SOL    HW2 4356   1.321   0.865   9.257
 1154SOL     OW 4357   1.068   1.333  10.159
 1154SOL    HW1 4358   1.075   1.249  10.104
 1154SOL    HW2 4359   1.130   1.402  10.123
 1155SOL     OW 4360   0.319   0.810  10.259
 1155SOL    HW1 4361   0.412   0.846  10.264
 1155SOL    HW2 4362   0.313   0.725  10.311
 1156SOL     OW 4363   0.339   0.509  10.316
 1156SOL    HW1 4364   0.287   0.426  10.299
 1156SOL    HW2 4365   0.416   0.514  10.252
 1157SOL     OW 4366   1.138   0.380  10.988
 1157SOL    HW1 4367   1.093   0.443  11.052
 1157SOL    HW2 4368   1.231   0.411  10.971
 1158SOL     OW 4369   1.160   0.207  10.787
 1158SOL    HW1 4370   1.160   0.271  10.864
 1158SOL    HW2 4371   1.188   0.255  10.704
 1159SOL     OW 4372   0.008   1.326   9.510
 1159SOL    HW1 4373  -0.085   1.347   9.479
 1159SOL    HW2 4374   0.018   1.227   9.523
 1160SOL     OW 4375   0.088   1.801  10.237
 1160SOL    HW1 4376   0.046   1.715  10.210
 1160SOL    HW2 4377   0.182   1.804  10.203
 1161SOL     OW 4378   0.504   1.568  10.220
 1161SOL    HW1 4379   0.570   1.642  10.229
 1161SOL    HW2 4380   0.548   1.489  10.178
 1162SOL     OW 4381   1.002   0.796  10.548
 1162SOL    HW1 4382   1.043   0.764  10.634
 1162SOL    HW2 4383   0.906   0.769  10.545
 1163SOL     OW 4384   0.040   0.544  10.424
 1163SOL    HW1 4385   0.125   0.511  10.383
 1163SOL    HW2 4386   0.053   0.559  10.522
 1164SOL     OW 4387   0.189   0.520  11.032
 1164SOL    HW1 4388   0.248   0.480  10.962
 1164SOL    HW2 4389   0.131   0.591  10.991
 1165SOL     OW 4390   1.369   0.950  10.970
 1165SOL    HW1 4391   1.408   1.039  10.990
 1165SOL    HW2 4392   1.379   0.930  10.873
 1166SOL     OW 4393   0.815   0.572   9.635
 1166SOL    HW1 4394   0.822   0.483   9.589
 1166SOL    HW2 4395   0.721   0.606   9.627
 1167SOL     OW 4396   1.657   0.604  10.516
 1167SOL    HW1 4397   1.619   0.535  10.578
 1167SOL    HW2 4398   1.739   0.568  10.472
 1168SOL     OW 4399   0.252   1.564  11.054
 1168SOL    HW1 4400   0.222   1.621  11.130
 1168SOL    HW2 4401   0.245   1.467  11.080
 1169SOL     OW 4402   0.671   0.464  10.579
 1169SOL    HW1 4403   0.637   0.375  10.549
 1169SOL    HW2 4404   0.697   0.518  10.499
 1170SOL     OW 4405   0.930   1.678  10.775
 1170SOL    HW1 4406   0.906   1.660  10.680
 1170SOL    HW2 4407   0.960   1.772  10.785
 1171SOL     OW 4408   0.473   0.500   9.501
 1171SOL    HW1 4409   0.534   0.580   9.505
 1171SOL    HW2 4410   0.378   0.531   9.508
 1172SOL     OW 4411   0.159   1.137  10.776
 1172SOL    HW1 4412   0.181   1.076  10.852
 1172SOL    HW2 4413   0.169   1.088  10.690
 1173SOL     OW 4414   1.347   1.059  10.544
 1173SOL    HW1 4415   1.371   0.996  10.470
 1173SOL    HW2 4416   1.257   1.099  10.526
 1174SOL     OW 4417   1.302   0.855   9.619
 1174SOL    HW1 4418   1.216   0.824   9.661
 1174SOL    HW2 4419   1.298   0.841   9.520
 1175SOL     OW 4420   1.252   1.731  10.438
 1175SOL    HW1 4421   1.336   1.736  10.384
 1175SOL    HW2 4422   1.229   1.635  10.456
 1176SOL     OW 4423   0.083   1.258  10.332
 1176SOL    HW1 4424   0.078   1.257  10.432
 1176SOL    HW2 4425   0.000   1.217  10.294
 1177SOL     OW 4426   0.688   1.662  11.026
 1177SOL    HW1 4427   0.632   1.743  11.035
 1177SOL    HW2 4428   0.740   1.666  10.940
 1178SOL     OW 4429   1.726   0.135   9.833
 1178SOL    HW1 4430   1.799   0.118   9.766
 1178SOL    HW2 4431   1.695   0.048   9.871
 1179SOL     OW 4432   1.388   1.573   9.787
 1179SOL    HW1 4433   1.455   1.585   9.713
 1179SOL    HW2 4434   1.348   1.662   9.810
 1180SOL     OW 4435   0.130   1.794  11.161
 1180SOL    HW1 4436   0.089   1.720  11.214
 1180SOL    HW2 4437   0.194   1.845  11.219
 1181SOL     OW 4438   1.280   0.927   9.982
 1181SOL    HW1 4439   1.340   0.846   9.984
 1181SOL    HW2 4440   1.320   0.996   9.922
 1182SOL     OW 4441   0.830   1.273  10.732
 1182SOL    HW1 4442   0.825   1.306  10.827
 1182SOL    HW2 4443   0.744   1.292  10.686
 1183SOL     OW 4444   0.672   1.616   9.464
 1183SOL    HW1 4445   0.681   1.626   9.365
 1183SOL    HW2 4446   0.632   1.527   9.485
 1184SOL     OW 4447   1.650   1.720  10.704
 1184SOL    HW1 4448   1.703   1.730  10.620
 1184SOL    HW2 4449   1.623   1.810  10.738
 1185SOL     OW 4450   1.841   0.175  10.273
 1185SOL    HW1 4451   1.880   0.090  10.237
 1185SOL    HW2 4452   1.743   0.177  10.254
 1186SOL     OW 4453   0.263   0.326  10.030
 1186SOL    HW1 4454   0.184   0.377   9.996
 1186SOL    HW2 4455   0.254   0.311  10.128
 1187SOL     OW 4456   1.194   1.612   9.341
 1187SOL    HW1 4457   1.200   1.519   9.378
 1187SOL    HW2 4458   1.135   1.612   9.261
 1188SOL     OW 4459   0.822   1.002  10.682
 1188SOL    HW1 4460   0.862   1.001  10.590
 1188SOL    HW2 4461   0.832   1.094  10.722
 1189SOL     OW 4462   0.916   0.910   9.601
 1189SOL    HW1 4463   0.979   0.948   9.533
 1189SOL    HW2 4464   0.956   0.827   9.640
 1190SOL     OW 4465   1.504   1.607   9.354
 1190SOL    HW1 4466   1.412   1.644   9.361
 1190SOL    HW2 4467   1.542   1.627   9.264
 1191SOL     OW 4468   0.372   1.288  10.800
 1191SOL    HW1 4469   0.359   1.381  10.766
 1191SOL    HW2 4470   0.288   1.236  10.787
 1192SOL     OW 4471   1.614   1.292  10.599
 1192SOL    HW1 4472   1.674   1.295  10.679
 1192SOL    HW2 4473   1.539   1.356  10.612
 1193SOL     OW 4474   1.039   1.098  10.006
 1193SOL    HW1 4475   0.969   1.051  10.060
 1193SOL    HW2 4476   1.098   1.030   9.963
 1194SOL     OW 4477   1.014   0.236  10.281
 1194SOL    HW1 4478   1.006   0.200  10.188
 1194SOL    HW2 4479   1.012   0.160  10.346
 1195SOL     OW 4480   0.590   1.487   9.801
 1195SOL    HW1 4481   0.632   1.429   9.731
 1195SOL    HW2 4482   0.546   1.566   9.757
 1196SOL     OW 4483   1.709   0.385  10.691
 1196SOL    HW1 4484   1.782   0.454  10.695
 1196SOL    HW2 4485   1.737   0.310  10.632
 1197SOL     OW 4486   0.255   1.348   9.600
 1197SOL    HW1 4487   0.159   1.349   9.573
 1197SOL    HW2 4488   0.267   1.401   9.684
 1198SOL     OW 4489   0.105   1.013  11.036
 1198SOL    HW1 4490   0.028   0.980  11.090
 1198SOL    HW2 4491   0.190   0.983  11.078
 1199SOL     OW 4492   0.672   0.203  10.799
 1199SOL    HW1 4493   0.762   0.187  10.759
 1199SOL    HW2 4494   0.680   0.208  10.898
 1200SOL     OW 4495   0.075   0.345   9.343
 1200SOL    HW1 4496  -0.017   0.317   9.314
 1200SOL    HW2 4497   0.106   0.422   9.287
 1201SOL     OW 4498   1.440   0.856  10.708
 1201SOL    HW1 4499   1.383   0.908  10.645
 1201SOL    HW2 4500   1.536   0.868  10.684
 1202SOL     OW 4501   0.072   0.166   9.628
 1202SOL    HW1 4502   0.055   0.249   9.574
 1202SOL    HW2 4503   0.162   0.129   9.606
 1203SOL     OW 4504   1.183   1.335   9.429
 1203SOL    HW1 4505   1.084   1.324   9.431
 1203SOL    HW2 4506   1.217   1.350   9.522
 1204SOL     OW 4507   0.613   0.842  10.741
 1204SOL    HW1 4508   0.669   0.923  10.724
 1204SOL    HW2 4509   0.672   0.762  10.744
 1205SOL     OW 4510   1.493   1.767  10.269
 1205SOL    HW1 4511   1.526   1.831  10.200
 1205SOL    HW2 4512   1.559   1.761  10.344
 1206SOL     OW 4513   0.716   0.565  11.018
 1206SOL    HW1 4514   0.735   0.630  11.092
 1206SOL    HW2 4515   0.776   0.485  11.027
 1207SOL     OW 4516   1.450   1.220  10.943
 1207SOL    HW1 4517   1.441   1.210  11.042
 1207SOL    HW2 4518   1.546   1.213  10.917
 1208SOL     OW 4519   0.390   1.741  10.870
 1208SOL    HW1 4520   0.299   1.782  10.868
 1208SOL    HW2 4521   0.383   1.647  10.902
 1209SOL     OW 4522   1.674   0.883  10.564
 1209SOL    HW1 4523   1.647   0.794  10.527
 1209SOL    HW2 4524   1.675   0.951  10.491
 1210SOL     OW 4525   1.225   0.325   9.759
 1210SOL    HW1 4526   1.290   0.251   9.748
 1210SOL    HW2 4527   1.245   0.375   9.843
 1211SOL     OW 4528   0.594   0.745   9.962
 1211SOL    HW1 4529   0.644   0.830   9.943
 1211SOL    HW2 4530   0.506   0.747   9.914
 1212SOL     OW 4531   1.777   0.342  10.952
 1212SOL    HW1 4532   1.760   0.373  10.858
 1212SOL    HW2 4533   1.693   0.305  10.990
 1213SOL     OW 4534   1.730   0.934  10.827
 1213SOL    HW1 4535   1.768   1.025  10.842
 1213SOL    HW2 4536   1.722   0.917  10.728
 1214SOL     OW 4537   0.859   1.374   9.326
 1214SOL    HW1 4538   0.813   1.389   9.414
 1214SOL    HW2 4539   0.903   1.459   9.296
 1215SOL     OW 4540   0.661   1.790  10.263
 1215SOL    HW1 4541   0.615   1.878  10.250
 1215SOL    HW2 4542   0.760   1.802  10.256
 1216SOL     OW 4543   0.859   0.956  10.171
 1216SOL    HW1 4544   0.913   0.887  10.219
 1216SOL    HW2 4545   0.827   1.025  10.237
 1217SOL     OW 4546   1.083   0.984   9.397
 1217SOL    HW1 4547   1.060   1.037   9.315
 1217SOL    HW2 4548   1.164   0.928   9.378
 1218SOL     OW 4549   1.861   1.569  10.161
 1218SOL    HW1 4550   1.790   1.557  10.091
 1218SOL    HW2 4551   1.862   1.490  10.221
 1219SOL     OW 4552   0.221   1.314  11.154
 1219SOL    HW1 4553   0.156   1.241  11.133
 1219SOL    HW2 4554   0.225   1.328  11.252
 1220SOL     OW 4555   0.079   1.240   9.963
 1220SOL    HW1 4556   0.078   1.193  10.051
 1220SOL    HW2 4557   0.161   1.212   9.912
 1221SOL     OW 4558   0.672   1.391  10.934
 1221SOL    HW1 4559   0.594   1.341  10.972
 1221SOL    HW2 4560   0.669   1.486  10.965
 1222SOL     OW 4561   1.824   0.192  10.537
 1222SOL    HW1 4562   1.820   0.102  10.581
 1222SOL    HW2 4563   1.827   0.181  10.438
 1223SOL     OW 4564   0.428   0.424   9.830
 1223SOL    HW1 4565   0.458   0.352   9.768
 1223SOL    HW2 4566   0.389   0.384   9.913
 1224SOL     OW 4567   1.705   1.487  10.414
 1224SOL    HW1 4568   1.612   1.462  10.387
 1224SOL    HW2 4569   1.731   1.437  10.496
 1225SOL     OW 4570   0.317   0.547  10.590
 1225SOL    HW1 4571   0.355   0.488  10.662
 1225SOL    HW2 4572   0.357   0.521  10.502
 1226SOL     OW 4573   0.812   1.586   9.997
 1226SOL    HW1 4574   0.844   1.596   9.903
 1226SOL    HW2 4575   0.733   1.524   9.999
 1227SOL     OW 4576   1.424   0.214  10.422
 1227SOL    HW1 4577   1.476   0.149  10.477
 1227SOL    HW2 4578   1.375   0.277  10.483
 1228SOL     OW 4579   1.001   0.034  10.464
 1228SOL    HW1 4580   0.938  -0.038  10.433
 1228SOL    HW2 4581   1.094  -0.002  10.464
 1229SOL     OW 4582   0.770   1.330   9.611
 1229SOL    HW1 4583   0.724   1.243   9.628
 1229SOL    HW2 4584   0.861   1.327   9.652
 1230SOL     OW 4585   0.618   1.567  10.594
 1230SOL    HW1 4586   0.613   1.649  10.651
 1230SOL    HW2 4587   0.707   1.564  10.549
 1231SOL     OW 4588   1.352   0.052   9.478
 1231SOL    HW1 4589   1.387   0.011   9.394
 1231SOL    HW2 4590   1.262   0.014   9.498
 1232SOL     OW 4591   1.300   0.453  10.001
 1232SOL    HW1 4592   1.241   0.533  10.005
 1232SOL    HW2 4593   1.315   0.418  10.094
 1233SOL     OW 4594   1.593   0.221  10.192
 1233SOL    HW1 4595   1.509   0.220  10.246
 1233SOL    HW2 4596   1.595   0.304  10.136
 1234SOL     OW 4597   0.039   1.077   9.610
 1234SOL    HW1 4598   0.138   1.066   9.601
 1234SOL    HW2 4599  -0.001   0.991   9.642
 1235SOL     OW 4600   0.875   1.646   9.647
 1235SOL    HW1 4601   0.798   1.611   9.593
 1235SOL    HW2 4602   0.843   1.717   9.709
 1236SOL     OW 4603   0.230   0.628  11.285
 1236SOL    HW1 4604   0.137   0.626  11.322
 1236SOL    HW2 4605   0.231   0.589  11.193
 1237SOL     OW 4606   0.225   0.275  12.168
 1237SOL    HW1 4607   0.260   0.258  12.260
 1237SOL    HW2 4608   0.137   0.230  12.156
 1238SOL     OW 4609   0.019   0.368  11.819
 1238SOL    HW1 4610  -0.063   0.411  11.858
 1238SOL    HW2 4611  -0.009   0.295  11.756
 1239SOL     OW 4612   0.569   1.275  12.337
 1239SOL    HW1 4613   0.476   1.268  12.300
 1239SOL    HW2 4614   0.580   1.364  12.381
 1240SOL     OW 4615   1.555   1.511  11.875
 1240SOL    HW1 4616   1.498   1.495  11.956
 1240SOL    HW2 4617   1.496   1.521  11.795
 1241SOL     OW 4618   1.135   0.703  11.889
 1241SOL    HW1 4619   1.192   0.781  11.864
 1241SOL    HW2 4620   1.075   0.729  11.965
 1242SOL     OW 4621   1.755   0.607  11.403
 1242SOL    HW1 4622   1.743   0.594  11.304
 1242SOL    HW2 4623   1.725   0.526  11.452
 1243SOL     OW 4624   0.768   1.144  12.195
 1243SOL    HW1 4625   0.690   1.161  12.255
 1243SOL    HW2 4626   0.802   1.231  12.159
 1244SOL     OW 4627   0.850   0.798  12.995
 1244SOL    HW1 4628   0.846   0.874  13.060
 1244SOL    HW2 4629   0.872   0.834  12.904
 1245SOL     OW 4630   0.685   1.012  11.837
 1245SOL    HW1 4631   0.754   0.996  11.907
 1245SOL    HW2 4632   0.612   1.069  11.875
 1246SOL     OW 4633   0.686   1.161  12.975
 1246SOL    HW1 4634   0.746   1.240  12.989
 1246SOL    HW2 4635   0.600   1.192  12.934
 1247SOL     OW 4636   0.335   1.435  12.233
 1247SOL    HW1 4637   0.257   1.404  12.180
 1247SOL    HW2 4638   0.393   1.493  12.176
 1248SOL     OW 4639   1.460   1.505  12.511
 1248SOL    HW1 4640   1.484   1.599  12.537
 1248SOL    HW2 4641   1.444   1.451  12.593
 1249SOL     OW 4642   0.438   0.392  12.671
 1249SOL    HW1 4643   0.520   0.336  12.680
 1249SOL    HW2 4644   0.357   0.334  12.675
 1250SOL     OW 4645   1.603   0.447  11.909
 1250SOL    HW1 4646   1.529   0.493  11.859
 1250SOL    HW2 4647   1.654   0.515  11.962
 1251SOL     OW 4648   0.231   1.713  11.655
 1251SOL    HW1 4649   0.265   1.790  11.709
 1251SOL    HW2 4650   0.275   1.713  11.565
 1252SOL     OW 4651   1.127   1.341  12.862
 1252SOL    HW1 4652   1.174   1.341  12.950
 1252SOL    HW2 4653   1.079   1.254  12.851
 1253SOL     OW 4654   0.230   1.434  11.710
 1253SOL    HW1 4655   0.204   1.530  11.710
 1253SOL    HW2 4656   0.159   1.380  11.755
 1254SOL     OW 4657   0.240   1.091  12.058
 1254SOL    HW1 4658   0.254   1.007  12.110
 1254SOL    HW2 4659   0.185   1.155  12.113
 1255SOL     OW 4660   0.620   1.786  12.611
 1255SOL    HW1 4661   0.528   1.769  12.646
 1255SOL    HW2 4662   0.648   1.878  12.637
 1256SOL     OW 4663   0.606   0.964  11.295
 1256SOL    HW1 4664   0.613   1.048  11.241
 1256SOL    HW2 4665   0.652   0.977  11.383
 1257SOL     OW 4666   1.594   0.114  12.652
 1257SOL    HW1 4667   1.576   0.181  12.580
 1257SOL    HW2 4668   1.591   0.160  12.741
 1258SOL     OW 4669   0.122   0.643  11.735
 1258SOL    HW1 4670   0.077   0.555  11.752
 1258SOL    HW2 4671   0.121   0.697  11.819
 1259SOL     OW 4672   0.027   1.596  11.289
 1259SOL    HW1 4673   0.008   1.500  11.310
 1259SOL    HW2 4674  -0.006   1.654  11.364
 1260SOL     OW 4675   1.689   0.922  11.784
 1260SOL    HW1 4676   1.784   0.893  11.792
 1260SOL    HW2 4677   1.681   0.987  11.709
 1261SOL     OW 4678   1.641   1.108  11.604
 1261SOL    HW1 4679   1.727   1.110  11.552
 1261SOL    HW2 4680   1.655   1.155  11.692
 1262SOL     OW 4681   0.113   0.737  12.769
 1262SOL    HW1 4682   0.201   0.724  12.814
 1262SOL    HW2 4683   0.100   0.834  12.747
 1263SOL     OW 4684   0.613   1.365  11.898
 1263SOL    HW1 4685   0.564   1.278  11.907
 1263SOL    HW2 4686   0.590   1.408  11.811
 1264SOL     OW 4687   1.293   1.228  12.595
 1264SOL    HW1 4688   1.330   1.155  12.537
 1264SOL    HW2 4689   1.345   1.233  12.680
 1265SOL     OW 4690   0.809   0.004  11.674
 1265SOL    HW1 4691   0.849   0.095  11.665
 1265SOL    HW2 4692   0.709   0.012  11.680
 1266SOL     OW 4693   0.197   0.976  12.436
 1266SOL    HW1 4694   0.286   0.931  12.422
 1266SOL    HW2 4695   0.124   0.911  12.417
 1267SOL     OW 4696   1.525   0.999  11.362
 1267SOL    HW1 4697   1.462   0.923  11.375
 1267SOL    HW2 4698   1.573   1.017  11.448
 1268SOL     OW 4699   1.187   1.792  12.788
 1268SOL    HW1 4700   1.211   1.852  12.712
 1268SOL    HW2 4701   1.194   1.697  12.758
 1269SOL     OW 4702   0.317   0.251  12.973
 1269SOL    HW1 4703   0.388   0.322  12.979
 1269SOL    HW2 4704   0.229   0.290  13.001
 1270SOL     OW 4705   1.466   1.417  12.125
 1270SOL    HW1 4706   1.407   1.423  12.205
 1270SOL    HW2 4707   1.451   1.329  12.079
 1271SOL     OW 4708   1.667   1.714  11.744
 1271SOL    HW1 4709   1.626   1.691  11.656
 1271SOL    HW2 4710   1.649   1.640  11.809
 1272SOL     OW 4711   0.598   0.729  11.442
 1272SOL    HW1 4712   0.622   0.798  11.374
 1272SOL    HW2 4713   0.520   0.762  11.496
 1273SOL     OW 4714   1.281   0.345  12.116
 1273SOL    HW1 4715   1.195   0.295  12.103
 1273SOL    HW2 4716   1.343   0.291  12.172
 1274SOL     OW 4717   1.576   1.662  11.479
 1274SOL    HW1 4718   1.665   1.708  11.482
 1274SOL    HW2 4719   1.555   1.638  11.384
 1275SOL     OW 4720   0.807   0.605  12.637
 1275SOL    HW1 4721   0.760   0.602  12.726
 1275SOL    HW2 4722   0.756   0.550  12.571
 1276SOL     OW 4723   1.394   0.469  12.846
 1276SOL    HW1 4724   1.374   0.512  12.934
 1276SOL    HW2 4725   1.472   0.407  12.855
 1277SOL     OW 4726   0.973   0.890  12.744
 1277SOL    HW1 4727   1.019   0.806  12.715
 1277SOL    HW2 4728   0.917   0.924  12.669
 1278SOL     OW 4729   0.991   0.410  12.414
 1278SOL    HW1 4730   0.914   0.444  12.468
 1278SOL    HW2 4731   0.957   0.359  12.335
 1279SOL     OW 4732   1.041   0.701  11.601
 1279SOL    HW1 4733   1.067   0.697  11.697
 1279SOL    HW2 4734   0.956   0.650  11.587
 1280SOL     OW 4735   0.076   0.811  11.961
 1280SOL    HW1 4736   0.175   0.799  11.970
 1280SOL    HW2 4737   0.052   0.906  11.982
 1281SOL     OW 4738   0.130   1.821  12.743
 1281SOL    HW1 4739   0.120   1.806  12.842
 1281SOL    HW2 4740   0.044   1.857  12.707
 1282SOL     OW 4741   0.865   0.348  11.367
 1282SOL    HW1 4742   0.924   0.411  11.318
 1282SOL    HW2 4743   0.884   0.254  11.338
 1283SOL     OW 4744   1.719   0.585  13.003
 1283SOL    HW1 4745   1.693   0.674  12.967
 1283SOL    HW2 4746   1.717   0.517  12.930
 1284SOL     OW 4747   1.362   1.144  11.717
 1284SOL    HW1 4748   1.445   1.115  11.669
 1284SOL    HW2 4749   1.313   1.211  11.661
 1285SOL     OW 4750   0.550   0.196  12.057
 1285SOL    HW1 4751   0.545   0.191  12.157
 1285SOL    HW2 4752   0.552   0.292  12.028
 1286SOL     OW 4753   1.008   1.456  11.649
 1286SOL    HW1 4754   0.962   1.528  11.597
 1286SOL    HW2 4755   1.004   1.476  11.747
 1287SOL     OW 4756   0.351   1.801  12.025
 1287SOL    HW1 4757   0.401   1.715  12.031
 1287SOL    HW2 4758   0.416   1.878  12.022
 1288SOL     OW 4759   1.795   1.066  12.045
 1288SOL    HW1 4760   1.733   1.051  11.969
 1288SOL    HW2 4761   1.743   1.077  12.130
 1289SOL     OW 4762   1.227   1.550  12.678
 1289SOL    HW1 4763   1.233   1.473  12.742
 1289SOL    HW2 4764   1.175   1.524  12.598
 1290SOL     OW 4765   0.321   0.943  11.414
 1290SOL    HW1 4766   0.403   0.982  11.372
 1290SOL    HW2 4767   0.294   0.861  11.365
 1291SOL     OW 4768   1.458   0.735  11.900
 1291SOL    HW1 4769   1.453   0.670  11.975
 1291SOL    HW2 4770   1.538   0.794  11.913
 1292SOL     OW 4771   0.461   1.266  12.899
 1292SOL    HW1 4772   0.411   1.267  12.813
 1292SOL    HW2 4773   0.398   1.248  12.975
 1293SOL     OW 4774   1.111   1.776  11.409
 1293SOL    HW1 4775   1.051   1.714  11.459
 1293SOL    HW2 4776   1.142   1.732  11.324
 1294SOL     OW 4777   0.202   0.285  12.670
 1294SOL    HW1 4778   0.122   0.345  12.657
 1294SOL    HW2 4779   0.192   0.236  12.756
 1295SOL     OW 4780   1.632   1.377  11.253
 1295SOL    HW1 4781   1.600   1.471  11.243
 1295SOL    HW2 4782   1.556   1.314  11.241
 1296SOL     OW 4783   0.464   1.743  11.495
 1296SOL    HW1 4784   0.497   1.782  11.581
 1296SOL    HW2 4785   0.540   1.736  11.430
 1297SOL     OW 4786   1.400   0.107  11.598
 1297SOL    HW1 4787   1.376   0.070  11.508
 1297SOL    HW2 4788   1.499   0.123  11.602
 1298SOL     OW 4789   0.249   1.785  12.413
 1298SOL    HW1 4790   0.306   1.720  12.463
 1298SOL    HW2 4791   0.233   1.752  12.320
 1299SOL     OW 4792   0.940   1.698  12.076
 1299SOL    HW1 4793   1.020   1.641  12.097
 1299SOL    HW2 4794   0.891   1.658  11.999
 1300SOL     OW 4795   0.382   0.700  11.652
 1300SOL    HW1 4796   0.427   0.610  11.649
 1300SOL    HW2 4797   0.288   0.689  11.685
 1301SOL     OW 4798   1.547   0.222  12.901
 1301SOL    HW1 4799   1.542   0.259  12.993
 1301SOL    HW2 4800   1.475   0.153  12.889
 1302SOL     OW 4801   0.614   0.122  11.289
 1302SOL    HW1 4802   0.712   0.100  11.296
 1302SOL    HW2 4803   0.583   0.105  11.196
 1303SOL     OW 4804   0.781   0.264  12.921
 1303SOL    HW1 4805   0.848   0.203  12.964
 1303SOL    HW2 4806   0.708   0.283  12.986
 1304SOL     OW 4807   0.888   1.514  12.367
 1304SOL    HW1 4808   0.865   1.489  12.273
 1304SOL    HW2 4809   0.949   1.445  12.406
 1305SOL     OW 4810   1.351   0.590  12.605
 1305SOL    HW1 4811   1.379   0.547  12.690
 1305SOL    HW2 4812   1.376   0.686  12.606
 1306SOL     OW 4813   0.803   1.402  12.096
 1306SOL    HW1 4814   0.893   1.416  12.054
 1306SOL    HW2 4815   0.732   1.404  12.025
 1307SOL     OW 4816   0.922   0.503  12.071
 1307SOL    HW1 4817   0.897   0.494  11.975
 1307SOL    HW2 4818   0.970   0.421  12.102
 1308SOL     OW 4819   0.539   0.064  11.684
 1308SOL    HW1 4820   0.458   0.065  11.742
 1308SOL    HW2 4821   0.542   0.147  11.629
 1309SOL     OW 4822   1.434   1.188  11.213
 1309SOL    HW1 4823   1.466   1.112  11.270
 1309SOL    HW2 4824   1.342   1.215  11.243
 1310SOL     OW 4825   0.297   0.035  11.343
 1310SOL    HW1 4826   0.346   0.119  11.322
 1310SOL    HW2 4827   0.359  -0.030  11.388
 1311SOL     OW 4828   0.935   0.236  11.652
 1311SOL    HW1 4829   0.887   0.277  11.574
 1311SOL    HW2 4830   1.034   0.234  11.633
 1312SOL     OW 4831   1.076   0.683  12.636
 1312SOL    HW1 4832   0.996   0.622  12.639
 1312SOL    HW2 4833   1.157   0.630  12.612
 1313SOL     OW 4834   1.227   1.570  11.965
 1313SOL    HW1 4835   1.248   1.644  11.900
 1313SOL    HW2 4836   1.295   1.570  12.038
 1314SOL     OW 4837   0.459   1.152  11.913
 1314SOL    HW1 4838   0.388   1.125  11.978
 1314SOL    HW2 4839   0.433   1.124  11.820
 1315SOL     OW 4840   1.271   1.797  11.763
 1315SOL    HW1 4841   1.315   1.861  11.699
 1315SOL    HW2 4842   1.221   1.849  11.833
 1316SOL     OW 4843   1.032   0.549  11.188
 1316SOL    HW1 4844   0.991   0.631  11.149
 1316SOL    HW2 4845   1.096   0.575  11.261
 1317SOL     OW 4846   0.078   0.556  12.558
 1317SOL    HW1 4847   0.170   0.555  12.517
 1317SOL    HW2 4848   0.072   0.630  12.625
 1318SOL     OW 4849   0.561   0.222  12.319
 1318SOL    HW1 4850   0.599   0.138  12.356
 1318SOL    HW2 4851   0.473   0.241  12.363
 1319SOL     OW 4852   0.866   0.454  11.814
 1319SOL    HW1 4853   0.834   0.526  11.752
 1319SOL    HW2 4854   0.890   0.373  11.761
 1320SOL     OW 4855   1.017   0.039  11.925
 1320SOL    HW1 4856   0.945   0.044  11.856
 1320SOL    HW2 4857   0.993  -0.030  11.994
 1321SOL     OW 4858   1.429   1.173  12.039
 1321SOL    HW1 4859   1.374   1.089  12.032
 1321SOL    HW2 4860   1.455   1.202  11.947
 1322SOL     OW 4861   1.466   0.590  12.164
 1322SOL    HW1 4862   1.436   0.495  12.171
 1322SOL    HW2 4863   1.539   0.606  12.230
 1323SOL     OW 4864   1.857   0.833  11.549
 1323SOL    HW1 4865   1.899   0.769  11.613
 1323SOL    HW2 4866   1.819   0.782  11.471
 1324SOL     OW 4867   0.488   1.385  11.346
 1324SOL    HW1 4868   0.401   1.370  11.393
 1324SOL    HW2 4869   0.471   1.411  11.251
 1325SOL     OW 4870   1.664   1.280  11.829
 1325SOL    HW1 4871   1.763   1.288  11.843
 1325SOL    HW2 4872   1.619   1.364  11.860
 1326SOL     OW 4873   1.390   0.575  11.250
 1326SOL    HW1 4874   1.336   0.554  11.331
 1326SOL    HW2 4875   1.481   0.534  11.259
 1327SOL     OW 4876   0.527   0.256  11.500
 1327SOL    HW1 4877   0.554   0.197  11.425
 1327SOL    HW2 4878   0.527   0.351  11.469
 1328SOL     OW 4879   1.754   1.223  12.760
 1328SOL    HW1 4880   1.845   1.184  12.747
 1328SOL    HW2 4881   1.762   1.319  12.784
 1329SOL     OW 4882   1.064   1.347  12.512
 1329SOL    HW1 4883   0.984   1.324  12.567
 1329SOL    HW2 4884   1.147   1.321  12.561
 1330SOL     OW 4885   1.592   1.629  12.797
 1330SOL    HW1 4886   1.619   1.663  12.707
 1330SOL    HW2 4887   1.671   1.591  12.843
 1331SOL     OW 4888   1.111   1.195  12.272
 1331SOL    HW1 4889   1.071   1.239  12.353
 1331SOL    HW2 4890   1.070   1.232  12.189
 1332SOL     OW 4891   1.638   1.099  12.251
 1332SOL    HW1 4892   1.643   1.180  12.310
 1332SOL    HW2 4893   1.552   1.101  12.200
 1333SOL     OW 4894   0.915   0.089  12.574
 1333SOL    HW1 4895   0.940   0.069  12.479
 1333SOL    HW2 4896   0.987   0.145  12.616
 1334SOL     OW 4897   0.980   1.116  12.891
 1334SOL    HW1 4898   0.881   1.122  12.901
 1334SOL    HW2 4899   1.003   1.036  12.835
 1335SOL     OW 4900   0.705   1.050  11.540
 1335SOL    HW1 4901   0.691   1.057  11.639
 1335SOL    HW2 4902   0.789   0.999  11.522
 1336SOL     OW 4903   0.410   0.813  12.423
 1336SOL    HW1 4904   0.496   0.825  12.473
 1336SOL    HW2 4905   0.368   0.726  12.450
 1337SOL     OW 4906   1.274   0.386  12.434
 1337SOL    HW1 4907   1.295   0.460  12.498
 1337SOL    HW2 4908   1.185   0.403  12.391
 1338SOL     OW 4909   0.064   1.564  12.503
 1338SOL    HW1 4910   0.018   1.646  12.469
 1338SOL    HW2 4911   0.162   1.583  12.512
 1339SOL     OW 4912   0.367   1.100  11.673
 1339SOL    HW1 4913   0.360   1.183  11.617
 1339SOL    HW2 4914   0.371   1.020  11.613
 1340SOL     OW 4915   0.566   0.537  12.037
 1340SOL    HW1 4916   0.578   0.603  11.963
 1340SOL    HW2 4917   0.612   0.571  12.120
 1341SOL     OW 4918   1.252   1.348  11.560
 1341SOL    HW1 4919   1.302   1.425  11.600
 1341SOL    HW2 4920   1.157   1.350  11.592
 1342SOL     OW 4921   1.272   1.445  12.314
 1342SOL    HW1 4922   1.319   1.458  12.401
 1342SOL    HW2 4923   1.206   1.371  12.323
 1343SOL     OW 4924   1.582   0.639  11.644
 1343SOL    HW1 4925   1.551   0.700  11.717
 1343SOL    HW2 4926   1.632   0.691  11.575
 1344SOL     OW 4927   0.354   1.510  12.501
 1344SOL    HW1 4928   0.333   1.466  12.414
 1344SOL    HW2 4929   0.451   1.536  12.504
 1345SOL     OW 4930   0.402   0.751  12.770
 1345SOL    HW1 4931   0.470   0.806  12.723
 1345SOL    HW2 4932   0.442   0.663  12.797
 1346SOL     OW 4933   1.587   0.779  12.842
 1346SOL    HW1 4934   1.495   0.817  12.837
 1346SOL    HW2 4935   1.647   0.826  12.777
 1347SOL     OW 4936   1.013   0.105  12.942
 1347SOL    HW1 4937   1.019   0.190  12.890
 1347SOL    HW2 4938   1.045   0.029  12.885
 1348SOL     OW 4939   0.504   0.050  12.912
 1348SOL    HW1 4940   0.462  -0.007  12.842
 1348SOL    HW2 4941   0.438   0.119  12.944
 1349SOL     OW 4942   0.573   0.870  12.201
 1349SOL    HW1 4943   0.617   0.959  12.192
 1349SOL    HW2 4944   0.510   0.870  12.278
 1350SOL     OW 4945   1.360   0.862  12.217
 1350SOL    HW1 4946   1.285   0.862  12.151
 1350SOL    HW2 4947   1.397   0.770  12.226
 1351SOL     OW 4948   1.209   0.525  11.447
 1351SOL    HW1 4949   1.222   0.441  11.501
 1351SOL    HW2 4950   1.180   0.599  11.507
 1352SOL     OW 4951   0.307   0.213  12.403
 1352SOL    HW1 4952   0.284   0.250  12.493
 1352SOL    HW2 4953   0.277   0.118  12.397
 1353SOL     OW 4954   0.037   1.310  12.454
 1353SOL    HW1 4955   0.090   1.261  12.522
 1353SOL    HW2 4956   0.059   1.408  12.459
 1354SOL     OW 4957   0.732   0.634  12.236
 1354SOL    HW1 4958   0.791   0.608  12.160
 1354SOL    HW2 4959   0.704   0.730  12.225
 1355SOL     OW 4960   1.728   0.935  13.026
 1355SOL    HW1 4961   1.682   0.928  12.937
 1355SOL    HW2 4962   1.666   0.979  13.092
 1356SOL     OW 4963   0.307   0.063  11.790
 1356SOL    HW1 4964   0.296   0.157  11.823
 1356SOL    HW2 4965   0.302   0.000  11.867
 1357SOL     OW 4966   1.622   0.367  11.546
 1357SOL    HW1 4967   1.624   0.291  11.610
 1357SOL    HW2 4968   1.574   0.444  11.586
 1358SOL     OW 4969   1.023   0.766  12.138
 1358SOL    HW1 4970   1.038   0.787  12.234
 1358SOL    HW2 4971   0.993   0.671  12.129
 1359SOL     OW 4972   0.980   1.573  12.872
 1359SOL    HW1 4973   0.960   1.617  12.784
 1359SOL    HW2 4974   1.019   1.482  12.856
 1360SOL     OW 4975   1.859   1.518  12.777
 1360SOL    HW1 4976   1.873   1.545  12.682
 1360SOL    HW2 4977   1.942   1.540  12.830
 1361SOL     OW 4978   0.350   0.898  12.976
 1361SOL    HW1 4979   0.426   0.942  13.024
 1361SOL    HW2 4980   0.385   0.851  12.894
 1362SOL     OW 4981   1.540   0.274  11.297
 1362SOL    HW1 4982   1.479   0.199  11.320
 1362SOL    HW2 4983   1.562   0.326  11.380
 1363SOL     OW 4984   1.303   0.838  11.214
 1363SOL    HW1 4985   1.337   0.745  11.229
 1363SOL    HW2 4986   1.321   0.865  11.119
 1364SOL     OW 4987   1.068   1.333  12.021
 1364SOL    HW1 4988   1.075   1.249  11.966
 1364SOL    HW2 4989   1.130   1.402  11.985
 1365SOL     OW 4990   0.319   0.810  12.121
 1365SOL    HW1 4991   0.412   0.846  12.126
 1365SOL    HW2 4992   0.313   0.725  12.173
 1366SOL     OW 4993   0.339   0.509  12.178
 1366SOL    HW1 4994   0.287   0.426  12.161
 1366SOL    HW2 4995   0.416   0.514  12.114
 1367SOL     OW 4996   1.138   0.380  12.850
 1367SOL    HW1 4997   1.093   0.443  12.914
 1367SOL    HW2 4998   1.231   0.411  12.833
 1368SOL     OW 4999   1.160   0.207  12.649
 1368SOL    HW1 5000   1.160   0.271  12.726
 1368SOL    HW2 5001   1.188   0.255  12.566
 1369SOL     OW 5002   0.008   1.326  11.372
 1369SOL    HW1 5003  -0.085   1.347  11.341
 1369SOL    HW2 5004   0.018   1.227  11.385
 1370SOL     OW 5005   0.088   1.801  12.099
 1370SOL    HW1 5006   0.046   1.715  12.072
 1370SOL    HW2 5007   0.182   1.804  12.065
 1371SOL     OW 5008   0.504   1.568  12.082
 1371SOL    HW1 5009   0.570   1.642  12.091
 1371SOL    HW2 5010   0.548   1.489  12.040
 1372SOL     OW 5011   1.002   0.796  12.410
 1372SOL    HW1 5012   1.043   0.764  12.496
 1372SOL    HW2 5013   0.906   0.769  12.407
 1373SOL     OW 5014   0.040   0.544  12.286
 1373SOL    HW1 5015   0.125   0.511  12.245
 1373SOL    HW2 5016   0.053   0.559  12.384
 1374SOL     OW 5017   0.189   0.520  12.894
 1374SOL    HW1 5018   0.248   0.480  12.824
 1374SOL    HW2 5019   0.131   0.591  12.853
 1375SOL     OW 5020   1.369   0.950  12.832
 1375SOL    HW1 5021   1.408   1.039  12.852
 1375SOL    HW2 5022   1.379   0.930  12.735
 1376SOL     OW 5023   0.815   0.572  11.497
 1376SOL    HW1 5024   0.822   0.483  11.451
 1376SOL    HW2 5025   0.721   0.606  11.489
 1377SOL     OW 5026   1.657   0.604  12.378
 1377SOL    HW1 5027   1.619   0.535  12.440
 1377SOL    HW2 5028   1.739   0.568  12.334
 1378SOL     OW 5029   0.252   1.564  12.916
 1378SOL    HW1 5030   0.222   1.621  12.992
 1378SOL    HW2 5031   0.245   1.467  12.942
 1379SOL     OW 5032   0.671   0.464  12.441
 1379SOL    HW1 5033   0.637   0.375  12.411
 1379SOL    HW2 5034   0.697   0.518  12.361
 1380SOL     OW 5035   0.930   1.678  12.637
 1380SOL    HW1 5036   0.906   1.660  12.542
 1380SOL    HW2 5037   0.960   1.772  12.647
 1381SOL     OW 5038   0.473   0.500  11.363
 1381SOL    HW1 5039   0.534   0.580  11.367
 1381SOL    HW2 5040   0.378   0.531  11.370
 1382SOL     OW 5041   0.159   1.137  12.638
 1382SOL    HW1 5042   0.181   1.076  12.714
 1382SOL    HW2 5043   0.169   1.088  12.552
 1383SOL     OW 5044   1.347   1.059  12.406
 1383SOL    HW1 5045   1.371   0.996  12.332
 1383SOL    HW2 5046   1.257   1.099  12.388
 1384SOL     OW 5047   1.302   0.855  11.481
 1384SOL    HW1 5048   1.216   0.824  11.523
 1384SOL    HW2 5049   1.298   0.841  11.382
 1385SOL     OW 5050   1.252   1.731  12.300
 1385SOL    HW1 5051   1.336   1.736  12.246
 1385SOL    HW2 5052   1.229   1.635  12.318
 1386SOL     OW 5053   0.083   1.258  12.194
 1386SOL    HW1 5054   0.078   1.257  12.294
 1386SOL    HW2 5055   0.000   1.217  12.156
 1387SOL     OW 5056   0.688   1.662  12.888
 1387SOL    HW1 5057   0.632   1.743  12.897
 1387SOL    HW2 5058   0.740   1.666  12.802
 1388SOL     OW 5059   1.726   0.135  11.695
 1388SOL    HW1 5060   1.799   0.118  11.628
 1388SOL    HW2 5061   1.695   0.048  11.733
 1389SOL     OW 5062   1.388   1.573  11.649
 1389SOL    HW1 5063   1.455   1.585  11.575
 1389SOL    HW2 5064   1.348   1.662  11.672
 1390SOL     OW 5065   0.130   1.794  13.023
 1390SOL    HW1 5066   0.089   1.720  13.076
 1390SOL    HW2 5067   0.194   1.845  13.081
 1391SOL     OW 5068   1.280   0.927  11.844
 1391SOL    HW1 5069   1.340   0.846  11.846
 1391SOL    HW2 5070   1.320   0.996  11.784
 1392SOL     OW 5071   0.830   1.273  12.594
 1392SOL    HW1 5072   0.825   1.306  12.689
 1392SOL    HW2 5073   0.744   1.292  12.548
 1393SOL     OW 5074   0.672   1.616  11.326
 1393SOL    HW1 5075   0.681   1.626  11.227
 1393SOL    HW2 5076   0.632   1.527  11.347
 1394SOL     OW 5077   1.650   1.720  12.566
 1394SOL    HW1 5078   1.703   1.730  12.482
 1394SOL    HW2 5079   1.623   1.810  12.600
 1395SOL     OW 5080   1.841   0.175  12.135
 1395SOL    HW1 5081   1.880   0.090  12.099
 1395SOL    HW2 5082   1.743   0.177  12.116
 1396SOL     OW 5083   0.263   0.326  11.892
 1396SOL    HW1 5084   0.184   0.377  11.858
 1396SOL    HW2 5085   0.254   0.311  11.990
 1397SOL     OW 5086   1.194   1.612  11.203
 1397SOL    HW1 5087   1.200   1.519  11.240
 1397SOL    HW2 5088   1.135   1.612  11.123
 1398SOL     OW 5089   0.822   1.002  12.544
 1398SOL    HW1 5090   0.862   1.001  12.452
 1398SOL    HW2 5091   0.832   1.094  12.584
 1399SOL     OW 5092   0.916   0.910  11.463
 1399SOL    HW1 5093   0.979   0.948  11.395
 1399SOL    HW2 5094   0.956   0.827  11.502
 1400SOL     OW 5095   1.504   1.607  11.216
 1400SOL    HW1 5096   1.412   1.644  11.223
 1400SOL    HW2 5097   1.542   1.627  11.126
 1401SOL     OW 5098   0.372   1.288  12.662
 1401SOL    HW1 5099   0.359   1.381  12.628
 1401SOL    HW2 5100   0.288   1.236  12.649
 1402SOL     OW 5101   1.614   1.292  12.461
 1402SOL    HW1 5102   1.674   1.295  12.541
 1402SOL    HW2 5103   1.539   1.356  12.474
 1403SOL     OW 5104   1.039   1.098  11.868
 1403SOL    HW1 5105   0.969   1.051  11.922
 1403SOL    HW2 5106   1.098   1.030  11.825
 1404SOL     OW 5107   1.014   0.236  12.143
 1404SOL    HW1 5108   1.006   0.200  12.050
 1404SOL    HW2 5109   1.012   0.160  12.208
 1405SOL     OW 5110   0.590   1.487  11.663
 1405SOL    HW1 5111   0.632   1.429  11.593
 1405SOL    HW2 5112   0.546   1.566  11.619
 1406SOL     OW 5113   1.709   0.385  12.553
 1406SOL    HW1 5114   1.782   0.454  12.557
 1406SOL    HW2 5115   1.737   0.310  12.494
 1407SOL     OW 5116   0.255   1.348  11.462
 1407SOL    HW1 5117   0.159   1.349  11.435
 1407SOL    HW2 5118   0.267   1.401  11.546
 1408SOL     OW 5119   0.105   1.013  12.898
 1408SOL    HW1 5120   0.028   0.980  12.952
 1408SOL    HW2 5121   0.190   0.983  12.940
 1409SOL     OW 5122   0.672   0.203  12.661
 1409SOL    HW1 5123   0.762   0.187  12.621
 1409SOL    HW2 5124   0.680   0.208  12.760
 1410SOL     OW 5125   0.075   0.345  11.205
 1410SOL    HW1 5126  -0.017   0.317  11.176
 1410SOL    HW2 5127   0.106   0.422  11.149
 1411SOL     OW 5128   1.440   0.856  12.570
 1411SOL    HW1 5129   1.383   0.908  12.507
 1411SOL    HW2 5130   1.536   0.868  12.546
 1412SOL     OW 5131   0.072   0.166  11.490
 1412SOL    HW1 5132   0.055   0.249  11.436
 1412SOL    HW2 5133   0.162   0.129  11.468
 1413SOL     OW 5134   1.183   1.335  11.291
 1413SOL    HW1 5135   1.084   1.324  11.293
 1413SOL    HW2 5136   1.217   1.350  11.384
 1414SOL     OW 5137   0.613   0.842  12.603
 1414SOL    HW1 5138   0.669   0.923  12.586
 1414SOL    HW2 5139   0.672   0.762  12.606
 1415SOL     OW 5140   1.493   1.767  12.131
 1415SOL    HW1 5141   1.526   1.831  12.062
 1415SOL    HW2 5142   1.559   1.761  12.206
 1416SOL     OW 5143   0.716   0.565  12.880
 1416SOL    HW1 5144   0.735   0.630  12.954
 1416SOL    HW2 5145   0.776   0.485  12.889
 1417SOL     OW 5146   1.450   1.220  12.805
 1417SOL    HW1 5147   1.441   1.210  12.904
 1417SOL    HW2 5148   1.546   1.213  12.779
 1418SOL     OW 5149   0.390   1.741  12.732
 1418SOL    HW1 5150   0.299   1.782  12.730
 1418SOL    HW2 5151   0.383   1.647  12.764
 1419SOL     OW 5152   1.674   0.883  12.426
 1419SOL    HW1 5153   1.647   0.794  12.389
 1419SOL    HW2 5154   1.675   0.951  12.353
 1420SOL     OW 5155   1.225   0.325  11.621
 1420SOL    HW1 5156   1.290   0.251  11.610
 1420SOL    HW2 5157   1.245   0.375  11.705
 1421SOL     OW 5158   0.594   0.745  11.824
 1421SOL    HW1 5159   0.644   0.830  11.805
 1421SOL    HW2 5160   0.506   0.747  11.776
 1422SOL     OW 5161   1.777   0.342  12.814
 1422SOL    HW1 5162   1.760   0.373  12.720
 1422SOL    HW2 5163   1.693   0.305  12.852
 1423SOL     OW 5164   1.730   0.934  12.689
 1423SOL    HW1 5165   1.768   1.025  12.704
 1423SOL    HW2 5166   1.722   0.917  12.590
 1424SOL     OW 5167   0.859   1.374  11.188
 1424SOL    HW1 5168   0.813   1.389  11.276
 1424SOL    HW2 5169   0.903   1.459  11.158
 1425SOL     OW 5170   0.661   1.790  12.125
 1425SOL    HW1 5171   0.615   1.878  12.112
 1425SOL    HW2 5172   0.760   1.802  12.118
 1426SOL     OW 5173   0.859   0.956  12.033
 1426SOL    HW1 5174   0.913   0.887  12.081
 1426SOL    HW2 5175   0.827   1.025  12.099
 1427SOL     OW 5176   1.083   0.984  11.259
 1427SOL    HW1 5177   1.060   1.037  11.177
 1427SOL    HW2 5178   1.164   0.928  11.240
 1428SOL     OW 5179   1.861   1.569  12.023
 1428SOL    HW1 5180   1.790   1.557  11.953
 1428SOL    HW2 5181   1.862   1.490  12.083
 1429SOL     OW 5182   0.221   1.314  13.016
 1429SOL    HW1 5183   0.156   1.241  12.995
 1429SOL    HW2 5184   0.225   1.328  13.114
 1430SOL     OW 5185   0.079   1.240  11.825
 1430SOL    HW1 5186   0.078   1.193  11.913
 1430SOL    HW2 5187   0.161   1.212  11.774
 1431SOL     OW 5188   0.672   1.391  12.796
 1431SOL    HW1 5189   0.594   1.341  12.834
 1431SOL    HW2 5190   0.669   1.486  12.827
 1432SOL     OW 5191   1.824   0.192  12.399
 1432SOL    HW1 5192   1.820   0.102  12.443
 1432SOL    HW2 5193   1.827   0.181  12.300
 1433SOL     OW 5194   0.428   0.424  11.692
 1433SOL    HW1 5195   0.458   0.352  11.630
 1433SOL    HW2 5196   0.389   0.384  11.775
 1434SOL     OW 5197   1.705   1.487  12.276
 1434SOL    HW1 5198   1.612   1.462  12.249
 1434SOL    HW2 5199   1.731   1.437  12.358
 1435SOL     OW 5200   0.317   0.547  12.452
 1435SOL    HW1 5201   0.355   0.488  12.524
 1435SOL    HW2 5202   0.357   0.521  12.364
 1436SOL     OW 5203   0.812   1.586  11.859
 1436SOL    HW1 5204   0.844   1.596  11.765
 1436SOL    HW2 5205   0.733   1.524  11.861
 1437SOL     OW 5206   1.424   0.214  12.284
 1437SOL    HW1 5207   1.476   0.149  12.339
 1437SOL    HW2 5208   1.375   0.277  12.345
 1438SOL     OW 5209   1.001   0.034  12.326
 1438SOL    HW1 5210   0.938  -0.038  12.295
 1438SOL    HW2 5211   1.094  -0.002  12.326
 1439SOL     OW 5212   0.770   1.330  11.473
 1439SOL    HW1 5213   0.724   1.243  11.490
 1439SOL    HW2 5214   0.861   1.327  11.514
 1440SOL     OW 5215   0.618   1.567  12.456
 1440SOL    HW1 5216   0.613   1.649  12.513
 1440SOL    HW2 5217   0.707   1.564  12.411
 1441SOL     OW 5218   1.352   0.052  11.340
 1441SOL    HW1 5219   1.387   0.011  11.256
 1441SOL    HW2 5220   1.262   0.014  11.360
 1442SOL     OW 5221   1.300   0.453  11.863
 1442SOL    HW1 5222   1.241   0.533  11.867
 1442SOL    HW2 5223   1.315   0.418  11.956
 1443SOL     OW 5224   1.593   0.221  12.054
 1443SOL    HW1 5225   1.509   0.220  12.108
 1443SOL    HW2 5226   1.595   0.304  11.998
 1444SOL     OW 5227   0.039   1.077  11.472
 1444SOL    HW1 5228   0.138   1.066  11.463
 1444SOL    HW2 5229  -0.001   0.991  11.504
 1445SOL     OW 5230   0.875   1.646  11.509
 1445SOL    HW1 5231   0.798   1.611  11.455
 1445SOL    HW2 5232   0.843   1.717  11.571
 1446SOL     OW 5233   0.230   0.628  13.147
 1446SOL    HW1 5234   0.137   0.626  13.184
 1446SOL    HW2 5235   0.231   0.589  13.055
 1447SOL     OW 5236   0.225   0.275  14.030
 1447SOL    HW1 5237   0.260   0.258  14.122
 1447SOL    HW2 5238   0.137   0.230  14.018
 1448SOL     OW 5239   0.019   0.368  13.681
 1448SOL    HW1 5240  -0.063   0.411  13.720
 1448SOL    HW2 5241  -0.009   0.295  13.618
 1449SOL     OW 5242   1.555   1.511  13.737
 1449SOL    HW1 5243   1.498   1.495  13.818
 1449SOL    HW2 5244   1.496   1.521  13.657
 1450SOL     OW 5245   1.135   0.703  13.751
 1450SOL    HW1 5246   1.192   0.781  13.726
 1450SOL    HW2 5247   1.075   0.729  13.827
 1451SOL     OW 5248   1.755   0.607  13.265
 1451SOL    HW1 5249   1.743   0.594  13.166
 1451SOL    HW2 5250   1.725   0.526  13.314
 1452SOL     OW 5251   0.685   1.012  13.699
 1452SOL    HW1 5252   0.754   0.996  13.769
 1452SOL    HW2 5253   0.612   1.069  13.737
 1453SOL     OW 5254   1.603   0.447  13.771
 1453SOL    HW1 5255   1.529   0.493  13.721
 1453SOL    HW2 5256   1.654   0.515  13.824
 1454SOL     OW 5257   0.231   1.713  13.517
 1454SOL    HW1 5258   0.265   1.790  13.571
 1454SOL    HW2 5259   0.275   1.713  13.427
 1455SOL     OW 5260   0.230   1.434  13.572
 1455SOL    HW1 5261   0.204   1.530  13.572
 1455SOL    HW2 5262   0.159   1.380  13.617
 1456SOL     OW 5263   0.240   1.091  13.920
 1456SOL    HW1 5264   0.254   1.007  13.972
 1456SOL    HW2 5265   0.185   1.155  13.975
 1457SOL     OW 5266   0.606   0.964  13.157
 1457SOL    HW1 5267   0.613   1.048  13.103
 1457SOL    HW2 5268   0.652   0.977  13.245
 1458SOL     OW 5269   0.122   0.643  13.597
 1458SOL    HW1 5270   0.077   0.555  13.614
 1458SOL    HW2 5271   0.121   0.697  13.681
 1459SOL     OW 5272   0.027   1.596  13.151
 1459SOL    HW1 5273   0.008   1.500  13.172
 1459SOL    HW2 5274  -0.006   1.654  13.226
 1460SOL     OW 5275   1.689   0.922  13.646
 1460SOL    HW1 5276   1.784   0.893  13.654
 1460SOL    HW2 5277   1.681   0.987  13.571
 1461SOL     OW 5278   1.641   1.108  13.466
 1461SOL    HW1 5279   1.727   1.110  13.414
 1461SOL    HW2 5280   1.655   1.155  13.554
 1462SOL     OW 5281   0.613   1.365  13.760
 1462SOL    HW1 5282   0.564   1.278  13.769
 1462SOL    HW2 5283   0.590   1.408  13.673
 1463SOL     OW 5284   0.809   0.004  13.536
 1463SOL    HW1 5285   0.849   0.095  13.527
 1463SOL    HW2 5286   0.709   0.012  13.542
 1464SOL     OW 5287   1.525   0.999  13.224
 1464SOL    HW1 5288   1.462   0.923  13.237
 1464SOL    HW2 5289   1.573   1.017  13.310
 1465SOL     OW 5290   1.667   1.714  13.606
 1465SOL    HW1 5291   1.626   1.691  13.518
 1465SOL    HW2 5292   1.649   1.640  13.671
 1466SOL     OW 5293   0.598   0.729  13.304
 1466SOL    HW1 5294   0.622   0.798  13.236
 1466SOL    HW2 5295   0.520   0.762  13.358
 1467SOL     OW 5296   1.281   0.345  13.978
 1467SOL    HW1 5297   1.195   0.295  13.965
 1467SOL    HW2 5298   1.343   0.291  14.034
 1468SOL     OW 5299   1.576   1.662  13.341
 1468SOL    HW1 5300   1.665   1.708  13.344
 1468SOL    HW2 5301   1.555   1.638  13.246
 1469SOL     OW 5302   1.041   0.701  13.463
 1469SOL    HW1 5303   1.067   0.697  13.559
 1469SOL    HW2 5304   0.956   0.650  13.449
 1470SOL     OW 5305   0.076   0.811  13.823
 1470SOL    HW1 5306   0.175   0.799  13.832
 1470SOL    HW2 5307   0.052   0.906  13.844
 1471SOL     OW 5308   0.865   0.348  13.229
 1471SOL    HW1 5309   0.924   0.411  13.180
 1471SOL    HW2 5310   0.884   0.254  13.200
 1472SOL     OW 5311   1.362   1.144  13.579
 1472SOL    HW1 5312   1.445   1.115  13.531
 1472SOL    HW2 5313   1.313   1.211  13.523
 1473SOL     OW 5314   1.008   1.456  13.511
 1473SOL    HW1 5315   0.962   1.528  13.459
 1473SOL    HW2 5316   1.004   1.476  13.609
 1474SOL     OW 5317   0.351   1.801  13.887
 1474SOL    HW1 5318   0.401   1.715  13.893
 1474SOL    HW2 5319   0.416   1.878  13.884
 1475SOL     OW 5320   1.795   1.066  13.907
 1475SOL    HW1 5321   1.733   1.051  13.831
 1475SOL    HW2 5322   1.743   1.077  13.992
 1476SOL     OW 5323   0.321   0.943  13.276
 1476SOL    HW1 5324   0.403   0.982  13.234
 1476SOL    HW2 5325   0.294   0.861  13.227
 1477SOL     OW 5326   1.458   0.735  13.762
 1477SOL    HW1 5327   1.453   0.670  13.837
 1477SOL    HW2 5328   1.538   0.794  13.775
 1478SOL     OW 5329   1.111   1.776  13.271
 1478SOL    HW1 5330   1.051   1.714  13.321
 1478SOL    HW2 5331   1.142   1.732  13.186
 1479SOL     OW 5332   1.632   1.377  13.115
 1479SOL    HW1 5333   1.600   1.471  13.105
 1479SOL    HW2 5334   1.556   1.314  13.103
 1480SOL     OW 5335   0.464   1.743  13.357
 1480SOL    HW1 5336   0.497   1.782  13.443
 1480SOL    HW2 5337   0.540   1.736  13.292
 1481SOL     OW 5338   1.400   0.107  13.460
 1481SOL    HW1 5339   1.376   0.070  13.370
 1481SOL    HW2 5340   1.499   0.123  13.464
 1482SOL     OW 5341   0.940   1.698  13.938
 1482SOL    HW1 5342   1.020   1.641  13.959
 1482SOL    HW2 5343   0.891   1.658  13.861
 1483SOL     OW 5344   0.382   0.700  13.514
 1483SOL    HW1 5345   0.427   0.610  13.511
 1483SOL    HW2 5346   0.288   0.689  13.547
 1484SOL     OW 5347   0.614   0.122  13.151
 1484SOL    HW1 5348   0.712   0.100  13.158
 1484SOL    HW2 5349   0.583   0.105  13.058
 1485SOL     OW 5350   0.539   0.064  13.546
 1485SOL    HW1 5351   0.458   0.065  13.604
 1485SOL    HW2 5352   0.542   0.147  13.491
 1486SOL     OW 5353   1.434   1.188  13.075
 1486SOL    HW1 5354   1.466   1.112  13.132
 1486SOL    HW2 5355   1.342   1.215  13.105
 1487SOL     OW 5356   0.297   0.035  13.205
 1487SOL    HW1 5357   0.346   0.119  13.184
 1487SOL    HW2 5358   0.359  -0.030  13.250
 1488SOL     OW 5359   0.935   0.236  13.514
 1488SOL    HW1 5360   0.887   0.277  13.436
 1488SOL    HW2 5361   1.034   0.234  13.495
 1489SOL     OW 5362   0.459   1.152  13.775
 1489SOL    HW1 5363   0.388   1.125  13.840
 1489SOL    HW2 5364   0.433   1.124  13.682
 1490SOL     OW 5365   1.271   1.797  13.625
 1490SOL    HW1 5366   1.315   1.861  13.561
 1490SOL    HW2 5367   1.221   1.849  13.695
 1491SOL     OW 5368   1.032   0.549  13.050
 1491SOL    HW1 5369   0.991   0.631  13.011
 1491SOL    HW2 5370   1.096   0.575  13.123
 1492SOL     OW 5371   0.866   0.454  13.676
 1492SOL    HW1 5372   0.834   0.526  13.614
 1492SOL    HW2 5373   0.890   0.373  13.623
 1493SOL     OW 5374   1.017   0.039  13.787
 1493SOL    HW1 5375   0.945   0.044  13.718
 1493SOL    HW2 5376   0.993  -0.030  13.856
 1494SOL     OW 5377   1.857   0.833  13.411
 1494SOL    HW1 5378   1.899   0.769  13.475
 1494SOL    HW2 5379   1.819   0.782  13.333
 1495SOL     OW 5380   0.488   1.385  13.208
 1495SOL    HW1 5381   0.401   1.370  13.255
 1495SOL    HW2 5382   0.471   1.411  13.113
 1496SOL     OW 5383   1.664   1.280  13.691
 1496SOL    HW1 5384   1.763   1.288  13.705
 1496SOL    HW2 5385   1.619   1.364  13.722
 1497SOL     OW 5386   1.390   0.575  13.112
 1497SOL    HW1 5387   1.336   0.554  13.193
 1497SOL    HW2 5388   1.481   0.534  13.121
 1498SOL     OW 5389   0.527   0.256  13.362
 1498SOL    HW1 5390   0.554   0.197  13.287
 1498SOL    HW2 5391   0.527   0.351  13.331
 1499SOL     OW 5392   0.705   1.050  13.402
 1499SOL    HW1 5393   0.691   1.057  13.501
 1499SOL    HW2 5394   0.789   0.999  13.384
 1500SOL     OW 5395   0.367   1.100  13.535
 1500SOL    HW1 5396   0.360   1.183  13.479
 1500SOL    HW2 5397   0.371   1.020  13.475
 1501SOL     OW 5398   0.566   0.537  13.899
 1501SOL    HW1 5399   0.578   0.603  13.825
 1501SOL    HW2 5400   0.612   0.571  13.982
 1502SOL     OW 5401   1.252   1.348  13.422
 1502SOL    HW1 5402   1.302   1.425  13.462
 1502SOL    HW2 5403   1.157   1.350  13.454
 1503SOL     OW 5404   1.582   0.639  13.506
 1503SOL    HW1 5405   1.551   0.700  13.579
 1503SOL    HW2 5406   1.632   0.691  13.437
 1504SOL     OW 5407   1.209   0.525  13.309
 1504SOL    HW1 5408   1.222   0.441  13.363
 1504SOL    HW2 5409   1.180   0.599  13.369
 1505SOL     OW 5410   0.307   0.063  13.652
 1505SOL    HW1 5411   0.296   0.157  13.685
 1505SOL    HW2 5412   0.302   0.000  13.729
 1506SOL     OW 5413   1.622   0.367  13.408
 1506SOL    HW1 5414   1.624   0.291  13.472
 1506SOL    HW2 5415   1.574   0.444  13.448
 1507SOL     OW 5416   1.540   0.274  13.159
 1507SOL    HW1 5417   1.479   0.199  13.182
 1507SOL    HW2 5418   1.562   0.326  13.242
 1508SOL     OW 5419   1.303   0.838  13.076
 1508SOL    HW1 5420   1.337   0.745  13.091
 1508SOL    HW2 5421   1.321   0.865  12.981
 1509SOL     OW 5422   0.008   1.326  13.234
 1509SOL    HW1 5423  -0.085   1.347  13.203
 1509SOL    HW2 5424   0.018   1.227  13.247
 1510SOL     OW 5425   0.815   0.572  13.359
 1510SOL    HW1 5426   0.822   0.483  13.313
 1510SOL    HW2 5427   0.721   0.606  13.351
 1511SOL     OW 5428   0.473   0.500  13.225
 1511SOL    HW1 5429   0.534   0.580  13.229
 1511SOL    HW2 5430   0.378   0.531  13.232
 1512SOL     OW 5431   1.302   0.855  13.343
 1512SOL    HW1 5432   1.216   0.824  13.385
 1512SOL    HW2 5433   1.298   0.841  13.244
 1513SOL     OW 5434   1.726   0.135  13.557
 1513SOL    HW1 5435   1.799   0.118  13.490
 1513SOL    HW2 5436   1.695   0.048  13.595
 1514SOL     OW 5437   1.388   1.573  13.511
 1514SOL    HW1 5438   1.455   1.585  13.437
 1514SOL    HW2 5439   1.348   1.662  13.534
 1515SOL     OW 5440   1.280   0.927  13.706
 1515SOL    HW1 5441   1.340   0.846  13.708
 1515SOL    HW2 5442   1.320   0.996  13.646
 1516SOL     OW 5443   0.672   1.616  13.188
 1516SOL    HW1 5444   0.681   1.626  13.089
 1516SOL    HW2 5445   0.632   1.527  13.209
 1517SOL     OW 5446   1.841   0.175  13.997
 1517SOL    HW1 5447   1.880   0.090  13.961
 1517SOL    HW2 5448   1.743   0.177  13.978
 1518SOL     OW 5449   0.263   0.326  13.754
 1518SOL    HW1 5450   0.184   0.377  13.720
 1518SOL    HW2 5451   0.254   0.311  13.852
 1519SOL     OW 5452   1.194   1.612  13.065
 1519SOL    HW1 5453   1.200   1.519  13.102
 1519SOL    HW2 5454   1.135   1.612  12.985
 1520SOL     OW 5455   0.916   0.910  13.325
 1520SOL    HW1 5456   0.979   0.948  13.257
 1520SOL    HW2 5457   0.956   0.827  13.364
 1521SOL     OW 5458   1.504   1.607  13.078
 1521SOL    HW1 5459   1.412   1.644  13.085
 1521SOL    HW2 5460   1.542   1.627  12.988
 1522SOL     OW 5461   1.039   1.098  13.730
 1522SOL    HW1 5462   0.969   1.051  13.784
 1522SOL    HW2 5463   1.098   1.030  13.687
 1523SOL     OW 5464   0.590   1.487  13.525
 1523SOL    HW1 5465   0.632   1.429  13.455
 1523SOL    HW2 5466   0.546   1.566  13.481
 1524SOL     OW 5467   0.255   1.348  13.324
 1524SOL    HW1 5468   0.159   1.349  13.297
 1524SOL    HW2 5469   0.267   1.401  13.408
 1525SOL     OW 5470   0.075   0.345  13.067
 1525SOL    HW1 5471  -0.017   0.317  13.038
 1525SOL    HW2 5472   0.106   0.422  13.011
 1526SOL     OW 5473   0.072   0.166  13.352
 1526SOL    HW1 5474   0.055   0.249  13.298
 1526SOL    HW2 5475   0.162   0.129  13.330
 1527SOL     OW 5476   1.183   1.335  13.153
 1527SOL    HW1 5477   1.084   1.324  13.155
 1527SOL    HW2 5478   1.217   1.350  13.246
 1528SOL     OW 5479   1.225   0.325  13.483
 1528SOL    HW1 5480   1.290   0.251  13.472
 1528SOL    HW2 5481   1.245   0.375  13.567
 1529SOL     OW 5482   0.594   0.745  13.686
 1529SOL    HW1 5483   0.644   0.830  13.667
 1529SOL    HW2 5484   0.506   0.747  13.638
 1530SOL     OW 5485   0.859   1.374  13.050
 1530SOL    HW1 5486   0.813   1.389  13.138
 1530SOL    HW2 5487   0.903   1.459  13.020
 1531SOL     OW 5488   0.661   1.790  13.987
 1531SOL    HW1 5489   0.615   1.878  13.974
 1531SOL    HW2 5490   0.760   1.802  13.980
 1532SOL     OW 5491   0.859   0.956  13.895
 1532SOL    HW1 5492   0.913   0.887  13.943
 1532SOL    HW2 5493   0.827   1.025  13.961
 1533SOL     OW 5494   1.083   0.984  13.121
 1533SOL    HW1 5495   1.060   1.037  13.039
 1533SOL    HW2 5496   1.164   0.928  13.102
 1534SOL     OW 5497   0.079   1.240  13.687
 1534SOL    HW1 5498   0.078   1.193  13.775
 1534SOL    HW2 5499   0.161   1.212  13.636
 1535SOL     OW 5500   0.428   0.424  13.554
 1535SOL    HW1 5501   0.458   0.352  13.492
 1535SOL    HW2 5502   0.389   0.384  13.637
 1536SOL     OW 5503   1.705   1.487  14.138
 1536SOL    HW1 5504   1.612   1.462  14.111
 1536SOL    HW2 5505   1.731   1.437  14.220
 1537SOL     OW 5506   0.812   1.586  13.721
 1537SOL    HW1 5507   0.844   1.596  13.627
 1537SOL    HW2 5508   0.733   1.524  13.723
 1538SOL     OW 5509   0.770   1.330  13.335
 1538SOL    HW1 5510   0.724   1.243  13.352
 1538SOL    HW2 5511   0.861   1.327  13.376
 1539SOL     OW 5512   1.352   0.052  13.202
 1539SOL    HW1 5513   1.387   0.011  13.118
 1539SOL    HW2 5514   1.262   0.014  13.222
 1540SOL     OW 5515   1.300   0.453  13.725
 1540SOL    HW1 5516   1.241   0.533  13.729
 1540SOL    HW2 5517   1.315   0.418  13.818
 1541SOL     OW 5518   0.039   1.077  13.334
 1541SOL    HW1 5519   0.138   1.066  13.325
 1541SOL    HW2 5520  -0.001   0.991  13.366
 1542SOL     OW 5521   0.875   1.646  13.371
 1542SOL    HW1 5522   0.798   1.611  13.317
 1542SOL    HW2 5523   0.843   1.717  13.433
 1543SOL     OW 5524   0.230   2.490   0.113
 1543SOL    HW1 5525   0.137   2.488   0.150
 1543SOL    HW2 5526   0.231   2.451   0.021
 1544SOL     OW 5527   0.225   2.137   0.996
 1544SOL    HW1 5528   0.260   2.120   1.088
 1544SOL    HW2 5529   0.137   2.092   0.984
 1545SOL     OW 5530   0.019   2.230   0.647
 1545SOL    HW1 5531  -0.063   2.273   0.686
 1545SOL    HW2 5532  -0.009   2.157   0.584
 1546SOL     OW 5533   0.569   3.137   1.165
 1546SOL    HW1 5534   0.476   3.130   1.128
 1546SOL    HW2 5535   0.580   3.226   1.209
 1547SOL     OW 5536   1.555   3.373   0.703
 1547SOL    HW1 5537   1.498   3.357   0.784
 1547SOL    HW2 5538   1.496   3.383   0.623
 1548SOL     OW 5539   1.135   2.565   0.717
 1548SOL    HW1 5540   1.192   2.643   0.692
 1548SOL    HW2 5541   1.075   2.591   0.793
 1549SOL     OW 5542   1.755   2.469   0.231
 1549SOL    HW1 5543   1.743   2.456   0.132
 1549SOL    HW2 5544   1.725   2.388   0.280
 1550SOL     OW 5545   0.768   3.006   1.023
 1550SOL    HW1 5546   0.690   3.023   1.083
 1550SOL    HW2 5547   0.802   3.093   0.987
 1551SOL     OW 5548   0.850   2.660   1.823
 1551SOL    HW1 5549   0.846   2.736   1.888
 1551SOL    HW2 5550   0.872   2.696   1.732
 1552SOL     OW 5551   0.685   2.874   0.665
 1552SOL    HW1 5552   0.754   2.858   0.735
 1552SOL    HW2 5553   0.612   2.931   0.703
 1553SOL     OW 5554   0.686   3.023   1.803
 1553SOL    HW1 5555   0.746   3.102   1.817
 1553SOL    HW2 5556   0.600   3.054   1.762
 1554SOL     OW 5557   0.335   3.297   1.061
 1554SOL    HW1 5558   0.257   3.266   1.008
 1554SOL    HW2 5559   0.393   3.355   1.004
 1555SOL     OW 5560   1.460   3.367   1.339
 1555SOL    HW1 5561   1.484   3.461   1.365
 1555SOL    HW2 5562   1.444   3.313   1.421
 1556SOL     OW 5563   0.438   2.254   1.499
 1556SOL    HW1 5564   0.520   2.198   1.508
 1556SOL    HW2 5565   0.357   2.196   1.503
 1557SOL     OW 5566   1.603   2.309   0.737
 1557SOL    HW1 5567   1.529   2.355   0.687
 1557SOL    HW2 5568   1.654   2.377   0.790
 1558SOL     OW 5569   0.231   3.575   0.483
 1558SOL    HW1 5570   0.265   3.652   0.537
 1558SOL    HW2 5571   0.275   3.575   0.393
 1559SOL     OW 5572   1.127   3.203   1.690
 1559SOL    HW1 5573   1.174   3.203   1.778
 1559SOL    HW2 5574   1.079   3.116   1.679
 1560SOL     OW 5575   0.230   3.296   0.538
 1560SOL    HW1 5576   0.204   3.392   0.538
 1560SOL    HW2 5577   0.159   3.242   0.583
 1561SOL     OW 5578   0.240   2.953   0.886
 1561SOL    HW1 5579   0.254   2.869   0.938
 1561SOL    HW2 5580   0.185   3.017   0.941
 1562SOL     OW 5581   0.620   3.648   1.439
 1562SOL    HW1 5582   0.528   3.631   1.474
 1562SOL    HW2 5583   0.648   3.740   1.465
 1563SOL     OW 5584   0.606   2.826   0.123
 1563SOL    HW1 5585   0.613   2.910   0.069
 1563SOL    HW2 5586   0.652   2.839   0.211
 1564SOL     OW 5587   1.594   1.976   1.480
 1564SOL    HW1 5588   1.576   2.043   1.408
 1564SOL    HW2 5589   1.591   2.022   1.569
 1565SOL     OW 5590   0.122   2.505   0.563
 1565SOL    HW1 5591   0.077   2.417   0.580
 1565SOL    HW2 5592   0.121   2.559   0.647
 1566SOL     OW 5593   1.842   3.629   0.359
 1566SOL    HW1 5594   1.896   3.600   0.439
 1566SOL    HW2 5595   1.872   3.719   0.330
 1567SOL     OW 5596   0.027   3.458   0.117
 1567SOL    HW1 5597   0.008   3.362   0.138
 1567SOL    HW2 5598  -0.006   3.516   0.192
 1568SOL     OW 5599   1.689   2.784   0.612
 1568SOL    HW1 5600   1.784   2.755   0.620
 1568SOL    HW2 5601   1.681   2.849   0.537
 1569SOL     OW 5602   1.641   2.970   0.432
 1569SOL    HW1 5603   1.727   2.972   0.380
 1569SOL    HW2 5604   1.655   3.017   0.520
 1570SOL     OW 5605   0.113   2.599   1.597
 1570SOL    HW1 5606   0.201   2.586   1.642
 1570SOL    HW2 5607   0.100   2.696   1.575
 1571SOL     OW 5608   0.613   3.227   0.726
 1571SOL    HW1 5609   0.564   3.140   0.735
 1571SOL    HW2 5610   0.590   3.270   0.639
 1572SOL     OW 5611   1.293   3.090   1.423
 1572SOL    HW1 5612   1.330   3.017   1.365
 1572SOL    HW2 5613   1.345   3.095   1.508
 1573SOL     OW 5614   0.809   1.866   0.502
 1573SOL    HW1 5615   0.849   1.957   0.493
 1573SOL    HW2 5616   0.709   1.874   0.508
 1574SOL     OW 5617   0.197   2.838   1.264
 1574SOL    HW1 5618   0.286   2.793   1.250
 1574SOL    HW2 5619   0.124   2.773   1.245
 1575SOL     OW 5620   1.525   2.861   0.190
 1575SOL    HW1 5621   1.462   2.785   0.203
 1575SOL    HW2 5622   1.573   2.879   0.276
 1576SOL     OW 5623   1.187   3.654   1.616
 1576SOL    HW1 5624   1.211   3.714   1.540
 1576SOL    HW2 5625   1.194   3.559   1.586
 1577SOL     OW 5626   0.317   2.113   1.801
 1577SOL    HW1 5627   0.388   2.184   1.807
 1577SOL    HW2 5628   0.229   2.152   1.829
 1578SOL     OW 5629   1.466   3.279   0.953
 1578SOL    HW1 5630   1.407   3.285   1.033
 1578SOL    HW2 5631   1.451   3.191   0.907
 1579SOL     OW 5632   1.667   3.576   0.572
 1579SOL    HW1 5633   1.626   3.553   0.484
 1579SOL    HW2 5634   1.649   3.502   0.637
 1580SOL     OW 5635   0.598   2.591   0.270
 1580SOL    HW1 5636   0.622   2.660   0.202
 1580SOL    HW2 5637   0.520   2.624   0.324
 1581SOL     OW 5638   1.281   2.207   0.944
 1581SOL    HW1 5639   1.195   2.157   0.931
 1581SOL    HW2 5640   1.343   2.153   1.000
 1582SOL     OW 5641   1.576   3.524   0.307
 1582SOL    HW1 5642   1.665   3.570   0.310
 1582SOL    HW2 5643   1.555   3.500   0.212
 1583SOL     OW 5644   0.807   2.467   1.465
 1583SOL    HW1 5645   0.760   2.464   1.554
 1583SOL    HW2 5646   0.756   2.412   1.399
 1584SOL     OW 5647   1.394   2.331   1.674
 1584SOL    HW1 5648   1.374   2.374   1.762
 1584SOL    HW2 5649   1.472   2.269   1.683
 1585SOL     OW 5650   0.973   2.752   1.572
 1585SOL    HW1 5651   1.019   2.668   1.543
 1585SOL    HW2 5652   0.917   2.786   1.497
 1586SOL     OW 5653   0.991   2.272   1.242
 1586SOL    HW1 5654   0.914   2.306   1.296
 1586SOL    HW2 5655   0.957   2.221   1.163
 1587SOL     OW 5656   1.041   2.563   0.429
 1587SOL    HW1 5657   1.067   2.559   0.525
 1587SOL    HW2 5658   0.956   2.512   0.415
 1588SOL     OW 5659   0.076   2.673   0.789
 1588SOL    HW1 5660   0.175   2.661   0.798
 1588SOL    HW2 5661   0.052   2.768   0.810
 1589SOL     OW 5662   0.130   3.683   1.571
 1589SOL    HW1 5663   0.120   3.668   1.670
 1589SOL    HW2 5664   0.044   3.719   1.535
 1590SOL     OW 5665   0.865   2.210   0.195
 1590SOL    HW1 5666   0.924   2.273   0.146
 1590SOL    HW2 5667   0.884   2.116   0.166
 1591SOL     OW 5668   1.719   2.447   1.831
 1591SOL    HW1 5669   1.693   2.536   1.795
 1591SOL    HW2 5670   1.717   2.379   1.758
 1592SOL     OW 5671   1.362   3.006   0.545
 1592SOL    HW1 5672   1.445   2.977   0.497
 1592SOL    HW2 5673   1.313   3.073   0.489
 1593SOL     OW 5674   0.550   2.058   0.885
 1593SOL    HW1 5675   0.545   2.053   0.985
 1593SOL    HW2 5676   0.552   2.154   0.856
 1594SOL     OW 5677   1.008   3.318   0.477
 1594SOL    HW1 5678   0.962   3.390   0.425
 1594SOL    HW2 5679   1.004   3.338   0.575
 1595SOL     OW 5680   0.351   3.663   0.853
 1595SOL    HW1 5681   0.401   3.577   0.859
 1595SOL    HW2 5682   0.416   3.740   0.850
 1596SOL     OW 5683   1.795   2.928   0.873
 1596SOL    HW1 5684   1.733   2.913   0.797
 1596SOL    HW2 5685   1.743   2.939   0.958
 1597SOL     OW 5686   1.227   3.412   1.506
 1597SOL    HW1 5687   1.233   3.335   1.570
 1597SOL    HW2 5688   1.175   3.386   1.426
 1598SOL     OW 5689   0.321   2.805   0.242
 1598SOL    HW1 5690   0.403   2.844   0.200
 1598SOL    HW2 5691   0.294   2.723   0.193
 1599SOL     OW 5692   1.458   2.597   0.728
 1599SOL    HW1 5693   1.453   2.532   0.803
 1599SOL    HW2 5694   1.538   2.656   0.741
 1600SOL     OW 5695   0.461   3.128   1.727
 1600SOL    HW1 5696   0.411   3.129   1.641
 1600SOL    HW2 5697   0.398   3.110   1.803
 1601SOL     OW 5698   1.111   3.638   0.237
 1601SOL    HW1 5699   1.051   3.576   0.287
 1601SOL    HW2 5700   1.142   3.594   0.152
 1602SOL     OW 5701   0.202   2.147   1.498
 1602SOL    HW1 5702   0.122   2.207   1.485
 1602SOL    HW2 5703   0.192   2.098   1.584
 1603SOL     OW 5704   1.632   3.239   0.081
 1603SOL    HW1 5705   1.600   3.333   0.071
 1603SOL    HW2 5706   1.556   3.176   0.069
 1604SOL     OW 5707   0.464   3.605   0.323
 1604SOL    HW1 5708   0.497   3.644   0.409
 1604SOL    HW2 5709   0.540   3.598   0.258
 1605SOL     OW 5710   1.400   1.969   0.426
 1605SOL    HW1 5711   1.376   1.932   0.336
 1605SOL    HW2 5712   1.499   1.985   0.430
 1606SOL     OW 5713   0.249   3.647   1.241
 1606SOL    HW1 5714   0.306   3.582   1.291
 1606SOL    HW2 5715   0.233   3.614   1.148
 1607SOL     OW 5716   0.940   3.560   0.904
 1607SOL    HW1 5717   1.020   3.503   0.925
 1607SOL    HW2 5718   0.891   3.520   0.827
 1608SOL     OW 5719   0.382   2.562   0.480
 1608SOL    HW1 5720   0.427   2.472   0.477
 1608SOL    HW2 5721   0.288   2.551   0.513
 1609SOL     OW 5722   1.547   2.084   1.729
 1609SOL    HW1 5723   1.542   2.121   1.821
 1609SOL    HW2 5724   1.475   2.015   1.717
 1610SOL     OW 5725   0.781   2.126   1.749
 1610SOL    HW1 5726   0.848   2.065   1.792
 1610SOL    HW2 5727   0.708   2.145   1.814
 1611SOL     OW 5728   0.888   3.376   1.195
 1611SOL    HW1 5729   0.865   3.351   1.101
 1611SOL    HW2 5730   0.949   3.307   1.234
 1612SOL     OW 5731   1.351   2.452   1.433
 1612SOL    HW1 5732   1.379   2.409   1.518
 1612SOL    HW2 5733   1.376   2.548   1.434
 1613SOL     OW 5734   0.803   3.264   0.924
 1613SOL    HW1 5735   0.893   3.278   0.882
 1613SOL    HW2 5736   0.732   3.266   0.853
 1614SOL     OW 5737   0.922   2.365   0.899
 1614SOL    HW1 5738   0.897   2.356   0.803
 1614SOL    HW2 5739   0.970   2.283   0.930
 1615SOL     OW 5740   0.539   1.926   0.512
 1615SOL    HW1 5741   0.458   1.927   0.570
 1615SOL    HW2 5742   0.542   2.009   0.457
 1616SOL     OW 5743   1.434   3.050   0.041
 1616SOL    HW1 5744   1.466   2.974   0.098
 1616SOL    HW2 5745   1.342   3.077   0.071
 1617SOL     OW 5746   0.297   1.897   0.171
 1617SOL    HW1 5747   0.346   1.981   0.150
 1617SOL    HW2 5748   0.359   1.832   0.216
 1618SOL     OW 5749   0.935   2.098   0.480
 1618SOL    HW1 5750   0.887   2.139   0.402
 1618SOL    HW2 5751   1.034   2.096   0.461
 1619SOL     OW 5752   1.076   2.545   1.464
 1619SOL    HW1 5753   0.996   2.484   1.467
 1619SOL    HW2 5754   1.157   2.492   1.440
 1620SOL     OW 5755   1.227   3.432   0.793
 1620SOL    HW1 5756   1.248   3.506   0.728
 1620SOL    HW2 5757   1.295   3.432   0.866
 1621SOL     OW 5758   0.459   3.014   0.741
 1621SOL    HW1 5759   0.388   2.987   0.806
 1621SOL    HW2 5760   0.433   2.986   0.648
 1622SOL     OW 5761   1.271   3.659   0.591
 1622SOL    HW1 5762   1.315   3.723   0.527
 1622SOL    HW2 5763   1.221   3.711   0.661
 1623SOL     OW 5764   1.032   2.411   0.016
 1623SOL    HW1 5765   0.991   2.493  -0.023
 1623SOL    HW2 5766   1.096   2.437   0.089
 1624SOL     OW 5767   0.078   2.418   1.386
 1624SOL    HW1 5768   0.170   2.417   1.345
 1624SOL    HW2 5769   0.072   2.492   1.453
 1625SOL     OW 5770   0.561   2.084   1.147
 1625SOL    HW1 5771   0.599   2.000   1.184
 1625SOL    HW2 5772   0.473   2.103   1.191
 1626SOL     OW 5773   0.866   2.316   0.642
 1626SOL    HW1 5774   0.834   2.388   0.580
 1626SOL    HW2 5775   0.890   2.235   0.589
 1627SOL     OW 5776   1.017   1.901   0.753
 1627SOL    HW1 5777   0.945   1.906   0.684
 1627SOL    HW2 5778   0.993   1.832   0.822
 1628SOL     OW 5779   1.429   3.035   0.867
 1628SOL    HW1 5780   1.374   2.951   0.860
 1628SOL    HW2 5781   1.455   3.064   0.775
 1629SOL     OW 5782   1.466   2.452   0.992
 1629SOL    HW1 5783   1.436   2.357   0.999
 1629SOL    HW2 5784   1.539   2.468   1.058
 1630SOL     OW 5785   1.857   2.695   0.377
 1630SOL    HW1 5786   1.899   2.631   0.441
 1630SOL    HW2 5787   1.819   2.644   0.299
 1631SOL     OW 5788   0.488   3.247   0.174
 1631SOL    HW1 5789   0.401   3.232   0.221
 1631SOL    HW2 5790   0.471   3.273   0.079
 1632SOL     OW 5791   1.664   3.142   0.657
 1632SOL    HW1 5792   1.763   3.150   0.671
 1632SOL    HW2 5793   1.619   3.226   0.688
 1633SOL     OW 5794   1.390   2.437   0.078
 1633SOL    HW1 5795   1.336   2.416   0.159
 1633SOL    HW2 5796   1.481   2.396   0.087
 1634SOL     OW 5797   0.527   2.118   0.328
 1634SOL    HW1 5798   0.554   2.059   0.253
 1634SOL    HW2 5799   0.527   2.213   0.297
 1635SOL     OW 5800   1.754   3.085   1.588
 1635SOL    HW1 5801   1.845   3.046   1.575
 1635SOL    HW2 5802   1.762   3.181   1.612
 1636SOL     OW 5803   1.064   3.209   1.340
 1636SOL    HW1 5804   0.984   3.186   1.395
 1636SOL    HW2 5805   1.147   3.183   1.389
 1637SOL     OW 5806   1.592   3.491   1.625
 1637SOL    HW1 5807   1.619   3.525   1.535
 1637SOL    HW2 5808   1.671   3.453   1.671
 1638SOL     OW 5809   1.111   3.057   1.100
 1638SOL    HW1 5810   1.071   3.101   1.181
 1638SOL    HW2 5811   1.070   3.094   1.017
 1639SOL     OW 5812   1.638   2.961   1.079
 1639SOL    HW1 5813   1.643   3.042   1.138
 1639SOL    HW2 5814   1.552   2.963   1.028
 1640SOL     OW 5815   0.915   1.951   1.402
 1640SOL    HW1 5816   0.940   1.931   1.307
 1640SOL    HW2 5817   0.987   2.007   1.444
 1641SOL     OW 5818   0.980   2.978   1.719
 1641SOL    HW1 5819   0.881   2.984   1.729
 1641SOL    HW2 5820   1.003   2.898   1.663
 1642SOL     OW 5821   0.705   2.912   0.368
 1642SOL    HW1 5822   0.691   2.919   0.467
 1642SOL    HW2 5823   0.789   2.861   0.350
 1643SOL     OW 5824   0.410   2.675   1.251
 1643SOL    HW1 5825   0.496   2.687   1.301
 1643SOL    HW2 5826   0.368   2.588   1.278
 1644SOL     OW 5827   1.274   2.248   1.262
 1644SOL    HW1 5828   1.295   2.322   1.326
 1644SOL    HW2 5829   1.185   2.265   1.219
 1645SOL     OW 5830   0.064   3.426   1.331
 1645SOL    HW1 5831   0.018   3.508   1.297
 1645SOL    HW2 5832   0.162   3.445   1.340
 1646SOL     OW 5833   0.367   2.962   0.501
 1646SOL    HW1 5834   0.360   3.045   0.445
 1646SOL    HW2 5835   0.371   2.882   0.441
 1647SOL     OW 5836   0.566   2.399   0.865
 1647SOL    HW1 5837   0.578   2.465   0.791
 1647SOL    HW2 5838   0.612   2.433   0.948
 1648SOL     OW 5839   1.252   3.210   0.388
 1648SOL    HW1 5840   1.302   3.287   0.428
 1648SOL    HW2 5841   1.157   3.212   0.420
 1649SOL     OW 5842   1.272   3.307   1.142
 1649SOL    HW1 5843   1.319   3.320   1.229
 1649SOL    HW2 5844   1.206   3.233   1.151
 1650SOL     OW 5845   1.582   2.501   0.472
 1650SOL    HW1 5846   1.551   2.562   0.545
 1650SOL    HW2 5847   1.632   2.553   0.403
 1651SOL     OW 5848   0.354   3.372   1.329
 1651SOL    HW1 5849   0.333   3.328   1.242
 1651SOL    HW2 5850   0.451   3.398   1.332
 1652SOL     OW 5851   0.402   2.613   1.598
 1652SOL    HW1 5852   0.470   2.668   1.551
 1652SOL    HW2 5853   0.442   2.525   1.625
 1653SOL     OW 5854   1.587   2.641   1.670
 1653SOL    HW1 5855   1.495   2.679   1.665
 1653SOL    HW2 5856   1.647   2.688   1.605
 1654SOL     OW 5857   1.013   1.967   1.770
 1654SOL    HW1 5858   1.019   2.052   1.718
 1654SOL    HW2 5859   1.045   1.891   1.713
 1655SOL     OW 5860   0.504   1.912   1.740
 1655SOL    HW1 5861   0.462   1.855   1.670
 1655SOL    HW2 5862   0.438   1.981   1.772
 1656SOL     OW 5863   0.573   2.732   1.029
 1656SOL    HW1 5864   0.617   2.821   1.020
 1656SOL    HW2 5865   0.510   2.732   1.106
 1657SOL     OW 5866   1.360   2.724   1.045
 1657SOL    HW1 5867   1.285   2.724   0.979
 1657SOL    HW2 5868   1.397   2.632   1.054
 1658SOL     OW 5869   1.209   2.387   0.275
 1658SOL    HW1 5870   1.222   2.303   0.329
 1658SOL    HW2 5871   1.180   2.461   0.335
 1659SOL     OW 5872   0.307   2.075   1.231
 1659SOL    HW1 5873   0.284   2.112   1.321
 1659SOL    HW2 5874   0.277   1.980   1.225
 1660SOL     OW 5875   0.037   3.172   1.282
 1660SOL    HW1 5876   0.090   3.123   1.350
 1660SOL    HW2 5877   0.059   3.270   1.287
 1661SOL     OW 5878   0.732   2.496   1.064
 1661SOL    HW1 5879   0.791   2.470   0.988
 1661SOL    HW2 5880   0.704   2.592   1.053
 1662SOL     OW 5881   1.728   2.797   1.854
 1662SOL    HW1 5882   1.682   2.790   1.765
 1662SOL    HW2 5883   1.666   2.841   1.920
 1663SOL     OW 5884   0.307   1.925   0.618
 1663SOL    HW1 5885   0.296   2.019   0.651
 1663SOL    HW2 5886   0.302   1.862   0.695
 1664SOL     OW 5887   1.622   2.229   0.374
 1664SOL    HW1 5888   1.624   2.153   0.438
 1664SOL    HW2 5889   1.574   2.306   0.414
 1665SOL     OW 5890   1.023   2.628   0.966
 1665SOL    HW1 5891   1.038   2.649   1.062
 1665SOL    HW2 5892   0.993   2.533   0.957
 1666SOL     OW 5893   0.980   3.435   1.700
 1666SOL    HW1 5894   0.960   3.479   1.612
 1666SOL    HW2 5895   1.019   3.344   1.684
 1667SOL     OW 5896   1.859   3.380   1.605
 1667SOL    HW1 5897   1.873   3.407   1.510
 1667SOL    HW2 5898   1.942   3.402   1.658
 1668SOL     OW 5899   0.350   2.760   1.804
 1668SOL    HW1 5900   0.426   2.804   1.852
 1668SOL    HW2 5901   0.385   2.713   1.722
 1669SOL     OW 5902   1.540   2.136   0.125
 1669SOL    HW1 5903   1.479   2.061   0.148
 1669SOL    HW2 5904   1.562   2.188   0.208
 1670SOL     OW 5905   1.303   2.700   0.042
 1670SOL    HW1 5906   1.337   2.607   0.057
 1670SOL    HW2 5907   1.321   2.727  -0.053
 1671SOL     OW 5908   1.068   3.195   0.849
 1671SOL    HW1 5909   1.075   3.111   0.794
 1671SOL    HW2 5910   1.130   3.264   0.813
 1672SOL     OW 5911   0.319   2.672   0.949
 1672SOL    HW1 5912   0.412   2.708   0.954
 1672SOL    HW2 5913   0.313   2.587   1.001
 1673SOL     OW 5914   0.339   2.371   1.006
 1673SOL    HW1 5915   0.287   2.288   0.989
 1673SOL    HW2 5916   0.416   2.376   0.942
 1674SOL     OW 5917   1.138   2.242   1.678
 1674SOL    HW1 5918   1.093   2.305   1.742
 1674SOL    HW2 5919   1.231   2.273   1.661
 1675SOL     OW 5920   1.160   2.069   1.477
 1675SOL    HW1 5921   1.160   2.133   1.554
 1675SOL    HW2 5922   1.188   2.117   1.394
 1676SOL     OW 5923   0.008   3.188   0.200
 1676SOL    HW1 5924  -0.085   3.209   0.169
 1676SOL    HW2 5925   0.018   3.089   0.213
 1677SOL     OW 5926   0.088   3.663   0.927
 1677SOL    HW1 5927   0.046   3.577   0.900
 1677SOL    HW2 5928   0.182   3.666   0.893
 1678SOL     OW 5929   0.504   3.430   0.910
 1678SOL    HW1 5930   0.570   3.504   0.919
 1678SOL    HW2 5931   0.548   3.351   0.868
 1679SOL     OW 5932   1.002   2.658   1.238
 1679SOL    HW1 5933   1.043   2.626   1.324
 1679SOL    HW2 5934   0.906   2.631   1.235
 1680SOL     OW 5935   0.040   2.406   1.114
 1680SOL    HW1 5936   0.125   2.373   1.073
 1680SOL    HW2 5937   0.053   2.421   1.212
 1681SOL     OW 5938   0.189   2.382   1.722
 1681SOL    HW1 5939   0.248   2.342   1.652
 1681SOL    HW2 5940   0.131   2.453   1.681
 1682SOL     OW 5941   1.369   2.812   1.660
 1682SOL    HW1 5942   1.408   2.901   1.680
 1682SOL    HW2 5943   1.379   2.792   1.563
 1683SOL     OW 5944   0.815   2.434   0.325
 1683SOL    HW1 5945   0.822   2.345   0.279
 1683SOL    HW2 5946   0.721   2.468   0.317
 1684SOL     OW 5947   1.657   2.466   1.206
 1684SOL    HW1 5948   1.619   2.397   1.268
 1684SOL    HW2 5949   1.739   2.430   1.162
 1685SOL     OW 5950   0.252   3.426   1.744
 1685SOL    HW1 5951   0.222   3.483   1.820
 1685SOL    HW2 5952   0.245   3.329   1.770
 1686SOL     OW 5953   0.671   2.326   1.269
 1686SOL    HW1 5954   0.637   2.237   1.239
 1686SOL    HW2 5955   0.697   2.380   1.189
 1687SOL     OW 5956   0.930   3.540   1.465
 1687SOL    HW1 5957   0.906   3.522   1.370
 1687SOL    HW2 5958   0.960   3.634   1.475
 1688SOL     OW 5959   0.473   2.362   0.191
 1688SOL    HW1 5960   0.534   2.442   0.195
 1688SOL    HW2 5961   0.378   2.393   0.198
 1689SOL     OW 5962   0.159   2.999   1.466
 1689SOL    HW1 5963   0.181   2.938   1.542
 1689SOL    HW2 5964   0.169   2.950   1.380
 1690SOL     OW 5965   1.347   2.921   1.234
 1690SOL    HW1 5966   1.371   2.858   1.160
 1690SOL    HW2 5967   1.257   2.961   1.216
 1691SOL     OW 5968   1.302   2.717   0.309
 1691SOL    HW1 5969   1.216   2.686   0.351
 1691SOL    HW2 5970   1.298   2.703   0.210
 1692SOL     OW 5971   1.759   3.609   1.154
 1692SOL    HW1 5972   1.820   3.639   1.081
 1692SOL    HW2 5973   1.721   3.520   1.132
 1693SOL     OW 5974   1.252   3.593   1.128
 1693SOL    HW1 5975   1.336   3.598   1.074
 1693SOL    HW2 5976   1.229   3.497   1.146
 1694SOL     OW 5977   0.083   3.120   1.022
 1694SOL    HW1 5978   0.078   3.119   1.122
 1694SOL    HW2 5979   0.000   3.079   0.984
 1695SOL     OW 5980   0.688   3.524   1.716
 1695SOL    HW1 5981   0.632   3.605   1.725
 1695SOL    HW2 5982   0.740   3.528   1.630
 1696SOL     OW 5983   0.903   1.948   0.133
 1696SOL    HW1 5984   0.954   1.949   0.047
 1696SOL    HW2 5985   0.959   1.906   0.204
 1697SOL     OW 5986   1.388   3.435   0.477
 1697SOL    HW1 5987   1.455   3.447   0.403
 1697SOL    HW2 5988   1.348   3.524   0.500
 1698SOL     OW 5989   0.130   3.656   1.851
 1698SOL    HW1 5990   0.089   3.582   1.904
 1698SOL    HW2 5991   0.194   3.707   1.909
 1699SOL     OW 5992   1.280   2.789   0.672
 1699SOL    HW1 5993   1.340   2.708   0.674
 1699SOL    HW2 5994   1.320   2.858   0.612
 1700SOL     OW 5995   0.830   3.135   1.422
 1700SOL    HW1 5996   0.825   3.168   1.517
 1700SOL    HW2 5997   0.744   3.154   1.376
 1701SOL     OW 5998   0.672   3.478   0.154
 1701SOL    HW1 5999   0.681   3.488   0.055
 1701SOL    HW2 6000   0.632   3.389   0.175
 1702SOL     OW 6001   1.650   3.582   1.394
 1702SOL    HW1 6002   1.703   3.592   1.310
 1702SOL    HW2 6003   1.623   3.672   1.428
 1703SOL     OW 6004   0.263   2.188   0.720
 1703SOL    HW1 6005   0.184   2.239   0.686
 1703SOL    HW2 6006   0.254   2.173   0.818
 1704SOL     OW 6007   1.194   3.474   0.031
 1704SOL    HW1 6008   1.200   3.381   0.068
 1704SOL    HW2 6009   1.135   3.474  -0.049
 1705SOL     OW 6010   0.822   2.864   1.372
 1705SOL    HW1 6011   0.862   2.863   1.280
 1705SOL    HW2 6012   0.832   2.956   1.412
 1706SOL     OW 6013   0.916   2.772   0.291
 1706SOL    HW1 6014   0.979   2.810   0.223
 1706SOL    HW2 6015   0.956   2.689   0.330
 1707SOL     OW 6016   1.504   3.469   0.044
 1707SOL    HW1 6017   1.412   3.506   0.051
 1707SOL    HW2 6018   1.542   3.489  -0.046
 1708SOL     OW 6019   0.372   3.150   1.490
 1708SOL    HW1 6020   0.359   3.243   1.456
 1708SOL    HW2 6021   0.288   3.098   1.477
 1709SOL     OW 6022   1.614   3.154   1.289
 1709SOL    HW1 6023   1.674   3.157   1.369
 1709SOL    HW2 6024   1.539   3.218   1.302
 1710SOL     OW 6025   1.039   2.960   0.696
 1710SOL    HW1 6026   0.969   2.913   0.750
 1710SOL    HW2 6027   1.098   2.892   0.653
 1711SOL     OW 6028   1.014   2.098   0.971
 1711SOL    HW1 6029   1.006   2.062   0.878
 1711SOL    HW2 6030   1.012   2.022   1.036
 1712SOL     OW 6031   0.590   3.349   0.491
 1712SOL    HW1 6032   0.632   3.291   0.421
 1712SOL    HW2 6033   0.546   3.428   0.447
 1713SOL     OW 6034   1.709   2.247   1.381
 1713SOL    HW1 6035   1.782   2.316   1.385
 1713SOL    HW2 6036   1.737   2.172   1.322
 1714SOL     OW 6037   0.255   3.210   0.290
 1714SOL    HW1 6038   0.159   3.211   0.263
 1714SOL    HW2 6039   0.267   3.263   0.374
 1715SOL     OW 6040   0.105   2.875   1.726
 1715SOL    HW1 6041   0.028   2.842   1.780
 1715SOL    HW2 6042   0.190   2.845   1.768
 1716SOL     OW 6043   0.672   2.065   1.489
 1716SOL    HW1 6044   0.762   2.049   1.449
 1716SOL    HW2 6045   0.680   2.070   1.588
 1717SOL     OW 6046   0.075   2.207   0.033
 1717SOL    HW1 6047  -0.017   2.179   0.004
 1717SOL    HW2 6048   0.106   2.284  -0.023
 1718SOL     OW 6049   1.440   2.718   1.398
 1718SOL    HW1 6050   1.383   2.770   1.335
 1718SOL    HW2 6051   1.536   2.730   1.374
 1719SOL     OW 6052   0.072   2.028   0.318
 1719SOL    HW1 6053   0.055   2.111   0.264
 1719SOL    HW2 6054   0.162   1.991   0.296
 1720SOL     OW 6055   1.183   3.197   0.119
 1720SOL    HW1 6056   1.084   3.186   0.121
 1720SOL    HW2 6057   1.217   3.212   0.212
 1721SOL     OW 6058   0.613   2.704   1.431
 1721SOL    HW1 6059   0.669   2.785   1.414
 1721SOL    HW2 6060   0.672   2.624   1.434
 1722SOL     OW 6061   1.493   3.629   0.959
 1722SOL    HW1 6062   1.526   3.693   0.890
 1722SOL    HW2 6063   1.559   3.623   1.034
 1723SOL     OW 6064   0.716   2.427   1.708
 1723SOL    HW1 6065   0.735   2.492   1.782
 1723SOL    HW2 6066   0.776   2.347   1.717
 1724SOL     OW 6067   1.450   3.082   1.633
 1724SOL    HW1 6068   1.441   3.072   1.732
 1724SOL    HW2 6069   1.546   3.075   1.607
 1725SOL     OW 6070   0.390   3.603   1.560
 1725SOL    HW1 6071   0.299   3.644   1.558
 1725SOL    HW2 6072   0.383   3.509   1.592
 1726SOL     OW 6073   1.674   2.745   1.254
 1726SOL    HW1 6074   1.647   2.656   1.217
 1726SOL    HW2 6075   1.675   2.813   1.181
 1727SOL     OW 6076   1.225   2.187   0.449
 1727SOL    HW1 6077   1.290   2.113   0.438
 1727SOL    HW2 6078   1.245   2.237   0.533
 1728SOL     OW 6079   0.594   2.607   0.652
 1728SOL    HW1 6080   0.644   2.692   0.633
 1728SOL    HW2 6081   0.506   2.609   0.604
 1729SOL     OW 6082   1.777   2.204   1.642
 1729SOL    HW1 6083   1.760   2.235   1.548
 1729SOL    HW2 6084   1.693   2.167   1.680
 1730SOL     OW 6085   1.730   2.796   1.517
 1730SOL    HW1 6086   1.768   2.887   1.532
 1730SOL    HW2 6087   1.722   2.779   1.418
 1731SOL     OW 6088   0.859   3.236   0.016
 1731SOL    HW1 6089   0.813   3.251   0.104
 1731SOL    HW2 6090   0.903   3.321  -0.014
 1732SOL     OW 6091   0.661   3.652   0.953
 1732SOL    HW1 6092   0.615   3.740   0.940
 1732SOL    HW2 6093   0.760   3.664   0.946
 1733SOL     OW 6094   0.859   2.818   0.861
 1733SOL    HW1 6095   0.913   2.749   0.909
 1733SOL    HW2 6096   0.827   2.887   0.927
 1734SOL     OW 6097   1.083   2.846   0.087
 1734SOL    HW1 6098   1.060   2.899   0.005
 1734SOL    HW2 6099   1.164   2.790   0.068
 1735SOL     OW 6100   1.861   3.431   0.851
 1735SOL    HW1 6101   1.790   3.419   0.781
 1735SOL    HW2 6102   1.862   3.352   0.911
 1736SOL     OW 6103   0.221   3.176   1.844
 1736SOL    HW1 6104   0.156   3.103   1.823
 1736SOL    HW2 6105   0.225   3.190   1.942
 1737SOL     OW 6106   0.079   3.102   0.653
 1737SOL    HW1 6107   0.078   3.055   0.741
 1737SOL    HW2 6108   0.161   3.074   0.602
 1738SOL     OW 6109   0.672   3.253   1.624
 1738SOL    HW1 6110   0.594   3.203   1.662
 1738SOL    HW2 6111   0.669   3.348   1.655
 1739SOL     OW 6112   0.428   2.286   0.520
 1739SOL    HW1 6113   0.458   2.214   0.458
 1739SOL    HW2 6114   0.389   2.246   0.603
 1740SOL     OW 6115   1.705   3.349   1.104
 1740SOL    HW1 6116   1.612   3.324   1.077
 1740SOL    HW2 6117   1.731   3.299   1.186
 1741SOL     OW 6118   0.317   2.409   1.280
 1741SOL    HW1 6119   0.355   2.350   1.352
 1741SOL    HW2 6120   0.357   2.383   1.192
 1742SOL     OW 6121   0.812   3.448   0.687
 1742SOL    HW1 6122   0.844   3.458   0.593
 1742SOL    HW2 6123   0.733   3.386   0.689
 1743SOL     OW 6124   1.424   2.076   1.112
 1743SOL    HW1 6125   1.476   2.011   1.167
 1743SOL    HW2 6126   1.375   2.139   1.173
 1744SOL     OW 6127   1.001   1.896   1.154
 1744SOL    HW1 6128   0.938   1.824   1.123
 1744SOL    HW2 6129   1.094   1.860   1.154
 1745SOL     OW 6130   0.770   3.192   0.301
 1745SOL    HW1 6131   0.724   3.105   0.318
 1745SOL    HW2 6132   0.861   3.189   0.342
 1746SOL     OW 6133   0.618   3.429   1.284
 1746SOL    HW1 6134   0.613   3.511   1.341
 1746SOL    HW2 6135   0.707   3.426   1.239
 1747SOL     OW 6136   1.352   1.914   0.168
 1747SOL    HW1 6137   1.387   1.873   0.084
 1747SOL    HW2 6138   1.262   1.876   0.188
 1748SOL     OW 6139   1.300   2.315   0.691
 1748SOL    HW1 6140   1.241   2.395   0.695
 1748SOL    HW2 6141   1.315   2.280   0.784
 1749SOL     OW 6142   1.593   2.083   0.882
 1749SOL    HW1 6143   1.509   2.082   0.936
 1749SOL    HW2 6144   1.595   2.166   0.826
 1750SOL     OW 6145   0.039   2.939   0.300
 1750SOL    HW1 6146   0.138   2.928   0.291
 1750SOL    HW2 6147  -0.001   2.853   0.332
 1751SOL     OW 6148   0.875   3.508   0.337
 1751SOL    HW1 6149   0.798   3.473   0.283
 1751SOL    HW2 6150   0.843   3.579   0.399
 1752SOL     OW 6151   0.230   2.490   1.975
 1752SOL    HW1 6152   0.137   2.488   2.012
 1752SOL    HW2 6153   0.231   2.451   1.883
 1753SOL     OW 6154   0.225   2.137   2.858
 1753SOL    HW1 6155   0.260   2.120   2.950
 1753SOL    HW2 6156   0.137   2.092   2.846
 1754SOL     OW 6157   0.019   2.230   2.509
 1754SOL    HW1 6158  -0.063   2.273   2.548
 1754SOL    HW2 6159  -0.009   2.157   2.446
 1755SOL     OW 6160   0.569   3.137   3.027
 1755SOL    HW1 6161   0.476   3.130   2.990
 1755SOL    HW2 6162   0.580   3.226   3.071
 1756SOL     OW 6163   1.555   3.373   2.565
 1756SOL    HW1 6164   1.498   3.357   2.646
 1756SOL    HW2 6165   1.496   3.383   2.485
 1757SOL     OW 6166   1.135   2.565   2.579
 1757SOL    HW1 6167   1.192   2.643   2.554
 1757SOL    HW2 6168   1.075   2.591   2.655
 1758SOL     OW 6169   1.755   2.469   2.093
 1758SOL    HW1 6170   1.743   2.456   1.994
 1758SOL    HW2 6171   1.725   2.388   2.142
 1759SOL     OW 6172   0.768   3.006   2.885
 1759SOL    HW1 6173   0.690   3.023   2.945
 1759SOL    HW2 6174   0.802   3.093   2.849
 1760SOL     OW 6175   0.850   2.660   3.685
 1760SOL    HW1 6176   0.846   2.736   3.750
 1760SOL    HW2 6177   0.872   2.696   3.594
 1761SOL     OW 6178   0.685   2.874   2.527
 1761SOL    HW1 6179   0.754   2.858   2.597
 1761SOL    HW2 6180   0.612   2.931   2.565
 1762SOL     OW 6181   0.686   3.023   3.665
 1762SOL    HW1 6182   0.746   3.102   3.679
 1762SOL    HW2 6183   0.600   3.054   3.624
 1763SOL     OW 6184   0.335   3.297   2.923
 1763SOL    HW1 6185   0.257   3.266   2.870
 1763SOL    HW2 6186   0.393   3.355   2.866
 1764SOL     OW 6187   1.460   3.367   3.201
 1764SOL    HW1 6188   1.484   3.461   3.227
 1764SOL    HW2 6189   1.444   3.313   3.283
 1765SOL     OW 6190   0.438   2.254   3.361
 1765SOL    HW1 6191   0.520   2.198   3.370
 1765SOL    HW2 6192   0.357   2.196   3.365
 1766SOL     OW 6193   1.603   2.309   2.599
 1766SOL    HW1 6194   1.529   2.355   2.549
 1766SOL    HW2 6195   1.654   2.377   2.652
 1767SOL     OW 6196   0.231   3.575   2.345
 1767SOL    HW1 6197   0.265   3.652   2.399
 1767SOL    HW2 6198   0.275   3.575   2.255
 1768SOL     OW 6199   1.127   3.203   3.552
 1768SOL    HW1 6200   1.174   3.203   3.640
 1768SOL    HW2 6201   1.079   3.116   3.541
 1769SOL     OW 6202   0.230   3.296   2.400
 1769SOL    HW1 6203   0.204   3.392   2.400
 1769SOL    HW2 6204   0.159   3.242   2.445
 1770SOL     OW 6205   0.240   2.953   2.748
 1770SOL    HW1 6206   0.254   2.869   2.800
 1770SOL    HW2 6207   0.185   3.017   2.803
 1771SOL     OW 6208   0.620   3.648   3.301
 1771SOL    HW1 6209   0.528   3.631   3.336
 1771SOL    HW2 6210   0.648   3.740   3.327
 1772SOL     OW 6211   0.606   2.826   1.985
 1772SOL    HW1 6212   0.613   2.910   1.931
 1772SOL    HW2 6213   0.652   2.839   2.073
 1773SOL     OW 6214   1.594   1.976   3.342
 1773SOL    HW1 6215   1.576   2.043   3.270
 1773SOL    HW2 6216   1.591   2.022   3.431
 1774SOL     OW 6217   0.122   2.505   2.425
 1774SOL    HW1 6218   0.077   2.417   2.442
 1774SOL    HW2 6219   0.121   2.559   2.509
 1775SOL     OW 6220   1.842   3.629   2.221
 1775SOL    HW1 6221   1.896   3.600   2.301
 1775SOL    HW2 6222   1.872   3.719   2.192
 1776SOL     OW 6223   0.027   3.458   1.979
 1776SOL    HW1 6224   0.008   3.362   2.000
 1776SOL    HW2 6225  -0.006   3.516   2.054
 1777SOL     OW 6226   1.689   2.784   2.474
 1777SOL    HW1 6227   1.784   2.755   2.482
 1777SOL    HW2 6228   1.681   2.849   2.399
 1778SOL     OW 6229   1.641   2.970   2.294
 1778SOL    HW1 6230   1.727   2.972   2.242
 1778SOL    HW2 6231   1.655   3.017   2.382
 1779SOL     OW 6232   0.113   2.599   3.459
 1779SOL    HW1 6233   0.201   2.586   3.504
 1779SOL    HW2 6234   0.100   2.696   3.437
 1780SOL     OW 6235   0.613   3.227   2.588
 1780SOL    HW1 6236   0.564   3.140   2.597
 1780SOL    HW2 6237   0.590   3.270   2.501
 1781SOL     OW 6238   1.293   3.090   3.285
 1781SOL    HW1 6239   1.330   3.017   3.227
 1781SOL    HW2 6240   1.345   3.095   3.370
 1782SOL     OW 6241   0.809   1.866   2.364
 1782SOL    HW1 6242   0.849   1.957   2.355
 1782SOL    HW2 6243   0.709   1.874   2.370
 1783SOL     OW 6244   0.197   2.838   3.126
 1783SOL    HW1 6245   0.286   2.793   3.112
 1783SOL    HW2 6246   0.124   2.773   3.107
 1784SOL     OW 6247   1.525   2.861   2.052
 1784SOL    HW1 6248   1.462   2.785   2.065
 1784SOL    HW2 6249   1.573   2.879   2.138
 1785SOL     OW 6250   1.187   3.654   3.478
 1785SOL    HW1 6251   1.211   3.714   3.402
 1785SOL    HW2 6252   1.194   3.559   3.448
 1786SOL     OW 6253   0.317   2.113   3.663
 1786SOL    HW1 6254   0.388   2.184   3.669
 1786SOL    HW2 6255   0.229   2.152   3.691
 1787SOL     OW 6256   1.466   3.279   2.815
 1787SOL    HW1 6257   1.407   3.285   2.895
 1787SOL    HW2 6258   1.451   3.191   2.769
 1788SOL     OW 6259   1.667   3.576   2.434
 1788SOL    HW1 6260   1.626   3.553   2.346
 1788SOL    HW2 6261   1.649   3.502   2.499
 1789SOL     OW 6262   0.598   2.591   2.132
 1789SOL    HW1 6263   0.622   2.660   2.064
 1789SOL    HW2 6264   0.520   2.624   2.186
 1790SOL     OW 6265   1.281   2.207   2.806
 1790SOL    HW1 6266   1.195   2.157   2.793
 1790SOL    HW2 6267   1.343   2.153   2.862
 1791SOL     OW 6268   1.576   3.524   2.169
 1791SOL    HW1 6269   1.665   3.570   2.172
 1791SOL    HW2 6270   1.555   3.500   2.074
 1792SOL     OW 6271   0.807   2.467   3.327
 1792SOL    HW1 6272   0.760   2.464   3.416
 1792SOL    HW2 6273   0.756   2.412   3.261
 1793SOL     OW 6274   1.394   2.331   3.536
 1793SOL    HW1 6275   1.374   2.374   3.624
 1793SOL    HW2 6276   1.472   2.269   3.545
 1794SOL     OW 6277   0.973   2.752   3.434
 1794SOL    HW1 6278   1.019   2.668   3.405
 1794SOL    HW2 6279   0.917   2.786   3.359
 1795SOL     OW 6280   0.991   2.272   3.104
 1795SOL    HW1 6281   0.914   2.306   3.158
 1795SOL    HW2 6282   0.957   2.221   3.025
 1796SOL     OW 6283   1.041   2.563   2.291
 1796SOL    HW1 6284   1.067   2.559   2.387
 1796SOL    HW2 6285   0.956   2.512   2.277
 1797SOL     OW 6286   0.076   2.673   2.651
 1797SOL    HW1 6287   0.175   2.661   2.660
 1797SOL    HW2 6288   0.052   2.768   2.672
 1798SOL     OW 6289   0.130   3.683   3.433
 1798SOL    HW1 6290   0.120   3.668   3.532
 1798SOL    HW2 6291   0.044   3.719   3.397
 1799SOL     OW 6292   0.865   2.210   2.057
 1799SOL    HW1 6293   0.924   2.273   2.008
 1799SOL    HW2 6294   0.884   2.116   2.028
 1800SOL     OW 6295   1.719   2.447   3.693
 1800SOL    HW1 6296   1.693   2.536   3.657
 1800SOL    HW2 6297   1.717   2.379   3.620
 1801SOL     OW 6298   1.362   3.006   2.407
 1801SOL    HW1 6299   1.445   2.977   2.359
 1801SOL    HW2 6300   1.313   3.073   2.351
 1802SOL     OW 6301   0.550   2.058   2.747
 1802SOL    HW1 6302   0.545   2.053   2.847
 1802SOL    HW2 6303   0.552   2.154   2.718
 1803SOL     OW 6304   1.008   3.318   2.339
 1803SOL    HW1 6305   0.962   3.390   2.287
 1803SOL    HW2 6306   1.004   3.338   2.437
 1804SOL     OW 6307   0.351   3.663   2.715
 1804SOL    HW1 6308   0.401   3.577   2.721
 1804SOL    HW2 6309   0.416   3.740   2.712
 1805SOL     OW 6310   1.795   2.928   2.735
 1805SOL    HW1 6311   1.733   2.913   2.659
 1805SOL    HW2 6312   1.743   2.939   2.820
 1806SOL     OW 6313   1.227   3.412   3.368
 1806SOL    HW1 6314   1.233   3.335   3.432
 1806SOL    HW2 6315   1.175   3.386   3.288
 1807SOL     OW 6316   0.321   2.805   2.104
 1807SOL    HW1 6317   0.403   2.844   2.062
 1807SOL    HW2 6318   0.294   2.723   2.055
 1808SOL     OW 6319   1.458   2.597   2.590
 1808SOL    HW1 6320   1.453   2.532   2.665
 1808SOL    HW2 6321   1.538   2.656   2.603
 1809SOL     OW 6322   0.461   3.128   3.589
 1809SOL    HW1 6323   0.411   3.129   3.503
 1809SOL    HW2 6324   0.398   3.110   3.665
 1810SOL     OW 6325   1.111   3.638   2.099
 1810SOL    HW1 6326   1.051   3.576   2.149
 1810SOL    HW2 6327   1.142   3.594   2.014
 1811SOL     OW 6328   0.202   2.147   3.360
 1811SOL    HW1 6329   0.122   2.207   3.347
 1811SOL    HW2 6330   0.192   2.098   3.446
 1812SOL     OW 6331   1.632   3.239   1.943
 1812SOL    HW1 6332   1.600   3.333   1.933
 1812SOL    HW2 6333   1.556   3.176   1.931
 1813SOL     OW 6334   0.464   3.605   2.185
 1813SOL    HW1 6335   0.497   3.644   2.271
 1813SOL    HW2 6336   0.540   3.598   2.120
 1814SOL     OW 6337   1.400   1.969   2.288
 1814SOL    HW1 6338   1.376   1.932   2.198
 1814SOL    HW2 6339   1.499   1.985   2.292
 1815SOL     OW 6340   0.249   3.647   3.103
 1815SOL    HW1 6341   0.306   3.582   3.153
 1815SOL    HW2 6342   0.233   3.614   3.010
 1816SOL     OW 6343   0.940   3.560   2.766
 1816SOL    HW1 6344   1.020   3.503   2.787
 1816SOL    HW2 6345   0.891   3.520   2.689
 1817SOL     OW 6346   0.382   2.562   2.342
 1817SOL    HW1 6347   0.427   2.472   2.339
 1817SOL    HW2 6348   0.288   2.551   2.375
 1818SOL     OW 6349   1.547   2.084   3.591
 1818SOL    HW1 6350   1.542   2.121   3.683
 1818SOL    HW2 6351   1.475   2.015   3.579
 1819SOL     OW 6352   0.614   1.984   1.979
 1819SOL    HW1 6353   0.712   1.962   1.986
 1819SOL    HW2 6354   0.583   1.967   1.886
 1820SOL     OW 6355   0.781   2.126   3.611
 1820SOL    HW1 6356   0.848   2.065   3.654
 1820SOL    HW2 6357   0.708   2.145   3.676
 1821SOL     OW 6358   0.888   3.376   3.057
 1821SOL    HW1 6359   0.865   3.351   2.963
 1821SOL    HW2 6360   0.949   3.307   3.096
 1822SOL     OW 6361   1.351   2.452   3.295
 1822SOL    HW1 6362   1.379   2.409   3.380
 1822SOL    HW2 6363   1.376   2.548   3.296
 1823SOL     OW 6364   0.803   3.264   2.786
 1823SOL    HW1 6365   0.893   3.278   2.744
 1823SOL    HW2 6366   0.732   3.266   2.715
 1824SOL     OW 6367   0.922   2.365   2.761
 1824SOL    HW1 6368   0.897   2.356   2.665
 1824SOL    HW2 6369   0.970   2.283   2.792
 1825SOL     OW 6370   0.539   1.926   2.374
 1825SOL    HW1 6371   0.458   1.927   2.432
 1825SOL    HW2 6372   0.542   2.009   2.319
 1826SOL     OW 6373   1.434   3.050   1.903
 1826SOL    HW1 6374   1.466   2.974   1.960
 1826SOL    HW2 6375   1.342   3.077   1.933
 1827SOL     OW 6376   0.297   1.897   2.033
 1827SOL    HW1 6377   0.346   1.981   2.012
 1827SOL    HW2 6378   0.359   1.832   2.078
 1828SOL     OW 6379   0.935   2.098   2.342
 1828SOL    HW1 6380   0.887   2.139   2.264
 1828SOL    HW2 6381   1.034   2.096   2.323
 1829SOL     OW 6382   1.076   2.545   3.326
 1829SOL    HW1 6383   0.996   2.484   3.329
 1829SOL    HW2 6384   1.157   2.492   3.302
 1830SOL     OW 6385   1.227   3.432   2.655
 1830SOL    HW1 6386   1.248   3.506   2.590
 1830SOL    HW2 6387   1.295   3.432   2.728
 1831SOL     OW 6388   0.459   3.014   2.603
 1831SOL    HW1 6389   0.388   2.987   2.668
 1831SOL    HW2 6390   0.433   2.986   2.510
 1832SOL     OW 6391   1.271   3.659   2.453
 1832SOL    HW1 6392   1.315   3.723   2.389
 1832SOL    HW2 6393   1.221   3.711   2.523
 1833SOL     OW 6394   1.032   2.411   1.878
 1833SOL    HW1 6395   0.991   2.493   1.839
 1833SOL    HW2 6396   1.096   2.437   1.951
 1834SOL     OW 6397   0.078   2.418   3.248
 1834SOL    HW1 6398   0.170   2.417   3.207
 1834SOL    HW2 6399   0.072   2.492   3.315
 1835SOL     OW 6400   0.561   2.084   3.009
 1835SOL    HW1 6401   0.599   2.000   3.046
 1835SOL    HW2 6402   0.473   2.103   3.053
 1836SOL     OW 6403   0.866   2.316   2.504
 1836SOL    HW1 6404   0.834   2.388   2.442
 1836SOL    HW2 6405   0.890   2.235   2.451
 1837SOL     OW 6406   1.017   1.901   2.615
 1837SOL    HW1 6407   0.945   1.906   2.546
 1837SOL    HW2 6408   0.993   1.832   2.684
 1838SOL     OW 6409   1.429   3.035   2.729
 1838SOL    HW1 6410   1.374   2.951   2.722
 1838SOL    HW2 6411   1.455   3.064   2.637
 1839SOL     OW 6412   1.466   2.452   2.854
 1839SOL    HW1 6413   1.436   2.357   2.861
 1839SOL    HW2 6414   1.539   2.468   2.920
 1840SOL     OW 6415   1.857   2.695   2.239
 1840SOL    HW1 6416   1.899   2.631   2.303
 1840SOL    HW2 6417   1.819   2.644   2.161
 1841SOL     OW 6418   0.488   3.247   2.036
 1841SOL    HW1 6419   0.401   3.232   2.083
 1841SOL    HW2 6420   0.471   3.273   1.941
 1842SOL     OW 6421   1.664   3.142   2.519
 1842SOL    HW1 6422   1.763   3.150   2.533
 1842SOL    HW2 6423   1.619   3.226   2.550
 1843SOL     OW 6424   1.390   2.437   1.940
 1843SOL    HW1 6425   1.336   2.416   2.021
 1843SOL    HW2 6426   1.481   2.396   1.949
 1844SOL     OW 6427   0.527   2.118   2.190
 1844SOL    HW1 6428   0.554   2.059   2.115
 1844SOL    HW2 6429   0.527   2.213   2.159
 1845SOL     OW 6430   1.754   3.085   3.450
 1845SOL    HW1 6431   1.845   3.046   3.437
 1845SOL    HW2 6432   1.762   3.181   3.474
 1846SOL     OW 6433   1.064   3.209   3.202
 1846SOL    HW1 6434   0.984   3.186   3.257
 1846SOL    HW2 6435   1.147   3.183   3.251
 1847SOL     OW 6436   1.592   3.491   3.487
 1847SOL    HW1 6437   1.619   3.525   3.397
 1847SOL    HW2 6438   1.671   3.453   3.533
 1848SOL     OW 6439   1.111   3.057   2.962
 1848SOL    HW1 6440   1.071   3.101   3.043
 1848SOL    HW2 6441   1.070   3.094   2.879
 1849SOL     OW 6442   1.638   2.961   2.941
 1849SOL    HW1 6443   1.643   3.042   3.000
 1849SOL    HW2 6444   1.552   2.963   2.890
 1850SOL     OW 6445   0.915   1.951   3.264
 1850SOL    HW1 6446   0.940   1.931   3.169
 1850SOL    HW2 6447   0.987   2.007   3.306
 1851SOL     OW 6448   0.980   2.978   3.581
 1851SOL    HW1 6449   0.881   2.984   3.591
 1851SOL    HW2 6450   1.003   2.898   3.525
 1852SOL     OW 6451   0.705   2.912   2.230
 1852SOL    HW1 6452   0.691   2.919   2.329
 1852SOL    HW2 6453   0.789   2.861   2.212
 1853SOL     OW 6454   0.410   2.675   3.113
 1853SOL    HW1 6455   0.496   2.687   3.163
 1853SOL    HW2 6456   0.368   2.588   3.140
 1854SOL     OW 6457   1.274   2.248   3.124
 1854SOL    HW1 6458   1.295   2.322   3.188
 1854SOL    HW2 6459   1.185   2.265   3.081
 1855SOL     OW 6460   0.064   3.426   3.193
 1855SOL    HW1 6461   0.018   3.508   3.159
 1855SOL    HW2 6462   0.162   3.445   3.202
 1856SOL     OW 6463   0.367   2.962   2.363
 1856SOL    HW1 6464   0.360   3.045   2.307
 1856SOL    HW2 6465   0.371   2.882   2.303
 1857SOL     OW 6466   0.566   2.399   2.727
 1857SOL    HW1 6467   0.578   2.465   2.653
 1857SOL    HW2 6468   0.612   2.433   2.810
 1858SOL     OW 6469   1.252   3.210   2.250
 1858SOL    HW1 6470   1.302   3.287   2.290
 1858SOL    HW2 6471   1.157   3.212   2.282
 1859SOL     OW 6472   1.272   3.307   3.004
 1859SOL    HW1 6473   1.319   3.320   3.091
 1859SOL    HW2 6474   1.206   3.233   3.013
 1860SOL     OW 6475   1.582   2.501   2.334
 1860SOL    HW1 6476   1.551   2.562   2.407
 1860SOL    HW2 6477   1.632   2.553   2.265
 1861SOL     OW 6478   0.354   3.372   3.191
 1861SOL    HW1 6479   0.333   3.328   3.104
 1861SOL    HW2 6480   0.451   3.398   3.194
 1862SOL     OW 6481   0.402   2.613   3.460
 1862SOL    HW1 6482   0.470   2.668   3.413
 1862SOL    HW2 6483   0.442   2.525   3.487
 1863SOL     OW 6484   1.587   2.641   3.532
 1863SOL    HW1 6485   1.495   2.679   3.527
 1863SOL    HW2 6486   1.647   2.688   3.467
 1864SOL     OW 6487   1.013   1.967   3.632
 1864SOL    HW1 6488   1.019   2.052   3.580
 1864SOL    HW2 6489   1.045   1.891   3.575
 1865SOL     OW 6490   0.504   1.912   3.602
 1865SOL    HW1 6491   0.462   1.855   3.532
 1865SOL    HW2 6492   0.438   1.981   3.634
 1866SOL     OW 6493   0.573   2.732   2.891
 1866SOL    HW1 6494   0.617   2.821   2.882
 1866SOL    HW2 6495   0.510   2.732   2.968
 1867SOL     OW 6496   1.360   2.724   2.907
 1867SOL    HW1 6497   1.285   2.724   2.841
 1867SOL    HW2 6498   1.397   2.632   2.916
 1868SOL     OW 6499   1.209   2.387   2.137
 1868SOL    HW1 6500   1.222   2.303   2.191
 1868SOL    HW2 6501   1.180   2.461   2.197
 1869SOL     OW 6502   0.307   2.075   3.093
 1869SOL    HW1 6503   0.284   2.112   3.183
 1869SOL    HW2 6504   0.277   1.980   3.087
 1870SOL     OW 6505   0.037   3.172   3.144
 1870SOL    HW1 6506   0.090   3.123   3.212
 1870SOL    HW2 6507   0.059   3.270   3.149
 1871SOL     OW 6508   0.732   2.496   2.926
 1871SOL    HW1 6509   0.791   2.470   2.850
 1871SOL    HW2 6510   0.704   2.592   2.915
 1872SOL     OW 6511   1.728   2.797   3.716
 1872SOL    HW1 6512   1.682   2.790   3.627
 1872SOL    HW2 6513   1.666   2.841   3.782
 1873SOL     OW 6514   0.307   1.925   2.480
 1873SOL    HW1 6515   0.296   2.019   2.513
 1873SOL    HW2 6516   0.302   1.862   2.557
 1874SOL     OW 6517   1.622   2.229   2.236
 1874SOL    HW1 6518   1.624   2.153   2.300
 1874SOL    HW2 6519   1.574   2.306   2.276
 1875SOL     OW 6520   1.023   2.628   2.828
 1875SOL    HW1 6521   1.038   2.649   2.924
 1875SOL    HW2 6522   0.993   2.533   2.819
 1876SOL     OW 6523   0.980   3.435   3.562
 1876SOL    HW1 6524   0.960   3.479   3.474
 1876SOL    HW2 6525   1.019   3.344   3.546
 1877SOL     OW 6526   1.859   3.380   3.467
 1877SOL    HW1 6527   1.873   3.407   3.372
 1877SOL    HW2 6528   1.942   3.402   3.520
 1878SOL     OW 6529   0.350   2.760   3.666
 1878SOL    HW1 6530   0.426   2.804   3.714
 1878SOL    HW2 6531   0.385   2.713   3.584
 1879SOL     OW 6532   1.540   2.136   1.987
 1879SOL    HW1 6533   1.479   2.061   2.010
 1879SOL    HW2 6534   1.562   2.188   2.070
 1880SOL     OW 6535   1.303   2.700   1.904
 1880SOL    HW1 6536   1.337   2.607   1.919
 1880SOL    HW2 6537   1.321   2.727   1.809
 1881SOL     OW 6538   1.068   3.195   2.711
 1881SOL    HW1 6539   1.075   3.111   2.656
 1881SOL    HW2 6540   1.130   3.264   2.675
 1882SOL     OW 6541   0.319   2.672   2.811
 1882SOL    HW1 6542   0.412   2.708   2.816
 1882SOL    HW2 6543   0.313   2.587   2.863
 1883SOL     OW 6544   0.339   2.371   2.868
 1883SOL    HW1 6545   0.287   2.288   2.851
 1883SOL    HW2 6546   0.416   2.376   2.804
 1884SOL     OW 6547   1.138   2.242   3.540
 1884SOL    HW1 6548   1.093   2.305   3.604
 1884SOL    HW2 6549   1.231   2.273   3.523
 1885SOL     OW 6550   1.160   2.069   3.339
 1885SOL    HW1 6551   1.160   2.133   3.416
 1885SOL    HW2 6552   1.188   2.117   3.256
 1886SOL     OW 6553   0.008   3.188   2.062
 1886SOL    HW1 6554  -0.085   3.209   2.031
 1886SOL    HW2 6555   0.018   3.089   2.075
 1887SOL     OW 6556   0.088   3.663   2.789
 1887SOL    HW1 6557   0.046   3.577   2.762
 1887SOL    HW2 6558   0.182   3.666   2.755
 1888SOL     OW 6559   0.504   3.430   2.772
 1888SOL    HW1 6560   0.570   3.504   2.781
 1888SOL    HW2 6561   0.548   3.351   2.730
 1889SOL     OW 6562   1.002   2.658   3.100
 1889SOL    HW1 6563   1.043   2.626   3.186
 1889SOL    HW2 6564   0.906   2.631   3.097
 1890SOL     OW 6565   0.040   2.406   2.976
 1890SOL    HW1 6566   0.125   2.373   2.935
 1890SOL    HW2 6567   0.053   2.421   3.074
 1891SOL     OW 6568   0.189   2.382   3.584
 1891SOL    HW1 6569   0.248   2.342   3.514
 1891SOL    HW2 6570   0.131   2.453   3.543
 1892SOL     OW 6571   1.369   2.812   3.522
 1892SOL    HW1 6572   1.408   2.901   3.542
 1892SOL    HW2 6573   1.379   2.792   3.425
 1893SOL     OW 6574   0.815   2.434   2.187
 1893SOL    HW1 6575   0.822   2.345   2.141
 1893SOL    HW2 6576   0.721   2.468   2.179
 1894SOL     OW 6577   1.657   2.466   3.068
 1894SOL    HW1 6578   1.619   2.397   3.130
 1894SOL    HW2 6579   1.739   2.430   3.024
 1895SOL     OW 6580   0.252   3.426   3.606
 1895SOL    HW1 6581   0.222   3.483   3.682
 1895SOL    HW2 6582   0.245   3.329   3.632
 1896SOL     OW 6583   0.671   2.326   3.131
 1896SOL    HW1 6584   0.637   2.237   3.101
 1896SOL    HW2 6585   0.697   2.380   3.051
 1897SOL     OW 6586   0.930   3.540   3.327
 1897SOL    HW1 6587   0.906   3.522   3.232
 1897SOL    HW2 6588   0.960   3.634   3.337
 1898SOL     OW 6589   0.473   2.362   2.053
 1898SOL    HW1 6590   0.534   2.442   2.057
 1898SOL    HW2 6591   0.378   2.393   2.060
 1899SOL     OW 6592   0.159   2.999   3.328
 1899SOL    HW1 6593   0.181   2.938   3.404
 1899SOL    HW2 6594   0.169   2.950   3.242
 1900SOL     OW 6595   1.347   2.921   3.096
 1900SOL    HW1 6596   1.371   2.858   3.022
 1900SOL    HW2 6597   1.257   2.961   3.078
 1901SOL     OW 6598   1.302   2.717   2.171
 1901SOL    HW1 6599   1.216   2.686   2.213
 1901SOL    HW2 6600   1.298   2.703   2.072
 1902SOL     OW 6601   1.759   3.609   3.016
 1902SOL    HW1 6602   1.820   3.639   2.943
 1902SOL    HW2 6603   1.721   3.520   2.994
 1903SOL     OW 6604   1.252   3.593   2.990
 1903SOL    HW1 6605   1.336   3.598   2.936
 1903SOL    HW2 6606   1.229   3.497   3.008
 1904SOL     OW 6607   0.083   3.120   2.884
 1904SOL    HW1 6608   0.078   3.119   2.984
 1904SOL    HW2 6609   0.000   3.079   2.846
 1905SOL     OW 6610   0.688   3.524   3.578
 1905SOL    HW1 6611   0.632   3.605   3.587
 1905SOL    HW2 6612   0.740   3.528   3.492
 1906SOL     OW 6613   1.388   3.435   2.339
 1906SOL    HW1 6614   1.455   3.447   2.265
 1906SOL    HW2 6615   1.348   3.524   2.362
 1907SOL     OW 6616   0.130   3.656   3.713
 1907SOL    HW1 6617   0.089   3.582   3.766
 1907SOL    HW2 6618   0.194   3.707   3.771
 1908SOL     OW 6619   1.280   2.789   2.534
 1908SOL    HW1 6620   1.340   2.708   2.536
 1908SOL    HW2 6621   1.320   2.858   2.474
 1909SOL     OW 6622   0.830   3.135   3.284
 1909SOL    HW1 6623   0.825   3.168   3.379
 1909SOL    HW2 6624   0.744   3.154   3.238
 1910SOL     OW 6625   0.672   3.478   2.016
 1910SOL    HW1 6626   0.681   3.488   1.917
 1910SOL    HW2 6627   0.632   3.389   2.037
 1911SOL     OW 6628   1.650   3.582   3.256
 1911SOL    HW1 6629   1.703   3.592   3.172
 1911SOL    HW2 6630   1.623   3.672   3.290
 1912SOL     OW 6631   0.263   2.188   2.582
 1912SOL    HW1 6632   0.184   2.239   2.548
 1912SOL    HW2 6633   0.254   2.173   2.680
 1913SOL     OW 6634   1.194   3.474   1.893
 1913SOL    HW1 6635   1.200   3.381   1.930
 1913SOL    HW2 6636   1.135   3.474   1.813
 1914SOL     OW 6637   0.822   2.864   3.234
 1914SOL    HW1 6638   0.862   2.863   3.142
 1914SOL    HW2 6639   0.832   2.956   3.274
 1915SOL     OW 6640   0.916   2.772   2.153
 1915SOL    HW1 6641   0.979   2.810   2.085
 1915SOL    HW2 6642   0.956   2.689   2.192
 1916SOL     OW 6643   1.504   3.469   1.906
 1916SOL    HW1 6644   1.412   3.506   1.913
 1916SOL    HW2 6645   1.542   3.489   1.816
 1917SOL     OW 6646   0.372   3.150   3.352
 1917SOL    HW1 6647   0.359   3.243   3.318
 1917SOL    HW2 6648   0.288   3.098   3.339
 1918SOL     OW 6649   1.614   3.154   3.151
 1918SOL    HW1 6650   1.674   3.157   3.231
 1918SOL    HW2 6651   1.539   3.218   3.164
 1919SOL     OW 6652   1.039   2.960   2.558
 1919SOL    HW1 6653   0.969   2.913   2.612
 1919SOL    HW2 6654   1.098   2.892   2.515
 1920SOL     OW 6655   1.014   2.098   2.833
 1920SOL    HW1 6656   1.006   2.062   2.740
 1920SOL    HW2 6657   1.012   2.022   2.898
 1921SOL     OW 6658   0.590   3.349   2.353
 1921SOL    HW1 6659   0.632   3.291   2.283
 1921SOL    HW2 6660   0.546   3.428   2.309
 1922SOL     OW 6661   1.709   2.247   3.243
 1922SOL    HW1 6662   1.782   2.316   3.247
 1922SOL    HW2 6663   1.737   2.172   3.184
 1923SOL     OW 6664   0.255   3.210   2.152
 1923SOL    HW1 6665   0.159   3.211   2.125
 1923SOL    HW2 6666   0.267   3.263   2.236
 1924SOL     OW 6667   0.105   2.875   3.588
 1924SOL    HW1 6668   0.028   2.842   3.642
 1924SOL    HW2 6669   0.190   2.845   3.630
 1925SOL     OW 6670   0.672   2.065   3.351
 1925SOL    HW1 6671   0.762   2.049   3.311
 1925SOL    HW2 6672   0.680   2.070   3.450
 1926SOL     OW 6673   0.075   2.207   1.895
 1926SOL    HW1 6674  -0.017   2.179   1.866
 1926SOL    HW2 6675   0.106   2.284   1.839
 1927SOL     OW 6676   1.440   2.718   3.260
 1927SOL    HW1 6677   1.383   2.770   3.197
 1927SOL    HW2 6678   1.536   2.730   3.236
 1928SOL     OW 6679   0.072   2.028   2.180
 1928SOL    HW1 6680   0.055   2.111   2.126
 1928SOL    HW2 6681   0.162   1.991   2.158
 1929SOL     OW 6682   1.183   3.197   1.981
 1929SOL    HW1 6683   1.084   3.186   1.983
 1929SOL    HW2 6684   1.217   3.212   2.074
 1930SOL     OW 6685   0.613   2.704   3.293
 1930SOL    HW1 6686   0.669   2.785   3.276
 1930SOL    HW2 6687   0.672   2.624   3.296
 1931SOL     OW 6688   1.493   3.629   2.821
 1931SOL    HW1 6689   1.526   3.693   2.752
 1931SOL    HW2 6690   1.559   3.623   2.896
 1932SOL     OW 6691   0.716   2.427   3.570
 1932SOL    HW1 6692   0.735   2.492   3.644
 1932SOL    HW2 6693   0.776   2.347   3.579
 1933SOL     OW 6694   1.450   3.082   3.495
 1933SOL    HW1 6695   1.441   3.072   3.594
 1933SOL    HW2 6696   1.546   3.075   3.469
 1934SOL     OW 6697   0.390   3.603   3.422
 1934SOL    HW1 6698   0.299   3.644   3.420
 1934SOL    HW2 6699   0.383   3.509   3.454
 1935SOL     OW 6700   1.674   2.745   3.116
 1935SOL    HW1 6701   1.647   2.656   3.079
 1935SOL    HW2 6702   1.675   2.813   3.043
 1936SOL     OW 6703   1.225   2.187   2.311
 1936SOL    HW1 6704   1.290   2.113   2.300
 1936SOL    HW2 6705   1.245   2.237   2.395
 1937SOL     OW 6706   0.594   2.607   2.514
 1937SOL    HW1 6707   0.644   2.692   2.495
 1937SOL    HW2 6708   0.506   2.609   2.466
 1938SOL     OW 6709   1.777   2.204   3.504
 1938SOL    HW1 6710   1.760   2.235   3.410
 1938SOL    HW2 6711   1.693   2.167   3.542
 1939SOL     OW 6712   1.730   2.796   3.379
 1939SOL    HW1 6713   1.768   2.887   3.394
 1939SOL    HW2 6714   1.722   2.779   3.280
 1940SOL     OW 6715   0.859   3.236   1.878
 1940SOL    HW1 6716   0.813   3.251   1.966
 1940SOL    HW2 6717   0.903   3.321   1.848
 1941SOL     OW 6718   0.661   3.652   2.815
 1941SOL    HW1 6719   0.615   3.740   2.802
 1941SOL    HW2 6720   0.760   3.664   2.808
 1942SOL     OW 6721   0.859   2.818   2.723
 1942SOL    HW1 6722   0.913   2.749   2.771
 1942SOL    HW2 6723   0.827   2.887   2.789
 1943SOL     OW 6724   1.083   2.846   1.949
 1943SOL    HW1 6725   1.060   2.899   1.867
 1943SOL    HW2 6726   1.164   2.790   1.930
 1944SOL     OW 6727   1.861   3.431   2.713
 1944SOL    HW1 6728   1.790   3.419   2.643
 1944SOL    HW2 6729   1.862   3.352   2.773
 1945SOL     OW 6730   0.221   3.176   3.706
 1945SOL    HW1 6731   0.156   3.103   3.685
 1945SOL    HW2 6732   0.225   3.190   3.804
 1946SOL     OW 6733   0.079   3.102   2.515
 1946SOL    HW1 6734   0.078   3.055   2.603
 1946SOL    HW2 6735   0.161   3.074   2.464
 1947SOL     OW 6736   0.672   3.253   3.486
 1947SOL    HW1 6737   0.594   3.203   3.524
 1947SOL    HW2 6738   0.669   3.348   3.517
 1948SOL     OW 6739   0.428   2.286   2.382
 1948SOL    HW1 6740   0.458   2.214   2.320
 1948SOL    HW2 6741   0.389   2.246   2.465
 1949SOL     OW 6742   1.705   3.349   2.966
 1949SOL    HW1 6743   1.612   3.324   2.939
 1949SOL    HW2 6744   1.731   3.299   3.048
 1950SOL     OW 6745   0.317   2.409   3.142
 1950SOL    HW1 6746   0.355   2.350   3.214
 1950SOL    HW2 6747   0.357   2.383   3.054
 1951SOL     OW 6748   0.812   3.448   2.549
 1951SOL    HW1 6749   0.844   3.458   2.455
 1951SOL    HW2 6750   0.733   3.386   2.551
 1952SOL     OW 6751   1.424   2.076   2.974
 1952SOL    HW1 6752   1.476   2.011   3.029
 1952SOL    HW2 6753   1.375   2.139   3.035
 1953SOL     OW 6754   1.001   1.896   3.016
 1953SOL    HW1 6755   0.938   1.824   2.985
 1953SOL    HW2 6756   1.094   1.860   3.016
 1954SOL     OW 6757   0.770   3.192   2.163
 1954SOL    HW1 6758   0.724   3.105   2.180
 1954SOL    HW2 6759   0.861   3.189   2.204
 1955SOL     OW 6760   0.618   3.429   3.146
 1955SOL    HW1 6761   0.613   3.511   3.203
 1955SOL    HW2 6762   0.707   3.426   3.101
 1956SOL     OW 6763   1.352   1.914   2.030
 1956SOL    HW1 6764   1.387   1.873   1.946
 1956SOL    HW2 6765   1.262   1.876   2.050
 1957SOL     OW 6766   1.300   2.315   2.553
 1957SOL    HW1 6767   1.241   2.395   2.557
 1957SOL    HW2 6768   1.315   2.280   2.646
 1958SOL     OW 6769   1.593   2.083   2.744
 1958SOL    HW1 6770   1.509   2.082   2.798
 1958SOL    HW2 6771   1.595   2.166   2.688
 1959SOL     OW 6772   0.039   2.939   2.162
 1959SOL    HW1 6773   0.138   2.928   2.153
 1959SOL    HW2 6774  -0.001   2.853   2.194
 1960SOL     OW 6775   0.875   3.508   2.199
 1960SOL    HW1 6776   0.798   3.473   2.145
 1960SOL    HW2 6777   0.843   3.579   2.261
 1961SOL     OW 6778   0.230   2.490   3.837
 1961SOL    HW1 6779   0.137   2.488   3.874
 1961SOL    HW2 6780   0.231   2.451   3.745
 1962SOL     OW 6781   0.225   2.137   4.720
 1962SOL    HW1 6782   0.260   2.120   4.812
 1962SOL    HW2 6783   0.137   2.092   4.708
 1963SOL     OW 6784   0.019   2.230   4.371
 1963SOL    HW1 6785  -0.063   2.273   4.410
 1963SOL    HW2 6786  -0.009   2.157   4.308
 1964SOL     OW 6787   0.569   3.137   4.889
 1964SOL    HW1 6788   0.476   3.130   4.852
 1964SOL    HW2 6789   0.580   3.226   4.933
 1965SOL     OW 6790   1.555   3.373   4.427
 1965SOL    HW1 6791   1.498   3.357   4.508
 1965SOL    HW2 6792   1.496   3.383   4.347
 1966SOL     OW 6793   1.135   2.565   4.441
 1966SOL    HW1 6794   1.192   2.643   4.416
 1966SOL    HW2 6795   1.075   2.591   4.517
 1967SOL     OW 6796   1.755   2.469   3.955
 1967SOL    HW1 6797   1.743   2.456   3.856
 1967SOL    HW2 6798   1.725   2.388   4.004
 1968SOL     OW 6799   0.768   3.006   4.747
 1968SOL    HW1 6800   0.690   3.023   4.807
 1968SOL    HW2 6801   0.802   3.093   4.711
 1969SOL     OW 6802   0.850   2.660   5.547
 1969SOL    HW1 6803   0.846   2.736   5.612
 1969SOL    HW2 6804   0.872   2.696   5.456
 1970SOL     OW 6805   0.685   2.874   4.389
 1970SOL    HW1 6806   0.754   2.858   4.459
 1970SOL    HW2 6807   0.612   2.931   4.427
 1971SOL     OW 6808   0.686   3.023   5.527
 1971SOL    HW1 6809   0.746   3.102   5.541
 1971SOL    HW2 6810   0.600   3.054   5.486
 1972SOL     OW 6811   0.335   3.297   4.785
 1972SOL    HW1 6812   0.257   3.266   4.732
 1972SOL    HW2 6813   0.393   3.355   4.728
 1973SOL     OW 6814   1.460   3.367   5.063
 1973SOL    HW1 6815   1.484   3.461   5.089
 1973SOL    HW2 6816   1.444   3.313   5.145
 1974SOL     OW 6817   0.438   2.254   5.223
 1974SOL    HW1 6818   0.520   2.198   5.232
 1974SOL    HW2 6819   0.357   2.196   5.227
 1975SOL     OW 6820   1.603   2.309   4.461
 1975SOL    HW1 6821   1.529   2.355   4.411
 1975SOL    HW2 6822   1.654   2.377   4.514
 1976SOL     OW 6823   0.231   3.575   4.207
 1976SOL    HW1 6824   0.265   3.652   4.261
 1976SOL    HW2 6825   0.275   3.575   4.117
 1977SOL     OW 6826   1.127   3.203   5.414
 1977SOL    HW1 6827   1.174   3.203   5.502
 1977SOL    HW2 6828   1.079   3.116   5.403
 1978SOL     OW 6829   0.230   3.296   4.262
 1978SOL    HW1 6830   0.204   3.392   4.262
 1978SOL    HW2 6831   0.159   3.242   4.307
 1979SOL     OW 6832   0.240   2.953   4.610
 1979SOL    HW1 6833   0.254   2.869   4.662
 1979SOL    HW2 6834   0.185   3.017   4.665
 1980SOL     OW 6835   0.620   3.648   5.163
 1980SOL    HW1 6836   0.528   3.631   5.198
 1980SOL    HW2 6837   0.648   3.740   5.189
 1981SOL     OW 6838   0.606   2.826   3.847
 1981SOL    HW1 6839   0.613   2.910   3.793
 1981SOL    HW2 6840   0.652   2.839   3.935
 1982SOL     OW 6841   1.594   1.976   5.204
 1982SOL    HW1 6842   1.576   2.043   5.132
 1982SOL    HW2 6843   1.591   2.022   5.293
 1983SOL     OW 6844   0.122   2.505   4.287
 1983SOL    HW1 6845   0.077   2.417   4.304
 1983SOL    HW2 6846   0.121   2.559   4.371
 1984SOL     OW 6847   1.842   3.629   4.083
 1984SOL    HW1 6848   1.896   3.600   4.163
 1984SOL    HW2 6849   1.872   3.719   4.054
 1985SOL     OW 6850   0.027   3.458   3.841
 1985SOL    HW1 6851   0.008   3.362   3.862
 1985SOL    HW2 6852  -0.006   3.516   3.916
 1986SOL     OW 6853   1.689   2.784   4.336
 1986SOL    HW1 6854   1.784   2.755   4.344
 1986SOL    HW2 6855   1.681   2.849   4.261
 1987SOL     OW 6856   1.641   2.970   4.156
 1987SOL    HW1 6857   1.727   2.972   4.104
 1987SOL    HW2 6858   1.655   3.017   4.244
 1988SOL     OW 6859   0.113   2.599   5.321
 1988SOL    HW1 6860   0.201   2.586   5.366
 1988SOL    HW2 6861   0.100   2.696   5.299
 1989SOL     OW 6862   0.613   3.227   4.450
 1989SOL    HW1 6863   0.564   3.140   4.459
 1989SOL    HW2 6864   0.590   3.270   4.363
 1990SOL     OW 6865   1.293   3.090   5.147
 1990SOL    HW1 6866   1.330   3.017   5.089
 1990SOL    HW2 6867   1.345   3.095   5.232
 1991SOL     OW 6868   0.809   1.866   4.226
 1991SOL    HW1 6869   0.849   1.957   4.217
 1991SOL    HW2 6870   0.709   1.874   4.232
 1992SOL     OW 6871   0.197   2.838   4.988
 1992SOL    HW1 6872   0.286   2.793   4.974
 1992SOL    HW2 6873   0.124   2.773   4.969
 1993SOL     OW 6874   1.525   2.861   3.914
 1993SOL    HW1 6875   1.462   2.785   3.927
 1993SOL    HW2 6876   1.573   2.879   4.000
 1994SOL     OW 6877   1.187   3.654   5.340
 1994SOL    HW1 6878   1.211   3.714   5.264
 1994SOL    HW2 6879   1.194   3.559   5.310
 1995SOL     OW 6880   0.317   2.113   5.525
 1995SOL    HW1 6881   0.388   2.184   5.531
 1995SOL    HW2 6882   0.229   2.152   5.553
 1996SOL     OW 6883   1.466   3.279   4.677
 1996SOL    HW1 6884   1.407   3.285   4.757
 1996SOL    HW2 6885   1.451   3.191   4.631
 1997SOL     OW 6886   1.667   3.576   4.296
 1997SOL    HW1 6887   1.626   3.553   4.208
 1997SOL    HW2 6888   1.649   3.502   4.361
 1998SOL     OW 6889   0.598   2.591   3.994
 1998SOL    HW1 6890   0.622   2.660   3.926
 1998SOL    HW2 6891   0.520   2.624   4.048
 1999SOL     OW 6892   1.281   2.207   4.668
 1999SOL    HW1 6893   1.195   2.157   4.655
 1999SOL    HW2 6894   1.343   2.153   4.724
 2000SOL     OW 6895   1.576   3.524   4.031
 2000SOL    HW1 6896   1.665   3.570   4.034
 2000SOL    HW2 6897   1.555   3.500   3.936
 2001SOL     OW 6898   0.807   2.467   5.189
 2001SOL    HW1 6899   0.760   2.464   5.278
 2001SOL    HW2 6900   0.756   2.412   5.123
 2002SOL     OW 6901   1.394   2.331   5.398
 2002SOL    HW1 6902   1.374   2.374   5.486
 2002SOL    HW2 6903   1.472   2.269   5.407
 2003SOL     OW 6904   0.973   2.752   5.296
 2003SOL    HW1 6905   1.019   2.668   5.267
 2003SOL    HW2 6906   0.917   2.786   5.221
 2004SOL     OW 6907   0.991   2.272   4.966
 2004SOL    HW1 6908   0.914   2.306   5.020
 2004SOL    HW2 6909   0.957   2.221   4.887
 2005SOL     OW 6910   1.041   2.563   4.153
 2005SOL    HW1 6911   1.067   2.559   4.249
 2005SOL    HW2 6912   0.956   2.512   4.139
 2006SOL     OW 6913   0.076   2.673   4.513
 2006SOL    HW1 6914   0.175   2.661   4.522
 2006SOL    HW2 6915   0.052   2.768   4.534
 2007SOL     OW 6916   0.130   3.683   5.295
 2007SOL    HW1 6917   0.120   3.668   5.394
 2007SOL    HW2 6918   0.044   3.719   5.259
 2008SOL     OW 6919   0.865   2.210   3.919
 2008SOL    HW1 6920   0.924   2.273   3.870
 2008SOL    HW2 6921   0.884   2.116   3.890
 2009SOL     OW 6922   1.719   2.447   5.555
 2009SOL    HW1 6923   1.693   2.536   5.519
 2009SOL    HW2 6924   1.717   2.379   5.482
 2010SOL     OW 6925   1.362   3.006   4.269
 2010SOL    HW1 6926   1.445   2.977   4.221
 2010SOL    HW2 6927   1.313   3.073   4.213
 2011SOL     OW 6928   0.550   2.058   4.609
 2011SOL    HW1 6929   0.545   2.053   4.709
 2011SOL    HW2 6930   0.552   2.154   4.580
 2012SOL     OW 6931   1.008   3.318   4.201
 2012SOL    HW1 6932   0.962   3.390   4.149
 2012SOL    HW2 6933   1.004   3.338   4.299
 2013SOL     OW 6934   0.351   3.663   4.577
 2013SOL    HW1 6935   0.401   3.577   4.583
 2013SOL    HW2 6936   0.416   3.740   4.574
 2014SOL     OW 6937   1.795   2.928   4.597
 2014SOL    HW1 6938   1.733   2.913   4.521
 2014SOL    HW2 6939   1.743   2.939   4.682
 2015SOL     OW 6940   1.227   3.412   5.230
 2015SOL    HW1 6941   1.233   3.335   5.294
 2015SOL    HW2 6942   1.175   3.386   5.150
 2016SOL     OW 6943   0.321   2.805   3.966
 2016SOL    HW1 6944   0.403   2.844   3.924
 2016SOL    HW2 6945   0.294   2.723   3.917
 2017SOL     OW 6946   1.458   2.597   4.452
 2017SOL    HW1 6947   1.453   2.532   4.527
 2017SOL    HW2 6948   1.538   2.656   4.465
 2018SOL     OW 6949   0.461   3.128   5.451
 2018SOL    HW1 6950   0.411   3.129   5.365
 2018SOL    HW2 6951   0.398   3.110   5.527
 2019SOL     OW 6952   1.111   3.638   3.961
 2019SOL    HW1 6953   1.051   3.576   4.011
 2019SOL    HW2 6954   1.142   3.594   3.876
 2020SOL     OW 6955   0.202   2.147   5.222
 2020SOL    HW1 6956   0.122   2.207   5.209
 2020SOL    HW2 6957   0.192   2.098   5.308
 2021SOL     OW 6958   1.632   3.239   3.805
 2021SOL    HW1 6959   1.600   3.333   3.795
 2021SOL    HW2 6960   1.556   3.176   3.793
 2022SOL     OW 6961   0.464   3.605   4.047
 2022SOL    HW1 6962   0.497   3.644   4.133
 2022SOL    HW2 6963   0.540   3.598   3.982
 2023SOL     OW 6964   1.400   1.969   4.150
 2023SOL    HW1 6965   1.376   1.932   4.060
 2023SOL    HW2 6966   1.499   1.985   4.154
 2024SOL     OW 6967   0.249   3.647   4.965
 2024SOL    HW1 6968   0.306   3.582   5.015
 2024SOL    HW2 6969   0.233   3.614   4.872
 2025SOL     OW 6970   0.940   3.560   4.628
 2025SOL    HW1 6971   1.020   3.503   4.649
 2025SOL    HW2 6972   0.891   3.520   4.551
 2026SOL     OW 6973   0.382   2.562   4.204
 2026SOL    HW1 6974   0.427   2.472   4.201
 2026SOL    HW2 6975   0.288   2.551   4.237
 2027SOL     OW 6976   1.547   2.084   5.453
 2027SOL    HW1 6977   1.542   2.121   5.545
 2027SOL    HW2 6978   1.475   2.015   5.441
 2028SOL     OW 6979   0.614   1.984   3.841
 2028SOL    HW1 6980   0.712   1.962   3.848
 2028SOL    HW2 6981   0.583   1.967   3.748
 2029SOL     OW 6982   0.781   2.126   5.473
 2029SOL    HW1 6983   0.848   2.065   5.516
 2029SOL    HW2 6984   0.708   2.145   5.538
 2030SOL     OW 6985   0.888   3.376   4.919
 2030SOL    HW1 6986   0.865   3.351   4.825
 2030SOL    HW2 6987   0.949   3.307   4.958
 2031SOL     OW 6988   1.351   2.452   5.157
 2031SOL    HW1 6989   1.379   2.409   5.242
 2031SOL    HW2 6990   1.376   2.548   5.158
 2032SOL     OW 6991   0.803   3.264   4.648
 2032SOL    HW1 6992   0.893   3.278   4.606
 2032SOL    HW2 6993   0.732   3.266   4.577
 2033SOL     OW 6994   0.922   2.365   4.623
 2033SOL    HW1 6995   0.897   2.356   4.527
 2033SOL    HW2 6996   0.970   2.283   4.654
 2034SOL     OW 6997   0.539   1.926   4.236
 2034SOL    HW1 6998   0.458   1.927   4.294
 2034SOL    HW2 6999   0.542   2.009   4.181
 2035SOL     OW 7000   1.434   3.050   3.765
 2035SOL    HW1 7001   1.466   2.974   3.822
 2035SOL    HW2 7002   1.342   3.077   3.795
 2036SOL     OW 7003   0.297   1.897   3.895
 2036SOL    HW1 7004   0.346   1.981   3.874
 2036SOL    HW2 7005   0.359   1.832   3.940
 2037SOL     OW 7006   0.935   2.098   4.204
 2037SOL    HW1 7007   0.887   2.139   4.126
 2037SOL    HW2 7008   1.034   2.096   4.185
 2038SOL     OW 7009   1.076   2.545   5.188
 2038SOL    HW1 7010   0.996   2.484   5.191
 2038SOL    HW2 7011   1.157   2.492   5.164
 2039SOL     OW 7012   1.227   3.432   4.517
 2039SOL    HW1 7013   1.248   3.506   4.452
 2039SOL    HW2 7014   1.295   3.432   4.590
 2040SOL     OW 7015   0.459   3.014   4.465
 2040SOL    HW1 7016   0.388   2.987   4.530
 2040SOL    HW2 7017   0.433   2.986   4.372
 2041SOL     OW 7018   1.271   3.659   4.315
 2041SOL    HW1 7019   1.315   3.723   4.251
 2041SOL    HW2 7020   1.221   3.711   4.385
 2042SOL     OW 7021   1.032   2.411   3.740
 2042SOL    HW1 7022   0.991   2.493   3.701
 2042SOL    HW2 7023   1.096   2.437   3.813
 2043SOL     OW 7024   0.078   2.418   5.110
 2043SOL    HW1 7025   0.170   2.417   5.069
 2043SOL    HW2 7026   0.072   2.492   5.177
 2044SOL     OW 7027   0.561   2.084   4.871
 2044SOL    HW1 7028   0.599   2.000   4.908
 2044SOL    HW2 7029   0.473   2.103   4.915
 2045SOL     OW 7030   0.866   2.316   4.366
 2045SOL    HW1 7031   0.834   2.388   4.304
 2045SOL    HW2 7032   0.890   2.235   4.313
 2046SOL     OW 7033   1.017   1.901   4.477
 2046SOL    HW1 7034   0.945   1.906   4.408
 2046SOL    HW2 7035   0.993   1.832   4.546
 2047SOL     OW 7036   1.429   3.035   4.591
 2047SOL    HW1 7037   1.374   2.951   4.584
 2047SOL    HW2 7038   1.455   3.064   4.499
 2048SOL     OW 7039   1.466   2.452   4.716
 2048SOL    HW1 7040   1.436   2.357   4.723
 2048SOL    HW2 7041   1.539   2.468   4.782
 2049SOL     OW 7042   1.857   2.695   4.101
 2049SOL    HW1 7043   1.899   2.631   4.165
 2049SOL    HW2 7044   1.819   2.644   4.023
 2050SOL     OW 7045   0.488   3.247   3.898
 2050SOL    HW1 7046   0.401   3.232   3.945
 2050SOL    HW2 7047   0.471   3.273   3.803
 2051SOL     OW 7048   1.664   3.142   4.381
 2051SOL    HW1 7049   1.763   3.150   4.395
 2051SOL    HW2 7050   1.619   3.226   4.412
 2052SOL     OW 7051   1.390   2.437   3.802
 2052SOL    HW1 7052   1.336   2.416   3.883
 2052SOL    HW2 7053   1.481   2.396   3.811
 2053SOL     OW 7054   0.527   2.118   4.052
 2053SOL    HW1 7055   0.554   2.059   3.977
 2053SOL    HW2 7056   0.527   2.213   4.021
 2054SOL     OW 7057   1.754   3.085   5.312
 2054SOL    HW1 7058   1.845   3.046   5.299
 2054SOL    HW2 7059   1.762   3.181   5.336
 2055SOL     OW 7060   1.064   3.209   5.064
 2055SOL    HW1 7061   0.984   3.186   5.119
 2055SOL    HW2 7062   1.147   3.183   5.113
 2056SOL     OW 7063   1.592   3.491   5.349
 2056SOL    HW1 7064   1.619   3.525   5.259
 2056SOL    HW2 7065   1.671   3.453   5.395
 2057SOL     OW 7066   1.111   3.057   4.824
 2057SOL    HW1 7067   1.071   3.101   4.905
 2057SOL    HW2 7068   1.070   3.094   4.741
 2058SOL     OW 7069   1.638   2.961   4.803
 2058SOL    HW1 7070   1.643   3.042   4.862
 2058SOL    HW2 7071   1.552   2.963   4.752
 2059SOL     OW 7072   0.915   1.951   5.126
 2059SOL    HW1 7073   0.940   1.931   5.031
 2059SOL    HW2 7074   0.987   2.007   5.168
 2060SOL     OW 7075   0.980   2.978   5.443
 2060SOL    HW1 7076   0.881   2.984   5.453
 2060SOL    HW2 7077   1.003   2.898   5.387
 2061SOL     OW 7078   0.705   2.912   4.092
 2061SOL    HW1 7079   0.691   2.919   4.191
 2061SOL    HW2 7080   0.789   2.861   4.074
 2062SOL     OW 7081   0.410   2.675   4.975
 2062SOL    HW1 7082   0.496   2.687   5.025
 2062SOL    HW2 7083   0.368   2.588   5.002
 2063SOL     OW 7084   1.274   2.248   4.986
 2063SOL    HW1 7085   1.295   2.322   5.050
 2063SOL    HW2 7086   1.185   2.265   4.943
 2064SOL     OW 7087   0.064   3.426   5.055
 2064SOL    HW1 7088   0.018   3.508   5.021
 2064SOL    HW2 7089   0.162   3.445   5.064
 2065SOL     OW 7090   0.367   2.962   4.225
 2065SOL    HW1 7091   0.360   3.045   4.169
 2065SOL    HW2 7092   0.371   2.882   4.165
 2066SOL     OW 7093   0.566   2.399   4.589
 2066SOL    HW1 7094   0.578   2.465   4.515
 2066SOL    HW2 7095   0.612   2.433   4.672
 2067SOL     OW 7096   1.252   3.210   4.112
 2067SOL    HW1 7097   1.302   3.287   4.152
 2067SOL    HW2 7098   1.157   3.212   4.144
 2068SOL     OW 7099   1.272   3.307   4.866
 2068SOL    HW1 7100   1.319   3.320   4.953
 2068SOL    HW2 7101   1.206   3.233   4.875
 2069SOL     OW 7102   1.582   2.501   4.196
 2069SOL    HW1 7103   1.551   2.562   4.269
 2069SOL    HW2 7104   1.632   2.553   4.127
 2070SOL     OW 7105   0.354   3.372   5.053
 2070SOL    HW1 7106   0.333   3.328   4.966
 2070SOL    HW2 7107   0.451   3.398   5.056
 2071SOL     OW 7108   0.402   2.613   5.322
 2071SOL    HW1 7109   0.470   2.668   5.275
 2071SOL    HW2 7110   0.442   2.525   5.349
 2072SOL     OW 7111   1.587   2.641   5.394
 2072SOL    HW1 7112   1.495   2.679   5.389
 2072SOL    HW2 7113   1.647   2.688   5.329
 2073SOL     OW 7114   1.013   1.967   5.494
 2073SOL    HW1 7115   1.019   2.052   5.442
 2073SOL    HW2 7116   1.045   1.891   5.437
 2074SOL     OW 7117   0.504   1.912   5.464
 2074SOL    HW1 7118   0.462   1.855   5.394
 2074SOL    HW2 7119   0.438   1.981   5.496
 2075SOL     OW 7120   0.573   2.732   4.753
 2075SOL    HW1 7121   0.617   2.821   4.744
 2075SOL    HW2 7122   0.510   2.732   4.830
 2076SOL     OW 7123   1.360   2.724   4.769
 2076SOL    HW1 7124   1.285   2.724   4.703
 2076SOL    HW2 7125   1.397   2.632   4.778
 2077SOL     OW 7126   1.209   2.387   3.999
 2077SOL    HW1 7127   1.222   2.303   4.053
 2077SOL    HW2 7128   1.180   2.461   4.059
 2078SOL     OW 7129   0.307   2.075   4.955
 2078SOL    HW1 7130   0.284   2.112   5.045
 2078SOL    HW2 7131   0.277   1.980   4.949
 2079SOL     OW 7132   0.037   3.172   5.006
 2079SOL    HW1 7133   0.090   3.123   5.074
 2079SOL    HW2 7134   0.059   3.270   5.011
 2080SOL     OW 7135   0.732   2.496   4.788
 2080SOL    HW1 7136   0.791   2.470   4.712
 2080SOL    HW2 7137   0.704   2.592   4.777
 2081SOL     OW 7138   1.728   2.797   5.578
 2081SOL    HW1 7139   1.682   2.790   5.489
 2081SOL    HW2 7140   1.666   2.841   5.644
 2082SOL     OW 7141   0.307   1.925   4.342
 2082SOL    HW1 7142   0.296   2.019   4.375
 2082SOL    HW2 7143   0.302   1.862   4.419
 2083SOL     OW 7144   1.622   2.229   4.098
 2083SOL    HW1 7145   1.624   2.153   4.162
 2083SOL    HW2 7146   1.574   2.306   4.138
 2084SOL     OW 7147   1.023   2.628   4.690
 2084SOL    HW1 7148   1.038   2.649   4.786
 2084SOL    HW2 7149   0.993   2.533   4.681
 2085SOL     OW 7150   0.980   3.435   5.424
 2085SOL    HW1 7151   0.960   3.479   5.336
 2085SOL    HW2 7152   1.019   3.344   5.408
 2086SOL     OW 7153   1.859   3.380   5.329
 2086SOL    HW1 7154   1.873   3.407   5.234
 2086SOL    HW2 7155   1.942   3.402   5.382
 2087SOL     OW 7156   0.350   2.760   5.528
 2087SOL    HW1 7157   0.426   2.804   5.576
 2087SOL    HW2 7158   0.385   2.713   5.446
 2088SOL     OW 7159   1.540   2.136   3.849
 2088SOL    HW1 7160   1.479   2.061   3.872
 2088SOL    HW2 7161   1.562   2.188   3.932
 2089SOL     OW 7162   1.303   2.700   3.766
 2089SOL    HW1 7163   1.337   2.607   3.781
 2089SOL    HW2 7164   1.321   2.727   3.671
 2090SOL     OW 7165   1.068   3.195   4.573
 2090SOL    HW1 7166   1.075   3.111   4.518
 2090SOL    HW2 7167   1.130   3.264   4.537
 2091SOL     OW 7168   0.319   2.672   4.673
 2091SOL    HW1 7169   0.412   2.708   4.678
 2091SOL    HW2 7170   0.313   2.587   4.725
 2092SOL     OW 7171   0.339   2.371   4.730
 2092SOL    HW1 7172   0.287   2.288   4.713
 2092SOL    HW2 7173   0.416   2.376   4.666
 2093SOL     OW 7174   1.138   2.242   5.402
 2093SOL    HW1 7175   1.093   2.305   5.466
 2093SOL    HW2 7176   1.231   2.273   5.385
 2094SOL     OW 7177   1.160   2.069   5.201
 2094SOL    HW1 7178   1.160   2.133   5.278
 2094SOL    HW2 7179   1.188   2.117   5.118
 2095SOL     OW 7180   0.008   3.188   3.924
 2095SOL    HW1 7181  -0.085   3.209   3.893
 2095SOL    HW2 7182   0.018   3.089   3.937
 2096SOL     OW 7183   0.088   3.663   4.651
 2096SOL    HW1 7184   0.046   3.577   4.624
 2096SOL    HW2 7185   0.182   3.666   4.617
 2097SOL     OW 7186   0.504   3.430   4.634
 2097SOL    HW1 7187   0.570   3.504   4.643
 2097SOL    HW2 7188   0.548   3.351   4.592
 2098SOL     OW 7189   1.002   2.658   4.962
 2098SOL    HW1 7190   1.043   2.626   5.048
 2098SOL    HW2 7191   0.906   2.631   4.959
 2099SOL     OW 7192   0.040   2.406   4.838
 2099SOL    HW1 7193   0.125   2.373   4.797
 2099SOL    HW2 7194   0.053   2.421   4.936
 2100SOL     OW 7195   0.189   2.382   5.446
 2100SOL    HW1 7196   0.248   2.342   5.376
 2100SOL    HW2 7197   0.131   2.453   5.405
 2101SOL     OW 7198   1.369   2.812   5.384
 2101SOL    HW1 7199   1.408   2.901   5.404
 2101SOL    HW2 7200   1.379   2.792   5.287
 2102SOL     OW 7201   0.815   2.434   4.049
 2102SOL    HW1 7202   0.822   2.345   4.003
 2102SOL    HW2 7203   0.721   2.468   4.041
 2103SOL     OW 7204   1.657   2.466   4.930
 2103SOL    HW1 7205   1.619   2.397   4.992
 2103SOL    HW2 7206   1.739   2.430   4.886
 2104SOL     OW 7207   0.252   3.426   5.468
 2104SOL    HW1 7208   0.222   3.483   5.544
 2104SOL    HW2 7209   0.245   3.329   5.494
 2105SOL     OW 7210   0.671   2.326   4.993
 2105SOL    HW1 7211   0.637   2.237   4.963
 2105SOL    HW2 7212   0.697   2.380   4.913
 2106SOL     OW 7213   0.930   3.540   5.189
 2106SOL    HW1 7214   0.906   3.522   5.094
 2106SOL    HW2 7215   0.960   3.634   5.199
 2107SOL     OW 7216   0.473   2.362   3.915
 2107SOL    HW1 7217   0.534   2.442   3.919
 2107SOL    HW2 7218   0.378   2.393   3.922
 2108SOL     OW 7219   0.159   2.999   5.190
 2108SOL    HW1 7220   0.181   2.938   5.266
 2108SOL    HW2 7221   0.169   2.950   5.104
 2109SOL     OW 7222   1.347   2.921   4.958
 2109SOL    HW1 7223   1.371   2.858   4.884
 2109SOL    HW2 7224   1.257   2.961   4.940
 2110SOL     OW 7225   1.302   2.717   4.033
 2110SOL    HW1 7226   1.216   2.686   4.075
 2110SOL    HW2 7227   1.298   2.703   3.934
 2111SOL     OW 7228   1.759   3.609   4.878
 2111SOL    HW1 7229   1.820   3.639   4.805
 2111SOL    HW2 7230   1.721   3.520   4.856
 2112SOL     OW 7231   1.252   3.593   4.852
 2112SOL    HW1 7232   1.336   3.598   4.798
 2112SOL    HW2 7233   1.229   3.497   4.870
 2113SOL     OW 7234   0.083   3.120   4.746
 2113SOL    HW1 7235   0.078   3.119   4.846
 2113SOL    HW2 7236   0.000   3.079   4.708
 2114SOL     OW 7237   0.688   3.524   5.440
 2114SOL    HW1 7238   0.632   3.605   5.449
 2114SOL    HW2 7239   0.740   3.528   5.354
 2115SOL     OW 7240   1.388   3.435   4.201
 2115SOL    HW1 7241   1.455   3.447   4.127
 2115SOL    HW2 7242   1.348   3.524   4.224
 2116SOL     OW 7243   0.130   3.656   5.575
 2116SOL    HW1 7244   0.089   3.582   5.628
 2116SOL    HW2 7245   0.194   3.707   5.633
 2117SOL     OW 7246   1.280   2.789   4.396
 2117SOL    HW1 7247   1.340   2.708   4.398
 2117SOL    HW2 7248   1.320   2.858   4.336
 2118SOL     OW 7249   0.830   3.135   5.146
 2118SOL    HW1 7250   0.825   3.168   5.241
 2118SOL    HW2 7251   0.744   3.154   5.100
 2119SOL     OW 7252   0.672   3.478   3.878
 2119SOL    HW1 7253   0.681   3.488   3.779
 2119SOL    HW2 7254   0.632   3.389   3.899
 2120SOL     OW 7255   1.650   3.582   5.118
 2120SOL    HW1 7256   1.703   3.592   5.034
 2120SOL    HW2 7257   1.623   3.672   5.152
 2121SOL     OW 7258   0.263   2.188   4.444
 2121SOL    HW1 7259   0.184   2.239   4.410
 2121SOL    HW2 7260   0.254   2.173   4.542
 2122SOL     OW 7261   1.194   3.474   3.755
 2122SOL    HW1 7262   1.200   3.381   3.792
 2122SOL    HW2 7263   1.135   3.474   3.675
 2123SOL     OW 7264   0.822   2.864   5.096
 2123SOL    HW1 7265   0.862   2.863   5.004
 2123SOL    HW2 7266   0.832   2.956   5.136
 2124SOL     OW 7267   0.916   2.772   4.015
 2124SOL    HW1 7268   0.979   2.810   3.947
 2124SOL    HW2 7269   0.956   2.689   4.054
 2125SOL     OW 7270   1.504   3.469   3.768
 2125SOL    HW1 7271   1.412   3.506   3.775
 2125SOL    HW2 7272   1.542   3.489   3.678
 2126SOL     OW 7273   0.372   3.150   5.214
 2126SOL    HW1 7274   0.359   3.243   5.180
 2126SOL    HW2 7275   0.288   3.098   5.201
 2127SOL     OW 7276   1.614   3.154   5.013
 2127SOL    HW1 7277   1.674   3.157   5.093
 2127SOL    HW2 7278   1.539   3.218   5.026
 2128SOL     OW 7279   1.039   2.960   4.420
 2128SOL    HW1 7280   0.969   2.913   4.474
 2128SOL    HW2 7281   1.098   2.892   4.377
 2129SOL     OW 7282   1.014   2.098   4.695
 2129SOL    HW1 7283   1.006   2.062   4.602
 2129SOL    HW2 7284   1.012   2.022   4.760
 2130SOL     OW 7285   0.590   3.349   4.215
 2130SOL    HW1 7286   0.632   3.291   4.145
 2130SOL    HW2 7287   0.546   3.428   4.171
 2131SOL     OW 7288   1.709   2.247   5.105
 2131SOL    HW1 7289   1.782   2.316   5.109
 2131SOL    HW2 7290   1.737   2.172   5.046
 2132SOL     OW 7291   0.255   3.210   4.014
 2132SOL    HW1 7292   0.159   3.211   3.987
 2132SOL    HW2 7293   0.267   3.263   4.098
 2133SOL     OW 7294   0.105   2.875   5.450
 2133SOL    HW1 7295   0.028   2.842   5.504
 2133SOL    HW2 7296   0.190   2.845   5.492
 2134SOL     OW 7297   0.672   2.065   5.213
 2134SOL    HW1 7298   0.762   2.049   5.173
 2134SOL    HW2 7299   0.680   2.070   5.312
 2135SOL     OW 7300   0.075   2.207   3.757
 2135SOL    HW1 7301  -0.017   2.179   3.728
 2135SOL    HW2 7302   0.106   2.284   3.701
 2136SOL     OW 7303   1.440   2.718   5.122
 2136SOL    HW1 7304   1.383   2.770   5.059
 2136SOL    HW2 7305   1.536   2.730   5.098
 2137SOL     OW 7306   0.072   2.028   4.042
 2137SOL    HW1 7307   0.055   2.111   3.988
 2137SOL    HW2 7308   0.162   1.991   4.020
 2138SOL     OW 7309   1.183   3.197   3.843
 2138SOL    HW1 7310   1.084   3.186   3.845
 2138SOL    HW2 7311   1.217   3.212   3.936
 2139SOL     OW 7312   0.613   2.704   5.155
 2139SOL    HW1 7313   0.669   2.785   5.138
 2139SOL    HW2 7314   0.672   2.624   5.158
 2140SOL     OW 7315   1.493   3.629   4.683
 2140SOL    HW1 7316   1.526   3.693   4.614
 2140SOL    HW2 7317   1.559   3.623   4.758
 2141SOL     OW 7318   0.716   2.427   5.432
 2141SOL    HW1 7319   0.735   2.492   5.506
 2141SOL    HW2 7320   0.776   2.347   5.441
 2142SOL     OW 7321   1.450   3.082   5.357
 2142SOL    HW1 7322   1.441   3.072   5.456
 2142SOL    HW2 7323   1.546   3.075   5.331
 2143SOL     OW 7324   0.390   3.603   5.284
 2143SOL    HW1 7325   0.299   3.644   5.282
 2143SOL    HW2 7326   0.383   3.509   5.316
 2144SOL     OW 7327   1.674   2.745   4.978
 2144SOL    HW1 7328   1.647   2.656   4.941
 2144SOL    HW2 7329   1.675   2.813   4.905
 2145SOL     OW 7330   1.225   2.187   4.173
 2145SOL    HW1 7331   1.290   2.113   4.162
 2145SOL    HW2 7332   1.245   2.237   4.257
 2146SOL     OW 7333   0.594   2.607   4.376
 2146SOL    HW1 7334   0.644   2.692   4.357
 2146SOL    HW2 7335   0.506   2.609   4.328
 2147SOL     OW 7336   1.777   2.204   5.366
 2147SOL    HW1 7337   1.760   2.235   5.272
 2147SOL    HW2 7338   1.693   2.167   5.404
 2148SOL     OW 7339   1.730   2.796   5.241
 2148SOL    HW1 7340   1.768   2.887   5.256
 2148SOL    HW2 7341   1.722   2.779   5.142
 2149SOL     OW 7342   0.859   3.236   3.740
 2149SOL    HW1 7343   0.813   3.251   3.828
 2149SOL    HW2 7344   0.903   3.321   3.710
 2150SOL     OW 7345   0.661   3.652   4.677
 2150SOL    HW1 7346   0.615   3.740   4.664
 2150SOL    HW2 7347   0.760   3.664   4.670
 2151SOL     OW 7348   0.859   2.818   4.585
 2151SOL    HW1 7349   0.913   2.749   4.633
 2151SOL    HW2 7350   0.827   2.887   4.651
 2152SOL     OW 7351   1.083   2.846   3.811
 2152SOL    HW1 7352   1.060   2.899   3.729
 2152SOL    HW2 7353   1.164   2.790   3.792
 2153SOL     OW 7354   1.861   3.431   4.575
 2153SOL    HW1 7355   1.790   3.419   4.505
 2153SOL    HW2 7356   1.862   3.352   4.635
 2154SOL     OW 7357   0.221   3.176   5.568
 2154SOL    HW1 7358   0.156   3.103   5.547
 2154SOL    HW2 7359   0.225   3.190   5.666
 2155SOL     OW 7360   0.079   3.102   4.377
 2155SOL    HW1 7361   0.078   3.055   4.465
 2155SOL    HW2 7362   0.161   3.074   4.326
 2156SOL     OW 7363   0.672   3.253   5.348
 2156SOL    HW1 7364   0.594   3.203   5.386
 2156SOL    HW2 7365   0.669   3.348   5.379
 2157SOL     OW 7366   0.428   2.286   4.244
 2157SOL    HW1 7367   0.458   2.214   4.182
 2157SOL    HW2 7368   0.389   2.246   4.327
 2158SOL     OW 7369   1.705   3.349   4.828
 2158SOL    HW1 7370   1.612   3.324   4.801
 2158SOL    HW2 7371   1.731   3.299   4.910
 2159SOL     OW 7372   0.317   2.409   5.004
 2159SOL    HW1 7373   0.355   2.350   5.076
 2159SOL    HW2 7374   0.357   2.383   4.916
 2160SOL     OW 7375   0.812   3.448   4.411
 2160SOL    HW1 7376   0.844   3.458   4.317
 2160SOL    HW2 7377   0.733   3.386   4.413
 2161SOL     OW 7378   1.424   2.076   4.836
 2161SOL    HW1 7379   1.476   2.011   4.891
 2161SOL    HW2 7380   1.375   2.139   4.897
 2162SOL     OW 7381   1.001   1.896   4.878
 2162SOL    HW1 7382   0.938   1.824   4.847
 2162SOL    HW2 7383   1.094   1.860   4.878
 2163SOL     OW 7384   0.770   3.192   4.025
 2163SOL    HW1 7385   0.724   3.105   4.042
 2163SOL    HW2 7386   0.861   3.189   4.066
 2164SOL     OW 7387   0.618   3.429   5.008
 2164SOL    HW1 7388   0.613   3.511   5.065
 2164SOL    HW2 7389   0.707   3.426   4.963
 2165SOL     OW 7390   1.352   1.914   3.892
 2165SOL    HW1 7391   1.387   1.873   3.808
 2165SOL    HW2 7392   1.262   1.876   3.912
 2166SOL     OW 7393   1.300   2.315   4.415
 2166SOL    HW1 7394   1.241   2.395   4.419
 2166SOL    HW2 7395   1.315   2.280   4.508
 2167SOL     OW 7396   1.593   2.083   4.606
 2167SOL    HW1 7397   1.509   2.082   4.660
 2167SOL    HW2 7398   1.595   2.166   4.550
 2168SOL     OW 7399   0.039   2.939   4.024
 2168SOL    HW1 7400   0.138   2.928   4.015
 2168SOL    HW2 7401  -0.001   2.853   4.056
 2169SOL     OW 7402   0.875   3.508   4.061
 2169SOL    HW1 7403   0.798   3.473   4.007
 2169SOL    HW2 7404   0.843   3.579   4.123
 2170SOL     OW 7405   0.230   2.490   5.699
 2170SOL    HW1 7406   0.137   2.488   5.736
 2170SOL    HW2 7407   0.231   2.451   5.607
 2171SOL     OW 7408   0.225   2.137   6.582
 2171SOL    HW1 7409   0.260   2.120   6.674
 2171SOL    HW2 7410   0.137   2.092   6.570
 2172SOL     OW 7411   0.019   2.230   6.233
 2172SOL    HW1 7412  -0.063   2.273   6.272
 2172SOL    HW2 7413  -0.009   2.157   6.170
 2173SOL     OW 7414   0.569   3.137   6.751
 2173SOL    HW1 7415   0.476   3.130   6.714
 2173SOL    HW2 7416   0.580   3.226   6.795
 2174SOL     OW 7417   1.555   3.373   6.289
 2174SOL    HW1 7418   1.498   3.357   6.370
 2174SOL    HW2 7419   1.496   3.383   6.209
 2175SOL     OW 7420   1.135   2.565   6.303
 2175SOL    HW1 7421   1.192   2.643   6.278
 2175SOL    HW2 7422   1.075   2.591   6.379
 2176SOL     OW 7423   1.755   2.469   5.817
 2176SOL    HW1 7424   1.743   2.456   5.718
 2176SOL    HW2 7425   1.725   2.388   5.866
 2177SOL     OW 7426   0.768   3.006   6.609
 2177SOL    HW1 7427   0.690   3.023   6.669
 2177SOL    HW2 7428   0.802   3.093   6.573
 2178SOL     OW 7429   0.850   2.660   7.409
 2178SOL    HW1 7430   0.846   2.736   7.474
 2178SOL    HW2 7431   0.872   2.696   7.318
 2179SOL     OW 7432   0.685   2.874   6.251
 2179SOL    HW1 7433   0.754   2.858   6.321
 2179SOL    HW2 7434   0.612   2.931   6.289
 2180SOL     OW 7435   0.686   3.023   7.389
 2180SOL    HW1 7436   0.746   3.102   7.403
 2180SOL    HW2 7437   0.600   3.054   7.348
 2181SOL     OW 7438   0.335   3.297   6.647
 2181SOL    HW1 7439   0.257   3.266   6.594
 2181SOL    HW2 7440   0.393   3.355   6.590
 2182SOL     OW 7441   1.460   3.367   6.925
 2182SOL    HW1 7442   1.484   3.461   6.951
 2182SOL    HW2 7443   1.444   3.313   7.007
 2183SOL     OW 7444   0.438   2.254   7.085
 2183SOL    HW1 7445   0.520   2.198   7.094
 2183SOL    HW2 7446   0.357   2.196   7.089
 2184SOL     OW 7447   0.231   3.575   6.069
 2184SOL    HW1 7448   0.265   3.652   6.123
 2184SOL    HW2 7449   0.275   3.575   5.979
 2185SOL     OW 7450   1.127   3.203   7.276
 2185SOL    HW1 7451   1.174   3.203   7.364
 2185SOL    HW2 7452   1.079   3.116   7.265
 2186SOL     OW 7453   0.230   3.296   6.124
 2186SOL    HW1 7454   0.204   3.392   6.124
 2186SOL    HW2 7455   0.159   3.242   6.169
 2187SOL     OW 7456   0.240   2.953   6.472
 2187SOL    HW1 7457   0.254   2.869   6.524
 2187SOL    HW2 7458   0.185   3.017   6.527
 2188SOL     OW 7459   0.620   3.648   7.025
 2188SOL    HW1 7460   0.528   3.631   7.060
 2188SOL    HW2 7461   0.648   3.740   7.051
 2189SOL     OW 7462   0.606   2.826   5.709
 2189SOL    HW1 7463   0.613   2.910   5.655
 2189SOL    HW2 7464   0.652   2.839   5.797
 2190SOL     OW 7465   1.594   1.976   7.066
 2190SOL    HW1 7466   1.576   2.043   6.994
 2190SOL    HW2 7467   1.591   2.022   7.155
 2191SOL     OW 7468   0.122   2.505   6.149
 2191SOL    HW1 7469   0.077   2.417   6.166
 2191SOL    HW2 7470   0.121   2.559   6.233
 2192SOL     OW 7471   1.842   3.629   5.945
 2192SOL    HW1 7472   1.896   3.600   6.025
 2192SOL    HW2 7473   1.872   3.719   5.916
 2193SOL     OW 7474   0.027   3.458   5.703
 2193SOL    HW1 7475   0.008   3.362   5.724
 2193SOL    HW2 7476  -0.006   3.516   5.778
 2194SOL     OW 7477   1.641   2.970   6.018
 2194SOL    HW1 7478   1.727   2.972   5.966
 2194SOL    HW2 7479   1.655   3.017   6.106
 2195SOL     OW 7480   0.113   2.599   7.183
 2195SOL    HW1 7481   0.201   2.586   7.228
 2195SOL    HW2 7482   0.100   2.696   7.161
 2196SOL     OW 7483   0.613   3.227   6.312
 2196SOL    HW1 7484   0.564   3.140   6.321
 2196SOL    HW2 7485   0.590   3.270   6.225
 2197SOL     OW 7486   1.293   3.090   7.009
 2197SOL    HW1 7487   1.330   3.017   6.951
 2197SOL    HW2 7488   1.345   3.095   7.094
 2198SOL     OW 7489   0.809   1.866   6.088
 2198SOL    HW1 7490   0.849   1.957   6.079
 2198SOL    HW2 7491   0.709   1.874   6.094
 2199SOL     OW 7492   0.197   2.838   6.850
 2199SOL    HW1 7493   0.286   2.793   6.836
 2199SOL    HW2 7494   0.124   2.773   6.831
 2200SOL     OW 7495   1.525   2.861   5.776
 2200SOL    HW1 7496   1.462   2.785   5.789
 2200SOL    HW2 7497   1.573   2.879   5.862
 2201SOL     OW 7498   1.187   3.654   7.202
 2201SOL    HW1 7499   1.211   3.714   7.126
 2201SOL    HW2 7500   1.194   3.559   7.172
 2202SOL     OW 7501   0.317   2.113   7.387
 2202SOL    HW1 7502   0.388   2.184   7.393
 2202SOL    HW2 7503   0.229   2.152   7.415
 2203SOL     OW 7504   1.466   3.279   6.539
 2203SOL    HW1 7505   1.407   3.285   6.619
 2203SOL    HW2 7506   1.451   3.191   6.493
 2204SOL     OW 7507   1.667   3.576   6.158
 2204SOL    HW1 7508   1.626   3.553   6.070
 2204SOL    HW2 7509   1.649   3.502   6.223
 2205SOL     OW 7510   0.598   2.591   5.856
 2205SOL    HW1 7511   0.622   2.660   5.788
 2205SOL    HW2 7512   0.520   2.624   5.910
 2206SOL     OW 7513   1.576   3.524   5.893
 2206SOL    HW1 7514   1.665   3.570   5.896
 2206SOL    HW2 7515   1.555   3.500   5.798
 2207SOL     OW 7516   0.807   2.467   7.051
 2207SOL    HW1 7517   0.760   2.464   7.140
 2207SOL    HW2 7518   0.756   2.412   6.985
 2208SOL     OW 7519   0.973   2.752   7.158
 2208SOL    HW1 7520   1.019   2.668   7.129
 2208SOL    HW2 7521   0.917   2.786   7.083
 2209SOL     OW 7522   0.991   2.272   6.828
 2209SOL    HW1 7523   0.914   2.306   6.882
 2209SOL    HW2 7524   0.957   2.221   6.749
 2210SOL     OW 7525   1.041   2.563   6.015
 2210SOL    HW1 7526   1.067   2.559   6.111
 2210SOL    HW2 7527   0.956   2.512   6.001
 2211SOL     OW 7528   0.076   2.673   6.375
 2211SOL    HW1 7529   0.175   2.661   6.384
 2211SOL    HW2 7530   0.052   2.768   6.396
 2212SOL     OW 7531   0.130   3.683   7.157
 2212SOL    HW1 7532   0.120   3.668   7.256
 2212SOL    HW2 7533   0.044   3.719   7.121
 2213SOL     OW 7534   0.865   2.210   5.781
 2213SOL    HW1 7535   0.924   2.273   5.732
 2213SOL    HW2 7536   0.884   2.116   5.752
 2214SOL     OW 7537   1.362   3.006   6.131
 2214SOL    HW1 7538   1.445   2.977   6.083
 2214SOL    HW2 7539   1.313   3.073   6.075
 2215SOL     OW 7540   0.550   2.058   6.471
 2215SOL    HW1 7541   0.545   2.053   6.571
 2215SOL    HW2 7542   0.552   2.154   6.442
 2216SOL     OW 7543   1.008   3.318   6.063
 2216SOL    HW1 7544   0.962   3.390   6.011
 2216SOL    HW2 7545   1.004   3.338   6.161
 2217SOL     OW 7546   0.351   3.663   6.439
 2217SOL    HW1 7547   0.401   3.577   6.445
 2217SOL    HW2 7548   0.416   3.740   6.436
 2218SOL     OW 7549   1.795   2.928   6.459
 2218SOL    HW1 7550   1.733   2.913   6.383
 2218SOL    HW2 7551   1.743   2.939   6.544
 2219SOL     OW 7552   1.227   3.412   7.092
 2219SOL    HW1 7553   1.233   3.335   7.156
 2219SOL    HW2 7554   1.175   3.386   7.012
 2220SOL     OW 7555   0.321   2.805   5.828
 2220SOL    HW1 7556   0.403   2.844   5.786
 2220SOL    HW2 7557   0.294   2.723   5.779
 2221SOL     OW 7558   0.461   3.128   7.313
 2221SOL    HW1 7559   0.411   3.129   7.227
 2221SOL    HW2 7560   0.398   3.110   7.389
 2222SOL     OW 7561   1.111   3.638   5.823
 2222SOL    HW1 7562   1.051   3.576   5.873
 2222SOL    HW2 7563   1.142   3.594   5.738
 2223SOL     OW 7564   0.202   2.147   7.084
 2223SOL    HW1 7565   0.122   2.207   7.071
 2223SOL    HW2 7566   0.192   2.098   7.170
 2224SOL     OW 7567   1.632   3.239   5.667
 2224SOL    HW1 7568   1.600   3.333   5.657
 2224SOL    HW2 7569   1.556   3.176   5.655
 2225SOL     OW 7570   0.464   3.605   5.909
 2225SOL    HW1 7571   0.497   3.644   5.995
 2225SOL    HW2 7572   0.540   3.598   5.844
 2226SOL     OW 7573   0.249   3.647   6.827
 2226SOL    HW1 7574   0.306   3.582   6.877
 2226SOL    HW2 7575   0.233   3.614   6.734
 2227SOL     OW 7576   0.940   3.560   6.490
 2227SOL    HW1 7577   1.020   3.503   6.511
 2227SOL    HW2 7578   0.891   3.520   6.413
 2228SOL     OW 7579   0.382   2.562   6.066
 2228SOL    HW1 7580   0.427   2.472   6.063
 2228SOL    HW2 7581   0.288   2.551   6.099
 2229SOL     OW 7582   0.614   1.984   5.703
 2229SOL    HW1 7583   0.712   1.962   5.710
 2229SOL    HW2 7584   0.583   1.967   5.610
 2230SOL     OW 7585   0.781   2.126   7.335
 2230SOL    HW1 7586   0.848   2.065   7.378
 2230SOL    HW2 7587   0.708   2.145   7.400
 2231SOL     OW 7588   0.888   3.376   6.781
 2231SOL    HW1 7589   0.865   3.351   6.687
 2231SOL    HW2 7590   0.949   3.307   6.820
 2232SOL     OW 7591   1.351   2.452   7.019
 2232SOL    HW1 7592   1.379   2.409   7.104
 2232SOL    HW2 7593   1.376   2.548   7.020
 2233SOL     OW 7594   0.803   3.264   6.510
 2233SOL    HW1 7595   0.893   3.278   6.468
 2233SOL    HW2 7596   0.732   3.266   6.439
 2234SOL     OW 7597   0.922   2.365   6.485
 2234SOL    HW1 7598   0.897   2.356   6.389
 2234SOL    HW2 7599   0.970   2.283   6.516
 2235SOL     OW 7600   0.539   1.926   6.098
 2235SOL    HW1 7601   0.458   1.927   6.156
 2235SOL    HW2 7602   0.542   2.009   6.043
 2236SOL     OW 7603   1.434   3.050   5.627
 2236SOL    HW1 7604   1.466   2.974   5.684
 2236SOL    HW2 7605   1.342   3.077   5.657
 2237SOL     OW 7606   0.297   1.897   5.757
 2237SOL    HW1 7607   0.346   1.981   5.736
 2237SOL    HW2 7608   0.359   1.832   5.802
 2238SOL     OW 7609   0.935   2.098   6.066
 2238SOL    HW1 7610   0.887   2.139   5.988
 2238SOL    HW2 7611   1.034   2.096   6.047
 2239SOL     OW 7612   1.076   2.545   7.050
 2239SOL    HW1 7613   0.996   2.484   7.053
 2239SOL    HW2 7614   1.157   2.492   7.026
 2240SOL     OW 7615   1.227   3.432   6.379
 2240SOL    HW1 7616   1.248   3.506   6.314
 2240SOL    HW2 7617   1.295   3.432   6.452
 2241SOL     OW 7618   0.459   3.014   6.327
 2241SOL    HW1 7619   0.388   2.987   6.392
 2241SOL    HW2 7620   0.433   2.986   6.234
 2242SOL     OW 7621   1.271   3.659   6.177
 2242SOL    HW1 7622   1.315   3.723   6.113
 2242SOL    HW2 7623   1.221   3.711   6.247
 2243SOL     OW 7624   1.032   2.411   5.602
 2243SOL    HW1 7625   0.991   2.493   5.563
 2243SOL    HW2 7626   1.096   2.437   5.675
 2244SOL     OW 7627   0.078   2.418   6.972
 2244SOL    HW1 7628   0.170   2.417   6.931
 2244SOL    HW2 7629   0.072   2.492   7.039
 2245SOL     OW 7630   0.561   2.084   6.733
 2245SOL    HW1 7631   0.599   2.000   6.770
 2245SOL    HW2 7632   0.473   2.103   6.777
 2246SOL     OW 7633   0.866   2.316   6.228
 2246SOL    HW1 7634   0.834   2.388   6.166
 2246SOL    HW2 7635   0.890   2.235   6.175
 2247SOL     OW 7636   1.429   3.035   6.453
 2247SOL    HW1 7637   1.374   2.951   6.446
 2247SOL    HW2 7638   1.455   3.064   6.361
 2248SOL     OW 7639   0.488   3.247   5.760
 2248SOL    HW1 7640   0.401   3.232   5.807
 2248SOL    HW2 7641   0.471   3.273   5.665
 2249SOL     OW 7642   1.664   3.142   6.243
 2249SOL    HW1 7643   1.763   3.150   6.257
 2249SOL    HW2 7644   1.619   3.226   6.274
 2250SOL     OW 7645   1.390   2.437   5.664
 2250SOL    HW1 7646   1.336   2.416   5.745
 2250SOL    HW2 7647   1.481   2.396   5.673
 2251SOL     OW 7648   0.527   2.118   5.914
 2251SOL    HW1 7649   0.554   2.059   5.839
 2251SOL    HW2 7650   0.527   2.213   5.883
 2252SOL     OW 7651   1.754   3.085   7.174
 2252SOL    HW1 7652   1.845   3.046   7.161
 2252SOL    HW2 7653   1.762   3.181   7.198
 2253SOL     OW 7654   1.064   3.209   6.926
 2253SOL    HW1 7655   0.984   3.186   6.981
 2253SOL    HW2 7656   1.147   3.183   6.975
 2254SOL     OW 7657   1.592   3.491   7.211
 2254SOL    HW1 7658   1.619   3.525   7.121
 2254SOL    HW2 7659   1.671   3.453   7.257
 2255SOL     OW 7660   1.111   3.057   6.686
 2255SOL    HW1 7661   1.071   3.101   6.767
 2255SOL    HW2 7662   1.070   3.094   6.603
 2256SOL     OW 7663   1.638   2.961   6.665
 2256SOL    HW1 7664   1.643   3.042   6.724
 2256SOL    HW2 7665   1.552   2.963   6.614
 2257SOL     OW 7666   0.915   1.951   6.988
 2257SOL    HW1 7667   0.940   1.931   6.893
 2257SOL    HW2 7668   0.987   2.007   7.030
 2258SOL     OW 7669   0.980   2.978   7.305
 2258SOL    HW1 7670   0.881   2.984   7.315
 2258SOL    HW2 7671   1.003   2.898   7.249
 2259SOL     OW 7672   0.705   2.912   5.954
 2259SOL    HW1 7673   0.691   2.919   6.053
 2259SOL    HW2 7674   0.789   2.861   5.936
 2260SOL     OW 7675   0.410   2.675   6.837
 2260SOL    HW1 7676   0.496   2.687   6.887
 2260SOL    HW2 7677   0.368   2.588   6.864
 2261SOL     OW 7678   0.064   3.426   6.917
 2261SOL    HW1 7679   0.018   3.508   6.883
 2261SOL    HW2 7680   0.162   3.445   6.926
 2262SOL     OW 7681   0.367   2.962   6.087
 2262SOL    HW1 7682   0.360   3.045   6.031
 2262SOL    HW2 7683   0.371   2.882   6.027
 2263SOL     OW 7684   0.566   2.399   6.451
 2263SOL    HW1 7685   0.578   2.465   6.377
 2263SOL    HW2 7686   0.612   2.433   6.534
 2264SOL     OW 7687   1.252   3.210   5.974
 2264SOL    HW1 7688   1.302   3.287   6.014
 2264SOL    HW2 7689   1.157   3.212   6.006
 2265SOL     OW 7690   1.272   3.307   6.728
 2265SOL    HW1 7691   1.319   3.320   6.815
 2265SOL    HW2 7692   1.206   3.233   6.737
 2266SOL     OW 7693   0.354   3.372   6.915
 2266SOL    HW1 7694   0.333   3.328   6.828
 2266SOL    HW2 7695   0.451   3.398   6.918
 2267SOL     OW 7696   0.402   2.613   7.184
 2267SOL    HW1 7697   0.470   2.668   7.137
 2267SOL    HW2 7698   0.442   2.525   7.211
 2268SOL     OW 7699   0.504   1.912   7.326
 2268SOL    HW1 7700   0.462   1.855   7.256
 2268SOL    HW2 7701   0.438   1.981   7.358
 2269SOL     OW 7702   0.573   2.732   6.615
 2269SOL    HW1 7703   0.617   2.821   6.606
 2269SOL    HW2 7704   0.510   2.732   6.692
 2270SOL     OW 7705   0.307   2.075   6.817
 2270SOL    HW1 7706   0.284   2.112   6.907
 2270SOL    HW2 7707   0.277   1.980   6.811
 2271SOL     OW 7708   0.037   3.172   6.868
 2271SOL    HW1 7709   0.090   3.123   6.936
 2271SOL    HW2 7710   0.059   3.270   6.873
 2272SOL     OW 7711   0.732   2.496   6.650
 2272SOL    HW1 7712   0.791   2.470   6.574
 2272SOL    HW2 7713   0.704   2.592   6.639
 2273SOL     OW 7714   0.307   1.925   6.204
 2273SOL    HW1 7715   0.296   2.019   6.237
 2273SOL    HW2 7716   0.302   1.862   6.281
 2274SOL     OW 7717   1.023   2.628   6.552
 2274SOL    HW1 7718   1.038   2.649   6.648
 2274SOL    HW2 7719   0.993   2.533   6.543
 2275SOL     OW 7720   0.980   3.435   7.286
 2275SOL    HW1 7721   0.960   3.479   7.198
 2275SOL    HW2 7722   1.019   3.344   7.270
 2276SOL     OW 7723   1.859   3.380   7.191
 2276SOL    HW1 7724   1.873   3.407   7.096
 2276SOL    HW2 7725   1.942   3.402   7.244
 2277SOL     OW 7726   0.350   2.760   7.390
 2277SOL    HW1 7727   0.426   2.804   7.438
 2277SOL    HW2 7728   0.385   2.713   7.308
 2278SOL     OW 7729   1.540   2.136   5.711
 2278SOL    HW1 7730   1.479   2.061   5.734
 2278SOL    HW2 7731   1.562   2.188   5.794
 2279SOL     OW 7732   1.303   2.700   5.628
 2279SOL    HW1 7733   1.337   2.607   5.643
 2279SOL    HW2 7734   1.321   2.727   5.533
 2280SOL     OW 7735   1.068   3.195   6.435
 2280SOL    HW1 7736   1.075   3.111   6.380
 2280SOL    HW2 7737   1.130   3.264   6.399
 2281SOL     OW 7738   0.319   2.672   6.535
 2281SOL    HW1 7739   0.412   2.708   6.540
 2281SOL    HW2 7740   0.313   2.587   6.587
 2282SOL     OW 7741   0.339   2.371   6.592
 2282SOL    HW1 7742   0.287   2.288   6.575
 2282SOL    HW2 7743   0.416   2.376   6.528
 2283SOL     OW 7744   0.008   3.188   5.786
 2283SOL    HW1 7745  -0.085   3.209   5.755
 2283SOL    HW2 7746   0.018   3.089   5.799
 2284SOL     OW 7747   0.088   3.663   6.513
 2284SOL    HW1 7748   0.046   3.577   6.486
 2284SOL    HW2 7749   0.182   3.666   6.479
 2285SOL     OW 7750   0.504   3.430   6.496
 2285SOL    HW1 7751   0.570   3.504   6.505
 2285SOL    HW2 7752   0.548   3.351   6.454
 2286SOL     OW 7753   1.002   2.658   6.824
 2286SOL    HW1 7754   1.043   2.626   6.910
 2286SOL    HW2 7755   0.906   2.631   6.821
 2287SOL     OW 7756   0.040   2.406   6.700
 2287SOL    HW1 7757   0.125   2.373   6.659
 2287SOL    HW2 7758   0.053   2.421   6.798
 2288SOL     OW 7759   0.189   2.382   7.308
 2288SOL    HW1 7760   0.248   2.342   7.238
 2288SOL    HW2 7761   0.131   2.453   7.267
 2289SOL     OW 7762   1.369   2.812   7.246
 2289SOL    HW1 7763   1.408   2.901   7.266
 2289SOL    HW2 7764   1.379   2.792   7.149
 2290SOL     OW 7765   0.815   2.434   5.911
 2290SOL    HW1 7766   0.822   2.345   5.865
 2290SOL    HW2 7767   0.721   2.468   5.903
 2291SOL     OW 7768   0.252   3.426   7.330
 2291SOL    HW1 7769   0.222   3.483   7.406
 2291SOL    HW2 7770   0.245   3.329   7.356
 2292SOL     OW 7771   0.671   2.326   6.855
 2292SOL    HW1 7772   0.637   2.237   6.825
 2292SOL    HW2 7773   0.697   2.380   6.775
 2293SOL     OW 7774   0.930   3.540   7.051
 2293SOL    HW1 7775   0.906   3.522   6.956
 2293SOL    HW2 7776   0.960   3.634   7.061
 2294SOL     OW 7777   0.473   2.362   5.777
 2294SOL    HW1 7778   0.534   2.442   5.781
 2294SOL    HW2 7779   0.378   2.393   5.784
 2295SOL     OW 7780   0.159   2.999   7.052
 2295SOL    HW1 7781   0.181   2.938   7.128
 2295SOL    HW2 7782   0.169   2.950   6.966
 2296SOL     OW 7783   1.347   2.921   6.820
 2296SOL    HW1 7784   1.371   2.858   6.746
 2296SOL    HW2 7785   1.257   2.961   6.802
 2297SOL     OW 7786   1.302   2.717   5.895
 2297SOL    HW1 7787   1.216   2.686   5.937
 2297SOL    HW2 7788   1.298   2.703   5.796
 2298SOL     OW 7789   1.759   3.609   6.740
 2298SOL    HW1 7790   1.820   3.639   6.667
 2298SOL    HW2 7791   1.721   3.520   6.718
 2299SOL     OW 7792   1.252   3.593   6.714
 2299SOL    HW1 7793   1.336   3.598   6.660
 2299SOL    HW2 7794   1.229   3.497   6.732
 2300SOL     OW 7795   0.083   3.120   6.608
 2300SOL    HW1 7796   0.078   3.119   6.708
 2300SOL    HW2 7797   0.000   3.079   6.570
 2301SOL     OW 7798   0.688   3.524   7.302
 2301SOL    HW1 7799   0.632   3.605   7.311
 2301SOL    HW2 7800   0.740   3.528   7.216
 2302SOL     OW 7801   1.388   3.435   6.063
 2302SOL    HW1 7802   1.455   3.447   5.989
 2302SOL    HW2 7803   1.348   3.524   6.086
 2303SOL     OW 7804   0.130   3.656   7.437
 2303SOL    HW1 7805   0.089   3.582   7.490
 2303SOL    HW2 7806   0.194   3.707   7.495
 2304SOL     OW 7807   1.280   2.789   6.258
 2304SOL    HW1 7808   1.340   2.708   6.260
 2304SOL    HW2 7809   1.320   2.858   6.198
 2305SOL     OW 7810   0.830   3.135   7.008
 2305SOL    HW1 7811   0.825   3.168   7.103
 2305SOL    HW2 7812   0.744   3.154   6.962
 2306SOL     OW 7813   0.672   3.478   5.740
 2306SOL    HW1 7814   0.681   3.488   5.641
 2306SOL    HW2 7815   0.632   3.389   5.761
 2307SOL     OW 7816   1.650   3.582   6.980
 2307SOL    HW1 7817   1.703   3.592   6.896
 2307SOL    HW2 7818   1.623   3.672   7.014
 2308SOL     OW 7819   0.263   2.188   6.306
 2308SOL    HW1 7820   0.184   2.239   6.272
 2308SOL    HW2 7821   0.254   2.173   6.404
 2309SOL     OW 7822   1.194   3.474   5.617
 2309SOL    HW1 7823   1.200   3.381   5.654
 2309SOL    HW2 7824   1.135   3.474   5.537
 2310SOL     OW 7825   0.822   2.864   6.958
 2310SOL    HW1 7826   0.862   2.863   6.866
 2310SOL    HW2 7827   0.832   2.956   6.998
 2311SOL     OW 7828   0.916   2.772   5.877
 2311SOL    HW1 7829   0.979   2.810   5.809
 2311SOL    HW2 7830   0.956   2.689   5.916
 2312SOL     OW 7831   1.504   3.469   5.630
 2312SOL    HW1 7832   1.412   3.506   5.637
 2312SOL    HW2 7833   1.542   3.489   5.540
 2313SOL     OW 7834   0.372   3.150   7.076
 2313SOL    HW1 7835   0.359   3.243   7.042
 2313SOL    HW2 7836   0.288   3.098   7.063
 2314SOL     OW 7837   1.614   3.154   6.875
 2314SOL    HW1 7838   1.674   3.157   6.955
 2314SOL    HW2 7839   1.539   3.218   6.888
 2315SOL     OW 7840   1.039   2.960   6.282
 2315SOL    HW1 7841   0.969   2.913   6.336
 2315SOL    HW2 7842   1.098   2.892   6.239
 2316SOL     OW 7843   0.590   3.349   6.077
 2316SOL    HW1 7844   0.632   3.291   6.007
 2316SOL    HW2 7845   0.546   3.428   6.033
 2317SOL     OW 7846   0.255   3.210   5.876
 2317SOL    HW1 7847   0.159   3.211   5.849
 2317SOL    HW2 7848   0.267   3.263   5.960
 2318SOL     OW 7849   0.105   2.875   7.312
 2318SOL    HW1 7850   0.028   2.842   7.366
 2318SOL    HW2 7851   0.190   2.845   7.354
 2319SOL     OW 7852   0.672   2.065   7.075
 2319SOL    HW1 7853   0.762   2.049   7.035
 2319SOL    HW2 7854   0.680   2.070   7.174
 2320SOL     OW 7855   0.075   2.207   5.619
 2320SOL    HW1 7856  -0.017   2.179   5.590
 2320SOL    HW2 7857   0.106   2.284   5.563
 2321SOL     OW 7858   1.440   2.718   6.984
 2321SOL    HW1 7859   1.383   2.770   6.921
 2321SOL    HW2 7860   1.536   2.730   6.960
 2322SOL     OW 7861   0.072   2.028   5.904
 2322SOL    HW1 7862   0.055   2.111   5.850
 2322SOL    HW2 7863   0.162   1.991   5.882
 2323SOL     OW 7864   1.183   3.197   5.705
 2323SOL    HW1 7865   1.084   3.186   5.707
 2323SOL    HW2 7866   1.217   3.212   5.798
 2324SOL     OW 7867   0.613   2.704   7.017
 2324SOL    HW1 7868   0.669   2.785   7.000
 2324SOL    HW2 7869   0.672   2.624   7.020
 2325SOL     OW 7870   1.493   3.629   6.545
 2325SOL    HW1 7871   1.526   3.693   6.476
 2325SOL    HW2 7872   1.559   3.623   6.620
 2326SOL     OW 7873   0.716   2.427   7.294
 2326SOL    HW1 7874   0.735   2.492   7.368
 2326SOL    HW2 7875   0.776   2.347   7.303
 2327SOL     OW 7876   1.450   3.082   7.219
 2327SOL    HW1 7877   1.441   3.072   7.318
 2327SOL    HW2 7878   1.546   3.075   7.193
 2328SOL     OW 7879   0.390   3.603   7.146
 2328SOL    HW1 7880   0.299   3.644   7.144
 2328SOL    HW2 7881   0.383   3.509   7.178
 2329SOL     OW 7882   1.674   2.745   6.840
 2329SOL    HW1 7883   1.647   2.656   6.803
 2329SOL    HW2 7884   1.675   2.813   6.767
 2330SOL     OW 7885   0.594   2.607   6.238
 2330SOL    HW1 7886   0.644   2.692   6.219
 2330SOL    HW2 7887   0.506   2.609   6.190
 2331SOL     OW 7888   1.777   2.204   7.228
 2331SOL    HW1 7889   1.760   2.235   7.134
 2331SOL    HW2 7890   1.693   2.167   7.266
 2332SOL     OW 7891   1.730   2.796   7.103
 2332SOL    HW1 7892   1.768   2.887   7.118
 2332SOL    HW2 7893   1.722   2.779   7.004
 2333SOL     OW 7894   0.859   3.236   5.602
 2333SOL    HW1 7895   0.813   3.251   5.690
 2333SOL    HW2 7896   0.903   3.321   5.572
 2334SOL     OW 7897   0.661   3.652   6.539
 2334SOL    HW1 7898   0.615   3.740   6.526
 2334SOL    HW2 7899   0.760   3.664   6.532
 2335SOL     OW 7900   0.859   2.818   6.447
 2335SOL    HW1 7901   0.913   2.749   6.495
 2335SOL    HW2 7902   0.827   2.887   6.513
 2336SOL     OW 7903   1.083   2.846   5.673
 2336SOL    HW1 7904   1.060   2.899   5.591
 2336SOL    HW2 7905   1.164   2.790   5.654
 2337SOL     OW 7906   1.861   3.431   6.437
 2337SOL    HW1 7907   1.790   3.419   6.367
 2337SOL    HW2 7908   1.862   3.352   6.497
 2338SOL     OW 7909   0.221   3.176   7.430
 2338SOL    HW1 7910   0.156   3.103   7.409
 2338SOL    HW2 7911   0.225   3.190   7.528
 2339SOL     OW 7912   0.079   3.102   6.239
 2339SOL    HW1 7913   0.078   3.055   6.327
 2339SOL    HW2 7914   0.161   3.074   6.188
 2340SOL     OW 7915   0.672   3.253   7.210
 2340SOL    HW1 7916   0.594   3.203   7.248
 2340SOL    HW2 7917   0.669   3.348   7.241
 2341SOL     OW 7918   0.428   2.286   6.106
 2341SOL    HW1 7919   0.458   2.214   6.044
 2341SOL    HW2 7920   0.389   2.246   6.189
 2342SOL     OW 7921   1.705   3.349   6.690
 2342SOL    HW1 7922   1.612   3.324   6.663
 2342SOL    HW2 7923   1.731   3.299   6.772
 2343SOL     OW 7924   0.317   2.409   6.866
 2343SOL    HW1 7925   0.355   2.350   6.938
 2343SOL    HW2 7926   0.357   2.383   6.778
 2344SOL     OW 7927   0.812   3.448   6.273
 2344SOL    HW1 7928   0.844   3.458   6.179
 2344SOL    HW2 7929   0.733   3.386   6.275
 2345SOL     OW 7930   1.001   1.896   6.740
 2345SOL    HW1 7931   0.938   1.824   6.709
 2345SOL    HW2 7932   1.094   1.860   6.740
 2346SOL     OW 7933   0.770   3.192   5.887
 2346SOL    HW1 7934   0.724   3.105   5.904
 2346SOL    HW2 7935   0.861   3.189   5.928
 2347SOL     OW 7936   0.618   3.429   6.870
 2347SOL    HW1 7937   0.613   3.511   6.927
 2347SOL    HW2 7938   0.707   3.426   6.825
 2348SOL     OW 7939   1.352   1.914   5.754
 2348SOL    HW1 7940   1.387   1.873   5.670
 2348SOL    HW2 7941   1.262   1.876   5.774
 2349SOL     OW 7942   0.039   2.939   5.886
 2349SOL    HW1 7943   0.138   2.928   5.877
 2349SOL    HW2 7944  -0.001   2.853   5.918
 2350SOL     OW 7945   0.875   3.508   5.923
 2350SOL    HW1 7946   0.798   3.473   5.869
 2350SOL    HW2 7947   0.843   3.579   5.985
 2351SOL     OW 7948   0.230   2.490   7.561
 2351SOL    HW1 7949   0.137   2.488   7.598
 2351SOL    HW2 7950   0.231   2.451   7.469
 2352SOL     OW 7951   0.225   2.137   8.444
 2352SOL    HW1 7952   0.260   2.120   8.536
 2352SOL    HW2 7953   0.137   2.092   8.432
 2353SOL     OW 7954   0.019   2.230   8.095
 2353SOL    HW1 7955  -0.063   2.273   8.134
 2353SOL    HW2 7956  -0.009   2.157   8.032
 2354SOL     OW 7957   0.569   3.137   8.613
 2354SOL    HW1 7958   0.476   3.130   8.576
 2354SOL    HW2 7959   0.580   3.226   8.657
 2355SOL     OW 7960   1.555   3.373   8.151
 2355SOL    HW1 7961   1.498   3.357   8.232
 2355SOL    HW2 7962   1.496   3.383   8.071
 2356SOL     OW 7963   1.135   2.565   8.165
 2356SOL    HW1 7964   1.192   2.643   8.140
 2356SOL    HW2 7965   1.075   2.591   8.241
 2357SOL     OW 7966   0.768   3.006   8.471
 2357SOL    HW1 7967   0.690   3.023   8.531
 2357SOL    HW2 7968   0.802   3.093   8.435
 2358SOL     OW 7969   0.850   2.660   9.271
 2358SOL    HW1 7970   0.846   2.736   9.336
 2358SOL    HW2 7971   0.872   2.696   9.180
 2359SOL     OW 7972   0.685   2.874   8.113
 2359SOL    HW1 7973   0.754   2.858   8.183
 2359SOL    HW2 7974   0.612   2.931   8.151
 2360SOL     OW 7975   0.686   3.023   9.251
 2360SOL    HW1 7976   0.746   3.102   9.265
 2360SOL    HW2 7977   0.600   3.054   9.210
 2361SOL     OW 7978   0.335   3.297   8.509
 2361SOL    HW1 7979   0.257   3.266   8.456
 2361SOL    HW2 7980   0.393   3.355   8.452
 2362SOL     OW 7981   1.460   3.367   8.787
 2362SOL    HW1 7982   1.484   3.461   8.813
 2362SOL    HW2 7983   1.444   3.313   8.869
 2363SOL     OW 7984   0.438   2.254   8.947
 2363SOL    HW1 7985   0.520   2.198   8.956
 2363SOL    HW2 7986   0.357   2.196   8.951
 2364SOL     OW 7987   0.231   3.575   7.931
 2364SOL    HW1 7988   0.265   3.652   7.985
 2364SOL    HW2 7989   0.275   3.575   7.841
 2365SOL     OW 7990   1.127   3.203   9.138
 2365SOL    HW1 7991   1.174   3.203   9.226
 2365SOL    HW2 7992   1.079   3.116   9.127
 2366SOL     OW 7993   0.230   3.296   7.986
 2366SOL    HW1 7994   0.204   3.392   7.986
 2366SOL    HW2 7995   0.159   3.242   8.031
 2367SOL     OW 7996   0.240   2.953   8.334
 2367SOL    HW1 7997   0.254   2.869   8.386
 2367SOL    HW2 7998   0.185   3.017   8.389
 2368SOL     OW 7999   0.620   3.648   8.887
 2368SOL    HW1 8000   0.528   3.631   8.922
 2368SOL    HW2 8001   0.648   3.740   8.913
 2369SOL     OW 8002   0.606   2.826   7.571
 2369SOL    HW1 8003   0.613   2.910   7.517
 2369SOL    HW2 8004   0.652   2.839   7.659
 2370SOL     OW 8005   1.594   1.976   8.928
 2370SOL    HW1 8006   1.576   2.043   8.856
 2370SOL    HW2 8007   1.591   2.022   9.017
 2371SOL     OW 8008   0.122   2.505   8.011
 2371SOL    HW1 8009   0.077   2.417   8.028
 2371SOL    HW2 8010   0.121   2.559   8.095
 2372SOL     OW 8011   1.842   3.629   7.807
 2372SOL    HW1 8012   1.896   3.600   7.887
 2372SOL    HW2 8013   1.872   3.719   7.778
 2373SOL     OW 8014   0.027   3.458   7.565
 2373SOL    HW1 8015   0.008   3.362   7.586
 2373SOL    HW2 8016  -0.006   3.516   7.640
 2374SOL     OW 8017   1.689   2.784   8.060
 2374SOL    HW1 8018   1.784   2.755   8.068
 2374SOL    HW2 8019   1.681   2.849   7.985
 2375SOL     OW 8020   1.641   2.970   7.880
 2375SOL    HW1 8021   1.727   2.972   7.828
 2375SOL    HW2 8022   1.655   3.017   7.968
 2376SOL     OW 8023   0.113   2.599   9.045
 2376SOL    HW1 8024   0.201   2.586   9.090
 2376SOL    HW2 8025   0.100   2.696   9.023
 2377SOL     OW 8026   0.613   3.227   8.174
 2377SOL    HW1 8027   0.564   3.140   8.183
 2377SOL    HW2 8028   0.590   3.270   8.087
 2378SOL     OW 8029   1.293   3.090   8.871
 2378SOL    HW1 8030   1.330   3.017   8.813
 2378SOL    HW2 8031   1.345   3.095   8.956
 2379SOL     OW 8032   0.809   1.866   7.950
 2379SOL    HW1 8033   0.849   1.957   7.941
 2379SOL    HW2 8034   0.709   1.874   7.956
 2380SOL     OW 8035   0.197   2.838   8.712
 2380SOL    HW1 8036   0.286   2.793   8.698
 2380SOL    HW2 8037   0.124   2.773   8.693
 2381SOL     OW 8038   1.187   3.654   9.064
 2381SOL    HW1 8039   1.211   3.714   8.988
 2381SOL    HW2 8040   1.194   3.559   9.034
 2382SOL     OW 8041   0.317   2.113   9.249
 2382SOL    HW1 8042   0.388   2.184   9.255
 2382SOL    HW2 8043   0.229   2.152   9.277
 2383SOL     OW 8044   1.466   3.279   8.401
 2383SOL    HW1 8045   1.407   3.285   8.481
 2383SOL    HW2 8046   1.451   3.191   8.355
 2384SOL     OW 8047   1.667   3.576   8.020
 2384SOL    HW1 8048   1.626   3.553   7.932
 2384SOL    HW2 8049   1.649   3.502   8.085
 2385SOL     OW 8050   0.598   2.591   7.718
 2385SOL    HW1 8051   0.622   2.660   7.650
 2385SOL    HW2 8052   0.520   2.624   7.772
 2386SOL     OW 8053   1.281   2.207   8.392
 2386SOL    HW1 8054   1.195   2.157   8.379
 2386SOL    HW2 8055   1.343   2.153   8.448
 2387SOL     OW 8056   1.576   3.524   7.755
 2387SOL    HW1 8057   1.665   3.570   7.758
 2387SOL    HW2 8058   1.555   3.500   7.660
 2388SOL     OW 8059   0.807   2.467   8.913
 2388SOL    HW1 8060   0.760   2.464   9.002
 2388SOL    HW2 8061   0.756   2.412   8.847
 2389SOL     OW 8062   1.394   2.331   9.122
 2389SOL    HW1 8063   1.374   2.374   9.210
 2389SOL    HW2 8064   1.472   2.269   9.131
 2390SOL     OW 8065   0.973   2.752   9.020
 2390SOL    HW1 8066   1.019   2.668   8.991
 2390SOL    HW2 8067   0.917   2.786   8.945
 2391SOL     OW 8068   0.991   2.272   8.690
 2391SOL    HW1 8069   0.914   2.306   8.744
 2391SOL    HW2 8070   0.957   2.221   8.611
 2392SOL     OW 8071   1.041   2.563   7.877
 2392SOL    HW1 8072   1.067   2.559   7.973
 2392SOL    HW2 8073   0.956   2.512   7.863
 2393SOL     OW 8074   0.076   2.673   8.237
 2393SOL    HW1 8075   0.175   2.661   8.246
 2393SOL    HW2 8076   0.052   2.768   8.258
 2394SOL     OW 8077   0.130   3.683   9.019
 2394SOL    HW1 8078   0.120   3.668   9.118
 2394SOL    HW2 8079   0.044   3.719   8.983
 2395SOL     OW 8080   0.865   2.210   7.643
 2395SOL    HW1 8081   0.924   2.273   7.594
 2395SOL    HW2 8082   0.884   2.116   7.614
 2396SOL     OW 8083   1.719   2.447   9.279
 2396SOL    HW1 8084   1.693   2.536   9.243
 2396SOL    HW2 8085   1.717   2.379   9.206
 2397SOL     OW 8086   1.362   3.006   7.993
 2397SOL    HW1 8087   1.445   2.977   7.945
 2397SOL    HW2 8088   1.313   3.073   7.937
 2398SOL     OW 8089   0.550   2.058   8.333
 2398SOL    HW1 8090   0.545   2.053   8.433
 2398SOL    HW2 8091   0.552   2.154   8.304
 2399SOL     OW 8092   1.008   3.318   7.925
 2399SOL    HW1 8093   0.962   3.390   7.873
 2399SOL    HW2 8094   1.004   3.338   8.023
 2400SOL     OW 8095   0.351   3.663   8.301
 2400SOL    HW1 8096   0.401   3.577   8.307
 2400SOL    HW2 8097   0.416   3.740   8.298
 2401SOL     OW 8098   1.795   2.928   8.321
 2401SOL    HW1 8099   1.733   2.913   8.245
 2401SOL    HW2 8100   1.743   2.939   8.406
 2402SOL     OW 8101   1.227   3.412   8.954
 2402SOL    HW1 8102   1.233   3.335   9.018
 2402SOL    HW2 8103   1.175   3.386   8.874
 2403SOL     OW 8104   0.321   2.805   7.690
 2403SOL    HW1 8105   0.403   2.844   7.648
 2403SOL    HW2 8106   0.294   2.723   7.641
 2404SOL     OW 8107   1.458   2.597   8.176
 2404SOL    HW1 8108   1.453   2.532   8.251
 2404SOL    HW2 8109   1.538   2.656   8.189
 2405SOL     OW 8110   0.461   3.128   9.175
 2405SOL    HW1 8111   0.411   3.129   9.089
 2405SOL    HW2 8112   0.398   3.110   9.251
 2406SOL     OW 8113   1.111   3.638   7.685
 2406SOL    HW1 8114   1.051   3.576   7.735
 2406SOL    HW2 8115   1.142   3.594   7.600
 2407SOL     OW 8116   0.202   2.147   8.946
 2407SOL    HW1 8117   0.122   2.207   8.933
 2407SOL    HW2 8118   0.192   2.098   9.032
 2408SOL     OW 8119   1.632   3.239   7.529
 2408SOL    HW1 8120   1.600   3.333   7.519
 2408SOL    HW2 8121   1.556   3.176   7.517
 2409SOL     OW 8122   0.464   3.605   7.771
 2409SOL    HW1 8123   0.497   3.644   7.857
 2409SOL    HW2 8124   0.540   3.598   7.706
 2410SOL     OW 8125   0.249   3.647   8.689
 2410SOL    HW1 8126   0.306   3.582   8.739
 2410SOL    HW2 8127   0.233   3.614   8.596
 2411SOL     OW 8128   0.940   3.560   8.352
 2411SOL    HW1 8129   1.020   3.503   8.373
 2411SOL    HW2 8130   0.891   3.520   8.275
 2412SOL     OW 8131   0.382   2.562   7.928
 2412SOL    HW1 8132   0.427   2.472   7.925
 2412SOL    HW2 8133   0.288   2.551   7.961
 2413SOL     OW 8134   1.547   2.084   9.177
 2413SOL    HW1 8135   1.542   2.121   9.269
 2413SOL    HW2 8136   1.475   2.015   9.165
 2414SOL     OW 8137   0.614   1.984   7.565
 2414SOL    HW1 8138   0.712   1.962   7.572
 2414SOL    HW2 8139   0.583   1.967   7.472
 2415SOL     OW 8140   0.781   2.126   9.197
 2415SOL    HW1 8141   0.848   2.065   9.240
 2415SOL    HW2 8142   0.708   2.145   9.262
 2416SOL     OW 8143   0.888   3.376   8.643
 2416SOL    HW1 8144   0.865   3.351   8.549
 2416SOL    HW2 8145   0.949   3.307   8.682
 2417SOL     OW 8146   1.351   2.452   8.881
 2417SOL    HW1 8147   1.379   2.409   8.966
 2417SOL    HW2 8148   1.376   2.548   8.882
 2418SOL     OW 8149   0.803   3.264   8.372
 2418SOL    HW1 8150   0.893   3.278   8.330
 2418SOL    HW2 8151   0.732   3.266   8.301
 2419SOL     OW 8152   0.922   2.365   8.347
 2419SOL    HW1 8153   0.897   2.356   8.251
 2419SOL    HW2 8154   0.970   2.283   8.378
 2420SOL     OW 8155   0.539   1.926   7.960
 2420SOL    HW1 8156   0.458   1.927   8.018
 2420SOL    HW2 8157   0.542   2.009   7.905
 2421SOL     OW 8158   1.434   3.050   7.489
 2421SOL    HW1 8159   1.466   2.974   7.546
 2421SOL    HW2 8160   1.342   3.077   7.519
 2422SOL     OW 8161   0.297   1.897   7.619
 2422SOL    HW1 8162   0.346   1.981   7.598
 2422SOL    HW2 8163   0.359   1.832   7.664
 2423SOL     OW 8164   0.935   2.098   7.928
 2423SOL    HW1 8165   0.887   2.139   7.850
 2423SOL    HW2 8166   1.034   2.096   7.909
 2424SOL     OW 8167   1.076   2.545   8.912
 2424SOL    HW1 8168   0.996   2.484   8.915
 2424SOL    HW2 8169   1.157   2.492   8.888
 2425SOL     OW 8170   1.227   3.432   8.241
 2425SOL    HW1 8171   1.248   3.506   8.176
 2425SOL    HW2 8172   1.295   3.432   8.314
 2426SOL     OW 8173   0.459   3.014   8.189
 2426SOL    HW1 8174   0.388   2.987   8.254
 2426SOL    HW2 8175   0.433   2.986   8.096
 2427SOL     OW 8176   1.271   3.659   8.039
 2427SOL    HW1 8177   1.315   3.723   7.975
 2427SOL    HW2 8178   1.221   3.711   8.109
 2428SOL     OW 8179   1.032   2.411   7.464
 2428SOL    HW1 8180   0.991   2.493   7.425
 2428SOL    HW2 8181   1.096   2.437   7.537
 2429SOL     OW 8182   0.078   2.418   8.834
 2429SOL    HW1 8183   0.170   2.417   8.793
 2429SOL    HW2 8184   0.072   2.492   8.901
 2430SOL     OW 8185   0.561   2.084   8.595
 2430SOL    HW1 8186   0.599   2.000   8.632
 2430SOL    HW2 8187   0.473   2.103   8.639
 2431SOL     OW 8188   0.866   2.316   8.090
 2431SOL    HW1 8189   0.834   2.388   8.028
 2431SOL    HW2 8190   0.890   2.235   8.037
 2432SOL     OW 8191   1.017   1.901   8.201
 2432SOL    HW1 8192   0.945   1.906   8.132
 2432SOL    HW2 8193   0.993   1.832   8.270
 2433SOL     OW 8194   1.429   3.035   8.315
 2433SOL    HW1 8195   1.374   2.951   8.308
 2433SOL    HW2 8196   1.455   3.064   8.223
 2434SOL     OW 8197   1.466   2.452   8.440
 2434SOL    HW1 8198   1.436   2.357   8.447
 2434SOL    HW2 8199   1.539   2.468   8.506
 2435SOL     OW 8200   0.488   3.247   7.622
 2435SOL    HW1 8201   0.401   3.232   7.669
 2435SOL    HW2 8202   0.471   3.273   7.527
 2436SOL     OW 8203   1.664   3.142   8.105
 2436SOL    HW1 8204   1.763   3.150   8.119
 2436SOL    HW2 8205   1.619   3.226   8.136
 2437SOL     OW 8206   0.527   2.118   7.776
 2437SOL    HW1 8207   0.554   2.059   7.701
 2437SOL    HW2 8208   0.527   2.213   7.745
 2438SOL     OW 8209   1.754   3.085   9.036
 2438SOL    HW1 8210   1.845   3.046   9.023
 2438SOL    HW2 8211   1.762   3.181   9.060
 2439SOL     OW 8212   1.064   3.209   8.788
 2439SOL    HW1 8213   0.984   3.186   8.843
 2439SOL    HW2 8214   1.147   3.183   8.837
 2440SOL     OW 8215   1.592   3.491   9.073
 2440SOL    HW1 8216   1.619   3.525   8.983
 2440SOL    HW2 8217   1.671   3.453   9.119
 2441SOL     OW 8218   1.111   3.057   8.548
 2441SOL    HW1 8219   1.071   3.101   8.629
 2441SOL    HW2 8220   1.070   3.094   8.465
 2442SOL     OW 8221   1.638   2.961   8.527
 2442SOL    HW1 8222   1.643   3.042   8.586
 2442SOL    HW2 8223   1.552   2.963   8.476
 2443SOL     OW 8224   0.915   1.951   8.850
 2443SOL    HW1 8225   0.940   1.931   8.755
 2443SOL    HW2 8226   0.987   2.007   8.892
 2444SOL     OW 8227   0.980   2.978   9.167
 2444SOL    HW1 8228   0.881   2.984   9.177
 2444SOL    HW2 8229   1.003   2.898   9.111
 2445SOL     OW 8230   0.705   2.912   7.816
 2445SOL    HW1 8231   0.691   2.919   7.915
 2445SOL    HW2 8232   0.789   2.861   7.798
 2446SOL     OW 8233   0.410   2.675   8.699
 2446SOL    HW1 8234   0.496   2.687   8.749
 2446SOL    HW2 8235   0.368   2.588   8.726
 2447SOL     OW 8236   1.274   2.248   8.710
 2447SOL    HW1 8237   1.295   2.322   8.774
 2447SOL    HW2 8238   1.185   2.265   8.667
 2448SOL     OW 8239   0.064   3.426   8.779
 2448SOL    HW1 8240   0.018   3.508   8.745
 2448SOL    HW2 8241   0.162   3.445   8.788
 2449SOL     OW 8242   0.367   2.962   7.949
 2449SOL    HW1 8243   0.360   3.045   7.893
 2449SOL    HW2 8244   0.371   2.882   7.889
 2450SOL     OW 8245   0.566   2.399   8.313
 2450SOL    HW1 8246   0.578   2.465   8.239
 2450SOL    HW2 8247   0.612   2.433   8.396
 2451SOL     OW 8248   1.252   3.210   7.836
 2451SOL    HW1 8249   1.302   3.287   7.876
 2451SOL    HW2 8250   1.157   3.212   7.868
 2452SOL     OW 8251   1.272   3.307   8.590
 2452SOL    HW1 8252   1.319   3.320   8.677
 2452SOL    HW2 8253   1.206   3.233   8.599
 2453SOL     OW 8254   1.582   2.501   7.920
 2453SOL    HW1 8255   1.551   2.562   7.993
 2453SOL    HW2 8256   1.632   2.553   7.851
 2454SOL     OW 8257   0.354   3.372   8.777
 2454SOL    HW1 8258   0.333   3.328   8.690
 2454SOL    HW2 8259   0.451   3.398   8.780
 2455SOL     OW 8260   0.402   2.613   9.046
 2455SOL    HW1 8261   0.470   2.668   8.999
 2455SOL    HW2 8262   0.442   2.525   9.073
 2456SOL     OW 8263   1.587   2.641   9.118
 2456SOL    HW1 8264   1.495   2.679   9.113
 2456SOL    HW2 8265   1.647   2.688   9.053
 2457SOL     OW 8266   1.013   1.967   9.218
 2457SOL    HW1 8267   1.019   2.052   9.166
 2457SOL    HW2 8268   1.045   1.891   9.161
 2458SOL     OW 8269   0.504   1.912   9.188
 2458SOL    HW1 8270   0.462   1.855   9.118
 2458SOL    HW2 8271   0.438   1.981   9.220
 2459SOL     OW 8272   0.573   2.732   8.477
 2459SOL    HW1 8273   0.617   2.821   8.468
 2459SOL    HW2 8274   0.510   2.732   8.554
 2460SOL     OW 8275   1.360   2.724   8.493
 2460SOL    HW1 8276   1.285   2.724   8.427
 2460SOL    HW2 8277   1.397   2.632   8.502
 2461SOL     OW 8278   1.209   2.387   7.723
 2461SOL    HW1 8279   1.222   2.303   7.777
 2461SOL    HW2 8280   1.180   2.461   7.783
 2462SOL     OW 8281   0.307   2.075   8.679
 2462SOL    HW1 8282   0.284   2.112   8.769
 2462SOL    HW2 8283   0.277   1.980   8.673
 2463SOL     OW 8284   0.037   3.172   8.730
 2463SOL    HW1 8285   0.090   3.123   8.798
 2463SOL    HW2 8286   0.059   3.270   8.735
 2464SOL     OW 8287   0.732   2.496   8.512
 2464SOL    HW1 8288   0.791   2.470   8.436
 2464SOL    HW2 8289   0.704   2.592   8.501
 2465SOL     OW 8290   1.728   2.797   9.302
 2465SOL    HW1 8291   1.682   2.790   9.213
 2465SOL    HW2 8292   1.666   2.841   9.368
 2466SOL     OW 8293   0.307   1.925   8.066
 2466SOL    HW1 8294   0.296   2.019   8.099
 2466SOL    HW2 8295   0.302   1.862   8.143
 2467SOL     OW 8296   1.023   2.628   8.414
 2467SOL    HW1 8297   1.038   2.649   8.510
 2467SOL    HW2 8298   0.993   2.533   8.405
 2468SOL     OW 8299   0.980   3.435   9.148
 2468SOL    HW1 8300   0.960   3.479   9.060
 2468SOL    HW2 8301   1.019   3.344   9.132
 2469SOL     OW 8302   1.859   3.380   9.053
 2469SOL    HW1 8303   1.873   3.407   8.958
 2469SOL    HW2 8304   1.942   3.402   9.106
 2470SOL     OW 8305   0.350   2.760   9.252
 2470SOL    HW1 8306   0.426   2.804   9.300
 2470SOL    HW2 8307   0.385   2.713   9.170
 2471SOL     OW 8308   1.068   3.195   8.297
 2471SOL    HW1 8309   1.075   3.111   8.242
 2471SOL    HW2 8310   1.130   3.264   8.261
 2472SOL     OW 8311   0.319   2.672   8.397
 2472SOL    HW1 8312   0.412   2.708   8.402
 2472SOL    HW2 8313   0.313   2.587   8.449
 2473SOL     OW 8314   0.339   2.371   8.454
 2473SOL    HW1 8315   0.287   2.288   8.437
 2473SOL    HW2 8316   0.416   2.376   8.390
 2474SOL     OW 8317   1.138   2.242   9.126
 2474SOL    HW1 8318   1.093   2.305   9.190
 2474SOL    HW2 8319   1.231   2.273   9.109
 2475SOL     OW 8320   1.160   2.069   8.925
 2475SOL    HW1 8321   1.160   2.133   9.002
 2475SOL    HW2 8322   1.188   2.117   8.842
 2476SOL     OW 8323   0.008   3.188   7.648
 2476SOL    HW1 8324  -0.085   3.209   7.617
 2476SOL    HW2 8325   0.018   3.089   7.661
 2477SOL     OW 8326   0.088   3.663   8.375
 2477SOL    HW1 8327   0.046   3.577   8.348
 2477SOL    HW2 8328   0.182   3.666   8.341
 2478SOL     OW 8329   0.504   3.430   8.358
 2478SOL    HW1 8330   0.570   3.504   8.367
 2478SOL    HW2 8331   0.548   3.351   8.316
 2479SOL     OW 8332   1.002   2.658   8.686
 2479SOL    HW1 8333   1.043   2.626   8.772
 2479SOL    HW2 8334   0.906   2.631   8.683
 2480SOL     OW 8335   0.040   2.406   8.562
 2480SOL    HW1 8336   0.125   2.373   8.521
 2480SOL    HW2 8337   0.053   2.421   8.660
 2481SOL     OW 8338   0.189   2.382   9.170
 2481SOL    HW1 8339   0.248   2.342   9.100
 2481SOL    HW2 8340   0.131   2.453   9.129
 2482SOL     OW 8341   1.369   2.812   9.108
 2482SOL    HW1 8342   1.408   2.901   9.128
 2482SOL    HW2 8343   1.379   2.792   9.011
 2483SOL     OW 8344   0.815   2.434   7.773
 2483SOL    HW1 8345   0.822   2.345   7.727
 2483SOL    HW2 8346   0.721   2.468   7.765
 2484SOL     OW 8347   1.657   2.466   8.654
 2484SOL    HW1 8348   1.619   2.397   8.716
 2484SOL    HW2 8349   1.739   2.430   8.610
 2485SOL     OW 8350   0.252   3.426   9.192
 2485SOL    HW1 8351   0.222   3.483   9.268
 2485SOL    HW2 8352   0.245   3.329   9.218
 2486SOL     OW 8353   0.671   2.326   8.717
 2486SOL    HW1 8354   0.637   2.237   8.687
 2486SOL    HW2 8355   0.697   2.380   8.637
 2487SOL     OW 8356   0.930   3.540   8.913
 2487SOL    HW1 8357   0.906   3.522   8.818
 2487SOL    HW2 8358   0.960   3.634   8.923
 2488SOL     OW 8359   0.473   2.362   7.639
 2488SOL    HW1 8360   0.534   2.442   7.643
 2488SOL    HW2 8361   0.378   2.393   7.646
 2489SOL     OW 8362   0.159   2.999   8.914
 2489SOL    HW1 8363   0.181   2.938   8.990
 2489SOL    HW2 8364   0.169   2.950   8.828
 2490SOL     OW 8365   1.347   2.921   8.682
 2490SOL    HW1 8366   1.371   2.858   8.608
 2490SOL    HW2 8367   1.257   2.961   8.664
 2491SOL     OW 8368   1.759   3.609   8.602
 2491SOL    HW1 8369   1.820   3.639   8.529
 2491SOL    HW2 8370   1.721   3.520   8.580
 2492SOL     OW 8371   1.252   3.593   8.576
 2492SOL    HW1 8372   1.336   3.598   8.522
 2492SOL    HW2 8373   1.229   3.497   8.594
 2493SOL     OW 8374   0.083   3.120   8.470
 2493SOL    HW1 8375   0.078   3.119   8.570
 2493SOL    HW2 8376   0.000   3.079   8.432
 2494SOL     OW 8377   0.688   3.524   9.164
 2494SOL    HW1 8378   0.632   3.605   9.173
 2494SOL    HW2 8379   0.740   3.528   9.078
 2495SOL     OW 8380   1.388   3.435   7.925
 2495SOL    HW1 8381   1.455   3.447   7.851
 2495SOL    HW2 8382   1.348   3.524   7.948
 2496SOL     OW 8383   0.130   3.656   9.299
 2496SOL    HW1 8384   0.089   3.582   9.352
 2496SOL    HW2 8385   0.194   3.707   9.357
 2497SOL     OW 8386   1.280   2.789   8.120
 2497SOL    HW1 8387   1.340   2.708   8.122
 2497SOL    HW2 8388   1.320   2.858   8.060
 2498SOL     OW 8389   0.830   3.135   8.870
 2498SOL    HW1 8390   0.825   3.168   8.965
 2498SOL    HW2 8391   0.744   3.154   8.824
 2499SOL     OW 8392   0.672   3.478   7.602
 2499SOL    HW1 8393   0.681   3.488   7.503
 2499SOL    HW2 8394   0.632   3.389   7.623
 2500SOL     OW 8395   1.650   3.582   8.842
 2500SOL    HW1 8396   1.703   3.592   8.758
 2500SOL    HW2 8397   1.623   3.672   8.876
 2501SOL     OW 8398   0.263   2.188   8.168
 2501SOL    HW1 8399   0.184   2.239   8.134
 2501SOL    HW2 8400   0.254   2.173   8.266
 2502SOL     OW 8401   1.194   3.474   7.479
 2502SOL    HW1 8402   1.200   3.381   7.516
 2502SOL    HW2 8403   1.135   3.474   7.399
 2503SOL     OW 8404   0.822   2.864   8.820
 2503SOL    HW1 8405   0.862   2.863   8.728
 2503SOL    HW2 8406   0.832   2.956   8.860
 2504SOL     OW 8407   0.916   2.772   7.739
 2504SOL    HW1 8408   0.979   2.810   7.671
 2504SOL    HW2 8409   0.956   2.689   7.778
 2505SOL     OW 8410   1.504   3.469   7.492
 2505SOL    HW1 8411   1.412   3.506   7.499
 2505SOL    HW2 8412   1.542   3.489   7.402
 2506SOL     OW 8413   0.372   3.150   8.938
 2506SOL    HW1 8414   0.359   3.243   8.904
 2506SOL    HW2 8415   0.288   3.098   8.925
 2507SOL     OW 8416   1.614   3.154   8.737
 2507SOL    HW1 8417   1.674   3.157   8.817
 2507SOL    HW2 8418   1.539   3.218   8.750
 2508SOL     OW 8419   1.039   2.960   8.144
 2508SOL    HW1 8420   0.969   2.913   8.198
 2508SOL    HW2 8421   1.098   2.892   8.101
 2509SOL     OW 8422   1.014   2.098   8.419
 2509SOL    HW1 8423   1.006   2.062   8.326
 2509SOL    HW2 8424   1.012   2.022   8.484
 2510SOL     OW 8425   0.590   3.349   7.939
 2510SOL    HW1 8426   0.632   3.291   7.869
 2510SOL    HW2 8427   0.546   3.428   7.895
 2511SOL     OW 8428   1.709   2.247   8.829
 2511SOL    HW1 8429   1.782   2.316   8.833
 2511SOL    HW2 8430   1.737   2.172   8.770
 2512SOL     OW 8431   0.255   3.210   7.738
 2512SOL    HW1 8432   0.159   3.211   7.711
 2512SOL    HW2 8433   0.267   3.263   7.822
 2513SOL     OW 8434   0.105   2.875   9.174
 2513SOL    HW1 8435   0.028   2.842   9.228
 2513SOL    HW2 8436   0.190   2.845   9.216
 2514SOL     OW 8437   0.672   2.065   8.937
 2514SOL    HW1 8438   0.762   2.049   8.897
 2514SOL    HW2 8439   0.680   2.070   9.036
 2515SOL     OW 8440   0.075   2.207   7.481
 2515SOL    HW1 8441  -0.017   2.179   7.452
 2515SOL    HW2 8442   0.106   2.284   7.425
 2516SOL     OW 8443   1.440   2.718   8.846
 2516SOL    HW1 8444   1.383   2.770   8.783
 2516SOL    HW2 8445   1.536   2.730   8.822
 2517SOL     OW 8446   0.072   2.028   7.766
 2517SOL    HW1 8447   0.055   2.111   7.712
 2517SOL    HW2 8448   0.162   1.991   7.744
 2518SOL     OW 8449   1.183   3.197   7.567
 2518SOL    HW1 8450   1.084   3.186   7.569
 2518SOL    HW2 8451   1.217   3.212   7.660
 2519SOL     OW 8452   0.613   2.704   8.879
 2519SOL    HW1 8453   0.669   2.785   8.862
 2519SOL    HW2 8454   0.672   2.624   8.882
 2520SOL     OW 8455   1.493   3.629   8.407
 2520SOL    HW1 8456   1.526   3.693   8.338
 2520SOL    HW2 8457   1.559   3.623   8.482
 2521SOL     OW 8458   0.716   2.427   9.156
 2521SOL    HW1 8459   0.735   2.492   9.230
 2521SOL    HW2 8460   0.776   2.347   9.165
 2522SOL     OW 8461   1.450   3.082   9.081
 2522SOL    HW1 8462   1.441   3.072   9.180
 2522SOL    HW2 8463   1.546   3.075   9.055
 2523SOL     OW 8464   0.390   3.603   9.008
 2523SOL    HW1 8465   0.299   3.644   9.006
 2523SOL    HW2 8466   0.383   3.509   9.040
 2524SOL     OW 8467   1.674   2.745   8.702
 2524SOL    HW1 8468   1.647   2.656   8.665
 2524SOL    HW2 8469   1.675   2.813   8.629
 2525SOL     OW 8470   1.225   2.187   7.897
 2525SOL    HW1 8471   1.290   2.113   7.886
 2525SOL    HW2 8472   1.245   2.237   7.981
 2526SOL     OW 8473   0.594   2.607   8.100
 2526SOL    HW1 8474   0.644   2.692   8.081
 2526SOL    HW2 8475   0.506   2.609   8.052
 2527SOL     OW 8476   1.777   2.204   9.090
 2527SOL    HW1 8477   1.760   2.235   8.996
 2527SOL    HW2 8478   1.693   2.167   9.128
 2528SOL     OW 8479   1.730   2.796   8.965
 2528SOL    HW1 8480   1.768   2.887   8.980
 2528SOL    HW2 8481   1.722   2.779   8.866
 2529SOL     OW 8482   0.859   3.236   7.464
 2529SOL    HW1 8483   0.813   3.251   7.552
 2529SOL    HW2 8484   0.903   3.321   7.434
 2530SOL     OW 8485   0.661   3.652   8.401
 2530SOL    HW1 8486   0.615   3.740   8.388
 2530SOL    HW2 8487   0.760   3.664   8.394
 2531SOL     OW 8488   0.859   2.818   8.309
 2531SOL    HW1 8489   0.913   2.749   8.357
 2531SOL    HW2 8490   0.827   2.887   8.375
 2532SOL     OW 8491   1.083   2.846   7.535
 2532SOL    HW1 8492   1.060   2.899   7.453
 2532SOL    HW2 8493   1.164   2.790   7.516
 2533SOL     OW 8494   1.861   3.431   8.299
 2533SOL    HW1 8495   1.790   3.419   8.229
 2533SOL    HW2 8496   1.862   3.352   8.359
 2534SOL     OW 8497   0.221   3.176   9.292
 2534SOL    HW1 8498   0.156   3.103   9.271
 2534SOL    HW2 8499   0.225   3.190   9.390
 2535SOL     OW 8500   0.079   3.102   8.101
 2535SOL    HW1 8501   0.078   3.055   8.189
 2535SOL    HW2 8502   0.161   3.074   8.050
 2536SOL     OW 8503   0.672   3.253   9.072
 2536SOL    HW1 8504   0.594   3.203   9.110
 2536SOL    HW2 8505   0.669   3.348   9.103
 2537SOL     OW 8506   0.428   2.286   7.968
 2537SOL    HW1 8507   0.458   2.214   7.906
 2537SOL    HW2 8508   0.389   2.246   8.051
 2538SOL     OW 8509   1.705   3.349   8.552
 2538SOL    HW1 8510   1.612   3.324   8.525
 2538SOL    HW2 8511   1.731   3.299   8.634
 2539SOL     OW 8512   0.317   2.409   8.728
 2539SOL    HW1 8513   0.355   2.350   8.800
 2539SOL    HW2 8514   0.357   2.383   8.640
 2540SOL     OW 8515   0.812   3.448   8.135
 2540SOL    HW1 8516   0.844   3.458   8.041
 2540SOL    HW2 8517   0.733   3.386   8.137
 2541SOL     OW 8518   1.424   2.076   8.560
 2541SOL    HW1 8519   1.476   2.011   8.615
 2541SOL    HW2 8520   1.375   2.139   8.621
 2542SOL     OW 8521   1.001   1.896   8.602
 2542SOL    HW1 8522   0.938   1.824   8.571
 2542SOL    HW2 8523   1.094   1.860   8.602
 2543SOL     OW 8524   0.770   3.192   7.749
 2543SOL    HW1 8525   0.724   3.105   7.766
 2543SOL    HW2 8526   0.861   3.189   7.790
 2544SOL     OW 8527   0.618   3.429   8.732
 2544SOL    HW1 8528   0.613   3.511   8.789
 2544SOL    HW2 8529   0.707   3.426   8.687
 2545SOL     OW 8530   1.300   2.315   8.139
 2545SOL    HW1 8531   1.241   2.395   8.143
 2545SOL    HW2 8532   1.315   2.280   8.232
 2546SOL     OW 8533   1.593   2.083   8.330
 2546SOL    HW1 8534   1.509   2.082   8.384
 2546SOL    HW2 8535   1.595   2.166   8.274
 2547SOL     OW 8536   0.039   2.939   7.748
 2547SOL    HW1 8537   0.138   2.928   7.739
 2547SOL    HW2 8538  -0.001   2.853   7.780
 2548SOL     OW 8539   0.875   3.508   7.785
 2548SOL    HW1 8540   0.798   3.473   7.731
 2548SOL    HW2 8541   0.843   3.579   7.847
 2549SOL     OW 8542   0.230   2.490   9.423
 2549SOL    HW1 8543   0.137   2.488   9.460
 2549SOL    HW2 8544   0.231   2.451   9.331
 2550SOL     OW 8545   0.225   2.137  10.306
 2550SOL    HW1 8546   0.260   2.120  10.398
 2550SOL    HW2 8547   0.137   2.092  10.294
 2551SOL     OW 8548   0.019   2.230   9.957
 2551SOL    HW1 8549  -0.063   2.273   9.996
 2551SOL    HW2 8550  -0.009   2.157   9.894
 2552SOL     OW 8551   0.569   3.137  10.475
 2552SOL    HW1 8552   0.476   3.130  10.438
 2552SOL    HW2 8553   0.580   3.226  10.519
 2553SOL     OW 8554   1.555   3.373  10.013
 2553SOL    HW1 8555   1.498   3.357  10.094
 2553SOL    HW2 8556   1.496   3.383   9.933
 2554SOL     OW 8557   1.135   2.565  10.027
 2554SOL    HW1 8558   1.192   2.643  10.002
 2554SOL    HW2 8559   1.075   2.591  10.103
 2555SOL     OW 8560   1.755   2.469   9.541
 2555SOL    HW1 8561   1.743   2.456   9.442
 2555SOL    HW2 8562   1.725   2.388   9.590
 2556SOL     OW 8563   0.768   3.006  10.333
 2556SOL    HW1 8564   0.690   3.023  10.393
 2556SOL    HW2 8565   0.802   3.093  10.297
 2557SOL     OW 8566   0.850   2.660  11.133
 2557SOL    HW1 8567   0.846   2.736  11.198
 2557SOL    HW2 8568   0.872   2.696  11.042
 2558SOL     OW 8569   0.685   2.874   9.975
 2558SOL    HW1 8570   0.754   2.858  10.045
 2558SOL    HW2 8571   0.612   2.931  10.013
 2559SOL     OW 8572   0.686   3.023  11.113
 2559SOL    HW1 8573   0.746   3.102  11.127
 2559SOL    HW2 8574   0.600   3.054  11.072
 2560SOL     OW 8575   0.335   3.297  10.371
 2560SOL    HW1 8576   0.257   3.266  10.318
 2560SOL    HW2 8577   0.393   3.355  10.314
 2561SOL     OW 8578   1.460   3.367  10.649
 2561SOL    HW1 8579   1.484   3.461  10.675
 2561SOL    HW2 8580   1.444   3.313  10.731
 2562SOL     OW 8581   0.438   2.254  10.809
 2562SOL    HW1 8582   0.520   2.198  10.818
 2562SOL    HW2 8583   0.357   2.196  10.813
 2563SOL     OW 8584   1.603   2.309  10.047
 2563SOL    HW1 8585   1.529   2.355   9.997
 2563SOL    HW2 8586   1.654   2.377  10.100
 2564SOL     OW 8587   0.231   3.575   9.793
 2564SOL    HW1 8588   0.265   3.652   9.847
 2564SOL    HW2 8589   0.275   3.575   9.703
 2565SOL     OW 8590   1.127   3.203  11.000
 2565SOL    HW1 8591   1.174   3.203  11.088
 2565SOL    HW2 8592   1.079   3.116  10.989
 2566SOL     OW 8593   0.230   3.296   9.848
 2566SOL    HW1 8594   0.204   3.392   9.848
 2566SOL    HW2 8595   0.159   3.242   9.893
 2567SOL     OW 8596   0.240   2.953  10.196
 2567SOL    HW1 8597   0.254   2.869  10.248
 2567SOL    HW2 8598   0.185   3.017  10.251
 2568SOL     OW 8599   0.620   3.648  10.749
 2568SOL    HW1 8600   0.528   3.631  10.784
 2568SOL    HW2 8601   0.648   3.740  10.775
 2569SOL     OW 8602   0.606   2.826   9.433
 2569SOL    HW1 8603   0.613   2.910   9.379
 2569SOL    HW2 8604   0.652   2.839   9.521
 2570SOL     OW 8605   1.594   1.976  10.790
 2570SOL    HW1 8606   1.576   2.043  10.718
 2570SOL    HW2 8607   1.591   2.022  10.879
 2571SOL     OW 8608   0.122   2.505   9.873
 2571SOL    HW1 8609   0.077   2.417   9.890
 2571SOL    HW2 8610   0.121   2.559   9.957
 2572SOL     OW 8611   1.842   3.629   9.669
 2572SOL    HW1 8612   1.896   3.600   9.749
 2572SOL    HW2 8613   1.872   3.719   9.640
 2573SOL     OW 8614   0.027   3.458   9.427
 2573SOL    HW1 8615   0.008   3.362   9.448
 2573SOL    HW2 8616  -0.006   3.516   9.502
 2574SOL     OW 8617   1.689   2.784   9.922
 2574SOL    HW1 8618   1.784   2.755   9.930
 2574SOL    HW2 8619   1.681   2.849   9.847
 2575SOL     OW 8620   1.641   2.970   9.742
 2575SOL    HW1 8621   1.727   2.972   9.690
 2575SOL    HW2 8622   1.655   3.017   9.830
 2576SOL     OW 8623   0.113   2.599  10.907
 2576SOL    HW1 8624   0.201   2.586  10.952
 2576SOL    HW2 8625   0.100   2.696  10.885
 2577SOL     OW 8626   0.613   3.227  10.036
 2577SOL    HW1 8627   0.564   3.140  10.045
 2577SOL    HW2 8628   0.590   3.270   9.949
 2578SOL     OW 8629   1.293   3.090  10.733
 2578SOL    HW1 8630   1.330   3.017  10.675
 2578SOL    HW2 8631   1.345   3.095  10.818
 2579SOL     OW 8632   0.809   1.866   9.812
 2579SOL    HW1 8633   0.849   1.957   9.803
 2579SOL    HW2 8634   0.709   1.874   9.818
 2580SOL     OW 8635   0.197   2.838  10.574
 2580SOL    HW1 8636   0.286   2.793  10.560
 2580SOL    HW2 8637   0.124   2.773  10.555
 2581SOL     OW 8638   1.525   2.861   9.500
 2581SOL    HW1 8639   1.462   2.785   9.513
 2581SOL    HW2 8640   1.573   2.879   9.586
 2582SOL     OW 8641   1.187   3.654  10.926
 2582SOL    HW1 8642   1.211   3.714  10.850
 2582SOL    HW2 8643   1.194   3.559  10.896
 2583SOL     OW 8644   0.317   2.113  11.111
 2583SOL    HW1 8645   0.388   2.184  11.117
 2583SOL    HW2 8646   0.229   2.152  11.139
 2584SOL     OW 8647   1.466   3.279  10.263
 2584SOL    HW1 8648   1.407   3.285  10.343
 2584SOL    HW2 8649   1.451   3.191  10.217
 2585SOL     OW 8650   1.667   3.576   9.882
 2585SOL    HW1 8651   1.626   3.553   9.794
 2585SOL    HW2 8652   1.649   3.502   9.947
 2586SOL     OW 8653   0.598   2.591   9.580
 2586SOL    HW1 8654   0.622   2.660   9.512
 2586SOL    HW2 8655   0.520   2.624   9.634
 2587SOL     OW 8656   1.281   2.207  10.254
 2587SOL    HW1 8657   1.195   2.157  10.241
 2587SOL    HW2 8658   1.343   2.153  10.310
 2588SOL     OW 8659   1.576   3.524   9.617
 2588SOL    HW1 8660   1.665   3.570   9.620
 2588SOL    HW2 8661   1.555   3.500   9.522
 2589SOL     OW 8662   0.807   2.467  10.775
 2589SOL    HW1 8663   0.760   2.464  10.864
 2589SOL    HW2 8664   0.756   2.412  10.709
 2590SOL     OW 8665   1.394   2.331  10.984
 2590SOL    HW1 8666   1.374   2.374  11.072
 2590SOL    HW2 8667   1.472   2.269  10.993
 2591SOL     OW 8668   0.973   2.752  10.882
 2591SOL    HW1 8669   1.019   2.668  10.853
 2591SOL    HW2 8670   0.917   2.786  10.807
 2592SOL     OW 8671   0.991   2.272  10.552
 2592SOL    HW1 8672   0.914   2.306  10.606
 2592SOL    HW2 8673   0.957   2.221  10.473
 2593SOL     OW 8674   1.041   2.563   9.739
 2593SOL    HW1 8675   1.067   2.559   9.835
 2593SOL    HW2 8676   0.956   2.512   9.725
 2594SOL     OW 8677   0.076   2.673  10.099
 2594SOL    HW1 8678   0.175   2.661  10.108
 2594SOL    HW2 8679   0.052   2.768  10.120
 2595SOL     OW 8680   0.130   3.683  10.881
 2595SOL    HW1 8681   0.120   3.668  10.980
 2595SOL    HW2 8682   0.044   3.719  10.845
 2596SOL     OW 8683   0.865   2.210   9.505
 2596SOL    HW1 8684   0.924   2.273   9.456
 2596SOL    HW2 8685   0.884   2.116   9.476
 2597SOL     OW 8686   1.719   2.447  11.141
 2597SOL    HW1 8687   1.693   2.536  11.105
 2597SOL    HW2 8688   1.717   2.379  11.068
 2598SOL     OW 8689   1.362   3.006   9.855
 2598SOL    HW1 8690   1.445   2.977   9.807
 2598SOL    HW2 8691   1.313   3.073   9.799
 2599SOL     OW 8692   0.550   2.058  10.195
 2599SOL    HW1 8693   0.545   2.053  10.295
 2599SOL    HW2 8694   0.552   2.154  10.166
 2600SOL     OW 8695   1.008   3.318   9.787
 2600SOL    HW1 8696   0.962   3.390   9.735
 2600SOL    HW2 8697   1.004   3.338   9.885
 2601SOL     OW 8698   0.351   3.663  10.163
 2601SOL    HW1 8699   0.401   3.577  10.169
 2601SOL    HW2 8700   0.416   3.740  10.160
 2602SOL     OW 8701   1.795   2.928  10.183
 2602SOL    HW1 8702   1.733   2.913  10.107
 2602SOL    HW2 8703   1.743   2.939  10.268
 2603SOL     OW 8704   1.227   3.412  10.816
 2603SOL    HW1 8705   1.233   3.335  10.880
 2603SOL    HW2 8706   1.175   3.386  10.736
 2604SOL     OW 8707   0.321   2.805   9.552
 2604SOL    HW1 8708   0.403   2.844   9.510
 2604SOL    HW2 8709   0.294   2.723   9.503
 2605SOL     OW 8710   1.458   2.597  10.038
 2605SOL    HW1 8711   1.453   2.532  10.113
 2605SOL    HW2 8712   1.538   2.656  10.051
 2606SOL     OW 8713   0.461   3.128  11.037
 2606SOL    HW1 8714   0.411   3.129  10.951
 2606SOL    HW2 8715   0.398   3.110  11.113
 2607SOL     OW 8716   1.111   3.638   9.547
 2607SOL    HW1 8717   1.051   3.576   9.597
 2607SOL    HW2 8718   1.142   3.594   9.462
 2608SOL     OW 8719   0.202   2.147  10.808
 2608SOL    HW1 8720   0.122   2.207  10.795
 2608SOL    HW2 8721   0.192   2.098  10.894
 2609SOL     OW 8722   1.632   3.239   9.391
 2609SOL    HW1 8723   1.600   3.333   9.381
 2609SOL    HW2 8724   1.556   3.176   9.379
 2610SOL     OW 8725   0.464   3.605   9.633
 2610SOL    HW1 8726   0.497   3.644   9.719
 2610SOL    HW2 8727   0.540   3.598   9.568
 2611SOL     OW 8728   1.400   1.969   9.736
 2611SOL    HW1 8729   1.376   1.932   9.646
 2611SOL    HW2 8730   1.499   1.985   9.740
 2612SOL     OW 8731   0.249   3.647  10.551
 2612SOL    HW1 8732   0.306   3.582  10.601
 2612SOL    HW2 8733   0.233   3.614  10.458
 2613SOL     OW 8734   0.940   3.560  10.214
 2613SOL    HW1 8735   1.020   3.503  10.235
 2613SOL    HW2 8736   0.891   3.520  10.137
 2614SOL     OW 8737   0.382   2.562   9.790
 2614SOL    HW1 8738   0.427   2.472   9.787
 2614SOL    HW2 8739   0.288   2.551   9.823
 2615SOL     OW 8740   1.547   2.084  11.039
 2615SOL    HW1 8741   1.542   2.121  11.131
 2615SOL    HW2 8742   1.475   2.015  11.027
 2616SOL     OW 8743   0.614   1.984   9.427
 2616SOL    HW1 8744   0.712   1.962   9.434
 2616SOL    HW2 8745   0.583   1.967   9.334
 2617SOL     OW 8746   0.781   2.126  11.059
 2617SOL    HW1 8747   0.848   2.065  11.102
 2617SOL    HW2 8748   0.708   2.145  11.124
 2618SOL     OW 8749   0.888   3.376  10.505
 2618SOL    HW1 8750   0.865   3.351  10.411
 2618SOL    HW2 8751   0.949   3.307  10.544
 2619SOL     OW 8752   1.351   2.452  10.743
 2619SOL    HW1 8753   1.379   2.409  10.828
 2619SOL    HW2 8754   1.376   2.548  10.744
 2620SOL     OW 8755   0.803   3.264  10.234
 2620SOL    HW1 8756   0.893   3.278  10.192
 2620SOL    HW2 8757   0.732   3.266  10.163
 2621SOL     OW 8758   0.922   2.365  10.209
 2621SOL    HW1 8759   0.897   2.356  10.113
 2621SOL    HW2 8760   0.970   2.283  10.240
 2622SOL     OW 8761   0.539   1.926   9.822
 2622SOL    HW1 8762   0.458   1.927   9.880
 2622SOL    HW2 8763   0.542   2.009   9.767
 2623SOL     OW 8764   1.434   3.050   9.351
 2623SOL    HW1 8765   1.466   2.974   9.408
 2623SOL    HW2 8766   1.342   3.077   9.381
 2624SOL     OW 8767   0.297   1.897   9.481
 2624SOL    HW1 8768   0.346   1.981   9.460
 2624SOL    HW2 8769   0.359   1.832   9.526
 2625SOL     OW 8770   0.935   2.098   9.790
 2625SOL    HW1 8771   0.887   2.139   9.712
 2625SOL    HW2 8772   1.034   2.096   9.771
 2626SOL     OW 8773   1.076   2.545  10.774
 2626SOL    HW1 8774   0.996   2.484  10.777
 2626SOL    HW2 8775   1.157   2.492  10.750
 2627SOL     OW 8776   1.227   3.432  10.103
 2627SOL    HW1 8777   1.248   3.506  10.038
 2627SOL    HW2 8778   1.295   3.432  10.176
 2628SOL     OW 8779   0.459   3.014  10.051
 2628SOL    HW1 8780   0.388   2.987  10.116
 2628SOL    HW2 8781   0.433   2.986   9.958
 2629SOL     OW 8782   1.271   3.659   9.901
 2629SOL    HW1 8783   1.315   3.723   9.837
 2629SOL    HW2 8784   1.221   3.711   9.971
 2630SOL     OW 8785   1.032   2.411   9.326
 2630SOL    HW1 8786   0.991   2.493   9.287
 2630SOL    HW2 8787   1.096   2.437   9.399
 2631SOL     OW 8788   0.078   2.418  10.696
 2631SOL    HW1 8789   0.170   2.417  10.655
 2631SOL    HW2 8790   0.072   2.492  10.763
 2632SOL     OW 8791   0.561   2.084  10.457
 2632SOL    HW1 8792   0.599   2.000  10.494
 2632SOL    HW2 8793   0.473   2.103  10.501
 2633SOL     OW 8794   0.866   2.316   9.952
 2633SOL    HW1 8795   0.834   2.388   9.890
 2633SOL    HW2 8796   0.890   2.235   9.899
 2634SOL     OW 8797   1.017   1.901  10.063
 2634SOL    HW1 8798   0.945   1.906   9.994
 2634SOL    HW2 8799   0.993   1.832  10.132
 2635SOL     OW 8800   1.429   3.035  10.177
 2635SOL    HW1 8801   1.374   2.951  10.170
 2635SOL    HW2 8802   1.455   3.064  10.085
 2636SOL     OW 8803   1.466   2.452  10.302
 2636SOL    HW1 8804   1.436   2.357  10.309
 2636SOL    HW2 8805   1.539   2.468  10.368
 2637SOL     OW 8806   1.857   2.695   9.687
 2637SOL    HW1 8807   1.899   2.631   9.751
 2637SOL    HW2 8808   1.819   2.644   9.609
 2638SOL     OW 8809   0.488   3.247   9.484
 2638SOL    HW1 8810   0.401   3.232   9.531
 2638SOL    HW2 8811   0.471   3.273   9.389
 2639SOL     OW 8812   1.664   3.142   9.967
 2639SOL    HW1 8813   1.763   3.150   9.981
 2639SOL    HW2 8814   1.619   3.226   9.998
 2640SOL     OW 8815   1.390   2.437   9.388
 2640SOL    HW1 8816   1.336   2.416   9.469
 2640SOL    HW2 8817   1.481   2.396   9.397
 2641SOL     OW 8818   0.527   2.118   9.638
 2641SOL    HW1 8819   0.554   2.059   9.563
 2641SOL    HW2 8820   0.527   2.213   9.607
 2642SOL     OW 8821   1.754   3.085  10.898
 2642SOL    HW1 8822   1.845   3.046  10.885
 2642SOL    HW2 8823   1.762   3.181  10.922
 2643SOL     OW 8824   1.064   3.209  10.650
 2643SOL    HW1 8825   0.984   3.186  10.705
 2643SOL    HW2 8826   1.147   3.183  10.699
 2644SOL     OW 8827   1.592   3.491  10.935
 2644SOL    HW1 8828   1.619   3.525  10.845
 2644SOL    HW2 8829   1.671   3.453  10.981
 2645SOL     OW 8830   1.111   3.057  10.410
 2645SOL    HW1 8831   1.071   3.101  10.491
 2645SOL    HW2 8832   1.070   3.094  10.327
 2646SOL     OW 8833   1.638   2.961  10.389
 2646SOL    HW1 8834   1.643   3.042  10.448
 2646SOL    HW2 8835   1.552   2.963  10.338
 2647SOL     OW 8836   0.915   1.951  10.712
 2647SOL    HW1 8837   0.940   1.931  10.617
 2647SOL    HW2 8838   0.987   2.007  10.754
 2648SOL     OW 8839   0.980   2.978  11.029
 2648SOL    HW1 8840   0.881   2.984  11.039
 2648SOL    HW2 8841   1.003   2.898  10.973
 2649SOL     OW 8842   0.705   2.912   9.678
 2649SOL    HW1 8843   0.691   2.919   9.777
 2649SOL    HW2 8844   0.789   2.861   9.660
 2650SOL     OW 8845   0.410   2.675  10.561
 2650SOL    HW1 8846   0.496   2.687  10.611
 2650SOL    HW2 8847   0.368   2.588  10.588
 2651SOL     OW 8848   1.274   2.248  10.572
 2651SOL    HW1 8849   1.295   2.322  10.636
 2651SOL    HW2 8850   1.185   2.265  10.529
 2652SOL     OW 8851   0.064   3.426  10.641
 2652SOL    HW1 8852   0.018   3.508  10.607
 2652SOL    HW2 8853   0.162   3.445  10.650
 2653SOL     OW 8854   0.367   2.962   9.811
 2653SOL    HW1 8855   0.360   3.045   9.755
 2653SOL    HW2 8856   0.371   2.882   9.751
 2654SOL     OW 8857   0.566   2.399  10.175
 2654SOL    HW1 8858   0.578   2.465  10.101
 2654SOL    HW2 8859   0.612   2.433  10.258
 2655SOL     OW 8860   1.252   3.210   9.698
 2655SOL    HW1 8861   1.302   3.287   9.738
 2655SOL    HW2 8862   1.157   3.212   9.730
 2656SOL     OW 8863   1.272   3.307  10.452
 2656SOL    HW1 8864   1.319   3.320  10.539
 2656SOL    HW2 8865   1.206   3.233  10.461
 2657SOL     OW 8866   1.582   2.501   9.782
 2657SOL    HW1 8867   1.551   2.562   9.855
 2657SOL    HW2 8868   1.632   2.553   9.713
 2658SOL     OW 8869   0.354   3.372  10.639
 2658SOL    HW1 8870   0.333   3.328  10.552
 2658SOL    HW2 8871   0.451   3.398  10.642
 2659SOL     OW 8872   0.402   2.613  10.908
 2659SOL    HW1 8873   0.470   2.668  10.861
 2659SOL    HW2 8874   0.442   2.525  10.935
 2660SOL     OW 8875   1.587   2.641  10.980
 2660SOL    HW1 8876   1.495   2.679  10.975
 2660SOL    HW2 8877   1.647   2.688  10.915
 2661SOL     OW 8878   1.013   1.967  11.080
 2661SOL    HW1 8879   1.019   2.052  11.028
 2661SOL    HW2 8880   1.045   1.891  11.023
 2662SOL     OW 8881   0.504   1.912  11.050
 2662SOL    HW1 8882   0.462   1.855  10.980
 2662SOL    HW2 8883   0.438   1.981  11.082
 2663SOL     OW 8884   0.573   2.732  10.339
 2663SOL    HW1 8885   0.617   2.821  10.330
 2663SOL    HW2 8886   0.510   2.732  10.416
 2664SOL     OW 8887   1.360   2.724  10.355
 2664SOL    HW1 8888   1.285   2.724  10.289
 2664SOL    HW2 8889   1.397   2.632  10.364
 2665SOL     OW 8890   1.209   2.387   9.585
 2665SOL    HW1 8891   1.222   2.303   9.639
 2665SOL    HW2 8892   1.180   2.461   9.645
 2666SOL     OW 8893   0.307   2.075  10.541
 2666SOL    HW1 8894   0.284   2.112  10.631
 2666SOL    HW2 8895   0.277   1.980  10.535
 2667SOL     OW 8896   0.037   3.172  10.592
 2667SOL    HW1 8897   0.090   3.123  10.660
 2667SOL    HW2 8898   0.059   3.270  10.597
 2668SOL     OW 8899   0.732   2.496  10.374
 2668SOL    HW1 8900   0.791   2.470  10.298
 2668SOL    HW2 8901   0.704   2.592  10.363
 2669SOL     OW 8902   1.728   2.797  11.164
 2669SOL    HW1 8903   1.682   2.790  11.075
 2669SOL    HW2 8904   1.666   2.841  11.230
 2670SOL     OW 8905   0.307   1.925   9.928
 2670SOL    HW1 8906   0.296   2.019   9.961
 2670SOL    HW2 8907   0.302   1.862  10.005
 2671SOL     OW 8908   1.622   2.229   9.684
 2671SOL    HW1 8909   1.624   2.153   9.748
 2671SOL    HW2 8910   1.574   2.306   9.724
 2672SOL     OW 8911   1.023   2.628  10.276
 2672SOL    HW1 8912   1.038   2.649  10.372
 2672SOL    HW2 8913   0.993   2.533  10.267
 2673SOL     OW 8914   0.980   3.435  11.010
 2673SOL    HW1 8915   0.960   3.479  10.922
 2673SOL    HW2 8916   1.019   3.344  10.994
 2674SOL     OW 8917   1.859   3.380  10.915
 2674SOL    HW1 8918   1.873   3.407  10.820
 2674SOL    HW2 8919   1.942   3.402  10.968
 2675SOL     OW 8920   0.350   2.760  11.114
 2675SOL    HW1 8921   0.426   2.804  11.162
 2675SOL    HW2 8922   0.385   2.713  11.032
 2676SOL     OW 8923   1.540   2.136   9.435
 2676SOL    HW1 8924   1.479   2.061   9.458
 2676SOL    HW2 8925   1.562   2.188   9.518
 2677SOL     OW 8926   1.303   2.700   9.352
 2677SOL    HW1 8927   1.337   2.607   9.367
 2677SOL    HW2 8928   1.321   2.727   9.257
 2678SOL     OW 8929   1.068   3.195  10.159
 2678SOL    HW1 8930   1.075   3.111  10.104
 2678SOL    HW2 8931   1.130   3.264  10.123
 2679SOL     OW 8932   0.319   2.672  10.259
 2679SOL    HW1 8933   0.412   2.708  10.264
 2679SOL    HW2 8934   0.313   2.587  10.311
 2680SOL     OW 8935   0.339   2.371  10.316
 2680SOL    HW1 8936   0.287   2.288  10.299
 2680SOL    HW2 8937   0.416   2.376  10.252
 2681SOL     OW 8938   1.138   2.242  10.988
 2681SOL    HW1 8939   1.093   2.305  11.052
 2681SOL    HW2 8940   1.231   2.273  10.971
 2682SOL     OW 8941   1.160   2.069  10.787
 2682SOL    HW1 8942   1.160   2.133  10.864
 2682SOL    HW2 8943   1.188   2.117  10.704
 2683SOL     OW 8944   0.008   3.188   9.510
 2683SOL    HW1 8945  -0.085   3.209   9.479
 2683SOL    HW2 8946   0.018   3.089   9.523
 2684SOL     OW 8947   0.088   3.663  10.237
 2684SOL    HW1 8948   0.046   3.577  10.210
 2684SOL    HW2 8949   0.182   3.666  10.203
 2685SOL     OW 8950   0.504   3.430  10.220
 2685SOL    HW1 8951   0.570   3.504  10.229
 2685SOL    HW2 8952   0.548   3.351  10.178
 2686SOL     OW 8953   1.002   2.658  10.548
 2686SOL    HW1 8954   1.043   2.626  10.634
 2686SOL    HW2 8955   0.906   2.631  10.545
 2687SOL     OW 8956   0.040   2.406  10.424
 2687SOL    HW1 8957   0.125   2.373  10.383
 2687SOL    HW2 8958   0.053   2.421  10.522
 2688SOL     OW 8959   0.189   2.382  11.032
 2688SOL    HW1 8960   0.248   2.342  10.962
 2688SOL    HW2 8961   0.131   2.453  10.991
 2689SOL     OW 8962   1.369   2.812  10.970
 2689SOL    HW1 8963   1.408   2.901  10.990
 2689SOL    HW2 8964   1.379   2.792  10.873
 2690SOL     OW 8965   0.815   2.434   9.635
 2690SOL    HW1 8966   0.822   2.345   9.589
 2690SOL    HW2 8967   0.721   2.468   9.627
 2691SOL     OW 8968   1.657   2.466  10.516
 2691SOL    HW1 8969   1.619   2.397  10.578
 2691SOL    HW2 8970   1.739   2.430  10.472
 2692SOL     OW 8971   0.252   3.426  11.054
 2692SOL    HW1 8972   0.222   3.483  11.130
 2692SOL    HW2 8973   0.245   3.329  11.080
 2693SOL     OW 8974   0.671   2.326  10.579
 2693SOL    HW1 8975   0.637   2.237  10.549
 2693SOL    HW2 8976   0.697   2.380  10.499
 2694SOL     OW 8977   0.930   3.540  10.775
 2694SOL    HW1 8978   0.906   3.522  10.680
 2694SOL    HW2 8979   0.960   3.634  10.785
 2695SOL     OW 8980   0.473   2.362   9.501
 2695SOL    HW1 8981   0.534   2.442   9.505
 2695SOL    HW2 8982   0.378   2.393   9.508
 2696SOL     OW 8983   0.159   2.999  10.776
 2696SOL    HW1 8984   0.181   2.938  10.852
 2696SOL    HW2 8985   0.169   2.950  10.690
 2697SOL     OW 8986   1.347   2.921  10.544
 2697SOL    HW1 8987   1.371   2.858  10.470
 2697SOL    HW2 8988   1.257   2.961  10.526
 2698SOL     OW 8989   1.302   2.717   9.619
 2698SOL    HW1 8990   1.216   2.686   9.661
 2698SOL    HW2 8991   1.298   2.703   9.520
 2699SOL     OW 8992   1.759   3.609  10.464
 2699SOL    HW1 8993   1.820   3.639  10.391
 2699SOL    HW2 8994   1.721   3.520  10.442
 2700SOL     OW 8995   1.252   3.593  10.438
 2700SOL    HW1 8996   1.336   3.598  10.384
 2700SOL    HW2 8997   1.229   3.497  10.456
 2701SOL     OW 8998   0.083   3.120  10.332
 2701SOL    HW1 8999   0.078   3.119  10.432
 2701SOL    HW2 9000   0.000   3.079  10.294
 2702SOL     OW 9001   0.688   3.524  11.026
 2702SOL    HW1 9002   0.632   3.605  11.035
 2702SOL    HW2 9003   0.740   3.528  10.940
 2703SOL     OW 9004   1.388   3.435   9.787
 2703SOL    HW1 9005   1.455   3.447   9.713
 2703SOL    HW2 9006   1.348   3.524   9.810
 2704SOL     OW 9007   0.130   3.656  11.161
 2704SOL    HW1 9008   0.089   3.582  11.214
 2704SOL    HW2 9009   0.194   3.707  11.219
 2705SOL     OW 9010   1.280   2.789   9.982
 2705SOL    HW1 9011   1.340   2.708   9.984
 2705SOL    HW2 9012   1.320   2.858   9.922
 2706SOL     OW 9013   0.830   3.135  10.732
 2706SOL    HW1 9014   0.825   3.168  10.827
 2706SOL    HW2 9015   0.744   3.154  10.686
 2707SOL     OW 9016   0.672   3.478   9.464
 2707SOL    HW1 9017   0.681   3.488   9.365
 2707SOL    HW2 9018   0.632   3.389   9.485
 2708SOL     OW 9019   1.650   3.582  10.704
 2708SOL    HW1 9020   1.703   3.592  10.620
 2708SOL    HW2 9021   1.623   3.672  10.738
 2709SOL     OW 9022   0.263   2.188  10.030
 2709SOL    HW1 9023   0.184   2.239   9.996
 2709SOL    HW2 9024   0.254   2.173  10.128
 2710SOL     OW 9025   1.194   3.474   9.341
 2710SOL    HW1 9026   1.200   3.381   9.378
 2710SOL    HW2 9027   1.135   3.474   9.261
 2711SOL     OW 9028   0.822   2.864  10.682
 2711SOL    HW1 9029   0.862   2.863  10.590
 2711SOL    HW2 9030   0.832   2.956  10.722
 2712SOL     OW 9031   0.916   2.772   9.601
 2712SOL    HW1 9032   0.979   2.810   9.533
 2712SOL    HW2 9033   0.956   2.689   9.640
 2713SOL     OW 9034   1.504   3.469   9.354
 2713SOL    HW1 9035   1.412   3.506   9.361
 2713SOL    HW2 9036   1.542   3.489   9.264
 2714SOL     OW 9037   0.372   3.150  10.800
 2714SOL    HW1 9038   0.359   3.243  10.766
 2714SOL    HW2 9039   0.288   3.098  10.787
 2715SOL     OW 9040   1.614   3.154  10.599
 2715SOL    HW1 9041   1.674   3.157  10.679
 2715SOL    HW2 9042   1.539   3.218  10.612
 2716SOL     OW 9043   1.039   2.960  10.006
 2716SOL    HW1 9044   0.969   2.913  10.060
 2716SOL    HW2 9045   1.098   2.892   9.963
 2717SOL     OW 9046   1.014   2.098  10.281
 2717SOL    HW1 9047   1.006   2.062  10.188
 2717SOL    HW2 9048   1.012   2.022  10.346
 2718SOL     OW 9049   0.590   3.349   9.801
 2718SOL    HW1 9050   0.632   3.291   9.731
 2718SOL    HW2 9051   0.546   3.428   9.757
 2719SOL     OW 9052   1.709   2.247  10.691
 2719SOL    HW1 9053   1.782   2.316  10.695
 2719SOL    HW2 9054   1.737   2.172  10.632
 2720SOL     OW 9055   0.255   3.210   9.600
 2720SOL    HW1 9056   0.159   3.211   9.573
 2720SOL    HW2 9057   0.267   3.263   9.684
 2721SOL     OW 9058   0.105   2.875  11.036
 2721SOL    HW1 9059   0.028   2.842  11.090
 2721SOL    HW2 9060   0.190   2.845  11.078
 2722SOL     OW 9061   0.672   2.065  10.799
 2722SOL    HW1 9062   0.762   2.049  10.759
 2722SOL    HW2 9063   0.680   2.070  10.898
 2723SOL     OW 9064   0.075   2.207   9.343
 2723SOL    HW1 9065  -0.017   2.179   9.314
 2723SOL    HW2 9066   0.106   2.284   9.287
 2724SOL     OW 9067   1.440   2.718  10.708
 2724SOL    HW1 9068   1.383   2.770  10.645
 2724SOL    HW2 9069   1.536   2.730  10.684
 2725SOL     OW 9070   0.072   2.028   9.628
 2725SOL    HW1 9071   0.055   2.111   9.574
 2725SOL    HW2 9072   0.162   1.991   9.606
 2726SOL     OW 9073   1.183   3.197   9.429
 2726SOL    HW1 9074   1.084   3.186   9.431
 2726SOL    HW2 9075   1.217   3.212   9.522
 2727SOL     OW 9076   0.613   2.704  10.741
 2727SOL    HW1 9077   0.669   2.785  10.724
 2727SOL    HW2 9078   0.672   2.624  10.744
 2728SOL     OW 9079   1.493   3.629  10.269
 2728SOL    HW1 9080   1.526   3.693  10.200
 2728SOL    HW2 9081   1.559   3.623  10.344
 2729SOL     OW 9082   0.716   2.427  11.018
 2729SOL    HW1 9083   0.735   2.492  11.092
 2729SOL    HW2 9084   0.776   2.347  11.027
 2730SOL     OW 9085   1.450   3.082  10.943
 2730SOL    HW1 9086   1.441   3.072  11.042
 2730SOL    HW2 9087   1.546   3.075  10.917
 2731SOL     OW 9088   0.390   3.603  10.870
 2731SOL    HW1 9089   0.299   3.644  10.868
 2731SOL    HW2 9090   0.383   3.509  10.902
 2732SOL     OW 9091   1.674   2.745  10.564
 2732SOL    HW1 9092   1.647   2.656  10.527
 2732SOL    HW2 9093   1.675   2.813  10.491
 2733SOL     OW 9094   1.225   2.187   9.759
 2733SOL    HW1 9095   1.290   2.113   9.748
 2733SOL    HW2 9096   1.245   2.237   9.843
 2734SOL     OW 9097   0.594   2.607   9.962
 2734SOL    HW1 9098   0.644   2.692   9.943
 2734SOL    HW2 9099   0.506   2.609   9.914
 2735SOL     OW 9100   1.777   2.204  10.952
 2735SOL    HW1 9101   1.760   2.235  10.858
 2735SOL    HW2 9102   1.693   2.167  10.990
 2736SOL     OW 9103   1.730   2.796  10.827
 2736SOL    HW1 9104   1.768   2.887  10.842
 2736SOL    HW2 9105   1.722   2.779  10.728
 2737SOL     OW 9106   0.859   3.236   9.326
 2737SOL    HW1 9107   0.813   3.251   9.414
 2737SOL    HW2 9108   0.903   3.321   9.296
 2738SOL     OW 9109   0.661   3.652  10.263
 2738SOL    HW1 9110   0.615   3.740  10.250
 2738SOL    HW2 9111   0.760   3.664  10.256
 2739SOL     OW 9112   0.859   2.818  10.171
 2739SOL    HW1 9113   0.913   2.749  10.219
 2739SOL    HW2 9114   0.827   2.887  10.237
 2740SOL     OW 9115   1.083   2.846   9.397
 2740SOL    HW1 9116   1.060   2.899   9.315
 2740SOL    HW2 9117   1.164   2.790   9.378
 2741SOL     OW 9118   1.861   3.431  10.161
 2741SOL    HW1 9119   1.790   3.419  10.091
 2741SOL    HW2 9120   1.862   3.352  10.221
 2742SOL     OW 9121   0.221   3.176  11.154
 2742SOL    HW1 9122   0.156   3.103  11.133
 2742SOL    HW2 9123   0.225   3.190  11.252
 2743SOL     OW 9124   0.079   3.102   9.963
 2743SOL    HW1 9125   0.078   3.055  10.051
 2743SOL    HW2 9126   0.161   3.074   9.912
 2744SOL     OW 9127   0.672   3.253  10.934
 2744SOL    HW1 9128   0.594   3.203  10.972
 2744SOL    HW2 9129   0.669   3.348  10.965
 2745SOL     OW 9130   0.428   2.286   9.830
 2745SOL    HW1 9131   0.458   2.214   9.768
 2745SOL    HW2 9132   0.389   2.246   9.913
 2746SOL     OW 9133   1.705   3.349  10.414
 2746SOL    HW1 9134   1.612   3.324  10.387
 2746SOL    HW2 9135   1.731   3.299  10.496
 2747SOL     OW 9136   0.317   2.409  10.590
 2747SOL    HW1 9137   0.355   2.350  10.662
 2747SOL    HW2 9138   0.357   2.383  10.502
 2748SOL     OW 9139   0.812   3.448   9.997
 2748SOL    HW1 9140   0.844   3.458   9.903
 2748SOL    HW2 9141   0.733   3.386   9.999
 2749SOL     OW 9142   1.424   2.076  10.422
 2749SOL    HW1 9143   1.476   2.011  10.477
 2749SOL    HW2 9144   1.375   2.139  10.483
 2750SOL     OW 9145   1.001   1.896  10.464
 2750SOL    HW1 9146   0.938   1.824  10.433
 2750SOL    HW2 9147   1.094   1.860  10.464
 2751SOL     OW 9148   0.770   3.192   9.611
 2751SOL    HW1 9149   0.724   3.105   9.628
 2751SOL    HW2 9150   0.861   3.189   9.652
 2752SOL     OW 9151   0.618   3.429  10.594
 2752SOL    HW1 9152   0.613   3.511  10.651
 2752SOL    HW2 9153   0.707   3.426  10.549
 2753SOL     OW 9154   1.352   1.914   9.478
 2753SOL    HW1 9155   1.387   1.873   9.394
 2753SOL    HW2 9156   1.262   1.876   9.498
 2754SOL     OW 9157   1.300   2.315  10.001
 2754SOL    HW1 9158   1.241   2.395  10.005
 2754SOL    HW2 9159   1.315   2.280  10.094
 2755SOL     OW 9160   1.593   2.083  10.192
 2755SOL    HW1 9161   1.509   2.082  10.246
 2755SOL    HW2 9162   1.595   2.166  10.136
 2756SOL     OW 9163   0.039   2.939   9.610
 2756SOL    HW1 9164   0.138   2.928   9.601
 2756SOL    HW2 9165  -0.001   2.853   9.642
 2757SOL     OW 9166   0.875   3.508   9.647
 2757SOL    HW1 9167   0.798   3.473   9.593
 2757SOL    HW2 9168   0.843   3.579   9.709
 2758SOL     OW 9169   0.230   2.490  11.285
 2758SOL    HW1 9170   0.137   2.488  11.322
 2758SOL    HW2 9171   0.231   2.451  11.193
 2759SOL     OW 9172   0.225   2.137  12.168
 2759SOL    HW1 9173   0.260   2.120  12.260
 2759SOL    HW2 9174   0.137   2.092  12.156
 2760SOL     OW 9175   0.019   2.230  11.819
 2760SOL    HW1 9176  -0.063   2.273  11.858
 2760SOL    HW2 9177  -0.009   2.157  11.756
 2761SOL     OW 9178   0.569   3.137  12.337
 2761SOL    HW1 9179   0.476   3.130  12.300
 2761SOL    HW2 9180   0.580   3.226  12.381
 2762SOL     OW 9181   1.555   3.373  11.875
 2762SOL    HW1 9182   1.498   3.357  11.956
 2762SOL    HW2 9183   1.496   3.383  11.795
 2763SOL     OW 9184   1.135   2.565  11.889
 2763SOL    HW1 9185   1.192   2.643  11.864
 2763SOL    HW2 9186   1.075   2.591  11.965
 2764SOL     OW 9187   1.755   2.469  11.403
 2764SOL    HW1 9188   1.743   2.456  11.304
 2764SOL    HW2 9189   1.725   2.388  11.452
 2765SOL     OW 9190   0.768   3.006  12.195
 2765SOL    HW1 9191   0.690   3.023  12.255
 2765SOL    HW2 9192   0.802   3.093  12.159
 2766SOL     OW 9193   0.850   2.660  12.995
 2766SOL    HW1 9194   0.846   2.736  13.060
 2766SOL    HW2 9195   0.872   2.696  12.904
 2767SOL     OW 9196   0.685   2.874  11.837
 2767SOL    HW1 9197   0.754   2.858  11.907
 2767SOL    HW2 9198   0.612   2.931  11.875
 2768SOL     OW 9199   0.686   3.023  12.975
 2768SOL    HW1 9200   0.746   3.102  12.989
 2768SOL    HW2 9201   0.600   3.054  12.934
 2769SOL     OW 9202   0.335   3.297  12.233
 2769SOL    HW1 9203   0.257   3.266  12.180
 2769SOL    HW2 9204   0.393   3.355  12.176
 2770SOL     OW 9205   1.460   3.367  12.511
 2770SOL    HW1 9206   1.484   3.461  12.537
 2770SOL    HW2 9207   1.444   3.313  12.593
 2771SOL     OW 9208   0.438   2.254  12.671
 2771SOL    HW1 9209   0.520   2.198  12.680
 2771SOL    HW2 9210   0.357   2.196  12.675
 2772SOL     OW 9211   1.603   2.309  11.909
 2772SOL    HW1 9212   1.529   2.355  11.859
 2772SOL    HW2 9213   1.654   2.377  11.962
 2773SOL     OW 9214   0.231   3.575  11.655
 2773SOL    HW1 9215   0.265   3.652  11.709
 2773SOL    HW2 9216   0.275   3.575  11.565
 2774SOL     OW 9217   1.127   3.203  12.862
 2774SOL    HW1 9218   1.174   3.203  12.950
 2774SOL    HW2 9219   1.079   3.116  12.851
 2775SOL     OW 9220   0.230   3.296  11.710
 2775SOL    HW1 9221   0.204   3.392  11.710
 2775SOL    HW2 9222   0.159   3.242  11.755
 2776SOL     OW 9223   0.240   2.953  12.058
 2776SOL    HW1 9224   0.254   2.869  12.110
 2776SOL    HW2 9225   0.185   3.017  12.113
 2777SOL     OW 9226   0.620   3.648  12.611
 2777SOL    HW1 9227   0.528   3.631  12.646
 2777SOL    HW2 9228   0.648   3.740  12.637
 2778SOL     OW 9229   0.606   2.826  11.295
 2778SOL    HW1 9230   0.613   2.910  11.241
 2778SOL    HW2 9231   0.652   2.839  11.383
 2779SOL     OW 9232   1.594   1.976  12.652
 2779SOL    HW1 9233   1.576   2.043  12.580
 2779SOL    HW2 9234   1.591   2.022  12.741
 2780SOL     OW 9235   0.122   2.505  11.735
 2780SOL    HW1 9236   0.077   2.417  11.752
 2780SOL    HW2 9237   0.121   2.559  11.819
 2781SOL     OW 9238   1.842   3.629  11.531
 2781SOL    HW1 9239   1.896   3.600  11.611
 2781SOL    HW2 9240   1.872   3.719  11.502
 2782SOL     OW 9241   0.027   3.458  11.289
 2782SOL    HW1 9242   0.008   3.362  11.310
 2782SOL    HW2 9243  -0.006   3.516  11.364
 2783SOL     OW 9244   1.689   2.784  11.784
 2783SOL    HW1 9245   1.784   2.755  11.792
 2783SOL    HW2 9246   1.681   2.849  11.709
 2784SOL     OW 9247   1.641   2.970  11.604
 2784SOL    HW1 9248   1.727   2.972  11.552
 2784SOL    HW2 9249   1.655   3.017  11.692
 2785SOL     OW 9250   0.113   2.599  12.769
 2785SOL    HW1 9251   0.201   2.586  12.814
 2785SOL    HW2 9252   0.100   2.696  12.747
 2786SOL     OW 9253   0.613   3.227  11.898
 2786SOL    HW1 9254   0.564   3.140  11.907
 2786SOL    HW2 9255   0.590   3.270  11.811
 2787SOL     OW 9256   1.293   3.090  12.595
 2787SOL    HW1 9257   1.330   3.017  12.537
 2787SOL    HW2 9258   1.345   3.095  12.680
 2788SOL     OW 9259   0.809   1.866  11.674
 2788SOL    HW1 9260   0.849   1.957  11.665
 2788SOL    HW2 9261   0.709   1.874  11.680
 2789SOL     OW 9262   0.197   2.838  12.436
 2789SOL    HW1 9263   0.286   2.793  12.422
 2789SOL    HW2 9264   0.124   2.773  12.417
 2790SOL     OW 9265   1.525   2.861  11.362
 2790SOL    HW1 9266   1.462   2.785  11.375
 2790SOL    HW2 9267   1.573   2.879  11.448
 2791SOL     OW 9268   1.187   3.654  12.788
 2791SOL    HW1 9269   1.211   3.714  12.712
 2791SOL    HW2 9270   1.194   3.559  12.758
 2792SOL     OW 9271   0.317   2.113  12.973
 2792SOL    HW1 9272   0.388   2.184  12.979
 2792SOL    HW2 9273   0.229   2.152  13.001
 2793SOL     OW 9274   1.466   3.279  12.125
 2793SOL    HW1 9275   1.407   3.285  12.205
 2793SOL    HW2 9276   1.451   3.191  12.079
 2794SOL     OW 9277   1.667   3.576  11.744
 2794SOL    HW1 9278   1.626   3.553  11.656
 2794SOL    HW2 9279   1.649   3.502  11.809
 2795SOL     OW 9280   0.598   2.591  11.442
 2795SOL    HW1 9281   0.622   2.660  11.374
 2795SOL    HW2 9282   0.520   2.624  11.496
 2796SOL     OW 9283   1.281   2.207  12.116
 2796SOL    HW1 9284   1.195   2.157  12.103
 2796SOL    HW2 9285   1.343   2.153  12.172
 2797SOL     OW 9286   1.576   3.524  11.479
 2797SOL    HW1 9287   1.665   3.570  11.482
 2797SOL    HW2 9288   1.555   3.500  11.384
 2798SOL     OW 9289   0.807   2.467  12.637
 2798SOL    HW1 9290   0.760   2.464  12.726
 2798SOL    HW2 9291   0.756   2.412  12.571
 2799SOL     OW 9292   1.394   2.331  12.846
 2799SOL    HW1 9293   1.374   2.374  12.934
 2799SOL    HW2 9294   1.472   2.269  12.855
 2800SOL     OW 9295   0.973   2.752  12.744
 2800SOL    HW1 9296   1.019   2.668  12.715
 2800SOL    HW2 9297   0.917   2.786  12.669
 2801SOL     OW 9298   0.991   2.272  12.414
 2801SOL    HW1 9299   0.914   2.306  12.468
 2801SOL    HW2 9300   0.957   2.221  12.335
 2802SOL     OW 9301   1.041   2.563  11.601
 2802SOL    HW1 9302   1.067   2.559  11.697
 2802SOL    HW2 9303   0.956   2.512  11.587
 2803SOL     OW 9304   0.076   2.673  11.961
 2803SOL    HW1 9305   0.175   2.661  11.970
 2803SOL    HW2 9306   0.052   2.768  11.982
 2804SOL     OW 9307   0.130   3.683  12.743
 2804SOL    HW1 9308   0.120   3.668  12.842
 2804SOL    HW2 9309   0.044   3.719  12.707
 2805SOL     OW 9310   0.865   2.210  11.367
 2805SOL    HW1 9311   0.924   2.273  11.318
 2805SOL    HW2 9312   0.884   2.116  11.338
 2806SOL     OW 9313   1.719   2.447  13.003
 2806SOL    HW1 9314   1.693   2.536  12.967
 2806SOL    HW2 9315   1.717   2.379  12.930
 2807SOL     OW 9316   1.362   3.006  11.717
 2807SOL    HW1 9317   1.445   2.977  11.669
 2807SOL    HW2 9318   1.313   3.073  11.661
 2808SOL     OW 9319   0.550   2.058  12.057
 2808SOL    HW1 9320   0.545   2.053  12.157
 2808SOL    HW2 9321   0.552   2.154  12.028
 2809SOL     OW 9322   1.008   3.318  11.649
 2809SOL    HW1 9323   0.962   3.390  11.597
 2809SOL    HW2 9324   1.004   3.338  11.747
 2810SOL     OW 9325   0.351   3.663  12.025
 2810SOL    HW1 9326   0.401   3.577  12.031
 2810SOL    HW2 9327   0.416   3.740  12.022
 2811SOL     OW 9328   1.795   2.928  12.045
 2811SOL    HW1 9329   1.733   2.913  11.969
 2811SOL    HW2 9330   1.743   2.939  12.130
 2812SOL     OW 9331   1.227   3.412  12.678
 2812SOL    HW1 9332   1.233   3.335  12.742
 2812SOL    HW2 9333   1.175   3.386  12.598
 2813SOL     OW 9334   0.321   2.805  11.414
 2813SOL    HW1 9335   0.403   2.844  11.372
 2813SOL    HW2 9336   0.294   2.723  11.365
 2814SOL     OW 9337   1.458   2.597  11.900
 2814SOL    HW1 9338   1.453   2.532  11.975
 2814SOL    HW2 9339   1.538   2.656  11.913
 2815SOL     OW 9340   0.461   3.128  12.899
 2815SOL    HW1 9341   0.411   3.129  12.813
 2815SOL    HW2 9342   0.398   3.110  12.975
 2816SOL     OW 9343   1.111   3.638  11.409
 2816SOL    HW1 9344   1.051   3.576  11.459
 2816SOL    HW2 9345   1.142   3.594  11.324
 2817SOL     OW 9346   0.202   2.147  12.670
 2817SOL    HW1 9347   0.122   2.207  12.657
 2817SOL    HW2 9348   0.192   2.098  12.756
 2818SOL     OW 9349   1.632   3.239  11.253
 2818SOL    HW1 9350   1.600   3.333  11.243
 2818SOL    HW2 9351   1.556   3.176  11.241
 2819SOL     OW 9352   0.464   3.605  11.495
 2819SOL    HW1 9353   0.497   3.644  11.581
 2819SOL    HW2 9354   0.540   3.598  11.430
 2820SOL     OW 9355   1.400   1.969  11.598
 2820SOL    HW1 9356   1.376   1.932  11.508
 2820SOL    HW2 9357   1.499   1.985  11.602
 2821SOL     OW 9358   0.249   3.647  12.413
 2821SOL    HW1 9359   0.306   3.582  12.463
 2821SOL    HW2 9360   0.233   3.614  12.320
 2822SOL     OW 9361   0.940   3.560  12.076
 2822SOL    HW1 9362   1.020   3.503  12.097
 2822SOL    HW2 9363   0.891   3.520  11.999
 2823SOL     OW 9364   0.382   2.562  11.652
 2823SOL    HW1 9365   0.427   2.472  11.649
 2823SOL    HW2 9366   0.288   2.551  11.685
 2824SOL     OW 9367   1.547   2.084  12.901
 2824SOL    HW1 9368   1.542   2.121  12.993
 2824SOL    HW2 9369   1.475   2.015  12.889
 2825SOL     OW 9370   0.614   1.984  11.289
 2825SOL    HW1 9371   0.712   1.962  11.296
 2825SOL    HW2 9372   0.583   1.967  11.196
 2826SOL     OW 9373   0.781   2.126  12.921
 2826SOL    HW1 9374   0.848   2.065  12.964
 2826SOL    HW2 9375   0.708   2.145  12.986
 2827SOL     OW 9376   0.888   3.376  12.367
 2827SOL    HW1 9377   0.865   3.351  12.273
 2827SOL    HW2 9378   0.949   3.307  12.406
 2828SOL     OW 9379   1.351   2.452  12.605
 2828SOL    HW1 9380   1.379   2.409  12.690
 2828SOL    HW2 9381   1.376   2.548  12.606
 2829SOL     OW 9382   0.803   3.264  12.096
 2829SOL    HW1 9383   0.893   3.278  12.054
 2829SOL    HW2 9384   0.732   3.266  12.025
 2830SOL     OW 9385   0.922   2.365  12.071
 2830SOL    HW1 9386   0.897   2.356  11.975
 2830SOL    HW2 9387   0.970   2.283  12.102
 2831SOL     OW 9388   0.539   1.926  11.684
 2831SOL    HW1 9389   0.458   1.927  11.742
 2831SOL    HW2 9390   0.542   2.009  11.629
 2832SOL     OW 9391   1.434   3.050  11.213
 2832SOL    HW1 9392   1.466   2.974  11.270
 2832SOL    HW2 9393   1.342   3.077  11.243
 2833SOL     OW 9394   0.297   1.897  11.343
 2833SOL    HW1 9395   0.346   1.981  11.322
 2833SOL    HW2 9396   0.359   1.832  11.388
 2834SOL     OW 9397   0.935   2.098  11.652
 2834SOL    HW1 9398   0.887   2.139  11.574
 2834SOL    HW2 9399   1.034   2.096  11.633
 2835SOL     OW 9400   1.076   2.545  12.636
 2835SOL    HW1 9401   0.996   2.484  12.639
 2835SOL    HW2 9402   1.157   2.492  12.612
 2836SOL     OW 9403   1.227   3.432  11.965
 2836SOL    HW1 9404   1.248   3.506  11.900
 2836SOL    HW2 9405   1.295   3.432  12.038
 2837SOL     OW 9406   0.459   3.014  11.913
 2837SOL    HW1 9407   0.388   2.987  11.978
 2837SOL    HW2 9408   0.433   2.986  11.820
 2838SOL     OW 9409   1.271   3.659  11.763
 2838SOL    HW1 9410   1.315   3.723  11.699
 2838SOL    HW2 9411   1.221   3.711  11.833
 2839SOL     OW 9412   1.032   2.411  11.188
 2839SOL    HW1 9413   0.991   2.493  11.149
 2839SOL    HW2 9414   1.096   2.437  11.261
 2840SOL     OW 9415   0.078   2.418  12.558
 2840SOL    HW1 9416   0.170   2.417  12.517
 2840SOL    HW2 9417   0.072   2.492  12.625
 2841SOL     OW 9418   0.561   2.084  12.319
 2841SOL    HW1 9419   0.599   2.000  12.356
 2841SOL    HW2 9420   0.473   2.103  12.363
 2842SOL     OW 9421   0.866   2.316  11.814
 2842SOL    HW1 9422   0.834   2.388  11.752
 2842SOL    HW2 9423   0.890   2.235  11.761
 2843SOL     OW 9424   1.017   1.901  11.925
 2843SOL    HW1 9425   0.945   1.906  11.856
 2843SOL    HW2 9426   0.993   1.832  11.994
 2844SOL     OW 9427   1.429   3.035  12.039
 2844SOL    HW1 9428   1.374   2.951  12.032
 2844SOL    HW2 9429   1.455   3.064  11.947
 2845SOL     OW 9430   1.466   2.452  12.164
 2845SOL    HW1 9431   1.436   2.357  12.171
 2845SOL    HW2 9432   1.539   2.468  12.230
 2846SOL     OW 9433   1.857   2.695  11.549
 2846SOL    HW1 9434   1.899   2.631  11.613
 2846SOL    HW2 9435   1.819   2.644  11.471
 2847SOL     OW 9436   0.488   3.247  11.346
 2847SOL    HW1 9437   0.401   3.232  11.393
 2847SOL    HW2 9438   0.471   3.273  11.251
 2848SOL     OW 9439   1.664   3.142  11.829
 2848SOL    HW1 9440   1.763   3.150  11.843
 2848SOL    HW2 9441   1.619   3.226  11.860
 2849SOL     OW 9442   1.390   2.437  11.250
 2849SOL    HW1 9443   1.336   2.416  11.331
 2849SOL    HW2 9444   1.481   2.396  11.259
 2850SOL     OW 9445   0.527   2.118  11.500
 2850SOL    HW1 9446   0.554   2.059  11.425
 2850SOL    HW2 9447   0.527   2.213  11.469
 2851SOL     OW 9448   1.754   3.085  12.760
 2851SOL    HW1 9449   1.845   3.046  12.747
 2851SOL    HW2 9450   1.762   3.181  12.784
 2852SOL     OW 9451   1.064   3.209  12.512
 2852SOL    HW1 9452   0.984   3.186  12.567
 2852SOL    HW2 9453   1.147   3.183  12.561
 2853SOL     OW 9454   1.592   3.491  12.797
 2853SOL    HW1 9455   1.619   3.525  12.707
 2853SOL    HW2 9456   1.671   3.453  12.843
 2854SOL     OW 9457   1.111   3.057  12.272
 2854SOL    HW1 9458   1.071   3.101  12.353
 2854SOL    HW2 9459   1.070   3.094  12.189
 2855SOL     OW 9460   1.638   2.961  12.251
 2855SOL    HW1 9461   1.643   3.042  12.310
 2855SOL    HW2 9462   1.552   2.963  12.200
 2856SOL     OW 9463   0.915   1.951  12.574
 2856SOL    HW1 9464   0.940   1.931  12.479
 2856SOL    HW2 9465   0.987   2.007  12.616
 2857SOL     OW 9466   0.980   2.978  12.891
 2857SOL    HW1 9467   0.881   2.984  12.901
 2857SOL    HW2 9468   1.003   2.898  12.835
 2858SOL     OW 9469   0.705   2.912  11.540
 2858SOL    HW1 9470   0.691   2.919  11.639
 2858SOL    HW2 9471   0.789   2.861  11.522
 2859SOL     OW 9472   0.410   2.675  12.423
 2859SOL    HW1 9473   0.496   2.687  12.473
 2859SOL    HW2 9474   0.368   2.588  12.450
 2860SOL     OW 9475   1.274   2.248  12.434
 2860SOL    HW1 9476   1.295   2.322  12.498
 2860SOL    HW2 9477   1.185   2.265  12.391
 2861SOL     OW 9478   0.064   3.426  12.503
 2861SOL    HW1 9479   0.018   3.508  12.469
 2861SOL    HW2 9480   0.162   3.445  12.512
 2862SOL     OW 9481   0.367   2.962  11.673
 2862SOL    HW1 9482   0.360   3.045  11.617
 2862SOL    HW2 9483   0.371   2.882  11.613
 2863SOL     OW 9484   0.566   2.399  12.037
 2863SOL    HW1 9485   0.578   2.465  11.963
 2863SOL    HW2 9486   0.612   2.433  12.120
 2864SOL     OW 9487   1.252   3.210  11.560
 2864SOL    HW1 9488   1.302   3.287  11.600
 2864SOL    HW2 9489   1.157   3.212  11.592
 2865SOL     OW 9490   1.272   3.307  12.314
 2865SOL    HW1 9491   1.319   3.320  12.401
 2865SOL    HW2 9492   1.206   3.233  12.323
 2866SOL     OW 9493   1.582   2.501  11.644
 2866SOL    HW1 9494   1.551   2.562  11.717
 2866SOL    HW2 9495   1.632   2.553  11.575
 2867SOL     OW 9496   0.354   3.372  12.501
 2867SOL    HW1 9497   0.333   3.328  12.414
 2867SOL    HW2 9498   0.451   3.398  12.504
 2868SOL     OW 9499   0.402   2.613  12.770
 2868SOL    HW1 9500   0.470   2.668  12.723
 2868SOL    HW2 9501   0.442   2.525  12.797
 2869SOL     OW 9502   1.587   2.641  12.842
 2869SOL    HW1 9503   1.495   2.679  12.837
 2869SOL    HW2 9504   1.647   2.688  12.777
 2870SOL     OW 9505   1.013   1.967  12.942
 2870SOL    HW1 9506   1.019   2.052  12.890
 2870SOL    HW2 9507   1.045   1.891  12.885
 2871SOL     OW 9508   0.504   1.912  12.912
 2871SOL    HW1 9509   0.462   1.855  12.842
 2871SOL    HW2 9510   0.438   1.981  12.944
 2872SOL     OW 9511   0.573   2.732  12.201
 2872SOL    HW1 9512   0.617   2.821  12.192
 2872SOL    HW2 9513   0.510   2.732  12.278
 2873SOL     OW 9514   1.360   2.724  12.217
 2873SOL    HW1 9515   1.285   2.724  12.151
 2873SOL    HW2 9516   1.397   2.632  12.226
 2874SOL     OW 9517   1.209   2.387  11.447
 2874SOL    HW1 9518   1.222   2.303  11.501
 2874SOL    HW2 9519   1.180   2.461  11.507
 2875SOL     OW 9520   0.307   2.075  12.403
 2875SOL    HW1 9521   0.284   2.112  12.493
 2875SOL    HW2 9522   0.277   1.980  12.397
 2876SOL     OW 9523   0.037   3.172  12.454
 2876SOL    HW1 9524   0.090   3.123  12.522
 2876SOL    HW2 9525   0.059   3.270  12.459
 2877SOL     OW 9526   0.732   2.496  12.236
 2877SOL    HW1 9527   0.791   2.470  12.160
 2877SOL    HW2 9528   0.704   2.592  12.225
 2878SOL     OW 9529   1.728   2.797  13.026
 2878SOL    HW1 9530   1.682   2.790  12.937
 2878SOL    HW2 9531   1.666   2.841  13.092
 2879SOL     OW 9532   0.307   1.925  11.790
 2879SOL    HW1 9533   0.296   2.019  11.823
 2879SOL    HW2 9534   0.302   1.862  11.867
 2880SOL     OW 9535   1.622   2.229  11.546
 2880SOL    HW1 9536   1.624   2.153  11.610
 2880SOL    HW2 9537   1.574   2.306  11.586
 2881SOL     OW 9538   1.023   2.628  12.138
 2881SOL    HW1 9539   1.038   2.649  12.234
 2881SOL    HW2 9540   0.993   2.533  12.129
 2882SOL     OW 9541   0.980   3.435  12.872
 2882SOL    HW1 9542   0.960   3.479  12.784
 2882SOL    HW2 9543   1.019   3.344  12.856
 2883SOL     OW 9544   1.859   3.380  12.777
 2883SOL    HW1 9545   1.873   3.407  12.682
 2883SOL    HW2 9546   1.942   3.402  12.830
 2884SOL     OW 9547   0.350   2.760  12.976
 2884SOL    HW1 9548   0.426   2.804  13.024
 2884SOL    HW2 9549   0.385   2.713  12.894
 2885SOL     OW 9550   1.540   2.136  11.297
 2885SOL    HW1 9551   1.479   2.061  11.320
 2885SOL    HW2 9552   1.562   2.188  11.380
 2886SOL     OW 9553   1.303   2.700  11.214
 2886SOL    HW1 9554   1.337   2.607  11.229
 2886SOL    HW2 9555   1.321   2.727  11.119
 2887SOL     OW 9556   1.068   3.195  12.021
 2887SOL    HW1 9557   1.075   3.111  11.966
 2887SOL    HW2 9558   1.130   3.264  11.985
 2888SOL     OW 9559   0.319   2.672  12.121
 2888SOL    HW1 9560   0.412   2.708  12.126
 2888SOL    HW2 9561   0.313   2.587  12.173
 2889SOL     OW 9562   0.339   2.371  12.178
 2889SOL    HW1 9563   0.287   2.288  12.161
 2889SOL    HW2 9564   0.416   2.376  12.114
 2890SOL     OW 9565   1.138   2.242  12.850
 2890SOL    HW1 9566   1.093   2.305  12.914
 2890SOL    HW2 9567   1.231   2.273  12.833
 2891SOL     OW 9568   1.160   2.069  12.649
 2891SOL    HW1 9569   1.160   2.133  12.726
 2891SOL    HW2 9570   1.188   2.117  12.566
 2892SOL     OW 9571   0.008   3.188  11.372
 2892SOL    HW1 9572  -0.085   3.209  11.341
 2892SOL    HW2 9573   0.018   3.089  11.385
 2893SOL     OW 9574   0.088   3.663  12.099
 2893SOL    HW1 9575   0.046   3.577  12.072
 2893SOL    HW2 9576   0.182   3.666  12.065
 2894SOL     OW 9577   0.504   3.430  12.082
 2894SOL    HW1 9578   0.570   3.504  12.091
 2894SOL    HW2 9579   0.548   3.351  12.040
 2895SOL     OW 9580   1.002   2.658  12.410
 2895SOL    HW1 9581   1.043   2.626  12.496
 2895SOL    HW2 9582   0.906   2.631  12.407
 2896SOL     OW 9583   0.040   2.406  12.286
 2896SOL    HW1 9584   0.125   2.373  12.245
 2896SOL    HW2 9585   0.053   2.421  12.384
 2897SOL     OW 9586   0.189   2.382  12.894
 2897SOL    HW1 9587   0.248   2.342  12.824
 2897SOL    HW2 9588   0.131   2.453  12.853
 2898SOL     OW 9589   1.369   2.812  12.832
 2898SOL    HW1 9590   1.408   2.901  12.852
 2898SOL    HW2 9591   1.379   2.792  12.735
 2899SOL     OW 9592   0.815   2.434  11.497
 2899SOL    HW1 9593   0.822   2.345  11.451
 2899SOL    HW2 9594   0.721   2.468  11.489
 2900SOL     OW 9595   1.657   2.466  12.378
 2900SOL    HW1 9596   1.619   2.397  12.440
 2900SOL    HW2 9597   1.739   2.430  12.334
 2901SOL     OW 9598   0.252   3.426  12.916
 2901SOL    HW1 9599   0.222   3.483  12.992
 2901SOL    HW2 9600   0.245   3.329  12.942
 2902SOL     OW 9601   0.671   2.326  12.441
 2902SOL    HW1 9602   0.637   2.237  12.411
 2902SOL    HW2 9603   0.697   2.380  12.361
 2903SOL     OW 9604   0.930   3.540  12.637
 2903SOL    HW1 9605   0.906   3.522  12.542
 2903SOL    HW2 9606   0.960   3.634  12.647
 2904SOL     OW 9607   0.473   2.362  11.363
 2904SOL    HW1 9608   0.534   2.442  11.367
 2904SOL    HW2 9609   0.378   2.393  11.370
 2905SOL     OW 9610   0.159   2.999  12.638
 2905SOL    HW1 9611   0.181   2.938  12.714
 2905SOL    HW2 9612   0.169   2.950  12.552
 2906SOL     OW 9613   1.347   2.921  12.406
 2906SOL    HW1 9614   1.371   2.858  12.332
 2906SOL    HW2 9615   1.257   2.961  12.388
 2907SOL     OW 9616   1.302   2.717  11.481
 2907SOL    HW1 9617   1.216   2.686  11.523
 2907SOL    HW2 9618   1.298   2.703  11.382
 2908SOL     OW 9619   1.759   3.609  12.326
 2908SOL    HW1 9620   1.820   3.639  12.253
 2908SOL    HW2 9621   1.721   3.520  12.304
 2909SOL     OW 9622   1.252   3.593  12.300
 2909SOL    HW1 9623   1.336   3.598  12.246
 2909SOL    HW2 9624   1.229   3.497  12.318
 2910SOL     OW 9625   0.083   3.120  12.194
 2910SOL    HW1 9626   0.078   3.119  12.294
 2910SOL    HW2 9627   0.000   3.079  12.156
 2911SOL     OW 9628   0.688   3.524  12.888
 2911SOL    HW1 9629   0.632   3.605  12.897
 2911SOL    HW2 9630   0.740   3.528  12.802
 2912SOL     OW 9631   1.388   3.435  11.649
 2912SOL    HW1 9632   1.455   3.447  11.575
 2912SOL    HW2 9633   1.348   3.524  11.672
 2913SOL     OW 9634   0.130   3.656  13.023
 2913SOL    HW1 9635   0.089   3.582  13.076
 2913SOL    HW2 9636   0.194   3.707  13.081
 2914SOL     OW 9637   1.280   2.789  11.844
 2914SOL    HW1 9638   1.340   2.708  11.846
 2914SOL    HW2 9639   1.320   2.858  11.784
 2915SOL     OW 9640   0.830   3.135  12.594
 2915SOL    HW1 9641   0.825   3.168  12.689
 2915SOL    HW2 9642   0.744   3.154  12.548
 2916SOL     OW 9643   0.672   3.478  11.326
 2916SOL    HW1 9644   0.681   3.488  11.227
 2916SOL    HW2 9645   0.632   3.389  11.347
 2917SOL     OW 9646   1.650   3.582  12.566
 2917SOL    HW1 9647   1.703   3.592  12.482
 2917SOL    HW2 9648   1.623   3.672  12.600
 2918SOL     OW 9649   0.263   2.188  11.892
 2918SOL    HW1 9650   0.184   2.239  11.858
 2918SOL    HW2 9651   0.254   2.173  11.990
 2919SOL     OW 9652   1.194   3.474  11.203
 2919SOL    HW1 9653   1.200   3.381  11.240
 2919SOL    HW2 9654   1.135   3.474  11.123
 2920SOL     OW 9655   0.822   2.864  12.544
 2920SOL    HW1 9656   0.862   2.863  12.452
 2920SOL    HW2 9657   0.832   2.956  12.584
 2921SOL     OW 9658   0.916   2.772  11.463
 2921SOL    HW1 9659   0.979   2.810  11.395
 2921SOL    HW2 9660   0.956   2.689  11.502
 2922SOL     OW 9661   1.504   3.469  11.216
 2922SOL    HW1 9662   1.412   3.506  11.223
 2922SOL    HW2 9663   1.542   3.489  11.126
 2923SOL     OW 9664   0.372   3.150  12.662
 2923SOL    HW1 9665   0.359   3.243  12.628
 2923SOL    HW2 9666   0.288   3.098  12.649
 2924SOL     OW 9667   1.614   3.154  12.461
 2924SOL    HW1 9668   1.674   3.157  12.541
 2924SOL    HW2 9669   1.539   3.218  12.474
 2925SOL     OW 9670   1.039   2.960  11.868
 2925SOL    HW1 9671   0.969   2.913  11.922
 2925SOL    HW2 9672   1.098   2.892  11.825
 2926SOL     OW 9673   1.014   2.098  12.143
 2926SOL    HW1 9674   1.006   2.062  12.050
 2926SOL    HW2 9675   1.012   2.022  12.208
 2927SOL     OW 9676   0.590   3.349  11.663
 2927SOL    HW1 9677   0.632   3.291  11.593
 2927SOL    HW2 9678   0.546   3.428  11.619
 2928SOL     OW 9679   1.709   2.247  12.553
 2928SOL    HW1 9680   1.782   2.316  12.557
 2928SOL    HW2 9681   1.737   2.172  12.494
 2929SOL     OW 9682   0.255   3.210  11.462
 2929SOL    HW1 9683   0.159   3.211  11.435
 2929SOL    HW2 9684   0.267   3.263  11.546
 2930SOL     OW 9685   0.105   2.875  12.898
 2930SOL    HW1 9686   0.028   2.842  12.952
 2930SOL    HW2 9687   0.190   2.845  12.940
 2931SOL     OW 9688   0.672   2.065  12.661
 2931SOL    HW1 9689   0.762   2.049  12.621
 2931SOL    HW2 9690   0.680   2.070  12.760
 2932SOL     OW 9691   0.075   2.207  11.205
 2932SOL    HW1 9692  -0.017   2.179  11.176
 2932SOL    HW2 9693   0.106   2.284  11.149
 2933SOL     OW 9694   1.440   2.718  12.570
 2933SOL    HW1 9695   1.383   2.770  12.507
 2933SOL    HW2 9696   1.536   2.730  12.546
 2934SOL     OW 9697   0.072   2.028  11.490
 2934SOL    HW1 9698   0.055   2.111  11.436
 2934SOL    HW2 9699   0.162   1.991  11.468
 2935SOL     OW 9700   1.183   3.197  11.291
 2935SOL    HW1 9701   1.084   3.186  11.293
 2935SOL    HW2 9702   1.217   3.212  11.384
 2936SOL     OW 9703   0.613   2.704  12.603
 2936SOL    HW1 9704   0.669   2.785  12.586
 2936SOL    HW2 9705   0.672   2.624  12.606
 2937SOL     OW 9706   1.493   3.629  12.131
 2937SOL    HW1 9707   1.526   3.693  12.062
 2937SOL    HW2 9708   1.559   3.623  12.206
 2938SOL     OW 9709   0.716   2.427  12.880
 2938SOL    HW1 9710   0.735   2.492  12.954
 2938SOL    HW2 9711   0.776   2.347  12.889
 2939SOL     OW 9712   1.450   3.082  12.805
 2939SOL    HW1 9713   1.441   3.072  12.904
 2939SOL    HW2 9714   1.546   3.075  12.779
 2940SOL     OW 9715   0.390   3.603  12.732
 2940SOL    HW1 9716   0.299   3.644  12.730
 2940SOL    HW2 9717   0.383   3.509  12.764
 2941SOL     OW 9718   1.674   2.745  12.426
 2941SOL    HW1 9719   1.647   2.656  12.389
 2941SOL    HW2 9720   1.675   2.813  12.353
 2942SOL     OW 9721   1.225   2.187  11.621
 2942SOL    HW1 9722   1.290   2.113  11.610
 2942SOL    HW2 9723   1.245   2.237  11.705
 2943SOL     OW 9724   0.594   2.607  11.824
 2943SOL    HW1 9725   0.644   2.692  11.805
 2943SOL    HW2 9726   0.506   2.609  11.776
 2944SOL     OW 9727   1.777   2.204  12.814
 2944SOL    HW1 9728   1.760   2.235  12.720
 2944SOL    HW2 9729   1.693   2.167  12.852
 2945SOL     OW 9730   1.730   2.796  12.689
 2945SOL    HW1 9731   1.768   2.887  12.704
 2945SOL    HW2 9732   1.722   2.779  12.590
 2946SOL     OW 9733   0.859   3.236  11.188
 2946SOL    HW1 9734   0.813   3.251  11.276
 2946SOL    HW2 9735   0.903   3.321  11.158
 2947SOL     OW 9736   0.661   3.652  12.125
 2947SOL    HW1 9737   0.615   3.740  12.112
 2947SOL    HW2 9738   0.760   3.664  12.118
 2948SOL     OW 9739   0.859   2.818  12.033
 2948SOL    HW1 9740   0.913   2.749  12.081
 2948SOL    HW2 9741   0.827   2.887  12.099
 2949SOL     OW 9742   1.083   2.846  11.259
 2949SOL    HW1 9743   1.060   2.899  11.177
 2949SOL    HW2 9744   1.164   2.790  11.240
 2950SOL     OW 9745   1.861   3.431  12.023
 2950SOL    HW1 9746   1.790   3.419  11.953
 2950SOL    HW2 9747   1.862   3.352  12.083
 2951SOL     OW 9748   0.221   3.176  13.016
 2951SOL    HW1 9749   0.156   3.103  12.995
 2951SOL    HW2 9750   0.225   3.190  13.114
 2952SOL     OW 9751   0.079   3.102  11.825
 2952SOL    HW1 9752   0.078   3.055  11.913
 2952SOL    HW2 9753   0.161   3.074  11.774
 2953SOL     OW 9754   0.672   3.253  12.796
 2953SOL    HW1 9755   0.594   3.203  12.834
 2953SOL    HW2 9756   0.669   3.348  12.827
 2954SOL     OW 9757   0.428   2.286  11.692
 2954SOL    HW1 9758   0.458   2.214  11.630
 2954SOL    HW2 9759   0.389   2.246  11.775
 2955SOL     OW 9760   1.705   3.349  12.276
 2955SOL    HW1 9761   1.612   3.324  12.249
 2955SOL    HW2 9762   1.731   3.299  12.358
 2956SOL     OW 9763   0.317   2.409  12.452
 2956SOL    HW1 9764   0.355   2.350  12.524
 2956SOL    HW2 9765   0.357   2.383  12.364
 2957SOL     OW 9766   0.812   3.448  11.859
 2957SOL    HW1 9767   0.844   3.458  11.765
 2957SOL    HW2 9768   0.733   3.386  11.861
 2958SOL     OW 9769   1.424   2.076  12.284
 2958SOL    HW1 9770   1.476   2.011  12.339
 2958SOL    HW2 9771   1.375   2.139  12.345
 2959SOL     OW 9772   1.001   1.896  12.326
 2959SOL    HW1 9773   0.938   1.824  12.295
 2959SOL    HW2 9774   1.094   1.860  12.326
 2960SOL     OW 9775   0.770   3.192  11.473
 2960SOL    HW1 9776   0.724   3.105  11.490
 2960SOL    HW2 9777   0.861   3.189  11.514
 2961SOL     OW 9778   0.618   3.429  12.456
 2961SOL    HW1 9779   0.613   3.511  12.513
 2961SOL    HW2 9780   0.707   3.426  12.411
 2962SOL     OW 9781   1.352   1.914  11.340
 2962SOL    HW1 9782   1.387   1.873  11.256
 2962SOL    HW2 9783   1.262   1.876  11.360
 2963SOL     OW 9784   1.300   2.315  11.863
 2963SOL    HW1 9785   1.241   2.395  11.867
 2963SOL    HW2 9786   1.315   2.280  11.956
 2964SOL     OW 9787   1.593   2.083  12.054
 2964SOL    HW1 9788   1.509   2.082  12.108
 2964SOL    HW2 9789   1.595   2.166  11.998
 2965SOL     OW 9790   0.039   2.939  11.472
 2965SOL    HW1 9791   0.138   2.928  11.463
 2965SOL    HW2 9792  -0.001   2.853  11.504
 2966SOL     OW 9793   0.875   3.508  11.509
 2966SOL    HW1 9794   0.798   3.473  11.455
 2966SOL    HW2 9795   0.843   3.579  11.571
 2967SOL     OW 9796   0.230   2.490  13.147
 2967SOL    HW1 9797   0.137   2.488  13.184
 2967SOL    HW2 9798   0.231   2.451  13.055
 2968SOL     OW 9799   0.225   2.137  14.030
 2968SOL    HW1 9800   0.260   2.120  14.122
 2968SOL    HW2 9801   0.137   2.092  14.018
 2969SOL     OW 9802   0.019   2.230  13.681
 2969SOL    HW1 9803  -0.063   2.273  13.720
 2969SOL    HW2 9804  -0.009   2.157  13.618
 2970SOL     OW 9805   1.555   3.373  13.737
 2970SOL    HW1 9806   1.498   3.357  13.818
 2970SOL    HW2 9807   1.496   3.383  13.657
 2971SOL     OW 9808   1.135   2.565  13.751
 2971SOL    HW1 9809   1.192   2.643  13.726
 2971SOL    HW2 9810   1.075   2.591  13.827
 2972SOL     OW 9811   1.755   2.469  13.265
 2972SOL    HW1 9812   1.743   2.456  13.166
 2972SOL    HW2 9813   1.725   2.388  13.314
 2973SOL     OW 9814   0.685   2.874  13.699
 2973SOL    HW1 9815   0.754   2.858  13.769
 2973SOL    HW2 9816   0.612   2.931  13.737
 2974SOL     OW 9817   1.603   2.309  13.771
 2974SOL    HW1 9818   1.529   2.355  13.721
 2974SOL    HW2 9819   1.654   2.377  13.824
 2975SOL     OW 9820   0.231   3.575  13.517
 2975SOL    HW1 9821   0.265   3.652  13.571
 2975SOL    HW2 9822   0.275   3.575  13.427
 2976SOL     OW 9823   0.230   3.296  13.572
 2976SOL    HW1 9824   0.204   3.392  13.572
 2976SOL    HW2 9825   0.159   3.242  13.617
 2977SOL     OW 9826   0.240   2.953  13.920
 2977SOL    HW1 9827   0.254   2.869  13.972
 2977SOL    HW2 9828   0.185   3.017  13.975
 2978SOL     OW 9829   0.606   2.826  13.157
 2978SOL    HW1 9830   0.613   2.910  13.103
 2978SOL    HW2 9831   0.652   2.839  13.245
 2979SOL     OW 9832   0.122   2.505  13.597
 2979SOL    HW1 9833   0.077   2.417  13.614
 2979SOL    HW2 9834   0.121   2.559  13.681
 2980SOL     OW 9835   1.842   3.629  13.393
 2980SOL    HW1 9836   1.896   3.600  13.473
 2980SOL    HW2 9837   1.872   3.719  13.364
 2981SOL     OW 9838   0.027   3.458  13.151
 2981SOL    HW1 9839   0.008   3.362  13.172
 2981SOL    HW2 9840  -0.006   3.516  13.226
 2982SOL     OW 9841   1.689   2.784  13.646
 2982SOL    HW1 9842   1.784   2.755  13.654
 2982SOL    HW2 9843   1.681   2.849  13.571
 2983SOL     OW 9844   1.641   2.970  13.466
 2983SOL    HW1 9845   1.727   2.972  13.414
 2983SOL    HW2 9846   1.655   3.017  13.554
 2984SOL     OW 9847   0.613   3.227  13.760
 2984SOL    HW1 9848   0.564   3.140  13.769
 2984SOL    HW2 9849   0.590   3.270  13.673
 2985SOL     OW 9850   0.809   1.866  13.536
 2985SOL    HW1 9851   0.849   1.957  13.527
 2985SOL    HW2 9852   0.709   1.874  13.542
 2986SOL     OW 9853   1.525   2.861  13.224
 2986SOL    HW1 9854   1.462   2.785  13.237
 2986SOL    HW2 9855   1.573   2.879  13.310
 2987SOL     OW 9856   1.667   3.576  13.606
 2987SOL    HW1 9857   1.626   3.553  13.518
 2987SOL    HW2 9858   1.649   3.502  13.671
 2988SOL     OW 9859   0.598   2.591  13.304
 2988SOL    HW1 9860   0.622   2.660  13.236
 2988SOL    HW2 9861   0.520   2.624  13.358
 2989SOL     OW 9862   1.281   2.207  13.978
 2989SOL    HW1 9863   1.195   2.157  13.965
 2989SOL    HW2 9864   1.343   2.153  14.034
 2990SOL     OW 9865   1.576   3.524  13.341
 2990SOL    HW1 9866   1.665   3.570  13.344
 2990SOL    HW2 9867   1.555   3.500  13.246
 2991SOL     OW 9868   1.041   2.563  13.463
 2991SOL    HW1 9869   1.067   2.559  13.559
 2991SOL    HW2 9870   0.956   2.512  13.449
 2992SOL     OW 9871   0.076   2.673  13.823
 2992SOL    HW1 9872   0.175   2.661  13.832
 2992SOL    HW2 9873   0.052   2.768  13.844
 2993SOL     OW 9874   0.865   2.210  13.229
 2993SOL    HW1 9875   0.924   2.273  13.180
 2993SOL    HW2 9876   0.884   2.116  13.200
 2994SOL     OW 9877   1.362   3.006  13.579
 2994SOL    HW1 9878   1.445   2.977  13.531
 2994SOL    HW2 9879   1.313   3.073  13.523
 2995SOL     OW 9880   1.008   3.318  13.511
 2995SOL    HW1 9881   0.962   3.390  13.459
 2995SOL    HW2 9882   1.004   3.338  13.609
 2996SOL     OW 9883   0.351   3.663  13.887
 2996SOL    HW1 9884   0.401   3.577  13.893
 2996SOL    HW2 9885   0.416   3.740  13.884
 2997SOL     OW 9886   1.795   2.928  13.907
 2997SOL    HW1 9887   1.733   2.913  13.831
 2997SOL    HW2 9888   1.743   2.939  13.992
 2998SOL     OW 9889   0.321   2.805  13.276
 2998SOL    HW1 9890   0.403   2.844  13.234
 2998SOL    HW2 9891   0.294   2.723  13.227
 2999SOL     OW 9892   1.458   2.597  13.762
 2999SOL    HW1 9893   1.453   2.532  13.837
 2999SOL    HW2 9894   1.538   2.656  13.775
 3000SOL     OW 9895   1.111   3.638  13.271
 3000SOL    HW1 9896   1.051   3.576  13.321
 3000SOL    HW2 9897   1.142   3.594  13.186
 3001SOL     OW 9898   1.632   3.239  13.115
 3001SOL    HW1 9899   1.600   3.333  13.105
 3001SOL    HW2 9900   1.556   3.176  13.103
 3002SOL     OW 9901   0.464   3.605  13.357
 3002SOL    HW1 9902   0.497   3.644  13.443
 3002SOL    HW2 9903   0.540   3.598  13.292
 3003SOL     OW 9904   1.400   1.969  13.460
 3003SOL    HW1 9905   1.376   1.932  13.370
 3003SOL    HW2 9906   1.499   1.985  13.464
 3004SOL     OW 9907   0.940   3.560  13.938
 3004SOL    HW1 9908   1.020   3.503  13.959
 3004SOL    HW2 9909   0.891   3.520  13.861
 3005SOL     OW 9910   0.382   2.562  13.514
 3005SOL    HW1 9911   0.427   2.472  13.511
 3005SOL    HW2 9912   0.288   2.551  13.547
 3006SOL     OW 9913   0.614   1.984  13.151
 3006SOL    HW1 9914   0.712   1.962  13.158
 3006SOL    HW2 9915   0.583   1.967  13.058
 3007SOL     OW 9916   0.539   1.926  13.546
 3007SOL    HW1 9917   0.458   1.927  13.604
 3007SOL    HW2 9918   0.542   2.009  13.491
 3008SOL     OW 9919   1.434   3.050  13.075
 3008SOL    HW1 9920   1.466   2.974  13.132
 3008SOL    HW2 9921   1.342   3.077  13.105
 3009SOL     OW 9922   0.297   1.897  13.205
 3009SOL    HW1 9923   0.346   1.981  13.184
 3009SOL    HW2 9924   0.359   1.832  13.250
 3010SOL     OW 9925   0.935   2.098  13.514
 3010SOL    HW1 9926   0.887   2.139  13.436
 3010SOL    HW2 9927   1.034   2.096  13.495
 3011SOL     OW 9928   0.459   3.014  13.775
 3011SOL    HW1 9929   0.388   2.987  13.840
 3011SOL    HW2 9930   0.433   2.986  13.682
 3012SOL     OW 9931   1.271   3.659  13.625
 3012SOL    HW1 9932   1.315   3.723  13.561
 3012SOL    HW2 9933   1.221   3.711  13.695
 3013SOL     OW 9934   1.032   2.411  13.050
 3013SOL    HW1 9935   0.991   2.493  13.011
 3013SOL    HW2 9936   1.096   2.437  13.123
 3014SOL     OW 9937   0.866   2.316  13.676
 3014SOL    HW1 9938   0.834   2.388  13.614
 3014SOL    HW2 9939   0.890   2.235  13.623
 3015SOL     OW 9940   1.017   1.901  13.787
 3015SOL    HW1 9941   0.945   1.906  13.718
 3015SOL    HW2 9942   0.993   1.832  13.856
 3016SOL     OW 9943   1.857   2.695  13.411
 3016SOL    HW1 9944   1.899   2.631  13.475
 3016SOL    HW2 9945   1.819   2.644  13.333
 3017SOL     OW 9946   0.488   3.247  13.208
 3017SOL    HW1 9947   0.401   3.232  13.255
 3017SOL    HW2 9948   0.471   3.273  13.113
 3018SOL     OW 9949   1.664   3.142  13.691
 3018SOL    HW1 9950   1.763   3.150  13.705
 3018SOL    HW2 9951   1.619   3.226  13.722
 3019SOL     OW 9952   1.390   2.437  13.112
 3019SOL    HW1 9953   1.336   2.416  13.193
 3019SOL    HW2 9954   1.481   2.396  13.121
 3020SOL     OW 9955   0.527   2.118  13.362
 3020SOL    HW1 9956   0.554   2.059  13.287
 3020SOL    HW2 9957   0.527   2.213  13.331
 3021SOL     OW 9958   0.705   2.912  13.402
 3021SOL    HW1 9959   0.691   2.919  13.501
 3021SOL    HW2 9960   0.789   2.861  13.384
 3022SOL     OW 9961   0.367   2.962  13.535
 3022SOL    HW1 9962   0.360   3.045  13.479
 3022SOL    HW2 9963   0.371   2.882  13.475
 3023SOL     OW 9964   0.566   2.399  13.899
 3023SOL    HW1 9965   0.578   2.465  13.825
 3023SOL    HW2 9966   0.612   2.433  13.982
 3024SOL     OW 9967   1.252   3.210  13.422
 3024SOL    HW1 9968   1.302   3.287  13.462
 3024SOL    HW2 9969   1.157   3.212  13.454
 3025SOL     OW 9970   1.582   2.501  13.506
 3025SOL    HW1 9971   1.551   2.562  13.579
 3025SOL    HW2 9972   1.632   2.553  13.437
 3026SOL     OW 9973   1.209   2.387  13.309
 3026SOL    HW1 9974   1.222   2.303  13.363
 3026SOL    HW2 9975   1.180   2.461  13.369
 3027SOL     OW 9976   0.307   1.925  13.652
 3027SOL    HW1 9977   0.296   2.019  13.685
 3027SOL    HW2 9978   0.302   1.862  13.729
 3028SOL     OW 9979   1.622   2.229  13.408
 3028SOL    HW1 9980   1.624   2.153  13.472
 3028SOL    HW2 9981   1.574   2.306  13.448
 3029SOL     OW 9982   1.540   2.136  13.159
 3029SOL    HW1 9983   1.479   2.061  13.182
 3029SOL    HW2 9984   1.562   2.188  13.242
 3030SOL     OW 9985   1.303   2.700  13.076
 3030SOL    HW1 9986   1.337   2.607  13.091
 3030SOL    HW2 9987   1.321   2.727  12.981
 3031SOL     OW 9988   0.008   3.188  13.234
 3031SOL    HW1 9989  -0.085   3.209  13.203
 3031SOL    HW2 9990   0.018   3.089  13.247
 3032SOL     OW 9991   0.815   2.434  13.359
 3032SOL    HW1 9992   0.822   2.345  13.313
 3032SOL    HW2 9993   0.721   2.468  13.351
 3033SOL     OW 9994   0.473   2.362  13.225
 3033SOL    HW1 9995   0.534   2.442  13.229
 3033SOL    HW2 9996   0.378   2.393  13.232
 3034SOL     OW 9997   1.302   2.717  13.343
 3034SOL    HW1 9998   1.216   2.686  13.385
 3034SOL    HW2 9999   1.298   2.703  13.244
 3035SOL     OW10000   1.388   3.435  13.511
 3035SOL    HW110001   1.455   3.447  13.437
 3035SOL    HW210002   1.348   3.524  13.534
 3036SOL     OW10003   1.280   2.789  13.706
 3036SOL    HW110004   1.340   2.708  13.708
 3036SOL    HW210005   1.320   2.858  13.646
 3037SOL     OW10006   0.672   3.478  13.188
 3037SOL    HW110007   0.681   3.488  13.089
 3037SOL    HW210008   0.632   3.389  13.209
 3038SOL     OW10009   0.263   2.188  13.754
 3038SOL    HW110010   0.184   2.239  13.720
 3038SOL    HW210011   0.254   2.173  13.852
 3039SOL     OW10012   1.194   3.474  13.065
 3039SOL    HW110013   1.200   3.381  13.102
 3039SOL    HW210014   1.135   3.474  12.985
 3040SOL     OW10015   0.916   2.772  13.325
 3040SOL    HW110016   0.979   2.810  13.257
 3040SOL    HW210017   0.956   2.689  13.364
 3041SOL     OW10018   1.504   3.469  13.078
 3041SOL    HW110019   1.412   3.506  13.085
 3041SOL    HW210020   1.542   3.489  12.988
 3042SOL     OW10021   1.039   2.960  13.730
 3042SOL    HW110022   0.969   2.913  13.784
 3042SOL    HW210023   1.098   2.892  13.687
 3043SOL     OW10024   0.590   3.349  13.525
 3043SOL    HW110025   0.632   3.291  13.455
 3043SOL    HW210026   0.546   3.428  13.481
 3044SOL     OW10027   0.255   3.210  13.324
 3044SOL    HW110028   0.159   3.211  13.297
 3044SOL    HW210029   0.267   3.263  13.408
 3045SOL     OW10030   0.075   2.207  13.067
 3045SOL    HW110031  -0.017   2.179  13.038
 3045SOL    HW210032   0.106   2.284  13.011
 3046SOL     OW10033   0.072   2.028  13.352
 3046SOL    HW110034   0.055   2.111  13.298
 3046SOL    HW210035   0.162   1.991  13.330
 3047SOL     OW10036   1.183   3.197  13.153
 3047SOL    HW110037   1.084   3.186  13.155
 3047SOL    HW210038   1.217   3.212  13.246
 3048SOL     OW10039   1.225   2.187  13.483
 3048SOL    HW110040   1.290   2.113  13.472
 3048SOL    HW210041   1.245   2.237  13.567
 3049SOL     OW10042   0.594   2.607  13.686
 3049SOL    HW110043   0.644   2.692  13.667
 3049SOL    HW210044   0.506   2.609  13.638
 3050SOL     OW10045   0.859   3.236  13.050
 3050SOL    HW110046   0.813   3.251  13.138
 3050SOL    HW210047   0.903   3.321  13.020
 3051SOL     OW10048   0.661   3.652  13.987
 3051SOL    HW110049   0.615   3.740  13.974
 3051SOL    HW210050   0.760   3.664  13.980
 3052SOL     OW10051   0.859   2.818  13.895
 3052SOL    HW110052   0.913   2.749  13.943
 3052SOL    HW210053   0.827   2.887  13.961
 3053SOL     OW10054   1.083   2.846  13.121
 3053SOL    HW110055   1.060   2.899  13.039
 3053SOL    HW210056   1.164   2.790  13.102
 3054SOL     OW10057   0.079   3.102  13.687
 3054SOL    HW110058   0.078   3.055  13.775
 3054SOL    HW210059   0.161   3.074  13.636
 3055SOL     OW10060   0.428   2.286  13.554
 3055SOL    HW110061   0.458   2.214  13.492
 3055SOL    HW210062   0.389   2.246  13.637
 3056SOL     OW10063   1.705   3.349  14.138
 3056SOL    HW110064   1.612   3.324  14.111
 3056SOL    HW210065   1.731   3.299  14.220
 3057SOL     OW10066   0.812   3.448  13.721
 3057SOL    HW110067   0.844   3.458  13.627
 3057SOL    HW210068   0.733   3.386  13.723
 3058SOL     OW10069   0.770   3.192  13.335
 3058SOL    HW110070   0.724   3.105  13.352
 3058SOL    HW210071   0.861   3.189  13.376
 3059SOL     OW10072   1.352   1.914  13.202
 3059SOL    HW110073   1.387   1.873  13.118
 3059SOL    HW210074   1.262   1.876  13.222
 3060SOL     OW10075   1.300   2.315  13.725
 3060SOL    HW110076   1.241   2.395  13.729
 3060SOL    HW210077   1.315   2.280  13.818
 3061SOL     OW10078   0.039   2.939  13.334
 3061SOL    HW110079   0.138   2.928  13.325
 3061SOL    HW210080  -0.001   2.853  13.366
 3062SOL     OW10081   0.875   3.508  13.371
 3062SOL    HW110082   0.798   3.473  13.317
 3062SOL    HW210083   0.843   3.579  13.433
 3063SOL     OW10084   0.225   3.999   0.996
 3063SOL    HW110085   0.260   3.982   1.088
 3063SOL    HW210086   0.137   3.954   0.984
 3064SOL     OW10087   0.019   4.092   0.647
 3064SOL    HW110088  -0.063   4.135   0.686
 3064SOL    HW210089  -0.009   4.019   0.584
 3065SOL     OW10090   1.755   4.331   0.231
 3065SOL    HW110091   1.743   4.318   0.132
 3065SOL    HW210092   1.725   4.250   0.280
 3066SOL     OW10093   0.438   4.116   1.499
 3066SOL    HW110094   0.520   4.060   1.508
 3066SOL    HW210095   0.357   4.058   1.503
 3067SOL     OW10096   1.594   3.838   1.480
 3067SOL    HW110097   1.576   3.905   1.408
 3067SOL    HW210098   1.591   3.884   1.569
 3068SOL     OW10099   0.809   3.728   0.502
 3068SOL    HW110100   0.849   3.819   0.493
 3068SOL    HW210101   0.709   3.736   0.508
 3069SOL     OW10102   1.281   4.069   0.944
 3069SOL    HW110103   1.195   4.019   0.931
 3069SOL    HW210104   1.343   4.015   1.000
 3070SOL     OW10105   0.550   3.920   0.885
 3070SOL    HW110106   0.545   3.915   0.985
 3070SOL    HW210107   0.552   4.016   0.856
 3071SOL     OW10108   0.202   4.009   1.498
 3071SOL    HW110109   0.122   4.069   1.485
 3071SOL    HW210110   0.192   3.960   1.584
 3072SOL     OW10111   1.400   3.831   0.426
 3072SOL    HW110112   1.376   3.794   0.336
 3072SOL    HW210113   1.499   3.847   0.430
 3073SOL     OW10114   1.547   3.946   1.729
 3073SOL    HW110115   1.542   3.983   1.821
 3073SOL    HW210116   1.475   3.877   1.717
 3074SOL     OW10117   0.781   3.988   1.749
 3074SOL    HW110118   0.848   3.927   1.792
 3074SOL    HW210119   0.708   4.007   1.814
 3075SOL     OW10120   0.539   3.788   0.512
 3075SOL    HW110121   0.458   3.789   0.570
 3075SOL    HW210122   0.542   3.871   0.457
 3076SOL     OW10123   0.297   3.759   0.171
 3076SOL    HW110124   0.346   3.843   0.150
 3076SOL    HW210125   0.359   3.694   0.216
 3077SOL     OW10126   0.561   3.946   1.147
 3077SOL    HW110127   0.599   3.862   1.184
 3077SOL    HW210128   0.473   3.965   1.191
 3078SOL     OW10129   1.017   3.763   0.753
 3078SOL    HW110130   0.945   3.768   0.684
 3078SOL    HW210131   0.993   3.694   0.822
 3079SOL     OW10132   0.915   3.813   1.402
 3079SOL    HW110133   0.940   3.793   1.307
 3079SOL    HW210134   0.987   3.869   1.444
 3080SOL     OW10135   1.274   4.110   1.262
 3080SOL    HW110136   1.295   4.184   1.326
 3080SOL    HW210137   1.185   4.127   1.219
 3081SOL     OW10138   0.504   3.774   1.740
 3081SOL    HW110139   0.462   3.717   1.670
 3081SOL    HW210140   0.438   3.843   1.772
 3082SOL     OW10141   0.307   3.937   1.231
 3082SOL    HW110142   0.284   3.974   1.321
 3082SOL    HW210143   0.277   3.842   1.225
 3083SOL     OW10144   1.540   3.998   0.125
 3083SOL    HW110145   1.479   3.923   0.148
 3083SOL    HW210146   1.562   4.050   0.208
 3084SOL     OW10147   1.160   3.931   1.477
 3084SOL    HW110148   1.160   3.995   1.554
 3084SOL    HW210149   1.188   3.979   1.394
 3085SOL     OW10150   0.903   3.810   0.133
 3085SOL    HW110151   0.954   3.811   0.047
 3085SOL    HW210152   0.959   3.768   0.204
 3086SOL     OW10153   1.726   3.859   0.523
 3086SOL    HW110154   1.799   3.842   0.456
 3086SOL    HW210155   1.695   3.772   0.561
 3087SOL     OW10156   1.841   3.899   0.963
 3087SOL    HW110157   1.880   3.814   0.927
 3087SOL    HW210158   1.743   3.901   0.944
 3088SOL     OW10159   0.672   3.927   1.489
 3088SOL    HW110160   0.762   3.911   1.449
 3088SOL    HW210161   0.680   3.932   1.588
 3089SOL     OW10162   0.075   4.069   0.033
 3089SOL    HW110163  -0.017   4.041   0.004
 3089SOL    HW210164   0.106   4.146  -0.023
 3090SOL     OW10165   0.072   3.890   0.318
 3090SOL    HW110166   0.055   3.973   0.264
 3090SOL    HW210167   0.162   3.853   0.296
 3091SOL     OW10168   1.225   4.049   0.449
 3091SOL    HW110169   1.290   3.975   0.438
 3091SOL    HW210170   1.245   4.099   0.533
 3092SOL     OW10171   1.777   4.066   1.642
 3092SOL    HW110172   1.760   4.097   1.548
 3092SOL    HW210173   1.693   4.029   1.680
 3093SOL     OW10174   1.824   3.916   1.227
 3093SOL    HW110175   1.820   3.826   1.271
 3093SOL    HW210176   1.827   3.905   1.128
 3094SOL     OW10177   1.424   3.938   1.112
 3094SOL    HW110178   1.476   3.873   1.167
 3094SOL    HW210179   1.375   4.001   1.173
 3095SOL     OW10180   1.001   3.758   1.154
 3095SOL    HW110181   0.938   3.686   1.123
 3095SOL    HW210182   1.094   3.722   1.154
 3096SOL     OW10183   1.352   3.776   0.168
 3096SOL    HW110184   1.387   3.735   0.084
 3096SOL    HW210185   1.262   3.738   0.188
 3097SOL     OW10186   1.300   4.177   0.691
 3097SOL    HW110187   1.241   4.257   0.695
 3097SOL    HW210188   1.315   4.142   0.784
 3098SOL     OW10189   1.593   3.945   0.882
 3098SOL    HW110190   1.509   3.944   0.936
 3098SOL    HW210191   1.595   4.028   0.826
 3099SOL     OW10192   0.225   3.999   2.858
 3099SOL    HW110193   0.260   3.982   2.950
 3099SOL    HW210194   0.137   3.954   2.846
 3100SOL     OW10195   0.019   4.092   2.509
 3100SOL    HW110196  -0.063   4.135   2.548
 3100SOL    HW210197  -0.009   4.019   2.446
 3101SOL     OW10198   1.755   4.331   2.093
 3101SOL    HW110199   1.743   4.318   1.994
 3101SOL    HW210200   1.725   4.250   2.142
 3102SOL     OW10201   0.438   4.116   3.361
 3102SOL    HW110202   0.520   4.060   3.370
 3102SOL    HW210203   0.357   4.058   3.365
 3103SOL     OW10204   1.594   3.838   3.342
 3103SOL    HW110205   1.576   3.905   3.270
 3103SOL    HW210206   1.591   3.884   3.431
 3104SOL     OW10207   0.809   3.728   2.364
 3104SOL    HW110208   0.849   3.819   2.355
 3104SOL    HW210209   0.709   3.736   2.370
 3105SOL     OW10210   1.281   4.069   2.806
 3105SOL    HW110211   1.195   4.019   2.793
 3105SOL    HW210212   1.343   4.015   2.862
 3106SOL     OW10213   0.550   3.920   2.747
 3106SOL    HW110214   0.545   3.915   2.847
 3106SOL    HW210215   0.552   4.016   2.718
 3107SOL     OW10216   0.202   4.009   3.360
 3107SOL    HW110217   0.122   4.069   3.347
 3107SOL    HW210218   0.192   3.960   3.446
 3108SOL     OW10219   1.400   3.831   2.288
 3108SOL    HW110220   1.376   3.794   2.198
 3108SOL    HW210221   1.499   3.847   2.292
 3109SOL     OW10222   1.547   3.946   3.591
 3109SOL    HW110223   1.542   3.983   3.683
 3109SOL    HW210224   1.475   3.877   3.579
 3110SOL     OW10225   0.614   3.846   1.979
 3110SOL    HW110226   0.712   3.824   1.986
 3110SOL    HW210227   0.583   3.829   1.886
 3111SOL     OW10228   0.781   3.988   3.611
 3111SOL    HW110229   0.848   3.927   3.654
 3111SOL    HW210230   0.708   4.007   3.676
 3112SOL     OW10231   0.539   3.788   2.374
 3112SOL    HW110232   0.458   3.789   2.432
 3112SOL    HW210233   0.542   3.871   2.319
 3113SOL     OW10234   0.297   3.759   2.033
 3113SOL    HW110235   0.346   3.843   2.012
 3113SOL    HW210236   0.359   3.694   2.078
 3114SOL     OW10237   0.561   3.946   3.009
 3114SOL    HW110238   0.599   3.862   3.046
 3114SOL    HW210239   0.473   3.965   3.053
 3115SOL     OW10240   1.017   3.763   2.615
 3115SOL    HW110241   0.945   3.768   2.546
 3115SOL    HW210242   0.993   3.694   2.684
 3116SOL     OW10243   0.915   3.813   3.264
 3116SOL    HW110244   0.940   3.793   3.169
 3116SOL    HW210245   0.987   3.869   3.306
 3117SOL     OW10246   1.274   4.110   3.124
 3117SOL    HW110247   1.295   4.184   3.188
 3117SOL    HW210248   1.185   4.127   3.081
 3118SOL     OW10249   0.504   3.774   3.602
 3118SOL    HW110250   0.462   3.717   3.532
 3118SOL    HW210251   0.438   3.843   3.634
 3119SOL     OW10252   0.307   3.937   3.093
 3119SOL    HW110253   0.284   3.974   3.183
 3119SOL    HW210254   0.277   3.842   3.087
 3120SOL     OW10255   1.540   3.998   1.987
 3120SOL    HW110256   1.479   3.923   2.010
 3120SOL    HW210257   1.562   4.050   2.070
 3121SOL     OW10258   1.160   3.931   3.339
 3121SOL    HW110259   1.160   3.995   3.416
 3121SOL    HW210260   1.188   3.979   3.256
 3122SOL     OW10261   0.903   3.810   1.995
 3122SOL    HW110262   0.954   3.811   1.909
 3122SOL    HW210263   0.959   3.768   2.066
 3123SOL     OW10264   1.726   3.859   2.385
 3123SOL    HW110265   1.799   3.842   2.318
 3123SOL    HW210266   1.695   3.772   2.423
 3124SOL     OW10267   1.841   3.899   2.825
 3124SOL    HW110268   1.880   3.814   2.789
 3124SOL    HW210269   1.743   3.901   2.806
 3125SOL     OW10270   0.672   3.927   3.351
 3125SOL    HW110271   0.762   3.911   3.311
 3125SOL    HW210272   0.680   3.932   3.450
 3126SOL     OW10273   0.075   4.069   1.895
 3126SOL    HW110274  -0.017   4.041   1.866
 3126SOL    HW210275   0.106   4.146   1.839
 3127SOL     OW10276   0.072   3.890   2.180
 3127SOL    HW110277   0.055   3.973   2.126
 3127SOL    HW210278   0.162   3.853   2.158
 3128SOL     OW10279   1.225   4.049   2.311
 3128SOL    HW110280   1.290   3.975   2.300
 3128SOL    HW210281   1.245   4.099   2.395
 3129SOL     OW10282   1.777   4.066   3.504
 3129SOL    HW110283   1.760   4.097   3.410
 3129SOL    HW210284   1.693   4.029   3.542
 3130SOL     OW10285   1.824   3.916   3.089
 3130SOL    HW110286   1.820   3.826   3.133
 3130SOL    HW210287   1.827   3.905   2.990
 3131SOL     OW10288   1.424   3.938   2.974
 3131SOL    HW110289   1.476   3.873   3.029
 3131SOL    HW210290   1.375   4.001   3.035
 3132SOL     OW10291   1.001   3.758   3.016
 3132SOL    HW110292   0.938   3.686   2.985
 3132SOL    HW210293   1.094   3.722   3.016
 3133SOL     OW10294   1.352   3.776   2.030
 3133SOL    HW110295   1.387   3.735   1.946
 3133SOL    HW210296   1.262   3.738   2.050
 3134SOL     OW10297   1.300   4.177   2.553
 3134SOL    HW110298   1.241   4.257   2.557
 3134SOL    HW210299   1.315   4.142   2.646
 3135SOL     OW10300   1.593   3.945   2.744
 3135SOL    HW110301   1.509   3.944   2.798
 3135SOL    HW210302   1.595   4.028   2.688
 3136SOL     OW10303   0.225   3.999   4.720
 3136SOL    HW110304   0.260   3.982   4.812
 3136SOL    HW210305   0.137   3.954   4.708
 3137SOL     OW10306   0.019   4.092   4.371
 3137SOL    HW110307  -0.063   4.135   4.410
 3137SOL    HW210308  -0.009   4.019   4.308
 3138SOL     OW10309   1.755   4.331   3.955
 3138SOL    HW110310   1.743   4.318   3.856
 3138SOL    HW210311   1.725   4.250   4.004
 3139SOL     OW10312   0.438   4.116   5.223
 3139SOL    HW110313   0.520   4.060   5.232
 3139SOL    HW210314   0.357   4.058   5.227
 3140SOL     OW10315   1.594   3.838   5.204
 3140SOL    HW110316   1.576   3.905   5.132
 3140SOL    HW210317   1.591   3.884   5.293
 3141SOL     OW10318   0.809   3.728   4.226
 3141SOL    HW110319   0.849   3.819   4.217
 3141SOL    HW210320   0.709   3.736   4.232
 3142SOL     OW10321   1.281   4.069   4.668
 3142SOL    HW110322   1.195   4.019   4.655
 3142SOL    HW210323   1.343   4.015   4.724
 3143SOL     OW10324   0.550   3.920   4.609
 3143SOL    HW110325   0.545   3.915   4.709
 3143SOL    HW210326   0.552   4.016   4.580
 3144SOL     OW10327   0.202   4.009   5.222
 3144SOL    HW110328   0.122   4.069   5.209
 3144SOL    HW210329   0.192   3.960   5.308
 3145SOL     OW10330   1.400   3.831   4.150
 3145SOL    HW110331   1.376   3.794   4.060
 3145SOL    HW210332   1.499   3.847   4.154
 3146SOL     OW10333   1.547   3.946   5.453
 3146SOL    HW110334   1.542   3.983   5.545
 3146SOL    HW210335   1.475   3.877   5.441
 3147SOL     OW10336   0.614   3.846   3.841
 3147SOL    HW110337   0.712   3.824   3.848
 3147SOL    HW210338   0.583   3.829   3.748
 3148SOL     OW10339   0.781   3.988   5.473
 3148SOL    HW110340   0.848   3.927   5.516
 3148SOL    HW210341   0.708   4.007   5.538
 3149SOL     OW10342   0.539   3.788   4.236
 3149SOL    HW110343   0.458   3.789   4.294
 3149SOL    HW210344   0.542   3.871   4.181
 3150SOL     OW10345   0.297   3.759   3.895
 3150SOL    HW110346   0.346   3.843   3.874
 3150SOL    HW210347   0.359   3.694   3.940
 3151SOL     OW10348   0.561   3.946   4.871
 3151SOL    HW110349   0.599   3.862   4.908
 3151SOL    HW210350   0.473   3.965   4.915
 3152SOL     OW10351   1.017   3.763   4.477
 3152SOL    HW110352   0.945   3.768   4.408
 3152SOL    HW210353   0.993   3.694   4.546
 3153SOL     OW10354   0.915   3.813   5.126
 3153SOL    HW110355   0.940   3.793   5.031
 3153SOL    HW210356   0.987   3.869   5.168
 3154SOL     OW10357   1.274   4.110   4.986
 3154SOL    HW110358   1.295   4.184   5.050
 3154SOL    HW210359   1.185   4.127   4.943
 3155SOL     OW10360   0.504   3.774   5.464
 3155SOL    HW110361   0.462   3.717   5.394
 3155SOL    HW210362   0.438   3.843   5.496
 3156SOL     OW10363   0.307   3.937   4.955
 3156SOL    HW110364   0.284   3.974   5.045
 3156SOL    HW210365   0.277   3.842   4.949
 3157SOL     OW10366   1.540   3.998   3.849
 3157SOL    HW110367   1.479   3.923   3.872
 3157SOL    HW210368   1.562   4.050   3.932
 3158SOL     OW10369   1.160   3.931   5.201
 3158SOL    HW110370   1.160   3.995   5.278
 3158SOL    HW210371   1.188   3.979   5.118
 3159SOL     OW10372   0.903   3.810   3.857
 3159SOL    HW110373   0.954   3.811   3.771
 3159SOL    HW210374   0.959   3.768   3.928
 3160SOL     OW10375   1.726   3.859   4.247
 3160SOL    HW110376   1.799   3.842   4.180
 3160SOL    HW210377   1.695   3.772   4.285
 3161SOL     OW10378   1.841   3.899   4.687
 3161SOL    HW110379   1.880   3.814   4.651
 3161SOL    HW210380   1.743   3.901   4.668
 3162SOL     OW10381   0.672   3.927   5.213
 3162SOL    HW110382   0.762   3.911   5.173
 3162SOL    HW210383   0.680   3.932   5.312
 3163SOL     OW10384   0.075   4.069   3.757
 3163SOL    HW110385  -0.017   4.041   3.728
 3163SOL    HW210386   0.106   4.146   3.701
 3164SOL     OW10387   0.072   3.890   4.042
 3164SOL    HW110388   0.055   3.973   3.988
 3164SOL    HW210389   0.162   3.853   4.020
 3165SOL     OW10390   1.225   4.049   4.173
 3165SOL    HW110391   1.290   3.975   4.162
 3165SOL    HW210392   1.245   4.099   4.257
 3166SOL     OW10393   1.777   4.066   5.366
 3166SOL    HW110394   1.760   4.097   5.272
 3166SOL    HW210395   1.693   4.029   5.404
 3167SOL     OW10396   1.824   3.916   4.951
 3167SOL    HW110397   1.820   3.826   4.995
 3167SOL    HW210398   1.827   3.905   4.852
 3168SOL     OW10399   1.424   3.938   4.836
 3168SOL    HW110400   1.476   3.873   4.891
 3168SOL    HW210401   1.375   4.001   4.897
 3169SOL     OW10402   1.001   3.758   4.878
 3169SOL    HW110403   0.938   3.686   4.847
 3169SOL    HW210404   1.094   3.722   4.878
 3170SOL     OW10405   1.352   3.776   3.892
 3170SOL    HW110406   1.387   3.735   3.808
 3170SOL    HW210407   1.262   3.738   3.912
 3171SOL     OW10408   1.300   4.177   4.415
 3171SOL    HW110409   1.241   4.257   4.419
 3171SOL    HW210410   1.315   4.142   4.508
 3172SOL     OW10411   1.593   3.945   4.606
 3172SOL    HW110412   1.509   3.944   4.660
 3172SOL    HW210413   1.595   4.028   4.550
 3173SOL     OW10414   0.225   3.999   6.582
 3173SOL    HW110415   0.260   3.982   6.674
 3173SOL    HW210416   0.137   3.954   6.570
 3174SOL     OW10417   0.019   4.092   6.233
 3174SOL    HW110418  -0.063   4.135   6.272
 3174SOL    HW210419  -0.009   4.019   6.170
 3175SOL     OW10420   1.755   4.331   5.817
 3175SOL    HW110421   1.743   4.318   5.718
 3175SOL    HW210422   1.725   4.250   5.866
 3176SOL     OW10423   0.438   4.116   7.085
 3176SOL    HW110424   0.520   4.060   7.094
 3176SOL    HW210425   0.357   4.058   7.089
 3177SOL     OW10426   1.594   3.838   7.066
 3177SOL    HW110427   1.576   3.905   6.994
 3177SOL    HW210428   1.591   3.884   7.155
 3178SOL     OW10429   0.809   3.728   6.088
 3178SOL    HW110430   0.849   3.819   6.079
 3178SOL    HW210431   0.709   3.736   6.094
 3179SOL     OW10432   1.281   4.069   6.530
 3179SOL    HW110433   1.195   4.019   6.517
 3179SOL    HW210434   1.343   4.015   6.586
 3180SOL     OW10435   0.550   3.920   6.471
 3180SOL    HW110436   0.545   3.915   6.571
 3180SOL    HW210437   0.552   4.016   6.442
 3181SOL     OW10438   0.202   4.009   7.084
 3181SOL    HW110439   0.122   4.069   7.071
 3181SOL    HW210440   0.192   3.960   7.170
 3182SOL     OW10441   1.400   3.831   6.012
 3182SOL    HW110442   1.376   3.794   5.922
 3182SOL    HW210443   1.499   3.847   6.016
 3183SOL     OW10444   1.547   3.946   7.315
 3183SOL    HW110445   1.542   3.983   7.407
 3183SOL    HW210446   1.475   3.877   7.303
 3184SOL     OW10447   0.614   3.846   5.703
 3184SOL    HW110448   0.712   3.824   5.710
 3184SOL    HW210449   0.583   3.829   5.610
 3185SOL     OW10450   0.781   3.988   7.335
 3185SOL    HW110451   0.848   3.927   7.378
 3185SOL    HW210452   0.708   4.007   7.400
 3186SOL     OW10453   0.539   3.788   6.098
 3186SOL    HW110454   0.458   3.789   6.156
 3186SOL    HW210455   0.542   3.871   6.043
 3187SOL     OW10456   0.297   3.759   5.757
 3187SOL    HW110457   0.346   3.843   5.736
 3187SOL    HW210458   0.359   3.694   5.802
 3188SOL     OW10459   0.561   3.946   6.733
 3188SOL    HW110460   0.599   3.862   6.770
 3188SOL    HW210461   0.473   3.965   6.777
 3189SOL     OW10462   1.017   3.763   6.339
 3189SOL    HW110463   0.945   3.768   6.270
 3189SOL    HW210464   0.993   3.694   6.408
 3190SOL     OW10465   0.915   3.813   6.988
 3190SOL    HW110466   0.940   3.793   6.893
 3190SOL    HW210467   0.987   3.869   7.030
 3191SOL     OW10468   1.274   4.110   6.848
 3191SOL    HW110469   1.295   4.184   6.912
 3191SOL    HW210470   1.185   4.127   6.805
 3192SOL     OW10471   0.504   3.774   7.326
 3192SOL    HW110472   0.462   3.717   7.256
 3192SOL    HW210473   0.438   3.843   7.358
 3193SOL     OW10474   0.307   3.937   6.817
 3193SOL    HW110475   0.284   3.974   6.907
 3193SOL    HW210476   0.277   3.842   6.811
 3194SOL     OW10477   1.540   3.998   5.711
 3194SOL    HW110478   1.479   3.923   5.734
 3194SOL    HW210479   1.562   4.050   5.794
 3195SOL     OW10480   1.160   3.931   7.063
 3195SOL    HW110481   1.160   3.995   7.140
 3195SOL    HW210482   1.188   3.979   6.980
 3196SOL     OW10483   0.903   3.810   5.719
 3196SOL    HW110484   0.954   3.811   5.633
 3196SOL    HW210485   0.959   3.768   5.790
 3197SOL     OW10486   1.726   3.859   6.109
 3197SOL    HW110487   1.799   3.842   6.042
 3197SOL    HW210488   1.695   3.772   6.147
 3198SOL     OW10489   1.841   3.899   6.549
 3198SOL    HW110490   1.880   3.814   6.513
 3198SOL    HW210491   1.743   3.901   6.530
 3199SOL     OW10492   0.672   3.927   7.075
 3199SOL    HW110493   0.762   3.911   7.035
 3199SOL    HW210494   0.680   3.932   7.174
 3200SOL     OW10495   0.075   4.069   5.619
 3200SOL    HW110496  -0.017   4.041   5.590
 3200SOL    HW210497   0.106   4.146   5.563
 3201SOL     OW10498   0.072   3.890   5.904
 3201SOL    HW110499   0.055   3.973   5.850
 3201SOL    HW210500   0.162   3.853   5.882
 3202SOL     OW10501   1.225   4.049   6.035
 3202SOL    HW110502   1.290   3.975   6.024
 3202SOL    HW210503   1.245   4.099   6.119
 3203SOL     OW10504   1.777   4.066   7.228
 3203SOL    HW110505   1.760   4.097   7.134
 3203SOL    HW210506   1.693   4.029   7.266
 3204SOL     OW10507   1.824   3.916   6.813
 3204SOL    HW110508   1.820   3.826   6.857
 3204SOL    HW210509   1.827   3.905   6.714
 3205SOL     OW10510   1.424   3.938   6.698
 3205SOL    HW110511   1.476   3.873   6.753
 3205SOL    HW210512   1.375   4.001   6.759
 3206SOL     OW10513   1.001   3.758   6.740
 3206SOL    HW110514   0.938   3.686   6.709
 3206SOL    HW210515   1.094   3.722   6.740
 3207SOL     OW10516   1.352   3.776   5.754
 3207SOL    HW110517   1.387   3.735   5.670
 3207SOL    HW210518   1.262   3.738   5.774
 3208SOL     OW10519   1.300   4.177   6.277
 3208SOL    HW110520   1.241   4.257   6.281
 3208SOL    HW210521   1.315   4.142   6.370
 3209SOL     OW10522   1.593   3.945   6.468
 3209SOL    HW110523   1.509   3.944   6.522
 3209SOL    HW210524   1.595   4.028   6.412
 3210SOL     OW10525   0.225   3.999   8.444
 3210SOL    HW110526   0.260   3.982   8.536
 3210SOL    HW210527   0.137   3.954   8.432
 3211SOL     OW10528   0.019   4.092   8.095
 3211SOL    HW110529  -0.063   4.135   8.134
 3211SOL    HW210530  -0.009   4.019   8.032
 3212SOL     OW10531   1.755   4.331   7.679
 3212SOL    HW110532   1.743   4.318   7.580
 3212SOL    HW210533   1.725   4.250   7.728
 3213SOL     OW10534   0.438   4.116   8.947
 3213SOL    HW110535   0.520   4.060   8.956
 3213SOL    HW210536   0.357   4.058   8.951
 3214SOL     OW10537   1.594   3.838   8.928
 3214SOL    HW110538   1.576   3.905   8.856
 3214SOL    HW210539   1.591   3.884   9.017
 3215SOL     OW10540   0.809   3.728   7.950
 3215SOL    HW110541   0.849   3.819   7.941
 3215SOL    HW210542   0.709   3.736   7.956
 3216SOL     OW10543   1.281   4.069   8.392
 3216SOL    HW110544   1.195   4.019   8.379
 3216SOL    HW210545   1.343   4.015   8.448
 3217SOL     OW10546   0.550   3.920   8.333
 3217SOL    HW110547   0.545   3.915   8.433
 3217SOL    HW210548   0.552   4.016   8.304
 3218SOL     OW10549   0.202   4.009   8.946
 3218SOL    HW110550   0.122   4.069   8.933
 3218SOL    HW210551   0.192   3.960   9.032
 3219SOL     OW10552   1.400   3.831   7.874
 3219SOL    HW110553   1.376   3.794   7.784
 3219SOL    HW210554   1.499   3.847   7.878
 3220SOL     OW10555   1.547   3.946   9.177
 3220SOL    HW110556   1.542   3.983   9.269
 3220SOL    HW210557   1.475   3.877   9.165
 3221SOL     OW10558   0.614   3.846   7.565
 3221SOL    HW110559   0.712   3.824   7.572
 3221SOL    HW210560   0.583   3.829   7.472
 3222SOL     OW10561   0.781   3.988   9.197
 3222SOL    HW110562   0.848   3.927   9.240
 3222SOL    HW210563   0.708   4.007   9.262
 3223SOL     OW10564   0.539   3.788   7.960
 3223SOL    HW110565   0.458   3.789   8.018
 3223SOL    HW210566   0.542   3.871   7.905
 3224SOL     OW10567   0.297   3.759   7.619
 3224SOL    HW110568   0.346   3.843   7.598
 3224SOL    HW210569   0.359   3.694   7.664
 3225SOL     OW10570   0.561   3.946   8.595
 3225SOL    HW110571   0.599   3.862   8.632
 3225SOL    HW210572   0.473   3.965   8.639
 3226SOL     OW10573   1.017   3.763   8.201
 3226SOL    HW110574   0.945   3.768   8.132
 3226SOL    HW210575   0.993   3.694   8.270
 3227SOL     OW10576   0.915   3.813   8.850
 3227SOL    HW110577   0.940   3.793   8.755
 3227SOL    HW210578   0.987   3.869   8.892
 3228SOL     OW10579   1.274   4.110   8.710
 3228SOL    HW110580   1.295   4.184   8.774
 3228SOL    HW210581   1.185   4.127   8.667
 3229SOL     OW10582   0.504   3.774   9.188
 3229SOL    HW110583   0.462   3.717   9.118
 3229SOL    HW210584   0.438   3.843   9.220
 3230SOL     OW10585   0.307   3.937   8.679
 3230SOL    HW110586   0.284   3.974   8.769
 3230SOL    HW210587   0.277   3.842   8.673
 3231SOL     OW10588   1.540   3.998   7.573
 3231SOL    HW110589   1.479   3.923   7.596
 3231SOL    HW210590   1.562   4.050   7.656
 3232SOL     OW10591   1.160   3.931   8.925
 3232SOL    HW110592   1.160   3.995   9.002
 3232SOL    HW210593   1.188   3.979   8.842
 3233SOL     OW10594   0.903   3.810   7.581
 3233SOL    HW110595   0.954   3.811   7.495
 3233SOL    HW210596   0.959   3.768   7.652
 3234SOL     OW10597   1.726   3.859   7.971
 3234SOL    HW110598   1.799   3.842   7.904
 3234SOL    HW210599   1.695   3.772   8.009
 3235SOL     OW10600   1.841   3.899   8.411
 3235SOL    HW110601   1.880   3.814   8.375
 3235SOL    HW210602   1.743   3.901   8.392
 3236SOL     OW10603   0.672   3.927   8.937
 3236SOL    HW110604   0.762   3.911   8.897
 3236SOL    HW210605   0.680   3.932   9.036
 3237SOL     OW10606   0.075   4.069   7.481
 3237SOL    HW110607  -0.017   4.041   7.452
 3237SOL    HW210608   0.106   4.146   7.425
 3238SOL     OW10609   0.072   3.890   7.766
 3238SOL    HW110610   0.055   3.973   7.712
 3238SOL    HW210611   0.162   3.853   7.744
 3239SOL     OW10612   1.225   4.049   7.897
 3239SOL    HW110613   1.290   3.975   7.886
 3239SOL    HW210614   1.245   4.099   7.981
 3240SOL     OW10615   1.777   4.066   9.090
 3240SOL    HW110616   1.760   4.097   8.996
 3240SOL    HW210617   1.693   4.029   9.128
 3241SOL     OW10618   1.824   3.916   8.675
 3241SOL    HW110619   1.820   3.826   8.719
 3241SOL    HW210620   1.827   3.905   8.576
 3242SOL     OW10621   1.424   3.938   8.560
 3242SOL    HW110622   1.476   3.873   8.615
 3242SOL    HW210623   1.375   4.001   8.621
 3243SOL     OW10624   1.001   3.758   8.602
 3243SOL    HW110625   0.938   3.686   8.571
 3243SOL    HW210626   1.094   3.722   8.602
 3244SOL     OW10627   1.352   3.776   7.616
 3244SOL    HW110628   1.387   3.735   7.532
 3244SOL    HW210629   1.262   3.738   7.636
 3245SOL     OW10630   1.300   4.177   8.139
 3245SOL    HW110631   1.241   4.257   8.143
 3245SOL    HW210632   1.315   4.142   8.232
 3246SOL     OW10633   1.593   3.945   8.330
 3246SOL    HW110634   1.509   3.944   8.384
 3246SOL    HW210635   1.595   4.028   8.274
 3247SOL     OW10636   0.225   3.999  10.306
 3247SOL    HW110637   0.260   3.982  10.398
 3247SOL    HW210638   0.137   3.954  10.294
 3248SOL     OW10639   0.019   4.092   9.957
 3248SOL    HW110640  -0.063   4.135   9.996
 3248SOL    HW210641  -0.009   4.019   9.894
 3249SOL     OW10642   1.755   4.331   9.541
 3249SOL    HW110643   1.743   4.318   9.442
 3249SOL    HW210644   1.725   4.250   9.590
 3250SOL     OW10645   0.438   4.116  10.809
 3250SOL    HW110646   0.520   4.060  10.818
 3250SOL    HW210647   0.357   4.058  10.813
 3251SOL     OW10648   1.594   3.838  10.790
 3251SOL    HW110649   1.576   3.905  10.718
 3251SOL    HW210650   1.591   3.884  10.879
 3252SOL     OW10651   0.809   3.728   9.812
 3252SOL    HW110652   0.849   3.819   9.803
 3252SOL    HW210653   0.709   3.736   9.818
 3253SOL     OW10654   1.281   4.069  10.254
 3253SOL    HW110655   1.195   4.019  10.241
 3253SOL    HW210656   1.343   4.015  10.310
 3254SOL     OW10657   0.550   3.920  10.195
 3254SOL    HW110658   0.545   3.915  10.295
 3254SOL    HW210659   0.552   4.016  10.166
 3255SOL     OW10660   0.202   4.009  10.808
 3255SOL    HW110661   0.122   4.069  10.795
 3255SOL    HW210662   0.192   3.960  10.894
 3256SOL     OW10663   1.400   3.831   9.736
 3256SOL    HW110664   1.376   3.794   9.646
 3256SOL    HW210665   1.499   3.847   9.740
 3257SOL     OW10666   1.547   3.946  11.039
 3257SOL    HW110667   1.542   3.983  11.131
 3257SOL    HW210668   1.475   3.877  11.027
 3258SOL     OW10669   0.614   3.846   9.427
 3258SOL    HW110670   0.712   3.824   9.434
 3258SOL    HW210671   0.583   3.829   9.334
 3259SOL     OW10672   0.781   3.988  11.059
 3259SOL    HW110673   0.848   3.927  11.102
 3259SOL    HW210674   0.708   4.007  11.124
 3260SOL     OW10675   0.539   3.788   9.822
 3260SOL    HW110676   0.458   3.789   9.880
 3260SOL    HW210677   0.542   3.871   9.767
 3261SOL     OW10678   0.297   3.759   9.481
 3261SOL    HW110679   0.346   3.843   9.460
 3261SOL    HW210680   0.359   3.694   9.526
 3262SOL     OW10681   0.561   3.946  10.457
 3262SOL    HW110682   0.599   3.862  10.494
 3262SOL    HW210683   0.473   3.965  10.501
 3263SOL     OW10684   1.017   3.763  10.063
 3263SOL    HW110685   0.945   3.768   9.994
 3263SOL    HW210686   0.993   3.694  10.132
 3264SOL     OW10687   0.915   3.813  10.712
 3264SOL    HW110688   0.940   3.793  10.617
 3264SOL    HW210689   0.987   3.869  10.754
 3265SOL     OW10690   1.274   4.110  10.572
 3265SOL    HW110691   1.295   4.184  10.636
 3265SOL    HW210692   1.185   4.127  10.529
 3266SOL     OW10693   0.504   3.774  11.050
 3266SOL    HW110694   0.462   3.717  10.980
 3266SOL    HW210695   0.438   3.843  11.082
 3267SOL     OW10696   0.307   3.937  10.541
 3267SOL    HW110697   0.284   3.974  10.631
 3267SOL    HW210698   0.277   3.842  10.535
 3268SOL     OW10699   1.540   3.998   9.435
 3268SOL    HW110700   1.479   3.923   9.458
 3268SOL    HW210701   1.562   4.050   9.518
 3269SOL     OW10702   1.160   3.931  10.787
 3269SOL    HW110703   1.160   3.995  10.864
 3269SOL    HW210704   1.188   3.979  10.704
 3270SOL     OW10705   0.903   3.810   9.443
 3270SOL    HW110706   0.954   3.811   9.357
 3270SOL    HW210707   0.959   3.768   9.514
 3271SOL     OW10708   1.726   3.859   9.833
 3271SOL    HW110709   1.799   3.842   9.766
 3271SOL    HW210710   1.695   3.772   9.871
 3272SOL     OW10711   1.841   3.899  10.273
 3272SOL    HW110712   1.880   3.814  10.237
 3272SOL    HW210713   1.743   3.901  10.254
 3273SOL     OW10714   0.672   3.927  10.799
 3273SOL    HW110715   0.762   3.911  10.759
 3273SOL    HW210716   0.680   3.932  10.898
 3274SOL     OW10717   0.075   4.069   9.343
 3274SOL    HW110718  -0.017   4.041   9.314
 3274SOL    HW210719   0.106   4.146   9.287
 3275SOL     OW10720   0.072   3.890   9.628
 3275SOL    HW110721   0.055   3.973   9.574
 3275SOL    HW210722   0.162   3.853   9.606
 3276SOL     OW10723   1.225   4.049   9.759
 3276SOL    HW110724   1.290   3.975   9.748
 3276SOL    HW210725   1.245   4.099   9.843
 3277SOL     OW10726   1.777   4.066  10.952
 3277SOL    HW110727   1.760   4.097  10.858
 3277SOL    HW210728   1.693   4.029  10.990
 3278SOL     OW10729   1.824   3.916  10.537
 3278SOL    HW110730   1.820   3.826  10.581
 3278SOL    HW210731   1.827   3.905  10.438
 3279SOL     OW10732   1.424   3.938  10.422
 3279SOL    HW110733   1.476   3.873  10.477
 3279SOL    HW210734   1.375   4.001  10.483
 3280SOL     OW10735   1.001   3.758  10.464
 3280SOL    HW110736   0.938   3.686  10.433
 3280SOL    HW210737   1.094   3.722  10.464
 3281SOL     OW10738   1.352   3.776   9.478
 3281SOL    HW110739   1.387   3.735   9.394
 3281SOL    HW210740   1.262   3.738   9.498
 3282SOL     OW10741   1.300   4.177  10.001
 3282SOL    HW110742   1.241   4.257  10.005
 3282SOL    HW210743   1.315   4.142  10.094
 3283SOL     OW10744   1.593   3.945  10.192
 3283SOL    HW110745   1.509   3.944  10.246
 3283SOL    HW210746   1.595   4.028  10.136
 3284SOL     OW10747   0.225   3.999  12.168
 3284SOL    HW110748   0.260   3.982  12.260
 3284SOL    HW210749   0.137   3.954  12.156
 3285SOL     OW10750   0.019   4.092  11.819
 3285SOL    HW110751  -0.063   4.135  11.858
 3285SOL    HW210752  -0.009   4.019  11.756
 3286SOL     OW10753   1.755   4.331  11.403
 3286SOL    HW110754   1.743   4.318  11.304
 3286SOL    HW210755   1.725   4.250  11.452
 3287SOL     OW10756   0.438   4.116  12.671
 3287SOL    HW110757   0.520   4.060  12.680
 3287SOL    HW210758   0.357   4.058  12.675
 3288SOL     OW10759   1.594   3.838  12.652
 3288SOL    HW110760   1.576   3.905  12.580
 3288SOL    HW210761   1.591   3.884  12.741
 3289SOL     OW10762   0.809   3.728  11.674
 3289SOL    HW110763   0.849   3.819  11.665
 3289SOL    HW210764   0.709   3.736  11.680
 3290SOL     OW10765   1.281   4.069  12.116
 3290SOL    HW110766   1.195   4.019  12.103
 3290SOL    HW210767   1.343   4.015  12.172
 3291SOL     OW10768   0.550   3.920  12.057
 3291SOL    HW110769   0.545   3.915  12.157
 3291SOL    HW210770   0.552   4.016  12.028
 3292SOL     OW10771   0.202   4.009  12.670
 3292SOL    HW110772   0.122   4.069  12.657
 3292SOL    HW210773   0.192   3.960  12.756
 3293SOL     OW10774   1.400   3.831  11.598
 3293SOL    HW110775   1.376   3.794  11.508
 3293SOL    HW210776   1.499   3.847  11.602
 3294SOL     OW10777   1.547   3.946  12.901
 3294SOL    HW110778   1.542   3.983  12.993
 3294SOL    HW210779   1.475   3.877  12.889
 3295SOL     OW10780   0.614   3.846  11.289
 3295SOL    HW110781   0.712   3.824  11.296
 3295SOL    HW210782   0.583   3.829  11.196
 3296SOL     OW10783   0.781   3.988  12.921
 3296SOL    HW110784   0.848   3.927  12.964
 3296SOL    HW210785   0.708   4.007  12.986
 3297SOL     OW10786   0.539   3.788  11.684
 3297SOL    HW110787   0.458   3.789  11.742
 3297SOL    HW210788   0.542   3.871  11.629
 3298SOL     OW10789   0.297   3.759  11.343
 3298SOL    HW110790   0.346   3.843  11.322
 3298SOL    HW210791   0.359   3.694  11.388
 3299SOL     OW10792   0.561   3.946  12.319
 3299SOL    HW110793   0.599   3.862  12.356
 3299SOL    HW210794   0.473   3.965  12.363
 3300SOL     OW10795   1.017   3.763  11.925
 3300SOL    HW110796   0.945   3.768  11.856
 3300SOL    HW210797   0.993   3.694  11.994
 3301SOL     OW10798   0.915   3.813  12.574
 3301SOL    HW110799   0.940   3.793  12.479
 3301SOL    HW210800   0.987   3.869  12.616
 3302SOL     OW10801   1.274   4.110  12.434
 3302SOL    HW110802   1.295   4.184  12.498
 3302SOL    HW210803   1.185   4.127  12.391
 3303SOL     OW10804   0.504   3.774  12.912
 3303SOL    HW110805   0.462   3.717  12.842
 3303SOL    HW210806   0.438   3.843  12.944
 3304SOL     OW10807   0.307   3.937  12.403
 3304SOL    HW110808   0.284   3.974  12.493
 3304SOL    HW210809   0.277   3.842  12.397
 3305SOL     OW10810   1.540   3.998  11.297
 3305SOL    HW110811   1.479   3.923  11.320
 3305SOL    HW210812   1.562   4.050  11.380
 3306SOL     OW10813   1.160   3.931  12.649
 3306SOL    HW110814   1.160   3.995  12.726
 3306SOL    HW210815   1.188   3.979  12.566
 3307SOL     OW10816   0.903   3.810  11.305
 3307SOL    HW110817   0.954   3.811  11.219
 3307SOL    HW210818   0.959   3.768  11.376
 3308SOL     OW10819   1.726   3.859  11.695
 3308SOL    HW110820   1.799   3.842  11.628
 3308SOL    HW210821   1.695   3.772  11.733
 3309SOL     OW10822   1.841   3.899  12.135
 3309SOL    HW110823   1.880   3.814  12.099
 3309SOL    HW210824   1.743   3.901  12.116
 3310SOL     OW10825   0.672   3.927  12.661
 3310SOL    HW110826   0.762   3.911  12.621
 3310SOL    HW210827   0.680   3.932  12.760
 3311SOL     OW10828   0.075   4.069  11.205
 3311SOL    HW110829  -0.017   4.041  11.176
 3311SOL    HW210830   0.106   4.146  11.149
 3312SOL     OW10831   0.072   3.890  11.490
 3312SOL    HW110832   0.055   3.973  11.436
 3312SOL    HW210833   0.162   3.853  11.468
 3313SOL     OW10834   1.225   4.049  11.621
 3313SOL    HW110835   1.290   3.975  11.610
 3313SOL    HW210836   1.245   4.099  11.705
 3314SOL     OW10837   1.777   4.066  12.814
 3314SOL    HW110838   1.760   4.097  12.720
 3314SOL    HW210839   1.693   4.029  12.852
 3315SOL     OW10840   1.824   3.916  12.399
 3315SOL    HW110841   1.820   3.826  12.443
 3315SOL    HW210842   1.827   3.905  12.300
 3316SOL     OW10843   1.424   3.938  12.284
 3316SOL    HW110844   1.476   3.873  12.339
 3316SOL    HW210845   1.375   4.001  12.345
 3317SOL     OW10846   1.001   3.758  12.326
 3317SOL    HW110847   0.938   3.686  12.295
 3317SOL    HW210848   1.094   3.722  12.326
 3318SOL     OW10849   1.352   3.776  11.340
 3318SOL    HW110850   1.387   3.735  11.256
 3318SOL    HW210851   1.262   3.738  11.360
 3319SOL     OW10852   1.300   4.177  11.863
 3319SOL    HW110853   1.241   4.257  11.867
 3319SOL    HW210854   1.315   4.142  11.956
 3320SOL     OW10855   1.593   3.945  12.054
 3320SOL    HW110856   1.509   3.944  12.108
 3320SOL    HW210857   1.595   4.028  11.998
 3321SOL     OW10858   0.019   4.092  13.681
 3321SOL    HW110859  -0.063   4.135  13.720
 3321SOL    HW210860  -0.009   4.019  13.618
 3322SOL     OW10861   1.755   4.331  13.265
 3322SOL    HW110862   1.743   4.318  13.166
 3322SOL    HW210863   1.725   4.250  13.314
 3323SOL     OW10864   1.603   4.171  13.771
 3323SOL    HW110865   1.529   4.217  13.721
 3323SOL    HW210866   1.654   4.239  13.824
 3324SOL     OW10867   0.809   3.728  13.536
 3324SOL    HW110868   0.849   3.819  13.527
 3324SOL    HW210869   0.709   3.736  13.542
 3325SOL     OW10870   1.400   3.831  13.460
 3325SOL    HW110871   1.376   3.794  13.370
 3325SOL    HW210872   1.499   3.847  13.464
 3326SOL     OW10873   0.614   3.846  13.151
 3326SOL    HW110874   0.712   3.824  13.158
 3326SOL    HW210875   0.583   3.829  13.058
 3327SOL     OW10876   0.539   3.788  13.546
 3327SOL    HW110877   0.458   3.789  13.604
 3327SOL    HW210878   0.542   3.871  13.491
 3328SOL     OW10879   0.297   3.759  13.205
 3328SOL    HW110880   0.346   3.843  13.184
 3328SOL    HW210881   0.359   3.694  13.250
 3329SOL     OW10882   1.017   3.763  13.787
 3329SOL    HW110883   0.945   3.768  13.718
 3329SOL    HW210884   0.993   3.694  13.856
 3330SOL     OW10885   1.540   3.998  13.159
 3330SOL    HW110886   1.479   3.923  13.182
 3330SOL    HW210887   1.562   4.050  13.242
 3331SOL     OW10888   0.903   3.810  13.167
 3331SOL    HW110889   0.954   3.811  13.081
 3331SOL    HW210890   0.959   3.768  13.238
 3332SOL     OW10891   1.726   3.859  13.557
 3332SOL    HW110892   1.799   3.842  13.490
 3332SOL    HW210893   1.695   3.772  13.595
 3333SOL     OW10894   1.841   3.899  13.997
 3333SOL    HW110895   1.880   3.814  13.961
 3333SOL    HW210896   1.743   3.901  13.978
 3334SOL     OW10897   0.075   4.069  13.067
 3334SOL    HW110898  -0.017   4.041  13.038
 3334SOL    HW210899   0.106   4.146  13.011
 3335SOL     OW10900   0.072   3.890  13.352
 3335SOL    HW110901   0.055   3.973  13.298
 3335SOL    HW210902   0.162   3.853  13.330
 3336SOL     OW10903   1.225   4.049  13.483
 3336SOL    HW110904   1.290   3.975  13.472
 3336SOL    HW210905   1.245   4.099  13.567
 3337SOL     OW10906   1.352   3.776  13.202
 3337SOL    HW110907   1.387   3.735  13.118
 3337SOL    HW210908   1.262   3.738  13.222
 3338SOL     OW10909   1.300   4.177  13.725
 3338SOL    HW110910   1.241   4.257  13.729
 3338SOL    HW210911   1.315   4.142  13.818
 3339SOL     OW10912   2.092   0.628   0.113
 3339SOL    HW110913   1.999   0.626   0.150
 3339SOL    HW210914   2.093   0.589   0.021
 3340SOL     OW10915   2.087   0.275   0.996
 3340SOL    HW110916   2.122   0.258   1.088
 3340SOL    HW210917   1.999   0.230   0.984
 3341SOL     OW10918   1.881   0.368   0.647
 3341SOL    HW110919   1.799   0.411   0.686
 3341SOL    HW210920   1.853   0.295   0.584
 3342SOL     OW10921   2.431   1.275   1.165
 3342SOL    HW110922   2.338   1.268   1.128
 3342SOL    HW210923   2.442   1.364   1.209
 3343SOL     OW10924   3.417   1.511   0.703
 3343SOL    HW110925   3.360   1.495   0.784
 3343SOL    HW210926   3.358   1.521   0.623
 3344SOL     OW10927   2.997   0.703   0.717
 3344SOL    HW110928   3.054   0.781   0.692
 3344SOL    HW210929   2.937   0.729   0.793
 3345SOL     OW10930   3.617   0.607   0.231
 3345SOL    HW110931   3.605   0.594   0.132
 3345SOL    HW210932   3.587   0.526   0.280
 3346SOL     OW10933   2.630   1.144   1.023
 3346SOL    HW110934   2.552   1.161   1.083
 3346SOL    HW210935   2.664   1.231   0.987
 3347SOL     OW10936   2.712   0.798   1.823
 3347SOL    HW110937   2.708   0.874   1.888
 3347SOL    HW210938   2.734   0.834   1.732
 3348SOL     OW10939   2.547   1.012   0.665
 3348SOL    HW110940   2.616   0.996   0.735
 3348SOL    HW210941   2.474   1.069   0.703
 3349SOL     OW10942   2.548   1.161   1.803
 3349SOL    HW110943   2.608   1.240   1.817
 3349SOL    HW210944   2.462   1.192   1.762
 3350SOL     OW10945   2.197   1.435   1.061
 3350SOL    HW110946   2.119   1.404   1.008
 3350SOL    HW210947   2.255   1.493   1.004
 3351SOL     OW10948   3.322   1.505   1.339
 3351SOL    HW110949   3.346   1.599   1.365
 3351SOL    HW210950   3.306   1.451   1.421
 3352SOL     OW10951   2.300   0.392   1.499
 3352SOL    HW110952   2.382   0.336   1.508
 3352SOL    HW210953   2.219   0.334   1.503
 3353SOL     OW10954   3.465   0.447   0.737
 3353SOL    HW110955   3.391   0.493   0.687
 3353SOL    HW210956   3.516   0.515   0.790
 3354SOL     OW10957   2.093   1.713   0.483
 3354SOL    HW110958   2.127   1.790   0.537
 3354SOL    HW210959   2.137   1.713   0.393
 3355SOL     OW10960   2.989   1.341   1.690
 3355SOL    HW110961   3.036   1.341   1.778
 3355SOL    HW210962   2.941   1.254   1.679
 3356SOL     OW10963   2.092   1.434   0.538
 3356SOL    HW110964   2.066   1.530   0.538
 3356SOL    HW210965   2.021   1.380   0.583
 3357SOL     OW10966   2.102   1.091   0.886
 3357SOL    HW110967   2.116   1.007   0.938
 3357SOL    HW210968   2.047   1.155   0.941
 3358SOL     OW10969   2.482   1.786   1.439
 3358SOL    HW110970   2.390   1.769   1.474
 3358SOL    HW210971   2.510   1.878   1.465
 3359SOL     OW10972   2.468   0.964   0.123
 3359SOL    HW110973   2.475   1.048   0.069
 3359SOL    HW210974   2.514   0.977   0.211
 3360SOL     OW10975   3.456   0.114   1.480
 3360SOL    HW110976   3.438   0.181   1.408
 3360SOL    HW210977   3.453   0.160   1.569
 3361SOL     OW10978   1.984   0.643   0.563
 3361SOL    HW110979   1.939   0.555   0.580
 3361SOL    HW210980   1.983   0.697   0.647
 3362SOL     OW10981   3.704   1.767   0.359
 3362SOL    HW110982   3.758   1.738   0.439
 3362SOL    HW210983   3.734   1.857   0.330
 3363SOL     OW10984   1.889   1.596   0.117
 3363SOL    HW110985   1.870   1.500   0.138
 3363SOL    HW210986   1.856   1.654   0.192
 3364SOL     OW10987   3.551   0.922   0.612
 3364SOL    HW110988   3.646   0.893   0.620
 3364SOL    HW210989   3.543   0.987   0.537
 3365SOL     OW10990   3.503   1.108   0.432
 3365SOL    HW110991   3.589   1.110   0.380
 3365SOL    HW210992   3.517   1.155   0.520
 3366SOL     OW10993   1.975   0.737   1.597
 3366SOL    HW110994   2.063   0.724   1.642
 3366SOL    HW210995   1.962   0.834   1.575
 3367SOL     OW10996   2.475   1.365   0.726
 3367SOL    HW110997   2.426   1.278   0.735
 3367SOL    HW210998   2.452   1.408   0.639
 3368SOL     OW10999   3.155   1.228   1.423
 3368SOL    HW111000   3.192   1.155   1.365
 3368SOL    HW211001   3.207   1.233   1.508
 3369SOL     OW11002   2.671   0.004   0.502
 3369SOL    HW111003   2.711   0.095   0.493
 3369SOL    HW211004   2.571   0.012   0.508
 3370SOL     OW11005   2.059   0.976   1.264
 3370SOL    HW111006   2.148   0.931   1.250
 3370SOL    HW211007   1.986   0.911   1.245
 3371SOL     OW11008   3.387   0.999   0.190
 3371SOL    HW111009   3.324   0.923   0.203
 3371SOL    HW211010   3.435   1.017   0.276
 3372SOL     OW11011   3.049   1.792   1.616
 3372SOL    HW111012   3.073   1.852   1.540
 3372SOL    HW211013   3.056   1.697   1.586
 3373SOL     OW11014   2.179   0.251   1.801
 3373SOL    HW111015   2.250   0.322   1.807
 3373SOL    HW211016   2.091   0.290   1.829
 3374SOL     OW11017   3.328   1.417   0.953
 3374SOL    HW111018   3.269   1.423   1.033
 3374SOL    HW211019   3.313   1.329   0.907
 3375SOL     OW11020   3.529   1.714   0.572
 3375SOL    HW111021   3.488   1.691   0.484
 3375SOL    HW211022   3.511   1.640   0.637
 3376SOL     OW11023   2.460   0.729   0.270
 3376SOL    HW111024   2.484   0.798   0.202
 3376SOL    HW211025   2.382   0.762   0.324
 3377SOL     OW11026   3.143   0.345   0.944
 3377SOL    HW111027   3.057   0.295   0.931
 3377SOL    HW211028   3.205   0.291   1.000
 3378SOL     OW11029   3.438   1.662   0.307
 3378SOL    HW111030   3.527   1.708   0.310
 3378SOL    HW211031   3.417   1.638   0.212
 3379SOL     OW11032   2.669   0.605   1.465
 3379SOL    HW111033   2.622   0.602   1.554
 3379SOL    HW211034   2.618   0.550   1.399
 3380SOL     OW11035   3.256   0.469   1.674
 3380SOL    HW111036   3.236   0.512   1.762
 3380SOL    HW211037   3.334   0.407   1.683
 3381SOL     OW11038   2.835   0.890   1.572
 3381SOL    HW111039   2.881   0.806   1.543
 3381SOL    HW211040   2.779   0.924   1.497
 3382SOL     OW11041   2.853   0.410   1.242
 3382SOL    HW111042   2.776   0.444   1.296
 3382SOL    HW211043   2.819   0.359   1.163
 3383SOL     OW11044   2.903   0.701   0.429
 3383SOL    HW111045   2.929   0.697   0.525
 3383SOL    HW211046   2.818   0.650   0.415
 3384SOL     OW11047   1.938   0.811   0.789
 3384SOL    HW111048   2.037   0.799   0.798
 3384SOL    HW211049   1.914   0.906   0.810
 3385SOL     OW11050   2.727   0.348   0.195
 3385SOL    HW111051   2.786   0.411   0.146
 3385SOL    HW211052   2.746   0.254   0.166
 3386SOL     OW11053   3.581   0.585   1.831
 3386SOL    HW111054   3.555   0.674   1.795
 3386SOL    HW211055   3.579   0.517   1.758
 3387SOL     OW11056   3.224   1.144   0.545
 3387SOL    HW111057   3.307   1.115   0.497
 3387SOL    HW211058   3.175   1.211   0.489
 3388SOL     OW11059   2.412   0.196   0.885
 3388SOL    HW111060   2.407   0.191   0.985
 3388SOL    HW211061   2.414   0.292   0.856
 3389SOL     OW11062   2.870   1.456   0.477
 3389SOL    HW111063   2.824   1.528   0.425
 3389SOL    HW211064   2.866   1.476   0.575
 3390SOL     OW11065   2.213   1.801   0.853
 3390SOL    HW111066   2.263   1.715   0.859
 3390SOL    HW211067   2.278   1.878   0.850
 3391SOL     OW11068   3.657   1.066   0.873
 3391SOL    HW111069   3.595   1.051   0.797
 3391SOL    HW211070   3.605   1.077   0.958
 3392SOL     OW11071   3.089   1.550   1.506
 3392SOL    HW111072   3.095   1.473   1.570
 3392SOL    HW211073   3.037   1.524   1.426
 3393SOL     OW11074   2.183   0.943   0.242
 3393SOL    HW111075   2.265   0.982   0.200
 3393SOL    HW211076   2.156   0.861   0.193
 3394SOL     OW11077   3.320   0.735   0.728
 3394SOL    HW111078   3.315   0.670   0.803
 3394SOL    HW211079   3.400   0.794   0.741
 3395SOL     OW11080   2.323   1.266   1.727
 3395SOL    HW111081   2.273   1.267   1.641
 3395SOL    HW211082   2.260   1.248   1.803
 3396SOL     OW11083   2.973   1.776   0.237
 3396SOL    HW111084   2.913   1.714   0.287
 3396SOL    HW211085   3.004   1.732   0.152
 3397SOL     OW11086   2.064   0.285   1.498
 3397SOL    HW111087   1.984   0.345   1.485
 3397SOL    HW211088   2.054   0.236   1.584
 3398SOL     OW11089   3.494   1.377   0.081
 3398SOL    HW111090   3.462   1.471   0.071
 3398SOL    HW211091   3.418   1.314   0.069
 3399SOL     OW11092   2.326   1.743   0.323
 3399SOL    HW111093   2.359   1.782   0.409
 3399SOL    HW211094   2.402   1.736   0.258
 3400SOL     OW11095   3.262   0.107   0.426
 3400SOL    HW111096   3.238   0.070   0.336
 3400SOL    HW211097   3.361   0.123   0.430
 3401SOL     OW11098   2.111   1.785   1.241
 3401SOL    HW111099   2.168   1.720   1.291
 3401SOL    HW211100   2.095   1.752   1.148
 3402SOL     OW11101   2.802   1.698   0.904
 3402SOL    HW111102   2.882   1.641   0.925
 3402SOL    HW211103   2.753   1.658   0.827
 3403SOL     OW11104   2.244   0.700   0.480
 3403SOL    HW111105   2.289   0.610   0.477
 3403SOL    HW211106   2.150   0.689   0.513
 3404SOL     OW11107   3.409   0.222   1.729
 3404SOL    HW111108   3.404   0.259   1.821
 3404SOL    HW211109   3.337   0.153   1.717
 3405SOL     OW11110   2.476   0.122   0.117
 3405SOL    HW111111   2.574   0.100   0.124
 3405SOL    HW211112   2.445   0.105   0.024
 3406SOL     OW11113   2.643   0.264   1.749
 3406SOL    HW111114   2.710   0.203   1.792
 3406SOL    HW211115   2.570   0.283   1.814
 3407SOL     OW11116   2.750   1.514   1.195
 3407SOL    HW111117   2.727   1.489   1.101
 3407SOL    HW211118   2.811   1.445   1.234
 3408SOL     OW11119   3.213   0.590   1.433
 3408SOL    HW111120   3.241   0.547   1.518
 3408SOL    HW211121   3.238   0.686   1.434
 3409SOL     OW11122   2.665   1.402   0.924
 3409SOL    HW111123   2.755   1.416   0.882
 3409SOL    HW211124   2.594   1.404   0.853
 3410SOL     OW11125   2.784   0.503   0.899
 3410SOL    HW111126   2.759   0.494   0.803
 3410SOL    HW211127   2.832   0.421   0.930
 3411SOL     OW11128   2.401   0.064   0.512
 3411SOL    HW111129   2.320   0.065   0.570
 3411SOL    HW211130   2.404   0.147   0.457
 3412SOL     OW11131   3.296   1.188   0.041
 3412SOL    HW111132   3.328   1.112   0.098
 3412SOL    HW211133   3.204   1.215   0.071
 3413SOL     OW11134   2.159   0.035   0.171
 3413SOL    HW111135   2.208   0.119   0.150
 3413SOL    HW211136   2.221  -0.030   0.216
 3414SOL     OW11137   2.797   0.236   0.480
 3414SOL    HW111138   2.749   0.277   0.402
 3414SOL    HW211139   2.896   0.234   0.461
 3415SOL     OW11140   2.938   0.683   1.464
 3415SOL    HW111141   2.858   0.622   1.467
 3415SOL    HW211142   3.019   0.630   1.440
 3416SOL     OW11143   3.089   1.570   0.793
 3416SOL    HW111144   3.110   1.644   0.728
 3416SOL    HW211145   3.157   1.570   0.866
 3417SOL     OW11146   2.321   1.152   0.741
 3417SOL    HW111147   2.250   1.125   0.806
 3417SOL    HW211148   2.295   1.124   0.648
 3418SOL     OW11149   3.133   1.797   0.591
 3418SOL    HW111150   3.177   1.861   0.527
 3418SOL    HW211151   3.083   1.849   0.661
 3419SOL     OW11152   2.894   0.549   0.016
 3419SOL    HW111153   2.853   0.631  -0.023
 3419SOL    HW211154   2.958   0.575   0.089
 3420SOL     OW11155   1.940   0.556   1.386
 3420SOL    HW111156   2.032   0.555   1.345
 3420SOL    HW211157   1.934   0.630   1.453
 3421SOL     OW11158   2.423   0.222   1.147
 3421SOL    HW111159   2.461   0.138   1.184
 3421SOL    HW211160   2.335   0.241   1.191
 3422SOL     OW11161   2.728   0.454   0.642
 3422SOL    HW111162   2.696   0.526   0.580
 3422SOL    HW211163   2.752   0.373   0.589
 3423SOL     OW11164   2.879   0.039   0.753
 3423SOL    HW111165   2.807   0.044   0.684
 3423SOL    HW211166   2.855  -0.030   0.822
 3424SOL     OW11167   3.291   1.173   0.867
 3424SOL    HW111168   3.236   1.089   0.860
 3424SOL    HW211169   3.317   1.202   0.775
 3425SOL     OW11170   3.328   0.590   0.992
 3425SOL    HW111171   3.298   0.495   0.999
 3425SOL    HW211172   3.401   0.606   1.058
 3426SOL     OW11173   3.719   0.833   0.377
 3426SOL    HW111174   3.761   0.769   0.441
 3426SOL    HW211175   3.681   0.782   0.299
 3427SOL     OW11176   2.350   1.385   0.174
 3427SOL    HW111177   2.263   1.370   0.221
 3427SOL    HW211178   2.333   1.411   0.079
 3428SOL     OW11179   3.526   1.280   0.657
 3428SOL    HW111180   3.625   1.288   0.671
 3428SOL    HW211181   3.481   1.364   0.688
 3429SOL     OW11182   3.252   0.575   0.078
 3429SOL    HW111183   3.198   0.554   0.159
 3429SOL    HW211184   3.343   0.534   0.087
 3430SOL     OW11185   2.389   0.256   0.328
 3430SOL    HW111186   2.416   0.197   0.253
 3430SOL    HW211187   2.389   0.351   0.297
 3431SOL     OW11188   3.616   1.223   1.588
 3431SOL    HW111189   3.707   1.184   1.575
 3431SOL    HW211190   3.624   1.319   1.612
 3432SOL     OW11191   2.926   1.347   1.340
 3432SOL    HW111192   2.846   1.324   1.395
 3432SOL    HW211193   3.009   1.321   1.389
 3433SOL     OW11194   3.454   1.629   1.625
 3433SOL    HW111195   3.481   1.663   1.535
 3433SOL    HW211196   3.533   1.591   1.671
 3434SOL     OW11197   2.973   1.195   1.100
 3434SOL    HW111198   2.933   1.239   1.181
 3434SOL    HW211199   2.932   1.232   1.017
 3435SOL     OW11200   3.500   1.099   1.079
 3435SOL    HW111201   3.505   1.180   1.138
 3435SOL    HW211202   3.414   1.101   1.028
 3436SOL     OW11203   2.777   0.089   1.402
 3436SOL    HW111204   2.802   0.069   1.307
 3436SOL    HW211205   2.849   0.145   1.444
 3437SOL     OW11206   2.842   1.116   1.719
 3437SOL    HW111207   2.743   1.122   1.729
 3437SOL    HW211208   2.865   1.036   1.663
 3438SOL     OW11209   2.567   1.050   0.368
 3438SOL    HW111210   2.553   1.057   0.467
 3438SOL    HW211211   2.651   0.999   0.350
 3439SOL     OW11212   2.272   0.813   1.251
 3439SOL    HW111213   2.358   0.825   1.301
 3439SOL    HW211214   2.230   0.726   1.278
 3440SOL     OW11215   3.136   0.386   1.262
 3440SOL    HW111216   3.157   0.460   1.326
 3440SOL    HW211217   3.047   0.403   1.219
 3441SOL     OW11218   2.229   1.100   0.501
 3441SOL    HW111219   2.222   1.183   0.445
 3441SOL    HW211220   2.233   1.020   0.441
 3442SOL     OW11221   2.428   0.537   0.865
 3442SOL    HW111222   2.440   0.603   0.791
 3442SOL    HW211223   2.474   0.571   0.948
 3443SOL     OW11224   3.114   1.348   0.388
 3443SOL    HW111225   3.164   1.425   0.428
 3443SOL    HW211226   3.019   1.350   0.420
 3444SOL     OW11227   3.134   1.445   1.142
 3444SOL    HW111228   3.181   1.458   1.229
 3444SOL    HW211229   3.068   1.371   1.151
 3445SOL     OW11230   3.444   0.639   0.472
 3445SOL    HW111231   3.413   0.700   0.545
 3445SOL    HW211232   3.494   0.691   0.403
 3446SOL     OW11233   2.216   1.510   1.329
 3446SOL    HW111234   2.195   1.466   1.242
 3446SOL    HW211235   2.313   1.536   1.332
 3447SOL     OW11236   2.264   0.751   1.598
 3447SOL    HW111237   2.332   0.806   1.551
 3447SOL    HW211238   2.304   0.663   1.625
 3448SOL     OW11239   3.449   0.779   1.670
 3448SOL    HW111240   3.357   0.817   1.665
 3448SOL    HW211241   3.509   0.826   1.605
 3449SOL     OW11242   2.875   0.105   1.770
 3449SOL    HW111243   2.881   0.190   1.718
 3449SOL    HW211244   2.907   0.029   1.713
 3450SOL     OW11245   2.366   0.050   1.740
 3450SOL    HW111246   2.324  -0.007   1.670
 3450SOL    HW211247   2.300   0.119   1.772
 3451SOL     OW11248   2.435   0.870   1.029
 3451SOL    HW111249   2.479   0.959   1.020
 3451SOL    HW211250   2.372   0.870   1.106
 3452SOL     OW11251   3.222   0.862   1.045
 3452SOL    HW111252   3.147   0.862   0.979
 3452SOL    HW211253   3.259   0.770   1.054
 3453SOL     OW11254   3.071   0.525   0.275
 3453SOL    HW111255   3.084   0.441   0.329
 3453SOL    HW211256   3.042   0.599   0.335
 3454SOL     OW11257   2.169   0.213   1.231
 3454SOL    HW111258   2.146   0.250   1.321
 3454SOL    HW211259   2.139   0.118   1.225
 3455SOL     OW11260   1.899   1.310   1.282
 3455SOL    HW111261   1.952   1.261   1.350
 3455SOL    HW211262   1.921   1.408   1.287
 3456SOL     OW11263   2.594   0.634   1.064
 3456SOL    HW111264   2.653   0.608   0.988
 3456SOL    HW211265   2.566   0.730   1.053
 3457SOL     OW11266   3.590   0.935   1.854
 3457SOL    HW111267   3.544   0.928   1.765
 3457SOL    HW211268   3.528   0.979   1.920
 3458SOL     OW11269   2.169   0.063   0.618
 3458SOL    HW111270   2.158   0.157   0.651
 3458SOL    HW211271   2.164   0.000   0.695
 3459SOL     OW11272   3.484   0.367   0.374
 3459SOL    HW111273   3.486   0.291   0.438
 3459SOL    HW211274   3.436   0.444   0.414
 3460SOL     OW11275   2.885   0.766   0.966
 3460SOL    HW111276   2.900   0.787   1.062
 3460SOL    HW211277   2.855   0.671   0.957
 3461SOL     OW11278   2.842   1.573   1.700
 3461SOL    HW111279   2.822   1.617   1.612
 3461SOL    HW211280   2.881   1.482   1.684
 3462SOL     OW11281   3.721   1.518   1.605
 3462SOL    HW111282   3.735   1.545   1.510
 3462SOL    HW211283   3.804   1.540   1.658
 3463SOL     OW11284   2.212   0.898   1.804
 3463SOL    HW111285   2.288   0.942   1.852
 3463SOL    HW211286   2.247   0.851   1.722
 3464SOL     OW11287   3.402   0.274   0.125
 3464SOL    HW111288   3.341   0.199   0.148
 3464SOL    HW211289   3.424   0.326   0.208
 3465SOL     OW11290   3.165   0.838   0.042
 3465SOL    HW111291   3.199   0.745   0.057
 3465SOL    HW211292   3.183   0.865  -0.053
 3466SOL     OW11293   2.930   1.333   0.849
 3466SOL    HW111294   2.937   1.249   0.794
 3466SOL    HW211295   2.992   1.402   0.813
 3467SOL     OW11296   2.181   0.810   0.949
 3467SOL    HW111297   2.274   0.846   0.954
 3467SOL    HW211298   2.175   0.725   1.001
 3468SOL     OW11299   2.201   0.509   1.006
 3468SOL    HW111300   2.149   0.426   0.989
 3468SOL    HW211301   2.278   0.514   0.942
 3469SOL     OW11302   3.000   0.380   1.678
 3469SOL    HW111303   2.955   0.443   1.742
 3469SOL    HW211304   3.093   0.411   1.661
 3470SOL     OW11305   3.022   0.207   1.477
 3470SOL    HW111306   3.022   0.271   1.554
 3470SOL    HW211307   3.050   0.255   1.394
 3471SOL     OW11308   1.870   1.326   0.200
 3471SOL    HW111309   1.777   1.347   0.169
 3471SOL    HW211310   1.880   1.227   0.213
 3472SOL     OW11311   2.366   1.568   0.910
 3472SOL    HW111312   2.432   1.642   0.919
 3472SOL    HW211313   2.410   1.489   0.868
 3473SOL     OW11314   2.864   0.796   1.238
 3473SOL    HW111315   2.905   0.764   1.324
 3473SOL    HW211316   2.768   0.769   1.235
 3474SOL     OW11317   1.902   0.544   1.114
 3474SOL    HW111318   1.987   0.511   1.073
 3474SOL    HW211319   1.915   0.559   1.212
 3475SOL     OW11320   2.051   0.520   1.722
 3475SOL    HW111321   2.110   0.480   1.652
 3475SOL    HW211322   1.993   0.591   1.681
 3476SOL     OW11323   3.231   0.950   1.660
 3476SOL    HW111324   3.270   1.039   1.680
 3476SOL    HW211325   3.241   0.930   1.563
 3477SOL     OW11326   2.677   0.572   0.325
 3477SOL    HW111327   2.684   0.483   0.279
 3477SOL    HW211328   2.583   0.606   0.317
 3478SOL     OW11329   3.519   0.604   1.206
 3478SOL    HW111330   3.481   0.535   1.268
 3478SOL    HW211331   3.601   0.568   1.162
 3479SOL     OW11332   2.114   1.564   1.744
 3479SOL    HW111333   2.084   1.621   1.820
 3479SOL    HW211334   2.107   1.467   1.770
 3480SOL     OW11335   2.533   0.464   1.269
 3480SOL    HW111336   2.499   0.375   1.239
 3480SOL    HW211337   2.559   0.518   1.189
 3481SOL     OW11338   2.792   1.678   1.465
 3481SOL    HW111339   2.768   1.660   1.370
 3481SOL    HW211340   2.822   1.772   1.475
 3482SOL     OW11341   2.335   0.500   0.191
 3482SOL    HW111342   2.396   0.580   0.195
 3482SOL    HW211343   2.240   0.531   0.198
 3483SOL     OW11344   2.021   1.137   1.466
 3483SOL    HW111345   2.043   1.076   1.542
 3483SOL    HW211346   2.031   1.088   1.380
 3484SOL     OW11347   3.209   1.059   1.234
 3484SOL    HW111348   3.233   0.996   1.160
 3484SOL    HW211349   3.119   1.099   1.216
 3485SOL     OW11350   3.164   0.855   0.309
 3485SOL    HW111351   3.078   0.824   0.351
 3485SOL    HW211352   3.160   0.841   0.210
 3486SOL     OW11353   3.621   1.747   1.154
 3486SOL    HW111354   3.682   1.777   1.081
 3486SOL    HW211355   3.583   1.658   1.132
 3487SOL     OW11356   3.114   1.731   1.128
 3487SOL    HW111357   3.198   1.736   1.074
 3487SOL    HW211358   3.091   1.635   1.146
 3488SOL     OW11359   1.945   1.258   1.022
 3488SOL    HW111360   1.940   1.257   1.122
 3488SOL    HW211361   1.862   1.217   0.984
 3489SOL     OW11362   2.550   1.662   1.716
 3489SOL    HW111363   2.494   1.743   1.725
 3489SOL    HW211364   2.602   1.666   1.630
 3490SOL     OW11365   2.765   0.086   0.133
 3490SOL    HW111366   2.816   0.087   0.047
 3490SOL    HW211367   2.821   0.044   0.204
 3491SOL     OW11368   3.588   0.135   0.523
 3491SOL    HW111369   3.661   0.118   0.456
 3491SOL    HW211370   3.557   0.048   0.561
 3492SOL     OW11371   3.250   1.573   0.477
 3492SOL    HW111372   3.317   1.585   0.403
 3492SOL    HW211373   3.210   1.662   0.500
 3493SOL     OW11374   3.142   0.927   0.672
 3493SOL    HW111375   3.202   0.846   0.674
 3493SOL    HW211376   3.182   0.996   0.612
 3494SOL     OW11377   2.692   1.273   1.422
 3494SOL    HW111378   2.687   1.306   1.517
 3494SOL    HW211379   2.606   1.292   1.376
 3495SOL     OW11380   2.534   1.616   0.154
 3495SOL    HW111381   2.543   1.626   0.055
 3495SOL    HW211382   2.494   1.527   0.175
 3496SOL     OW11383   3.512   1.720   1.394
 3496SOL    HW111384   3.565   1.730   1.310
 3496SOL    HW211385   3.485   1.810   1.428
 3497SOL     OW11386   3.703   0.175   0.963
 3497SOL    HW111387   3.742   0.090   0.927
 3497SOL    HW211388   3.605   0.177   0.944
 3498SOL     OW11389   2.125   0.326   0.720
 3498SOL    HW111390   2.046   0.377   0.686
 3498SOL    HW211391   2.116   0.311   0.818
 3499SOL     OW11392   3.056   1.612   0.031
 3499SOL    HW111393   3.062   1.519   0.068
 3499SOL    HW211394   2.997   1.612  -0.049
 3500SOL     OW11395   2.684   1.002   1.372
 3500SOL    HW111396   2.724   1.001   1.280
 3500SOL    HW211397   2.694   1.094   1.412
 3501SOL     OW11398   2.778   0.910   0.291
 3501SOL    HW111399   2.841   0.948   0.223
 3501SOL    HW211400   2.818   0.827   0.330
 3502SOL     OW11401   3.366   1.607   0.044
 3502SOL    HW111402   3.274   1.644   0.051
 3502SOL    HW211403   3.404   1.627  -0.046
 3503SOL     OW11404   2.234   1.288   1.490
 3503SOL    HW111405   2.221   1.381   1.456
 3503SOL    HW211406   2.150   1.236   1.477
 3504SOL     OW11407   3.476   1.292   1.289
 3504SOL    HW111408   3.536   1.295   1.369
 3504SOL    HW211409   3.401   1.356   1.302
 3505SOL     OW11410   2.901   1.098   0.696
 3505SOL    HW111411   2.831   1.051   0.750
 3505SOL    HW211412   2.960   1.030   0.653
 3506SOL     OW11413   2.876   0.236   0.971
 3506SOL    HW111414   2.868   0.200   0.878
 3506SOL    HW211415   2.874   0.160   1.036
 3507SOL     OW11416   2.452   1.487   0.491
 3507SOL    HW111417   2.494   1.429   0.421
 3507SOL    HW211418   2.408   1.566   0.447
 3508SOL     OW11419   3.571   0.385   1.381
 3508SOL    HW111420   3.644   0.454   1.385
 3508SOL    HW211421   3.599   0.310   1.322
 3509SOL     OW11422   2.117   1.348   0.290
 3509SOL    HW111423   2.021   1.349   0.263
 3509SOL    HW211424   2.129   1.401   0.374
 3510SOL     OW11425   1.967   1.013   1.726
 3510SOL    HW111426   1.890   0.980   1.780
 3510SOL    HW211427   2.052   0.983   1.768
 3511SOL     OW11428   2.534   0.203   1.489
 3511SOL    HW111429   2.624   0.187   1.449
 3511SOL    HW211430   2.542   0.208   1.588
 3512SOL     OW11431   1.937   0.345   0.033
 3512SOL    HW111432   1.845   0.317   0.004
 3512SOL    HW211433   1.968   0.422  -0.023
 3513SOL     OW11434   3.302   0.856   1.398
 3513SOL    HW111435   3.245   0.908   1.335
 3513SOL    HW211436   3.398   0.868   1.374
 3514SOL     OW11437   1.934   0.166   0.318
 3514SOL    HW111438   1.917   0.249   0.264
 3514SOL    HW211439   2.024   0.129   0.296
 3515SOL     OW11440   3.045   1.335   0.119
 3515SOL    HW111441   2.946   1.324   0.121
 3515SOL    HW211442   3.079   1.350   0.212
 3516SOL     OW11443   2.475   0.842   1.431
 3516SOL    HW111444   2.531   0.923   1.414
 3516SOL    HW211445   2.534   0.762   1.434
 3517SOL     OW11446   3.355   1.767   0.959
 3517SOL    HW111447   3.388   1.831   0.890
 3517SOL    HW211448   3.421   1.761   1.034
 3518SOL     OW11449   2.578   0.565   1.708
 3518SOL    HW111450   2.597   0.630   1.782
 3518SOL    HW211451   2.638   0.485   1.717
 3519SOL     OW11452   3.312   1.220   1.633
 3519SOL    HW111453   3.303   1.210   1.732
 3519SOL    HW211454   3.408   1.213   1.607
 3520SOL     OW11455   2.252   1.741   1.560
 3520SOL    HW111456   2.161   1.782   1.558
 3520SOL    HW211457   2.245   1.647   1.592
 3521SOL     OW11458   3.536   0.883   1.254
 3521SOL    HW111459   3.509   0.794   1.217
 3521SOL    HW211460   3.537   0.951   1.181
 3522SOL     OW11461   3.087   0.325   0.449
 3522SOL    HW111462   3.152   0.251   0.438
 3522SOL    HW211463   3.107   0.375   0.533
 3523SOL     OW11464   2.456   0.745   0.652
 3523SOL    HW111465   2.506   0.830   0.633
 3523SOL    HW211466   2.368   0.747   0.604
 3524SOL     OW11467   3.639   0.342   1.642
 3524SOL    HW111468   3.622   0.373   1.548
 3524SOL    HW211469   3.555   0.305   1.680
 3525SOL     OW11470   3.592   0.934   1.517
 3525SOL    HW111471   3.630   1.025   1.532
 3525SOL    HW211472   3.584   0.917   1.418
 3526SOL     OW11473   2.721   1.374   0.016
 3526SOL    HW111474   2.675   1.389   0.104
 3526SOL    HW211475   2.765   1.459  -0.014
 3527SOL     OW11476   2.523   1.790   0.953
 3527SOL    HW111477   2.477   1.878   0.940
 3527SOL    HW211478   2.622   1.802   0.946
 3528SOL     OW11479   2.721   0.956   0.861
 3528SOL    HW111480   2.775   0.887   0.909
 3528SOL    HW211481   2.689   1.025   0.927
 3529SOL     OW11482   2.945   0.984   0.087
 3529SOL    HW111483   2.922   1.037   0.005
 3529SOL    HW211484   3.026   0.928   0.068
 3530SOL     OW11485   3.723   1.569   0.851
 3530SOL    HW111486   3.652   1.557   0.781
 3530SOL    HW211487   3.724   1.490   0.911
 3531SOL     OW11488   2.083   1.314   1.844
 3531SOL    HW111489   2.018   1.241   1.823
 3531SOL    HW211490   2.087   1.328   1.942
 3532SOL     OW11491   1.941   1.240   0.653
 3532SOL    HW111492   1.940   1.193   0.741
 3532SOL    HW211493   2.023   1.212   0.602
 3533SOL     OW11494   2.534   1.391   1.624
 3533SOL    HW111495   2.456   1.341   1.662
 3533SOL    HW211496   2.531   1.486   1.655
 3534SOL     OW11497   3.686   0.192   1.227
 3534SOL    HW111498   3.682   0.102   1.271
 3534SOL    HW211499   3.689   0.181   1.128
 3535SOL     OW11500   2.290   0.424   0.520
 3535SOL    HW111501   2.320   0.352   0.458
 3535SOL    HW211502   2.251   0.384   0.603
 3536SOL     OW11503   3.567   1.487   1.104
 3536SOL    HW111504   3.474   1.462   1.077
 3536SOL    HW211505   3.593   1.437   1.186
 3537SOL     OW11506   2.179   0.547   1.280
 3537SOL    HW111507   2.217   0.488   1.352
 3537SOL    HW211508   2.219   0.521   1.192
 3538SOL     OW11509   2.674   1.586   0.687
 3538SOL    HW111510   2.706   1.596   0.593
 3538SOL    HW211511   2.595   1.524   0.689
 3539SOL     OW11512   3.286   0.214   1.112
 3539SOL    HW111513   3.338   0.149   1.167
 3539SOL    HW211514   3.237   0.277   1.173
 3540SOL     OW11515   2.863   0.034   1.154
 3540SOL    HW111516   2.800  -0.038   1.123
 3540SOL    HW211517   2.956  -0.002   1.154
 3541SOL     OW11518   2.632   1.330   0.301
 3541SOL    HW111519   2.586   1.243   0.318
 3541SOL    HW211520   2.723   1.327   0.342
 3542SOL     OW11521   2.480   1.567   1.284
 3542SOL    HW111522   2.475   1.649   1.341
 3542SOL    HW211523   2.569   1.564   1.239
 3543SOL     OW11524   3.214   0.052   0.168
 3543SOL    HW111525   3.249   0.011   0.084
 3543SOL    HW211526   3.124   0.014   0.188
 3544SOL     OW11527   3.162   0.453   0.691
 3544SOL    HW111528   3.103   0.533   0.695
 3544SOL    HW211529   3.177   0.418   0.784
 3545SOL     OW11530   3.455   0.221   0.882
 3545SOL    HW111531   3.371   0.220   0.936
 3545SOL    HW211532   3.457   0.304   0.826
 3546SOL     OW11533   1.901   1.077   0.300
 3546SOL    HW111534   2.000   1.066   0.291
 3546SOL    HW211535   1.861   0.991   0.332
 3547SOL     OW11536   2.737   1.646   0.337
 3547SOL    HW111537   2.660   1.611   0.283
 3547SOL    HW211538   2.705   1.717   0.399
 3548SOL     OW11539   2.092   0.628   1.975
 3548SOL    HW111540   1.999   0.626   2.012
 3548SOL    HW211541   2.093   0.589   1.883
 3549SOL     OW11542   2.087   0.275   2.858
 3549SOL    HW111543   2.122   0.258   2.950
 3549SOL    HW211544   1.999   0.230   2.846
 3550SOL     OW11545   1.881   0.368   2.509
 3550SOL    HW111546   1.799   0.411   2.548
 3550SOL    HW211547   1.853   0.295   2.446
 3551SOL     OW11548   2.431   1.275   3.027
 3551SOL    HW111549   2.338   1.268   2.990
 3551SOL    HW211550   2.442   1.364   3.071
 3552SOL     OW11551   3.417   1.511   2.565
 3552SOL    HW111552   3.360   1.495   2.646
 3552SOL    HW211553   3.358   1.521   2.485
 3553SOL     OW11554   2.997   0.703   2.579
 3553SOL    HW111555   3.054   0.781   2.554
 3553SOL    HW211556   2.937   0.729   2.655
 3554SOL     OW11557   3.617   0.607   2.093
 3554SOL    HW111558   3.605   0.594   1.994
 3554SOL    HW211559   3.587   0.526   2.142
 3555SOL     OW11560   2.630   1.144   2.885
 3555SOL    HW111561   2.552   1.161   2.945
 3555SOL    HW211562   2.664   1.231   2.849
 3556SOL     OW11563   2.712   0.798   3.685
 3556SOL    HW111564   2.708   0.874   3.750
 3556SOL    HW211565   2.734   0.834   3.594
 3557SOL     OW11566   2.547   1.012   2.527
 3557SOL    HW111567   2.616   0.996   2.597
 3557SOL    HW211568   2.474   1.069   2.565
 3558SOL     OW11569   2.548   1.161   3.665
 3558SOL    HW111570   2.608   1.240   3.679
 3558SOL    HW211571   2.462   1.192   3.624
 3559SOL     OW11572   2.197   1.435   2.923
 3559SOL    HW111573   2.119   1.404   2.870
 3559SOL    HW211574   2.255   1.493   2.866
 3560SOL     OW11575   3.322   1.505   3.201
 3560SOL    HW111576   3.346   1.599   3.227
 3560SOL    HW211577   3.306   1.451   3.283
 3561SOL     OW11578   2.300   0.392   3.361
 3561SOL    HW111579   2.382   0.336   3.370
 3561SOL    HW211580   2.219   0.334   3.365
 3562SOL     OW11581   3.465   0.447   2.599
 3562SOL    HW111582   3.391   0.493   2.549
 3562SOL    HW211583   3.516   0.515   2.652
 3563SOL     OW11584   2.093   1.713   2.345
 3563SOL    HW111585   2.127   1.790   2.399
 3563SOL    HW211586   2.137   1.713   2.255
 3564SOL     OW11587   2.989   1.341   3.552
 3564SOL    HW111588   3.036   1.341   3.640
 3564SOL    HW211589   2.941   1.254   3.541
 3565SOL     OW11590   2.092   1.434   2.400
 3565SOL    HW111591   2.066   1.530   2.400
 3565SOL    HW211592   2.021   1.380   2.445
 3566SOL     OW11593   2.102   1.091   2.748
 3566SOL    HW111594   2.116   1.007   2.800
 3566SOL    HW211595   2.047   1.155   2.803
 3567SOL     OW11596   2.482   1.786   3.301
 3567SOL    HW111597   2.390   1.769   3.336
 3567SOL    HW211598   2.510   1.878   3.327
 3568SOL     OW11599   2.468   0.964   1.985
 3568SOL    HW111600   2.475   1.048   1.931
 3568SOL    HW211601   2.514   0.977   2.073
 3569SOL     OW11602   3.456   0.114   3.342
 3569SOL    HW111603   3.438   0.181   3.270
 3569SOL    HW211604   3.453   0.160   3.431
 3570SOL     OW11605   1.984   0.643   2.425
 3570SOL    HW111606   1.939   0.555   2.442
 3570SOL    HW211607   1.983   0.697   2.509
 3571SOL     OW11608   3.704   1.767   2.221
 3571SOL    HW111609   3.758   1.738   2.301
 3571SOL    HW211610   3.734   1.857   2.192
 3572SOL     OW11611   1.889   1.596   1.979
 3572SOL    HW111612   1.870   1.500   2.000
 3572SOL    HW211613   1.856   1.654   2.054
 3573SOL     OW11614   3.551   0.922   2.474
 3573SOL    HW111615   3.646   0.893   2.482
 3573SOL    HW211616   3.543   0.987   2.399
 3574SOL     OW11617   3.503   1.108   2.294
 3574SOL    HW111618   3.589   1.110   2.242
 3574SOL    HW211619   3.517   1.155   2.382
 3575SOL     OW11620   1.975   0.737   3.459
 3575SOL    HW111621   2.063   0.724   3.504
 3575SOL    HW211622   1.962   0.834   3.437
 3576SOL     OW11623   2.475   1.365   2.588
 3576SOL    HW111624   2.426   1.278   2.597
 3576SOL    HW211625   2.452   1.408   2.501
 3577SOL     OW11626   3.155   1.228   3.285
 3577SOL    HW111627   3.192   1.155   3.227
 3577SOL    HW211628   3.207   1.233   3.370
 3578SOL     OW11629   2.671   0.004   2.364
 3578SOL    HW111630   2.711   0.095   2.355
 3578SOL    HW211631   2.571   0.012   2.370
 3579SOL     OW11632   2.059   0.976   3.126
 3579SOL    HW111633   2.148   0.931   3.112
 3579SOL    HW211634   1.986   0.911   3.107
 3580SOL     OW11635   3.387   0.999   2.052
 3580SOL    HW111636   3.324   0.923   2.065
 3580SOL    HW211637   3.435   1.017   2.138
 3581SOL     OW11638   3.049   1.792   3.478
 3581SOL    HW111639   3.073   1.852   3.402
 3581SOL    HW211640   3.056   1.697   3.448
 3582SOL     OW11641   2.179   0.251   3.663
 3582SOL    HW111642   2.250   0.322   3.669
 3582SOL    HW211643   2.091   0.290   3.691
 3583SOL     OW11644   3.328   1.417   2.815
 3583SOL    HW111645   3.269   1.423   2.895
 3583SOL    HW211646   3.313   1.329   2.769
 3584SOL     OW11647   3.529   1.714   2.434
 3584SOL    HW111648   3.488   1.691   2.346
 3584SOL    HW211649   3.511   1.640   2.499
 3585SOL     OW11650   2.460   0.729   2.132
 3585SOL    HW111651   2.484   0.798   2.064
 3585SOL    HW211652   2.382   0.762   2.186
 3586SOL     OW11653   3.143   0.345   2.806
 3586SOL    HW111654   3.057   0.295   2.793
 3586SOL    HW211655   3.205   0.291   2.862
 3587SOL     OW11656   3.438   1.662   2.169
 3587SOL    HW111657   3.527   1.708   2.172
 3587SOL    HW211658   3.417   1.638   2.074
 3588SOL     OW11659   2.669   0.605   3.327
 3588SOL    HW111660   2.622   0.602   3.416
 3588SOL    HW211661   2.618   0.550   3.261
 3589SOL     OW11662   3.256   0.469   3.536
 3589SOL    HW111663   3.236   0.512   3.624
 3589SOL    HW211664   3.334   0.407   3.545
 3590SOL     OW11665   2.835   0.890   3.434
 3590SOL    HW111666   2.881   0.806   3.405
 3590SOL    HW211667   2.779   0.924   3.359
 3591SOL     OW11668   2.853   0.410   3.104
 3591SOL    HW111669   2.776   0.444   3.158
 3591SOL    HW211670   2.819   0.359   3.025
 3592SOL     OW11671   2.903   0.701   2.291
 3592SOL    HW111672   2.929   0.697   2.387
 3592SOL    HW211673   2.818   0.650   2.277
 3593SOL     OW11674   1.938   0.811   2.651
 3593SOL    HW111675   2.037   0.799   2.660
 3593SOL    HW211676   1.914   0.906   2.672
 3594SOL     OW11677   2.727   0.348   2.057
 3594SOL    HW111678   2.786   0.411   2.008
 3594SOL    HW211679   2.746   0.254   2.028
 3595SOL     OW11680   3.581   0.585   3.693
 3595SOL    HW111681   3.555   0.674   3.657
 3595SOL    HW211682   3.579   0.517   3.620
 3596SOL     OW11683   3.224   1.144   2.407
 3596SOL    HW111684   3.307   1.115   2.359
 3596SOL    HW211685   3.175   1.211   2.351
 3597SOL     OW11686   2.412   0.196   2.747
 3597SOL    HW111687   2.407   0.191   2.847
 3597SOL    HW211688   2.414   0.292   2.718
 3598SOL     OW11689   2.870   1.456   2.339
 3598SOL    HW111690   2.824   1.528   2.287
 3598SOL    HW211691   2.866   1.476   2.437
 3599SOL     OW11692   2.213   1.801   2.715
 3599SOL    HW111693   2.263   1.715   2.721
 3599SOL    HW211694   2.278   1.878   2.712
 3600SOL     OW11695   3.657   1.066   2.735
 3600SOL    HW111696   3.595   1.051   2.659
 3600SOL    HW211697   3.605   1.077   2.820
 3601SOL     OW11698   3.089   1.550   3.368
 3601SOL    HW111699   3.095   1.473   3.432
 3601SOL    HW211700   3.037   1.524   3.288
 3602SOL     OW11701   2.183   0.943   2.104
 3602SOL    HW111702   2.265   0.982   2.062
 3602SOL    HW211703   2.156   0.861   2.055
 3603SOL     OW11704   3.320   0.735   2.590
 3603SOL    HW111705   3.315   0.670   2.665
 3603SOL    HW211706   3.400   0.794   2.603
 3604SOL     OW11707   2.323   1.266   3.589
 3604SOL    HW111708   2.273   1.267   3.503
 3604SOL    HW211709   2.260   1.248   3.665
 3605SOL     OW11710   2.973   1.776   2.099
 3605SOL    HW111711   2.913   1.714   2.149
 3605SOL    HW211712   3.004   1.732   2.014
 3606SOL     OW11713   2.064   0.285   3.360
 3606SOL    HW111714   1.984   0.345   3.347
 3606SOL    HW211715   2.054   0.236   3.446
 3607SOL     OW11716   3.494   1.377   1.943
 3607SOL    HW111717   3.462   1.471   1.933
 3607SOL    HW211718   3.418   1.314   1.931
 3608SOL     OW11719   2.326   1.743   2.185
 3608SOL    HW111720   2.359   1.782   2.271
 3608SOL    HW211721   2.402   1.736   2.120
 3609SOL     OW11722   3.262   0.107   2.288
 3609SOL    HW111723   3.238   0.070   2.198
 3609SOL    HW211724   3.361   0.123   2.292
 3610SOL     OW11725   2.111   1.785   3.103
 3610SOL    HW111726   2.168   1.720   3.153
 3610SOL    HW211727   2.095   1.752   3.010
 3611SOL     OW11728   2.802   1.698   2.766
 3611SOL    HW111729   2.882   1.641   2.787
 3611SOL    HW211730   2.753   1.658   2.689
 3612SOL     OW11731   2.244   0.700   2.342
 3612SOL    HW111732   2.289   0.610   2.339
 3612SOL    HW211733   2.150   0.689   2.375
 3613SOL     OW11734   3.409   0.222   3.591
 3613SOL    HW111735   3.404   0.259   3.683
 3613SOL    HW211736   3.337   0.153   3.579
 3614SOL     OW11737   2.476   0.122   1.979
 3614SOL    HW111738   2.574   0.100   1.986
 3614SOL    HW211739   2.445   0.105   1.886
 3615SOL     OW11740   2.643   0.264   3.611
 3615SOL    HW111741   2.710   0.203   3.654
 3615SOL    HW211742   2.570   0.283   3.676
 3616SOL     OW11743   2.750   1.514   3.057
 3616SOL    HW111744   2.727   1.489   2.963
 3616SOL    HW211745   2.811   1.445   3.096
 3617SOL     OW11746   3.213   0.590   3.295
 3617SOL    HW111747   3.241   0.547   3.380
 3617SOL    HW211748   3.238   0.686   3.296
 3618SOL     OW11749   2.665   1.402   2.786
 3618SOL    HW111750   2.755   1.416   2.744
 3618SOL    HW211751   2.594   1.404   2.715
 3619SOL     OW11752   2.784   0.503   2.761
 3619SOL    HW111753   2.759   0.494   2.665
 3619SOL    HW211754   2.832   0.421   2.792
 3620SOL     OW11755   2.401   0.064   2.374
 3620SOL    HW111756   2.320   0.065   2.432
 3620SOL    HW211757   2.404   0.147   2.319
 3621SOL     OW11758   3.296   1.188   1.903
 3621SOL    HW111759   3.328   1.112   1.960
 3621SOL    HW211760   3.204   1.215   1.933
 3622SOL     OW11761   2.159   0.035   2.033
 3622SOL    HW111762   2.208   0.119   2.012
 3622SOL    HW211763   2.221  -0.030   2.078
 3623SOL     OW11764   2.797   0.236   2.342
 3623SOL    HW111765   2.749   0.277   2.264
 3623SOL    HW211766   2.896   0.234   2.323
 3624SOL     OW11767   2.938   0.683   3.326
 3624SOL    HW111768   2.858   0.622   3.329
 3624SOL    HW211769   3.019   0.630   3.302
 3625SOL     OW11770   3.089   1.570   2.655
 3625SOL    HW111771   3.110   1.644   2.590
 3625SOL    HW211772   3.157   1.570   2.728
 3626SOL     OW11773   2.321   1.152   2.603
 3626SOL    HW111774   2.250   1.125   2.668
 3626SOL    HW211775   2.295   1.124   2.510
 3627SOL     OW11776   3.133   1.797   2.453
 3627SOL    HW111777   3.177   1.861   2.389
 3627SOL    HW211778   3.083   1.849   2.523
 3628SOL     OW11779   2.894   0.549   1.878
 3628SOL    HW111780   2.853   0.631   1.839
 3628SOL    HW211781   2.958   0.575   1.951
 3629SOL     OW11782   1.940   0.556   3.248
 3629SOL    HW111783   2.032   0.555   3.207
 3629SOL    HW211784   1.934   0.630   3.315
 3630SOL     OW11785   2.423   0.222   3.009
 3630SOL    HW111786   2.461   0.138   3.046
 3630SOL    HW211787   2.335   0.241   3.053
 3631SOL     OW11788   2.728   0.454   2.504
 3631SOL    HW111789   2.696   0.526   2.442
 3631SOL    HW211790   2.752   0.373   2.451
 3632SOL     OW11791   2.879   0.039   2.615
 3632SOL    HW111792   2.807   0.044   2.546
 3632SOL    HW211793   2.855  -0.030   2.684
 3633SOL     OW11794   3.291   1.173   2.729
 3633SOL    HW111795   3.236   1.089   2.722
 3633SOL    HW211796   3.317   1.202   2.637
 3634SOL     OW11797   3.328   0.590   2.854
 3634SOL    HW111798   3.298   0.495   2.861
 3634SOL    HW211799   3.401   0.606   2.920
 3635SOL     OW11800   3.719   0.833   2.239
 3635SOL    HW111801   3.761   0.769   2.303
 3635SOL    HW211802   3.681   0.782   2.161
 3636SOL     OW11803   2.350   1.385   2.036
 3636SOL    HW111804   2.263   1.370   2.083
 3636SOL    HW211805   2.333   1.411   1.941
 3637SOL     OW11806   3.526   1.280   2.519
 3637SOL    HW111807   3.625   1.288   2.533
 3637SOL    HW211808   3.481   1.364   2.550
 3638SOL     OW11809   3.252   0.575   1.940
 3638SOL    HW111810   3.198   0.554   2.021
 3638SOL    HW211811   3.343   0.534   1.949
 3639SOL     OW11812   2.389   0.256   2.190
 3639SOL    HW111813   2.416   0.197   2.115
 3639SOL    HW211814   2.389   0.351   2.159
 3640SOL     OW11815   3.616   1.223   3.450
 3640SOL    HW111816   3.707   1.184   3.437
 3640SOL    HW211817   3.624   1.319   3.474
 3641SOL     OW11818   2.926   1.347   3.202
 3641SOL    HW111819   2.846   1.324   3.257
 3641SOL    HW211820   3.009   1.321   3.251
 3642SOL     OW11821   3.454   1.629   3.487
 3642SOL    HW111822   3.481   1.663   3.397
 3642SOL    HW211823   3.533   1.591   3.533
 3643SOL     OW11824   2.973   1.195   2.962
 3643SOL    HW111825   2.933   1.239   3.043
 3643SOL    HW211826   2.932   1.232   2.879
 3644SOL     OW11827   3.500   1.099   2.941
 3644SOL    HW111828   3.505   1.180   3.000
 3644SOL    HW211829   3.414   1.101   2.890
 3645SOL     OW11830   2.777   0.089   3.264
 3645SOL    HW111831   2.802   0.069   3.169
 3645SOL    HW211832   2.849   0.145   3.306
 3646SOL     OW11833   2.842   1.116   3.581
 3646SOL    HW111834   2.743   1.122   3.591
 3646SOL    HW211835   2.865   1.036   3.525
 3647SOL     OW11836   2.567   1.050   2.230
 3647SOL    HW111837   2.553   1.057   2.329
 3647SOL    HW211838   2.651   0.999   2.212
 3648SOL     OW11839   2.272   0.813   3.113
 3648SOL    HW111840   2.358   0.825   3.163
 3648SOL    HW211841   2.230   0.726   3.140
 3649SOL     OW11842   3.136   0.386   3.124
 3649SOL    HW111843   3.157   0.460   3.188
 3649SOL    HW211844   3.047   0.403   3.081
 3650SOL     OW11845   2.229   1.100   2.363
 3650SOL    HW111846   2.222   1.183   2.307
 3650SOL    HW211847   2.233   1.020   2.303
 3651SOL     OW11848   2.428   0.537   2.727
 3651SOL    HW111849   2.440   0.603   2.653
 3651SOL    HW211850   2.474   0.571   2.810
 3652SOL     OW11851   3.114   1.348   2.250
 3652SOL    HW111852   3.164   1.425   2.290
 3652SOL    HW211853   3.019   1.350   2.282
 3653SOL     OW11854   3.134   1.445   3.004
 3653SOL    HW111855   3.181   1.458   3.091
 3653SOL    HW211856   3.068   1.371   3.013
 3654SOL     OW11857   3.444   0.639   2.334
 3654SOL    HW111858   3.413   0.700   2.407
 3654SOL    HW211859   3.494   0.691   2.265
 3655SOL     OW11860   2.216   1.510   3.191
 3655SOL    HW111861   2.195   1.466   3.104
 3655SOL    HW211862   2.313   1.536   3.194
 3656SOL     OW11863   2.264   0.751   3.460
 3656SOL    HW111864   2.332   0.806   3.413
 3656SOL    HW211865   2.304   0.663   3.487
 3657SOL     OW11866   3.449   0.779   3.532
 3657SOL    HW111867   3.357   0.817   3.527
 3657SOL    HW211868   3.509   0.826   3.467
 3658SOL     OW11869   2.875   0.105   3.632
 3658SOL    HW111870   2.881   0.190   3.580
 3658SOL    HW211871   2.907   0.029   3.575
 3659SOL     OW11872   2.366   0.050   3.602
 3659SOL    HW111873   2.324  -0.007   3.532
 3659SOL    HW211874   2.300   0.119   3.634
 3660SOL     OW11875   2.435   0.870   2.891
 3660SOL    HW111876   2.479   0.959   2.882
 3660SOL    HW211877   2.372   0.870   2.968
 3661SOL     OW11878   3.222   0.862   2.907
 3661SOL    HW111879   3.147   0.862   2.841
 3661SOL    HW211880   3.259   0.770   2.916
 3662SOL     OW11881   3.071   0.525   2.137
 3662SOL    HW111882   3.084   0.441   2.191
 3662SOL    HW211883   3.042   0.599   2.197
 3663SOL     OW11884   2.169   0.213   3.093
 3663SOL    HW111885   2.146   0.250   3.183
 3663SOL    HW211886   2.139   0.118   3.087
 3664SOL     OW11887   1.899   1.310   3.144
 3664SOL    HW111888   1.952   1.261   3.212
 3664SOL    HW211889   1.921   1.408   3.149
 3665SOL     OW11890   2.594   0.634   2.926
 3665SOL    HW111891   2.653   0.608   2.850
 3665SOL    HW211892   2.566   0.730   2.915
 3666SOL     OW11893   3.590   0.935   3.716
 3666SOL    HW111894   3.544   0.928   3.627
 3666SOL    HW211895   3.528   0.979   3.782
 3667SOL     OW11896   2.169   0.063   2.480
 3667SOL    HW111897   2.158   0.157   2.513
 3667SOL    HW211898   2.164   0.000   2.557
 3668SOL     OW11899   3.484   0.367   2.236
 3668SOL    HW111900   3.486   0.291   2.300
 3668SOL    HW211901   3.436   0.444   2.276
 3669SOL     OW11902   2.885   0.766   2.828
 3669SOL    HW111903   2.900   0.787   2.924
 3669SOL    HW211904   2.855   0.671   2.819
 3670SOL     OW11905   2.842   1.573   3.562
 3670SOL    HW111906   2.822   1.617   3.474
 3670SOL    HW211907   2.881   1.482   3.546
 3671SOL     OW11908   3.721   1.518   3.467
 3671SOL    HW111909   3.735   1.545   3.372
 3671SOL    HW211910   3.804   1.540   3.520
 3672SOL     OW11911   2.212   0.898   3.666
 3672SOL    HW111912   2.288   0.942   3.714
 3672SOL    HW211913   2.247   0.851   3.584
 3673SOL     OW11914   3.402   0.274   1.987
 3673SOL    HW111915   3.341   0.199   2.010
 3673SOL    HW211916   3.424   0.326   2.070
 3674SOL     OW11917   3.165   0.838   1.904
 3674SOL    HW111918   3.199   0.745   1.919
 3674SOL    HW211919   3.183   0.865   1.809
 3675SOL     OW11920   2.930   1.333   2.711
 3675SOL    HW111921   2.937   1.249   2.656
 3675SOL    HW211922   2.992   1.402   2.675
 3676SOL     OW11923   2.181   0.810   2.811
 3676SOL    HW111924   2.274   0.846   2.816
 3676SOL    HW211925   2.175   0.725   2.863
 3677SOL     OW11926   2.201   0.509   2.868
 3677SOL    HW111927   2.149   0.426   2.851
 3677SOL    HW211928   2.278   0.514   2.804
 3678SOL     OW11929   3.000   0.380   3.540
 3678SOL    HW111930   2.955   0.443   3.604
 3678SOL    HW211931   3.093   0.411   3.523
 3679SOL     OW11932   3.022   0.207   3.339
 3679SOL    HW111933   3.022   0.271   3.416
 3679SOL    HW211934   3.050   0.255   3.256
 3680SOL     OW11935   1.870   1.326   2.062
 3680SOL    HW111936   1.777   1.347   2.031
 3680SOL    HW211937   1.880   1.227   2.075
 3681SOL     OW11938   2.366   1.568   2.772
 3681SOL    HW111939   2.432   1.642   2.781
 3681SOL    HW211940   2.410   1.489   2.730
 3682SOL     OW11941   2.864   0.796   3.100
 3682SOL    HW111942   2.905   0.764   3.186
 3682SOL    HW211943   2.768   0.769   3.097
 3683SOL     OW11944   1.902   0.544   2.976
 3683SOL    HW111945   1.987   0.511   2.935
 3683SOL    HW211946   1.915   0.559   3.074
 3684SOL     OW11947   2.051   0.520   3.584
 3684SOL    HW111948   2.110   0.480   3.514
 3684SOL    HW211949   1.993   0.591   3.543
 3685SOL     OW11950   3.231   0.950   3.522
 3685SOL    HW111951   3.270   1.039   3.542
 3685SOL    HW211952   3.241   0.930   3.425
 3686SOL     OW11953   2.677   0.572   2.187
 3686SOL    HW111954   2.684   0.483   2.141
 3686SOL    HW211955   2.583   0.606   2.179
 3687SOL     OW11956   3.519   0.604   3.068
 3687SOL    HW111957   3.481   0.535   3.130
 3687SOL    HW211958   3.601   0.568   3.024
 3688SOL     OW11959   2.114   1.564   3.606
 3688SOL    HW111960   2.084   1.621   3.682
 3688SOL    HW211961   2.107   1.467   3.632
 3689SOL     OW11962   2.533   0.464   3.131
 3689SOL    HW111963   2.499   0.375   3.101
 3689SOL    HW211964   2.559   0.518   3.051
 3690SOL     OW11965   2.792   1.678   3.327
 3690SOL    HW111966   2.768   1.660   3.232
 3690SOL    HW211967   2.822   1.772   3.337
 3691SOL     OW11968   2.335   0.500   2.053
 3691SOL    HW111969   2.396   0.580   2.057
 3691SOL    HW211970   2.240   0.531   2.060
 3692SOL     OW11971   2.021   1.137   3.328
 3692SOL    HW111972   2.043   1.076   3.404
 3692SOL    HW211973   2.031   1.088   3.242
 3693SOL     OW11974   3.209   1.059   3.096
 3693SOL    HW111975   3.233   0.996   3.022
 3693SOL    HW211976   3.119   1.099   3.078
 3694SOL     OW11977   3.164   0.855   2.171
 3694SOL    HW111978   3.078   0.824   2.213
 3694SOL    HW211979   3.160   0.841   2.072
 3695SOL     OW11980   3.621   1.747   3.016
 3695SOL    HW111981   3.682   1.777   2.943
 3695SOL    HW211982   3.583   1.658   2.994
 3696SOL     OW11983   3.114   1.731   2.990
 3696SOL    HW111984   3.198   1.736   2.936
 3696SOL    HW211985   3.091   1.635   3.008
 3697SOL     OW11986   1.945   1.258   2.884
 3697SOL    HW111987   1.940   1.257   2.984
 3697SOL    HW211988   1.862   1.217   2.846
 3698SOL     OW11989   2.550   1.662   3.578
 3698SOL    HW111990   2.494   1.743   3.587
 3698SOL    HW211991   2.602   1.666   3.492
 3699SOL     OW11992   3.588   0.135   2.385
 3699SOL    HW111993   3.661   0.118   2.318
 3699SOL    HW211994   3.557   0.048   2.423
 3700SOL     OW11995   3.250   1.573   2.339
 3700SOL    HW111996   3.317   1.585   2.265
 3700SOL    HW211997   3.210   1.662   2.362
 3701SOL     OW11998   3.142   0.927   2.534
 3701SOL    HW111999   3.202   0.846   2.536
 3701SOL    HW212000   3.182   0.996   2.474
 3702SOL     OW12001   2.692   1.273   3.284
 3702SOL    HW112002   2.687   1.306   3.379
 3702SOL    HW212003   2.606   1.292   3.238
 3703SOL     OW12004   2.534   1.616   2.016
 3703SOL    HW112005   2.543   1.626   1.917
 3703SOL    HW212006   2.494   1.527   2.037
 3704SOL     OW12007   3.512   1.720   3.256
 3704SOL    HW112008   3.565   1.730   3.172
 3704SOL    HW212009   3.485   1.810   3.290
 3705SOL     OW12010   3.703   0.175   2.825
 3705SOL    HW112011   3.742   0.090   2.789
 3705SOL    HW212012   3.605   0.177   2.806
 3706SOL     OW12013   2.125   0.326   2.582
 3706SOL    HW112014   2.046   0.377   2.548
 3706SOL    HW212015   2.116   0.311   2.680
 3707SOL     OW12016   3.056   1.612   1.893
 3707SOL    HW112017   3.062   1.519   1.930
 3707SOL    HW212018   2.997   1.612   1.813
 3708SOL     OW12019   2.684   1.002   3.234
 3708SOL    HW112020   2.724   1.001   3.142
 3708SOL    HW212021   2.694   1.094   3.274
 3709SOL     OW12022   2.778   0.910   2.153
 3709SOL    HW112023   2.841   0.948   2.085
 3709SOL    HW212024   2.818   0.827   2.192
 3710SOL     OW12025   3.366   1.607   1.906
 3710SOL    HW112026   3.274   1.644   1.913
 3710SOL    HW212027   3.404   1.627   1.816
 3711SOL     OW12028   2.234   1.288   3.352
 3711SOL    HW112029   2.221   1.381   3.318
 3711SOL    HW212030   2.150   1.236   3.339
 3712SOL     OW12031   3.476   1.292   3.151
 3712SOL    HW112032   3.536   1.295   3.231
 3712SOL    HW212033   3.401   1.356   3.164
 3713SOL     OW12034   2.901   1.098   2.558
 3713SOL    HW112035   2.831   1.051   2.612
 3713SOL    HW212036   2.960   1.030   2.515
 3714SOL     OW12037   2.876   0.236   2.833
 3714SOL    HW112038   2.868   0.200   2.740
 3714SOL    HW212039   2.874   0.160   2.898
 3715SOL     OW12040   2.452   1.487   2.353
 3715SOL    HW112041   2.494   1.429   2.283
 3715SOL    HW212042   2.408   1.566   2.309
 3716SOL     OW12043   3.571   0.385   3.243
 3716SOL    HW112044   3.644   0.454   3.247
 3716SOL    HW212045   3.599   0.310   3.184
 3717SOL     OW12046   2.117   1.348   2.152
 3717SOL    HW112047   2.021   1.349   2.125
 3717SOL    HW212048   2.129   1.401   2.236
 3718SOL     OW12049   1.967   1.013   3.588
 3718SOL    HW112050   1.890   0.980   3.642
 3718SOL    HW212051   2.052   0.983   3.630
 3719SOL     OW12052   2.534   0.203   3.351
 3719SOL    HW112053   2.624   0.187   3.311
 3719SOL    HW212054   2.542   0.208   3.450
 3720SOL     OW12055   1.937   0.345   1.895
 3720SOL    HW112056   1.845   0.317   1.866
 3720SOL    HW212057   1.968   0.422   1.839
 3721SOL     OW12058   3.302   0.856   3.260
 3721SOL    HW112059   3.245   0.908   3.197
 3721SOL    HW212060   3.398   0.868   3.236
 3722SOL     OW12061   1.934   0.166   2.180
 3722SOL    HW112062   1.917   0.249   2.126
 3722SOL    HW212063   2.024   0.129   2.158
 3723SOL     OW12064   3.045   1.335   1.981
 3723SOL    HW112065   2.946   1.324   1.983
 3723SOL    HW212066   3.079   1.350   2.074
 3724SOL     OW12067   2.475   0.842   3.293
 3724SOL    HW112068   2.531   0.923   3.276
 3724SOL    HW212069   2.534   0.762   3.296
 3725SOL     OW12070   3.355   1.767   2.821
 3725SOL    HW112071   3.388   1.831   2.752
 3725SOL    HW212072   3.421   1.761   2.896
 3726SOL     OW12073   2.578   0.565   3.570
 3726SOL    HW112074   2.597   0.630   3.644
 3726SOL    HW212075   2.638   0.485   3.579
 3727SOL     OW12076   3.312   1.220   3.495
 3727SOL    HW112077   3.303   1.210   3.594
 3727SOL    HW212078   3.408   1.213   3.469
 3728SOL     OW12079   2.252   1.741   3.422
 3728SOL    HW112080   2.161   1.782   3.420
 3728SOL    HW212081   2.245   1.647   3.454
 3729SOL     OW12082   3.536   0.883   3.116
 3729SOL    HW112083   3.509   0.794   3.079
 3729SOL    HW212084   3.537   0.951   3.043
 3730SOL     OW12085   3.087   0.325   2.311
 3730SOL    HW112086   3.152   0.251   2.300
 3730SOL    HW212087   3.107   0.375   2.395
 3731SOL     OW12088   2.456   0.745   2.514
 3731SOL    HW112089   2.506   0.830   2.495
 3731SOL    HW212090   2.368   0.747   2.466
 3732SOL     OW12091   3.639   0.342   3.504
 3732SOL    HW112092   3.622   0.373   3.410
 3732SOL    HW212093   3.555   0.305   3.542
 3733SOL     OW12094   3.592   0.934   3.379
 3733SOL    HW112095   3.630   1.025   3.394
 3733SOL    HW212096   3.584   0.917   3.280
 3734SOL     OW12097   2.721   1.374   1.878
 3734SOL    HW112098   2.675   1.389   1.966
 3734SOL    HW212099   2.765   1.459   1.848
 3735SOL     OW12100   2.523   1.790   2.815
 3735SOL    HW112101   2.477   1.878   2.802
 3735SOL    HW212102   2.622   1.802   2.808
 3736SOL     OW12103   2.721   0.956   2.723
 3736SOL    HW112104   2.775   0.887   2.771
 3736SOL    HW212105   2.689   1.025   2.789
 3737SOL     OW12106   2.945   0.984   1.949
 3737SOL    HW112107   2.922   1.037   1.867
 3737SOL    HW212108   3.026   0.928   1.930
 3738SOL     OW12109   3.723   1.569   2.713
 3738SOL    HW112110   3.652   1.557   2.643
 3738SOL    HW212111   3.724   1.490   2.773
 3739SOL     OW12112   2.083   1.314   3.706
 3739SOL    HW112113   2.018   1.241   3.685
 3739SOL    HW212114   2.087   1.328   3.804
 3740SOL     OW12115   1.941   1.240   2.515
 3740SOL    HW112116   1.940   1.193   2.603
 3740SOL    HW212117   2.023   1.212   2.464
 3741SOL     OW12118   2.534   1.391   3.486
 3741SOL    HW112119   2.456   1.341   3.524
 3741SOL    HW212120   2.531   1.486   3.517
 3742SOL     OW12121   3.686   0.192   3.089
 3742SOL    HW112122   3.682   0.102   3.133
 3742SOL    HW212123   3.689   0.181   2.990
 3743SOL     OW12124   2.290   0.424   2.382
 3743SOL    HW112125   2.320   0.352   2.320
 3743SOL    HW212126   2.251   0.384   2.465
 3744SOL     OW12127   3.567   1.487   2.966
 3744SOL    HW112128   3.474   1.462   2.939
 3744SOL    HW212129   3.593   1.437   3.048
 3745SOL     OW12130   2.179   0.547   3.142
 3745SOL    HW112131   2.217   0.488   3.214
 3745SOL    HW212132   2.219   0.521   3.054
 3746SOL     OW12133   2.674   1.586   2.549
 3746SOL    HW112134   2.706   1.596   2.455
 3746SOL    HW212135   2.595   1.524   2.551
 3747SOL     OW12136   3.286   0.214   2.974
 3747SOL    HW112137   3.338   0.149   3.029
 3747SOL    HW212138   3.237   0.277   3.035
 3748SOL     OW12139   2.863   0.034   3.016
 3748SOL    HW112140   2.800  -0.038   2.985
 3748SOL    HW212141   2.956  -0.002   3.016
 3749SOL     OW12142   2.632   1.330   2.163
 3749SOL    HW112143   2.586   1.243   2.180
 3749SOL    HW212144   2.723   1.327   2.204
 3750SOL     OW12145   2.480   1.567   3.146
 3750SOL    HW112146   2.475   1.649   3.203
 3750SOL    HW212147   2.569   1.564   3.101
 3751SOL     OW12148   3.214   0.052   2.030
 3751SOL    HW112149   3.249   0.011   1.946
 3751SOL    HW212150   3.124   0.014   2.050
 3752SOL     OW12151   3.162   0.453   2.553
 3752SOL    HW112152   3.103   0.533   2.557
 3752SOL    HW212153   3.177   0.418   2.646
 3753SOL     OW12154   3.455   0.221   2.744
 3753SOL    HW112155   3.371   0.220   2.798
 3753SOL    HW212156   3.457   0.304   2.688
 3754SOL     OW12157   1.901   1.077   2.162
 3754SOL    HW112158   2.000   1.066   2.153
 3754SOL    HW212159   1.861   0.991   2.194
 3755SOL     OW12160   2.737   1.646   2.199
 3755SOL    HW112161   2.660   1.611   2.145
 3755SOL    HW212162   2.705   1.717   2.261
 3756SOL     OW12163   2.092   0.628   3.837
 3756SOL    HW112164   1.999   0.626   3.874
 3756SOL    HW212165   2.093   0.589   3.745
 3757SOL     OW12166   2.087   0.275   4.720
 3757SOL    HW112167   2.122   0.258   4.812
 3757SOL    HW212168   1.999   0.230   4.708
 3758SOL     OW12169   1.881   0.368   4.371
 3758SOL    HW112170   1.799   0.411   4.410
 3758SOL    HW212171   1.853   0.295   4.308
 3759SOL     OW12172   2.431   1.275   4.889
 3759SOL    HW112173   2.338   1.268   4.852
 3759SOL    HW212174   2.442   1.364   4.933
 3760SOL     OW12175   3.417   1.511   4.427
 3760SOL    HW112176   3.360   1.495   4.508
 3760SOL    HW212177   3.358   1.521   4.347
 3761SOL     OW12178   2.997   0.703   4.441
 3761SOL    HW112179   3.054   0.781   4.416
 3761SOL    HW212180   2.937   0.729   4.517
 3762SOL     OW12181   3.617   0.607   3.955
 3762SOL    HW112182   3.605   0.594   3.856
 3762SOL    HW212183   3.587   0.526   4.004
 3763SOL     OW12184   2.630   1.144   4.747
 3763SOL    HW112185   2.552   1.161   4.807
 3763SOL    HW212186   2.664   1.231   4.711
 3764SOL     OW12187   2.712   0.798   5.547
 3764SOL    HW112188   2.708   0.874   5.612
 3764SOL    HW212189   2.734   0.834   5.456
 3765SOL     OW12190   2.547   1.012   4.389
 3765SOL    HW112191   2.616   0.996   4.459
 3765SOL    HW212192   2.474   1.069   4.427
 3766SOL     OW12193   2.548   1.161   5.527
 3766SOL    HW112194   2.608   1.240   5.541
 3766SOL    HW212195   2.462   1.192   5.486
 3767SOL     OW12196   2.197   1.435   4.785
 3767SOL    HW112197   2.119   1.404   4.732
 3767SOL    HW212198   2.255   1.493   4.728
 3768SOL     OW12199   3.322   1.505   5.063
 3768SOL    HW112200   3.346   1.599   5.089
 3768SOL    HW212201   3.306   1.451   5.145
 3769SOL     OW12202   2.300   0.392   5.223
 3769SOL    HW112203   2.382   0.336   5.232
 3769SOL    HW212204   2.219   0.334   5.227
 3770SOL     OW12205   3.465   0.447   4.461
 3770SOL    HW112206   3.391   0.493   4.411
 3770SOL    HW212207   3.516   0.515   4.514
 3771SOL     OW12208   2.093   1.713   4.207
 3771SOL    HW112209   2.127   1.790   4.261
 3771SOL    HW212210   2.137   1.713   4.117
 3772SOL     OW12211   2.989   1.341   5.414
 3772SOL    HW112212   3.036   1.341   5.502
 3772SOL    HW212213   2.941   1.254   5.403
 3773SOL     OW12214   2.092   1.434   4.262
 3773SOL    HW112215   2.066   1.530   4.262
 3773SOL    HW212216   2.021   1.380   4.307
 3774SOL     OW12217   2.102   1.091   4.610
 3774SOL    HW112218   2.116   1.007   4.662
 3774SOL    HW212219   2.047   1.155   4.665
 3775SOL     OW12220   2.482   1.786   5.163
 3775SOL    HW112221   2.390   1.769   5.198
 3775SOL    HW212222   2.510   1.878   5.189
 3776SOL     OW12223   2.468   0.964   3.847
 3776SOL    HW112224   2.475   1.048   3.793
 3776SOL    HW212225   2.514   0.977   3.935
 3777SOL     OW12226   3.456   0.114   5.204
 3777SOL    HW112227   3.438   0.181   5.132
 3777SOL    HW212228   3.453   0.160   5.293
 3778SOL     OW12229   1.984   0.643   4.287
 3778SOL    HW112230   1.939   0.555   4.304
 3778SOL    HW212231   1.983   0.697   4.371
 3779SOL     OW12232   3.704   1.767   4.083
 3779SOL    HW112233   3.758   1.738   4.163
 3779SOL    HW212234   3.734   1.857   4.054
 3780SOL     OW12235   1.889   1.596   3.841
 3780SOL    HW112236   1.870   1.500   3.862
 3780SOL    HW212237   1.856   1.654   3.916
 3781SOL     OW12238   3.551   0.922   4.336
 3781SOL    HW112239   3.646   0.893   4.344
 3781SOL    HW212240   3.543   0.987   4.261
 3782SOL     OW12241   3.503   1.108   4.156
 3782SOL    HW112242   3.589   1.110   4.104
 3782SOL    HW212243   3.517   1.155   4.244
 3783SOL     OW12244   1.975   0.737   5.321
 3783SOL    HW112245   2.063   0.724   5.366
 3783SOL    HW212246   1.962   0.834   5.299
 3784SOL     OW12247   2.475   1.365   4.450
 3784SOL    HW112248   2.426   1.278   4.459
 3784SOL    HW212249   2.452   1.408   4.363
 3785SOL     OW12250   3.155   1.228   5.147
 3785SOL    HW112251   3.192   1.155   5.089
 3785SOL    HW212252   3.207   1.233   5.232
 3786SOL     OW12253   2.671   0.004   4.226
 3786SOL    HW112254   2.711   0.095   4.217
 3786SOL    HW212255   2.571   0.012   4.232
 3787SOL     OW12256   2.059   0.976   4.988
 3787SOL    HW112257   2.148   0.931   4.974
 3787SOL    HW212258   1.986   0.911   4.969
 3788SOL     OW12259   3.387   0.999   3.914
 3788SOL    HW112260   3.324   0.923   3.927
 3788SOL    HW212261   3.435   1.017   4.000
 3789SOL     OW12262   3.049   1.792   5.340
 3789SOL    HW112263   3.073   1.852   5.264
 3789SOL    HW212264   3.056   1.697   5.310
 3790SOL     OW12265   2.179   0.251   5.525
 3790SOL    HW112266   2.250   0.322   5.531
 3790SOL    HW212267   2.091   0.290   5.553
 3791SOL     OW12268   3.328   1.417   4.677
 3791SOL    HW112269   3.269   1.423   4.757
 3791SOL    HW212270   3.313   1.329   4.631
 3792SOL     OW12271   3.529   1.714   4.296
 3792SOL    HW112272   3.488   1.691   4.208
 3792SOL    HW212273   3.511   1.640   4.361
 3793SOL     OW12274   2.460   0.729   3.994
 3793SOL    HW112275   2.484   0.798   3.926
 3793SOL    HW212276   2.382   0.762   4.048
 3794SOL     OW12277   3.143   0.345   4.668
 3794SOL    HW112278   3.057   0.295   4.655
 3794SOL    HW212279   3.205   0.291   4.724
 3795SOL     OW12280   3.438   1.662   4.031
 3795SOL    HW112281   3.527   1.708   4.034
 3795SOL    HW212282   3.417   1.638   3.936
 3796SOL     OW12283   2.669   0.605   5.189
 3796SOL    HW112284   2.622   0.602   5.278
 3796SOL    HW212285   2.618   0.550   5.123
 3797SOL     OW12286   3.256   0.469   5.398
 3797SOL    HW112287   3.236   0.512   5.486
 3797SOL    HW212288   3.334   0.407   5.407
 3798SOL     OW12289   2.835   0.890   5.296
 3798SOL    HW112290   2.881   0.806   5.267
 3798SOL    HW212291   2.779   0.924   5.221
 3799SOL     OW12292   2.853   0.410   4.966
 3799SOL    HW112293   2.776   0.444   5.020
 3799SOL    HW212294   2.819   0.359   4.887
 3800SOL     OW12295   2.903   0.701   4.153
 3800SOL    HW112296   2.929   0.697   4.249
 3800SOL    HW212297   2.818   0.650   4.139
 3801SOL     OW12298   1.938   0.811   4.513
 3801SOL    HW112299   2.037   0.799   4.522
 3801SOL    HW212300   1.914   0.906   4.534
 3802SOL     OW12301   2.727   0.348   3.919
 3802SOL    HW112302   2.786   0.411   3.870
 3802SOL    HW212303   2.746   0.254   3.890
 3803SOL     OW12304   3.581   0.585   5.555
 3803SOL    HW112305   3.555   0.674   5.519
 3803SOL    HW212306   3.579   0.517   5.482
 3804SOL     OW12307   3.224   1.144   4.269
 3804SOL    HW112308   3.307   1.115   4.221
 3804SOL    HW212309   3.175   1.211   4.213
 3805SOL     OW12310   2.412   0.196   4.609
 3805SOL    HW112311   2.407   0.191   4.709
 3805SOL    HW212312   2.414   0.292   4.580
 3806SOL     OW12313   2.870   1.456   4.201
 3806SOL    HW112314   2.824   1.528   4.149
 3806SOL    HW212315   2.866   1.476   4.299
 3807SOL     OW12316   2.213   1.801   4.577
 3807SOL    HW112317   2.263   1.715   4.583
 3807SOL    HW212318   2.278   1.878   4.574
 3808SOL     OW12319   3.657   1.066   4.597
 3808SOL    HW112320   3.595   1.051   4.521
 3808SOL    HW212321   3.605   1.077   4.682
 3809SOL     OW12322   3.089   1.550   5.230
 3809SOL    HW112323   3.095   1.473   5.294
 3809SOL    HW212324   3.037   1.524   5.150
 3810SOL     OW12325   2.183   0.943   3.966
 3810SOL    HW112326   2.265   0.982   3.924
 3810SOL    HW212327   2.156   0.861   3.917
 3811SOL     OW12328   3.320   0.735   4.452
 3811SOL    HW112329   3.315   0.670   4.527
 3811SOL    HW212330   3.400   0.794   4.465
 3812SOL     OW12331   2.323   1.266   5.451
 3812SOL    HW112332   2.273   1.267   5.365
 3812SOL    HW212333   2.260   1.248   5.527
 3813SOL     OW12334   2.973   1.776   3.961
 3813SOL    HW112335   2.913   1.714   4.011
 3813SOL    HW212336   3.004   1.732   3.876
 3814SOL     OW12337   2.064   0.285   5.222
 3814SOL    HW112338   1.984   0.345   5.209
 3814SOL    HW212339   2.054   0.236   5.308
 3815SOL     OW12340   3.494   1.377   3.805
 3815SOL    HW112341   3.462   1.471   3.795
 3815SOL    HW212342   3.418   1.314   3.793
 3816SOL     OW12343   2.326   1.743   4.047
 3816SOL    HW112344   2.359   1.782   4.133
 3816SOL    HW212345   2.402   1.736   3.982
 3817SOL     OW12346   3.262   0.107   4.150
 3817SOL    HW112347   3.238   0.070   4.060
 3817SOL    HW212348   3.361   0.123   4.154
 3818SOL     OW12349   2.111   1.785   4.965
 3818SOL    HW112350   2.168   1.720   5.015
 3818SOL    HW212351   2.095   1.752   4.872
 3819SOL     OW12352   2.802   1.698   4.628
 3819SOL    HW112353   2.882   1.641   4.649
 3819SOL    HW212354   2.753   1.658   4.551
 3820SOL     OW12355   2.244   0.700   4.204
 3820SOL    HW112356   2.289   0.610   4.201
 3820SOL    HW212357   2.150   0.689   4.237
 3821SOL     OW12358   3.409   0.222   5.453
 3821SOL    HW112359   3.404   0.259   5.545
 3821SOL    HW212360   3.337   0.153   5.441
 3822SOL     OW12361   2.476   0.122   3.841
 3822SOL    HW112362   2.574   0.100   3.848
 3822SOL    HW212363   2.445   0.105   3.748
 3823SOL     OW12364   2.643   0.264   5.473
 3823SOL    HW112365   2.710   0.203   5.516
 3823SOL    HW212366   2.570   0.283   5.538
 3824SOL     OW12367   2.750   1.514   4.919
 3824SOL    HW112368   2.727   1.489   4.825
 3824SOL    HW212369   2.811   1.445   4.958
 3825SOL     OW12370   3.213   0.590   5.157
 3825SOL    HW112371   3.241   0.547   5.242
 3825SOL    HW212372   3.238   0.686   5.158
 3826SOL     OW12373   2.665   1.402   4.648
 3826SOL    HW112374   2.755   1.416   4.606
 3826SOL    HW212375   2.594   1.404   4.577
 3827SOL     OW12376   2.784   0.503   4.623
 3827SOL    HW112377   2.759   0.494   4.527
 3827SOL    HW212378   2.832   0.421   4.654
 3828SOL     OW12379   2.401   0.064   4.236
 3828SOL    HW112380   2.320   0.065   4.294
 3828SOL    HW212381   2.404   0.147   4.181
 3829SOL     OW12382   3.296   1.188   3.765
 3829SOL    HW112383   3.328   1.112   3.822
 3829SOL    HW212384   3.204   1.215   3.795
 3830SOL     OW12385   2.159   0.035   3.895
 3830SOL    HW112386   2.208   0.119   3.874
 3830SOL    HW212387   2.221  -0.030   3.940
 3831SOL     OW12388   2.797   0.236   4.204
 3831SOL    HW112389   2.749   0.277   4.126
 3831SOL    HW212390   2.896   0.234   4.185
 3832SOL     OW12391   2.938   0.683   5.188
 3832SOL    HW112392   2.858   0.622   5.191
 3832SOL    HW212393   3.019   0.630   5.164
 3833SOL     OW12394   3.089   1.570   4.517
 3833SOL    HW112395   3.110   1.644   4.452
 3833SOL    HW212396   3.157   1.570   4.590
 3834SOL     OW12397   2.321   1.152   4.465
 3834SOL    HW112398   2.250   1.125   4.530
 3834SOL    HW212399   2.295   1.124   4.372
 3835SOL     OW12400   3.133   1.797   4.315
 3835SOL    HW112401   3.177   1.861   4.251
 3835SOL    HW212402   3.083   1.849   4.385
 3836SOL     OW12403   2.894   0.549   3.740
 3836SOL    HW112404   2.853   0.631   3.701
 3836SOL    HW212405   2.958   0.575   3.813
 3837SOL     OW12406   1.940   0.556   5.110
 3837SOL    HW112407   2.032   0.555   5.069
 3837SOL    HW212408   1.934   0.630   5.177
 3838SOL     OW12409   2.423   0.222   4.871
 3838SOL    HW112410   2.461   0.138   4.908
 3838SOL    HW212411   2.335   0.241   4.915
 3839SOL     OW12412   2.728   0.454   4.366
 3839SOL    HW112413   2.696   0.526   4.304
 3839SOL    HW212414   2.752   0.373   4.313
 3840SOL     OW12415   2.879   0.039   4.477
 3840SOL    HW112416   2.807   0.044   4.408
 3840SOL    HW212417   2.855  -0.030   4.546
 3841SOL     OW12418   3.291   1.173   4.591
 3841SOL    HW112419   3.236   1.089   4.584
 3841SOL    HW212420   3.317   1.202   4.499
 3842SOL     OW12421   3.328   0.590   4.716
 3842SOL    HW112422   3.298   0.495   4.723
 3842SOL    HW212423   3.401   0.606   4.782
 3843SOL     OW12424   3.719   0.833   4.101
 3843SOL    HW112425   3.761   0.769   4.165
 3843SOL    HW212426   3.681   0.782   4.023
 3844SOL     OW12427   2.350   1.385   3.898
 3844SOL    HW112428   2.263   1.370   3.945
 3844SOL    HW212429   2.333   1.411   3.803
 3845SOL     OW12430   3.526   1.280   4.381
 3845SOL    HW112431   3.625   1.288   4.395
 3845SOL    HW212432   3.481   1.364   4.412
 3846SOL     OW12433   3.252   0.575   3.802
 3846SOL    HW112434   3.198   0.554   3.883
 3846SOL    HW212435   3.343   0.534   3.811
 3847SOL     OW12436   2.389   0.256   4.052
 3847SOL    HW112437   2.416   0.197   3.977
 3847SOL    HW212438   2.389   0.351   4.021
 3848SOL     OW12439   3.616   1.223   5.312
 3848SOL    HW112440   3.707   1.184   5.299
 3848SOL    HW212441   3.624   1.319   5.336
 3849SOL     OW12442   2.926   1.347   5.064
 3849SOL    HW112443   2.846   1.324   5.119
 3849SOL    HW212444   3.009   1.321   5.113
 3850SOL     OW12445   3.454   1.629   5.349
 3850SOL    HW112446   3.481   1.663   5.259
 3850SOL    HW212447   3.533   1.591   5.395
 3851SOL     OW12448   2.973   1.195   4.824
 3851SOL    HW112449   2.933   1.239   4.905
 3851SOL    HW212450   2.932   1.232   4.741
 3852SOL     OW12451   3.500   1.099   4.803
 3852SOL    HW112452   3.505   1.180   4.862
 3852SOL    HW212453   3.414   1.101   4.752
 3853SOL     OW12454   2.777   0.089   5.126
 3853SOL    HW112455   2.802   0.069   5.031
 3853SOL    HW212456   2.849   0.145   5.168
 3854SOL     OW12457   2.842   1.116   5.443
 3854SOL    HW112458   2.743   1.122   5.453
 3854SOL    HW212459   2.865   1.036   5.387
 3855SOL     OW12460   2.567   1.050   4.092
 3855SOL    HW112461   2.553   1.057   4.191
 3855SOL    HW212462   2.651   0.999   4.074
 3856SOL     OW12463   2.272   0.813   4.975
 3856SOL    HW112464   2.358   0.825   5.025
 3856SOL    HW212465   2.230   0.726   5.002
 3857SOL     OW12466   3.136   0.386   4.986
 3857SOL    HW112467   3.157   0.460   5.050
 3857SOL    HW212468   3.047   0.403   4.943
 3858SOL     OW12469   2.229   1.100   4.225
 3858SOL    HW112470   2.222   1.183   4.169
 3858SOL    HW212471   2.233   1.020   4.165
 3859SOL     OW12472   2.428   0.537   4.589
 3859SOL    HW112473   2.440   0.603   4.515
 3859SOL    HW212474   2.474   0.571   4.672
 3860SOL     OW12475   3.114   1.348   4.112
 3860SOL    HW112476   3.164   1.425   4.152
 3860SOL    HW212477   3.019   1.350   4.144
 3861SOL     OW12478   3.134   1.445   4.866
 3861SOL    HW112479   3.181   1.458   4.953
 3861SOL    HW212480   3.068   1.371   4.875
 3862SOL     OW12481   3.444   0.639   4.196
 3862SOL    HW112482   3.413   0.700   4.269
 3862SOL    HW212483   3.494   0.691   4.127
 3863SOL     OW12484   2.216   1.510   5.053
 3863SOL    HW112485   2.195   1.466   4.966
 3863SOL    HW212486   2.313   1.536   5.056
 3864SOL     OW12487   2.264   0.751   5.322
 3864SOL    HW112488   2.332   0.806   5.275
 3864SOL    HW212489   2.304   0.663   5.349
 3865SOL     OW12490   3.449   0.779   5.394
 3865SOL    HW112491   3.357   0.817   5.389
 3865SOL    HW212492   3.509   0.826   5.329
 3866SOL     OW12493   2.875   0.105   5.494
 3866SOL    HW112494   2.881   0.190   5.442
 3866SOL    HW212495   2.907   0.029   5.437
 3867SOL     OW12496   2.366   0.050   5.464
 3867SOL    HW112497   2.324  -0.007   5.394
 3867SOL    HW212498   2.300   0.119   5.496
 3868SOL     OW12499   2.435   0.870   4.753
 3868SOL    HW112500   2.479   0.959   4.744
 3868SOL    HW212501   2.372   0.870   4.830
 3869SOL     OW12502   3.222   0.862   4.769
 3869SOL    HW112503   3.147   0.862   4.703
 3869SOL    HW212504   3.259   0.770   4.778
 3870SOL     OW12505   3.071   0.525   3.999
 3870SOL    HW112506   3.084   0.441   4.053
 3870SOL    HW212507   3.042   0.599   4.059
 3871SOL     OW12508   2.169   0.213   4.955
 3871SOL    HW112509   2.146   0.250   5.045
 3871SOL    HW212510   2.139   0.118   4.949
 3872SOL     OW12511   1.899   1.310   5.006
 3872SOL    HW112512   1.952   1.261   5.074
 3872SOL    HW212513   1.921   1.408   5.011
 3873SOL     OW12514   2.594   0.634   4.788
 3873SOL    HW112515   2.653   0.608   4.712
 3873SOL    HW212516   2.566   0.730   4.777
 3874SOL     OW12517   3.590   0.935   5.578
 3874SOL    HW112518   3.544   0.928   5.489
 3874SOL    HW212519   3.528   0.979   5.644
 3875SOL     OW12520   2.169   0.063   4.342
 3875SOL    HW112521   2.158   0.157   4.375
 3875SOL    HW212522   2.164   0.000   4.419
 3876SOL     OW12523   3.484   0.367   4.098
 3876SOL    HW112524   3.486   0.291   4.162
 3876SOL    HW212525   3.436   0.444   4.138
 3877SOL     OW12526   2.885   0.766   4.690
 3877SOL    HW112527   2.900   0.787   4.786
 3877SOL    HW212528   2.855   0.671   4.681
 3878SOL     OW12529   2.842   1.573   5.424
 3878SOL    HW112530   2.822   1.617   5.336
 3878SOL    HW212531   2.881   1.482   5.408
 3879SOL     OW12532   3.721   1.518   5.329
 3879SOL    HW112533   3.735   1.545   5.234
 3879SOL    HW212534   3.804   1.540   5.382
 3880SOL     OW12535   2.212   0.898   5.528
 3880SOL    HW112536   2.288   0.942   5.576
 3880SOL    HW212537   2.247   0.851   5.446
 3881SOL     OW12538   3.402   0.274   3.849
 3881SOL    HW112539   3.341   0.199   3.872
 3881SOL    HW212540   3.424   0.326   3.932
 3882SOL     OW12541   3.165   0.838   3.766
 3882SOL    HW112542   3.199   0.745   3.781
 3882SOL    HW212543   3.183   0.865   3.671
 3883SOL     OW12544   2.930   1.333   4.573
 3883SOL    HW112545   2.937   1.249   4.518
 3883SOL    HW212546   2.992   1.402   4.537
 3884SOL     OW12547   2.181   0.810   4.673
 3884SOL    HW112548   2.274   0.846   4.678
 3884SOL    HW212549   2.175   0.725   4.725
 3885SOL     OW12550   2.201   0.509   4.730
 3885SOL    HW112551   2.149   0.426   4.713
 3885SOL    HW212552   2.278   0.514   4.666
 3886SOL     OW12553   3.000   0.380   5.402
 3886SOL    HW112554   2.955   0.443   5.466
 3886SOL    HW212555   3.093   0.411   5.385
 3887SOL     OW12556   3.022   0.207   5.201
 3887SOL    HW112557   3.022   0.271   5.278
 3887SOL    HW212558   3.050   0.255   5.118
 3888SOL     OW12559   1.870   1.326   3.924
 3888SOL    HW112560   1.777   1.347   3.893
 3888SOL    HW212561   1.880   1.227   3.937
 3889SOL     OW12562   2.366   1.568   4.634
 3889SOL    HW112563   2.432   1.642   4.643
 3889SOL    HW212564   2.410   1.489   4.592
 3890SOL     OW12565   2.864   0.796   4.962
 3890SOL    HW112566   2.905   0.764   5.048
 3890SOL    HW212567   2.768   0.769   4.959
 3891SOL     OW12568   1.902   0.544   4.838
 3891SOL    HW112569   1.987   0.511   4.797
 3891SOL    HW212570   1.915   0.559   4.936
 3892SOL     OW12571   2.051   0.520   5.446
 3892SOL    HW112572   2.110   0.480   5.376
 3892SOL    HW212573   1.993   0.591   5.405
 3893SOL     OW12574   3.231   0.950   5.384
 3893SOL    HW112575   3.270   1.039   5.404
 3893SOL    HW212576   3.241   0.930   5.287
 3894SOL     OW12577   2.677   0.572   4.049
 3894SOL    HW112578   2.684   0.483   4.003
 3894SOL    HW212579   2.583   0.606   4.041
 3895SOL     OW12580   3.519   0.604   4.930
 3895SOL    HW112581   3.481   0.535   4.992
 3895SOL    HW212582   3.601   0.568   4.886
 3896SOL     OW12583   2.114   1.564   5.468
 3896SOL    HW112584   2.084   1.621   5.544
 3896SOL    HW212585   2.107   1.467   5.494
 3897SOL     OW12586   2.533   0.464   4.993
 3897SOL    HW112587   2.499   0.375   4.963
 3897SOL    HW212588   2.559   0.518   4.913
 3898SOL     OW12589   2.792   1.678   5.189
 3898SOL    HW112590   2.768   1.660   5.094
 3898SOL    HW212591   2.822   1.772   5.199
 3899SOL     OW12592   2.335   0.500   3.915
 3899SOL    HW112593   2.396   0.580   3.919
 3899SOL    HW212594   2.240   0.531   3.922
 3900SOL     OW12595   2.021   1.137   5.190
 3900SOL    HW112596   2.043   1.076   5.266
 3900SOL    HW212597   2.031   1.088   5.104
 3901SOL     OW12598   3.209   1.059   4.958
 3901SOL    HW112599   3.233   0.996   4.884
 3901SOL    HW212600   3.119   1.099   4.940
 3902SOL     OW12601   3.164   0.855   4.033
 3902SOL    HW112602   3.078   0.824   4.075
 3902SOL    HW212603   3.160   0.841   3.934
 3903SOL     OW12604   3.621   1.747   4.878
 3903SOL    HW112605   3.682   1.777   4.805
 3903SOL    HW212606   3.583   1.658   4.856
 3904SOL     OW12607   3.114   1.731   4.852
 3904SOL    HW112608   3.198   1.736   4.798
 3904SOL    HW212609   3.091   1.635   4.870
 3905SOL     OW12610   1.945   1.258   4.746
 3905SOL    HW112611   1.940   1.257   4.846
 3905SOL    HW212612   1.862   1.217   4.708
 3906SOL     OW12613   2.550   1.662   5.440
 3906SOL    HW112614   2.494   1.743   5.449
 3906SOL    HW212615   2.602   1.666   5.354
 3907SOL     OW12616   3.588   0.135   4.247
 3907SOL    HW112617   3.661   0.118   4.180
 3907SOL    HW212618   3.557   0.048   4.285
 3908SOL     OW12619   3.250   1.573   4.201
 3908SOL    HW112620   3.317   1.585   4.127
 3908SOL    HW212621   3.210   1.662   4.224
 3909SOL     OW12622   3.142   0.927   4.396
 3909SOL    HW112623   3.202   0.846   4.398
 3909SOL    HW212624   3.182   0.996   4.336
 3910SOL     OW12625   2.692   1.273   5.146
 3910SOL    HW112626   2.687   1.306   5.241
 3910SOL    HW212627   2.606   1.292   5.100
 3911SOL     OW12628   2.534   1.616   3.878
 3911SOL    HW112629   2.543   1.626   3.779
 3911SOL    HW212630   2.494   1.527   3.899
 3912SOL     OW12631   3.512   1.720   5.118
 3912SOL    HW112632   3.565   1.730   5.034
 3912SOL    HW212633   3.485   1.810   5.152
 3913SOL     OW12634   3.703   0.175   4.687
 3913SOL    HW112635   3.742   0.090   4.651
 3913SOL    HW212636   3.605   0.177   4.668
 3914SOL     OW12637   2.125   0.326   4.444
 3914SOL    HW112638   2.046   0.377   4.410
 3914SOL    HW212639   2.116   0.311   4.542
 3915SOL     OW12640   3.056   1.612   3.755
 3915SOL    HW112641   3.062   1.519   3.792
 3915SOL    HW212642   2.997   1.612   3.675
 3916SOL     OW12643   2.684   1.002   5.096
 3916SOL    HW112644   2.724   1.001   5.004
 3916SOL    HW212645   2.694   1.094   5.136
 3917SOL     OW12646   2.778   0.910   4.015
 3917SOL    HW112647   2.841   0.948   3.947
 3917SOL    HW212648   2.818   0.827   4.054
 3918SOL     OW12649   3.366   1.607   3.768
 3918SOL    HW112650   3.274   1.644   3.775
 3918SOL    HW212651   3.404   1.627   3.678
 3919SOL     OW12652   2.234   1.288   5.214
 3919SOL    HW112653   2.221   1.381   5.180
 3919SOL    HW212654   2.150   1.236   5.201
 3920SOL     OW12655   3.476   1.292   5.013
 3920SOL    HW112656   3.536   1.295   5.093
 3920SOL    HW212657   3.401   1.356   5.026
 3921SOL     OW12658   2.901   1.098   4.420
 3921SOL    HW112659   2.831   1.051   4.474
 3921SOL    HW212660   2.960   1.030   4.377
 3922SOL     OW12661   2.876   0.236   4.695
 3922SOL    HW112662   2.868   0.200   4.602
 3922SOL    HW212663   2.874   0.160   4.760
 3923SOL     OW12664   2.452   1.487   4.215
 3923SOL    HW112665   2.494   1.429   4.145
 3923SOL    HW212666   2.408   1.566   4.171
 3924SOL     OW12667   3.571   0.385   5.105
 3924SOL    HW112668   3.644   0.454   5.109
 3924SOL    HW212669   3.599   0.310   5.046
 3925SOL     OW12670   2.117   1.348   4.014
 3925SOL    HW112671   2.021   1.349   3.987
 3925SOL    HW212672   2.129   1.401   4.098
 3926SOL     OW12673   1.967   1.013   5.450
 3926SOL    HW112674   1.890   0.980   5.504
 3926SOL    HW212675   2.052   0.983   5.492
 3927SOL     OW12676   2.534   0.203   5.213
 3927SOL    HW112677   2.624   0.187   5.173
 3927SOL    HW212678   2.542   0.208   5.312
 3928SOL     OW12679   1.937   0.345   3.757
 3928SOL    HW112680   1.845   0.317   3.728
 3928SOL    HW212681   1.968   0.422   3.701
 3929SOL     OW12682   3.302   0.856   5.122
 3929SOL    HW112683   3.245   0.908   5.059
 3929SOL    HW212684   3.398   0.868   5.098
 3930SOL     OW12685   1.934   0.166   4.042
 3930SOL    HW112686   1.917   0.249   3.988
 3930SOL    HW212687   2.024   0.129   4.020
 3931SOL     OW12688   3.045   1.335   3.843
 3931SOL    HW112689   2.946   1.324   3.845
 3931SOL    HW212690   3.079   1.350   3.936
 3932SOL     OW12691   2.475   0.842   5.155
 3932SOL    HW112692   2.531   0.923   5.138
 3932SOL    HW212693   2.534   0.762   5.158
 3933SOL     OW12694   3.355   1.767   4.683
 3933SOL    HW112695   3.388   1.831   4.614
 3933SOL    HW212696   3.421   1.761   4.758
 3934SOL     OW12697   2.578   0.565   5.432
 3934SOL    HW112698   2.597   0.630   5.506
 3934SOL    HW212699   2.638   0.485   5.441
 3935SOL     OW12700   3.312   1.220   5.357
 3935SOL    HW112701   3.303   1.210   5.456
 3935SOL    HW212702   3.408   1.213   5.331
 3936SOL     OW12703   2.252   1.741   5.284
 3936SOL    HW112704   2.161   1.782   5.282
 3936SOL    HW212705   2.245   1.647   5.316
 3937SOL     OW12706   3.536   0.883   4.978
 3937SOL    HW112707   3.509   0.794   4.941
 3937SOL    HW212708   3.537   0.951   4.905
 3938SOL     OW12709   3.087   0.325   4.173
 3938SOL    HW112710   3.152   0.251   4.162
 3938SOL    HW212711   3.107   0.375   4.257
 3939SOL     OW12712   2.456   0.745   4.376
 3939SOL    HW112713   2.506   0.830   4.357
 3939SOL    HW212714   2.368   0.747   4.328
 3940SOL     OW12715   3.639   0.342   5.366
 3940SOL    HW112716   3.622   0.373   5.272
 3940SOL    HW212717   3.555   0.305   5.404
 3941SOL     OW12718   3.592   0.934   5.241
 3941SOL    HW112719   3.630   1.025   5.256
 3941SOL    HW212720   3.584   0.917   5.142
 3942SOL     OW12721   2.721   1.374   3.740
 3942SOL    HW112722   2.675   1.389   3.828
 3942SOL    HW212723   2.765   1.459   3.710
 3943SOL     OW12724   2.523   1.790   4.677
 3943SOL    HW112725   2.477   1.878   4.664
 3943SOL    HW212726   2.622   1.802   4.670
 3944SOL     OW12727   2.721   0.956   4.585
 3944SOL    HW112728   2.775   0.887   4.633
 3944SOL    HW212729   2.689   1.025   4.651
 3945SOL     OW12730   2.945   0.984   3.811
 3945SOL    HW112731   2.922   1.037   3.729
 3945SOL    HW212732   3.026   0.928   3.792
 3946SOL     OW12733   3.723   1.569   4.575
 3946SOL    HW112734   3.652   1.557   4.505
 3946SOL    HW212735   3.724   1.490   4.635
 3947SOL     OW12736   2.083   1.314   5.568
 3947SOL    HW112737   2.018   1.241   5.547
 3947SOL    HW212738   2.087   1.328   5.666
 3948SOL     OW12739   1.941   1.240   4.377
 3948SOL    HW112740   1.940   1.193   4.465
 3948SOL    HW212741   2.023   1.212   4.326
 3949SOL     OW12742   2.534   1.391   5.348
 3949SOL    HW112743   2.456   1.341   5.386
 3949SOL    HW212744   2.531   1.486   5.379
 3950SOL     OW12745   3.686   0.192   4.951
 3950SOL    HW112746   3.682   0.102   4.995
 3950SOL    HW212747   3.689   0.181   4.852
 3951SOL     OW12748   2.290   0.424   4.244
 3951SOL    HW112749   2.320   0.352   4.182
 3951SOL    HW212750   2.251   0.384   4.327
 3952SOL     OW12751   3.567   1.487   4.828
 3952SOL    HW112752   3.474   1.462   4.801
 3952SOL    HW212753   3.593   1.437   4.910
 3953SOL     OW12754   2.179   0.547   5.004
 3953SOL    HW112755   2.217   0.488   5.076
 3953SOL    HW212756   2.219   0.521   4.916
 3954SOL     OW12757   2.674   1.586   4.411
 3954SOL    HW112758   2.706   1.596   4.317
 3954SOL    HW212759   2.595   1.524   4.413
 3955SOL     OW12760   3.286   0.214   4.836
 3955SOL    HW112761   3.338   0.149   4.891
 3955SOL    HW212762   3.237   0.277   4.897
 3956SOL     OW12763   2.863   0.034   4.878
 3956SOL    HW112764   2.800  -0.038   4.847
 3956SOL    HW212765   2.956  -0.002   4.878
 3957SOL     OW12766   2.632   1.330   4.025
 3957SOL    HW112767   2.586   1.243   4.042
 3957SOL    HW212768   2.723   1.327   4.066
 3958SOL     OW12769   2.480   1.567   5.008
 3958SOL    HW112770   2.475   1.649   5.065
 3958SOL    HW212771   2.569   1.564   4.963
 3959SOL     OW12772   3.214   0.052   3.892
 3959SOL    HW112773   3.249   0.011   3.808
 3959SOL    HW212774   3.124   0.014   3.912
 3960SOL     OW12775   3.162   0.453   4.415
 3960SOL    HW112776   3.103   0.533   4.419
 3960SOL    HW212777   3.177   0.418   4.508
 3961SOL     OW12778   3.455   0.221   4.606
 3961SOL    HW112779   3.371   0.220   4.660
 3961SOL    HW212780   3.457   0.304   4.550
 3962SOL     OW12781   1.901   1.077   4.024
 3962SOL    HW112782   2.000   1.066   4.015
 3962SOL    HW212783   1.861   0.991   4.056
 3963SOL     OW12784   2.737   1.646   4.061
 3963SOL    HW112785   2.660   1.611   4.007
 3963SOL    HW212786   2.705   1.717   4.123
 3964SOL     OW12787   2.092   0.628   5.699
 3964SOL    HW112788   1.999   0.626   5.736
 3964SOL    HW212789   2.093   0.589   5.607
 3965SOL     OW12790   2.087   0.275   6.582
 3965SOL    HW112791   2.122   0.258   6.674
 3965SOL    HW212792   1.999   0.230   6.570
 3966SOL     OW12793   1.881   0.368   6.233
 3966SOL    HW112794   1.799   0.411   6.272
 3966SOL    HW212795   1.853   0.295   6.170
 3967SOL     OW12796   3.417   1.511   6.289
 3967SOL    HW112797   3.360   1.495   6.370
 3967SOL    HW212798   3.358   1.521   6.209
 3968SOL     OW12799   2.997   0.703   6.303
 3968SOL    HW112800   3.054   0.781   6.278
 3968SOL    HW212801   2.937   0.729   6.379
 3969SOL     OW12802   3.617   0.607   5.817
 3969SOL    HW112803   3.605   0.594   5.718
 3969SOL    HW212804   3.587   0.526   5.866
 3970SOL     OW12805   2.630   1.144   6.609
 3970SOL    HW112806   2.552   1.161   6.669
 3970SOL    HW212807   2.664   1.231   6.573
 3971SOL     OW12808   2.712   0.798   7.409
 3971SOL    HW112809   2.708   0.874   7.474
 3971SOL    HW212810   2.734   0.834   7.318
 3972SOL     OW12811   2.547   1.012   6.251
 3972SOL    HW112812   2.616   0.996   6.321
 3972SOL    HW212813   2.474   1.069   6.289
 3973SOL     OW12814   3.322   1.505   6.925
 3973SOL    HW112815   3.346   1.599   6.951
 3973SOL    HW212816   3.306   1.451   7.007
 3974SOL     OW12817   2.300   0.392   7.085
 3974SOL    HW112818   2.382   0.336   7.094
 3974SOL    HW212819   2.219   0.334   7.089
 3975SOL     OW12820   3.465   0.447   6.323
 3975SOL    HW112821   3.391   0.493   6.273
 3975SOL    HW212822   3.516   0.515   6.376
 3976SOL     OW12823   2.989   1.341   7.276
 3976SOL    HW112824   3.036   1.341   7.364
 3976SOL    HW212825   2.941   1.254   7.265
 3977SOL     OW12826   2.102   1.091   6.472
 3977SOL    HW112827   2.116   1.007   6.524
 3977SOL    HW212828   2.047   1.155   6.527
 3978SOL     OW12829   2.482   1.786   7.025
 3978SOL    HW112830   2.390   1.769   7.060
 3978SOL    HW212831   2.510   1.878   7.051
 3979SOL     OW12832   2.468   0.964   5.709
 3979SOL    HW112833   2.475   1.048   5.655
 3979SOL    HW212834   2.514   0.977   5.797
 3980SOL     OW12835   3.456   0.114   7.066
 3980SOL    HW112836   3.438   0.181   6.994
 3980SOL    HW212837   3.453   0.160   7.155
 3981SOL     OW12838   1.984   0.643   6.149
 3981SOL    HW112839   1.939   0.555   6.166
 3981SOL    HW212840   1.983   0.697   6.233
 3982SOL     OW12841   3.704   1.767   5.945
 3982SOL    HW112842   3.758   1.738   6.025
 3982SOL    HW212843   3.734   1.857   5.916
 3983SOL     OW12844   1.889   1.596   5.703
 3983SOL    HW112845   1.870   1.500   5.724
 3983SOL    HW212846   1.856   1.654   5.778
 3984SOL     OW12847   3.551   0.922   6.198
 3984SOL    HW112848   3.646   0.893   6.206
 3984SOL    HW212849   3.543   0.987   6.123
 3985SOL     OW12850   3.503   1.108   6.018
 3985SOL    HW112851   3.589   1.110   5.966
 3985SOL    HW212852   3.517   1.155   6.106
 3986SOL     OW12853   1.975   0.737   7.183
 3986SOL    HW112854   2.063   0.724   7.228
 3986SOL    HW212855   1.962   0.834   7.161
 3987SOL     OW12856   3.155   1.228   7.009
 3987SOL    HW112857   3.192   1.155   6.951
 3987SOL    HW212858   3.207   1.233   7.094
 3988SOL     OW12859   2.671   0.004   6.088
 3988SOL    HW112860   2.711   0.095   6.079
 3988SOL    HW212861   2.571   0.012   6.094
 3989SOL     OW12862   2.059   0.976   6.850
 3989SOL    HW112863   2.148   0.931   6.836
 3989SOL    HW212864   1.986   0.911   6.831
 3990SOL     OW12865   3.387   0.999   5.776
 3990SOL    HW112866   3.324   0.923   5.789
 3990SOL    HW212867   3.435   1.017   5.862
 3991SOL     OW12868   3.049   1.792   7.202
 3991SOL    HW112869   3.073   1.852   7.126
 3991SOL    HW212870   3.056   1.697   7.172
 3992SOL     OW12871   2.179   0.251   7.387
 3992SOL    HW112872   2.250   0.322   7.393
 3992SOL    HW212873   2.091   0.290   7.415
 3993SOL     OW12874   3.328   1.417   6.539
 3993SOL    HW112875   3.269   1.423   6.619
 3993SOL    HW212876   3.313   1.329   6.493
 3994SOL     OW12877   3.529   1.714   6.158
 3994SOL    HW112878   3.488   1.691   6.070
 3994SOL    HW212879   3.511   1.640   6.223
 3995SOL     OW12880   2.460   0.729   5.856
 3995SOL    HW112881   2.484   0.798   5.788
 3995SOL    HW212882   2.382   0.762   5.910
 3996SOL     OW12883   3.143   0.345   6.530
 3996SOL    HW112884   3.057   0.295   6.517
 3996SOL    HW212885   3.205   0.291   6.586
 3997SOL     OW12886   3.438   1.662   5.893
 3997SOL    HW112887   3.527   1.708   5.896
 3997SOL    HW212888   3.417   1.638   5.798
 3998SOL     OW12889   2.669   0.605   7.051
 3998SOL    HW112890   2.622   0.602   7.140
 3998SOL    HW212891   2.618   0.550   6.985
 3999SOL     OW12892   3.256   0.469   7.260
 3999SOL    HW112893   3.236   0.512   7.348
 3999SOL    HW212894   3.334   0.407   7.269
 4000SOL     OW12895   2.835   0.890   7.158
 4000SOL    HW112896   2.881   0.806   7.129
 4000SOL    HW212897   2.779   0.924   7.083
 4001SOL     OW12898   2.853   0.410   6.828
 4001SOL    HW112899   2.776   0.444   6.882
 4001SOL    HW212900   2.819   0.359   6.749
 4002SOL     OW12901   2.903   0.701   6.015
 4002SOL    HW112902   2.929   0.697   6.111
 4002SOL    HW212903   2.818   0.650   6.001
 4003SOL     OW12904   1.938   0.811   6.375
 4003SOL    HW112905   2.037   0.799   6.384
 4003SOL    HW212906   1.914   0.906   6.396
 4004SOL     OW12907   2.727   0.348   5.781
 4004SOL    HW112908   2.786   0.411   5.732
 4004SOL    HW212909   2.746   0.254   5.752
 4005SOL     OW12910   3.581   0.585   7.417
 4005SOL    HW112911   3.555   0.674   7.381
 4005SOL    HW212912   3.579   0.517   7.344
 4006SOL     OW12913   3.224   1.144   6.131
 4006SOL    HW112914   3.307   1.115   6.083
 4006SOL    HW212915   3.175   1.211   6.075
 4007SOL     OW12916   2.412   0.196   6.471
 4007SOL    HW112917   2.407   0.191   6.571
 4007SOL    HW212918   2.414   0.292   6.442
 4008SOL     OW12919   2.870   1.456   6.063
 4008SOL    HW112920   2.824   1.528   6.011
 4008SOL    HW212921   2.866   1.476   6.161
 4009SOL     OW12922   2.213   1.801   6.439
 4009SOL    HW112923   2.263   1.715   6.445
 4009SOL    HW212924   2.278   1.878   6.436
 4010SOL     OW12925   3.657   1.066   6.459
 4010SOL    HW112926   3.595   1.051   6.383
 4010SOL    HW212927   3.605   1.077   6.544
 4011SOL     OW12928   3.089   1.550   7.092
 4011SOL    HW112929   3.095   1.473   7.156
 4011SOL    HW212930   3.037   1.524   7.012
 4012SOL     OW12931   2.183   0.943   5.828
 4012SOL    HW112932   2.265   0.982   5.786
 4012SOL    HW212933   2.156   0.861   5.779
 4013SOL     OW12934   3.320   0.735   6.314
 4013SOL    HW112935   3.315   0.670   6.389
 4013SOL    HW212936   3.400   0.794   6.327
 4014SOL     OW12937   2.973   1.776   5.823
 4014SOL    HW112938   2.913   1.714   5.873
 4014SOL    HW212939   3.004   1.732   5.738
 4015SOL     OW12940   2.064   0.285   7.084
 4015SOL    HW112941   1.984   0.345   7.071
 4015SOL    HW212942   2.054   0.236   7.170
 4016SOL     OW12943   3.494   1.377   5.667
 4016SOL    HW112944   3.462   1.471   5.657
 4016SOL    HW212945   3.418   1.314   5.655
 4017SOL     OW12946   2.326   1.743   5.909
 4017SOL    HW112947   2.359   1.782   5.995
 4017SOL    HW212948   2.402   1.736   5.844
 4018SOL     OW12949   3.262   0.107   6.012
 4018SOL    HW112950   3.238   0.070   5.922
 4018SOL    HW212951   3.361   0.123   6.016
 4019SOL     OW12952   2.244   0.700   6.066
 4019SOL    HW112953   2.289   0.610   6.063
 4019SOL    HW212954   2.150   0.689   6.099
 4020SOL     OW12955   3.409   0.222   7.315
 4020SOL    HW112956   3.404   0.259   7.407
 4020SOL    HW212957   3.337   0.153   7.303
 4021SOL     OW12958   2.476   0.122   5.703
 4021SOL    HW112959   2.574   0.100   5.710
 4021SOL    HW212960   2.445   0.105   5.610
 4022SOL     OW12961   2.643   0.264   7.335
 4022SOL    HW112962   2.710   0.203   7.378
 4022SOL    HW212963   2.570   0.283   7.400
 4023SOL     OW12964   3.213   0.590   7.019
 4023SOL    HW112965   3.241   0.547   7.104
 4023SOL    HW212966   3.238   0.686   7.020
 4024SOL     OW12967   2.784   0.503   6.485
 4024SOL    HW112968   2.759   0.494   6.389
 4024SOL    HW212969   2.832   0.421   6.516
 4025SOL     OW12970   2.401   0.064   6.098
 4025SOL    HW112971   2.320   0.065   6.156
 4025SOL    HW212972   2.404   0.147   6.043
 4026SOL     OW12973   3.296   1.188   5.627
 4026SOL    HW112974   3.328   1.112   5.684
 4026SOL    HW212975   3.204   1.215   5.657
 4027SOL     OW12976   2.159   0.035   5.757
 4027SOL    HW112977   2.208   0.119   5.736
 4027SOL    HW212978   2.221  -0.030   5.802
 4028SOL     OW12979   2.797   0.236   6.066
 4028SOL    HW112980   2.749   0.277   5.988
 4028SOL    HW212981   2.896   0.234   6.047
 4029SOL     OW12982   2.938   0.683   7.050
 4029SOL    HW112983   2.858   0.622   7.053
 4029SOL    HW212984   3.019   0.630   7.026
 4030SOL     OW12985   3.089   1.570   6.379
 4030SOL    HW112986   3.110   1.644   6.314
 4030SOL    HW212987   3.157   1.570   6.452
 4031SOL     OW12988   3.133   1.797   6.177
 4031SOL    HW112989   3.177   1.861   6.113
 4031SOL    HW212990   3.083   1.849   6.247
 4032SOL     OW12991   2.894   0.549   5.602
 4032SOL    HW112992   2.853   0.631   5.563
 4032SOL    HW212993   2.958   0.575   5.675
 4033SOL     OW12994   1.940   0.556   6.972
 4033SOL    HW112995   2.032   0.555   6.931
 4033SOL    HW212996   1.934   0.630   7.039
 4034SOL     OW12997   2.423   0.222   6.733
 4034SOL    HW112998   2.461   0.138   6.770
 4034SOL    HW212999   2.335   0.241   6.777
 4035SOL     OW13000   2.728   0.454   6.228
 4035SOL    HW113001   2.696   0.526   6.166
 4035SOL    HW213002   2.752   0.373   6.175
 4036SOL     OW13003   2.879   0.039   6.339
 4036SOL    HW113004   2.807   0.044   6.270
 4036SOL    HW213005   2.855  -0.030   6.408
 4037SOL     OW13006   3.291   1.173   6.453
 4037SOL    HW113007   3.236   1.089   6.446
 4037SOL    HW213008   3.317   1.202   6.361
 4038SOL     OW13009   3.328   0.590   6.578
 4038SOL    HW113010   3.298   0.495   6.585
 4038SOL    HW213011   3.401   0.606   6.644
 4039SOL     OW13012   3.719   0.833   5.963
 4039SOL    HW113013   3.761   0.769   6.027
 4039SOL    HW213014   3.681   0.782   5.885
 4040SOL     OW13015   3.526   1.280   6.243
 4040SOL    HW113016   3.625   1.288   6.257
 4040SOL    HW213017   3.481   1.364   6.274
 4041SOL     OW13018   3.252   0.575   5.664
 4041SOL    HW113019   3.198   0.554   5.745
 4041SOL    HW213020   3.343   0.534   5.673
 4042SOL     OW13021   2.389   0.256   5.914
 4042SOL    HW113022   2.416   0.197   5.839
 4042SOL    HW213023   2.389   0.351   5.883
 4043SOL     OW13024   3.616   1.223   7.174
 4043SOL    HW113025   3.707   1.184   7.161
 4043SOL    HW213026   3.624   1.319   7.198
 4044SOL     OW13027   2.926   1.347   6.926
 4044SOL    HW113028   2.846   1.324   6.981
 4044SOL    HW213029   3.009   1.321   6.975
 4045SOL     OW13030   3.454   1.629   7.211
 4045SOL    HW113031   3.481   1.663   7.121
 4045SOL    HW213032   3.533   1.591   7.257
 4046SOL     OW13033   2.973   1.195   6.686
 4046SOL    HW113034   2.933   1.239   6.767
 4046SOL    HW213035   2.932   1.232   6.603
 4047SOL     OW13036   3.500   1.099   6.665
 4047SOL    HW113037   3.505   1.180   6.724
 4047SOL    HW213038   3.414   1.101   6.614
 4048SOL     OW13039   2.777   0.089   6.988
 4048SOL    HW113040   2.802   0.069   6.893
 4048SOL    HW213041   2.849   0.145   7.030
 4049SOL     OW13042   2.842   1.116   7.305
 4049SOL    HW113043   2.743   1.122   7.315
 4049SOL    HW213044   2.865   1.036   7.249
 4050SOL     OW13045   2.567   1.050   5.954
 4050SOL    HW113046   2.553   1.057   6.053
 4050SOL    HW213047   2.651   0.999   5.936
 4051SOL     OW13048   2.272   0.813   6.837
 4051SOL    HW113049   2.358   0.825   6.887
 4051SOL    HW213050   2.230   0.726   6.864
 4052SOL     OW13051   3.136   0.386   6.848
 4052SOL    HW113052   3.157   0.460   6.912
 4052SOL    HW213053   3.047   0.403   6.805
 4053SOL     OW13054   2.428   0.537   6.451
 4053SOL    HW113055   2.440   0.603   6.377
 4053SOL    HW213056   2.474   0.571   6.534
 4054SOL     OW13057   3.114   1.348   5.974
 4054SOL    HW113058   3.164   1.425   6.014
 4054SOL    HW213059   3.019   1.350   6.006
 4055SOL     OW13060   3.134   1.445   6.728
 4055SOL    HW113061   3.181   1.458   6.815
 4055SOL    HW213062   3.068   1.371   6.737
 4056SOL     OW13063   3.444   0.639   6.058
 4056SOL    HW113064   3.413   0.700   6.131
 4056SOL    HW213065   3.494   0.691   5.989
 4057SOL     OW13066   2.264   0.751   7.184
 4057SOL    HW113067   2.332   0.806   7.137
 4057SOL    HW213068   2.304   0.663   7.211
 4058SOL     OW13069   3.449   0.779   7.256
 4058SOL    HW113070   3.357   0.817   7.251
 4058SOL    HW213071   3.509   0.826   7.191
 4059SOL     OW13072   2.875   0.105   7.356
 4059SOL    HW113073   2.881   0.190   7.304
 4059SOL    HW213074   2.907   0.029   7.299
 4060SOL     OW13075   2.366   0.050   7.326
 4060SOL    HW113076   2.324  -0.007   7.256
 4060SOL    HW213077   2.300   0.119   7.358
 4061SOL     OW13078   2.435   0.870   6.615
 4061SOL    HW113079   2.479   0.959   6.606
 4061SOL    HW213080   2.372   0.870   6.692
 4062SOL     OW13081   3.222   0.862   6.631
 4062SOL    HW113082   3.147   0.862   6.565
 4062SOL    HW213083   3.259   0.770   6.640
 4063SOL     OW13084   3.071   0.525   5.861
 4063SOL    HW113085   3.084   0.441   5.915
 4063SOL    HW213086   3.042   0.599   5.921
 4064SOL     OW13087   2.169   0.213   6.817
 4064SOL    HW113088   2.146   0.250   6.907
 4064SOL    HW213089   2.139   0.118   6.811
 4065SOL     OW13090   2.594   0.634   6.650
 4065SOL    HW113091   2.653   0.608   6.574
 4065SOL    HW213092   2.566   0.730   6.639
 4066SOL     OW13093   3.590   0.935   7.440
 4066SOL    HW113094   3.544   0.928   7.351
 4066SOL    HW213095   3.528   0.979   7.506
 4067SOL     OW13096   2.169   0.063   6.204
 4067SOL    HW113097   2.158   0.157   6.237
 4067SOL    HW213098   2.164   0.000   6.281
 4068SOL     OW13099   3.484   0.367   5.960
 4068SOL    HW113100   3.486   0.291   6.024
 4068SOL    HW213101   3.436   0.444   6.000
 4069SOL     OW13102   2.885   0.766   6.552
 4069SOL    HW113103   2.900   0.787   6.648
 4069SOL    HW213104   2.855   0.671   6.543
 4070SOL     OW13105   3.721   1.518   7.191
 4070SOL    HW113106   3.735   1.545   7.096
 4070SOL    HW213107   3.804   1.540   7.244
 4071SOL     OW13108   2.212   0.898   7.390
 4071SOL    HW113109   2.288   0.942   7.438
 4071SOL    HW213110   2.247   0.851   7.308
 4072SOL     OW13111   3.402   0.274   5.711
 4072SOL    HW113112   3.341   0.199   5.734
 4072SOL    HW213113   3.424   0.326   5.794
 4073SOL     OW13114   3.165   0.838   5.628
 4073SOL    HW113115   3.199   0.745   5.643
 4073SOL    HW213116   3.183   0.865   5.533
 4074SOL     OW13117   2.930   1.333   6.435
 4074SOL    HW113118   2.937   1.249   6.380
 4074SOL    HW213119   2.992   1.402   6.399
 4075SOL     OW13120   2.181   0.810   6.535
 4075SOL    HW113121   2.274   0.846   6.540
 4075SOL    HW213122   2.175   0.725   6.587
 4076SOL     OW13123   2.201   0.509   6.592
 4076SOL    HW113124   2.149   0.426   6.575
 4076SOL    HW213125   2.278   0.514   6.528
 4077SOL     OW13126   3.000   0.380   7.264
 4077SOL    HW113127   2.955   0.443   7.328
 4077SOL    HW213128   3.093   0.411   7.247
 4078SOL     OW13129   3.022   0.207   7.063
 4078SOL    HW113130   3.022   0.271   7.140
 4078SOL    HW213131   3.050   0.255   6.980
 4079SOL     OW13132   1.870   1.326   5.786
 4079SOL    HW113133   1.777   1.347   5.755
 4079SOL    HW213134   1.880   1.227   5.799
 4080SOL     OW13135   2.864   0.796   6.824
 4080SOL    HW113136   2.905   0.764   6.910
 4080SOL    HW213137   2.768   0.769   6.821
 4081SOL     OW13138   1.902   0.544   6.700
 4081SOL    HW113139   1.987   0.511   6.659
 4081SOL    HW213140   1.915   0.559   6.798
 4082SOL     OW13141   2.051   0.520   7.308
 4082SOL    HW113142   2.110   0.480   7.238
 4082SOL    HW213143   1.993   0.591   7.267
 4083SOL     OW13144   3.231   0.950   7.246
 4083SOL    HW113145   3.270   1.039   7.266
 4083SOL    HW213146   3.241   0.930   7.149
 4084SOL     OW13147   2.677   0.572   5.911
 4084SOL    HW113148   2.684   0.483   5.865
 4084SOL    HW213149   2.583   0.606   5.903
 4085SOL     OW13150   3.519   0.604   6.792
 4085SOL    HW113151   3.481   0.535   6.854
 4085SOL    HW213152   3.601   0.568   6.748
 4086SOL     OW13153   2.533   0.464   6.855
 4086SOL    HW113154   2.499   0.375   6.825
 4086SOL    HW213155   2.559   0.518   6.775
 4087SOL     OW13156   2.792   1.678   7.051
 4087SOL    HW113157   2.768   1.660   6.956
 4087SOL    HW213158   2.822   1.772   7.061
 4088SOL     OW13159   2.335   0.500   5.777
 4088SOL    HW113160   2.396   0.580   5.781
 4088SOL    HW213161   2.240   0.531   5.784
 4089SOL     OW13162   3.209   1.059   6.820
 4089SOL    HW113163   3.233   0.996   6.746
 4089SOL    HW213164   3.119   1.099   6.802
 4090SOL     OW13165   3.164   0.855   5.895
 4090SOL    HW113166   3.078   0.824   5.937
 4090SOL    HW213167   3.160   0.841   5.796
 4091SOL     OW13168   3.621   1.747   6.740
 4091SOL    HW113169   3.682   1.777   6.667
 4091SOL    HW213170   3.583   1.658   6.718
 4092SOL     OW13171   3.114   1.731   6.714
 4092SOL    HW113172   3.198   1.736   6.660
 4092SOL    HW213173   3.091   1.635   6.732
 4093SOL     OW13174   3.588   0.135   6.109
 4093SOL    HW113175   3.661   0.118   6.042
 4093SOL    HW213176   3.557   0.048   6.147
 4094SOL     OW13177   3.250   1.573   6.063
 4094SOL    HW113178   3.317   1.585   5.989
 4094SOL    HW213179   3.210   1.662   6.086
 4095SOL     OW13180   3.142   0.927   6.258
 4095SOL    HW113181   3.202   0.846   6.260
 4095SOL    HW213182   3.182   0.996   6.198
 4096SOL     OW13183   2.692   1.273   7.008
 4096SOL    HW113184   2.687   1.306   7.103
 4096SOL    HW213185   2.606   1.292   6.962
 4097SOL     OW13186   2.534   1.616   5.740
 4097SOL    HW113187   2.543   1.626   5.641
 4097SOL    HW213188   2.494   1.527   5.761
 4098SOL     OW13189   3.512   1.720   6.980
 4098SOL    HW113190   3.565   1.730   6.896
 4098SOL    HW213191   3.485   1.810   7.014
 4099SOL     OW13192   3.703   0.175   6.549
 4099SOL    HW113193   3.742   0.090   6.513
 4099SOL    HW213194   3.605   0.177   6.530
 4100SOL     OW13195   2.125   0.326   6.306
 4100SOL    HW113196   2.046   0.377   6.272
 4100SOL    HW213197   2.116   0.311   6.404
 4101SOL     OW13198   3.056   1.612   5.617
 4101SOL    HW113199   3.062   1.519   5.654
 4101SOL    HW213200   2.997   1.612   5.537
 4102SOL     OW13201   2.684   1.002   6.958
 4102SOL    HW113202   2.724   1.001   6.866
 4102SOL    HW213203   2.694   1.094   6.998
 4103SOL     OW13204   2.778   0.910   5.877
 4103SOL    HW113205   2.841   0.948   5.809
 4103SOL    HW213206   2.818   0.827   5.916
 4104SOL     OW13207   3.366   1.607   5.630
 4104SOL    HW113208   3.274   1.644   5.637
 4104SOL    HW213209   3.404   1.627   5.540
 4105SOL     OW13210   3.476   1.292   6.875
 4105SOL    HW113211   3.536   1.295   6.955
 4105SOL    HW213212   3.401   1.356   6.888
 4106SOL     OW13213   2.901   1.098   6.282
 4106SOL    HW113214   2.831   1.051   6.336
 4106SOL    HW213215   2.960   1.030   6.239
 4107SOL     OW13216   2.876   0.236   6.557
 4107SOL    HW113217   2.868   0.200   6.464
 4107SOL    HW213218   2.874   0.160   6.622
 4108SOL     OW13219   3.571   0.385   6.967
 4108SOL    HW113220   3.644   0.454   6.971
 4108SOL    HW213221   3.599   0.310   6.908
 4109SOL     OW13222   2.117   1.348   5.876
 4109SOL    HW113223   2.021   1.349   5.849
 4109SOL    HW213224   2.129   1.401   5.960
 4110SOL     OW13225   1.967   1.013   7.312
 4110SOL    HW113226   1.890   0.980   7.366
 4110SOL    HW213227   2.052   0.983   7.354
 4111SOL     OW13228   2.534   0.203   7.075
 4111SOL    HW113229   2.624   0.187   7.035
 4111SOL    HW213230   2.542   0.208   7.174
 4112SOL     OW13231   1.937   0.345   5.619
 4112SOL    HW113232   1.845   0.317   5.590
 4112SOL    HW213233   1.968   0.422   5.563
 4113SOL     OW13234   3.302   0.856   6.984
 4113SOL    HW113235   3.245   0.908   6.921
 4113SOL    HW213236   3.398   0.868   6.960
 4114SOL     OW13237   1.934   0.166   5.904
 4114SOL    HW113238   1.917   0.249   5.850
 4114SOL    HW213239   2.024   0.129   5.882
 4115SOL     OW13240   3.045   1.335   5.705
 4115SOL    HW113241   2.946   1.324   5.707
 4115SOL    HW213242   3.079   1.350   5.798
 4116SOL     OW13243   2.475   0.842   7.017
 4116SOL    HW113244   2.531   0.923   7.000
 4116SOL    HW213245   2.534   0.762   7.020
 4117SOL     OW13246   3.355   1.767   6.545
 4117SOL    HW113247   3.388   1.831   6.476
 4117SOL    HW213248   3.421   1.761   6.620
 4118SOL     OW13249   2.578   0.565   7.294
 4118SOL    HW113250   2.597   0.630   7.368
 4118SOL    HW213251   2.638   0.485   7.303
 4119SOL     OW13252   3.312   1.220   7.219
 4119SOL    HW113253   3.303   1.210   7.318
 4119SOL    HW213254   3.408   1.213   7.193
 4120SOL     OW13255   2.252   1.741   7.146
 4120SOL    HW113256   2.161   1.782   7.144
 4120SOL    HW213257   2.245   1.647   7.178
 4121SOL     OW13258   3.536   0.883   6.840
 4121SOL    HW113259   3.509   0.794   6.803
 4121SOL    HW213260   3.537   0.951   6.767
 4122SOL     OW13261   3.087   0.325   6.035
 4122SOL    HW113262   3.152   0.251   6.024
 4122SOL    HW213263   3.107   0.375   6.119
 4123SOL     OW13264   2.456   0.745   6.238
 4123SOL    HW113265   2.506   0.830   6.219
 4123SOL    HW213266   2.368   0.747   6.190
 4124SOL     OW13267   3.639   0.342   7.228
 4124SOL    HW113268   3.622   0.373   7.134
 4124SOL    HW213269   3.555   0.305   7.266
 4125SOL     OW13270   3.592   0.934   7.103
 4125SOL    HW113271   3.630   1.025   7.118
 4125SOL    HW213272   3.584   0.917   7.004
 4126SOL     OW13273   2.721   1.374   5.602
 4126SOL    HW113274   2.675   1.389   5.690
 4126SOL    HW213275   2.765   1.459   5.572
 4127SOL     OW13276   2.721   0.956   6.447
 4127SOL    HW113277   2.775   0.887   6.495
 4127SOL    HW213278   2.689   1.025   6.513
 4128SOL     OW13279   2.945   0.984   5.673
 4128SOL    HW113280   2.922   1.037   5.591
 4128SOL    HW213281   3.026   0.928   5.654
 4129SOL     OW13282   3.723   1.569   6.437
 4129SOL    HW113283   3.652   1.557   6.367
 4129SOL    HW213284   3.724   1.490   6.497
 4130SOL     OW13285   3.686   0.192   6.813
 4130SOL    HW113286   3.682   0.102   6.857
 4130SOL    HW213287   3.689   0.181   6.714
 4131SOL     OW13288   2.290   0.424   6.106
 4131SOL    HW113289   2.320   0.352   6.044
 4131SOL    HW213290   2.251   0.384   6.189
 4132SOL     OW13291   3.567   1.487   6.690
 4132SOL    HW113292   3.474   1.462   6.663
 4132SOL    HW213293   3.593   1.437   6.772
 4133SOL     OW13294   2.179   0.547   6.866
 4133SOL    HW113295   2.217   0.488   6.938
 4133SOL    HW213296   2.219   0.521   6.778
 4134SOL     OW13297   3.286   0.214   6.698
 4134SOL    HW113298   3.338   0.149   6.753
 4134SOL    HW213299   3.237   0.277   6.759
 4135SOL     OW13300   2.863   0.034   6.740
 4135SOL    HW113301   2.800  -0.038   6.709
 4135SOL    HW213302   2.956  -0.002   6.740
 4136SOL     OW13303   2.632   1.330   5.887
 4136SOL    HW113304   2.586   1.243   5.904
 4136SOL    HW213305   2.723   1.327   5.928
 4137SOL     OW13306   3.214   0.052   5.754
 4137SOL    HW113307   3.249   0.011   5.670
 4137SOL    HW213308   3.124   0.014   5.774
 4138SOL     OW13309   3.162   0.453   6.277
 4138SOL    HW113310   3.103   0.533   6.281
 4138SOL    HW213311   3.177   0.418   6.370
 4139SOL     OW13312   3.455   0.221   6.468
 4139SOL    HW113313   3.371   0.220   6.522
 4139SOL    HW213314   3.457   0.304   6.412
 4140SOL     OW13315   1.901   1.077   5.886
 4140SOL    HW113316   2.000   1.066   5.877
 4140SOL    HW213317   1.861   0.991   5.918
 4141SOL     OW13318   2.092   0.628   7.561
 4141SOL    HW113319   1.999   0.626   7.598
 4141SOL    HW213320   2.093   0.589   7.469
 4142SOL     OW13321   2.087   0.275   8.444
 4142SOL    HW113322   2.122   0.258   8.536
 4142SOL    HW213323   1.999   0.230   8.432
 4143SOL     OW13324   1.881   0.368   8.095
 4143SOL    HW113325   1.799   0.411   8.134
 4143SOL    HW213326   1.853   0.295   8.032
 4144SOL     OW13327   2.431   1.275   8.613
 4144SOL    HW113328   2.338   1.268   8.576
 4144SOL    HW213329   2.442   1.364   8.657
 4145SOL     OW13330   3.417   1.511   8.151
 4145SOL    HW113331   3.360   1.495   8.232
 4145SOL    HW213332   3.358   1.521   8.071
 4146SOL     OW13333   2.997   0.703   8.165
 4146SOL    HW113334   3.054   0.781   8.140
 4146SOL    HW213335   2.937   0.729   8.241
 4147SOL     OW13336   3.617   0.607   7.679
 4147SOL    HW113337   3.605   0.594   7.580
 4147SOL    HW213338   3.587   0.526   7.728
 4148SOL     OW13339   2.630   1.144   8.471
 4148SOL    HW113340   2.552   1.161   8.531
 4148SOL    HW213341   2.664   1.231   8.435
 4149SOL     OW13342   2.712   0.798   9.271
 4149SOL    HW113343   2.708   0.874   9.336
 4149SOL    HW213344   2.734   0.834   9.180
 4150SOL     OW13345   2.547   1.012   8.113
 4150SOL    HW113346   2.616   0.996   8.183
 4150SOL    HW213347   2.474   1.069   8.151
 4151SOL     OW13348   2.548   1.161   9.251
 4151SOL    HW113349   2.608   1.240   9.265
 4151SOL    HW213350   2.462   1.192   9.210
 4152SOL     OW13351   2.197   1.435   8.509
 4152SOL    HW113352   2.119   1.404   8.456
 4152SOL    HW213353   2.255   1.493   8.452
 4153SOL     OW13354   3.322   1.505   8.787
 4153SOL    HW113355   3.346   1.599   8.813
 4153SOL    HW213356   3.306   1.451   8.869
 4154SOL     OW13357   2.300   0.392   8.947
 4154SOL    HW113358   2.382   0.336   8.956
 4154SOL    HW213359   2.219   0.334   8.951
 4155SOL     OW13360   3.465   0.447   8.185
 4155SOL    HW113361   3.391   0.493   8.135
 4155SOL    HW213362   3.516   0.515   8.238
 4156SOL     OW13363   2.989   1.341   9.138
 4156SOL    HW113364   3.036   1.341   9.226
 4156SOL    HW213365   2.941   1.254   9.127
 4157SOL     OW13366   2.102   1.091   8.334
 4157SOL    HW113367   2.116   1.007   8.386
 4157SOL    HW213368   2.047   1.155   8.389
 4158SOL     OW13369   2.482   1.786   8.887
 4158SOL    HW113370   2.390   1.769   8.922
 4158SOL    HW213371   2.510   1.878   8.913
 4159SOL     OW13372   2.468   0.964   7.571
 4159SOL    HW113373   2.475   1.048   7.517
 4159SOL    HW213374   2.514   0.977   7.659
 4160SOL     OW13375   3.456   0.114   8.928
 4160SOL    HW113376   3.438   0.181   8.856
 4160SOL    HW213377   3.453   0.160   9.017
 4161SOL     OW13378   1.984   0.643   8.011
 4161SOL    HW113379   1.939   0.555   8.028
 4161SOL    HW213380   1.983   0.697   8.095
 4162SOL     OW13381   3.704   1.767   7.807
 4162SOL    HW113382   3.758   1.738   7.887
 4162SOL    HW213383   3.734   1.857   7.778
 4163SOL     OW13384   3.551   0.922   8.060
 4163SOL    HW113385   3.646   0.893   8.068
 4163SOL    HW213386   3.543   0.987   7.985
 4164SOL     OW13387   3.503   1.108   7.880
 4164SOL    HW113388   3.589   1.110   7.828
 4164SOL    HW213389   3.517   1.155   7.968
 4165SOL     OW13390   1.975   0.737   9.045
 4165SOL    HW113391   2.063   0.724   9.090
 4165SOL    HW213392   1.962   0.834   9.023
 4166SOL     OW13393   2.475   1.365   8.174
 4166SOL    HW113394   2.426   1.278   8.183
 4166SOL    HW213395   2.452   1.408   8.087
 4167SOL     OW13396   3.155   1.228   8.871
 4167SOL    HW113397   3.192   1.155   8.813
 4167SOL    HW213398   3.207   1.233   8.956
 4168SOL     OW13399   2.671   0.004   7.950
 4168SOL    HW113400   2.711   0.095   7.941
 4168SOL    HW213401   2.571   0.012   7.956
 4169SOL     OW13402   2.059   0.976   8.712
 4169SOL    HW113403   2.148   0.931   8.698
 4169SOL    HW213404   1.986   0.911   8.693
 4170SOL     OW13405   3.387   0.999   7.638
 4170SOL    HW113406   3.324   0.923   7.651
 4170SOL    HW213407   3.435   1.017   7.724
 4171SOL     OW13408   3.049   1.792   9.064
 4171SOL    HW113409   3.073   1.852   8.988
 4171SOL    HW213410   3.056   1.697   9.034
 4172SOL     OW13411   2.179   0.251   9.249
 4172SOL    HW113412   2.250   0.322   9.255
 4172SOL    HW213413   2.091   0.290   9.277
 4173SOL     OW13414   3.328   1.417   8.401
 4173SOL    HW113415   3.269   1.423   8.481
 4173SOL    HW213416   3.313   1.329   8.355
 4174SOL     OW13417   3.529   1.714   8.020
 4174SOL    HW113418   3.488   1.691   7.932
 4174SOL    HW213419   3.511   1.640   8.085
 4175SOL     OW13420   2.460   0.729   7.718
 4175SOL    HW113421   2.484   0.798   7.650
 4175SOL    HW213422   2.382   0.762   7.772
 4176SOL     OW13423   3.143   0.345   8.392
 4176SOL    HW113424   3.057   0.295   8.379
 4176SOL    HW213425   3.205   0.291   8.448
 4177SOL     OW13426   3.438   1.662   7.755
 4177SOL    HW113427   3.527   1.708   7.758
 4177SOL    HW213428   3.417   1.638   7.660
 4178SOL     OW13429   2.669   0.605   8.913
 4178SOL    HW113430   2.622   0.602   9.002
 4178SOL    HW213431   2.618   0.550   8.847
 4179SOL     OW13432   3.256   0.469   9.122
 4179SOL    HW113433   3.236   0.512   9.210
 4179SOL    HW213434   3.334   0.407   9.131
 4180SOL     OW13435   2.835   0.890   9.020
 4180SOL    HW113436   2.881   0.806   8.991
 4180SOL    HW213437   2.779   0.924   8.945
 4181SOL     OW13438   2.853   0.410   8.690
 4181SOL    HW113439   2.776   0.444   8.744
 4181SOL    HW213440   2.819   0.359   8.611
 4182SOL     OW13441   2.903   0.701   7.877
 4182SOL    HW113442   2.929   0.697   7.973
 4182SOL    HW213443   2.818   0.650   7.863
 4183SOL     OW13444   1.938   0.811   8.237
 4183SOL    HW113445   2.037   0.799   8.246
 4183SOL    HW213446   1.914   0.906   8.258
 4184SOL     OW13447   2.727   0.348   7.643
 4184SOL    HW113448   2.786   0.411   7.594
 4184SOL    HW213449   2.746   0.254   7.614
 4185SOL     OW13450   3.581   0.585   9.279
 4185SOL    HW113451   3.555   0.674   9.243
 4185SOL    HW213452   3.579   0.517   9.206
 4186SOL     OW13453   3.224   1.144   7.993
 4186SOL    HW113454   3.307   1.115   7.945
 4186SOL    HW213455   3.175   1.211   7.937
 4187SOL     OW13456   2.412   0.196   8.333
 4187SOL    HW113457   2.407   0.191   8.433
 4187SOL    HW213458   2.414   0.292   8.304
 4188SOL     OW13459   2.870   1.456   7.925
 4188SOL    HW113460   2.824   1.528   7.873
 4188SOL    HW213461   2.866   1.476   8.023
 4189SOL     OW13462   2.213   1.801   8.301
 4189SOL    HW113463   2.263   1.715   8.307
 4189SOL    HW213464   2.278   1.878   8.298
 4190SOL     OW13465   3.657   1.066   8.321
 4190SOL    HW113466   3.595   1.051   8.245
 4190SOL    HW213467   3.605   1.077   8.406
 4191SOL     OW13468   3.089   1.550   8.954
 4191SOL    HW113469   3.095   1.473   9.018
 4191SOL    HW213470   3.037   1.524   8.874
 4192SOL     OW13471   2.183   0.943   7.690
 4192SOL    HW113472   2.265   0.982   7.648
 4192SOL    HW213473   2.156   0.861   7.641
 4193SOL     OW13474   3.320   0.735   8.176
 4193SOL    HW113475   3.315   0.670   8.251
 4193SOL    HW213476   3.400   0.794   8.189
 4194SOL     OW13477   2.323   1.266   9.175
 4194SOL    HW113478   2.273   1.267   9.089
 4194SOL    HW213479   2.260   1.248   9.251
 4195SOL     OW13480   2.973   1.776   7.685
 4195SOL    HW113481   2.913   1.714   7.735
 4195SOL    HW213482   3.004   1.732   7.600
 4196SOL     OW13483   2.064   0.285   8.946
 4196SOL    HW113484   1.984   0.345   8.933
 4196SOL    HW213485   2.054   0.236   9.032
 4197SOL     OW13486   3.494   1.377   7.529
 4197SOL    HW113487   3.462   1.471   7.519
 4197SOL    HW213488   3.418   1.314   7.517
 4198SOL     OW13489   3.262   0.107   7.874
 4198SOL    HW113490   3.238   0.070   7.784
 4198SOL    HW213491   3.361   0.123   7.878
 4199SOL     OW13492   2.111   1.785   8.689
 4199SOL    HW113493   2.168   1.720   8.739
 4199SOL    HW213494   2.095   1.752   8.596
 4200SOL     OW13495   2.802   1.698   8.352
 4200SOL    HW113496   2.882   1.641   8.373
 4200SOL    HW213497   2.753   1.658   8.275
 4201SOL     OW13498   2.244   0.700   7.928
 4201SOL    HW113499   2.289   0.610   7.925
 4201SOL    HW213500   2.150   0.689   7.961
 4202SOL     OW13501   3.409   0.222   9.177
 4202SOL    HW113502   3.404   0.259   9.269
 4202SOL    HW213503   3.337   0.153   9.165
 4203SOL     OW13504   2.476   0.122   7.565
 4203SOL    HW113505   2.574   0.100   7.572
 4203SOL    HW213506   2.445   0.105   7.472
 4204SOL     OW13507   2.643   0.264   9.197
 4204SOL    HW113508   2.710   0.203   9.240
 4204SOL    HW213509   2.570   0.283   9.262
 4205SOL     OW13510   2.750   1.514   8.643
 4205SOL    HW113511   2.727   1.489   8.549
 4205SOL    HW213512   2.811   1.445   8.682
 4206SOL     OW13513   3.213   0.590   8.881
 4206SOL    HW113514   3.241   0.547   8.966
 4206SOL    HW213515   3.238   0.686   8.882
 4207SOL     OW13516   2.665   1.402   8.372
 4207SOL    HW113517   2.755   1.416   8.330
 4207SOL    HW213518   2.594   1.404   8.301
 4208SOL     OW13519   2.784   0.503   8.347
 4208SOL    HW113520   2.759   0.494   8.251
 4208SOL    HW213521   2.832   0.421   8.378
 4209SOL     OW13522   2.401   0.064   7.960
 4209SOL    HW113523   2.320   0.065   8.018
 4209SOL    HW213524   2.404   0.147   7.905
 4210SOL     OW13525   3.296   1.188   7.489
 4210SOL    HW113526   3.328   1.112   7.546
 4210SOL    HW213527   3.204   1.215   7.519
 4211SOL     OW13528   2.159   0.035   7.619
 4211SOL    HW113529   2.208   0.119   7.598
 4211SOL    HW213530   2.221  -0.030   7.664
 4212SOL     OW13531   2.797   0.236   7.928
 4212SOL    HW113532   2.749   0.277   7.850
 4212SOL    HW213533   2.896   0.234   7.909
 4213SOL     OW13534   2.938   0.683   8.912
 4213SOL    HW113535   2.858   0.622   8.915
 4213SOL    HW213536   3.019   0.630   8.888
 4214SOL     OW13537   3.089   1.570   8.241
 4214SOL    HW113538   3.110   1.644   8.176
 4214SOL    HW213539   3.157   1.570   8.314
 4215SOL     OW13540   2.321   1.152   8.189
 4215SOL    HW113541   2.250   1.125   8.254
 4215SOL    HW213542   2.295   1.124   8.096
 4216SOL     OW13543   3.133   1.797   8.039
 4216SOL    HW113544   3.177   1.861   7.975
 4216SOL    HW213545   3.083   1.849   8.109
 4217SOL     OW13546   2.894   0.549   7.464
 4217SOL    HW113547   2.853   0.631   7.425
 4217SOL    HW213548   2.958   0.575   7.537
 4218SOL     OW13549   1.940   0.556   8.834
 4218SOL    HW113550   2.032   0.555   8.793
 4218SOL    HW213551   1.934   0.630   8.901
 4219SOL     OW13552   2.423   0.222   8.595
 4219SOL    HW113553   2.461   0.138   8.632
 4219SOL    HW213554   2.335   0.241   8.639
 4220SOL     OW13555   2.728   0.454   8.090
 4220SOL    HW113556   2.696   0.526   8.028
 4220SOL    HW213557   2.752   0.373   8.037
 4221SOL     OW13558   2.879   0.039   8.201
 4221SOL    HW113559   2.807   0.044   8.132
 4221SOL    HW213560   2.855  -0.030   8.270
 4222SOL     OW13561   3.291   1.173   8.315
 4222SOL    HW113562   3.236   1.089   8.308
 4222SOL    HW213563   3.317   1.202   8.223
 4223SOL     OW13564   3.328   0.590   8.440
 4223SOL    HW113565   3.298   0.495   8.447
 4223SOL    HW213566   3.401   0.606   8.506
 4224SOL     OW13567   3.719   0.833   7.825
 4224SOL    HW113568   3.761   0.769   7.889
 4224SOL    HW213569   3.681   0.782   7.747
 4225SOL     OW13570   3.526   1.280   8.105
 4225SOL    HW113571   3.625   1.288   8.119
 4225SOL    HW213572   3.481   1.364   8.136
 4226SOL     OW13573   3.252   0.575   7.526
 4226SOL    HW113574   3.198   0.554   7.607
 4226SOL    HW213575   3.343   0.534   7.535
 4227SOL     OW13576   2.389   0.256   7.776
 4227SOL    HW113577   2.416   0.197   7.701
 4227SOL    HW213578   2.389   0.351   7.745
 4228SOL     OW13579   3.616   1.223   9.036
 4228SOL    HW113580   3.707   1.184   9.023
 4228SOL    HW213581   3.624   1.319   9.060
 4229SOL     OW13582   2.926   1.347   8.788
 4229SOL    HW113583   2.846   1.324   8.843
 4229SOL    HW213584   3.009   1.321   8.837
 4230SOL     OW13585   3.454   1.629   9.073
 4230SOL    HW113586   3.481   1.663   8.983
 4230SOL    HW213587   3.533   1.591   9.119
 4231SOL     OW13588   2.973   1.195   8.548
 4231SOL    HW113589   2.933   1.239   8.629
 4231SOL    HW213590   2.932   1.232   8.465
 4232SOL     OW13591   3.500   1.099   8.527
 4232SOL    HW113592   3.505   1.180   8.586
 4232SOL    HW213593   3.414   1.101   8.476
 4233SOL     OW13594   2.777   0.089   8.850
 4233SOL    HW113595   2.802   0.069   8.755
 4233SOL    HW213596   2.849   0.145   8.892
 4234SOL     OW13597   2.842   1.116   9.167
 4234SOL    HW113598   2.743   1.122   9.177
 4234SOL    HW213599   2.865   1.036   9.111
 4235SOL     OW13600   2.567   1.050   7.816
 4235SOL    HW113601   2.553   1.057   7.915
 4235SOL    HW213602   2.651   0.999   7.798
 4236SOL     OW13603   2.272   0.813   8.699
 4236SOL    HW113604   2.358   0.825   8.749
 4236SOL    HW213605   2.230   0.726   8.726
 4237SOL     OW13606   3.136   0.386   8.710
 4237SOL    HW113607   3.157   0.460   8.774
 4237SOL    HW213608   3.047   0.403   8.667
 4238SOL     OW13609   1.926   1.564   8.779
 4238SOL    HW113610   1.880   1.646   8.745
 4238SOL    HW213611   2.024   1.583   8.788
 4239SOL     OW13612   2.229   1.100   7.949
 4239SOL    HW113613   2.222   1.183   7.893
 4239SOL    HW213614   2.233   1.020   7.889
 4240SOL     OW13615   2.428   0.537   8.313
 4240SOL    HW113616   2.440   0.603   8.239
 4240SOL    HW213617   2.474   0.571   8.396
 4241SOL     OW13618   3.114   1.348   7.836
 4241SOL    HW113619   3.164   1.425   7.876
 4241SOL    HW213620   3.019   1.350   7.868
 4242SOL     OW13621   3.134   1.445   8.590
 4242SOL    HW113622   3.181   1.458   8.677
 4242SOL    HW213623   3.068   1.371   8.599
 4243SOL     OW13624   3.444   0.639   7.920
 4243SOL    HW113625   3.413   0.700   7.993
 4243SOL    HW213626   3.494   0.691   7.851
 4244SOL     OW13627   2.216   1.510   8.777
 4244SOL    HW113628   2.195   1.466   8.690
 4244SOL    HW213629   2.313   1.536   8.780
 4245SOL     OW13630   2.264   0.751   9.046
 4245SOL    HW113631   2.332   0.806   8.999
 4245SOL    HW213632   2.304   0.663   9.073
 4246SOL     OW13633   3.449   0.779   9.118
 4246SOL    HW113634   3.357   0.817   9.113
 4246SOL    HW213635   3.509   0.826   9.053
 4247SOL     OW13636   2.875   0.105   9.218
 4247SOL    HW113637   2.881   0.190   9.166
 4247SOL    HW213638   2.907   0.029   9.161
 4248SOL     OW13639   2.366   0.050   9.188
 4248SOL    HW113640   2.324  -0.007   9.118
 4248SOL    HW213641   2.300   0.119   9.220
 4249SOL     OW13642   2.435   0.870   8.477
 4249SOL    HW113643   2.479   0.959   8.468
 4249SOL    HW213644   2.372   0.870   8.554
 4250SOL     OW13645   3.222   0.862   8.493
 4250SOL    HW113646   3.147   0.862   8.427
 4250SOL    HW213647   3.259   0.770   8.502
 4251SOL     OW13648   3.071   0.525   7.723
 4251SOL    HW113649   3.084   0.441   7.777
 4251SOL    HW213650   3.042   0.599   7.783
 4252SOL     OW13651   2.169   0.213   8.679
 4252SOL    HW113652   2.146   0.250   8.769
 4252SOL    HW213653   2.139   0.118   8.673
 4253SOL     OW13654   1.899   1.310   8.730
 4253SOL    HW113655   1.952   1.261   8.798
 4253SOL    HW213656   1.921   1.408   8.735
 4254SOL     OW13657   2.594   0.634   8.512
 4254SOL    HW113658   2.653   0.608   8.436
 4254SOL    HW213659   2.566   0.730   8.501
 4255SOL     OW13660   3.590   0.935   9.302
 4255SOL    HW113661   3.544   0.928   9.213
 4255SOL    HW213662   3.528   0.979   9.368
 4256SOL     OW13663   2.169   0.063   8.066
 4256SOL    HW113664   2.158   0.157   8.099
 4256SOL    HW213665   2.164   0.000   8.143
 4257SOL     OW13666   3.484   0.367   7.822
 4257SOL    HW113667   3.486   0.291   7.886
 4257SOL    HW213668   3.436   0.444   7.862
 4258SOL     OW13669   2.885   0.766   8.414
 4258SOL    HW113670   2.900   0.787   8.510
 4258SOL    HW213671   2.855   0.671   8.405
 4259SOL     OW13672   2.842   1.573   9.148
 4259SOL    HW113673   2.822   1.617   9.060
 4259SOL    HW213674   2.881   1.482   9.132
 4260SOL     OW13675   3.721   1.518   9.053
 4260SOL    HW113676   3.735   1.545   8.958
 4260SOL    HW213677   3.804   1.540   9.106
 4261SOL     OW13678   2.212   0.898   9.252
 4261SOL    HW113679   2.288   0.942   9.300
 4261SOL    HW213680   2.247   0.851   9.170
 4262SOL     OW13681   3.402   0.274   7.573
 4262SOL    HW113682   3.341   0.199   7.596
 4262SOL    HW213683   3.424   0.326   7.656
 4263SOL     OW13684   3.165   0.838   7.490
 4263SOL    HW113685   3.199   0.745   7.505
 4263SOL    HW213686   3.183   0.865   7.395
 4264SOL     OW13687   2.930   1.333   8.297
 4264SOL    HW113688   2.937   1.249   8.242
 4264SOL    HW213689   2.992   1.402   8.261
 4265SOL     OW13690   2.181   0.810   8.397
 4265SOL    HW113691   2.274   0.846   8.402
 4265SOL    HW213692   2.175   0.725   8.449
 4266SOL     OW13693   2.201   0.509   8.454
 4266SOL    HW113694   2.149   0.426   8.437
 4266SOL    HW213695   2.278   0.514   8.390
 4267SOL     OW13696   3.000   0.380   9.126
 4267SOL    HW113697   2.955   0.443   9.190
 4267SOL    HW213698   3.093   0.411   9.109
 4268SOL     OW13699   3.022   0.207   8.925
 4268SOL    HW113700   3.022   0.271   9.002
 4268SOL    HW213701   3.050   0.255   8.842
 4269SOL     OW13702   2.366   1.568   8.358
 4269SOL    HW113703   2.432   1.642   8.367
 4269SOL    HW213704   2.410   1.489   8.316
 4270SOL     OW13705   2.864   0.796   8.686
 4270SOL    HW113706   2.905   0.764   8.772
 4270SOL    HW213707   2.768   0.769   8.683
 4271SOL     OW13708   1.902   0.544   8.562
 4271SOL    HW113709   1.987   0.511   8.521
 4271SOL    HW213710   1.915   0.559   8.660
 4272SOL     OW13711   2.051   0.520   9.170
 4272SOL    HW113712   2.110   0.480   9.100
 4272SOL    HW213713   1.993   0.591   9.129
 4273SOL     OW13714   3.231   0.950   9.108
 4273SOL    HW113715   3.270   1.039   9.128
 4273SOL    HW213716   3.241   0.930   9.011
 4274SOL     OW13717   2.677   0.572   7.773
 4274SOL    HW113718   2.684   0.483   7.727
 4274SOL    HW213719   2.583   0.606   7.765
 4275SOL     OW13720   3.519   0.604   8.654
 4275SOL    HW113721   3.481   0.535   8.716
 4275SOL    HW213722   3.601   0.568   8.610
 4276SOL     OW13723   2.114   1.564   9.192
 4276SOL    HW113724   2.084   1.621   9.268
 4276SOL    HW213725   2.107   1.467   9.218
 4277SOL     OW13726   2.533   0.464   8.717
 4277SOL    HW113727   2.499   0.375   8.687
 4277SOL    HW213728   2.559   0.518   8.637
 4278SOL     OW13729   2.792   1.678   8.913
 4278SOL    HW113730   2.768   1.660   8.818
 4278SOL    HW213731   2.822   1.772   8.923
 4279SOL     OW13732   2.335   0.500   7.639
 4279SOL    HW113733   2.396   0.580   7.643
 4279SOL    HW213734   2.240   0.531   7.646
 4280SOL     OW13735   2.021   1.137   8.914
 4280SOL    HW113736   2.043   1.076   8.990
 4280SOL    HW213737   2.031   1.088   8.828
 4281SOL     OW13738   3.209   1.059   8.682
 4281SOL    HW113739   3.233   0.996   8.608
 4281SOL    HW213740   3.119   1.099   8.664
 4282SOL     OW13741   3.164   0.855   7.757
 4282SOL    HW113742   3.078   0.824   7.799
 4282SOL    HW213743   3.160   0.841   7.658
 4283SOL     OW13744   3.621   1.747   8.602
 4283SOL    HW113745   3.682   1.777   8.529
 4283SOL    HW213746   3.583   1.658   8.580
 4284SOL     OW13747   3.114   1.731   8.576
 4284SOL    HW113748   3.198   1.736   8.522
 4284SOL    HW213749   3.091   1.635   8.594
 4285SOL     OW13750   1.945   1.258   8.470
 4285SOL    HW113751   1.940   1.257   8.570
 4285SOL    HW213752   1.862   1.217   8.432
 4286SOL     OW13753   2.550   1.662   9.164
 4286SOL    HW113754   2.494   1.743   9.173
 4286SOL    HW213755   2.602   1.666   9.078
 4287SOL     OW13756   3.588   0.135   7.971
 4287SOL    HW113757   3.661   0.118   7.904
 4287SOL    HW213758   3.557   0.048   8.009
 4288SOL     OW13759   3.250   1.573   7.925
 4288SOL    HW113760   3.317   1.585   7.851
 4288SOL    HW213761   3.210   1.662   7.948
 4289SOL     OW13762   3.142   0.927   8.120
 4289SOL    HW113763   3.202   0.846   8.122
 4289SOL    HW213764   3.182   0.996   8.060
 4290SOL     OW13765   2.692   1.273   8.870
 4290SOL    HW113766   2.687   1.306   8.965
 4290SOL    HW213767   2.606   1.292   8.824
 4291SOL     OW13768   3.512   1.720   8.842
 4291SOL    HW113769   3.565   1.730   8.758
 4291SOL    HW213770   3.485   1.810   8.876
 4292SOL     OW13771   3.703   0.175   8.411
 4292SOL    HW113772   3.742   0.090   8.375
 4292SOL    HW213773   3.605   0.177   8.392
 4293SOL     OW13774   2.125   0.326   8.168
 4293SOL    HW113775   2.046   0.377   8.134
 4293SOL    HW213776   2.116   0.311   8.266
 4294SOL     OW13777   3.056   1.612   7.479
 4294SOL    HW113778   3.062   1.519   7.516
 4294SOL    HW213779   2.997   1.612   7.399
 4295SOL     OW13780   2.684   1.002   8.820
 4295SOL    HW113781   2.724   1.001   8.728
 4295SOL    HW213782   2.694   1.094   8.860
 4296SOL     OW13783   2.778   0.910   7.739
 4296SOL    HW113784   2.841   0.948   7.671
 4296SOL    HW213785   2.818   0.827   7.778
 4297SOL     OW13786   3.366   1.607   7.492
 4297SOL    HW113787   3.274   1.644   7.499
 4297SOL    HW213788   3.404   1.627   7.402
 4298SOL     OW13789   2.234   1.288   8.938
 4298SOL    HW113790   2.221   1.381   8.904
 4298SOL    HW213791   2.150   1.236   8.925
 4299SOL     OW13792   3.476   1.292   8.737
 4299SOL    HW113793   3.536   1.295   8.817
 4299SOL    HW213794   3.401   1.356   8.750
 4300SOL     OW13795   2.901   1.098   8.144
 4300SOL    HW113796   2.831   1.051   8.198
 4300SOL    HW213797   2.960   1.030   8.101
 4301SOL     OW13798   2.876   0.236   8.419
 4301SOL    HW113799   2.868   0.200   8.326
 4301SOL    HW213800   2.874   0.160   8.484
 4302SOL     OW13801   2.452   1.487   7.939
 4302SOL    HW113802   2.494   1.429   7.869
 4302SOL    HW213803   2.408   1.566   7.895
 4303SOL     OW13804   3.571   0.385   8.829
 4303SOL    HW113805   3.644   0.454   8.833
 4303SOL    HW213806   3.599   0.310   8.770
 4304SOL     OW13807   1.967   1.013   9.174
 4304SOL    HW113808   1.890   0.980   9.228
 4304SOL    HW213809   2.052   0.983   9.216
 4305SOL     OW13810   2.534   0.203   8.937
 4305SOL    HW113811   2.624   0.187   8.897
 4305SOL    HW213812   2.542   0.208   9.036
 4306SOL     OW13813   1.937   0.345   7.481
 4306SOL    HW113814   1.845   0.317   7.452
 4306SOL    HW213815   1.968   0.422   7.425
 4307SOL     OW13816   3.302   0.856   8.846
 4307SOL    HW113817   3.245   0.908   8.783
 4307SOL    HW213818   3.398   0.868   8.822
 4308SOL     OW13819   1.934   0.166   7.766
 4308SOL    HW113820   1.917   0.249   7.712
 4308SOL    HW213821   2.024   0.129   7.744
 4309SOL     OW13822   3.045   1.335   7.567
 4309SOL    HW113823   2.946   1.324   7.569
 4309SOL    HW213824   3.079   1.350   7.660
 4310SOL     OW13825   2.475   0.842   8.879
 4310SOL    HW113826   2.531   0.923   8.862
 4310SOL    HW213827   2.534   0.762   8.882
 4311SOL     OW13828   3.355   1.767   8.407
 4311SOL    HW113829   3.388   1.831   8.338
 4311SOL    HW213830   3.421   1.761   8.482
 4312SOL     OW13831   2.578   0.565   9.156
 4312SOL    HW113832   2.597   0.630   9.230
 4312SOL    HW213833   2.638   0.485   9.165
 4313SOL     OW13834   3.312   1.220   9.081
 4313SOL    HW113835   3.303   1.210   9.180
 4313SOL    HW213836   3.408   1.213   9.055
 4314SOL     OW13837   2.252   1.741   9.008
 4314SOL    HW113838   2.161   1.782   9.006
 4314SOL    HW213839   2.245   1.647   9.040
 4315SOL     OW13840   3.536   0.883   8.702
 4315SOL    HW113841   3.509   0.794   8.665
 4315SOL    HW213842   3.537   0.951   8.629
 4316SOL     OW13843   3.087   0.325   7.897
 4316SOL    HW113844   3.152   0.251   7.886
 4316SOL    HW213845   3.107   0.375   7.981
 4317SOL     OW13846   2.456   0.745   8.100
 4317SOL    HW113847   2.506   0.830   8.081
 4317SOL    HW213848   2.368   0.747   8.052
 4318SOL     OW13849   3.639   0.342   9.090
 4318SOL    HW113850   3.622   0.373   8.996
 4318SOL    HW213851   3.555   0.305   9.128
 4319SOL     OW13852   3.592   0.934   8.965
 4319SOL    HW113853   3.630   1.025   8.980
 4319SOL    HW213854   3.584   0.917   8.866
 4320SOL     OW13855   2.523   1.790   8.401
 4320SOL    HW113856   2.477   1.878   8.388
 4320SOL    HW213857   2.622   1.802   8.394
 4321SOL     OW13858   2.721   0.956   8.309
 4321SOL    HW113859   2.775   0.887   8.357
 4321SOL    HW213860   2.689   1.025   8.375
 4322SOL     OW13861   2.945   0.984   7.535
 4322SOL    HW113862   2.922   1.037   7.453
 4322SOL    HW213863   3.026   0.928   7.516
 4323SOL     OW13864   3.723   1.569   8.299
 4323SOL    HW113865   3.652   1.557   8.229
 4323SOL    HW213866   3.724   1.490   8.359
 4324SOL     OW13867   2.083   1.314   9.292
 4324SOL    HW113868   2.018   1.241   9.271
 4324SOL    HW213869   2.087   1.328   9.390
 4325SOL     OW13870   1.941   1.240   8.101
 4325SOL    HW113871   1.940   1.193   8.189
 4325SOL    HW213872   2.023   1.212   8.050
 4326SOL     OW13873   2.534   1.391   9.072
 4326SOL    HW113874   2.456   1.341   9.110
 4326SOL    HW213875   2.531   1.486   9.103
 4327SOL     OW13876   3.686   0.192   8.675
 4327SOL    HW113877   3.682   0.102   8.719
 4327SOL    HW213878   3.689   0.181   8.576
 4328SOL     OW13879   2.290   0.424   7.968
 4328SOL    HW113880   2.320   0.352   7.906
 4328SOL    HW213881   2.251   0.384   8.051
 4329SOL     OW13882   3.567   1.487   8.552
 4329SOL    HW113883   3.474   1.462   8.525
 4329SOL    HW213884   3.593   1.437   8.634
 4330SOL     OW13885   2.179   0.547   8.728
 4330SOL    HW113886   2.217   0.488   8.800
 4330SOL    HW213887   2.219   0.521   8.640
 4331SOL     OW13888   2.674   1.586   8.135
 4331SOL    HW113889   2.706   1.596   8.041
 4331SOL    HW213890   2.595   1.524   8.137
 4332SOL     OW13891   3.286   0.214   8.560
 4332SOL    HW113892   3.338   0.149   8.615
 4332SOL    HW213893   3.237   0.277   8.621
 4333SOL     OW13894   2.863   0.034   8.602
 4333SOL    HW113895   2.800  -0.038   8.571
 4333SOL    HW213896   2.956  -0.002   8.602
 4334SOL     OW13897   2.632   1.330   7.749
 4334SOL    HW113898   2.586   1.243   7.766
 4334SOL    HW213899   2.723   1.327   7.790
 4335SOL     OW13900   2.480   1.567   8.732
 4335SOL    HW113901   2.475   1.649   8.789
 4335SOL    HW213902   2.569   1.564   8.687
 4336SOL     OW13903   3.214   0.052   7.616
 4336SOL    HW113904   3.249   0.011   7.532
 4336SOL    HW213905   3.124   0.014   7.636
 4337SOL     OW13906   3.162   0.453   8.139
 4337SOL    HW113907   3.103   0.533   8.143
 4337SOL    HW213908   3.177   0.418   8.232
 4338SOL     OW13909   3.455   0.221   8.330
 4338SOL    HW113910   3.371   0.220   8.384
 4338SOL    HW213911   3.457   0.304   8.274
 4339SOL     OW13912   1.901   1.077   7.748
 4339SOL    HW113913   2.000   1.066   7.739
 4339SOL    HW213914   1.861   0.991   7.780
 4340SOL     OW13915   2.092   0.628   9.423
 4340SOL    HW113916   1.999   0.626   9.460
 4340SOL    HW213917   2.093   0.589   9.331
 4341SOL     OW13918   2.087   0.275  10.306
 4341SOL    HW113919   2.122   0.258  10.398
 4341SOL    HW213920   1.999   0.230  10.294
 4342SOL     OW13921   1.881   0.368   9.957
 4342SOL    HW113922   1.799   0.411   9.996
 4342SOL    HW213923   1.853   0.295   9.894
 4343SOL     OW13924   2.431   1.275  10.475
 4343SOL    HW113925   2.338   1.268  10.438
 4343SOL    HW213926   2.442   1.364  10.519
 4344SOL     OW13927   3.417   1.511  10.013
 4344SOL    HW113928   3.360   1.495  10.094
 4344SOL    HW213929   3.358   1.521   9.933
 4345SOL     OW13930   2.997   0.703  10.027
 4345SOL    HW113931   3.054   0.781  10.002
 4345SOL    HW213932   2.937   0.729  10.103
 4346SOL     OW13933   3.617   0.607   9.541
 4346SOL    HW113934   3.605   0.594   9.442
 4346SOL    HW213935   3.587   0.526   9.590
 4347SOL     OW13936   2.630   1.144  10.333
 4347SOL    HW113937   2.552   1.161  10.393
 4347SOL    HW213938   2.664   1.231  10.297
 4348SOL     OW13939   2.712   0.798  11.133
 4348SOL    HW113940   2.708   0.874  11.198
 4348SOL    HW213941   2.734   0.834  11.042
 4349SOL     OW13942   2.547   1.012   9.975
 4349SOL    HW113943   2.616   0.996  10.045
 4349SOL    HW213944   2.474   1.069  10.013
 4350SOL     OW13945   2.548   1.161  11.113
 4350SOL    HW113946   2.608   1.240  11.127
 4350SOL    HW213947   2.462   1.192  11.072
 4351SOL     OW13948   2.197   1.435  10.371
 4351SOL    HW113949   2.119   1.404  10.318
 4351SOL    HW213950   2.255   1.493  10.314
 4352SOL     OW13951   3.322   1.505  10.649
 4352SOL    HW113952   3.346   1.599  10.675
 4352SOL    HW213953   3.306   1.451  10.731
 4353SOL     OW13954   2.300   0.392  10.809
 4353SOL    HW113955   2.382   0.336  10.818
 4353SOL    HW213956   2.219   0.334  10.813
 4354SOL     OW13957   3.465   0.447  10.047
 4354SOL    HW113958   3.391   0.493   9.997
 4354SOL    HW213959   3.516   0.515  10.100
 4355SOL     OW13960   2.093   1.713   9.793
 4355SOL    HW113961   2.127   1.790   9.847
 4355SOL    HW213962   2.137   1.713   9.703
 4356SOL     OW13963   2.989   1.341  11.000
 4356SOL    HW113964   3.036   1.341  11.088
 4356SOL    HW213965   2.941   1.254  10.989
 4357SOL     OW13966   2.092   1.434   9.848
 4357SOL    HW113967   2.066   1.530   9.848
 4357SOL    HW213968   2.021   1.380   9.893
 4358SOL     OW13969   2.102   1.091  10.196
 4358SOL    HW113970   2.116   1.007  10.248
 4358SOL    HW213971   2.047   1.155  10.251
 4359SOL     OW13972   2.482   1.786  10.749
 4359SOL    HW113973   2.390   1.769  10.784
 4359SOL    HW213974   2.510   1.878  10.775
 4360SOL     OW13975   2.468   0.964   9.433
 4360SOL    HW113976   2.475   1.048   9.379
 4360SOL    HW213977   2.514   0.977   9.521
 4361SOL     OW13978   3.456   0.114  10.790
 4361SOL    HW113979   3.438   0.181  10.718
 4361SOL    HW213980   3.453   0.160  10.879
 4362SOL     OW13981   1.984   0.643   9.873
 4362SOL    HW113982   1.939   0.555   9.890
 4362SOL    HW213983   1.983   0.697   9.957
 4363SOL     OW13984   3.704   1.767   9.669
 4363SOL    HW113985   3.758   1.738   9.749
 4363SOL    HW213986   3.734   1.857   9.640
 4364SOL     OW13987   1.889   1.596   9.427
 4364SOL    HW113988   1.870   1.500   9.448
 4364SOL    HW213989   1.856   1.654   9.502
 4365SOL     OW13990   3.551   0.922   9.922
 4365SOL    HW113991   3.646   0.893   9.930
 4365SOL    HW213992   3.543   0.987   9.847
 4366SOL     OW13993   3.503   1.108   9.742
 4366SOL    HW113994   3.589   1.110   9.690
 4366SOL    HW213995   3.517   1.155   9.830
 4367SOL     OW13996   1.975   0.737  10.907
 4367SOL    HW113997   2.063   0.724  10.952
 4367SOL    HW213998   1.962   0.834  10.885
 4368SOL     OW13999   2.475   1.365  10.036
 4368SOL    HW114000   2.426   1.278  10.045
 4368SOL    HW214001   2.452   1.408   9.949
 4369SOL     OW14002   3.155   1.228  10.733
 4369SOL    HW114003   3.192   1.155  10.675
 4369SOL    HW214004   3.207   1.233  10.818
 4370SOL     OW14005   2.671   0.004   9.812
 4370SOL    HW114006   2.711   0.095   9.803
 4370SOL    HW214007   2.571   0.012   9.818
 4371SOL     OW14008   2.059   0.976  10.574
 4371SOL    HW114009   2.148   0.931  10.560
 4371SOL    HW214010   1.986   0.911  10.555
 4372SOL     OW14011   3.387   0.999   9.500
 4372SOL    HW114012   3.324   0.923   9.513
 4372SOL    HW214013   3.435   1.017   9.586
 4373SOL     OW14014   3.049   1.792  10.926
 4373SOL    HW114015   3.073   1.852  10.850
 4373SOL    HW214016   3.056   1.697  10.896
 4374SOL     OW14017   2.179   0.251  11.111
 4374SOL    HW114018   2.250   0.322  11.117
 4374SOL    HW214019   2.091   0.290  11.139
 4375SOL     OW14020   3.328   1.417  10.263
 4375SOL    HW114021   3.269   1.423  10.343
 4375SOL    HW214022   3.313   1.329  10.217
 4376SOL     OW14023   3.529   1.714   9.882
 4376SOL    HW114024   3.488   1.691   9.794
 4376SOL    HW214025   3.511   1.640   9.947
 4377SOL     OW14026   2.460   0.729   9.580
 4377SOL    HW114027   2.484   0.798   9.512
 4377SOL    HW214028   2.382   0.762   9.634
 4378SOL     OW14029   3.143   0.345  10.254
 4378SOL    HW114030   3.057   0.295  10.241
 4378SOL    HW214031   3.205   0.291  10.310
 4379SOL     OW14032   3.438   1.662   9.617
 4379SOL    HW114033   3.527   1.708   9.620
 4379SOL    HW214034   3.417   1.638   9.522
 4380SOL     OW14035   2.669   0.605  10.775
 4380SOL    HW114036   2.622   0.602  10.864
 4380SOL    HW214037   2.618   0.550  10.709
 4381SOL     OW14038   3.256   0.469  10.984
 4381SOL    HW114039   3.236   0.512  11.072
 4381SOL    HW214040   3.334   0.407  10.993
 4382SOL     OW14041   2.835   0.890  10.882
 4382SOL    HW114042   2.881   0.806  10.853
 4382SOL    HW214043   2.779   0.924  10.807
 4383SOL     OW14044   2.853   0.410  10.552
 4383SOL    HW114045   2.776   0.444  10.606
 4383SOL    HW214046   2.819   0.359  10.473
 4384SOL     OW14047   2.903   0.701   9.739
 4384SOL    HW114048   2.929   0.697   9.835
 4384SOL    HW214049   2.818   0.650   9.725
 4385SOL     OW14050   1.938   0.811  10.099
 4385SOL    HW114051   2.037   0.799  10.108
 4385SOL    HW214052   1.914   0.906  10.120
 4386SOL     OW14053   2.727   0.348   9.505
 4386SOL    HW114054   2.786   0.411   9.456
 4386SOL    HW214055   2.746   0.254   9.476
 4387SOL     OW14056   3.581   0.585  11.141
 4387SOL    HW114057   3.555   0.674  11.105
 4387SOL    HW214058   3.579   0.517  11.068
 4388SOL     OW14059   3.224   1.144   9.855
 4388SOL    HW114060   3.307   1.115   9.807
 4388SOL    HW214061   3.175   1.211   9.799
 4389SOL     OW14062   2.412   0.196  10.195
 4389SOL    HW114063   2.407   0.191  10.295
 4389SOL    HW214064   2.414   0.292  10.166
 4390SOL     OW14065   2.870   1.456   9.787
 4390SOL    HW114066   2.824   1.528   9.735
 4390SOL    HW214067   2.866   1.476   9.885
 4391SOL     OW14068   2.213   1.801  10.163
 4391SOL    HW114069   2.263   1.715  10.169
 4391SOL    HW214070   2.278   1.878  10.160
 4392SOL     OW14071   3.657   1.066  10.183
 4392SOL    HW114072   3.595   1.051  10.107
 4392SOL    HW214073   3.605   1.077  10.268
 4393SOL     OW14074   3.089   1.550  10.816
 4393SOL    HW114075   3.095   1.473  10.880
 4393SOL    HW214076   3.037   1.524  10.736
 4394SOL     OW14077   2.183   0.943   9.552
 4394SOL    HW114078   2.265   0.982   9.510
 4394SOL    HW214079   2.156   0.861   9.503
 4395SOL     OW14080   3.320   0.735  10.038
 4395SOL    HW114081   3.315   0.670  10.113
 4395SOL    HW214082   3.400   0.794  10.051
 4396SOL     OW14083   2.323   1.266  11.037
 4396SOL    HW114084   2.273   1.267  10.951
 4396SOL    HW214085   2.260   1.248  11.113
 4397SOL     OW14086   2.973   1.776   9.547
 4397SOL    HW114087   2.913   1.714   9.597
 4397SOL    HW214088   3.004   1.732   9.462
 4398SOL     OW14089   2.064   0.285  10.808
 4398SOL    HW114090   1.984   0.345  10.795
 4398SOL    HW214091   2.054   0.236  10.894
 4399SOL     OW14092   3.494   1.377   9.391
 4399SOL    HW114093   3.462   1.471   9.381
 4399SOL    HW214094   3.418   1.314   9.379
 4400SOL     OW14095   2.326   1.743   9.633
 4400SOL    HW114096   2.359   1.782   9.719
 4400SOL    HW214097   2.402   1.736   9.568
 4401SOL     OW14098   3.262   0.107   9.736
 4401SOL    HW114099   3.238   0.070   9.646
 4401SOL    HW214100   3.361   0.123   9.740
 4402SOL     OW14101   2.111   1.785  10.551
 4402SOL    HW114102   2.168   1.720  10.601
 4402SOL    HW214103   2.095   1.752  10.458
 4403SOL     OW14104   2.802   1.698  10.214
 4403SOL    HW114105   2.882   1.641  10.235
 4403SOL    HW214106   2.753   1.658  10.137
 4404SOL     OW14107   2.244   0.700   9.790
 4404SOL    HW114108   2.289   0.610   9.787
 4404SOL    HW214109   2.150   0.689   9.823
 4405SOL     OW14110   3.409   0.222  11.039
 4405SOL    HW114111   3.404   0.259  11.131
 4405SOL    HW214112   3.337   0.153  11.027
 4406SOL     OW14113   2.476   0.122   9.427
 4406SOL    HW114114   2.574   0.100   9.434
 4406SOL    HW214115   2.445   0.105   9.334
 4407SOL     OW14116   2.643   0.264  11.059
 4407SOL    HW114117   2.710   0.203  11.102
 4407SOL    HW214118   2.570   0.283  11.124
 4408SOL     OW14119   2.750   1.514  10.505
 4408SOL    HW114120   2.727   1.489  10.411
 4408SOL    HW214121   2.811   1.445  10.544
 4409SOL     OW14122   3.213   0.590  10.743
 4409SOL    HW114123   3.241   0.547  10.828
 4409SOL    HW214124   3.238   0.686  10.744
 4410SOL     OW14125   2.665   1.402  10.234
 4410SOL    HW114126   2.755   1.416  10.192
 4410SOL    HW214127   2.594   1.404  10.163
 4411SOL     OW14128   2.784   0.503  10.209
 4411SOL    HW114129   2.759   0.494  10.113
 4411SOL    HW214130   2.832   0.421  10.240
 4412SOL     OW14131   2.401   0.064   9.822
 4412SOL    HW114132   2.320   0.065   9.880
 4412SOL    HW214133   2.404   0.147   9.767
 4413SOL     OW14134   3.296   1.188   9.351
 4413SOL    HW114135   3.328   1.112   9.408
 4413SOL    HW214136   3.204   1.215   9.381
 4414SOL     OW14137   2.159   0.035   9.481
 4414SOL    HW114138   2.208   0.119   9.460
 4414SOL    HW214139   2.221  -0.030   9.526
 4415SOL     OW14140   2.797   0.236   9.790
 4415SOL    HW114141   2.749   0.277   9.712
 4415SOL    HW214142   2.896   0.234   9.771
 4416SOL     OW14143   2.938   0.683  10.774
 4416SOL    HW114144   2.858   0.622  10.777
 4416SOL    HW214145   3.019   0.630  10.750
 4417SOL     OW14146   3.089   1.570  10.103
 4417SOL    HW114147   3.110   1.644  10.038
 4417SOL    HW214148   3.157   1.570  10.176
 4418SOL     OW14149   2.321   1.152  10.051
 4418SOL    HW114150   2.250   1.125  10.116
 4418SOL    HW214151   2.295   1.124   9.958
 4419SOL     OW14152   3.133   1.797   9.901
 4419SOL    HW114153   3.177   1.861   9.837
 4419SOL    HW214154   3.083   1.849   9.971
 4420SOL     OW14155   2.894   0.549   9.326
 4420SOL    HW114156   2.853   0.631   9.287
 4420SOL    HW214157   2.958   0.575   9.399
 4421SOL     OW14158   1.940   0.556  10.696
 4421SOL    HW114159   2.032   0.555  10.655
 4421SOL    HW214160   1.934   0.630  10.763
 4422SOL     OW14161   2.423   0.222  10.457
 4422SOL    HW114162   2.461   0.138  10.494
 4422SOL    HW214163   2.335   0.241  10.501
 4423SOL     OW14164   2.728   0.454   9.952
 4423SOL    HW114165   2.696   0.526   9.890
 4423SOL    HW214166   2.752   0.373   9.899
 4424SOL     OW14167   2.879   0.039  10.063
 4424SOL    HW114168   2.807   0.044   9.994
 4424SOL    HW214169   2.855  -0.030  10.132
 4425SOL     OW14170   3.291   1.173  10.177
 4425SOL    HW114171   3.236   1.089  10.170
 4425SOL    HW214172   3.317   1.202  10.085
 4426SOL     OW14173   3.328   0.590  10.302
 4426SOL    HW114174   3.298   0.495  10.309
 4426SOL    HW214175   3.401   0.606  10.368
 4427SOL     OW14176   3.719   0.833   9.687
 4427SOL    HW114177   3.761   0.769   9.751
 4427SOL    HW214178   3.681   0.782   9.609
 4428SOL     OW14179   2.350   1.385   9.484
 4428SOL    HW114180   2.263   1.370   9.531
 4428SOL    HW214181   2.333   1.411   9.389
 4429SOL     OW14182   3.526   1.280   9.967
 4429SOL    HW114183   3.625   1.288   9.981
 4429SOL    HW214184   3.481   1.364   9.998
 4430SOL     OW14185   3.252   0.575   9.388
 4430SOL    HW114186   3.198   0.554   9.469
 4430SOL    HW214187   3.343   0.534   9.397
 4431SOL     OW14188   2.389   0.256   9.638
 4431SOL    HW114189   2.416   0.197   9.563
 4431SOL    HW214190   2.389   0.351   9.607
 4432SOL     OW14191   3.616   1.223  10.898
 4432SOL    HW114192   3.707   1.184  10.885
 4432SOL    HW214193   3.624   1.319  10.922
 4433SOL     OW14194   2.926   1.347  10.650
 4433SOL    HW114195   2.846   1.324  10.705
 4433SOL    HW214196   3.009   1.321  10.699
 4434SOL     OW14197   3.454   1.629  10.935
 4434SOL    HW114198   3.481   1.663  10.845
 4434SOL    HW214199   3.533   1.591  10.981
 4435SOL     OW14200   2.973   1.195  10.410
 4435SOL    HW114201   2.933   1.239  10.491
 4435SOL    HW214202   2.932   1.232  10.327
 4436SOL     OW14203   3.500   1.099  10.389
 4436SOL    HW114204   3.505   1.180  10.448
 4436SOL    HW214205   3.414   1.101  10.338
 4437SOL     OW14206   2.777   0.089  10.712
 4437SOL    HW114207   2.802   0.069  10.617
 4437SOL    HW214208   2.849   0.145  10.754
 4438SOL     OW14209   2.842   1.116  11.029
 4438SOL    HW114210   2.743   1.122  11.039
 4438SOL    HW214211   2.865   1.036  10.973
 4439SOL     OW14212   2.567   1.050   9.678
 4439SOL    HW114213   2.553   1.057   9.777
 4439SOL    HW214214   2.651   0.999   9.660
 4440SOL     OW14215   2.272   0.813  10.561
 4440SOL    HW114216   2.358   0.825  10.611
 4440SOL    HW214217   2.230   0.726  10.588
 4441SOL     OW14218   3.136   0.386  10.572
 4441SOL    HW114219   3.157   0.460  10.636
 4441SOL    HW214220   3.047   0.403  10.529
 4442SOL     OW14221   1.926   1.564  10.641
 4442SOL    HW114222   1.880   1.646  10.607
 4442SOL    HW214223   2.024   1.583  10.650
 4443SOL     OW14224   2.229   1.100   9.811
 4443SOL    HW114225   2.222   1.183   9.755
 4443SOL    HW214226   2.233   1.020   9.751
 4444SOL     OW14227   2.428   0.537  10.175
 4444SOL    HW114228   2.440   0.603  10.101
 4444SOL    HW214229   2.474   0.571  10.258
 4445SOL     OW14230   3.114   1.348   9.698
 4445SOL    HW114231   3.164   1.425   9.738
 4445SOL    HW214232   3.019   1.350   9.730
 4446SOL     OW14233   3.134   1.445  10.452
 4446SOL    HW114234   3.181   1.458  10.539
 4446SOL    HW214235   3.068   1.371  10.461
 4447SOL     OW14236   3.444   0.639   9.782
 4447SOL    HW114237   3.413   0.700   9.855
 4447SOL    HW214238   3.494   0.691   9.713
 4448SOL     OW14239   2.216   1.510  10.639
 4448SOL    HW114240   2.195   1.466  10.552
 4448SOL    HW214241   2.313   1.536  10.642
 4449SOL     OW14242   2.264   0.751  10.908
 4449SOL    HW114243   2.332   0.806  10.861
 4449SOL    HW214244   2.304   0.663  10.935
 4450SOL     OW14245   3.449   0.779  10.980
 4450SOL    HW114246   3.357   0.817  10.975
 4450SOL    HW214247   3.509   0.826  10.915
 4451SOL     OW14248   2.875   0.105  11.080
 4451SOL    HW114249   2.881   0.190  11.028
 4451SOL    HW214250   2.907   0.029  11.023
 4452SOL     OW14251   2.366   0.050  11.050
 4452SOL    HW114252   2.324  -0.007  10.980
 4452SOL    HW214253   2.300   0.119  11.082
 4453SOL     OW14254   2.435   0.870  10.339
 4453SOL    HW114255   2.479   0.959  10.330
 4453SOL    HW214256   2.372   0.870  10.416
 4454SOL     OW14257   3.222   0.862  10.355
 4454SOL    HW114258   3.147   0.862  10.289
 4454SOL    HW214259   3.259   0.770  10.364
 4455SOL     OW14260   3.071   0.525   9.585
 4455SOL    HW114261   3.084   0.441   9.639
 4455SOL    HW214262   3.042   0.599   9.645
 4456SOL     OW14263   2.169   0.213  10.541
 4456SOL    HW114264   2.146   0.250  10.631
 4456SOL    HW214265   2.139   0.118  10.535
 4457SOL     OW14266   1.899   1.310  10.592
 4457SOL    HW114267   1.952   1.261  10.660
 4457SOL    HW214268   1.921   1.408  10.597
 4458SOL     OW14269   2.594   0.634  10.374
 4458SOL    HW114270   2.653   0.608  10.298
 4458SOL    HW214271   2.566   0.730  10.363
 4459SOL     OW14272   3.590   0.935  11.164
 4459SOL    HW114273   3.544   0.928  11.075
 4459SOL    HW214274   3.528   0.979  11.230
 4460SOL     OW14275   2.169   0.063   9.928
 4460SOL    HW114276   2.158   0.157   9.961
 4460SOL    HW214277   2.164   0.000  10.005
 4461SOL     OW14278   3.484   0.367   9.684
 4461SOL    HW114279   3.486   0.291   9.748
 4461SOL    HW214280   3.436   0.444   9.724
 4462SOL     OW14281   2.885   0.766  10.276
 4462SOL    HW114282   2.900   0.787  10.372
 4462SOL    HW214283   2.855   0.671  10.267
 4463SOL     OW14284   2.842   1.573  11.010
 4463SOL    HW114285   2.822   1.617  10.922
 4463SOL    HW214286   2.881   1.482  10.994
 4464SOL     OW14287   3.721   1.518  10.915
 4464SOL    HW114288   3.735   1.545  10.820
 4464SOL    HW214289   3.804   1.540  10.968
 4465SOL     OW14290   2.212   0.898  11.114
 4465SOL    HW114291   2.288   0.942  11.162
 4465SOL    HW214292   2.247   0.851  11.032
 4466SOL     OW14293   3.402   0.274   9.435
 4466SOL    HW114294   3.341   0.199   9.458
 4466SOL    HW214295   3.424   0.326   9.518
 4467SOL     OW14296   3.165   0.838   9.352
 4467SOL    HW114297   3.199   0.745   9.367
 4467SOL    HW214298   3.183   0.865   9.257
 4468SOL     OW14299   2.930   1.333  10.159
 4468SOL    HW114300   2.937   1.249  10.104
 4468SOL    HW214301   2.992   1.402  10.123
 4469SOL     OW14302   2.181   0.810  10.259
 4469SOL    HW114303   2.274   0.846  10.264
 4469SOL    HW214304   2.175   0.725  10.311
 4470SOL     OW14305   2.201   0.509  10.316
 4470SOL    HW114306   2.149   0.426  10.299
 4470SOL    HW214307   2.278   0.514  10.252
 4471SOL     OW14308   3.000   0.380  10.988
 4471SOL    HW114309   2.955   0.443  11.052
 4471SOL    HW214310   3.093   0.411  10.971
 4472SOL     OW14311   3.022   0.207  10.787
 4472SOL    HW114312   3.022   0.271  10.864
 4472SOL    HW214313   3.050   0.255  10.704
 4473SOL     OW14314   1.870   1.326   9.510
 4473SOL    HW114315   1.777   1.347   9.479
 4473SOL    HW214316   1.880   1.227   9.523
 4474SOL     OW14317   2.366   1.568  10.220
 4474SOL    HW114318   2.432   1.642  10.229
 4474SOL    HW214319   2.410   1.489  10.178
 4475SOL     OW14320   2.864   0.796  10.548
 4475SOL    HW114321   2.905   0.764  10.634
 4475SOL    HW214322   2.768   0.769  10.545
 4476SOL     OW14323   1.902   0.544  10.424
 4476SOL    HW114324   1.987   0.511  10.383
 4476SOL    HW214325   1.915   0.559  10.522
 4477SOL     OW14326   2.051   0.520  11.032
 4477SOL    HW114327   2.110   0.480  10.962
 4477SOL    HW214328   1.993   0.591  10.991
 4478SOL     OW14329   3.231   0.950  10.970
 4478SOL    HW114330   3.270   1.039  10.990
 4478SOL    HW214331   3.241   0.930  10.873
 4479SOL     OW14332   2.677   0.572   9.635
 4479SOL    HW114333   2.684   0.483   9.589
 4479SOL    HW214334   2.583   0.606   9.627
 4480SOL     OW14335   3.519   0.604  10.516
 4480SOL    HW114336   3.481   0.535  10.578
 4480SOL    HW214337   3.601   0.568  10.472
 4481SOL     OW14338   2.114   1.564  11.054
 4481SOL    HW114339   2.084   1.621  11.130
 4481SOL    HW214340   2.107   1.467  11.080
 4482SOL     OW14341   2.533   0.464  10.579
 4482SOL    HW114342   2.499   0.375  10.549
 4482SOL    HW214343   2.559   0.518  10.499
 4483SOL     OW14344   2.792   1.678  10.775
 4483SOL    HW114345   2.768   1.660  10.680
 4483SOL    HW214346   2.822   1.772  10.785
 4484SOL     OW14347   2.335   0.500   9.501
 4484SOL    HW114348   2.396   0.580   9.505
 4484SOL    HW214349   2.240   0.531   9.508
 4485SOL     OW14350   2.021   1.137  10.776
 4485SOL    HW114351   2.043   1.076  10.852
 4485SOL    HW214352   2.031   1.088  10.690
 4486SOL     OW14353   3.209   1.059  10.544
 4486SOL    HW114354   3.233   0.996  10.470
 4486SOL    HW214355   3.119   1.099  10.526
 4487SOL     OW14356   3.164   0.855   9.619
 4487SOL    HW114357   3.078   0.824   9.661
 4487SOL    HW214358   3.160   0.841   9.520
 4488SOL     OW14359   3.621   1.747  10.464
 4488SOL    HW114360   3.682   1.777  10.391
 4488SOL    HW214361   3.583   1.658  10.442
 4489SOL     OW14362   3.114   1.731  10.438
 4489SOL    HW114363   3.198   1.736  10.384
 4489SOL    HW214364   3.091   1.635  10.456
 4490SOL     OW14365   1.945   1.258  10.332
 4490SOL    HW114366   1.940   1.257  10.432
 4490SOL    HW214367   1.862   1.217  10.294
 4491SOL     OW14368   2.550   1.662  11.026
 4491SOL    HW114369   2.494   1.743  11.035
 4491SOL    HW214370   2.602   1.666  10.940
 4492SOL     OW14371   3.588   0.135   9.833
 4492SOL    HW114372   3.661   0.118   9.766
 4492SOL    HW214373   3.557   0.048   9.871
 4493SOL     OW14374   3.250   1.573   9.787
 4493SOL    HW114375   3.317   1.585   9.713
 4493SOL    HW214376   3.210   1.662   9.810
 4494SOL     OW14377   3.142   0.927   9.982
 4494SOL    HW114378   3.202   0.846   9.984
 4494SOL    HW214379   3.182   0.996   9.922
 4495SOL     OW14380   2.692   1.273  10.732
 4495SOL    HW114381   2.687   1.306  10.827
 4495SOL    HW214382   2.606   1.292  10.686
 4496SOL     OW14383   2.534   1.616   9.464
 4496SOL    HW114384   2.543   1.626   9.365
 4496SOL    HW214385   2.494   1.527   9.485
 4497SOL     OW14386   3.512   1.720  10.704
 4497SOL    HW114387   3.565   1.730  10.620
 4497SOL    HW214388   3.485   1.810  10.738
 4498SOL     OW14389   3.703   0.175  10.273
 4498SOL    HW114390   3.742   0.090  10.237
 4498SOL    HW214391   3.605   0.177  10.254
 4499SOL     OW14392   2.125   0.326  10.030
 4499SOL    HW114393   2.046   0.377   9.996
 4499SOL    HW214394   2.116   0.311  10.128
 4500SOL     OW14395   3.056   1.612   9.341
 4500SOL    HW114396   3.062   1.519   9.378
 4500SOL    HW214397   2.997   1.612   9.261
 4501SOL     OW14398   2.684   1.002  10.682
 4501SOL    HW114399   2.724   1.001  10.590
 4501SOL    HW214400   2.694   1.094  10.722
 4502SOL     OW14401   2.778   0.910   9.601
 4502SOL    HW114402   2.841   0.948   9.533
 4502SOL    HW214403   2.818   0.827   9.640
 4503SOL     OW14404   3.366   1.607   9.354
 4503SOL    HW114405   3.274   1.644   9.361
 4503SOL    HW214406   3.404   1.627   9.264
 4504SOL     OW14407   2.234   1.288  10.800
 4504SOL    HW114408   2.221   1.381  10.766
 4504SOL    HW214409   2.150   1.236  10.787
 4505SOL     OW14410   3.476   1.292  10.599
 4505SOL    HW114411   3.536   1.295  10.679
 4505SOL    HW214412   3.401   1.356  10.612
 4506SOL     OW14413   2.901   1.098  10.006
 4506SOL    HW114414   2.831   1.051  10.060
 4506SOL    HW214415   2.960   1.030   9.963
 4507SOL     OW14416   2.876   0.236  10.281
 4507SOL    HW114417   2.868   0.200  10.188
 4507SOL    HW214418   2.874   0.160  10.346
 4508SOL     OW14419   2.452   1.487   9.801
 4508SOL    HW114420   2.494   1.429   9.731
 4508SOL    HW214421   2.408   1.566   9.757
 4509SOL     OW14422   3.571   0.385  10.691
 4509SOL    HW114423   3.644   0.454  10.695
 4509SOL    HW214424   3.599   0.310  10.632
 4510SOL     OW14425   2.117   1.348   9.600
 4510SOL    HW114426   2.021   1.349   9.573
 4510SOL    HW214427   2.129   1.401   9.684
 4511SOL     OW14428   1.967   1.013  11.036
 4511SOL    HW114429   1.890   0.980  11.090
 4511SOL    HW214430   2.052   0.983  11.078
 4512SOL     OW14431   2.534   0.203  10.799
 4512SOL    HW114432   2.624   0.187  10.759
 4512SOL    HW214433   2.542   0.208  10.898
 4513SOL     OW14434   1.937   0.345   9.343
 4513SOL    HW114435   1.845   0.317   9.314
 4513SOL    HW214436   1.968   0.422   9.287
 4514SOL     OW14437   3.302   0.856  10.708
 4514SOL    HW114438   3.245   0.908  10.645
 4514SOL    HW214439   3.398   0.868  10.684
 4515SOL     OW14440   1.934   0.166   9.628
 4515SOL    HW114441   1.917   0.249   9.574
 4515SOL    HW214442   2.024   0.129   9.606
 4516SOL     OW14443   3.045   1.335   9.429
 4516SOL    HW114444   2.946   1.324   9.431
 4516SOL    HW214445   3.079   1.350   9.522
 4517SOL     OW14446   2.475   0.842  10.741
 4517SOL    HW114447   2.531   0.923  10.724
 4517SOL    HW214448   2.534   0.762  10.744
 4518SOL     OW14449   3.355   1.767  10.269
 4518SOL    HW114450   3.388   1.831  10.200
 4518SOL    HW214451   3.421   1.761  10.344
 4519SOL     OW14452   2.578   0.565  11.018
 4519SOL    HW114453   2.597   0.630  11.092
 4519SOL    HW214454   2.638   0.485  11.027
 4520SOL     OW14455   3.312   1.220  10.943
 4520SOL    HW114456   3.303   1.210  11.042
 4520SOL    HW214457   3.408   1.213  10.917
 4521SOL     OW14458   2.252   1.741  10.870
 4521SOL    HW114459   2.161   1.782  10.868
 4521SOL    HW214460   2.245   1.647  10.902
 4522SOL     OW14461   3.536   0.883  10.564
 4522SOL    HW114462   3.509   0.794  10.527
 4522SOL    HW214463   3.537   0.951  10.491
 4523SOL     OW14464   3.087   0.325   9.759
 4523SOL    HW114465   3.152   0.251   9.748
 4523SOL    HW214466   3.107   0.375   9.843
 4524SOL     OW14467   2.456   0.745   9.962
 4524SOL    HW114468   2.506   0.830   9.943
 4524SOL    HW214469   2.368   0.747   9.914
 4525SOL     OW14470   3.639   0.342  10.952
 4525SOL    HW114471   3.622   0.373  10.858
 4525SOL    HW214472   3.555   0.305  10.990
 4526SOL     OW14473   3.592   0.934  10.827
 4526SOL    HW114474   3.630   1.025  10.842
 4526SOL    HW214475   3.584   0.917  10.728
 4527SOL     OW14476   2.721   1.374   9.326
 4527SOL    HW114477   2.675   1.389   9.414
 4527SOL    HW214478   2.765   1.459   9.296
 4528SOL     OW14479   2.523   1.790  10.263
 4528SOL    HW114480   2.477   1.878  10.250
 4528SOL    HW214481   2.622   1.802  10.256
 4529SOL     OW14482   2.721   0.956  10.171
 4529SOL    HW114483   2.775   0.887  10.219
 4529SOL    HW214484   2.689   1.025  10.237
 4530SOL     OW14485   2.945   0.984   9.397
 4530SOL    HW114486   2.922   1.037   9.315
 4530SOL    HW214487   3.026   0.928   9.378
 4531SOL     OW14488   3.723   1.569  10.161
 4531SOL    HW114489   3.652   1.557  10.091
 4531SOL    HW214490   3.724   1.490  10.221
 4532SOL     OW14491   2.083   1.314  11.154
 4532SOL    HW114492   2.018   1.241  11.133
 4532SOL    HW214493   2.087   1.328  11.252
 4533SOL     OW14494   1.941   1.240   9.963
 4533SOL    HW114495   1.940   1.193  10.051
 4533SOL    HW214496   2.023   1.212   9.912
 4534SOL     OW14497   2.534   1.391  10.934
 4534SOL    HW114498   2.456   1.341  10.972
 4534SOL    HW214499   2.531   1.486  10.965
 4535SOL     OW14500   3.686   0.192  10.537
 4535SOL    HW114501   3.682   0.102  10.581
 4535SOL    HW214502   3.689   0.181  10.438
 4536SOL     OW14503   2.290   0.424   9.830
 4536SOL    HW114504   2.320   0.352   9.768
 4536SOL    HW214505   2.251   0.384   9.913
 4537SOL     OW14506   3.567   1.487  10.414
 4537SOL    HW114507   3.474   1.462  10.387
 4537SOL    HW214508   3.593   1.437  10.496
 4538SOL     OW14509   2.179   0.547  10.590
 4538SOL    HW114510   2.217   0.488  10.662
 4538SOL    HW214511   2.219   0.521  10.502
 4539SOL     OW14512   2.674   1.586   9.997
 4539SOL    HW114513   2.706   1.596   9.903
 4539SOL    HW214514   2.595   1.524   9.999
 4540SOL     OW14515   3.286   0.214  10.422
 4540SOL    HW114516   3.338   0.149  10.477
 4540SOL    HW214517   3.237   0.277  10.483
 4541SOL     OW14518   2.863   0.034  10.464
 4541SOL    HW114519   2.800  -0.038  10.433
 4541SOL    HW214520   2.956  -0.002  10.464
 4542SOL     OW14521   2.632   1.330   9.611
 4542SOL    HW114522   2.586   1.243   9.628
 4542SOL    HW214523   2.723   1.327   9.652
 4543SOL     OW14524   2.480   1.567  10.594
 4543SOL    HW114525   2.475   1.649  10.651
 4543SOL    HW214526   2.569   1.564  10.549
 4544SOL     OW14527   3.214   0.052   9.478
 4544SOL    HW114528   3.249   0.011   9.394
 4544SOL    HW214529   3.124   0.014   9.498
 4545SOL     OW14530   3.162   0.453  10.001
 4545SOL    HW114531   3.103   0.533  10.005
 4545SOL    HW214532   3.177   0.418  10.094
 4546SOL     OW14533   3.455   0.221  10.192
 4546SOL    HW114534   3.371   0.220  10.246
 4546SOL    HW214535   3.457   0.304  10.136
 4547SOL     OW14536   1.901   1.077   9.610
 4547SOL    HW114537   2.000   1.066   9.601
 4547SOL    HW214538   1.861   0.991   9.642
 4548SOL     OW14539   2.737   1.646   9.647
 4548SOL    HW114540   2.660   1.611   9.593
 4548SOL    HW214541   2.705   1.717   9.709
 4549SOL     OW14542   2.092   0.628  11.285
 4549SOL    HW114543   1.999   0.626  11.322
 4549SOL    HW214544   2.093   0.589  11.193
 4550SOL     OW14545   2.087   0.275  12.168
 4550SOL    HW114546   2.122   0.258  12.260
 4550SOL    HW214547   1.999   0.230  12.156
 4551SOL     OW14548   1.881   0.368  11.819
 4551SOL    HW114549   1.799   0.411  11.858
 4551SOL    HW214550   1.853   0.295  11.756
 4552SOL     OW14551   2.431   1.275  12.337
 4552SOL    HW114552   2.338   1.268  12.300
 4552SOL    HW214553   2.442   1.364  12.381
 4553SOL     OW14554   3.417   1.511  11.875
 4553SOL    HW114555   3.360   1.495  11.956
 4553SOL    HW214556   3.358   1.521  11.795
 4554SOL     OW14557   2.997   0.703  11.889
 4554SOL    HW114558   3.054   0.781  11.864
 4554SOL    HW214559   2.937   0.729  11.965
 4555SOL     OW14560   3.617   0.607  11.403
 4555SOL    HW114561   3.605   0.594  11.304
 4555SOL    HW214562   3.587   0.526  11.452
 4556SOL     OW14563   2.630   1.144  12.195
 4556SOL    HW114564   2.552   1.161  12.255
 4556SOL    HW214565   2.664   1.231  12.159
 4557SOL     OW14566   2.712   0.798  12.995
 4557SOL    HW114567   2.708   0.874  13.060
 4557SOL    HW214568   2.734   0.834  12.904
 4558SOL     OW14569   2.547   1.012  11.837
 4558SOL    HW114570   2.616   0.996  11.907
 4558SOL    HW214571   2.474   1.069  11.875
 4559SOL     OW14572   2.548   1.161  12.975
 4559SOL    HW114573   2.608   1.240  12.989
 4559SOL    HW214574   2.462   1.192  12.934
 4560SOL     OW14575   2.197   1.435  12.233
 4560SOL    HW114576   2.119   1.404  12.180
 4560SOL    HW214577   2.255   1.493  12.176
 4561SOL     OW14578   3.322   1.505  12.511
 4561SOL    HW114579   3.346   1.599  12.537
 4561SOL    HW214580   3.306   1.451  12.593
 4562SOL     OW14581   2.300   0.392  12.671
 4562SOL    HW114582   2.382   0.336  12.680
 4562SOL    HW214583   2.219   0.334  12.675
 4563SOL     OW14584   3.465   0.447  11.909
 4563SOL    HW114585   3.391   0.493  11.859
 4563SOL    HW214586   3.516   0.515  11.962
 4564SOL     OW14587   2.093   1.713  11.655
 4564SOL    HW114588   2.127   1.790  11.709
 4564SOL    HW214589   2.137   1.713  11.565
 4565SOL     OW14590   2.989   1.341  12.862
 4565SOL    HW114591   3.036   1.341  12.950
 4565SOL    HW214592   2.941   1.254  12.851
 4566SOL     OW14593   2.092   1.434  11.710
 4566SOL    HW114594   2.066   1.530  11.710
 4566SOL    HW214595   2.021   1.380  11.755
 4567SOL     OW14596   2.102   1.091  12.058
 4567SOL    HW114597   2.116   1.007  12.110
 4567SOL    HW214598   2.047   1.155  12.113
 4568SOL     OW14599   2.482   1.786  12.611
 4568SOL    HW114600   2.390   1.769  12.646
 4568SOL    HW214601   2.510   1.878  12.637
 4569SOL     OW14602   2.468   0.964  11.295
 4569SOL    HW114603   2.475   1.048  11.241
 4569SOL    HW214604   2.514   0.977  11.383
 4570SOL     OW14605   3.456   0.114  12.652
 4570SOL    HW114606   3.438   0.181  12.580
 4570SOL    HW214607   3.453   0.160  12.741
 4571SOL     OW14608   1.984   0.643  11.735
 4571SOL    HW114609   1.939   0.555  11.752
 4571SOL    HW214610   1.983   0.697  11.819
 4572SOL     OW14611   3.704   1.767  11.531
 4572SOL    HW114612   3.758   1.738  11.611
 4572SOL    HW214613   3.734   1.857  11.502
 4573SOL     OW14614   3.551   0.922  11.784
 4573SOL    HW114615   3.646   0.893  11.792
 4573SOL    HW214616   3.543   0.987  11.709
 4574SOL     OW14617   3.503   1.108  11.604
 4574SOL    HW114618   3.589   1.110  11.552
 4574SOL    HW214619   3.517   1.155  11.692
 4575SOL     OW14620   1.975   0.737  12.769
 4575SOL    HW114621   2.063   0.724  12.814
 4575SOL    HW214622   1.962   0.834  12.747
 4576SOL     OW14623   2.475   1.365  11.898
 4576SOL    HW114624   2.426   1.278  11.907
 4576SOL    HW214625   2.452   1.408  11.811
 4577SOL     OW14626   3.155   1.228  12.595
 4577SOL    HW114627   3.192   1.155  12.537
 4577SOL    HW214628   3.207   1.233  12.680
 4578SOL     OW14629   2.671   0.004  11.674
 4578SOL    HW114630   2.711   0.095  11.665
 4578SOL    HW214631   2.571   0.012  11.680
 4579SOL     OW14632   2.059   0.976  12.436
 4579SOL    HW114633   2.148   0.931  12.422
 4579SOL    HW214634   1.986   0.911  12.417
 4580SOL     OW14635   3.387   0.999  11.362
 4580SOL    HW114636   3.324   0.923  11.375
 4580SOL    HW214637   3.435   1.017  11.448
 4581SOL     OW14638   3.049   1.792  12.788
 4581SOL    HW114639   3.073   1.852  12.712
 4581SOL    HW214640   3.056   1.697  12.758
 4582SOL     OW14641   2.179   0.251  12.973
 4582SOL    HW114642   2.250   0.322  12.979
 4582SOL    HW214643   2.091   0.290  13.001
 4583SOL     OW14644   3.328   1.417  12.125
 4583SOL    HW114645   3.269   1.423  12.205
 4583SOL    HW214646   3.313   1.329  12.079
 4584SOL     OW14647   3.529   1.714  11.744
 4584SOL    HW114648   3.488   1.691  11.656
 4584SOL    HW214649   3.511   1.640  11.809
 4585SOL     OW14650   2.460   0.729  11.442
 4585SOL    HW114651   2.484   0.798  11.374
 4585SOL    HW214652   2.382   0.762  11.496
 4586SOL     OW14653   3.143   0.345  12.116
 4586SOL    HW114654   3.057   0.295  12.103
 4586SOL    HW214655   3.205   0.291  12.172
 4587SOL     OW14656   3.438   1.662  11.479
 4587SOL    HW114657   3.527   1.708  11.482
 4587SOL    HW214658   3.417   1.638  11.384
 4588SOL     OW14659   2.669   0.605  12.637
 4588SOL    HW114660   2.622   0.602  12.726
 4588SOL    HW214661   2.618   0.550  12.571
 4589SOL     OW14662   3.256   0.469  12.846
 4589SOL    HW114663   3.236   0.512  12.934
 4589SOL    HW214664   3.334   0.407  12.855
 4590SOL     OW14665   2.835   0.890  12.744
 4590SOL    HW114666   2.881   0.806  12.715
 4590SOL    HW214667   2.779   0.924  12.669
 4591SOL     OW14668   2.853   0.410  12.414
 4591SOL    HW114669   2.776   0.444  12.468
 4591SOL    HW214670   2.819   0.359  12.335
 4592SOL     OW14671   2.903   0.701  11.601
 4592SOL    HW114672   2.929   0.697  11.697
 4592SOL    HW214673   2.818   0.650  11.587
 4593SOL     OW14674   1.938   0.811  11.961
 4593SOL    HW114675   2.037   0.799  11.970
 4593SOL    HW214676   1.914   0.906  11.982
 4594SOL     OW14677   2.727   0.348  11.367
 4594SOL    HW114678   2.786   0.411  11.318
 4594SOL    HW214679   2.746   0.254  11.338
 4595SOL     OW14680   3.581   0.585  13.003
 4595SOL    HW114681   3.555   0.674  12.967
 4595SOL    HW214682   3.579   0.517  12.930
 4596SOL     OW14683   3.224   1.144  11.717
 4596SOL    HW114684   3.307   1.115  11.669
 4596SOL    HW214685   3.175   1.211  11.661
 4597SOL     OW14686   2.412   0.196  12.057
 4597SOL    HW114687   2.407   0.191  12.157
 4597SOL    HW214688   2.414   0.292  12.028
 4598SOL     OW14689   2.870   1.456  11.649
 4598SOL    HW114690   2.824   1.528  11.597
 4598SOL    HW214691   2.866   1.476  11.747
 4599SOL     OW14692   2.213   1.801  12.025
 4599SOL    HW114693   2.263   1.715  12.031
 4599SOL    HW214694   2.278   1.878  12.022
 4600SOL     OW14695   3.657   1.066  12.045
 4600SOL    HW114696   3.595   1.051  11.969
 4600SOL    HW214697   3.605   1.077  12.130
 4601SOL     OW14698   3.089   1.550  12.678
 4601SOL    HW114699   3.095   1.473  12.742
 4601SOL    HW214700   3.037   1.524  12.598
 4602SOL     OW14701   2.183   0.943  11.414
 4602SOL    HW114702   2.265   0.982  11.372
 4602SOL    HW214703   2.156   0.861  11.365
 4603SOL     OW14704   3.320   0.735  11.900
 4603SOL    HW114705   3.315   0.670  11.975
 4603SOL    HW214706   3.400   0.794  11.913
 4604SOL     OW14707   2.323   1.266  12.899
 4604SOL    HW114708   2.273   1.267  12.813
 4604SOL    HW214709   2.260   1.248  12.975
 4605SOL     OW14710   2.973   1.776  11.409
 4605SOL    HW114711   2.913   1.714  11.459
 4605SOL    HW214712   3.004   1.732  11.324
 4606SOL     OW14713   2.064   0.285  12.670
 4606SOL    HW114714   1.984   0.345  12.657
 4606SOL    HW214715   2.054   0.236  12.756
 4607SOL     OW14716   3.494   1.377  11.253
 4607SOL    HW114717   3.462   1.471  11.243
 4607SOL    HW214718   3.418   1.314  11.241
 4608SOL     OW14719   2.326   1.743  11.495
 4608SOL    HW114720   2.359   1.782  11.581
 4608SOL    HW214721   2.402   1.736  11.430
 4609SOL     OW14722   3.262   0.107  11.598
 4609SOL    HW114723   3.238   0.070  11.508
 4609SOL    HW214724   3.361   0.123  11.602
 4610SOL     OW14725   2.111   1.785  12.413
 4610SOL    HW114726   2.168   1.720  12.463
 4610SOL    HW214727   2.095   1.752  12.320
 4611SOL     OW14728   2.802   1.698  12.076
 4611SOL    HW114729   2.882   1.641  12.097
 4611SOL    HW214730   2.753   1.658  11.999
 4612SOL     OW14731   2.244   0.700  11.652
 4612SOL    HW114732   2.289   0.610  11.649
 4612SOL    HW214733   2.150   0.689  11.685
 4613SOL     OW14734   3.409   0.222  12.901
 4613SOL    HW114735   3.404   0.259  12.993
 4613SOL    HW214736   3.337   0.153  12.889
 4614SOL     OW14737   2.476   0.122  11.289
 4614SOL    HW114738   2.574   0.100  11.296
 4614SOL    HW214739   2.445   0.105  11.196
 4615SOL     OW14740   2.643   0.264  12.921
 4615SOL    HW114741   2.710   0.203  12.964
 4615SOL    HW214742   2.570   0.283  12.986
 4616SOL     OW14743   2.750   1.514  12.367
 4616SOL    HW114744   2.727   1.489  12.273
 4616SOL    HW214745   2.811   1.445  12.406
 4617SOL     OW14746   3.213   0.590  12.605
 4617SOL    HW114747   3.241   0.547  12.690
 4617SOL    HW214748   3.238   0.686  12.606
 4618SOL     OW14749   2.665   1.402  12.096
 4618SOL    HW114750   2.755   1.416  12.054
 4618SOL    HW214751   2.594   1.404  12.025
 4619SOL     OW14752   2.784   0.503  12.071
 4619SOL    HW114753   2.759   0.494  11.975
 4619SOL    HW214754   2.832   0.421  12.102
 4620SOL     OW14755   2.401   0.064  11.684
 4620SOL    HW114756   2.320   0.065  11.742
 4620SOL    HW214757   2.404   0.147  11.629
 4621SOL     OW14758   3.296   1.188  11.213
 4621SOL    HW114759   3.328   1.112  11.270
 4621SOL    HW214760   3.204   1.215  11.243
 4622SOL     OW14761   2.159   0.035  11.343
 4622SOL    HW114762   2.208   0.119  11.322
 4622SOL    HW214763   2.221  -0.030  11.388
 4623SOL     OW14764   2.797   0.236  11.652
 4623SOL    HW114765   2.749   0.277  11.574
 4623SOL    HW214766   2.896   0.234  11.633
 4624SOL     OW14767   2.938   0.683  12.636
 4624SOL    HW114768   2.858   0.622  12.639
 4624SOL    HW214769   3.019   0.630  12.612
 4625SOL     OW14770   3.089   1.570  11.965
 4625SOL    HW114771   3.110   1.644  11.900
 4625SOL    HW214772   3.157   1.570  12.038
 4626SOL     OW14773   2.321   1.152  11.913
 4626SOL    HW114774   2.250   1.125  11.978
 4626SOL    HW214775   2.295   1.124  11.820
 4627SOL     OW14776   3.133   1.797  11.763
 4627SOL    HW114777   3.177   1.861  11.699
 4627SOL    HW214778   3.083   1.849  11.833
 4628SOL     OW14779   2.894   0.549  11.188
 4628SOL    HW114780   2.853   0.631  11.149
 4628SOL    HW214781   2.958   0.575  11.261
 4629SOL     OW14782   1.940   0.556  12.558
 4629SOL    HW114783   2.032   0.555  12.517
 4629SOL    HW214784   1.934   0.630  12.625
 4630SOL     OW14785   2.423   0.222  12.319
 4630SOL    HW114786   2.461   0.138  12.356
 4630SOL    HW214787   2.335   0.241  12.363
 4631SOL     OW14788   2.728   0.454  11.814
 4631SOL    HW114789   2.696   0.526  11.752
 4631SOL    HW214790   2.752   0.373  11.761
 4632SOL     OW14791   2.879   0.039  11.925
 4632SOL    HW114792   2.807   0.044  11.856
 4632SOL    HW214793   2.855  -0.030  11.994
 4633SOL     OW14794   3.291   1.173  12.039
 4633SOL    HW114795   3.236   1.089  12.032
 4633SOL    HW214796   3.317   1.202  11.947
 4634SOL     OW14797   3.328   0.590  12.164
 4634SOL    HW114798   3.298   0.495  12.171
 4634SOL    HW214799   3.401   0.606  12.230
 4635SOL     OW14800   3.719   0.833  11.549
 4635SOL    HW114801   3.761   0.769  11.613
 4635SOL    HW214802   3.681   0.782  11.471
 4636SOL     OW14803   2.350   1.385  11.346
 4636SOL    HW114804   2.263   1.370  11.393
 4636SOL    HW214805   2.333   1.411  11.251
 4637SOL     OW14806   3.526   1.280  11.829
 4637SOL    HW114807   3.625   1.288  11.843
 4637SOL    HW214808   3.481   1.364  11.860
 4638SOL     OW14809   3.252   0.575  11.250
 4638SOL    HW114810   3.198   0.554  11.331
 4638SOL    HW214811   3.343   0.534  11.259
 4639SOL     OW14812   2.389   0.256  11.500
 4639SOL    HW114813   2.416   0.197  11.425
 4639SOL    HW214814   2.389   0.351  11.469
 4640SOL     OW14815   3.616   1.223  12.760
 4640SOL    HW114816   3.707   1.184  12.747
 4640SOL    HW214817   3.624   1.319  12.784
 4641SOL     OW14818   2.926   1.347  12.512
 4641SOL    HW114819   2.846   1.324  12.567
 4641SOL    HW214820   3.009   1.321  12.561
 4642SOL     OW14821   3.454   1.629  12.797
 4642SOL    HW114822   3.481   1.663  12.707
 4642SOL    HW214823   3.533   1.591  12.843
 4643SOL     OW14824   2.973   1.195  12.272
 4643SOL    HW114825   2.933   1.239  12.353
 4643SOL    HW214826   2.932   1.232  12.189
 4644SOL     OW14827   3.500   1.099  12.251
 4644SOL    HW114828   3.505   1.180  12.310
 4644SOL    HW214829   3.414   1.101  12.200
 4645SOL     OW14830   2.777   0.089  12.574
 4645SOL    HW114831   2.802   0.069  12.479
 4645SOL    HW214832   2.849   0.145  12.616
 4646SOL     OW14833   2.842   1.116  12.891
 4646SOL    HW114834   2.743   1.122  12.901
 4646SOL    HW214835   2.865   1.036  12.835
 4647SOL     OW14836   2.567   1.050  11.540
 4647SOL    HW114837   2.553   1.057  11.639
 4647SOL    HW214838   2.651   0.999  11.522
 4648SOL     OW14839   2.272   0.813  12.423
 4648SOL    HW114840   2.358   0.825  12.473
 4648SOL    HW214841   2.230   0.726  12.450
 4649SOL     OW14842   3.136   0.386  12.434
 4649SOL    HW114843   3.157   0.460  12.498
 4649SOL    HW214844   3.047   0.403  12.391
 4650SOL     OW14845   1.926   1.564  12.503
 4650SOL    HW114846   1.880   1.646  12.469
 4650SOL    HW214847   2.024   1.583  12.512
 4651SOL     OW14848   2.229   1.100  11.673
 4651SOL    HW114849   2.222   1.183  11.617
 4651SOL    HW214850   2.233   1.020  11.613
 4652SOL     OW14851   2.428   0.537  12.037
 4652SOL    HW114852   2.440   0.603  11.963
 4652SOL    HW214853   2.474   0.571  12.120
 4653SOL     OW14854   3.114   1.348  11.560
 4653SOL    HW114855   3.164   1.425  11.600
 4653SOL    HW214856   3.019   1.350  11.592
 4654SOL     OW14857   3.134   1.445  12.314
 4654SOL    HW114858   3.181   1.458  12.401
 4654SOL    HW214859   3.068   1.371  12.323
 4655SOL     OW14860   3.444   0.639  11.644
 4655SOL    HW114861   3.413   0.700  11.717
 4655SOL    HW214862   3.494   0.691  11.575
 4656SOL     OW14863   2.216   1.510  12.501
 4656SOL    HW114864   2.195   1.466  12.414
 4656SOL    HW214865   2.313   1.536  12.504
 4657SOL     OW14866   2.264   0.751  12.770
 4657SOL    HW114867   2.332   0.806  12.723
 4657SOL    HW214868   2.304   0.663  12.797
 4658SOL     OW14869   3.449   0.779  12.842
 4658SOL    HW114870   3.357   0.817  12.837
 4658SOL    HW214871   3.509   0.826  12.777
 4659SOL     OW14872   2.875   0.105  12.942
 4659SOL    HW114873   2.881   0.190  12.890
 4659SOL    HW214874   2.907   0.029  12.885
 4660SOL     OW14875   2.366   0.050  12.912
 4660SOL    HW114876   2.324  -0.007  12.842
 4660SOL    HW214877   2.300   0.119  12.944
 4661SOL     OW14878   2.435   0.870  12.201
 4661SOL    HW114879   2.479   0.959  12.192
 4661SOL    HW214880   2.372   0.870  12.278
 4662SOL     OW14881   3.222   0.862  12.217
 4662SOL    HW114882   3.147   0.862  12.151
 4662SOL    HW214883   3.259   0.770  12.226
 4663SOL     OW14884   3.071   0.525  11.447
 4663SOL    HW114885   3.084   0.441  11.501
 4663SOL    HW214886   3.042   0.599  11.507
 4664SOL     OW14887   2.169   0.213  12.403
 4664SOL    HW114888   2.146   0.250  12.493
 4664SOL    HW214889   2.139   0.118  12.397
 4665SOL     OW14890   1.899   1.310  12.454
 4665SOL    HW114891   1.952   1.261  12.522
 4665SOL    HW214892   1.921   1.408  12.459
 4666SOL     OW14893   2.594   0.634  12.236
 4666SOL    HW114894   2.653   0.608  12.160
 4666SOL    HW214895   2.566   0.730  12.225
 4667SOL     OW14896   3.590   0.935  13.026
 4667SOL    HW114897   3.544   0.928  12.937
 4667SOL    HW214898   3.528   0.979  13.092
 4668SOL     OW14899   2.169   0.063  11.790
 4668SOL    HW114900   2.158   0.157  11.823
 4668SOL    HW214901   2.164   0.000  11.867
 4669SOL     OW14902   3.484   0.367  11.546
 4669SOL    HW114903   3.486   0.291  11.610
 4669SOL    HW214904   3.436   0.444  11.586
 4670SOL     OW14905   2.885   0.766  12.138
 4670SOL    HW114906   2.900   0.787  12.234
 4670SOL    HW214907   2.855   0.671  12.129
 4671SOL     OW14908   2.842   1.573  12.872
 4671SOL    HW114909   2.822   1.617  12.784
 4671SOL    HW214910   2.881   1.482  12.856
 4672SOL     OW14911   3.721   1.518  12.777
 4672SOL    HW114912   3.735   1.545  12.682
 4672SOL    HW214913   3.804   1.540  12.830
 4673SOL     OW14914   2.212   0.898  12.976
 4673SOL    HW114915   2.288   0.942  13.024
 4673SOL    HW214916   2.247   0.851  12.894
 4674SOL     OW14917   3.402   0.274  11.297
 4674SOL    HW114918   3.341   0.199  11.320
 4674SOL    HW214919   3.424   0.326  11.380
 4675SOL     OW14920   3.165   0.838  11.214
 4675SOL    HW114921   3.199   0.745  11.229
 4675SOL    HW214922   3.183   0.865  11.119
 4676SOL     OW14923   2.930   1.333  12.021
 4676SOL    HW114924   2.937   1.249  11.966
 4676SOL    HW214925   2.992   1.402  11.985
 4677SOL     OW14926   2.181   0.810  12.121
 4677SOL    HW114927   2.274   0.846  12.126
 4677SOL    HW214928   2.175   0.725  12.173
 4678SOL     OW14929   2.201   0.509  12.178
 4678SOL    HW114930   2.149   0.426  12.161
 4678SOL    HW214931   2.278   0.514  12.114
 4679SOL     OW14932   3.000   0.380  12.850
 4679SOL    HW114933   2.955   0.443  12.914
 4679SOL    HW214934   3.093   0.411  12.833
 4680SOL     OW14935   3.022   0.207  12.649
 4680SOL    HW114936   3.022   0.271  12.726
 4680SOL    HW214937   3.050   0.255  12.566
 4681SOL     OW14938   1.870   1.326  11.372
 4681SOL    HW114939   1.777   1.347  11.341
 4681SOL    HW214940   1.880   1.227  11.385
 4682SOL     OW14941   2.366   1.568  12.082
 4682SOL    HW114942   2.432   1.642  12.091
 4682SOL    HW214943   2.410   1.489  12.040
 4683SOL     OW14944   2.864   0.796  12.410
 4683SOL    HW114945   2.905   0.764  12.496
 4683SOL    HW214946   2.768   0.769  12.407
 4684SOL     OW14947   1.902   0.544  12.286
 4684SOL    HW114948   1.987   0.511  12.245
 4684SOL    HW214949   1.915   0.559  12.384
 4685SOL     OW14950   2.051   0.520  12.894
 4685SOL    HW114951   2.110   0.480  12.824
 4685SOL    HW214952   1.993   0.591  12.853
 4686SOL     OW14953   3.231   0.950  12.832
 4686SOL    HW114954   3.270   1.039  12.852
 4686SOL    HW214955   3.241   0.930  12.735
 4687SOL     OW14956   2.677   0.572  11.497
 4687SOL    HW114957   2.684   0.483  11.451
 4687SOL    HW214958   2.583   0.606  11.489
 4688SOL     OW14959   3.519   0.604  12.378
 4688SOL    HW114960   3.481   0.535  12.440
 4688SOL    HW214961   3.601   0.568  12.334
 4689SOL     OW14962   2.114   1.564  12.916
 4689SOL    HW114963   2.084   1.621  12.992
 4689SOL    HW214964   2.107   1.467  12.942
 4690SOL     OW14965   2.533   0.464  12.441
 4690SOL    HW114966   2.499   0.375  12.411
 4690SOL    HW214967   2.559   0.518  12.361
 4691SOL     OW14968   2.792   1.678  12.637
 4691SOL    HW114969   2.768   1.660  12.542
 4691SOL    HW214970   2.822   1.772  12.647
 4692SOL     OW14971   2.335   0.500  11.363
 4692SOL    HW114972   2.396   0.580  11.367
 4692SOL    HW214973   2.240   0.531  11.370
 4693SOL     OW14974   2.021   1.137  12.638
 4693SOL    HW114975   2.043   1.076  12.714
 4693SOL    HW214976   2.031   1.088  12.552
 4694SOL     OW14977   3.209   1.059  12.406
 4694SOL    HW114978   3.233   0.996  12.332
 4694SOL    HW214979   3.119   1.099  12.388
 4695SOL     OW14980   3.164   0.855  11.481
 4695SOL    HW114981   3.078   0.824  11.523
 4695SOL    HW214982   3.160   0.841  11.382
 4696SOL     OW14983   3.621   1.747  12.326
 4696SOL    HW114984   3.682   1.777  12.253
 4696SOL    HW214985   3.583   1.658  12.304
 4697SOL     OW14986   3.114   1.731  12.300
 4697SOL    HW114987   3.198   1.736  12.246
 4697SOL    HW214988   3.091   1.635  12.318
 4698SOL     OW14989   1.945   1.258  12.194
 4698SOL    HW114990   1.940   1.257  12.294
 4698SOL    HW214991   1.862   1.217  12.156
 4699SOL     OW14992   2.550   1.662  12.888
 4699SOL    HW114993   2.494   1.743  12.897
 4699SOL    HW214994   2.602   1.666  12.802
 4700SOL     OW14995   3.588   0.135  11.695
 4700SOL    HW114996   3.661   0.118  11.628
 4700SOL    HW214997   3.557   0.048  11.733
 4701SOL     OW14998   3.250   1.573  11.649
 4701SOL    HW114999   3.317   1.585  11.575
 4701SOL    HW215000   3.210   1.662  11.672
 4702SOL     OW15001   3.142   0.927  11.844
 4702SOL    HW115002   3.202   0.846  11.846
 4702SOL    HW215003   3.182   0.996  11.784
 4703SOL     OW15004   2.692   1.273  12.594
 4703SOL    HW115005   2.687   1.306  12.689
 4703SOL    HW215006   2.606   1.292  12.548
 4704SOL     OW15007   2.534   1.616  11.326
 4704SOL    HW115008   2.543   1.626  11.227
 4704SOL    HW215009   2.494   1.527  11.347
 4705SOL     OW15010   3.512   1.720  12.566
 4705SOL    HW115011   3.565   1.730  12.482
 4705SOL    HW215012   3.485   1.810  12.600
 4706SOL     OW15013   3.703   0.175  12.135
 4706SOL    HW115014   3.742   0.090  12.099
 4706SOL    HW215015   3.605   0.177  12.116
 4707SOL     OW15016   2.125   0.326  11.892
 4707SOL    HW115017   2.046   0.377  11.858
 4707SOL    HW215018   2.116   0.311  11.990
 4708SOL     OW15019   3.056   1.612  11.203
 4708SOL    HW115020   3.062   1.519  11.240
 4708SOL    HW215021   2.997   1.612  11.123
 4709SOL     OW15022   2.684   1.002  12.544
 4709SOL    HW115023   2.724   1.001  12.452
 4709SOL    HW215024   2.694   1.094  12.584
 4710SOL     OW15025   2.778   0.910  11.463
 4710SOL    HW115026   2.841   0.948  11.395
 4710SOL    HW215027   2.818   0.827  11.502
 4711SOL     OW15028   3.366   1.607  11.216
 4711SOL    HW115029   3.274   1.644  11.223
 4711SOL    HW215030   3.404   1.627  11.126
 4712SOL     OW15031   2.234   1.288  12.662
 4712SOL    HW115032   2.221   1.381  12.628
 4712SOL    HW215033   2.150   1.236  12.649
 4713SOL     OW15034   3.476   1.292  12.461
 4713SOL    HW115035   3.536   1.295  12.541
 4713SOL    HW215036   3.401   1.356  12.474
 4714SOL     OW15037   2.901   1.098  11.868
 4714SOL    HW115038   2.831   1.051  11.922
 4714SOL    HW215039   2.960   1.030  11.825
 4715SOL     OW15040   2.876   0.236  12.143
 4715SOL    HW115041   2.868   0.200  12.050
 4715SOL    HW215042   2.874   0.160  12.208
 4716SOL     OW15043   2.452   1.487  11.663
 4716SOL    HW115044   2.494   1.429  11.593
 4716SOL    HW215045   2.408   1.566  11.619
 4717SOL     OW15046   3.571   0.385  12.553
 4717SOL    HW115047   3.644   0.454  12.557
 4717SOL    HW215048   3.599   0.310  12.494
 4718SOL     OW15049   2.117   1.348  11.462
 4718SOL    HW115050   2.021   1.349  11.435
 4718SOL    HW215051   2.129   1.401  11.546
 4719SOL     OW15052   1.967   1.013  12.898
 4719SOL    HW115053   1.890   0.980  12.952
 4719SOL    HW215054   2.052   0.983  12.940
 4720SOL     OW15055   2.534   0.203  12.661
 4720SOL    HW115056   2.624   0.187  12.621
 4720SOL    HW215057   2.542   0.208  12.760
 4721SOL     OW15058   1.937   0.345  11.205
 4721SOL    HW115059   1.845   0.317  11.176
 4721SOL    HW215060   1.968   0.422  11.149
 4722SOL     OW15061   3.302   0.856  12.570
 4722SOL    HW115062   3.245   0.908  12.507
 4722SOL    HW215063   3.398   0.868  12.546
 4723SOL     OW15064   1.934   0.166  11.490
 4723SOL    HW115065   1.917   0.249  11.436
 4723SOL    HW215066   2.024   0.129  11.468
 4724SOL     OW15067   3.045   1.335  11.291
 4724SOL    HW115068   2.946   1.324  11.293
 4724SOL    HW215069   3.079   1.350  11.384
 4725SOL     OW15070   2.475   0.842  12.603
 4725SOL    HW115071   2.531   0.923  12.586
 4725SOL    HW215072   2.534   0.762  12.606
 4726SOL     OW15073   3.355   1.767  12.131
 4726SOL    HW115074   3.388   1.831  12.062
 4726SOL    HW215075   3.421   1.761  12.206
 4727SOL     OW15076   2.578   0.565  12.880
 4727SOL    HW115077   2.597   0.630  12.954
 4727SOL    HW215078   2.638   0.485  12.889
 4728SOL     OW15079   3.312   1.220  12.805
 4728SOL    HW115080   3.303   1.210  12.904
 4728SOL    HW215081   3.408   1.213  12.779
 4729SOL     OW15082   2.252   1.741  12.732
 4729SOL    HW115083   2.161   1.782  12.730
 4729SOL    HW215084   2.245   1.647  12.764
 4730SOL     OW15085   3.536   0.883  12.426
 4730SOL    HW115086   3.509   0.794  12.389
 4730SOL    HW215087   3.537   0.951  12.353
 4731SOL     OW15088   3.087   0.325  11.621
 4731SOL    HW115089   3.152   0.251  11.610
 4731SOL    HW215090   3.107   0.375  11.705
 4732SOL     OW15091   2.456   0.745  11.824
 4732SOL    HW115092   2.506   0.830  11.805
 4732SOL    HW215093   2.368   0.747  11.776
 4733SOL     OW15094   3.639   0.342  12.814
 4733SOL    HW115095   3.622   0.373  12.720
 4733SOL    HW215096   3.555   0.305  12.852
 4734SOL     OW15097   3.592   0.934  12.689
 4734SOL    HW115098   3.630   1.025  12.704
 4734SOL    HW215099   3.584   0.917  12.590
 4735SOL     OW15100   2.721   1.374  11.188
 4735SOL    HW115101   2.675   1.389  11.276
 4735SOL    HW215102   2.765   1.459  11.158
 4736SOL     OW15103   2.523   1.790  12.125
 4736SOL    HW115104   2.477   1.878  12.112
 4736SOL    HW215105   2.622   1.802  12.118
 4737SOL     OW15106   2.721   0.956  12.033
 4737SOL    HW115107   2.775   0.887  12.081
 4737SOL    HW215108   2.689   1.025  12.099
 4738SOL     OW15109   2.945   0.984  11.259
 4738SOL    HW115110   2.922   1.037  11.177
 4738SOL    HW215111   3.026   0.928  11.240
 4739SOL     OW15112   3.723   1.569  12.023
 4739SOL    HW115113   3.652   1.557  11.953
 4739SOL    HW215114   3.724   1.490  12.083
 4740SOL     OW15115   2.083   1.314  13.016
 4740SOL    HW115116   2.018   1.241  12.995
 4740SOL    HW215117   2.087   1.328  13.114
 4741SOL     OW15118   1.941   1.240  11.825
 4741SOL    HW115119   1.940   1.193  11.913
 4741SOL    HW215120   2.023   1.212  11.774
 4742SOL     OW15121   2.534   1.391  12.796
 4742SOL    HW115122   2.456   1.341  12.834
 4742SOL    HW215123   2.531   1.486  12.827
 4743SOL     OW15124   3.686   0.192  12.399
 4743SOL    HW115125   3.682   0.102  12.443
 4743SOL    HW215126   3.689   0.181  12.300
 4744SOL     OW15127   2.290   0.424  11.692
 4744SOL    HW115128   2.320   0.352  11.630
 4744SOL    HW215129   2.251   0.384  11.775
 4745SOL     OW15130   3.567   1.487  12.276
 4745SOL    HW115131   3.474   1.462  12.249
 4745SOL    HW215132   3.593   1.437  12.358
 4746SOL     OW15133   2.179   0.547  12.452
 4746SOL    HW115134   2.217   0.488  12.524
 4746SOL    HW215135   2.219   0.521  12.364
 4747SOL     OW15136   2.674   1.586  11.859
 4747SOL    HW115137   2.706   1.596  11.765
 4747SOL    HW215138   2.595   1.524  11.861
 4748SOL     OW15139   3.286   0.214  12.284
 4748SOL    HW115140   3.338   0.149  12.339
 4748SOL    HW215141   3.237   0.277  12.345
 4749SOL     OW15142   2.863   0.034  12.326
 4749SOL    HW115143   2.800  -0.038  12.295
 4749SOL    HW215144   2.956  -0.002  12.326
 4750SOL     OW15145   2.632   1.330  11.473
 4750SOL    HW115146   2.586   1.243  11.490
 4750SOL    HW215147   2.723   1.327  11.514
 4751SOL     OW15148   2.480   1.567  12.456
 4751SOL    HW115149   2.475   1.649  12.513
 4751SOL    HW215150   2.569   1.564  12.411
 4752SOL     OW15151   3.214   0.052  11.340
 4752SOL    HW115152   3.249   0.011  11.256
 4752SOL    HW215153   3.124   0.014  11.360
 4753SOL     OW15154   3.162   0.453  11.863
 4753SOL    HW115155   3.103   0.533  11.867
 4753SOL    HW215156   3.177   0.418  11.956
 4754SOL     OW15157   3.455   0.221  12.054
 4754SOL    HW115158   3.371   0.220  12.108
 4754SOL    HW215159   3.457   0.304  11.998
 4755SOL     OW15160   1.901   1.077  11.472
 4755SOL    HW115161   2.000   1.066  11.463
 4755SOL    HW215162   1.861   0.991  11.504
 4756SOL     OW15163   2.737   1.646  11.509
 4756SOL    HW115164   2.660   1.611  11.455
 4756SOL    HW215165   2.705   1.717  11.571
 4757SOL     OW15166   2.092   0.628  13.147
 4757SOL    HW115167   1.999   0.626  13.184
 4757SOL    HW215168   2.093   0.589  13.055
 4758SOL     OW15169   2.087   0.275  14.030
 4758SOL    HW115170   2.122   0.258  14.122
 4758SOL    HW215171   1.999   0.230  14.018
 4759SOL     OW15172   1.881   0.368  13.681
 4759SOL    HW115173   1.799   0.411  13.720
 4759SOL    HW215174   1.853   0.295  13.618
 4760SOL     OW15175   3.417   1.511  13.737
 4760SOL    HW115176   3.360   1.495  13.818
 4760SOL    HW215177   3.358   1.521  13.657
 4761SOL     OW15178   2.997   0.703  13.751
 4761SOL    HW115179   3.054   0.781  13.726
 4761SOL    HW215180   2.937   0.729  13.827
 4762SOL     OW15181   3.617   0.607  13.265
 4762SOL    HW115182   3.605   0.594  13.166
 4762SOL    HW215183   3.587   0.526  13.314
 4763SOL     OW15184   2.547   1.012  13.699
 4763SOL    HW115185   2.616   0.996  13.769
 4763SOL    HW215186   2.474   1.069  13.737
 4764SOL     OW15187   3.465   0.447  13.771
 4764SOL    HW115188   3.391   0.493  13.721
 4764SOL    HW215189   3.516   0.515  13.824
 4765SOL     OW15190   2.093   1.713  13.517
 4765SOL    HW115191   2.127   1.790  13.571
 4765SOL    HW215192   2.137   1.713  13.427
 4766SOL     OW15193   2.092   1.434  13.572
 4766SOL    HW115194   2.066   1.530  13.572
 4766SOL    HW215195   2.021   1.380  13.617
 4767SOL     OW15196   2.102   1.091  13.920
 4767SOL    HW115197   2.116   1.007  13.972
 4767SOL    HW215198   2.047   1.155  13.975
 4768SOL     OW15199   2.468   0.964  13.157
 4768SOL    HW115200   2.475   1.048  13.103
 4768SOL    HW215201   2.514   0.977  13.245
 4769SOL     OW15202   1.984   0.643  13.597
 4769SOL    HW115203   1.939   0.555  13.614
 4769SOL    HW215204   1.983   0.697  13.681
 4770SOL     OW15205   3.704   1.767  13.393
 4770SOL    HW115206   3.758   1.738  13.473
 4770SOL    HW215207   3.734   1.857  13.364
 4771SOL     OW15208   3.551   0.922  13.646
 4771SOL    HW115209   3.646   0.893  13.654
 4771SOL    HW215210   3.543   0.987  13.571
 4772SOL     OW15211   3.503   1.108  13.466
 4772SOL    HW115212   3.589   1.110  13.414
 4772SOL    HW215213   3.517   1.155  13.554
 4773SOL     OW15214   2.475   1.365  13.760
 4773SOL    HW115215   2.426   1.278  13.769
 4773SOL    HW215216   2.452   1.408  13.673
 4774SOL     OW15217   2.671   0.004  13.536
 4774SOL    HW115218   2.711   0.095  13.527
 4774SOL    HW215219   2.571   0.012  13.542
 4775SOL     OW15220   3.387   0.999  13.224
 4775SOL    HW115221   3.324   0.923  13.237
 4775SOL    HW215222   3.435   1.017  13.310
 4776SOL     OW15223   3.529   1.714  13.606
 4776SOL    HW115224   3.488   1.691  13.518
 4776SOL    HW215225   3.511   1.640  13.671
 4777SOL     OW15226   2.460   0.729  13.304
 4777SOL    HW115227   2.484   0.798  13.236
 4777SOL    HW215228   2.382   0.762  13.358
 4778SOL     OW15229   3.143   0.345  13.978
 4778SOL    HW115230   3.057   0.295  13.965
 4778SOL    HW215231   3.205   0.291  14.034
 4779SOL     OW15232   3.438   1.662  13.341
 4779SOL    HW115233   3.527   1.708  13.344
 4779SOL    HW215234   3.417   1.638  13.246
 4780SOL     OW15235   2.903   0.701  13.463
 4780SOL    HW115236   2.929   0.697  13.559
 4780SOL    HW215237   2.818   0.650  13.449
 4781SOL     OW15238   1.938   0.811  13.823
 4781SOL    HW115239   2.037   0.799  13.832
 4781SOL    HW215240   1.914   0.906  13.844
 4782SOL     OW15241   2.727   0.348  13.229
 4782SOL    HW115242   2.786   0.411  13.180
 4782SOL    HW215243   2.746   0.254  13.200
 4783SOL     OW15244   3.224   1.144  13.579
 4783SOL    HW115245   3.307   1.115  13.531
 4783SOL    HW215246   3.175   1.211  13.523
 4784SOL     OW15247   2.870   1.456  13.511
 4784SOL    HW115248   2.824   1.528  13.459
 4784SOL    HW215249   2.866   1.476  13.609
 4785SOL     OW15250   2.213   1.801  13.887
 4785SOL    HW115251   2.263   1.715  13.893
 4785SOL    HW215252   2.278   1.878  13.884
 4786SOL     OW15253   3.657   1.066  13.907
 4786SOL    HW115254   3.595   1.051  13.831
 4786SOL    HW215255   3.605   1.077  13.992
 4787SOL     OW15256   2.183   0.943  13.276
 4787SOL    HW115257   2.265   0.982  13.234
 4787SOL    HW215258   2.156   0.861  13.227
 4788SOL     OW15259   3.320   0.735  13.762
 4788SOL    HW115260   3.315   0.670  13.837
 4788SOL    HW215261   3.400   0.794  13.775
 4789SOL     OW15262   2.973   1.776  13.271
 4789SOL    HW115263   2.913   1.714  13.321
 4789SOL    HW215264   3.004   1.732  13.186
 4790SOL     OW15265   3.494   1.377  13.115
 4790SOL    HW115266   3.462   1.471  13.105
 4790SOL    HW215267   3.418   1.314  13.103
 4791SOL     OW15268   2.326   1.743  13.357
 4791SOL    HW115269   2.359   1.782  13.443
 4791SOL    HW215270   2.402   1.736  13.292
 4792SOL     OW15271   3.262   0.107  13.460
 4792SOL    HW115272   3.238   0.070  13.370
 4792SOL    HW215273   3.361   0.123  13.464
 4793SOL     OW15274   2.802   1.698  13.938
 4793SOL    HW115275   2.882   1.641  13.959
 4793SOL    HW215276   2.753   1.658  13.861
 4794SOL     OW15277   2.244   0.700  13.514
 4794SOL    HW115278   2.289   0.610  13.511
 4794SOL    HW215279   2.150   0.689  13.547
 4795SOL     OW15280   2.476   0.122  13.151
 4795SOL    HW115281   2.574   0.100  13.158
 4795SOL    HW215282   2.445   0.105  13.058
 4796SOL     OW15283   2.401   0.064  13.546
 4796SOL    HW115284   2.320   0.065  13.604
 4796SOL    HW215285   2.404   0.147  13.491
 4797SOL     OW15286   3.296   1.188  13.075
 4797SOL    HW115287   3.328   1.112  13.132
 4797SOL    HW215288   3.204   1.215  13.105
 4798SOL     OW15289   2.159   0.035  13.205
 4798SOL    HW115290   2.208   0.119  13.184
 4798SOL    HW215291   2.221  -0.030  13.250
 4799SOL     OW15292   2.797   0.236  13.514
 4799SOL    HW115293   2.749   0.277  13.436
 4799SOL    HW215294   2.896   0.234  13.495
 4800SOL     OW15295   2.321   1.152  13.775
 4800SOL    HW115296   2.250   1.125  13.840
 4800SOL    HW215297   2.295   1.124  13.682
 4801SOL     OW15298   3.133   1.797  13.625
 4801SOL    HW115299   3.177   1.861  13.561
 4801SOL    HW215300   3.083   1.849  13.695
 4802SOL     OW15301   2.894   0.549  13.050
 4802SOL    HW115302   2.853   0.631  13.011
 4802SOL    HW215303   2.958   0.575  13.123
 4803SOL     OW15304   2.728   0.454  13.676
 4803SOL    HW115305   2.696   0.526  13.614
 4803SOL    HW215306   2.752   0.373  13.623
 4804SOL     OW15307   2.879   0.039  13.787
 4804SOL    HW115308   2.807   0.044  13.718
 4804SOL    HW215309   2.855  -0.030  13.856
 4805SOL     OW15310   3.719   0.833  13.411
 4805SOL    HW115311   3.761   0.769  13.475
 4805SOL    HW215312   3.681   0.782  13.333
 4806SOL     OW15313   2.350   1.385  13.208
 4806SOL    HW115314   2.263   1.370  13.255
 4806SOL    HW215315   2.333   1.411  13.113
 4807SOL     OW15316   3.526   1.280  13.691
 4807SOL    HW115317   3.625   1.288  13.705
 4807SOL    HW215318   3.481   1.364  13.722
 4808SOL     OW15319   3.252   0.575  13.112
 4808SOL    HW115320   3.198   0.554  13.193
 4808SOL    HW215321   3.343   0.534  13.121
 4809SOL     OW15322   2.389   0.256  13.362
 4809SOL    HW115323   2.416   0.197  13.287
 4809SOL    HW215324   2.389   0.351  13.331
 4810SOL     OW15325   2.567   1.050  13.402
 4810SOL    HW115326   2.553   1.057  13.501
 4810SOL    HW215327   2.651   0.999  13.384
 4811SOL     OW15328   2.229   1.100  13.535
 4811SOL    HW115329   2.222   1.183  13.479
 4811SOL    HW215330   2.233   1.020  13.475
 4812SOL     OW15331   2.428   0.537  13.899
 4812SOL    HW115332   2.440   0.603  13.825
 4812SOL    HW215333   2.474   0.571  13.982
 4813SOL     OW15334   3.114   1.348  13.422
 4813SOL    HW115335   3.164   1.425  13.462
 4813SOL    HW215336   3.019   1.350  13.454
 4814SOL     OW15337   3.444   0.639  13.506
 4814SOL    HW115338   3.413   0.700  13.579
 4814SOL    HW215339   3.494   0.691  13.437
 4815SOL     OW15340   3.071   0.525  13.309
 4815SOL    HW115341   3.084   0.441  13.363
 4815SOL    HW215342   3.042   0.599  13.369
 4816SOL     OW15343   2.169   0.063  13.652
 4816SOL    HW115344   2.158   0.157  13.685
 4816SOL    HW215345   2.164   0.000  13.729
 4817SOL     OW15346   3.484   0.367  13.408
 4817SOL    HW115347   3.486   0.291  13.472
 4817SOL    HW215348   3.436   0.444  13.448
 4818SOL     OW15349   3.402   0.274  13.159
 4818SOL    HW115350   3.341   0.199  13.182
 4818SOL    HW215351   3.424   0.326  13.242
 4819SOL     OW15352   3.165   0.838  13.076
 4819SOL    HW115353   3.199   0.745  13.091
 4819SOL    HW215354   3.183   0.865  12.981
 4820SOL     OW15355   1.870   1.326  13.234
 4820SOL    HW115356   1.777   1.347  13.203
 4820SOL    HW215357   1.880   1.227  13.247
 4821SOL     OW15358   2.677   0.572  13.359
 4821SOL    HW115359   2.684   0.483  13.313
 4821SOL    HW215360   2.583   0.606  13.351
 4822SOL     OW15361   2.335   0.500  13.225
 4822SOL    HW115362   2.396   0.580  13.229
 4822SOL    HW215363   2.240   0.531  13.232
 4823SOL     OW15364   3.164   0.855  13.343
 4823SOL    HW115365   3.078   0.824  13.385
 4823SOL    HW215366   3.160   0.841  13.244
 4824SOL     OW15367   3.588   0.135  13.557
 4824SOL    HW115368   3.661   0.118  13.490
 4824SOL    HW215369   3.557   0.048  13.595
 4825SOL     OW15370   3.250   1.573  13.511
 4825SOL    HW115371   3.317   1.585  13.437
 4825SOL    HW215372   3.210   1.662  13.534
 4826SOL     OW15373   3.142   0.927  13.706
 4826SOL    HW115374   3.202   0.846  13.708
 4826SOL    HW215375   3.182   0.996  13.646
 4827SOL     OW15376   2.534   1.616  13.188
 4827SOL    HW115377   2.543   1.626  13.089
 4827SOL    HW215378   2.494   1.527  13.209
 4828SOL     OW15379   3.703   0.175  13.997
 4828SOL    HW115380   3.742   0.090  13.961
 4828SOL    HW215381   3.605   0.177  13.978
 4829SOL     OW15382   2.125   0.326  13.754
 4829SOL    HW115383   2.046   0.377  13.720
 4829SOL    HW215384   2.116   0.311  13.852
 4830SOL     OW15385   3.056   1.612  13.065
 4830SOL    HW115386   3.062   1.519  13.102
 4830SOL    HW215387   2.997   1.612  12.985
 4831SOL     OW15388   2.778   0.910  13.325
 4831SOL    HW115389   2.841   0.948  13.257
 4831SOL    HW215390   2.818   0.827  13.364
 4832SOL     OW15391   3.366   1.607  13.078
 4832SOL    HW115392   3.274   1.644  13.085
 4832SOL    HW215393   3.404   1.627  12.988
 4833SOL     OW15394   2.901   1.098  13.730
 4833SOL    HW115395   2.831   1.051  13.784
 4833SOL    HW215396   2.960   1.030  13.687
 4834SOL     OW15397   2.452   1.487  13.525
 4834SOL    HW115398   2.494   1.429  13.455
 4834SOL    HW215399   2.408   1.566  13.481
 4835SOL     OW15400   2.117   1.348  13.324
 4835SOL    HW115401   2.021   1.349  13.297
 4835SOL    HW215402   2.129   1.401  13.408
 4836SOL     OW15403   1.937   0.345  13.067
 4836SOL    HW115404   1.845   0.317  13.038
 4836SOL    HW215405   1.968   0.422  13.011
 4837SOL     OW15406   1.934   0.166  13.352
 4837SOL    HW115407   1.917   0.249  13.298
 4837SOL    HW215408   2.024   0.129  13.330
 4838SOL     OW15409   3.045   1.335  13.153
 4838SOL    HW115410   2.946   1.324  13.155
 4838SOL    HW215411   3.079   1.350  13.246
 4839SOL     OW15412   3.087   0.325  13.483
 4839SOL    HW115413   3.152   0.251  13.472
 4839SOL    HW215414   3.107   0.375  13.567
 4840SOL     OW15415   2.456   0.745  13.686
 4840SOL    HW115416   2.506   0.830  13.667
 4840SOL    HW215417   2.368   0.747  13.638
 4841SOL     OW15418   2.721   1.374  13.050
 4841SOL    HW115419   2.675   1.389  13.138
 4841SOL    HW215420   2.765   1.459  13.020
 4842SOL     OW15421   2.523   1.790  13.987
 4842SOL    HW115422   2.477   1.878  13.974
 4842SOL    HW215423   2.622   1.802  13.980
 4843SOL     OW15424   2.721   0.956  13.895
 4843SOL    HW115425   2.775   0.887  13.943
 4843SOL    HW215426   2.689   1.025  13.961
 4844SOL     OW15427   2.945   0.984  13.121
 4844SOL    HW115428   2.922   1.037  13.039
 4844SOL    HW215429   3.026   0.928  13.102
 4845SOL     OW15430   1.941   1.240  13.687
 4845SOL    HW115431   1.940   1.193  13.775
 4845SOL    HW215432   2.023   1.212  13.636
 4846SOL     OW15433   2.290   0.424  13.554
 4846SOL    HW115434   2.320   0.352  13.492
 4846SOL    HW215435   2.251   0.384  13.637
 4847SOL     OW15436   3.567   1.487  14.138
 4847SOL    HW115437   3.474   1.462  14.111
 4847SOL    HW215438   3.593   1.437  14.220
 4848SOL     OW15439   2.674   1.586  13.721
 4848SOL    HW115440   2.706   1.596  13.627
 4848SOL    HW215441   2.595   1.524  13.723
 4849SOL     OW15442   2.632   1.330  13.335
 4849SOL    HW115443   2.586   1.243  13.352
 4849SOL    HW215444   2.723   1.327  13.376
 4850SOL     OW15445   3.214   0.052  13.202
 4850SOL    HW115446   3.249   0.011  13.118
 4850SOL    HW215447   3.124   0.014  13.222
 4851SOL     OW15448   3.162   0.453  13.725
 4851SOL    HW115449   3.103   0.533  13.729
 4851SOL    HW215450   3.177   0.418  13.818
 4852SOL     OW15451   1.901   1.077  13.334
 4852SOL    HW115452   2.000   1.066  13.325
 4852SOL    HW215453   1.861   0.991  13.366
 4853SOL     OW15454   2.737   1.646  13.371
 4853SOL    HW115455   2.660   1.611  13.317
 4853SOL    HW215456   2.705   1.717  13.433
 4854SOL     OW15457   2.092   2.490   0.113
 4854SOL    HW115458   1.999   2.488   0.150
 4854SOL    HW215459   2.093   2.451   0.021
 4855SOL     OW15460   1.881   2.230   0.647
 4855SOL    HW115461   1.799   2.273   0.686
 4855SOL    HW215462   1.853   2.157   0.584
 4856SOL     OW15463   2.431   3.137   1.165
 4856SOL    HW115464   2.338   3.130   1.128
 4856SOL    HW215465   2.442   3.226   1.209
 4857SOL     OW15466   3.417   3.373   0.703
 4857SOL    HW115467   3.360   3.357   0.784
 4857SOL    HW215468   3.358   3.383   0.623
 4858SOL     OW15469   2.997   2.565   0.717
 4858SOL    HW115470   3.054   2.643   0.692
 4858SOL    HW215471   2.937   2.591   0.793
 4859SOL     OW15472   3.617   2.469   0.231
 4859SOL    HW115473   3.605   2.456   0.132
 4859SOL    HW215474   3.587   2.388   0.280
 4860SOL     OW15475   2.630   3.006   1.023
 4860SOL    HW115476   2.552   3.023   1.083
 4860SOL    HW215477   2.664   3.093   0.987
 4861SOL     OW15478   2.712   2.660   1.823
 4861SOL    HW115479   2.708   2.736   1.888
 4861SOL    HW215480   2.734   2.696   1.732
 4862SOL     OW15481   2.547   2.874   0.665
 4862SOL    HW115482   2.616   2.858   0.735
 4862SOL    HW215483   2.474   2.931   0.703
 4863SOL     OW15484   2.548   3.023   1.803
 4863SOL    HW115485   2.608   3.102   1.817
 4863SOL    HW215486   2.462   3.054   1.762
 4864SOL     OW15487   2.197   3.297   1.061
 4864SOL    HW115488   2.119   3.266   1.008
 4864SOL    HW215489   2.255   3.355   1.004
 4865SOL     OW15490   3.322   3.367   1.339
 4865SOL    HW115491   3.346   3.461   1.365
 4865SOL    HW215492   3.306   3.313   1.421
 4866SOL     OW15493   3.465   2.309   0.737
 4866SOL    HW115494   3.391   2.355   0.687
 4866SOL    HW215495   3.516   2.377   0.790
 4867SOL     OW15496   2.093   3.575   0.483
 4867SOL    HW115497   2.127   3.652   0.537
 4867SOL    HW215498   2.137   3.575   0.393
 4868SOL     OW15499   2.989   3.203   1.690
 4868SOL    HW115500   3.036   3.203   1.778
 4868SOL    HW215501   2.941   3.116   1.679
 4869SOL     OW15502   2.092   3.296   0.538
 4869SOL    HW115503   2.066   3.392   0.538
 4869SOL    HW215504   2.021   3.242   0.583
 4870SOL     OW15505   2.102   2.953   0.886
 4870SOL    HW115506   2.116   2.869   0.938
 4870SOL    HW215507   2.047   3.017   0.941
 4871SOL     OW15508   2.482   3.648   1.439
 4871SOL    HW115509   2.390   3.631   1.474
 4871SOL    HW215510   2.510   3.740   1.465
 4872SOL     OW15511   2.468   2.826   0.123
 4872SOL    HW115512   2.475   2.910   0.069
 4872SOL    HW215513   2.514   2.839   0.211
 4873SOL     OW15514   3.456   1.976   1.480
 4873SOL    HW115515   3.438   2.043   1.408
 4873SOL    HW215516   3.453   2.022   1.569
 4874SOL     OW15517   1.984   2.505   0.563
 4874SOL    HW115518   1.939   2.417   0.580
 4874SOL    HW215519   1.983   2.559   0.647
 4875SOL     OW15520   3.704   3.629   0.359
 4875SOL    HW115521   3.758   3.600   0.439
 4875SOL    HW215522   3.734   3.719   0.330
 4876SOL     OW15523   1.889   3.458   0.117
 4876SOL    HW115524   1.870   3.362   0.138
 4876SOL    HW215525   1.856   3.516   0.192
 4877SOL     OW15526   3.551   2.784   0.612
 4877SOL    HW115527   3.646   2.755   0.620
 4877SOL    HW215528   3.543   2.849   0.537
 4878SOL     OW15529   3.503   2.970   0.432
 4878SOL    HW115530   3.589   2.972   0.380
 4878SOL    HW215531   3.517   3.017   0.520
 4879SOL     OW15532   1.975   2.599   1.597
 4879SOL    HW115533   2.063   2.586   1.642
 4879SOL    HW215534   1.962   2.696   1.575
 4880SOL     OW15535   2.475   3.227   0.726
 4880SOL    HW115536   2.426   3.140   0.735
 4880SOL    HW215537   2.452   3.270   0.639
 4881SOL     OW15538   3.155   3.090   1.423
 4881SOL    HW115539   3.192   3.017   1.365
 4881SOL    HW215540   3.207   3.095   1.508
 4882SOL     OW15541   2.671   1.866   0.502
 4882SOL    HW115542   2.711   1.957   0.493
 4882SOL    HW215543   2.571   1.874   0.508
 4883SOL     OW15544   2.059   2.838   1.264
 4883SOL    HW115545   2.148   2.793   1.250
 4883SOL    HW215546   1.986   2.773   1.245
 4884SOL     OW15547   3.387   2.861   0.190
 4884SOL    HW115548   3.324   2.785   0.203
 4884SOL    HW215549   3.435   2.879   0.276
 4885SOL     OW15550   3.049   3.654   1.616
 4885SOL    HW115551   3.073   3.714   1.540
 4885SOL    HW215552   3.056   3.559   1.586
 4886SOL     OW15553   3.328   3.279   0.953
 4886SOL    HW115554   3.269   3.285   1.033
 4886SOL    HW215555   3.313   3.191   0.907
 4887SOL     OW15556   3.529   3.576   0.572
 4887SOL    HW115557   3.488   3.553   0.484
 4887SOL    HW215558   3.511   3.502   0.637
 4888SOL     OW15559   2.460   2.591   0.270
 4888SOL    HW115560   2.484   2.660   0.202
 4888SOL    HW215561   2.382   2.624   0.324
 4889SOL     OW15562   3.143   2.207   0.944
 4889SOL    HW115563   3.057   2.157   0.931
 4889SOL    HW215564   3.205   2.153   1.000
 4890SOL     OW15565   3.438   3.524   0.307
 4890SOL    HW115566   3.527   3.570   0.310
 4890SOL    HW215567   3.417   3.500   0.212
 4891SOL     OW15568   2.669   2.467   1.465
 4891SOL    HW115569   2.622   2.464   1.554
 4891SOL    HW215570   2.618   2.412   1.399
 4892SOL     OW15571   3.256   2.331   1.674
 4892SOL    HW115572   3.236   2.374   1.762
 4892SOL    HW215573   3.334   2.269   1.683
 4893SOL     OW15574   2.835   2.752   1.572
 4893SOL    HW115575   2.881   2.668   1.543
 4893SOL    HW215576   2.779   2.786   1.497
 4894SOL     OW15577   2.853   2.272   1.242
 4894SOL    HW115578   2.776   2.306   1.296
 4894SOL    HW215579   2.819   2.221   1.163
 4895SOL     OW15580   2.903   2.563   0.429
 4895SOL    HW115581   2.929   2.559   0.525
 4895SOL    HW215582   2.818   2.512   0.415
 4896SOL     OW15583   1.938   2.673   0.789
 4896SOL    HW115584   2.037   2.661   0.798
 4896SOL    HW215585   1.914   2.768   0.810
 4897SOL     OW15586   1.992   3.683   1.571
 4897SOL    HW115587   1.982   3.668   1.670
 4897SOL    HW215588   1.906   3.719   1.535
 4898SOL     OW15589   2.727   2.210   0.195
 4898SOL    HW115590   2.786   2.273   0.146
 4898SOL    HW215591   2.746   2.116   0.166
 4899SOL     OW15592   3.581   2.447   1.831
 4899SOL    HW115593   3.555   2.536   1.795
 4899SOL    HW215594   3.579   2.379   1.758
 4900SOL     OW15595   3.224   3.006   0.545
 4900SOL    HW115596   3.307   2.977   0.497
 4900SOL    HW215597   3.175   3.073   0.489
 4901SOL     OW15598   2.412   2.058   0.885
 4901SOL    HW115599   2.407   2.053   0.985
 4901SOL    HW215600   2.414   2.154   0.856
 4902SOL     OW15601   2.870   3.318   0.477
 4902SOL    HW115602   2.824   3.390   0.425
 4902SOL    HW215603   2.866   3.338   0.575
 4903SOL     OW15604   2.213   3.663   0.853
 4903SOL    HW115605   2.263   3.577   0.859
 4903SOL    HW215606   2.278   3.740   0.850
 4904SOL     OW15607   3.657   2.928   0.873
 4904SOL    HW115608   3.595   2.913   0.797
 4904SOL    HW215609   3.605   2.939   0.958
 4905SOL     OW15610   3.089   3.412   1.506
 4905SOL    HW115611   3.095   3.335   1.570
 4905SOL    HW215612   3.037   3.386   1.426
 4906SOL     OW15613   2.183   2.805   0.242
 4906SOL    HW115614   2.265   2.844   0.200
 4906SOL    HW215615   2.156   2.723   0.193
 4907SOL     OW15616   3.320   2.597   0.728
 4907SOL    HW115617   3.315   2.532   0.803
 4907SOL    HW215618   3.400   2.656   0.741
 4908SOL     OW15619   2.323   3.128   1.727
 4908SOL    HW115620   2.273   3.129   1.641
 4908SOL    HW215621   2.260   3.110   1.803
 4909SOL     OW15622   2.973   3.638   0.237
 4909SOL    HW115623   2.913   3.576   0.287
 4909SOL    HW215624   3.004   3.594   0.152
 4910SOL     OW15625   3.494   3.239   0.081
 4910SOL    HW115626   3.462   3.333   0.071
 4910SOL    HW215627   3.418   3.176   0.069
 4911SOL     OW15628   2.326   3.605   0.323
 4911SOL    HW115629   2.359   3.644   0.409
 4911SOL    HW215630   2.402   3.598   0.258
 4912SOL     OW15631   3.262   1.969   0.426
 4912SOL    HW115632   3.238   1.932   0.336
 4912SOL    HW215633   3.361   1.985   0.430
 4913SOL     OW15634   2.111   3.647   1.241
 4913SOL    HW115635   2.168   3.582   1.291
 4913SOL    HW215636   2.095   3.614   1.148
 4914SOL     OW15637   2.802   3.560   0.904
 4914SOL    HW115638   2.882   3.503   0.925
 4914SOL    HW215639   2.753   3.520   0.827
 4915SOL     OW15640   2.244   2.562   0.480
 4915SOL    HW115641   2.289   2.472   0.477
 4915SOL    HW215642   2.150   2.551   0.513
 4916SOL     OW15643   3.409   2.084   1.729
 4916SOL    HW115644   3.404   2.121   1.821
 4916SOL    HW215645   3.337   2.015   1.717
 4917SOL     OW15646   2.643   2.126   1.749
 4917SOL    HW115647   2.710   2.065   1.792
 4917SOL    HW215648   2.570   2.145   1.814
 4918SOL     OW15649   2.750   3.376   1.195
 4918SOL    HW115650   2.727   3.351   1.101
 4918SOL    HW215651   2.811   3.307   1.234
 4919SOL     OW15652   3.213   2.452   1.433
 4919SOL    HW115653   3.241   2.409   1.518
 4919SOL    HW215654   3.238   2.548   1.434
 4920SOL     OW15655   2.665   3.264   0.924
 4920SOL    HW115656   2.755   3.278   0.882
 4920SOL    HW215657   2.594   3.266   0.853
 4921SOL     OW15658   2.784   2.365   0.899
 4921SOL    HW115659   2.759   2.356   0.803
 4921SOL    HW215660   2.832   2.283   0.930
 4922SOL     OW15661   2.401   1.926   0.512
 4922SOL    HW115662   2.320   1.927   0.570
 4922SOL    HW215663   2.404   2.009   0.457
 4923SOL     OW15664   3.296   3.050   0.041
 4923SOL    HW115665   3.328   2.974   0.098
 4923SOL    HW215666   3.204   3.077   0.071
 4924SOL     OW15667   2.797   2.098   0.480
 4924SOL    HW115668   2.749   2.139   0.402
 4924SOL    HW215669   2.896   2.096   0.461
 4925SOL     OW15670   2.938   2.545   1.464
 4925SOL    HW115671   2.858   2.484   1.467
 4925SOL    HW215672   3.019   2.492   1.440
 4926SOL     OW15673   3.089   3.432   0.793
 4926SOL    HW115674   3.110   3.506   0.728
 4926SOL    HW215675   3.157   3.432   0.866
 4927SOL     OW15676   2.321   3.014   0.741
 4927SOL    HW115677   2.250   2.987   0.806
 4927SOL    HW215678   2.295   2.986   0.648
 4928SOL     OW15679   3.133   3.659   0.591
 4928SOL    HW115680   3.177   3.723   0.527
 4928SOL    HW215681   3.083   3.711   0.661
 4929SOL     OW15682   2.894   2.411   0.016
 4929SOL    HW115683   2.853   2.493  -0.023
 4929SOL    HW215684   2.958   2.437   0.089
 4930SOL     OW15685   1.940   2.418   1.386
 4930SOL    HW115686   2.032   2.417   1.345
 4930SOL    HW215687   1.934   2.492   1.453
 4931SOL     OW15688   2.728   2.316   0.642
 4931SOL    HW115689   2.696   2.388   0.580
 4931SOL    HW215690   2.752   2.235   0.589
 4932SOL     OW15691   2.879   1.901   0.753
 4932SOL    HW115692   2.807   1.906   0.684
 4932SOL    HW215693   2.855   1.832   0.822
 4933SOL     OW15694   3.291   3.035   0.867
 4933SOL    HW115695   3.236   2.951   0.860
 4933SOL    HW215696   3.317   3.064   0.775
 4934SOL     OW15697   3.328   2.452   0.992
 4934SOL    HW115698   3.298   2.357   0.999
 4934SOL    HW215699   3.401   2.468   1.058
 4935SOL     OW15700   3.719   2.695   0.377
 4935SOL    HW115701   3.761   2.631   0.441
 4935SOL    HW215702   3.681   2.644   0.299
 4936SOL     OW15703   2.350   3.247   0.174
 4936SOL    HW115704   2.263   3.232   0.221
 4936SOL    HW215705   2.333   3.273   0.079
 4937SOL     OW15706   3.526   3.142   0.657
 4937SOL    HW115707   3.625   3.150   0.671
 4937SOL    HW215708   3.481   3.226   0.688
 4938SOL     OW15709   3.252   2.437   0.078
 4938SOL    HW115710   3.198   2.416   0.159
 4938SOL    HW215711   3.343   2.396   0.087
 4939SOL     OW15712   3.616   3.085   1.588
 4939SOL    HW115713   3.707   3.046   1.575
 4939SOL    HW215714   3.624   3.181   1.612
 4940SOL     OW15715   2.926   3.209   1.340
 4940SOL    HW115716   2.846   3.186   1.395
 4940SOL    HW215717   3.009   3.183   1.389
 4941SOL     OW15718   3.454   3.491   1.625
 4941SOL    HW115719   3.481   3.525   1.535
 4941SOL    HW215720   3.533   3.453   1.671
 4942SOL     OW15721   2.973   3.057   1.100
 4942SOL    HW115722   2.933   3.101   1.181
 4942SOL    HW215723   2.932   3.094   1.017
 4943SOL     OW15724   3.500   2.961   1.079
 4943SOL    HW115725   3.505   3.042   1.138
 4943SOL    HW215726   3.414   2.963   1.028
 4944SOL     OW15727   2.777   1.951   1.402
 4944SOL    HW115728   2.802   1.931   1.307
 4944SOL    HW215729   2.849   2.007   1.444
 4945SOL     OW15730   2.842   2.978   1.719
 4945SOL    HW115731   2.743   2.984   1.729
 4945SOL    HW215732   2.865   2.898   1.663
 4946SOL     OW15733   2.567   2.912   0.368
 4946SOL    HW115734   2.553   2.919   0.467
 4946SOL    HW215735   2.651   2.861   0.350
 4947SOL     OW15736   2.272   2.675   1.251
 4947SOL    HW115737   2.358   2.687   1.301
 4947SOL    HW215738   2.230   2.588   1.278
 4948SOL     OW15739   3.136   2.248   1.262
 4948SOL    HW115740   3.157   2.322   1.326
 4948SOL    HW215741   3.047   2.265   1.219
 4949SOL     OW15742   1.926   3.426   1.331
 4949SOL    HW115743   1.880   3.508   1.297
 4949SOL    HW215744   2.024   3.445   1.340
 4950SOL     OW15745   2.229   2.962   0.501
 4950SOL    HW115746   2.222   3.045   0.445
 4950SOL    HW215747   2.233   2.882   0.441
 4951SOL     OW15748   2.428   2.399   0.865
 4951SOL    HW115749   2.440   2.465   0.791
 4951SOL    HW215750   2.474   2.433   0.948
 4952SOL     OW15751   3.114   3.210   0.388
 4952SOL    HW115752   3.164   3.287   0.428
 4952SOL    HW215753   3.019   3.212   0.420
 4953SOL     OW15754   3.134   3.307   1.142
 4953SOL    HW115755   3.181   3.320   1.229
 4953SOL    HW215756   3.068   3.233   1.151
 4954SOL     OW15757   3.444   2.501   0.472
 4954SOL    HW115758   3.413   2.562   0.545
 4954SOL    HW215759   3.494   2.553   0.403
 4955SOL     OW15760   2.216   3.372   1.329
 4955SOL    HW115761   2.195   3.328   1.242
 4955SOL    HW215762   2.313   3.398   1.332
 4956SOL     OW15763   2.264   2.613   1.598
 4956SOL    HW115764   2.332   2.668   1.551
 4956SOL    HW215765   2.304   2.525   1.625
 4957SOL     OW15766   3.449   2.641   1.670
 4957SOL    HW115767   3.357   2.679   1.665
 4957SOL    HW215768   3.509   2.688   1.605
 4958SOL     OW15769   2.875   1.967   1.770
 4958SOL    HW115770   2.881   2.052   1.718
 4958SOL    HW215771   2.907   1.891   1.713
 4959SOL     OW15772   2.366   1.912   1.740
 4959SOL    HW115773   2.324   1.855   1.670
 4959SOL    HW215774   2.300   1.981   1.772
 4960SOL     OW15775   2.435   2.732   1.029
 4960SOL    HW115776   2.479   2.821   1.020
 4960SOL    HW215777   2.372   2.732   1.106
 4961SOL     OW15778   3.222   2.724   1.045
 4961SOL    HW115779   3.147   2.724   0.979
 4961SOL    HW215780   3.259   2.632   1.054
 4962SOL     OW15781   3.071   2.387   0.275
 4962SOL    HW115782   3.084   2.303   0.329
 4962SOL    HW215783   3.042   2.461   0.335
 4963SOL     OW15784   1.899   3.172   1.282
 4963SOL    HW115785   1.952   3.123   1.350
 4963SOL    HW215786   1.921   3.270   1.287
 4964SOL     OW15787   2.594   2.496   1.064
 4964SOL    HW115788   2.653   2.470   0.988
 4964SOL    HW215789   2.566   2.592   1.053
 4965SOL     OW15790   3.590   2.797   1.854
 4965SOL    HW115791   3.544   2.790   1.765
 4965SOL    HW215792   3.528   2.841   1.920
 4966SOL     OW15793   3.484   2.229   0.374
 4966SOL    HW115794   3.486   2.153   0.438
 4966SOL    HW215795   3.436   2.306   0.414
 4967SOL     OW15796   2.885   2.628   0.966
 4967SOL    HW115797   2.900   2.649   1.062
 4967SOL    HW215798   2.855   2.533   0.957
 4968SOL     OW15799   2.842   3.435   1.700
 4968SOL    HW115800   2.822   3.479   1.612
 4968SOL    HW215801   2.881   3.344   1.684
 4969SOL     OW15802   3.721   3.380   1.605
 4969SOL    HW115803   3.735   3.407   1.510
 4969SOL    HW215804   3.804   3.402   1.658
 4970SOL     OW15805   2.212   2.760   1.804
 4970SOL    HW115806   2.288   2.804   1.852
 4970SOL    HW215807   2.247   2.713   1.722
 4971SOL     OW15808   3.402   2.136   0.125
 4971SOL    HW115809   3.341   2.061   0.148
 4971SOL    HW215810   3.424   2.188   0.208
 4972SOL     OW15811   3.165   2.700   0.042
 4972SOL    HW115812   3.199   2.607   0.057
 4972SOL    HW215813   3.183   2.727  -0.053
 4973SOL     OW15814   2.930   3.195   0.849
 4973SOL    HW115815   2.937   3.111   0.794
 4973SOL    HW215816   2.992   3.264   0.813
 4974SOL     OW15817   2.181   2.672   0.949
 4974SOL    HW115818   2.274   2.708   0.954
 4974SOL    HW215819   2.175   2.587   1.001
 4975SOL     OW15820   2.201   2.371   1.006
 4975SOL    HW115821   2.149   2.288   0.989
 4975SOL    HW215822   2.278   2.376   0.942
 4976SOL     OW15823   3.000   2.242   1.678
 4976SOL    HW115824   2.955   2.305   1.742
 4976SOL    HW215825   3.093   2.273   1.661
 4977SOL     OW15826   3.022   2.069   1.477
 4977SOL    HW115827   3.022   2.133   1.554
 4977SOL    HW215828   3.050   2.117   1.394
 4978SOL     OW15829   1.870   3.188   0.200
 4978SOL    HW115830   1.777   3.209   0.169
 4978SOL    HW215831   1.880   3.089   0.213
 4979SOL     OW15832   1.950   3.663   0.927
 4979SOL    HW115833   1.908   3.577   0.900
 4979SOL    HW215834   2.044   3.666   0.893
 4980SOL     OW15835   2.366   3.430   0.910
 4980SOL    HW115836   2.432   3.504   0.919
 4980SOL    HW215837   2.410   3.351   0.868
 4981SOL     OW15838   2.864   2.658   1.238
 4981SOL    HW115839   2.905   2.626   1.324
 4981SOL    HW215840   2.768   2.631   1.235
 4982SOL     OW15841   1.902   2.406   1.114
 4982SOL    HW115842   1.987   2.373   1.073
 4982SOL    HW215843   1.915   2.421   1.212
 4983SOL     OW15844   2.051   2.382   1.722
 4983SOL    HW115845   2.110   2.342   1.652
 4983SOL    HW215846   1.993   2.453   1.681
 4984SOL     OW15847   3.231   2.812   1.660
 4984SOL    HW115848   3.270   2.901   1.680
 4984SOL    HW215849   3.241   2.792   1.563
 4985SOL     OW15850   2.677   2.434   0.325
 4985SOL    HW115851   2.684   2.345   0.279
 4985SOL    HW215852   2.583   2.468   0.317
 4986SOL     OW15853   3.519   2.466   1.206
 4986SOL    HW115854   3.481   2.397   1.268
 4986SOL    HW215855   3.601   2.430   1.162
 4987SOL     OW15856   2.114   3.426   1.744
 4987SOL    HW115857   2.084   3.483   1.820
 4987SOL    HW215858   2.107   3.329   1.770
 4988SOL     OW15859   2.533   2.326   1.269
 4988SOL    HW115860   2.499   2.237   1.239
 4988SOL    HW215861   2.559   2.380   1.189
 4989SOL     OW15862   2.792   3.540   1.465
 4989SOL    HW115863   2.768   3.522   1.370
 4989SOL    HW215864   2.822   3.634   1.475
 4990SOL     OW15865   2.335   2.362   0.191
 4990SOL    HW115866   2.396   2.442   0.195
 4990SOL    HW215867   2.240   2.393   0.198
 4991SOL     OW15868   2.021   2.999   1.466
 4991SOL    HW115869   2.043   2.938   1.542
 4991SOL    HW215870   2.031   2.950   1.380
 4992SOL     OW15871   3.209   2.921   1.234
 4992SOL    HW115872   3.233   2.858   1.160
 4992SOL    HW215873   3.119   2.961   1.216
 4993SOL     OW15874   3.164   2.717   0.309
 4993SOL    HW115875   3.078   2.686   0.351
 4993SOL    HW215876   3.160   2.703   0.210
 4994SOL     OW15877   3.621   3.609   1.154
 4994SOL    HW115878   3.682   3.639   1.081
 4994SOL    HW215879   3.583   3.520   1.132
 4995SOL     OW15880   3.114   3.593   1.128
 4995SOL    HW115881   3.198   3.598   1.074
 4995SOL    HW215882   3.091   3.497   1.146
 4996SOL     OW15883   1.945   3.120   1.022
 4996SOL    HW115884   1.940   3.119   1.122
 4996SOL    HW215885   1.862   3.079   0.984
 4997SOL     OW15886   2.550   3.524   1.716
 4997SOL    HW115887   2.494   3.605   1.725
 4997SOL    HW215888   2.602   3.528   1.630
 4998SOL     OW15889   2.765   1.948   0.133
 4998SOL    HW115890   2.816   1.949   0.047
 4998SOL    HW215891   2.821   1.906   0.204
 4999SOL     OW15892   3.588   1.997   0.523
 4999SOL    HW115893   3.661   1.980   0.456
 4999SOL    HW215894   3.557   1.910   0.561
 5000SOL     OW15895   3.250   3.435   0.477
 5000SOL    HW115896   3.317   3.447   0.403
 5000SOL    HW215897   3.210   3.524   0.500
 5001SOL     OW15898   1.992   3.656   1.851
 5001SOL    HW115899   1.951   3.582   1.904
 5001SOL    HW215900   2.056   3.707   1.909
 5002SOL     OW15901   3.142   2.789   0.672
 5002SOL    HW115902   3.202   2.708   0.674
 5002SOL    HW215903   3.182   2.858   0.612
 5003SOL     OW15904   2.692   3.135   1.422
 5003SOL    HW115905   2.687   3.168   1.517
 5003SOL    HW215906   2.606   3.154   1.376
 5004SOL     OW15907   2.534   3.478   0.154
 5004SOL    HW115908   2.543   3.488   0.055
 5004SOL    HW215909   2.494   3.389   0.175
 5005SOL     OW15910   3.512   3.582   1.394
 5005SOL    HW115911   3.565   3.592   1.310
 5005SOL    HW215912   3.485   3.672   1.428
 5006SOL     OW15913   3.703   2.037   0.963
 5006SOL    HW115914   3.742   1.952   0.927
 5006SOL    HW215915   3.605   2.039   0.944
 5007SOL     OW15916   3.056   3.474   0.031
 5007SOL    HW115917   3.062   3.381   0.068
 5007SOL    HW215918   2.997   3.474  -0.049
 5008SOL     OW15919   2.684   2.864   1.372
 5008SOL    HW115920   2.724   2.863   1.280
 5008SOL    HW215921   2.694   2.956   1.412
 5009SOL     OW15922   2.778   2.772   0.291
 5009SOL    HW115923   2.841   2.810   0.223
 5009SOL    HW215924   2.818   2.689   0.330
 5010SOL     OW15925   3.366   3.469   0.044
 5010SOL    HW115926   3.274   3.506   0.051
 5010SOL    HW215927   3.404   3.489  -0.046
 5011SOL     OW15928   2.234   3.150   1.490
 5011SOL    HW115929   2.221   3.243   1.456
 5011SOL    HW215930   2.150   3.098   1.477
 5012SOL     OW15931   3.476   3.154   1.289
 5012SOL    HW115932   3.536   3.157   1.369
 5012SOL    HW215933   3.401   3.218   1.302
 5013SOL     OW15934   2.901   2.960   0.696
 5013SOL    HW115935   2.831   2.913   0.750
 5013SOL    HW215936   2.960   2.892   0.653
 5014SOL     OW15937   2.876   2.098   0.971
 5014SOL    HW115938   2.868   2.062   0.878
 5014SOL    HW215939   2.874   2.022   1.036
 5015SOL     OW15940   2.452   3.349   0.491
 5015SOL    HW115941   2.494   3.291   0.421
 5015SOL    HW215942   2.408   3.428   0.447
 5016SOL     OW15943   3.571   2.247   1.381
 5016SOL    HW115944   3.644   2.316   1.385
 5016SOL    HW215945   3.599   2.172   1.322
 5017SOL     OW15946   2.117   3.210   0.290
 5017SOL    HW115947   2.021   3.211   0.263
 5017SOL    HW215948   2.129   3.263   0.374
 5018SOL     OW15949   1.967   2.875   1.726
 5018SOL    HW115950   1.890   2.842   1.780
 5018SOL    HW215951   2.052   2.845   1.768
 5019SOL     OW15952   2.534   2.065   1.489
 5019SOL    HW115953   2.624   2.049   1.449
 5019SOL    HW215954   2.542   2.070   1.588
 5020SOL     OW15955   1.937   2.207   0.033
 5020SOL    HW115956   1.845   2.179   0.004
 5020SOL    HW215957   1.968   2.284  -0.023
 5021SOL     OW15958   3.302   2.718   1.398
 5021SOL    HW115959   3.245   2.770   1.335
 5021SOL    HW215960   3.398   2.730   1.374
 5022SOL     OW15961   3.045   3.197   0.119
 5022SOL    HW115962   2.946   3.186   0.121
 5022SOL    HW215963   3.079   3.212   0.212
 5023SOL     OW15964   2.475   2.704   1.431
 5023SOL    HW115965   2.531   2.785   1.414
 5023SOL    HW215966   2.534   2.624   1.434
 5024SOL     OW15967   3.355   3.629   0.959
 5024SOL    HW115968   3.388   3.693   0.890
 5024SOL    HW215969   3.421   3.623   1.034
 5025SOL     OW15970   2.578   2.427   1.708
 5025SOL    HW115971   2.597   2.492   1.782
 5025SOL    HW215972   2.638   2.347   1.717
 5026SOL     OW15973   3.312   3.082   1.633
 5026SOL    HW115974   3.303   3.072   1.732
 5026SOL    HW215975   3.408   3.075   1.607
 5027SOL     OW15976   2.252   3.603   1.560
 5027SOL    HW115977   2.161   3.644   1.558
 5027SOL    HW215978   2.245   3.509   1.592
 5028SOL     OW15979   3.536   2.745   1.254
 5028SOL    HW115980   3.509   2.656   1.217
 5028SOL    HW215981   3.537   2.813   1.181
 5029SOL     OW15982   3.087   2.187   0.449
 5029SOL    HW115983   3.152   2.113   0.438
 5029SOL    HW215984   3.107   2.237   0.533
 5030SOL     OW15985   2.456   2.607   0.652
 5030SOL    HW115986   2.506   2.692   0.633
 5030SOL    HW215987   2.368   2.609   0.604
 5031SOL     OW15988   3.639   2.204   1.642
 5031SOL    HW115989   3.622   2.235   1.548
 5031SOL    HW215990   3.555   2.167   1.680
 5032SOL     OW15991   3.592   2.796   1.517
 5032SOL    HW115992   3.630   2.887   1.532
 5032SOL    HW215993   3.584   2.779   1.418
 5033SOL     OW15994   2.721   3.236   0.016
 5033SOL    HW115995   2.675   3.251   0.104
 5033SOL    HW215996   2.765   3.321  -0.014
 5034SOL     OW15997   2.523   3.652   0.953
 5034SOL    HW115998   2.477   3.740   0.940
 5034SOL    HW215999   2.622   3.664   0.946
 5035SOL     OW16000   2.721   2.818   0.861
 5035SOL    HW116001   2.775   2.749   0.909
 5035SOL    HW216002   2.689   2.887   0.927
 5036SOL     OW16003   2.945   2.846   0.087
 5036SOL    HW116004   2.922   2.899   0.005
 5036SOL    HW216005   3.026   2.790   0.068
 5037SOL     OW16006   3.723   3.431   0.851
 5037SOL    HW116007   3.652   3.419   0.781
 5037SOL    HW216008   3.724   3.352   0.911
 5038SOL     OW16009   2.083   3.176   1.844
 5038SOL    HW116010   2.018   3.103   1.823
 5038SOL    HW216011   2.087   3.190   1.942
 5039SOL     OW16012   1.941   3.102   0.653
 5039SOL    HW116013   1.940   3.055   0.741
 5039SOL    HW216014   2.023   3.074   0.602
 5040SOL     OW16015   2.534   3.253   1.624
 5040SOL    HW116016   2.456   3.203   1.662
 5040SOL    HW216017   2.531   3.348   1.655
 5041SOL     OW16018   3.686   2.054   1.227
 5041SOL    HW116019   3.682   1.964   1.271
 5041SOL    HW216020   3.689   2.043   1.128
 5042SOL     OW16021   3.567   3.349   1.104
 5042SOL    HW116022   3.474   3.324   1.077
 5042SOL    HW216023   3.593   3.299   1.186
 5043SOL     OW16024   2.179   2.409   1.280
 5043SOL    HW116025   2.217   2.350   1.352
 5043SOL    HW216026   2.219   2.383   1.192
 5044SOL     OW16027   2.674   3.448   0.687
 5044SOL    HW116028   2.706   3.458   0.593
 5044SOL    HW216029   2.595   3.386   0.689
 5045SOL     OW16030   3.286   2.076   1.112
 5045SOL    HW116031   3.338   2.011   1.167
 5045SOL    HW216032   3.237   2.139   1.173
 5046SOL     OW16033   2.863   1.896   1.154
 5046SOL    HW116034   2.800   1.824   1.123
 5046SOL    HW216035   2.956   1.860   1.154
 5047SOL     OW16036   2.632   3.192   0.301
 5047SOL    HW116037   2.586   3.105   0.318
 5047SOL    HW216038   2.723   3.189   0.342
 5048SOL     OW16039   2.480   3.429   1.284
 5048SOL    HW116040   2.475   3.511   1.341
 5048SOL    HW216041   2.569   3.426   1.239
 5049SOL     OW16042   3.214   1.914   0.168
 5049SOL    HW116043   3.249   1.873   0.084
 5049SOL    HW216044   3.124   1.876   0.188
 5050SOL     OW16045   3.162   2.315   0.691
 5050SOL    HW116046   3.103   2.395   0.695
 5050SOL    HW216047   3.177   2.280   0.784
 5051SOL     OW16048   3.455   2.083   0.882
 5051SOL    HW116049   3.371   2.082   0.936
 5051SOL    HW216050   3.457   2.166   0.826
 5052SOL     OW16051   1.901   2.939   0.300
 5052SOL    HW116052   2.000   2.928   0.291
 5052SOL    HW216053   1.861   2.853   0.332
 5053SOL     OW16054   2.737   3.508   0.337
 5053SOL    HW116055   2.660   3.473   0.283
 5053SOL    HW216056   2.705   3.579   0.399
 5054SOL     OW16057   2.092   2.490   1.975
 5054SOL    HW116058   1.999   2.488   2.012
 5054SOL    HW216059   2.093   2.451   1.883
 5055SOL     OW16060   1.881   2.230   2.509
 5055SOL    HW116061   1.799   2.273   2.548
 5055SOL    HW216062   1.853   2.157   2.446
 5056SOL     OW16063   2.431   3.137   3.027
 5056SOL    HW116064   2.338   3.130   2.990
 5056SOL    HW216065   2.442   3.226   3.071
 5057SOL     OW16066   3.417   3.373   2.565
 5057SOL    HW116067   3.360   3.357   2.646
 5057SOL    HW216068   3.358   3.383   2.485
 5058SOL     OW16069   2.997   2.565   2.579
 5058SOL    HW116070   3.054   2.643   2.554
 5058SOL    HW216071   2.937   2.591   2.655
 5059SOL     OW16072   3.617   2.469   2.093
 5059SOL    HW116073   3.605   2.456   1.994
 5059SOL    HW216074   3.587   2.388   2.142
 5060SOL     OW16075   2.630   3.006   2.885
 5060SOL    HW116076   2.552   3.023   2.945
 5060SOL    HW216077   2.664   3.093   2.849
 5061SOL     OW16078   2.712   2.660   3.685
 5061SOL    HW116079   2.708   2.736   3.750
 5061SOL    HW216080   2.734   2.696   3.594
 5062SOL     OW16081   2.547   2.874   2.527
 5062SOL    HW116082   2.616   2.858   2.597
 5062SOL    HW216083   2.474   2.931   2.565
 5063SOL     OW16084   2.548   3.023   3.665
 5063SOL    HW116085   2.608   3.102   3.679
 5063SOL    HW216086   2.462   3.054   3.624
 5064SOL     OW16087   2.197   3.297   2.923
 5064SOL    HW116088   2.119   3.266   2.870
 5064SOL    HW216089   2.255   3.355   2.866
 5065SOL     OW16090   3.322   3.367   3.201
 5065SOL    HW116091   3.346   3.461   3.227
 5065SOL    HW216092   3.306   3.313   3.283
 5066SOL     OW16093   3.465   2.309   2.599
 5066SOL    HW116094   3.391   2.355   2.549
 5066SOL    HW216095   3.516   2.377   2.652
 5067SOL     OW16096   2.093   3.575   2.345
 5067SOL    HW116097   2.127   3.652   2.399
 5067SOL    HW216098   2.137   3.575   2.255
 5068SOL     OW16099   2.989   3.203   3.552
 5068SOL    HW116100   3.036   3.203   3.640
 5068SOL    HW216101   2.941   3.116   3.541
 5069SOL     OW16102   2.092   3.296   2.400
 5069SOL    HW116103   2.066   3.392   2.400
 5069SOL    HW216104   2.021   3.242   2.445
 5070SOL     OW16105   2.102   2.953   2.748
 5070SOL    HW116106   2.116   2.869   2.800
 5070SOL    HW216107   2.047   3.017   2.803
 5071SOL     OW16108   2.482   3.648   3.301
 5071SOL    HW116109   2.390   3.631   3.336
 5071SOL    HW216110   2.510   3.740   3.327
 5072SOL     OW16111   2.468   2.826   1.985
 5072SOL    HW116112   2.475   2.910   1.931
 5072SOL    HW216113   2.514   2.839   2.073
 5073SOL     OW16114   3.456   1.976   3.342
 5073SOL    HW116115   3.438   2.043   3.270
 5073SOL    HW216116   3.453   2.022   3.431
 5074SOL     OW16117   1.984   2.505   2.425
 5074SOL    HW116118   1.939   2.417   2.442
 5074SOL    HW216119   1.983   2.559   2.509
 5075SOL     OW16120   3.704   3.629   2.221
 5075SOL    HW116121   3.758   3.600   2.301
 5075SOL    HW216122   3.734   3.719   2.192
 5076SOL     OW16123   1.889   3.458   1.979
 5076SOL    HW116124   1.870   3.362   2.000
 5076SOL    HW216125   1.856   3.516   2.054
 5077SOL     OW16126   3.551   2.784   2.474
 5077SOL    HW116127   3.646   2.755   2.482
 5077SOL    HW216128   3.543   2.849   2.399
 5078SOL     OW16129   3.503   2.970   2.294
 5078SOL    HW116130   3.589   2.972   2.242
 5078SOL    HW216131   3.517   3.017   2.382
 5079SOL     OW16132   1.975   2.599   3.459
 5079SOL    HW116133   2.063   2.586   3.504
 5079SOL    HW216134   1.962   2.696   3.437
 5080SOL     OW16135   2.475   3.227   2.588
 5080SOL    HW116136   2.426   3.140   2.597
 5080SOL    HW216137   2.452   3.270   2.501
 5081SOL     OW16138   3.155   3.090   3.285
 5081SOL    HW116139   3.192   3.017   3.227
 5081SOL    HW216140   3.207   3.095   3.370
 5082SOL     OW16141   2.671   1.866   2.364
 5082SOL    HW116142   2.711   1.957   2.355
 5082SOL    HW216143   2.571   1.874   2.370
 5083SOL     OW16144   2.059   2.838   3.126
 5083SOL    HW116145   2.148   2.793   3.112
 5083SOL    HW216146   1.986   2.773   3.107
 5084SOL     OW16147   3.387   2.861   2.052
 5084SOL    HW116148   3.324   2.785   2.065
 5084SOL    HW216149   3.435   2.879   2.138
 5085SOL     OW16150   3.049   3.654   3.478
 5085SOL    HW116151   3.073   3.714   3.402
 5085SOL    HW216152   3.056   3.559   3.448
 5086SOL     OW16153   3.328   3.279   2.815
 5086SOL    HW116154   3.269   3.285   2.895
 5086SOL    HW216155   3.313   3.191   2.769
 5087SOL     OW16156   3.529   3.576   2.434
 5087SOL    HW116157   3.488   3.553   2.346
 5087SOL    HW216158   3.511   3.502   2.499
 5088SOL     OW16159   2.460   2.591   2.132
 5088SOL    HW116160   2.484   2.660   2.064
 5088SOL    HW216161   2.382   2.624   2.186
 5089SOL     OW16162   3.143   2.207   2.806
 5089SOL    HW116163   3.057   2.157   2.793
 5089SOL    HW216164   3.205   2.153   2.862
 5090SOL     OW16165   3.438   3.524   2.169
 5090SOL    HW116166   3.527   3.570   2.172
 5090SOL    HW216167   3.417   3.500   2.074
 5091SOL     OW16168   2.669   2.467   3.327
 5091SOL    HW116169   2.622   2.464   3.416
 5091SOL    HW216170   2.618   2.412   3.261
 5092SOL     OW16171   3.256   2.331   3.536
 5092SOL    HW116172   3.236   2.374   3.624
 5092SOL    HW216173   3.334   2.269   3.545
 5093SOL     OW16174   2.835   2.752   3.434
 5093SOL    HW116175   2.881   2.668   3.405
 5093SOL    HW216176   2.779   2.786   3.359
 5094SOL     OW16177   2.853   2.272   3.104
 5094SOL    HW116178   2.776   2.306   3.158
 5094SOL    HW216179   2.819   2.221   3.025
 5095SOL     OW16180   2.903   2.563   2.291
 5095SOL    HW116181   2.929   2.559   2.387
 5095SOL    HW216182   2.818   2.512   2.277
 5096SOL     OW16183   1.938   2.673   2.651
 5096SOL    HW116184   2.037   2.661   2.660
 5096SOL    HW216185   1.914   2.768   2.672
 5097SOL     OW16186   1.992   3.683   3.433
 5097SOL    HW116187   1.982   3.668   3.532
 5097SOL    HW216188   1.906   3.719   3.397
 5098SOL     OW16189   2.727   2.210   2.057
 5098SOL    HW116190   2.786   2.273   2.008
 5098SOL    HW216191   2.746   2.116   2.028
 5099SOL     OW16192   3.581   2.447   3.693
 5099SOL    HW116193   3.555   2.536   3.657
 5099SOL    HW216194   3.579   2.379   3.620
 5100SOL     OW16195   3.224   3.006   2.407
 5100SOL    HW116196   3.307   2.977   2.359
 5100SOL    HW216197   3.175   3.073   2.351
 5101SOL     OW16198   2.412   2.058   2.747
 5101SOL    HW116199   2.407   2.053   2.847
 5101SOL    HW216200   2.414   2.154   2.718
 5102SOL     OW16201   2.870   3.318   2.339
 5102SOL    HW116202   2.824   3.390   2.287
 5102SOL    HW216203   2.866   3.338   2.437
 5103SOL     OW16204   2.213   3.663   2.715
 5103SOL    HW116205   2.263   3.577   2.721
 5103SOL    HW216206   2.278   3.740   2.712
 5104SOL     OW16207   3.657   2.928   2.735
 5104SOL    HW116208   3.595   2.913   2.659
 5104SOL    HW216209   3.605   2.939   2.820
 5105SOL     OW16210   3.089   3.412   3.368
 5105SOL    HW116211   3.095   3.335   3.432
 5105SOL    HW216212   3.037   3.386   3.288
 5106SOL     OW16213   2.183   2.805   2.104
 5106SOL    HW116214   2.265   2.844   2.062
 5106SOL    HW216215   2.156   2.723   2.055
 5107SOL     OW16216   3.320   2.597   2.590
 5107SOL    HW116217   3.315   2.532   2.665
 5107SOL    HW216218   3.400   2.656   2.603
 5108SOL     OW16219   2.323   3.128   3.589
 5108SOL    HW116220   2.273   3.129   3.503
 5108SOL    HW216221   2.260   3.110   3.665
 5109SOL     OW16222   2.973   3.638   2.099
 5109SOL    HW116223   2.913   3.576   2.149
 5109SOL    HW216224   3.004   3.594   2.014
 5110SOL     OW16225   3.494   3.239   1.943
 5110SOL    HW116226   3.462   3.333   1.933
 5110SOL    HW216227   3.418   3.176   1.931
 5111SOL     OW16228   2.326   3.605   2.185
 5111SOL    HW116229   2.359   3.644   2.271
 5111SOL    HW216230   2.402   3.598   2.120
 5112SOL     OW16231   3.262   1.969   2.288
 5112SOL    HW116232   3.238   1.932   2.198
 5112SOL    HW216233   3.361   1.985   2.292
 5113SOL     OW16234   2.111   3.647   3.103
 5113SOL    HW116235   2.168   3.582   3.153
 5113SOL    HW216236   2.095   3.614   3.010
 5114SOL     OW16237   2.802   3.560   2.766
 5114SOL    HW116238   2.882   3.503   2.787
 5114SOL    HW216239   2.753   3.520   2.689
 5115SOL     OW16240   2.244   2.562   2.342
 5115SOL    HW116241   2.289   2.472   2.339
 5115SOL    HW216242   2.150   2.551   2.375
 5116SOL     OW16243   3.409   2.084   3.591
 5116SOL    HW116244   3.404   2.121   3.683
 5116SOL    HW216245   3.337   2.015   3.579
 5117SOL     OW16246   2.476   1.984   1.979
 5117SOL    HW116247   2.574   1.962   1.986
 5117SOL    HW216248   2.445   1.967   1.886
 5118SOL     OW16249   2.643   2.126   3.611
 5118SOL    HW116250   2.710   2.065   3.654
 5118SOL    HW216251   2.570   2.145   3.676
 5119SOL     OW16252   2.750   3.376   3.057
 5119SOL    HW116253   2.727   3.351   2.963
 5119SOL    HW216254   2.811   3.307   3.096
 5120SOL     OW16255   3.213   2.452   3.295
 5120SOL    HW116256   3.241   2.409   3.380
 5120SOL    HW216257   3.238   2.548   3.296
 5121SOL     OW16258   2.665   3.264   2.786
 5121SOL    HW116259   2.755   3.278   2.744
 5121SOL    HW216260   2.594   3.266   2.715
 5122SOL     OW16261   2.784   2.365   2.761
 5122SOL    HW116262   2.759   2.356   2.665
 5122SOL    HW216263   2.832   2.283   2.792
 5123SOL     OW16264   2.401   1.926   2.374
 5123SOL    HW116265   2.320   1.927   2.432
 5123SOL    HW216266   2.404   2.009   2.319
 5124SOL     OW16267   3.296   3.050   1.903
 5124SOL    HW116268   3.328   2.974   1.960
 5124SOL    HW216269   3.204   3.077   1.933
 5125SOL     OW16270   2.797   2.098   2.342
 5125SOL    HW116271   2.749   2.139   2.264
 5125SOL    HW216272   2.896   2.096   2.323
 5126SOL     OW16273   2.938   2.545   3.326
 5126SOL    HW116274   2.858   2.484   3.329
 5126SOL    HW216275   3.019   2.492   3.302
 5127SOL     OW16276   3.089   3.432   2.655
 5127SOL    HW116277   3.110   3.506   2.590
 5127SOL    HW216278   3.157   3.432   2.728
 5128SOL     OW16279   2.321   3.014   2.603
 5128SOL    HW116280   2.250   2.987   2.668
 5128SOL    HW216281   2.295   2.986   2.510
 5129SOL     OW16282   3.133   3.659   2.453
 5129SOL    HW116283   3.177   3.723   2.389
 5129SOL    HW216284   3.083   3.711   2.523
 5130SOL     OW16285   2.894   2.411   1.878
 5130SOL    HW116286   2.853   2.493   1.839
 5130SOL    HW216287   2.958   2.437   1.951
 5131SOL     OW16288   1.940   2.418   3.248
 5131SOL    HW116289   2.032   2.417   3.207
 5131SOL    HW216290   1.934   2.492   3.315
 5132SOL     OW16291   2.728   2.316   2.504
 5132SOL    HW116292   2.696   2.388   2.442
 5132SOL    HW216293   2.752   2.235   2.451
 5133SOL     OW16294   2.879   1.901   2.615
 5133SOL    HW116295   2.807   1.906   2.546
 5133SOL    HW216296   2.855   1.832   2.684
 5134SOL     OW16297   3.291   3.035   2.729
 5134SOL    HW116298   3.236   2.951   2.722
 5134SOL    HW216299   3.317   3.064   2.637
 5135SOL     OW16300   3.328   2.452   2.854
 5135SOL    HW116301   3.298   2.357   2.861
 5135SOL    HW216302   3.401   2.468   2.920
 5136SOL     OW16303   3.719   2.695   2.239
 5136SOL    HW116304   3.761   2.631   2.303
 5136SOL    HW216305   3.681   2.644   2.161
 5137SOL     OW16306   2.350   3.247   2.036
 5137SOL    HW116307   2.263   3.232   2.083
 5137SOL    HW216308   2.333   3.273   1.941
 5138SOL     OW16309   3.526   3.142   2.519
 5138SOL    HW116310   3.625   3.150   2.533
 5138SOL    HW216311   3.481   3.226   2.550
 5139SOL     OW16312   3.252   2.437   1.940
 5139SOL    HW116313   3.198   2.416   2.021
 5139SOL    HW216314   3.343   2.396   1.949
 5140SOL     OW16315   3.616   3.085   3.450
 5140SOL    HW116316   3.707   3.046   3.437
 5140SOL    HW216317   3.624   3.181   3.474
 5141SOL     OW16318   2.926   3.209   3.202
 5141SOL    HW116319   2.846   3.186   3.257
 5141SOL    HW216320   3.009   3.183   3.251
 5142SOL     OW16321   3.454   3.491   3.487
 5142SOL    HW116322   3.481   3.525   3.397
 5142SOL    HW216323   3.533   3.453   3.533
 5143SOL     OW16324   2.973   3.057   2.962
 5143SOL    HW116325   2.933   3.101   3.043
 5143SOL    HW216326   2.932   3.094   2.879
 5144SOL     OW16327   3.500   2.961   2.941
 5144SOL    HW116328   3.505   3.042   3.000
 5144SOL    HW216329   3.414   2.963   2.890
 5145SOL     OW16330   2.777   1.951   3.264
 5145SOL    HW116331   2.802   1.931   3.169
 5145SOL    HW216332   2.849   2.007   3.306
 5146SOL     OW16333   2.842   2.978   3.581
 5146SOL    HW116334   2.743   2.984   3.591
 5146SOL    HW216335   2.865   2.898   3.525
 5147SOL     OW16336   2.567   2.912   2.230
 5147SOL    HW116337   2.553   2.919   2.329
 5147SOL    HW216338   2.651   2.861   2.212
 5148SOL     OW16339   2.272   2.675   3.113
 5148SOL    HW116340   2.358   2.687   3.163
 5148SOL    HW216341   2.230   2.588   3.140
 5149SOL     OW16342   3.136   2.248   3.124
 5149SOL    HW116343   3.157   2.322   3.188
 5149SOL    HW216344   3.047   2.265   3.081
 5150SOL     OW16345   1.926   3.426   3.193
 5150SOL    HW116346   1.880   3.508   3.159
 5150SOL    HW216347   2.024   3.445   3.202
 5151SOL     OW16348   2.229   2.962   2.363
 5151SOL    HW116349   2.222   3.045   2.307
 5151SOL    HW216350   2.233   2.882   2.303
 5152SOL     OW16351   2.428   2.399   2.727
 5152SOL    HW116352   2.440   2.465   2.653
 5152SOL    HW216353   2.474   2.433   2.810
 5153SOL     OW16354   3.114   3.210   2.250
 5153SOL    HW116355   3.164   3.287   2.290
 5153SOL    HW216356   3.019   3.212   2.282
 5154SOL     OW16357   3.134   3.307   3.004
 5154SOL    HW116358   3.181   3.320   3.091
 5154SOL    HW216359   3.068   3.233   3.013
 5155SOL     OW16360   3.444   2.501   2.334
 5155SOL    HW116361   3.413   2.562   2.407
 5155SOL    HW216362   3.494   2.553   2.265
 5156SOL     OW16363   2.216   3.372   3.191
 5156SOL    HW116364   2.195   3.328   3.104
 5156SOL    HW216365   2.313   3.398   3.194
 5157SOL     OW16366   2.264   2.613   3.460
 5157SOL    HW116367   2.332   2.668   3.413
 5157SOL    HW216368   2.304   2.525   3.487
 5158SOL     OW16369   3.449   2.641   3.532
 5158SOL    HW116370   3.357   2.679   3.527
 5158SOL    HW216371   3.509   2.688   3.467
 5159SOL     OW16372   2.875   1.967   3.632
 5159SOL    HW116373   2.881   2.052   3.580
 5159SOL    HW216374   2.907   1.891   3.575
 5160SOL     OW16375   2.366   1.912   3.602
 5160SOL    HW116376   2.324   1.855   3.532
 5160SOL    HW216377   2.300   1.981   3.634
 5161SOL     OW16378   2.435   2.732   2.891
 5161SOL    HW116379   2.479   2.821   2.882
 5161SOL    HW216380   2.372   2.732   2.968
 5162SOL     OW16381   3.222   2.724   2.907
 5162SOL    HW116382   3.147   2.724   2.841
 5162SOL    HW216383   3.259   2.632   2.916
 5163SOL     OW16384   3.071   2.387   2.137
 5163SOL    HW116385   3.084   2.303   2.191
 5163SOL    HW216386   3.042   2.461   2.197
 5164SOL     OW16387   1.899   3.172   3.144
 5164SOL    HW116388   1.952   3.123   3.212
 5164SOL    HW216389   1.921   3.270   3.149
 5165SOL     OW16390   2.594   2.496   2.926
 5165SOL    HW116391   2.653   2.470   2.850
 5165SOL    HW216392   2.566   2.592   2.915
 5166SOL     OW16393   3.590   2.797   3.716
 5166SOL    HW116394   3.544   2.790   3.627
 5166SOL    HW216395   3.528   2.841   3.782
 5167SOL     OW16396   3.484   2.229   2.236
 5167SOL    HW116397   3.486   2.153   2.300
 5167SOL    HW216398   3.436   2.306   2.276
 5168SOL     OW16399   2.885   2.628   2.828
 5168SOL    HW116400   2.900   2.649   2.924
 5168SOL    HW216401   2.855   2.533   2.819
 5169SOL     OW16402   2.842   3.435   3.562
 5169SOL    HW116403   2.822   3.479   3.474
 5169SOL    HW216404   2.881   3.344   3.546
 5170SOL     OW16405   3.721   3.380   3.467
 5170SOL    HW116406   3.735   3.407   3.372
 5170SOL    HW216407   3.804   3.402   3.520
 5171SOL     OW16408   2.212   2.760   3.666
 5171SOL    HW116409   2.288   2.804   3.714
 5171SOL    HW216410   2.247   2.713   3.584
 5172SOL     OW16411   3.402   2.136   1.987
 5172SOL    HW116412   3.341   2.061   2.010
 5172SOL    HW216413   3.424   2.188   2.070
 5173SOL     OW16414   3.165   2.700   1.904
 5173SOL    HW116415   3.199   2.607   1.919
 5173SOL    HW216416   3.183   2.727   1.809
 5174SOL     OW16417   2.930   3.195   2.711
 5174SOL    HW116418   2.937   3.111   2.656
 5174SOL    HW216419   2.992   3.264   2.675
 5175SOL     OW16420   2.181   2.672   2.811
 5175SOL    HW116421   2.274   2.708   2.816
 5175SOL    HW216422   2.175   2.587   2.863
 5176SOL     OW16423   2.201   2.371   2.868
 5176SOL    HW116424   2.149   2.288   2.851
 5176SOL    HW216425   2.278   2.376   2.804
 5177SOL     OW16426   3.000   2.242   3.540
 5177SOL    HW116427   2.955   2.305   3.604
 5177SOL    HW216428   3.093   2.273   3.523
 5178SOL     OW16429   3.022   2.069   3.339
 5178SOL    HW116430   3.022   2.133   3.416
 5178SOL    HW216431   3.050   2.117   3.256
 5179SOL     OW16432   1.870   3.188   2.062
 5179SOL    HW116433   1.777   3.209   2.031
 5179SOL    HW216434   1.880   3.089   2.075
 5180SOL     OW16435   1.950   3.663   2.789
 5180SOL    HW116436   1.908   3.577   2.762
 5180SOL    HW216437   2.044   3.666   2.755
 5181SOL     OW16438   2.366   3.430   2.772
 5181SOL    HW116439   2.432   3.504   2.781
 5181SOL    HW216440   2.410   3.351   2.730
 5182SOL     OW16441   2.864   2.658   3.100
 5182SOL    HW116442   2.905   2.626   3.186
 5182SOL    HW216443   2.768   2.631   3.097
 5183SOL     OW16444   1.902   2.406   2.976
 5183SOL    HW116445   1.987   2.373   2.935
 5183SOL    HW216446   1.915   2.421   3.074
 5184SOL     OW16447   2.051   2.382   3.584
 5184SOL    HW116448   2.110   2.342   3.514
 5184SOL    HW216449   1.993   2.453   3.543
 5185SOL     OW16450   3.231   2.812   3.522
 5185SOL    HW116451   3.270   2.901   3.542
 5185SOL    HW216452   3.241   2.792   3.425
 5186SOL     OW16453   2.677   2.434   2.187
 5186SOL    HW116454   2.684   2.345   2.141
 5186SOL    HW216455   2.583   2.468   2.179
 5187SOL     OW16456   3.519   2.466   3.068
 5187SOL    HW116457   3.481   2.397   3.130
 5187SOL    HW216458   3.601   2.430   3.024
 5188SOL     OW16459   2.114   3.426   3.606
 5188SOL    HW116460   2.084   3.483   3.682
 5188SOL    HW216461   2.107   3.329   3.632
 5189SOL     OW16462   2.533   2.326   3.131
 5189SOL    HW116463   2.499   2.237   3.101
 5189SOL    HW216464   2.559   2.380   3.051
 5190SOL     OW16465   2.792   3.540   3.327
 5190SOL    HW116466   2.768   3.522   3.232
 5190SOL    HW216467   2.822   3.634   3.337
 5191SOL     OW16468   2.335   2.362   2.053
 5191SOL    HW116469   2.396   2.442   2.057
 5191SOL    HW216470   2.240   2.393   2.060
 5192SOL     OW16471   2.021   2.999   3.328
 5192SOL    HW116472   2.043   2.938   3.404
 5192SOL    HW216473   2.031   2.950   3.242
 5193SOL     OW16474   3.209   2.921   3.096
 5193SOL    HW116475   3.233   2.858   3.022
 5193SOL    HW216476   3.119   2.961   3.078
 5194SOL     OW16477   3.164   2.717   2.171
 5194SOL    HW116478   3.078   2.686   2.213
 5194SOL    HW216479   3.160   2.703   2.072
 5195SOL     OW16480   3.621   3.609   3.016
 5195SOL    HW116481   3.682   3.639   2.943
 5195SOL    HW216482   3.583   3.520   2.994
 5196SOL     OW16483   3.114   3.593   2.990
 5196SOL    HW116484   3.198   3.598   2.936
 5196SOL    HW216485   3.091   3.497   3.008
 5197SOL     OW16486   1.945   3.120   2.884
 5197SOL    HW116487   1.940   3.119   2.984
 5197SOL    HW216488   1.862   3.079   2.846
 5198SOL     OW16489   2.550   3.524   3.578
 5198SOL    HW116490   2.494   3.605   3.587
 5198SOL    HW216491   2.602   3.528   3.492
 5199SOL     OW16492   3.588   1.997   2.385
 5199SOL    HW116493   3.661   1.980   2.318
 5199SOL    HW216494   3.557   1.910   2.423
 5200SOL     OW16495   3.250   3.435   2.339
 5200SOL    HW116496   3.317   3.447   2.265
 5200SOL    HW216497   3.210   3.524   2.362
 5201SOL     OW16498   1.992   3.656   3.713
 5201SOL    HW116499   1.951   3.582   3.766
 5201SOL    HW216500   2.056   3.707   3.771
 5202SOL     OW16501   3.142   2.789   2.534
 5202SOL    HW116502   3.202   2.708   2.536
 5202SOL    HW216503   3.182   2.858   2.474
 5203SOL     OW16504   2.692   3.135   3.284
 5203SOL    HW116505   2.687   3.168   3.379
 5203SOL    HW216506   2.606   3.154   3.238
 5204SOL     OW16507   2.534   3.478   2.016
 5204SOL    HW116508   2.543   3.488   1.917
 5204SOL    HW216509   2.494   3.389   2.037
 5205SOL     OW16510   3.512   3.582   3.256
 5205SOL    HW116511   3.565   3.592   3.172
 5205SOL    HW216512   3.485   3.672   3.290
 5206SOL     OW16513   3.703   2.037   2.825
 5206SOL    HW116514   3.742   1.952   2.789
 5206SOL    HW216515   3.605   2.039   2.806
 5207SOL     OW16516   3.056   3.474   1.893
 5207SOL    HW116517   3.062   3.381   1.930
 5207SOL    HW216518   2.997   3.474   1.813
 5208SOL     OW16519   2.684   2.864   3.234
 5208SOL    HW116520   2.724   2.863   3.142
 5208SOL    HW216521   2.694   2.956   3.274
 5209SOL     OW16522   2.778   2.772   2.153
 5209SOL    HW116523   2.841   2.810   2.085
 5209SOL    HW216524   2.818   2.689   2.192
 5210SOL     OW16525   3.366   3.469   1.906
 5210SOL    HW116526   3.274   3.506   1.913
 5210SOL    HW216527   3.404   3.489   1.816
 5211SOL     OW16528   2.234   3.150   3.352
 5211SOL    HW116529   2.221   3.243   3.318
 5211SOL    HW216530   2.150   3.098   3.339
 5212SOL     OW16531   3.476   3.154   3.151
 5212SOL    HW116532   3.536   3.157   3.231
 5212SOL    HW216533   3.401   3.218   3.164
 5213SOL     OW16534   2.901   2.960   2.558
 5213SOL    HW116535   2.831   2.913   2.612
 5213SOL    HW216536   2.960   2.892   2.515
 5214SOL     OW16537   2.876   2.098   2.833
 5214SOL    HW116538   2.868   2.062   2.740
 5214SOL    HW216539   2.874   2.022   2.898
 5215SOL     OW16540   2.452   3.349   2.353
 5215SOL    HW116541   2.494   3.291   2.283
 5215SOL    HW216542   2.408   3.428   2.309
 5216SOL     OW16543   3.571   2.247   3.243
 5216SOL    HW116544   3.644   2.316   3.247
 5216SOL    HW216545   3.599   2.172   3.184
 5217SOL     OW16546   2.117   3.210   2.152
 5217SOL    HW116547   2.021   3.211   2.125
 5217SOL    HW216548   2.129   3.263   2.236
 5218SOL     OW16549   1.967   2.875   3.588
 5218SOL    HW116550   1.890   2.842   3.642
 5218SOL    HW216551   2.052   2.845   3.630
 5219SOL     OW16552   2.534   2.065   3.351
 5219SOL    HW116553   2.624   2.049   3.311
 5219SOL    HW216554   2.542   2.070   3.450
 5220SOL     OW16555   1.937   2.207   1.895
 5220SOL    HW116556   1.845   2.179   1.866
 5220SOL    HW216557   1.968   2.284   1.839
 5221SOL     OW16558   3.302   2.718   3.260
 5221SOL    HW116559   3.245   2.770   3.197
 5221SOL    HW216560   3.398   2.730   3.236
 5222SOL     OW16561   3.045   3.197   1.981
 5222SOL    HW116562   2.946   3.186   1.983
 5222SOL    HW216563   3.079   3.212   2.074
 5223SOL     OW16564   2.475   2.704   3.293
 5223SOL    HW116565   2.531   2.785   3.276
 5223SOL    HW216566   2.534   2.624   3.296
 5224SOL     OW16567   3.355   3.629   2.821
 5224SOL    HW116568   3.388   3.693   2.752
 5224SOL    HW216569   3.421   3.623   2.896
 5225SOL     OW16570   2.578   2.427   3.570
 5225SOL    HW116571   2.597   2.492   3.644
 5225SOL    HW216572   2.638   2.347   3.579
 5226SOL     OW16573   3.312   3.082   3.495
 5226SOL    HW116574   3.303   3.072   3.594
 5226SOL    HW216575   3.408   3.075   3.469
 5227SOL     OW16576   2.252   3.603   3.422
 5227SOL    HW116577   2.161   3.644   3.420
 5227SOL    HW216578   2.245   3.509   3.454
 5228SOL     OW16579   3.536   2.745   3.116
 5228SOL    HW116580   3.509   2.656   3.079
 5228SOL    HW216581   3.537   2.813   3.043
 5229SOL     OW16582   3.087   2.187   2.311
 5229SOL    HW116583   3.152   2.113   2.300
 5229SOL    HW216584   3.107   2.237   2.395
 5230SOL     OW16585   2.456   2.607   2.514
 5230SOL    HW116586   2.506   2.692   2.495
 5230SOL    HW216587   2.368   2.609   2.466
 5231SOL     OW16588   3.639   2.204   3.504
 5231SOL    HW116589   3.622   2.235   3.410
 5231SOL    HW216590   3.555   2.167   3.542
 5232SOL     OW16591   3.592   2.796   3.379
 5232SOL    HW116592   3.630   2.887   3.394
 5232SOL    HW216593   3.584   2.779   3.280
 5233SOL     OW16594   2.721   3.236   1.878
 5233SOL    HW116595   2.675   3.251   1.966
 5233SOL    HW216596   2.765   3.321   1.848
 5234SOL     OW16597   2.523   3.652   2.815
 5234SOL    HW116598   2.477   3.740   2.802
 5234SOL    HW216599   2.622   3.664   2.808
 5235SOL     OW16600   2.721   2.818   2.723
 5235SOL    HW116601   2.775   2.749   2.771
 5235SOL    HW216602   2.689   2.887   2.789
 5236SOL     OW16603   2.945   2.846   1.949
 5236SOL    HW116604   2.922   2.899   1.867
 5236SOL    HW216605   3.026   2.790   1.930
 5237SOL     OW16606   3.723   3.431   2.713
 5237SOL    HW116607   3.652   3.419   2.643
 5237SOL    HW216608   3.724   3.352   2.773
 5238SOL     OW16609   2.083   3.176   3.706
 5238SOL    HW116610   2.018   3.103   3.685
 5238SOL    HW216611   2.087   3.190   3.804
 5239SOL     OW16612   1.941   3.102   2.515
 5239SOL    HW116613   1.940   3.055   2.603
 5239SOL    HW216614   2.023   3.074   2.464
 5240SOL     OW16615   2.534   3.253   3.486
 5240SOL    HW116616   2.456   3.203   3.524
 5240SOL    HW216617   2.531   3.348   3.517
 5241SOL     OW16618   3.686   2.054   3.089
 5241SOL    HW116619   3.682   1.964   3.133
 5241SOL    HW216620   3.689   2.043   2.990
 5242SOL     OW16621   2.290   2.286   2.382
 5242SOL    HW116622   2.320   2.214   2.320
 5242SOL    HW216623   2.251   2.246   2.465
 5243SOL     OW16624   3.567   3.349   2.966
 5243SOL    HW116625   3.474   3.324   2.939
 5243SOL    HW216626   3.593   3.299   3.048
 5244SOL     OW16627   2.179   2.409   3.142
 5244SOL    HW116628   2.217   2.350   3.214
 5244SOL    HW216629   2.219   2.383   3.054
 5245SOL     OW16630   2.674   3.448   2.549
 5245SOL    HW116631   2.706   3.458   2.455
 5245SOL    HW216632   2.595   3.386   2.551
 5246SOL     OW16633   3.286   2.076   2.974
 5246SOL    HW116634   3.338   2.011   3.029
 5246SOL    HW216635   3.237   2.139   3.035
 5247SOL     OW16636   2.863   1.896   3.016
 5247SOL    HW116637   2.800   1.824   2.985
 5247SOL    HW216638   2.956   1.860   3.016
 5248SOL     OW16639   2.632   3.192   2.163
 5248SOL    HW116640   2.586   3.105   2.180
 5248SOL    HW216641   2.723   3.189   2.204
 5249SOL     OW16642   2.480   3.429   3.146
 5249SOL    HW116643   2.475   3.511   3.203
 5249SOL    HW216644   2.569   3.426   3.101
 5250SOL     OW16645   3.214   1.914   2.030
 5250SOL    HW116646   3.249   1.873   1.946
 5250SOL    HW216647   3.124   1.876   2.050
 5251SOL     OW16648   3.162   2.315   2.553
 5251SOL    HW116649   3.103   2.395   2.557
 5251SOL    HW216650   3.177   2.280   2.646
 5252SOL     OW16651   3.455   2.083   2.744
 5252SOL    HW116652   3.371   2.082   2.798
 5252SOL    HW216653   3.457   2.166   2.688
 5253SOL     OW16654   1.901   2.939   2.162
 5253SOL    HW116655   2.000   2.928   2.153
 5253SOL    HW216656   1.861   2.853   2.194
 5254SOL     OW16657   2.737   3.508   2.199
 5254SOL    HW116658   2.660   3.473   2.145
 5254SOL    HW216659   2.705   3.579   2.261
 5255SOL     OW16660   2.092   2.490   3.837
 5255SOL    HW116661   1.999   2.488   3.874
 5255SOL    HW216662   2.093   2.451   3.745
 5256SOL     OW16663   1.881   2.230   4.371
 5256SOL    HW116664   1.799   2.273   4.410
 5256SOL    HW216665   1.853   2.157   4.308
 5257SOL     OW16666   2.431   3.137   4.889
 5257SOL    HW116667   2.338   3.130   4.852
 5257SOL    HW216668   2.442   3.226   4.933
 5258SOL     OW16669   3.417   3.373   4.427
 5258SOL    HW116670   3.360   3.357   4.508
 5258SOL    HW216671   3.358   3.383   4.347
 5259SOL     OW16672   2.997   2.565   4.441
 5259SOL    HW116673   3.054   2.643   4.416
 5259SOL    HW216674   2.937   2.591   4.517
 5260SOL     OW16675   3.617   2.469   3.955
 5260SOL    HW116676   3.605   2.456   3.856
 5260SOL    HW216677   3.587   2.388   4.004
 5261SOL     OW16678   2.630   3.006   4.747
 5261SOL    HW116679   2.552   3.023   4.807
 5261SOL    HW216680   2.664   3.093   4.711
 5262SOL     OW16681   2.712   2.660   5.547
 5262SOL    HW116682   2.708   2.736   5.612
 5262SOL    HW216683   2.734   2.696   5.456
 5263SOL     OW16684   2.547   2.874   4.389
 5263SOL    HW116685   2.616   2.858   4.459
 5263SOL    HW216686   2.474   2.931   4.427
 5264SOL     OW16687   2.548   3.023   5.527
 5264SOL    HW116688   2.608   3.102   5.541
 5264SOL    HW216689   2.462   3.054   5.486
 5265SOL     OW16690   2.197   3.297   4.785
 5265SOL    HW116691   2.119   3.266   4.732
 5265SOL    HW216692   2.255   3.355   4.728
 5266SOL     OW16693   3.322   3.367   5.063
 5266SOL    HW116694   3.346   3.461   5.089
 5266SOL    HW216695   3.306   3.313   5.145
 5267SOL     OW16696   3.465   2.309   4.461
 5267SOL    HW116697   3.391   2.355   4.411
 5267SOL    HW216698   3.516   2.377   4.514
 5268SOL     OW16699   2.093   3.575   4.207
 5268SOL    HW116700   2.127   3.652   4.261
 5268SOL    HW216701   2.137   3.575   4.117
 5269SOL     OW16702   2.989   3.203   5.414
 5269SOL    HW116703   3.036   3.203   5.502
 5269SOL    HW216704   2.941   3.116   5.403
 5270SOL     OW16705   2.092   3.296   4.262
 5270SOL    HW116706   2.066   3.392   4.262
 5270SOL    HW216707   2.021   3.242   4.307
 5271SOL     OW16708   2.102   2.953   4.610
 5271SOL    HW116709   2.116   2.869   4.662
 5271SOL    HW216710   2.047   3.017   4.665
 5272SOL     OW16711   2.482   3.648   5.163
 5272SOL    HW116712   2.390   3.631   5.198
 5272SOL    HW216713   2.510   3.740   5.189
 5273SOL     OW16714   2.468   2.826   3.847
 5273SOL    HW116715   2.475   2.910   3.793
 5273SOL    HW216716   2.514   2.839   3.935
 5274SOL     OW16717   3.456   1.976   5.204
 5274SOL    HW116718   3.438   2.043   5.132
 5274SOL    HW216719   3.453   2.022   5.293
 5275SOL     OW16720   1.984   2.505   4.287
 5275SOL    HW116721   1.939   2.417   4.304
 5275SOL    HW216722   1.983   2.559   4.371
 5276SOL     OW16723   3.704   3.629   4.083
 5276SOL    HW116724   3.758   3.600   4.163
 5276SOL    HW216725   3.734   3.719   4.054
 5277SOL     OW16726   1.889   3.458   3.841
 5277SOL    HW116727   1.870   3.362   3.862
 5277SOL    HW216728   1.856   3.516   3.916
 5278SOL     OW16729   3.551   2.784   4.336
 5278SOL    HW116730   3.646   2.755   4.344
 5278SOL    HW216731   3.543   2.849   4.261
 5279SOL     OW16732   3.503   2.970   4.156
 5279SOL    HW116733   3.589   2.972   4.104
 5279SOL    HW216734   3.517   3.017   4.244
 5280SOL     OW16735   1.975   2.599   5.321
 5280SOL    HW116736   2.063   2.586   5.366
 5280SOL    HW216737   1.962   2.696   5.299
 5281SOL     OW16738   2.475   3.227   4.450
 5281SOL    HW116739   2.426   3.140   4.459
 5281SOL    HW216740   2.452   3.270   4.363
 5282SOL     OW16741   3.155   3.090   5.147
 5282SOL    HW116742   3.192   3.017   5.089
 5282SOL    HW216743   3.207   3.095   5.232
 5283SOL     OW16744   2.671   1.866   4.226
 5283SOL    HW116745   2.711   1.957   4.217
 5283SOL    HW216746   2.571   1.874   4.232
 5284SOL     OW16747   2.059   2.838   4.988
 5284SOL    HW116748   2.148   2.793   4.974
 5284SOL    HW216749   1.986   2.773   4.969
 5285SOL     OW16750   3.387   2.861   3.914
 5285SOL    HW116751   3.324   2.785   3.927
 5285SOL    HW216752   3.435   2.879   4.000
 5286SOL     OW16753   3.049   3.654   5.340
 5286SOL    HW116754   3.073   3.714   5.264
 5286SOL    HW216755   3.056   3.559   5.310
 5287SOL     OW16756   3.328   3.279   4.677
 5287SOL    HW116757   3.269   3.285   4.757
 5287SOL    HW216758   3.313   3.191   4.631
 5288SOL     OW16759   3.529   3.576   4.296
 5288SOL    HW116760   3.488   3.553   4.208
 5288SOL    HW216761   3.511   3.502   4.361
 5289SOL     OW16762   2.460   2.591   3.994
 5289SOL    HW116763   2.484   2.660   3.926
 5289SOL    HW216764   2.382   2.624   4.048
 5290SOL     OW16765   3.143   2.207   4.668
 5290SOL    HW116766   3.057   2.157   4.655
 5290SOL    HW216767   3.205   2.153   4.724
 5291SOL     OW16768   3.438   3.524   4.031
 5291SOL    HW116769   3.527   3.570   4.034
 5291SOL    HW216770   3.417   3.500   3.936
 5292SOL     OW16771   2.669   2.467   5.189
 5292SOL    HW116772   2.622   2.464   5.278
 5292SOL    HW216773   2.618   2.412   5.123
 5293SOL     OW16774   3.256   2.331   5.398
 5293SOL    HW116775   3.236   2.374   5.486
 5293SOL    HW216776   3.334   2.269   5.407
 5294SOL     OW16777   2.835   2.752   5.296
 5294SOL    HW116778   2.881   2.668   5.267
 5294SOL    HW216779   2.779   2.786   5.221
 5295SOL     OW16780   2.853   2.272   4.966
 5295SOL    HW116781   2.776   2.306   5.020
 5295SOL    HW216782   2.819   2.221   4.887
 5296SOL     OW16783   2.903   2.563   4.153
 5296SOL    HW116784   2.929   2.559   4.249
 5296SOL    HW216785   2.818   2.512   4.139
 5297SOL     OW16786   1.938   2.673   4.513
 5297SOL    HW116787   2.037   2.661   4.522
 5297SOL    HW216788   1.914   2.768   4.534
 5298SOL     OW16789   1.992   3.683   5.295
 5298SOL    HW116790   1.982   3.668   5.394
 5298SOL    HW216791   1.906   3.719   5.259
 5299SOL     OW16792   2.727   2.210   3.919
 5299SOL    HW116793   2.786   2.273   3.870
 5299SOL    HW216794   2.746   2.116   3.890
 5300SOL     OW16795   3.581   2.447   5.555
 5300SOL    HW116796   3.555   2.536   5.519
 5300SOL    HW216797   3.579   2.379   5.482
 5301SOL     OW16798   3.224   3.006   4.269
 5301SOL    HW116799   3.307   2.977   4.221
 5301SOL    HW216800   3.175   3.073   4.213
 5302SOL     OW16801   2.412   2.058   4.609
 5302SOL    HW116802   2.407   2.053   4.709
 5302SOL    HW216803   2.414   2.154   4.580
 5303SOL     OW16804   2.870   3.318   4.201
 5303SOL    HW116805   2.824   3.390   4.149
 5303SOL    HW216806   2.866   3.338   4.299
 5304SOL     OW16807   2.213   3.663   4.577
 5304SOL    HW116808   2.263   3.577   4.583
 5304SOL    HW216809   2.278   3.740   4.574
 5305SOL     OW16810   3.657   2.928   4.597
 5305SOL    HW116811   3.595   2.913   4.521
 5305SOL    HW216812   3.605   2.939   4.682
 5306SOL     OW16813   3.089   3.412   5.230
 5306SOL    HW116814   3.095   3.335   5.294
 5306SOL    HW216815   3.037   3.386   5.150
 5307SOL     OW16816   2.183   2.805   3.966
 5307SOL    HW116817   2.265   2.844   3.924
 5307SOL    HW216818   2.156   2.723   3.917
 5308SOL     OW16819   3.320   2.597   4.452
 5308SOL    HW116820   3.315   2.532   4.527
 5308SOL    HW216821   3.400   2.656   4.465
 5309SOL     OW16822   2.323   3.128   5.451
 5309SOL    HW116823   2.273   3.129   5.365
 5309SOL    HW216824   2.260   3.110   5.527
 5310SOL     OW16825   2.973   3.638   3.961
 5310SOL    HW116826   2.913   3.576   4.011
 5310SOL    HW216827   3.004   3.594   3.876
 5311SOL     OW16828   3.494   3.239   3.805
 5311SOL    HW116829   3.462   3.333   3.795
 5311SOL    HW216830   3.418   3.176   3.793
 5312SOL     OW16831   2.326   3.605   4.047
 5312SOL    HW116832   2.359   3.644   4.133
 5312SOL    HW216833   2.402   3.598   3.982
 5313SOL     OW16834   3.262   1.969   4.150
 5313SOL    HW116835   3.238   1.932   4.060
 5313SOL    HW216836   3.361   1.985   4.154
 5314SOL     OW16837   2.111   3.647   4.965
 5314SOL    HW116838   2.168   3.582   5.015
 5314SOL    HW216839   2.095   3.614   4.872
 5315SOL     OW16840   2.802   3.560   4.628
 5315SOL    HW116841   2.882   3.503   4.649
 5315SOL    HW216842   2.753   3.520   4.551
 5316SOL     OW16843   2.244   2.562   4.204
 5316SOL    HW116844   2.289   2.472   4.201
 5316SOL    HW216845   2.150   2.551   4.237
 5317SOL     OW16846   3.409   2.084   5.453
 5317SOL    HW116847   3.404   2.121   5.545
 5317SOL    HW216848   3.337   2.015   5.441
 5318SOL     OW16849   2.476   1.984   3.841
 5318SOL    HW116850   2.574   1.962   3.848
 5318SOL    HW216851   2.445   1.967   3.748
 5319SOL     OW16852   2.643   2.126   5.473
 5319SOL    HW116853   2.710   2.065   5.516
 5319SOL    HW216854   2.570   2.145   5.538
 5320SOL     OW16855   2.750   3.376   4.919
 5320SOL    HW116856   2.727   3.351   4.825
 5320SOL    HW216857   2.811   3.307   4.958
 5321SOL     OW16858   3.213   2.452   5.157
 5321SOL    HW116859   3.241   2.409   5.242
 5321SOL    HW216860   3.238   2.548   5.158
 5322SOL     OW16861   2.665   3.264   4.648
 5322SOL    HW116862   2.755   3.278   4.606
 5322SOL    HW216863   2.594   3.266   4.577
 5323SOL     OW16864   2.784   2.365   4.623
 5323SOL    HW116865   2.759   2.356   4.527
 5323SOL    HW216866   2.832   2.283   4.654
 5324SOL     OW16867   2.401   1.926   4.236
 5324SOL    HW116868   2.320   1.927   4.294
 5324SOL    HW216869   2.404   2.009   4.181
 5325SOL     OW16870   3.296   3.050   3.765
 5325SOL    HW116871   3.328   2.974   3.822
 5325SOL    HW216872   3.204   3.077   3.795
 5326SOL     OW16873   2.797   2.098   4.204
 5326SOL    HW116874   2.749   2.139   4.126
 5326SOL    HW216875   2.896   2.096   4.185
 5327SOL     OW16876   2.938   2.545   5.188
 5327SOL    HW116877   2.858   2.484   5.191
 5327SOL    HW216878   3.019   2.492   5.164
 5328SOL     OW16879   3.089   3.432   4.517
 5328SOL    HW116880   3.110   3.506   4.452
 5328SOL    HW216881   3.157   3.432   4.590
 5329SOL     OW16882   2.321   3.014   4.465
 5329SOL    HW116883   2.250   2.987   4.530
 5329SOL    HW216884   2.295   2.986   4.372
 5330SOL     OW16885   3.133   3.659   4.315
 5330SOL    HW116886   3.177   3.723   4.251
 5330SOL    HW216887   3.083   3.711   4.385
 5331SOL     OW16888   2.894   2.411   3.740
 5331SOL    HW116889   2.853   2.493   3.701
 5331SOL    HW216890   2.958   2.437   3.813
 5332SOL     OW16891   1.940   2.418   5.110
 5332SOL    HW116892   2.032   2.417   5.069
 5332SOL    HW216893   1.934   2.492   5.177
 5333SOL     OW16894   2.728   2.316   4.366
 5333SOL    HW116895   2.696   2.388   4.304
 5333SOL    HW216896   2.752   2.235   4.313
 5334SOL     OW16897   2.879   1.901   4.477
 5334SOL    HW116898   2.807   1.906   4.408
 5334SOL    HW216899   2.855   1.832   4.546
 5335SOL     OW16900   3.291   3.035   4.591
 5335SOL    HW116901   3.236   2.951   4.584
 5335SOL    HW216902   3.317   3.064   4.499
 5336SOL     OW16903   3.328   2.452   4.716
 5336SOL    HW116904   3.298   2.357   4.723
 5336SOL    HW216905   3.401   2.468   4.782
 5337SOL     OW16906   3.719   2.695   4.101
 5337SOL    HW116907   3.761   2.631   4.165
 5337SOL    HW216908   3.681   2.644   4.023
 5338SOL     OW16909   2.350   3.247   3.898
 5338SOL    HW116910   2.263   3.232   3.945
 5338SOL    HW216911   2.333   3.273   3.803
 5339SOL     OW16912   3.526   3.142   4.381
 5339SOL    HW116913   3.625   3.150   4.395
 5339SOL    HW216914   3.481   3.226   4.412
 5340SOL     OW16915   3.252   2.437   3.802
 5340SOL    HW116916   3.198   2.416   3.883
 5340SOL    HW216917   3.343   2.396   3.811
 5341SOL     OW16918   3.616   3.085   5.312
 5341SOL    HW116919   3.707   3.046   5.299
 5341SOL    HW216920   3.624   3.181   5.336
 5342SOL     OW16921   2.926   3.209   5.064
 5342SOL    HW116922   2.846   3.186   5.119
 5342SOL    HW216923   3.009   3.183   5.113
 5343SOL     OW16924   3.454   3.491   5.349
 5343SOL    HW116925   3.481   3.525   5.259
 5343SOL    HW216926   3.533   3.453   5.395
 5344SOL     OW16927   2.973   3.057   4.824
 5344SOL    HW116928   2.933   3.101   4.905
 5344SOL    HW216929   2.932   3.094   4.741
 5345SOL     OW16930   3.500   2.961   4.803
 5345SOL    HW116931   3.505   3.042   4.862
 5345SOL    HW216932   3.414   2.963   4.752
 5346SOL     OW16933   2.777   1.951   5.126
 5346SOL    HW116934   2.802   1.931   5.031
 5346SOL    HW216935   2.849   2.007   5.168
 5347SOL     OW16936   2.842   2.978   5.443
 5347SOL    HW116937   2.743   2.984   5.453
 5347SOL    HW216938   2.865   2.898   5.387
 5348SOL     OW16939   2.567   2.912   4.092
 5348SOL    HW116940   2.553   2.919   4.191
 5348SOL    HW216941   2.651   2.861   4.074
 5349SOL     OW16942   2.272   2.675   4.975
 5349SOL    HW116943   2.358   2.687   5.025
 5349SOL    HW216944   2.230   2.588   5.002
 5350SOL     OW16945   3.136   2.248   4.986
 5350SOL    HW116946   3.157   2.322   5.050
 5350SOL    HW216947   3.047   2.265   4.943
 5351SOL     OW16948   1.926   3.426   5.055
 5351SOL    HW116949   1.880   3.508   5.021
 5351SOL    HW216950   2.024   3.445   5.064
 5352SOL     OW16951   2.229   2.962   4.225
 5352SOL    HW116952   2.222   3.045   4.169
 5352SOL    HW216953   2.233   2.882   4.165
 5353SOL     OW16954   2.428   2.399   4.589
 5353SOL    HW116955   2.440   2.465   4.515
 5353SOL    HW216956   2.474   2.433   4.672
 5354SOL     OW16957   3.114   3.210   4.112
 5354SOL    HW116958   3.164   3.287   4.152
 5354SOL    HW216959   3.019   3.212   4.144
 5355SOL     OW16960   3.134   3.307   4.866
 5355SOL    HW116961   3.181   3.320   4.953
 5355SOL    HW216962   3.068   3.233   4.875
 5356SOL     OW16963   3.444   2.501   4.196
 5356SOL    HW116964   3.413   2.562   4.269
 5356SOL    HW216965   3.494   2.553   4.127
 5357SOL     OW16966   2.216   3.372   5.053
 5357SOL    HW116967   2.195   3.328   4.966
 5357SOL    HW216968   2.313   3.398   5.056
 5358SOL     OW16969   2.264   2.613   5.322
 5358SOL    HW116970   2.332   2.668   5.275
 5358SOL    HW216971   2.304   2.525   5.349
 5359SOL     OW16972   3.449   2.641   5.394
 5359SOL    HW116973   3.357   2.679   5.389
 5359SOL    HW216974   3.509   2.688   5.329
 5360SOL     OW16975   2.875   1.967   5.494
 5360SOL    HW116976   2.881   2.052   5.442
 5360SOL    HW216977   2.907   1.891   5.437
 5361SOL     OW16978   2.366   1.912   5.464
 5361SOL    HW116979   2.324   1.855   5.394
 5361SOL    HW216980   2.300   1.981   5.496
 5362SOL     OW16981   2.435   2.732   4.753
 5362SOL    HW116982   2.479   2.821   4.744
 5362SOL    HW216983   2.372   2.732   4.830
 5363SOL     OW16984   3.222   2.724   4.769
 5363SOL    HW116985   3.147   2.724   4.703
 5363SOL    HW216986   3.259   2.632   4.778
 5364SOL     OW16987   3.071   2.387   3.999
 5364SOL    HW116988   3.084   2.303   4.053
 5364SOL    HW216989   3.042   2.461   4.059
 5365SOL     OW16990   1.899   3.172   5.006
 5365SOL    HW116991   1.952   3.123   5.074
 5365SOL    HW216992   1.921   3.270   5.011
 5366SOL     OW16993   2.594   2.496   4.788
 5366SOL    HW116994   2.653   2.470   4.712
 5366SOL    HW216995   2.566   2.592   4.777
 5367SOL     OW16996   3.590   2.797   5.578
 5367SOL    HW116997   3.544   2.790   5.489
 5367SOL    HW216998   3.528   2.841   5.644
 5368SOL     OW16999   3.484   2.229   4.098
 5368SOL    HW117000   3.486   2.153   4.162
 5368SOL    HW217001   3.436   2.306   4.138
 5369SOL     OW17002   2.885   2.628   4.690
 5369SOL    HW117003   2.900   2.649   4.786
 5369SOL    HW217004   2.855   2.533   4.681
 5370SOL     OW17005   2.842   3.435   5.424
 5370SOL    HW117006   2.822   3.479   5.336
 5370SOL    HW217007   2.881   3.344   5.408
 5371SOL     OW17008   3.721   3.380   5.329
 5371SOL    HW117009   3.735   3.407   5.234
 5371SOL    HW217010   3.804   3.402   5.382
 5372SOL     OW17011   2.212   2.760   5.528
 5372SOL    HW117012   2.288   2.804   5.576
 5372SOL    HW217013   2.247   2.713   5.446
 5373SOL     OW17014   3.402   2.136   3.849
 5373SOL    HW117015   3.341   2.061   3.872
 5373SOL    HW217016   3.424   2.188   3.932
 5374SOL     OW17017   3.165   2.700   3.766
 5374SOL    HW117018   3.199   2.607   3.781
 5374SOL    HW217019   3.183   2.727   3.671
 5375SOL     OW17020   2.930   3.195   4.573
 5375SOL    HW117021   2.937   3.111   4.518
 5375SOL    HW217022   2.992   3.264   4.537
 5376SOL     OW17023   2.181   2.672   4.673
 5376SOL    HW117024   2.274   2.708   4.678
 5376SOL    HW217025   2.175   2.587   4.725
 5377SOL     OW17026   2.201   2.371   4.730
 5377SOL    HW117027   2.149   2.288   4.713
 5377SOL    HW217028   2.278   2.376   4.666
 5378SOL     OW17029   3.000   2.242   5.402
 5378SOL    HW117030   2.955   2.305   5.466
 5378SOL    HW217031   3.093   2.273   5.385
 5379SOL     OW17032   3.022   2.069   5.201
 5379SOL    HW117033   3.022   2.133   5.278
 5379SOL    HW217034   3.050   2.117   5.118
 5380SOL     OW17035   1.870   3.188   3.924
 5380SOL    HW117036   1.777   3.209   3.893
 5380SOL    HW217037   1.880   3.089   3.937
 5381SOL     OW17038   1.950   3.663   4.651
 5381SOL    HW117039   1.908   3.577   4.624
 5381SOL    HW217040   2.044   3.666   4.617
 5382SOL     OW17041   2.366   3.430   4.634
 5382SOL    HW117042   2.432   3.504   4.643
 5382SOL    HW217043   2.410   3.351   4.592
 5383SOL     OW17044   2.864   2.658   4.962
 5383SOL    HW117045   2.905   2.626   5.048
 5383SOL    HW217046   2.768   2.631   4.959
 5384SOL     OW17047   1.902   2.406   4.838
 5384SOL    HW117048   1.987   2.373   4.797
 5384SOL    HW217049   1.915   2.421   4.936
 5385SOL     OW17050   2.051   2.382   5.446
 5385SOL    HW117051   2.110   2.342   5.376
 5385SOL    HW217052   1.993   2.453   5.405
 5386SOL     OW17053   3.231   2.812   5.384
 5386SOL    HW117054   3.270   2.901   5.404
 5386SOL    HW217055   3.241   2.792   5.287
 5387SOL     OW17056   2.677   2.434   4.049
 5387SOL    HW117057   2.684   2.345   4.003
 5387SOL    HW217058   2.583   2.468   4.041
 5388SOL     OW17059   3.519   2.466   4.930
 5388SOL    HW117060   3.481   2.397   4.992
 5388SOL    HW217061   3.601   2.430   4.886
 5389SOL     OW17062   2.114   3.426   5.468
 5389SOL    HW117063   2.084   3.483   5.544
 5389SOL    HW217064   2.107   3.329   5.494
 5390SOL     OW17065   2.533   2.326   4.993
 5390SOL    HW117066   2.499   2.237   4.963
 5390SOL    HW217067   2.559   2.380   4.913
 5391SOL     OW17068   2.792   3.540   5.189
 5391SOL    HW117069   2.768   3.522   5.094
 5391SOL    HW217070   2.822   3.634   5.199
 5392SOL     OW17071   2.335   2.362   3.915
 5392SOL    HW117072   2.396   2.442   3.919
 5392SOL    HW217073   2.240   2.393   3.922
 5393SOL     OW17074   2.021   2.999   5.190
 5393SOL    HW117075   2.043   2.938   5.266
 5393SOL    HW217076   2.031   2.950   5.104
 5394SOL     OW17077   3.209   2.921   4.958
 5394SOL    HW117078   3.233   2.858   4.884
 5394SOL    HW217079   3.119   2.961   4.940
 5395SOL     OW17080   3.164   2.717   4.033
 5395SOL    HW117081   3.078   2.686   4.075
 5395SOL    HW217082   3.160   2.703   3.934
 5396SOL     OW17083   3.621   3.609   4.878
 5396SOL    HW117084   3.682   3.639   4.805
 5396SOL    HW217085   3.583   3.520   4.856
 5397SOL     OW17086   3.114   3.593   4.852
 5397SOL    HW117087   3.198   3.598   4.798
 5397SOL    HW217088   3.091   3.497   4.870
 5398SOL     OW17089   1.945   3.120   4.746
 5398SOL    HW117090   1.940   3.119   4.846
 5398SOL    HW217091   1.862   3.079   4.708
 5399SOL     OW17092   2.550   3.524   5.440
 5399SOL    HW117093   2.494   3.605   5.449
 5399SOL    HW217094   2.602   3.528   5.354
 5400SOL     OW17095   3.588   1.997   4.247
 5400SOL    HW117096   3.661   1.980   4.180
 5400SOL    HW217097   3.557   1.910   4.285
 5401SOL     OW17098   3.250   3.435   4.201
 5401SOL    HW117099   3.317   3.447   4.127
 5401SOL    HW217100   3.210   3.524   4.224
 5402SOL     OW17101   1.992   3.656   5.575
 5402SOL    HW117102   1.951   3.582   5.628
 5402SOL    HW217103   2.056   3.707   5.633
 5403SOL     OW17104   3.142   2.789   4.396
 5403SOL    HW117105   3.202   2.708   4.398
 5403SOL    HW217106   3.182   2.858   4.336
 5404SOL     OW17107   2.692   3.135   5.146
 5404SOL    HW117108   2.687   3.168   5.241
 5404SOL    HW217109   2.606   3.154   5.100
 5405SOL     OW17110   2.534   3.478   3.878
 5405SOL    HW117111   2.543   3.488   3.779
 5405SOL    HW217112   2.494   3.389   3.899
 5406SOL     OW17113   3.512   3.582   5.118
 5406SOL    HW117114   3.565   3.592   5.034
 5406SOL    HW217115   3.485   3.672   5.152
 5407SOL     OW17116   3.703   2.037   4.687
 5407SOL    HW117117   3.742   1.952   4.651
 5407SOL    HW217118   3.605   2.039   4.668
 5408SOL     OW17119   3.056   3.474   3.755
 5408SOL    HW117120   3.062   3.381   3.792
 5408SOL    HW217121   2.997   3.474   3.675
 5409SOL     OW17122   2.684   2.864   5.096
 5409SOL    HW117123   2.724   2.863   5.004
 5409SOL    HW217124   2.694   2.956   5.136
 5410SOL     OW17125   2.778   2.772   4.015
 5410SOL    HW117126   2.841   2.810   3.947
 5410SOL    HW217127   2.818   2.689   4.054
 5411SOL     OW17128   3.366   3.469   3.768
 5411SOL    HW117129   3.274   3.506   3.775
 5411SOL    HW217130   3.404   3.489   3.678
 5412SOL     OW17131   2.234   3.150   5.214
 5412SOL    HW117132   2.221   3.243   5.180
 5412SOL    HW217133   2.150   3.098   5.201
 5413SOL     OW17134   3.476   3.154   5.013
 5413SOL    HW117135   3.536   3.157   5.093
 5413SOL    HW217136   3.401   3.218   5.026
 5414SOL     OW17137   2.901   2.960   4.420
 5414SOL    HW117138   2.831   2.913   4.474
 5414SOL    HW217139   2.960   2.892   4.377
 5415SOL     OW17140   2.876   2.098   4.695
 5415SOL    HW117141   2.868   2.062   4.602
 5415SOL    HW217142   2.874   2.022   4.760
 5416SOL     OW17143   2.452   3.349   4.215
 5416SOL    HW117144   2.494   3.291   4.145
 5416SOL    HW217145   2.408   3.428   4.171
 5417SOL     OW17146   3.571   2.247   5.105
 5417SOL    HW117147   3.644   2.316   5.109
 5417SOL    HW217148   3.599   2.172   5.046
 5418SOL     OW17149   2.117   3.210   4.014
 5418SOL    HW117150   2.021   3.211   3.987
 5418SOL    HW217151   2.129   3.263   4.098
 5419SOL     OW17152   1.967   2.875   5.450
 5419SOL    HW117153   1.890   2.842   5.504
 5419SOL    HW217154   2.052   2.845   5.492
 5420SOL     OW17155   2.534   2.065   5.213
 5420SOL    HW117156   2.624   2.049   5.173
 5420SOL    HW217157   2.542   2.070   5.312
 5421SOL     OW17158   1.937   2.207   3.757
 5421SOL    HW117159   1.845   2.179   3.728
 5421SOL    HW217160   1.968   2.284   3.701
 5422SOL     OW17161   3.302   2.718   5.122
 5422SOL    HW117162   3.245   2.770   5.059
 5422SOL    HW217163   3.398   2.730   5.098
 5423SOL     OW17164   3.045   3.197   3.843
 5423SOL    HW117165   2.946   3.186   3.845
 5423SOL    HW217166   3.079   3.212   3.936
 5424SOL     OW17167   2.475   2.704   5.155
 5424SOL    HW117168   2.531   2.785   5.138
 5424SOL    HW217169   2.534   2.624   5.158
 5425SOL     OW17170   3.355   3.629   4.683
 5425SOL    HW117171   3.388   3.693   4.614
 5425SOL    HW217172   3.421   3.623   4.758
 5426SOL     OW17173   2.578   2.427   5.432
 5426SOL    HW117174   2.597   2.492   5.506
 5426SOL    HW217175   2.638   2.347   5.441
 5427SOL     OW17176   3.312   3.082   5.357
 5427SOL    HW117177   3.303   3.072   5.456
 5427SOL    HW217178   3.408   3.075   5.331
 5428SOL     OW17179   2.252   3.603   5.284
 5428SOL    HW117180   2.161   3.644   5.282
 5428SOL    HW217181   2.245   3.509   5.316
 5429SOL     OW17182   3.536   2.745   4.978
 5429SOL    HW117183   3.509   2.656   4.941
 5429SOL    HW217184   3.537   2.813   4.905
 5430SOL     OW17185   3.087   2.187   4.173
 5430SOL    HW117186   3.152   2.113   4.162
 5430SOL    HW217187   3.107   2.237   4.257
 5431SOL     OW17188   2.456   2.607   4.376
 5431SOL    HW117189   2.506   2.692   4.357
 5431SOL    HW217190   2.368   2.609   4.328
 5432SOL     OW17191   3.639   2.204   5.366
 5432SOL    HW117192   3.622   2.235   5.272
 5432SOL    HW217193   3.555   2.167   5.404
 5433SOL     OW17194   3.592   2.796   5.241
 5433SOL    HW117195   3.630   2.887   5.256
 5433SOL    HW217196   3.584   2.779   5.142
 5434SOL     OW17197   2.721   3.236   3.740
 5434SOL    HW117198   2.675   3.251   3.828
 5434SOL    HW217199   2.765   3.321   3.710
 5435SOL     OW17200   2.523   3.652   4.677
 5435SOL    HW117201   2.477   3.740   4.664
 5435SOL    HW217202   2.622   3.664   4.670
 5436SOL     OW17203   2.721   2.818   4.585
 5436SOL    HW117204   2.775   2.749   4.633
 5436SOL    HW217205   2.689   2.887   4.651
 5437SOL     OW17206   2.945   2.846   3.811
 5437SOL    HW117207   2.922   2.899   3.729
 5437SOL    HW217208   3.026   2.790   3.792
 5438SOL     OW17209   3.723   3.431   4.575
 5438SOL    HW117210   3.652   3.419   4.505
 5438SOL    HW217211   3.724   3.352   4.635
 5439SOL     OW17212   2.083   3.176   5.568
 5439SOL    HW117213   2.018   3.103   5.547
 5439SOL    HW217214   2.087   3.190   5.666
 5440SOL     OW17215   1.941   3.102   4.377
 5440SOL    HW117216   1.940   3.055   4.465
 5440SOL    HW217217   2.023   3.074   4.326
 5441SOL     OW17218   2.534   3.253   5.348
 5441SOL    HW117219   2.456   3.203   5.386
 5441SOL    HW217220   2.531   3.348   5.379
 5442SOL     OW17221   3.686   2.054   4.951
 5442SOL    HW117222   3.682   1.964   4.995
 5442SOL    HW217223   3.689   2.043   4.852
 5443SOL     OW17224   3.567   3.349   4.828
 5443SOL    HW117225   3.474   3.324   4.801
 5443SOL    HW217226   3.593   3.299   4.910
 5444SOL     OW17227   2.179   2.409   5.004
 5444SOL    HW117228   2.217   2.350   5.076
 5444SOL    HW217229   2.219   2.383   4.916
 5445SOL     OW17230   2.674   3.448   4.411
 5445SOL    HW117231   2.706   3.458   4.317
 5445SOL    HW217232   2.595   3.386   4.413
 5446SOL     OW17233   3.286   2.076   4.836
 5446SOL    HW117234   3.338   2.011   4.891
 5446SOL    HW217235   3.237   2.139   4.897
 5447SOL     OW17236   2.863   1.896   4.878
 5447SOL    HW117237   2.800   1.824   4.847
 5447SOL    HW217238   2.956   1.860   4.878
 5448SOL     OW17239   2.632   3.192   4.025
 5448SOL    HW117240   2.586   3.105   4.042
 5448SOL    HW217241   2.723   3.189   4.066
 5449SOL     OW17242   2.480   3.429   5.008
 5449SOL    HW117243   2.475   3.511   5.065
 5449SOL    HW217244   2.569   3.426   4.963
 5450SOL     OW17245   3.214   1.914   3.892
 5450SOL    HW117246   3.249   1.873   3.808
 5450SOL    HW217247   3.124   1.876   3.912
 5451SOL     OW17248   3.162   2.315   4.415
 5451SOL    HW117249   3.103   2.395   4.419
 5451SOL    HW217250   3.177   2.280   4.508
 5452SOL     OW17251   3.455   2.083   4.606
 5452SOL    HW117252   3.371   2.082   4.660
 5452SOL    HW217253   3.457   2.166   4.550
 5453SOL     OW17254   1.901   2.939   4.024
 5453SOL    HW117255   2.000   2.928   4.015
 5453SOL    HW217256   1.861   2.853   4.056
 5454SOL     OW17257   2.737   3.508   4.061
 5454SOL    HW117258   2.660   3.473   4.007
 5454SOL    HW217259   2.705   3.579   4.123
 5455SOL     OW17260   2.092   2.490   5.699
 5455SOL    HW117261   1.999   2.488   5.736
 5455SOL    HW217262   2.093   2.451   5.607
 5456SOL     OW17263   2.431   3.137   6.751
 5456SOL    HW117264   2.338   3.130   6.714
 5456SOL    HW217265   2.442   3.226   6.795
 5457SOL     OW17266   3.417   3.373   6.289
 5457SOL    HW117267   3.360   3.357   6.370
 5457SOL    HW217268   3.358   3.383   6.209
 5458SOL     OW17269   2.997   2.565   6.303
 5458SOL    HW117270   3.054   2.643   6.278
 5458SOL    HW217271   2.937   2.591   6.379
 5459SOL     OW17272   3.617   2.469   5.817
 5459SOL    HW117273   3.605   2.456   5.718
 5459SOL    HW217274   3.587   2.388   5.866
 5460SOL     OW17275   2.630   3.006   6.609
 5460SOL    HW117276   2.552   3.023   6.669
 5460SOL    HW217277   2.664   3.093   6.573
 5461SOL     OW17278   2.712   2.660   7.409
 5461SOL    HW117279   2.708   2.736   7.474
 5461SOL    HW217280   2.734   2.696   7.318
 5462SOL     OW17281   2.548   3.023   7.389
 5462SOL    HW117282   2.608   3.102   7.403
 5462SOL    HW217283   2.462   3.054   7.348
 5463SOL     OW17284   2.197   3.297   6.647
 5463SOL    HW117285   2.119   3.266   6.594
 5463SOL    HW217286   2.255   3.355   6.590
 5464SOL     OW17287   3.322   3.367   6.925
 5464SOL    HW117288   3.346   3.461   6.951
 5464SOL    HW217289   3.306   3.313   7.007
 5465SOL     OW17290   3.465   2.309   6.323
 5465SOL    HW117291   3.391   2.355   6.273
 5465SOL    HW217292   3.516   2.377   6.376
 5466SOL     OW17293   2.093   3.575   6.069
 5466SOL    HW117294   2.127   3.652   6.123
 5466SOL    HW217295   2.137   3.575   5.979
 5467SOL     OW17296   2.989   3.203   7.276
 5467SOL    HW117297   3.036   3.203   7.364
 5467SOL    HW217298   2.941   3.116   7.265
 5468SOL     OW17299   2.092   3.296   6.124
 5468SOL    HW117300   2.066   3.392   6.124
 5468SOL    HW217301   2.021   3.242   6.169
 5469SOL     OW17302   2.102   2.953   6.472
 5469SOL    HW117303   2.116   2.869   6.524
 5469SOL    HW217304   2.047   3.017   6.527
 5470SOL     OW17305   2.482   3.648   7.025
 5470SOL    HW117306   2.390   3.631   7.060
 5470SOL    HW217307   2.510   3.740   7.051
 5471SOL     OW17308   2.468   2.826   5.709
 5471SOL    HW117309   2.475   2.910   5.655
 5471SOL    HW217310   2.514   2.839   5.797
 5472SOL     OW17311   3.456   1.976   7.066
 5472SOL    HW117312   3.438   2.043   6.994
 5472SOL    HW217313   3.453   2.022   7.155
 5473SOL     OW17314   3.704   3.629   5.945
 5473SOL    HW117315   3.758   3.600   6.025
 5473SOL    HW217316   3.734   3.719   5.916
 5474SOL     OW17317   1.889   3.458   5.703
 5474SOL    HW117318   1.870   3.362   5.724
 5474SOL    HW217319   1.856   3.516   5.778
 5475SOL     OW17320   3.551   2.784   6.198
 5475SOL    HW117321   3.646   2.755   6.206
 5475SOL    HW217322   3.543   2.849   6.123
 5476SOL     OW17323   3.503   2.970   6.018
 5476SOL    HW117324   3.589   2.972   5.966
 5476SOL    HW217325   3.517   3.017   6.106
 5477SOL     OW17326   2.475   3.227   6.312
 5477SOL    HW117327   2.426   3.140   6.321
 5477SOL    HW217328   2.452   3.270   6.225
 5478SOL     OW17329   3.155   3.090   7.009
 5478SOL    HW117330   3.192   3.017   6.951
 5478SOL    HW217331   3.207   3.095   7.094
 5479SOL     OW17332   3.387   2.861   5.776
 5479SOL    HW117333   3.324   2.785   5.789
 5479SOL    HW217334   3.435   2.879   5.862
 5480SOL     OW17335   3.049   3.654   7.202
 5480SOL    HW117336   3.073   3.714   7.126
 5480SOL    HW217337   3.056   3.559   7.172
 5481SOL     OW17338   3.328   3.279   6.539
 5481SOL    HW117339   3.269   3.285   6.619
 5481SOL    HW217340   3.313   3.191   6.493
 5482SOL     OW17341   3.529   3.576   6.158
 5482SOL    HW117342   3.488   3.553   6.070
 5482SOL    HW217343   3.511   3.502   6.223
 5483SOL     OW17344   2.460   2.591   5.856
 5483SOL    HW117345   2.484   2.660   5.788
 5483SOL    HW217346   2.382   2.624   5.910
 5484SOL     OW17347   3.438   3.524   5.893
 5484SOL    HW117348   3.527   3.570   5.896
 5484SOL    HW217349   3.417   3.500   5.798
 5485SOL     OW17350   3.256   2.331   7.260
 5485SOL    HW117351   3.236   2.374   7.348
 5485SOL    HW217352   3.334   2.269   7.269
 5486SOL     OW17353   2.835   2.752   7.158
 5486SOL    HW117354   2.881   2.668   7.129
 5486SOL    HW217355   2.779   2.786   7.083
 5487SOL     OW17356   2.853   2.272   6.828
 5487SOL    HW117357   2.776   2.306   6.882
 5487SOL    HW217358   2.819   2.221   6.749
 5488SOL     OW17359   2.903   2.563   6.015
 5488SOL    HW117360   2.929   2.559   6.111
 5488SOL    HW217361   2.818   2.512   6.001
 5489SOL     OW17362   1.992   3.683   7.157
 5489SOL    HW117363   1.982   3.668   7.256
 5489SOL    HW217364   1.906   3.719   7.121
 5490SOL     OW17365   2.727   2.210   5.781
 5490SOL    HW117366   2.786   2.273   5.732
 5490SOL    HW217367   2.746   2.116   5.752
 5491SOL     OW17368   3.581   2.447   7.417
 5491SOL    HW117369   3.555   2.536   7.381
 5491SOL    HW217370   3.579   2.379   7.344
 5492SOL     OW17371   3.224   3.006   6.131
 5492SOL    HW117372   3.307   2.977   6.083
 5492SOL    HW217373   3.175   3.073   6.075
 5493SOL     OW17374   2.412   2.058   6.471
 5493SOL    HW117375   2.407   2.053   6.571
 5493SOL    HW217376   2.414   2.154   6.442
 5494SOL     OW17377   2.870   3.318   6.063
 5494SOL    HW117378   2.824   3.390   6.011
 5494SOL    HW217379   2.866   3.338   6.161
 5495SOL     OW17380   2.213   3.663   6.439
 5495SOL    HW117381   2.263   3.577   6.445
 5495SOL    HW217382   2.278   3.740   6.436
 5496SOL     OW17383   3.657   2.928   6.459
 5496SOL    HW117384   3.595   2.913   6.383
 5496SOL    HW217385   3.605   2.939   6.544
 5497SOL     OW17386   3.089   3.412   7.092
 5497SOL    HW117387   3.095   3.335   7.156
 5497SOL    HW217388   3.037   3.386   7.012
 5498SOL     OW17389   2.183   2.805   5.828
 5498SOL    HW117390   2.265   2.844   5.786
 5498SOL    HW217391   2.156   2.723   5.779
 5499SOL     OW17392   3.320   2.597   6.314
 5499SOL    HW117393   3.315   2.532   6.389
 5499SOL    HW217394   3.400   2.656   6.327
 5500SOL     OW17395   2.323   3.128   7.313
 5500SOL    HW117396   2.273   3.129   7.227
 5500SOL    HW217397   2.260   3.110   7.389
 5501SOL     OW17398   2.973   3.638   5.823
 5501SOL    HW117399   2.913   3.576   5.873
 5501SOL    HW217400   3.004   3.594   5.738
 5502SOL     OW17401   3.494   3.239   5.667
 5502SOL    HW117402   3.462   3.333   5.657
 5502SOL    HW217403   3.418   3.176   5.655
 5503SOL     OW17404   2.326   3.605   5.909
 5503SOL    HW117405   2.359   3.644   5.995
 5503SOL    HW217406   2.402   3.598   5.844
 5504SOL     OW17407   3.262   1.969   6.012
 5504SOL    HW117408   3.238   1.932   5.922
 5504SOL    HW217409   3.361   1.985   6.016
 5505SOL     OW17410   2.111   3.647   6.827
 5505SOL    HW117411   2.168   3.582   6.877
 5505SOL    HW217412   2.095   3.614   6.734
 5506SOL     OW17413   2.802   3.560   6.490
 5506SOL    HW117414   2.882   3.503   6.511
 5506SOL    HW217415   2.753   3.520   6.413
 5507SOL     OW17416   3.409   2.084   7.315
 5507SOL    HW117417   3.404   2.121   7.407
 5507SOL    HW217418   3.337   2.015   7.303
 5508SOL     OW17419   2.476   1.984   5.703
 5508SOL    HW117420   2.574   1.962   5.710
 5508SOL    HW217421   2.445   1.967   5.610
 5509SOL     OW17422   2.750   3.376   6.781
 5509SOL    HW117423   2.727   3.351   6.687
 5509SOL    HW217424   2.811   3.307   6.820
 5510SOL     OW17425   3.213   2.452   7.019
 5510SOL    HW117426   3.241   2.409   7.104
 5510SOL    HW217427   3.238   2.548   7.020
 5511SOL     OW17428   2.665   3.264   6.510
 5511SOL    HW117429   2.755   3.278   6.468
 5511SOL    HW217430   2.594   3.266   6.439
 5512SOL     OW17431   3.296   3.050   5.627
 5512SOL    HW117432   3.328   2.974   5.684
 5512SOL    HW217433   3.204   3.077   5.657
 5513SOL     OW17434   2.797   2.098   6.066
 5513SOL    HW117435   2.749   2.139   5.988
 5513SOL    HW217436   2.896   2.096   6.047
 5514SOL     OW17437   2.938   2.545   7.050
 5514SOL    HW117438   2.858   2.484   7.053
 5514SOL    HW217439   3.019   2.492   7.026
 5515SOL     OW17440   3.089   3.432   6.379
 5515SOL    HW117441   3.110   3.506   6.314
 5515SOL    HW217442   3.157   3.432   6.452
 5516SOL     OW17443   2.321   3.014   6.327
 5516SOL    HW117444   2.250   2.987   6.392
 5516SOL    HW217445   2.295   2.986   6.234
 5517SOL     OW17446   3.133   3.659   6.177
 5517SOL    HW117447   3.177   3.723   6.113
 5517SOL    HW217448   3.083   3.711   6.247
 5518SOL     OW17449   2.894   2.411   5.602
 5518SOL    HW117450   2.853   2.493   5.563
 5518SOL    HW217451   2.958   2.437   5.675
 5519SOL     OW17452   3.291   3.035   6.453
 5519SOL    HW117453   3.236   2.951   6.446
 5519SOL    HW217454   3.317   3.064   6.361
 5520SOL     OW17455   3.328   2.452   6.578
 5520SOL    HW117456   3.298   2.357   6.585
 5520SOL    HW217457   3.401   2.468   6.644
 5521SOL     OW17458   3.719   2.695   5.963
 5521SOL    HW117459   3.761   2.631   6.027
 5521SOL    HW217460   3.681   2.644   5.885
 5522SOL     OW17461   2.350   3.247   5.760
 5522SOL    HW117462   2.263   3.232   5.807
 5522SOL    HW217463   2.333   3.273   5.665
 5523SOL     OW17464   3.526   3.142   6.243
 5523SOL    HW117465   3.625   3.150   6.257
 5523SOL    HW217466   3.481   3.226   6.274
 5524SOL     OW17467   3.252   2.437   5.664
 5524SOL    HW117468   3.198   2.416   5.745
 5524SOL    HW217469   3.343   2.396   5.673
 5525SOL     OW17470   3.616   3.085   7.174
 5525SOL    HW117471   3.707   3.046   7.161
 5525SOL    HW217472   3.624   3.181   7.198
 5526SOL     OW17473   2.926   3.209   6.926
 5526SOL    HW117474   2.846   3.186   6.981
 5526SOL    HW217475   3.009   3.183   6.975
 5527SOL     OW17476   3.454   3.491   7.211
 5527SOL    HW117477   3.481   3.525   7.121
 5527SOL    HW217478   3.533   3.453   7.257
 5528SOL     OW17479   2.973   3.057   6.686
 5528SOL    HW117480   2.933   3.101   6.767
 5528SOL    HW217481   2.932   3.094   6.603
 5529SOL     OW17482   3.500   2.961   6.665
 5529SOL    HW117483   3.505   3.042   6.724
 5529SOL    HW217484   3.414   2.963   6.614
 5530SOL     OW17485   2.842   2.978   7.305
 5530SOL    HW117486   2.743   2.984   7.315
 5530SOL    HW217487   2.865   2.898   7.249
 5531SOL     OW17488   2.567   2.912   5.954
 5531SOL    HW117489   2.553   2.919   6.053
 5531SOL    HW217490   2.651   2.861   5.936
 5532SOL     OW17491   3.136   2.248   6.848
 5532SOL    HW117492   3.157   2.322   6.912
 5532SOL    HW217493   3.047   2.265   6.805
 5533SOL     OW17494   1.926   3.426   6.917
 5533SOL    HW117495   1.880   3.508   6.883
 5533SOL    HW217496   2.024   3.445   6.926
 5534SOL     OW17497   2.229   2.962   6.087
 5534SOL    HW117498   2.222   3.045   6.031
 5534SOL    HW217499   2.233   2.882   6.027
 5535SOL     OW17500   3.114   3.210   5.974
 5535SOL    HW117501   3.164   3.287   6.014
 5535SOL    HW217502   3.019   3.212   6.006
 5536SOL     OW17503   3.134   3.307   6.728
 5536SOL    HW117504   3.181   3.320   6.815
 5536SOL    HW217505   3.068   3.233   6.737
 5537SOL     OW17506   3.444   2.501   6.058
 5537SOL    HW117507   3.413   2.562   6.131
 5537SOL    HW217508   3.494   2.553   5.989
 5538SOL     OW17509   2.216   3.372   6.915
 5538SOL    HW117510   2.195   3.328   6.828
 5538SOL    HW217511   2.313   3.398   6.918
 5539SOL     OW17512   3.449   2.641   7.256
 5539SOL    HW117513   3.357   2.679   7.251
 5539SOL    HW217514   3.509   2.688   7.191
 5540SOL     OW17515   2.366   1.912   7.326
 5540SOL    HW117516   2.324   1.855   7.256
 5540SOL    HW217517   2.300   1.981   7.358
 5541SOL     OW17518   3.222   2.724   6.631
 5541SOL    HW117519   3.147   2.724   6.565
 5541SOL    HW217520   3.259   2.632   6.640
 5542SOL     OW17521   3.071   2.387   5.861
 5542SOL    HW117522   3.084   2.303   5.915
 5542SOL    HW217523   3.042   2.461   5.921
 5543SOL     OW17524   1.899   3.172   6.868
 5543SOL    HW117525   1.952   3.123   6.936
 5543SOL    HW217526   1.921   3.270   6.873
 5544SOL     OW17527   3.590   2.797   7.440
 5544SOL    HW117528   3.544   2.790   7.351
 5544SOL    HW217529   3.528   2.841   7.506
 5545SOL     OW17530   3.484   2.229   5.960
 5545SOL    HW117531   3.486   2.153   6.024
 5545SOL    HW217532   3.436   2.306   6.000
 5546SOL     OW17533   2.842   3.435   7.286
 5546SOL    HW117534   2.822   3.479   7.198
 5546SOL    HW217535   2.881   3.344   7.270
 5547SOL     OW17536   3.721   3.380   7.191
 5547SOL    HW117537   3.735   3.407   7.096
 5547SOL    HW217538   3.804   3.402   7.244
 5548SOL     OW17539   3.402   2.136   5.711
 5548SOL    HW117540   3.341   2.061   5.734
 5548SOL    HW217541   3.424   2.188   5.794
 5549SOL     OW17542   3.165   2.700   5.628
 5549SOL    HW117543   3.199   2.607   5.643
 5549SOL    HW217544   3.183   2.727   5.533
 5550SOL     OW17545   2.930   3.195   6.435
 5550SOL    HW117546   2.937   3.111   6.380
 5550SOL    HW217547   2.992   3.264   6.399
 5551SOL     OW17548   2.201   2.371   6.592
 5551SOL    HW117549   2.149   2.288   6.575
 5551SOL    HW217550   2.278   2.376   6.528
 5552SOL     OW17551   3.000   2.242   7.264
 5552SOL    HW117552   2.955   2.305   7.328
 5552SOL    HW217553   3.093   2.273   7.247
 5553SOL     OW17554   3.022   2.069   7.063
 5553SOL    HW117555   3.022   2.133   7.140
 5553SOL    HW217556   3.050   2.117   6.980
 5554SOL     OW17557   1.870   3.188   5.786
 5554SOL    HW117558   1.777   3.209   5.755
 5554SOL    HW217559   1.880   3.089   5.799
 5555SOL     OW17560   1.950   3.663   6.513
 5555SOL    HW117561   1.908   3.577   6.486
 5555SOL    HW217562   2.044   3.666   6.479
 5556SOL     OW17563   2.366   3.430   6.496
 5556SOL    HW117564   2.432   3.504   6.505
 5556SOL    HW217565   2.410   3.351   6.454
 5557SOL     OW17566   2.864   2.658   6.824
 5557SOL    HW117567   2.905   2.626   6.910
 5557SOL    HW217568   2.768   2.631   6.821
 5558SOL     OW17569   3.231   2.812   7.246
 5558SOL    HW117570   3.270   2.901   7.266
 5558SOL    HW217571   3.241   2.792   7.149
 5559SOL     OW17572   2.677   2.434   5.911
 5559SOL    HW117573   2.684   2.345   5.865
 5559SOL    HW217574   2.583   2.468   5.903
 5560SOL     OW17575   3.519   2.466   6.792
 5560SOL    HW117576   3.481   2.397   6.854
 5560SOL    HW217577   3.601   2.430   6.748
 5561SOL     OW17578   2.114   3.426   7.330
 5561SOL    HW117579   2.084   3.483   7.406
 5561SOL    HW217580   2.107   3.329   7.356
 5562SOL     OW17581   2.533   2.326   6.855
 5562SOL    HW117582   2.499   2.237   6.825
 5562SOL    HW217583   2.559   2.380   6.775
 5563SOL     OW17584   2.792   3.540   7.051
 5563SOL    HW117585   2.768   3.522   6.956
 5563SOL    HW217586   2.822   3.634   7.061
 5564SOL     OW17587   2.021   2.999   7.052
 5564SOL    HW117588   2.043   2.938   7.128
 5564SOL    HW217589   2.031   2.950   6.966
 5565SOL     OW17590   3.209   2.921   6.820
 5565SOL    HW117591   3.233   2.858   6.746
 5565SOL    HW217592   3.119   2.961   6.802
 5566SOL     OW17593   3.164   2.717   5.895
 5566SOL    HW117594   3.078   2.686   5.937
 5566SOL    HW217595   3.160   2.703   5.796
 5567SOL     OW17596   3.621   3.609   6.740
 5567SOL    HW117597   3.682   3.639   6.667
 5567SOL    HW217598   3.583   3.520   6.718
 5568SOL     OW17599   3.114   3.593   6.714
 5568SOL    HW117600   3.198   3.598   6.660
 5568SOL    HW217601   3.091   3.497   6.732
 5569SOL     OW17602   1.945   3.120   6.608
 5569SOL    HW117603   1.940   3.119   6.708
 5569SOL    HW217604   1.862   3.079   6.570
 5570SOL     OW17605   2.550   3.524   7.302
 5570SOL    HW117606   2.494   3.605   7.311
 5570SOL    HW217607   2.602   3.528   7.216
 5571SOL     OW17608   3.588   1.997   6.109
 5571SOL    HW117609   3.661   1.980   6.042
 5571SOL    HW217610   3.557   1.910   6.147
 5572SOL     OW17611   3.250   3.435   6.063
 5572SOL    HW117612   3.317   3.447   5.989
 5572SOL    HW217613   3.210   3.524   6.086
 5573SOL     OW17614   1.992   3.656   7.437
 5573SOL    HW117615   1.951   3.582   7.490
 5573SOL    HW217616   2.056   3.707   7.495
 5574SOL     OW17617   3.142   2.789   6.258
 5574SOL    HW117618   3.202   2.708   6.260
 5574SOL    HW217619   3.182   2.858   6.198
 5575SOL     OW17620   2.692   3.135   7.008
 5575SOL    HW117621   2.687   3.168   7.103
 5575SOL    HW217622   2.606   3.154   6.962
 5576SOL     OW17623   2.534   3.478   5.740
 5576SOL    HW117624   2.543   3.488   5.641
 5576SOL    HW217625   2.494   3.389   5.761
 5577SOL     OW17626   3.512   3.582   6.980
 5577SOL    HW117627   3.565   3.592   6.896
 5577SOL    HW217628   3.485   3.672   7.014
 5578SOL     OW17629   3.703   2.037   6.549
 5578SOL    HW117630   3.742   1.952   6.513
 5578SOL    HW217631   3.605   2.039   6.530
 5579SOL     OW17632   3.056   3.474   5.617
 5579SOL    HW117633   3.062   3.381   5.654
 5579SOL    HW217634   2.997   3.474   5.537
 5580SOL     OW17635   2.684   2.864   6.958
 5580SOL    HW117636   2.724   2.863   6.866
 5580SOL    HW217637   2.694   2.956   6.998
 5581SOL     OW17638   2.778   2.772   5.877
 5581SOL    HW117639   2.841   2.810   5.809
 5581SOL    HW217640   2.818   2.689   5.916
 5582SOL     OW17641   3.366   3.469   5.630
 5582SOL    HW117642   3.274   3.506   5.637
 5582SOL    HW217643   3.404   3.489   5.540
 5583SOL     OW17644   2.234   3.150   7.076
 5583SOL    HW117645   2.221   3.243   7.042
 5583SOL    HW217646   2.150   3.098   7.063
 5584SOL     OW17647   3.476   3.154   6.875
 5584SOL    HW117648   3.536   3.157   6.955
 5584SOL    HW217649   3.401   3.218   6.888
 5585SOL     OW17650   2.901   2.960   6.282
 5585SOL    HW117651   2.831   2.913   6.336
 5585SOL    HW217652   2.960   2.892   6.239
 5586SOL     OW17653   2.452   3.349   6.077
 5586SOL    HW117654   2.494   3.291   6.007
 5586SOL    HW217655   2.408   3.428   6.033
 5587SOL     OW17656   3.571   2.247   6.967
 5587SOL    HW117657   3.644   2.316   6.971
 5587SOL    HW217658   3.599   2.172   6.908
 5588SOL     OW17659   2.117   3.210   5.876
 5588SOL    HW117660   2.021   3.211   5.849
 5588SOL    HW217661   2.129   3.263   5.960
 5589SOL     OW17662   1.937   2.207   5.619
 5589SOL    HW117663   1.845   2.179   5.590
 5589SOL    HW217664   1.968   2.284   5.563
 5590SOL     OW17665   3.302   2.718   6.984
 5590SOL    HW117666   3.245   2.770   6.921
 5590SOL    HW217667   3.398   2.730   6.960
 5591SOL     OW17668   3.045   3.197   5.705
 5591SOL    HW117669   2.946   3.186   5.707
 5591SOL    HW217670   3.079   3.212   5.798
 5592SOL     OW17671   3.355   3.629   6.545
 5592SOL    HW117672   3.388   3.693   6.476
 5592SOL    HW217673   3.421   3.623   6.620
 5593SOL     OW17674   3.312   3.082   7.219
 5593SOL    HW117675   3.303   3.072   7.318
 5593SOL    HW217676   3.408   3.075   7.193
 5594SOL     OW17677   2.252   3.603   7.146
 5594SOL    HW117678   2.161   3.644   7.144
 5594SOL    HW217679   2.245   3.509   7.178
 5595SOL     OW17680   3.536   2.745   6.840
 5595SOL    HW117681   3.509   2.656   6.803
 5595SOL    HW217682   3.537   2.813   6.767
 5596SOL     OW17683   3.087   2.187   6.035
 5596SOL    HW117684   3.152   2.113   6.024
 5596SOL    HW217685   3.107   2.237   6.119
 5597SOL     OW17686   3.639   2.204   7.228
 5597SOL    HW117687   3.622   2.235   7.134
 5597SOL    HW217688   3.555   2.167   7.266
 5598SOL     OW17689   3.592   2.796   7.103
 5598SOL    HW117690   3.630   2.887   7.118
 5598SOL    HW217691   3.584   2.779   7.004
 5599SOL     OW17692   2.721   3.236   5.602
 5599SOL    HW117693   2.675   3.251   5.690
 5599SOL    HW217694   2.765   3.321   5.572
 5600SOL     OW17695   2.523   3.652   6.539
 5600SOL    HW117696   2.477   3.740   6.526
 5600SOL    HW217697   2.622   3.664   6.532
 5601SOL     OW17698   2.945   2.846   5.673
 5601SOL    HW117699   2.922   2.899   5.591
 5601SOL    HW217700   3.026   2.790   5.654
 5602SOL     OW17701   3.723   3.431   6.437
 5602SOL    HW117702   3.652   3.419   6.367
 5602SOL    HW217703   3.724   3.352   6.497
 5603SOL     OW17704   2.083   3.176   7.430
 5603SOL    HW117705   2.018   3.103   7.409
 5603SOL    HW217706   2.087   3.190   7.528
 5604SOL     OW17707   1.941   3.102   6.239
 5604SOL    HW117708   1.940   3.055   6.327
 5604SOL    HW217709   2.023   3.074   6.188
 5605SOL     OW17710   2.534   3.253   7.210
 5605SOL    HW117711   2.456   3.203   7.248
 5605SOL    HW217712   2.531   3.348   7.241
 5606SOL     OW17713   3.686   2.054   6.813
 5606SOL    HW117714   3.682   1.964   6.857
 5606SOL    HW217715   3.689   2.043   6.714
 5607SOL     OW17716   3.567   3.349   6.690
 5607SOL    HW117717   3.474   3.324   6.663
 5607SOL    HW217718   3.593   3.299   6.772
 5608SOL     OW17719   2.674   3.448   6.273
 5608SOL    HW117720   2.706   3.458   6.179
 5608SOL    HW217721   2.595   3.386   6.275
 5609SOL     OW17722   3.286   2.076   6.698
 5609SOL    HW117723   3.338   2.011   6.753
 5609SOL    HW217724   3.237   2.139   6.759
 5610SOL     OW17725   2.632   3.192   5.887
 5610SOL    HW117726   2.586   3.105   5.904
 5610SOL    HW217727   2.723   3.189   5.928
 5611SOL     OW17728   2.480   3.429   6.870
 5611SOL    HW117729   2.475   3.511   6.927
 5611SOL    HW217730   2.569   3.426   6.825
 5612SOL     OW17731   3.214   1.914   5.754
 5612SOL    HW117732   3.249   1.873   5.670
 5612SOL    HW217733   3.124   1.876   5.774
 5613SOL     OW17734   3.162   2.315   6.277
 5613SOL    HW117735   3.103   2.395   6.281
 5613SOL    HW217736   3.177   2.280   6.370
 5614SOL     OW17737   3.455   2.083   6.468
 5614SOL    HW117738   3.371   2.082   6.522
 5614SOL    HW217739   3.457   2.166   6.412
 5615SOL     OW17740   1.901   2.939   5.886
 5615SOL    HW117741   2.000   2.928   5.877
 5615SOL    HW217742   1.861   2.853   5.918
 5616SOL     OW17743   2.737   3.508   5.923
 5616SOL    HW117744   2.660   3.473   5.869
 5616SOL    HW217745   2.705   3.579   5.985
 5617SOL     OW17746   1.881   2.230   8.095
 5617SOL    HW117747   1.799   2.273   8.134
 5617SOL    HW217748   1.853   2.157   8.032
 5618SOL     OW17749   2.431   3.137   8.613
 5618SOL    HW117750   2.338   3.130   8.576
 5618SOL    HW217751   2.442   3.226   8.657
 5619SOL     OW17752   3.417   3.373   8.151
 5619SOL    HW117753   3.360   3.357   8.232
 5619SOL    HW217754   3.358   3.383   8.071
 5620SOL     OW17755   2.997   2.565   8.165
 5620SOL    HW117756   3.054   2.643   8.140
 5620SOL    HW217757   2.937   2.591   8.241
 5621SOL     OW17758   3.617   2.469   7.679
 5621SOL    HW117759   3.605   2.456   7.580
 5621SOL    HW217760   3.587   2.388   7.728
 5622SOL     OW17761   2.630   3.006   8.471
 5622SOL    HW117762   2.552   3.023   8.531
 5622SOL    HW217763   2.664   3.093   8.435
 5623SOL     OW17764   2.712   2.660   9.271
 5623SOL    HW117765   2.708   2.736   9.336
 5623SOL    HW217766   2.734   2.696   9.180
 5624SOL     OW17767   2.547   2.874   8.113
 5624SOL    HW117768   2.616   2.858   8.183
 5624SOL    HW217769   2.474   2.931   8.151
 5625SOL     OW17770   2.548   3.023   9.251
 5625SOL    HW117771   2.608   3.102   9.265
 5625SOL    HW217772   2.462   3.054   9.210
 5626SOL     OW17773   2.197   3.297   8.509
 5626SOL    HW117774   2.119   3.266   8.456
 5626SOL    HW217775   2.255   3.355   8.452
 5627SOL     OW17776   3.322   3.367   8.787
 5627SOL    HW117777   3.346   3.461   8.813
 5627SOL    HW217778   3.306   3.313   8.869
 5628SOL     OW17779   3.465   2.309   8.185
 5628SOL    HW117780   3.391   2.355   8.135
 5628SOL    HW217781   3.516   2.377   8.238
 5629SOL     OW17782   2.093   3.575   7.931
 5629SOL    HW117783   2.127   3.652   7.985
 5629SOL    HW217784   2.137   3.575   7.841
 5630SOL     OW17785   2.989   3.203   9.138
 5630SOL    HW117786   3.036   3.203   9.226
 5630SOL    HW217787   2.941   3.116   9.127
 5631SOL     OW17788   2.092   3.296   7.986
 5631SOL    HW117789   2.066   3.392   7.986
 5631SOL    HW217790   2.021   3.242   8.031
 5632SOL     OW17791   2.102   2.953   8.334
 5632SOL    HW117792   2.116   2.869   8.386
 5632SOL    HW217793   2.047   3.017   8.389
 5633SOL     OW17794   2.482   3.648   8.887
 5633SOL    HW117795   2.390   3.631   8.922
 5633SOL    HW217796   2.510   3.740   8.913
 5634SOL     OW17797   3.456   1.976   8.928
 5634SOL    HW117798   3.438   2.043   8.856
 5634SOL    HW217799   3.453   2.022   9.017
 5635SOL     OW17800   3.704   3.629   7.807
 5635SOL    HW117801   3.758   3.600   7.887
 5635SOL    HW217802   3.734   3.719   7.778
 5636SOL     OW17803   1.889   3.458   7.565
 5636SOL    HW117804   1.870   3.362   7.586
 5636SOL    HW217805   1.856   3.516   7.640
 5637SOL     OW17806   3.551   2.784   8.060
 5637SOL    HW117807   3.646   2.755   8.068
 5637SOL    HW217808   3.543   2.849   7.985
 5638SOL     OW17809   3.503   2.970   7.880
 5638SOL    HW117810   3.589   2.972   7.828
 5638SOL    HW217811   3.517   3.017   7.968
 5639SOL     OW17812   1.975   2.599   9.045
 5639SOL    HW117813   2.063   2.586   9.090
 5639SOL    HW217814   1.962   2.696   9.023
 5640SOL     OW17815   2.475   3.227   8.174
 5640SOL    HW117816   2.426   3.140   8.183
 5640SOL    HW217817   2.452   3.270   8.087
 5641SOL     OW17818   3.155   3.090   8.871
 5641SOL    HW117819   3.192   3.017   8.813
 5641SOL    HW217820   3.207   3.095   8.956
 5642SOL     OW17821   2.671   1.866   7.950
 5642SOL    HW117822   2.711   1.957   7.941
 5642SOL    HW217823   2.571   1.874   7.956
 5643SOL     OW17824   2.059   2.838   8.712
 5643SOL    HW117825   2.148   2.793   8.698
 5643SOL    HW217826   1.986   2.773   8.693
 5644SOL     OW17827   3.387   2.861   7.638
 5644SOL    HW117828   3.324   2.785   7.651
 5644SOL    HW217829   3.435   2.879   7.724
 5645SOL     OW17830   3.049   3.654   9.064
 5645SOL    HW117831   3.073   3.714   8.988
 5645SOL    HW217832   3.056   3.559   9.034
 5646SOL     OW17833   3.328   3.279   8.401
 5646SOL    HW117834   3.269   3.285   8.481
 5646SOL    HW217835   3.313   3.191   8.355
 5647SOL     OW17836   3.529   3.576   8.020
 5647SOL    HW117837   3.488   3.553   7.932
 5647SOL    HW217838   3.511   3.502   8.085
 5648SOL     OW17839   3.143   2.207   8.392
 5648SOL    HW117840   3.057   2.157   8.379
 5648SOL    HW217841   3.205   2.153   8.448
 5649SOL     OW17842   3.438   3.524   7.755
 5649SOL    HW117843   3.527   3.570   7.758
 5649SOL    HW217844   3.417   3.500   7.660
 5650SOL     OW17845   2.669   2.467   8.913
 5650SOL    HW117846   2.622   2.464   9.002
 5650SOL    HW217847   2.618   2.412   8.847
 5651SOL     OW17848   3.256   2.331   9.122
 5651SOL    HW117849   3.236   2.374   9.210
 5651SOL    HW217850   3.334   2.269   9.131
 5652SOL     OW17851   2.835   2.752   9.020
 5652SOL    HW117852   2.881   2.668   8.991
 5652SOL    HW217853   2.779   2.786   8.945
 5653SOL     OW17854   2.853   2.272   8.690
 5653SOL    HW117855   2.776   2.306   8.744
 5653SOL    HW217856   2.819   2.221   8.611
 5654SOL     OW17857   2.903   2.563   7.877
 5654SOL    HW117858   2.929   2.559   7.973
 5654SOL    HW217859   2.818   2.512   7.863
 5655SOL     OW17860   1.938   2.673   8.237
 5655SOL    HW117861   2.037   2.661   8.246
 5655SOL    HW217862   1.914   2.768   8.258
 5656SOL     OW17863   1.992   3.683   9.019
 5656SOL    HW117864   1.982   3.668   9.118
 5656SOL    HW217865   1.906   3.719   8.983
 5657SOL     OW17866   3.581   2.447   9.279
 5657SOL    HW117867   3.555   2.536   9.243
 5657SOL    HW217868   3.579   2.379   9.206
 5658SOL     OW17869   3.224   3.006   7.993
 5658SOL    HW117870   3.307   2.977   7.945
 5658SOL    HW217871   3.175   3.073   7.937
 5659SOL     OW17872   2.412   2.058   8.333
 5659SOL    HW117873   2.407   2.053   8.433
 5659SOL    HW217874   2.414   2.154   8.304
 5660SOL     OW17875   2.870   3.318   7.925
 5660SOL    HW117876   2.824   3.390   7.873
 5660SOL    HW217877   2.866   3.338   8.023
 5661SOL     OW17878   2.213   3.663   8.301
 5661SOL    HW117879   2.263   3.577   8.307
 5661SOL    HW217880   2.278   3.740   8.298
 5662SOL     OW17881   3.657   2.928   8.321
 5662SOL    HW117882   3.595   2.913   8.245
 5662SOL    HW217883   3.605   2.939   8.406
 5663SOL     OW17884   3.089   3.412   8.954
 5663SOL    HW117885   3.095   3.335   9.018
 5663SOL    HW217886   3.037   3.386   8.874
 5664SOL     OW17887   3.320   2.597   8.176
 5664SOL    HW117888   3.315   2.532   8.251
 5664SOL    HW217889   3.400   2.656   8.189
 5665SOL     OW17890   2.323   3.128   9.175
 5665SOL    HW117891   2.273   3.129   9.089
 5665SOL    HW217892   2.260   3.110   9.251
 5666SOL     OW17893   2.973   3.638   7.685
 5666SOL    HW117894   2.913   3.576   7.735
 5666SOL    HW217895   3.004   3.594   7.600
 5667SOL     OW17896   3.494   3.239   7.529
 5667SOL    HW117897   3.462   3.333   7.519
 5667SOL    HW217898   3.418   3.176   7.517
 5668SOL     OW17899   2.326   3.605   7.771
 5668SOL    HW117900   2.359   3.644   7.857
 5668SOL    HW217901   2.402   3.598   7.706
 5669SOL     OW17902   3.262   1.969   7.874
 5669SOL    HW117903   3.238   1.932   7.784
 5669SOL    HW217904   3.361   1.985   7.878
 5670SOL     OW17905   2.111   3.647   8.689
 5670SOL    HW117906   2.168   3.582   8.739
 5670SOL    HW217907   2.095   3.614   8.596
 5671SOL     OW17908   2.802   3.560   8.352
 5671SOL    HW117909   2.882   3.503   8.373
 5671SOL    HW217910   2.753   3.520   8.275
 5672SOL     OW17911   3.409   2.084   9.177
 5672SOL    HW117912   3.404   2.121   9.269
 5672SOL    HW217913   3.337   2.015   9.165
 5673SOL     OW17914   2.643   2.126   9.197
 5673SOL    HW117915   2.710   2.065   9.240
 5673SOL    HW217916   2.570   2.145   9.262
 5674SOL     OW17917   2.750   3.376   8.643
 5674SOL    HW117918   2.727   3.351   8.549
 5674SOL    HW217919   2.811   3.307   8.682
 5675SOL     OW17920   3.213   2.452   8.881
 5675SOL    HW117921   3.241   2.409   8.966
 5675SOL    HW217922   3.238   2.548   8.882
 5676SOL     OW17923   2.665   3.264   8.372
 5676SOL    HW117924   2.755   3.278   8.330
 5676SOL    HW217925   2.594   3.266   8.301
 5677SOL     OW17926   2.784   2.365   8.347
 5677SOL    HW117927   2.759   2.356   8.251
 5677SOL    HW217928   2.832   2.283   8.378
 5678SOL     OW17929   3.296   3.050   7.489
 5678SOL    HW117930   3.328   2.974   7.546
 5678SOL    HW217931   3.204   3.077   7.519
 5679SOL     OW17932   2.938   2.545   8.912
 5679SOL    HW117933   2.858   2.484   8.915
 5679SOL    HW217934   3.019   2.492   8.888
 5680SOL     OW17935   3.089   3.432   8.241
 5680SOL    HW117936   3.110   3.506   8.176
 5680SOL    HW217937   3.157   3.432   8.314
 5681SOL     OW17938   2.321   3.014   8.189
 5681SOL    HW117939   2.250   2.987   8.254
 5681SOL    HW217940   2.295   2.986   8.096
 5682SOL     OW17941   3.133   3.659   8.039
 5682SOL    HW117942   3.177   3.723   7.975
 5682SOL    HW217943   3.083   3.711   8.109
 5683SOL     OW17944   2.894   2.411   7.464
 5683SOL    HW117945   2.853   2.493   7.425
 5683SOL    HW217946   2.958   2.437   7.537
 5684SOL     OW17947   1.940   2.418   8.834
 5684SOL    HW117948   2.032   2.417   8.793
 5684SOL    HW217949   1.934   2.492   8.901
 5685SOL     OW17950   2.879   1.901   8.201
 5685SOL    HW117951   2.807   1.906   8.132
 5685SOL    HW217952   2.855   1.832   8.270
 5686SOL     OW17953   3.291   3.035   8.315
 5686SOL    HW117954   3.236   2.951   8.308
 5686SOL    HW217955   3.317   3.064   8.223
 5687SOL     OW17956   3.328   2.452   8.440
 5687SOL    HW117957   3.298   2.357   8.447
 5687SOL    HW217958   3.401   2.468   8.506
 5688SOL     OW17959   3.719   2.695   7.825
 5688SOL    HW117960   3.761   2.631   7.889
 5688SOL    HW217961   3.681   2.644   7.747
 5689SOL     OW17962   2.350   3.247   7.622
 5689SOL    HW117963   2.263   3.232   7.669
 5689SOL    HW217964   2.333   3.273   7.527
 5690SOL     OW17965   3.526   3.142   8.105
 5690SOL    HW117966   3.625   3.150   8.119
 5690SOL    HW217967   3.481   3.226   8.136
 5691SOL     OW17968   3.252   2.437   7.526
 5691SOL    HW117969   3.198   2.416   7.607
 5691SOL    HW217970   3.343   2.396   7.535
 5692SOL     OW17971   3.616   3.085   9.036
 5692SOL    HW117972   3.707   3.046   9.023
 5692SOL    HW217973   3.624   3.181   9.060
 5693SOL     OW17974   2.926   3.209   8.788
 5693SOL    HW117975   2.846   3.186   8.843
 5693SOL    HW217976   3.009   3.183   8.837
 5694SOL     OW17977   3.454   3.491   9.073
 5694SOL    HW117978   3.481   3.525   8.983
 5694SOL    HW217979   3.533   3.453   9.119
 5695SOL     OW17980   2.973   3.057   8.548
 5695SOL    HW117981   2.933   3.101   8.629
 5695SOL    HW217982   2.932   3.094   8.465
 5696SOL     OW17983   3.500   2.961   8.527
 5696SOL    HW117984   3.505   3.042   8.586
 5696SOL    HW217985   3.414   2.963   8.476
 5697SOL     OW17986   2.777   1.951   8.850
 5697SOL    HW117987   2.802   1.931   8.755
 5697SOL    HW217988   2.849   2.007   8.892
 5698SOL     OW17989   2.842   2.978   9.167
 5698SOL    HW117990   2.743   2.984   9.177
 5698SOL    HW217991   2.865   2.898   9.111
 5699SOL     OW17992   2.567   2.912   7.816
 5699SOL    HW117993   2.553   2.919   7.915
 5699SOL    HW217994   2.651   2.861   7.798
 5700SOL     OW17995   2.272   2.675   8.699
 5700SOL    HW117996   2.358   2.687   8.749
 5700SOL    HW217997   2.230   2.588   8.726
 5701SOL     OW17998   3.136   2.248   8.710
 5701SOL    HW117999   3.157   2.322   8.774
 5701SOL    HW218000   3.047   2.265   8.667
 5702SOL     OW18001   1.926   3.426   8.779
 5702SOL    HW118002   1.880   3.508   8.745
 5702SOL    HW218003   2.024   3.445   8.788
 5703SOL     OW18004   2.229   2.962   7.949
 5703SOL    HW118005   2.222   3.045   7.893
 5703SOL    HW218006   2.233   2.882   7.889
 5704SOL     OW18007   2.428   2.399   8.313
 5704SOL    HW118008   2.440   2.465   8.239
 5704SOL    HW218009   2.474   2.433   8.396
 5705SOL     OW18010   3.114   3.210   7.836
 5705SOL    HW118011   3.164   3.287   7.876
 5705SOL    HW218012   3.019   3.212   7.868
 5706SOL     OW18013   3.134   3.307   8.590
 5706SOL    HW118014   3.181   3.320   8.677
 5706SOL    HW218015   3.068   3.233   8.599
 5707SOL     OW18016   3.444   2.501   7.920
 5707SOL    HW118017   3.413   2.562   7.993
 5707SOL    HW218018   3.494   2.553   7.851
 5708SOL     OW18019   2.216   3.372   8.777
 5708SOL    HW118020   2.195   3.328   8.690
 5708SOL    HW218021   2.313   3.398   8.780
 5709SOL     OW18022   2.264   2.613   9.046
 5709SOL    HW118023   2.332   2.668   8.999
 5709SOL    HW218024   2.304   2.525   9.073
 5710SOL     OW18025   3.449   2.641   9.118
 5710SOL    HW118026   3.357   2.679   9.113
 5710SOL    HW218027   3.509   2.688   9.053
 5711SOL     OW18028   2.875   1.967   9.218
 5711SOL    HW118029   2.881   2.052   9.166
 5711SOL    HW218030   2.907   1.891   9.161
 5712SOL     OW18031   2.366   1.912   9.188
 5712SOL    HW118032   2.324   1.855   9.118
 5712SOL    HW218033   2.300   1.981   9.220
 5713SOL     OW18034   2.435   2.732   8.477
 5713SOL    HW118035   2.479   2.821   8.468
 5713SOL    HW218036   2.372   2.732   8.554
 5714SOL     OW18037   3.222   2.724   8.493
 5714SOL    HW118038   3.147   2.724   8.427
 5714SOL    HW218039   3.259   2.632   8.502
 5715SOL     OW18040   3.071   2.387   7.723
 5715SOL    HW118041   3.084   2.303   7.777
 5715SOL    HW218042   3.042   2.461   7.783
 5716SOL     OW18043   1.899   3.172   8.730
 5716SOL    HW118044   1.952   3.123   8.798
 5716SOL    HW218045   1.921   3.270   8.735
 5717SOL     OW18046   2.594   2.496   8.512
 5717SOL    HW118047   2.653   2.470   8.436
 5717SOL    HW218048   2.566   2.592   8.501
 5718SOL     OW18049   3.590   2.797   9.302
 5718SOL    HW118050   3.544   2.790   9.213
 5718SOL    HW218051   3.528   2.841   9.368
 5719SOL     OW18052   3.484   2.229   7.822
 5719SOL    HW118053   3.486   2.153   7.886
 5719SOL    HW218054   3.436   2.306   7.862
 5720SOL     OW18055   2.885   2.628   8.414
 5720SOL    HW118056   2.900   2.649   8.510
 5720SOL    HW218057   2.855   2.533   8.405
 5721SOL     OW18058   2.842   3.435   9.148
 5721SOL    HW118059   2.822   3.479   9.060
 5721SOL    HW218060   2.881   3.344   9.132
 5722SOL     OW18061   3.721   3.380   9.053
 5722SOL    HW118062   3.735   3.407   8.958
 5722SOL    HW218063   3.804   3.402   9.106
 5723SOL     OW18064   2.212   2.760   9.252
 5723SOL    HW118065   2.288   2.804   9.300
 5723SOL    HW218066   2.247   2.713   9.170
 5724SOL     OW18067   3.402   2.136   7.573
 5724SOL    HW118068   3.341   2.061   7.596
 5724SOL    HW218069   3.424   2.188   7.656
 5725SOL     OW18070   3.165   2.700   7.490
 5725SOL    HW118071   3.199   2.607   7.505
 5725SOL    HW218072   3.183   2.727   7.395
 5726SOL     OW18073   2.930   3.195   8.297
 5726SOL    HW118074   2.937   3.111   8.242
 5726SOL    HW218075   2.992   3.264   8.261
 5727SOL     OW18076   2.181   2.672   8.397
 5727SOL    HW118077   2.274   2.708   8.402
 5727SOL    HW218078   2.175   2.587   8.449
 5728SOL     OW18079   3.000   2.242   9.126
 5728SOL    HW118080   2.955   2.305   9.190
 5728SOL    HW218081   3.093   2.273   9.109
 5729SOL     OW18082   3.022   2.069   8.925
 5729SOL    HW118083   3.022   2.133   9.002
 5729SOL    HW218084   3.050   2.117   8.842
 5730SOL     OW18085   1.870   3.188   7.648
 5730SOL    HW118086   1.777   3.209   7.617
 5730SOL    HW218087   1.880   3.089   7.661
 5731SOL     OW18088   1.950   3.663   8.375
 5731SOL    HW118089   1.908   3.577   8.348
 5731SOL    HW218090   2.044   3.666   8.341
 5732SOL     OW18091   2.366   3.430   8.358
 5732SOL    HW118092   2.432   3.504   8.367
 5732SOL    HW218093   2.410   3.351   8.316
 5733SOL     OW18094   2.864   2.658   8.686
 5733SOL    HW118095   2.905   2.626   8.772
 5733SOL    HW218096   2.768   2.631   8.683
 5734SOL     OW18097   1.902   2.406   8.562
 5734SOL    HW118098   1.987   2.373   8.521
 5734SOL    HW218099   1.915   2.421   8.660
 5735SOL     OW18100   3.231   2.812   9.108
 5735SOL    HW118101   3.270   2.901   9.128
 5735SOL    HW218102   3.241   2.792   9.011
 5736SOL     OW18103   3.519   2.466   8.654
 5736SOL    HW118104   3.481   2.397   8.716
 5736SOL    HW218105   3.601   2.430   8.610
 5737SOL     OW18106   2.114   3.426   9.192
 5737SOL    HW118107   2.084   3.483   9.268
 5737SOL    HW218108   2.107   3.329   9.218
 5738SOL     OW18109   2.533   2.326   8.717
 5738SOL    HW118110   2.499   2.237   8.687
 5738SOL    HW218111   2.559   2.380   8.637
 5739SOL     OW18112   2.792   3.540   8.913
 5739SOL    HW118113   2.768   3.522   8.818
 5739SOL    HW218114   2.822   3.634   8.923
 5740SOL     OW18115   2.021   2.999   8.914
 5740SOL    HW118116   2.043   2.938   8.990
 5740SOL    HW218117   2.031   2.950   8.828
 5741SOL     OW18118   3.209   2.921   8.682
 5741SOL    HW118119   3.233   2.858   8.608
 5741SOL    HW218120   3.119   2.961   8.664
 5742SOL     OW18121   3.164   2.717   7.757
 5742SOL    HW118122   3.078   2.686   7.799
 5742SOL    HW218123   3.160   2.703   7.658
 5743SOL     OW18124   3.621   3.609   8.602
 5743SOL    HW118125   3.682   3.639   8.529
 5743SOL    HW218126   3.583   3.520   8.580
 5744SOL     OW18127   3.114   3.593   8.576
 5744SOL    HW118128   3.198   3.598   8.522
 5744SOL    HW218129   3.091   3.497   8.594
 5745SOL     OW18130   1.945   3.120   8.470
 5745SOL    HW118131   1.940   3.119   8.570
 5745SOL    HW218132   1.862   3.079   8.432
 5746SOL     OW18133   2.550   3.524   9.164
 5746SOL    HW118134   2.494   3.605   9.173
 5746SOL    HW218135   2.602   3.528   9.078
 5747SOL     OW18136   3.588   1.997   7.971
 5747SOL    HW118137   3.661   1.980   7.904
 5747SOL    HW218138   3.557   1.910   8.009
 5748SOL     OW18139   3.250   3.435   7.925
 5748SOL    HW118140   3.317   3.447   7.851
 5748SOL    HW218141   3.210   3.524   7.948
 5749SOL     OW18142   1.992   3.656   9.299
 5749SOL    HW118143   1.951   3.582   9.352
 5749SOL    HW218144   2.056   3.707   9.357
 5750SOL     OW18145   3.142   2.789   8.120
 5750SOL    HW118146   3.202   2.708   8.122
 5750SOL    HW218147   3.182   2.858   8.060
 5751SOL     OW18148   2.692   3.135   8.870
 5751SOL    HW118149   2.687   3.168   8.965
 5751SOL    HW218150   2.606   3.154   8.824
 5752SOL     OW18151   2.534   3.478   7.602
 5752SOL    HW118152   2.543   3.488   7.503
 5752SOL    HW218153   2.494   3.389   7.623
 5753SOL     OW18154   3.512   3.582   8.842
 5753SOL    HW118155   3.565   3.592   8.758
 5753SOL    HW218156   3.485   3.672   8.876
 5754SOL     OW18157   3.703   2.037   8.411
 5754SOL    HW118158   3.742   1.952   8.375
 5754SOL    HW218159   3.605   2.039   8.392
 5755SOL     OW18160   3.056   3.474   7.479
 5755SOL    HW118161   3.062   3.381   7.516
 5755SOL    HW218162   2.997   3.474   7.399
 5756SOL     OW18163   2.684   2.864   8.820
 5756SOL    HW118164   2.724   2.863   8.728
 5756SOL    HW218165   2.694   2.956   8.860
 5757SOL     OW18166   2.778   2.772   7.739
 5757SOL    HW118167   2.841   2.810   7.671
 5757SOL    HW218168   2.818   2.689   7.778
 5758SOL     OW18169   3.366   3.469   7.492
 5758SOL    HW118170   3.274   3.506   7.499
 5758SOL    HW218171   3.404   3.489   7.402
 5759SOL     OW18172   2.234   3.150   8.938
 5759SOL    HW118173   2.221   3.243   8.904
 5759SOL    HW218174   2.150   3.098   8.925
 5760SOL     OW18175   3.476   3.154   8.737
 5760SOL    HW118176   3.536   3.157   8.817
 5760SOL    HW218177   3.401   3.218   8.750
 5761SOL     OW18178   2.901   2.960   8.144
 5761SOL    HW118179   2.831   2.913   8.198
 5761SOL    HW218180   2.960   2.892   8.101
 5762SOL     OW18181   2.876   2.098   8.419
 5762SOL    HW118182   2.868   2.062   8.326
 5762SOL    HW218183   2.874   2.022   8.484
 5763SOL     OW18184   2.452   3.349   7.939
 5763SOL    HW118185   2.494   3.291   7.869
 5763SOL    HW218186   2.408   3.428   7.895
 5764SOL     OW18187   3.571   2.247   8.829
 5764SOL    HW118188   3.644   2.316   8.833
 5764SOL    HW218189   3.599   2.172   8.770
 5765SOL     OW18190   2.117   3.210   7.738
 5765SOL    HW118191   2.021   3.211   7.711
 5765SOL    HW218192   2.129   3.263   7.822
 5766SOL     OW18193   1.967   2.875   9.174
 5766SOL    HW118194   1.890   2.842   9.228
 5766SOL    HW218195   2.052   2.845   9.216
 5767SOL     OW18196   2.534   2.065   8.937
 5767SOL    HW118197   2.624   2.049   8.897
 5767SOL    HW218198   2.542   2.070   9.036
 5768SOL     OW18199   1.937   2.207   7.481
 5768SOL    HW118200   1.845   2.179   7.452
 5768SOL    HW218201   1.968   2.284   7.425
 5769SOL     OW18202   3.302   2.718   8.846
 5769SOL    HW118203   3.245   2.770   8.783
 5769SOL    HW218204   3.398   2.730   8.822
 5770SOL     OW18205   3.045   3.197   7.567
 5770SOL    HW118206   2.946   3.186   7.569
 5770SOL    HW218207   3.079   3.212   7.660
 5771SOL     OW18208   2.475   2.704   8.879
 5771SOL    HW118209   2.531   2.785   8.862
 5771SOL    HW218210   2.534   2.624   8.882
 5772SOL     OW18211   3.355   3.629   8.407
 5772SOL    HW118212   3.388   3.693   8.338
 5772SOL    HW218213   3.421   3.623   8.482
 5773SOL     OW18214   2.578   2.427   9.156
 5773SOL    HW118215   2.597   2.492   9.230
 5773SOL    HW218216   2.638   2.347   9.165
 5774SOL     OW18217   3.312   3.082   9.081
 5774SOL    HW118218   3.303   3.072   9.180
 5774SOL    HW218219   3.408   3.075   9.055
 5775SOL     OW18220   2.252   3.603   9.008
 5775SOL    HW118221   2.161   3.644   9.006
 5775SOL    HW218222   2.245   3.509   9.040
 5776SOL     OW18223   3.536   2.745   8.702
 5776SOL    HW118224   3.509   2.656   8.665
 5776SOL    HW218225   3.537   2.813   8.629
 5777SOL     OW18226   3.087   2.187   7.897
 5777SOL    HW118227   3.152   2.113   7.886
 5777SOL    HW218228   3.107   2.237   7.981
 5778SOL     OW18229   2.456   2.607   8.100
 5778SOL    HW118230   2.506   2.692   8.081
 5778SOL    HW218231   2.368   2.609   8.052
 5779SOL     OW18232   3.639   2.204   9.090
 5779SOL    HW118233   3.622   2.235   8.996
 5779SOL    HW218234   3.555   2.167   9.128
 5780SOL     OW18235   3.592   2.796   8.965
 5780SOL    HW118236   3.630   2.887   8.980
 5780SOL    HW218237   3.584   2.779   8.866
 5781SOL     OW18238   2.721   3.236   7.464
 5781SOL    HW118239   2.675   3.251   7.552
 5781SOL    HW218240   2.765   3.321   7.434
 5782SOL     OW18241   2.523   3.652   8.401
 5782SOL    HW118242   2.477   3.740   8.388
 5782SOL    HW218243   2.622   3.664   8.394
 5783SOL     OW18244   2.721   2.818   8.309
 5783SOL    HW118245   2.775   2.749   8.357
 5783SOL    HW218246   2.689   2.887   8.375
 5784SOL     OW18247   2.945   2.846   7.535
 5784SOL    HW118248   2.922   2.899   7.453
 5784SOL    HW218249   3.026   2.790   7.516
 5785SOL     OW18250   3.723   3.431   8.299
 5785SOL    HW118251   3.652   3.419   8.229
 5785SOL    HW218252   3.724   3.352   8.359
 5786SOL     OW18253   2.083   3.176   9.292
 5786SOL    HW118254   2.018   3.103   9.271
 5786SOL    HW218255   2.087   3.190   9.390
 5787SOL     OW18256   1.941   3.102   8.101
 5787SOL    HW118257   1.940   3.055   8.189
 5787SOL    HW218258   2.023   3.074   8.050
 5788SOL     OW18259   2.534   3.253   9.072
 5788SOL    HW118260   2.456   3.203   9.110
 5788SOL    HW218261   2.531   3.348   9.103
 5789SOL     OW18262   3.686   2.054   8.675
 5789SOL    HW118263   3.682   1.964   8.719
 5789SOL    HW218264   3.689   2.043   8.576
 5790SOL     OW18265   3.567   3.349   8.552
 5790SOL    HW118266   3.474   3.324   8.525
 5790SOL    HW218267   3.593   3.299   8.634
 5791SOL     OW18268   2.179   2.409   8.728
 5791SOL    HW118269   2.217   2.350   8.800
 5791SOL    HW218270   2.219   2.383   8.640
 5792SOL     OW18271   2.674   3.448   8.135
 5792SOL    HW118272   2.706   3.458   8.041
 5792SOL    HW218273   2.595   3.386   8.137
 5793SOL     OW18274   3.286   2.076   8.560
 5793SOL    HW118275   3.338   2.011   8.615
 5793SOL    HW218276   3.237   2.139   8.621
 5794SOL     OW18277   2.863   1.896   8.602
 5794SOL    HW118278   2.800   1.824   8.571
 5794SOL    HW218279   2.956   1.860   8.602
 5795SOL     OW18280   2.632   3.192   7.749
 5795SOL    HW118281   2.586   3.105   7.766
 5795SOL    HW218282   2.723   3.189   7.790
 5796SOL     OW18283   2.480   3.429   8.732
 5796SOL    HW118284   2.475   3.511   8.789
 5796SOL    HW218285   2.569   3.426   8.687
 5797SOL     OW18286   3.214   1.914   7.616
 5797SOL    HW118287   3.249   1.873   7.532
 5797SOL    HW218288   3.124   1.876   7.636
 5798SOL     OW18289   3.162   2.315   8.139
 5798SOL    HW118290   3.103   2.395   8.143
 5798SOL    HW218291   3.177   2.280   8.232
 5799SOL     OW18292   3.455   2.083   8.330
 5799SOL    HW118293   3.371   2.082   8.384
 5799SOL    HW218294   3.457   2.166   8.274
 5800SOL     OW18295   1.901   2.939   7.748
 5800SOL    HW118296   2.000   2.928   7.739
 5800SOL    HW218297   1.861   2.853   7.780
 5801SOL     OW18298   2.737   3.508   7.785
 5801SOL    HW118299   2.660   3.473   7.731
 5801SOL    HW218300   2.705   3.579   7.847
 5802SOL     OW18301   2.092   2.490   9.423
 5802SOL    HW118302   1.999   2.488   9.460
 5802SOL    HW218303   2.093   2.451   9.331
 5803SOL     OW18304   1.881   2.230   9.957
 5803SOL    HW118305   1.799   2.273   9.996
 5803SOL    HW218306   1.853   2.157   9.894
 5804SOL     OW18307   2.431   3.137  10.475
 5804SOL    HW118308   2.338   3.130  10.438
 5804SOL    HW218309   2.442   3.226  10.519
 5805SOL     OW18310   3.417   3.373  10.013
 5805SOL    HW118311   3.360   3.357  10.094
 5805SOL    HW218312   3.358   3.383   9.933
 5806SOL     OW18313   2.997   2.565  10.027
 5806SOL    HW118314   3.054   2.643  10.002
 5806SOL    HW218315   2.937   2.591  10.103
 5807SOL     OW18316   3.617   2.469   9.541
 5807SOL    HW118317   3.605   2.456   9.442
 5807SOL    HW218318   3.587   2.388   9.590
 5808SOL     OW18319   2.630   3.006  10.333
 5808SOL    HW118320   2.552   3.023  10.393
 5808SOL    HW218321   2.664   3.093  10.297
 5809SOL     OW18322   2.712   2.660  11.133
 5809SOL    HW118323   2.708   2.736  11.198
 5809SOL    HW218324   2.734   2.696  11.042
 5810SOL     OW18325   2.547   2.874   9.975
 5810SOL    HW118326   2.616   2.858  10.045
 5810SOL    HW218327   2.474   2.931  10.013
 5811SOL     OW18328   2.548   3.023  11.113
 5811SOL    HW118329   2.608   3.102  11.127
 5811SOL    HW218330   2.462   3.054  11.072
 5812SOL     OW18331   2.197   3.297  10.371
 5812SOL    HW118332   2.119   3.266  10.318
 5812SOL    HW218333   2.255   3.355  10.314
 5813SOL     OW18334   3.322   3.367  10.649
 5813SOL    HW118335   3.346   3.461  10.675
 5813SOL    HW218336   3.306   3.313  10.731
 5814SOL     OW18337   3.465   2.309  10.047
 5814SOL    HW118338   3.391   2.355   9.997
 5814SOL    HW218339   3.516   2.377  10.100
 5815SOL     OW18340   2.093   3.575   9.793
 5815SOL    HW118341   2.127   3.652   9.847
 5815SOL    HW218342   2.137   3.575   9.703
 5816SOL     OW18343   2.989   3.203  11.000
 5816SOL    HW118344   3.036   3.203  11.088
 5816SOL    HW218345   2.941   3.116  10.989
 5817SOL     OW18346   2.092   3.296   9.848
 5817SOL    HW118347   2.066   3.392   9.848
 5817SOL    HW218348   2.021   3.242   9.893
 5818SOL     OW18349   2.102   2.953  10.196
 5818SOL    HW118350   2.116   2.869  10.248
 5818SOL    HW218351   2.047   3.017  10.251
 5819SOL     OW18352   2.482   3.648  10.749
 5819SOL    HW118353   2.390   3.631  10.784
 5819SOL    HW218354   2.510   3.740  10.775
 5820SOL     OW18355   2.468   2.826   9.433
 5820SOL    HW118356   2.475   2.910   9.379
 5820SOL    HW218357   2.514   2.839   9.521
 5821SOL     OW18358   3.456   1.976  10.790
 5821SOL    HW118359   3.438   2.043  10.718
 5821SOL    HW218360   3.453   2.022  10.879
 5822SOL     OW18361   1.984   2.505   9.873
 5822SOL    HW118362   1.939   2.417   9.890
 5822SOL    HW218363   1.983   2.559   9.957
 5823SOL     OW18364   3.704   3.629   9.669
 5823SOL    HW118365   3.758   3.600   9.749
 5823SOL    HW218366   3.734   3.719   9.640
 5824SOL     OW18367   1.889   3.458   9.427
 5824SOL    HW118368   1.870   3.362   9.448
 5824SOL    HW218369   1.856   3.516   9.502
 5825SOL     OW18370   3.551   2.784   9.922
 5825SOL    HW118371   3.646   2.755   9.930
 5825SOL    HW218372   3.543   2.849   9.847
 5826SOL     OW18373   3.503   2.970   9.742
 5826SOL    HW118374   3.589   2.972   9.690
 5826SOL    HW218375   3.517   3.017   9.830
 5827SOL     OW18376   1.975   2.599  10.907
 5827SOL    HW118377   2.063   2.586  10.952
 5827SOL    HW218378   1.962   2.696  10.885
 5828SOL     OW18379   2.475   3.227  10.036
 5828SOL    HW118380   2.426   3.140  10.045
 5828SOL    HW218381   2.452   3.270   9.949
 5829SOL     OW18382   3.155   3.090  10.733
 5829SOL    HW118383   3.192   3.017  10.675
 5829SOL    HW218384   3.207   3.095  10.818
 5830SOL     OW18385   2.671   1.866   9.812
 5830SOL    HW118386   2.711   1.957   9.803
 5830SOL    HW218387   2.571   1.874   9.818
 5831SOL     OW18388   2.059   2.838  10.574
 5831SOL    HW118389   2.148   2.793  10.560
 5831SOL    HW218390   1.986   2.773  10.555
 5832SOL     OW18391   3.387   2.861   9.500
 5832SOL    HW118392   3.324   2.785   9.513
 5832SOL    HW218393   3.435   2.879   9.586
 5833SOL     OW18394   3.049   3.654  10.926
 5833SOL    HW118395   3.073   3.714  10.850
 5833SOL    HW218396   3.056   3.559  10.896
 5834SOL     OW18397   3.328   3.279  10.263
 5834SOL    HW118398   3.269   3.285  10.343
 5834SOL    HW218399   3.313   3.191  10.217
 5835SOL     OW18400   3.529   3.576   9.882
 5835SOL    HW118401   3.488   3.553   9.794
 5835SOL    HW218402   3.511   3.502   9.947
 5836SOL     OW18403   2.460   2.591   9.580
 5836SOL    HW118404   2.484   2.660   9.512
 5836SOL    HW218405   2.382   2.624   9.634
 5837SOL     OW18406   3.143   2.207  10.254
 5837SOL    HW118407   3.057   2.157  10.241
 5837SOL    HW218408   3.205   2.153  10.310
 5838SOL     OW18409   3.438   3.524   9.617
 5838SOL    HW118410   3.527   3.570   9.620
 5838SOL    HW218411   3.417   3.500   9.522
 5839SOL     OW18412   2.669   2.467  10.775
 5839SOL    HW118413   2.622   2.464  10.864
 5839SOL    HW218414   2.618   2.412  10.709
 5840SOL     OW18415   3.256   2.331  10.984
 5840SOL    HW118416   3.236   2.374  11.072
 5840SOL    HW218417   3.334   2.269  10.993
 5841SOL     OW18418   2.835   2.752  10.882
 5841SOL    HW118419   2.881   2.668  10.853
 5841SOL    HW218420   2.779   2.786  10.807
 5842SOL     OW18421   2.853   2.272  10.552
 5842SOL    HW118422   2.776   2.306  10.606
 5842SOL    HW218423   2.819   2.221  10.473
 5843SOL     OW18424   2.903   2.563   9.739
 5843SOL    HW118425   2.929   2.559   9.835
 5843SOL    HW218426   2.818   2.512   9.725
 5844SOL     OW18427   1.938   2.673  10.099
 5844SOL    HW118428   2.037   2.661  10.108
 5844SOL    HW218429   1.914   2.768  10.120
 5845SOL     OW18430   1.992   3.683  10.881
 5845SOL    HW118431   1.982   3.668  10.980
 5845SOL    HW218432   1.906   3.719  10.845
 5846SOL     OW18433   2.727   2.210   9.505
 5846SOL    HW118434   2.786   2.273   9.456
 5846SOL    HW218435   2.746   2.116   9.476
 5847SOL     OW18436   3.581   2.447  11.141
 5847SOL    HW118437   3.555   2.536  11.105
 5847SOL    HW218438   3.579   2.379  11.068
 5848SOL     OW18439   3.224   3.006   9.855
 5848SOL    HW118440   3.307   2.977   9.807
 5848SOL    HW218441   3.175   3.073   9.799
 5849SOL     OW18442   2.412   2.058  10.195
 5849SOL    HW118443   2.407   2.053  10.295
 5849SOL    HW218444   2.414   2.154  10.166
 5850SOL     OW18445   2.870   3.318   9.787
 5850SOL    HW118446   2.824   3.390   9.735
 5850SOL    HW218447   2.866   3.338   9.885
 5851SOL     OW18448   2.213   3.663  10.163
 5851SOL    HW118449   2.263   3.577  10.169
 5851SOL    HW218450   2.278   3.740  10.160
 5852SOL     OW18451   3.657   2.928  10.183
 5852SOL    HW118452   3.595   2.913  10.107
 5852SOL    HW218453   3.605   2.939  10.268
 5853SOL     OW18454   3.089   3.412  10.816
 5853SOL    HW118455   3.095   3.335  10.880
 5853SOL    HW218456   3.037   3.386  10.736
 5854SOL     OW18457   2.183   2.805   9.552
 5854SOL    HW118458   2.265   2.844   9.510
 5854SOL    HW218459   2.156   2.723   9.503
 5855SOL     OW18460   3.320   2.597  10.038
 5855SOL    HW118461   3.315   2.532  10.113
 5855SOL    HW218462   3.400   2.656  10.051
 5856SOL     OW18463   2.323   3.128  11.037
 5856SOL    HW118464   2.273   3.129  10.951
 5856SOL    HW218465   2.260   3.110  11.113
 5857SOL     OW18466   2.973   3.638   9.547
 5857SOL    HW118467   2.913   3.576   9.597
 5857SOL    HW218468   3.004   3.594   9.462
 5858SOL     OW18469   3.494   3.239   9.391
 5858SOL    HW118470   3.462   3.333   9.381
 5858SOL    HW218471   3.418   3.176   9.379
 5859SOL     OW18472   2.326   3.605   9.633
 5859SOL    HW118473   2.359   3.644   9.719
 5859SOL    HW218474   2.402   3.598   9.568
 5860SOL     OW18475   3.262   1.969   9.736
 5860SOL    HW118476   3.238   1.932   9.646
 5860SOL    HW218477   3.361   1.985   9.740
 5861SOL     OW18478   2.111   3.647  10.551
 5861SOL    HW118479   2.168   3.582  10.601
 5861SOL    HW218480   2.095   3.614  10.458
 5862SOL     OW18481   2.802   3.560  10.214
 5862SOL    HW118482   2.882   3.503  10.235
 5862SOL    HW218483   2.753   3.520  10.137
 5863SOL     OW18484   2.244   2.562   9.790
 5863SOL    HW118485   2.289   2.472   9.787
 5863SOL    HW218486   2.150   2.551   9.823
 5864SOL     OW18487   3.409   2.084  11.039
 5864SOL    HW118488   3.404   2.121  11.131
 5864SOL    HW218489   3.337   2.015  11.027
 5865SOL     OW18490   2.476   1.984   9.427
 5865SOL    HW118491   2.574   1.962   9.434
 5865SOL    HW218492   2.445   1.967   9.334
 5866SOL     OW18493   2.643   2.126  11.059
 5866SOL    HW118494   2.710   2.065  11.102
 5866SOL    HW218495   2.570   2.145  11.124
 5867SOL     OW18496   2.750   3.376  10.505
 5867SOL    HW118497   2.727   3.351  10.411
 5867SOL    HW218498   2.811   3.307  10.544
 5868SOL     OW18499   3.213   2.452  10.743
 5868SOL    HW118500   3.241   2.409  10.828
 5868SOL    HW218501   3.238   2.548  10.744
 5869SOL     OW18502   2.665   3.264  10.234
 5869SOL    HW118503   2.755   3.278  10.192
 5869SOL    HW218504   2.594   3.266  10.163
 5870SOL     OW18505   2.784   2.365  10.209
 5870SOL    HW118506   2.759   2.356  10.113
 5870SOL    HW218507   2.832   2.283  10.240
 5871SOL     OW18508   2.401   1.926   9.822
 5871SOL    HW118509   2.320   1.927   9.880
 5871SOL    HW218510   2.404   2.009   9.767
 5872SOL     OW18511   3.296   3.050   9.351
 5872SOL    HW118512   3.328   2.974   9.408
 5872SOL    HW218513   3.204   3.077   9.381
 5873SOL     OW18514   2.797   2.098   9.790
 5873SOL    HW118515   2.749   2.139   9.712
 5873SOL    HW218516   2.896   2.096   9.771
 5874SOL     OW18517   2.938   2.545  10.774
 5874SOL    HW118518   2.858   2.484  10.777
 5874SOL    HW218519   3.019   2.492  10.750
 5875SOL     OW18520   3.089   3.432  10.103
 5875SOL    HW118521   3.110   3.506  10.038
 5875SOL    HW218522   3.157   3.432  10.176
 5876SOL     OW18523   2.321   3.014  10.051
 5876SOL    HW118524   2.250   2.987  10.116
 5876SOL    HW218525   2.295   2.986   9.958
 5877SOL     OW18526   3.133   3.659   9.901
 5877SOL    HW118527   3.177   3.723   9.837
 5877SOL    HW218528   3.083   3.711   9.971
 5878SOL     OW18529   2.894   2.411   9.326
 5878SOL    HW118530   2.853   2.493   9.287
 5878SOL    HW218531   2.958   2.437   9.399
 5879SOL     OW18532   1.940   2.418  10.696
 5879SOL    HW118533   2.032   2.417  10.655
 5879SOL    HW218534   1.934   2.492  10.763
 5880SOL     OW18535   2.728   2.316   9.952
 5880SOL    HW118536   2.696   2.388   9.890
 5880SOL    HW218537   2.752   2.235   9.899
 5881SOL     OW18538   2.879   1.901  10.063
 5881SOL    HW118539   2.807   1.906   9.994
 5881SOL    HW218540   2.855   1.832  10.132
 5882SOL     OW18541   3.291   3.035  10.177
 5882SOL    HW118542   3.236   2.951  10.170
 5882SOL    HW218543   3.317   3.064  10.085
 5883SOL     OW18544   3.328   2.452  10.302
 5883SOL    HW118545   3.298   2.357  10.309
 5883SOL    HW218546   3.401   2.468  10.368
 5884SOL     OW18547   3.719   2.695   9.687
 5884SOL    HW118548   3.761   2.631   9.751
 5884SOL    HW218549   3.681   2.644   9.609
 5885SOL     OW18550   2.350   3.247   9.484
 5885SOL    HW118551   2.263   3.232   9.531
 5885SOL    HW218552   2.333   3.273   9.389
 5886SOL     OW18553   3.526   3.142   9.967
 5886SOL    HW118554   3.625   3.150   9.981
 5886SOL    HW218555   3.481   3.226   9.998
 5887SOL     OW18556   3.252   2.437   9.388
 5887SOL    HW118557   3.198   2.416   9.469
 5887SOL    HW218558   3.343   2.396   9.397
 5888SOL     OW18559   3.616   3.085  10.898
 5888SOL    HW118560   3.707   3.046  10.885
 5888SOL    HW218561   3.624   3.181  10.922
 5889SOL     OW18562   2.926   3.209  10.650
 5889SOL    HW118563   2.846   3.186  10.705
 5889SOL    HW218564   3.009   3.183  10.699
 5890SOL     OW18565   3.454   3.491  10.935
 5890SOL    HW118566   3.481   3.525  10.845
 5890SOL    HW218567   3.533   3.453  10.981
 5891SOL     OW18568   2.973   3.057  10.410
 5891SOL    HW118569   2.933   3.101  10.491
 5891SOL    HW218570   2.932   3.094  10.327
 5892SOL     OW18571   3.500   2.961  10.389
 5892SOL    HW118572   3.505   3.042  10.448
 5892SOL    HW218573   3.414   2.963  10.338
 5893SOL     OW18574   2.777   1.951  10.712
 5893SOL    HW118575   2.802   1.931  10.617
 5893SOL    HW218576   2.849   2.007  10.754
 5894SOL     OW18577   2.842   2.978  11.029
 5894SOL    HW118578   2.743   2.984  11.039
 5894SOL    HW218579   2.865   2.898  10.973
 5895SOL     OW18580   2.567   2.912   9.678
 5895SOL    HW118581   2.553   2.919   9.777
 5895SOL    HW218582   2.651   2.861   9.660
 5896SOL     OW18583   2.272   2.675  10.561
 5896SOL    HW118584   2.358   2.687  10.611
 5896SOL    HW218585   2.230   2.588  10.588
 5897SOL     OW18586   3.136   2.248  10.572
 5897SOL    HW118587   3.157   2.322  10.636
 5897SOL    HW218588   3.047   2.265  10.529
 5898SOL     OW18589   1.926   3.426  10.641
 5898SOL    HW118590   1.880   3.508  10.607
 5898SOL    HW218591   2.024   3.445  10.650
 5899SOL     OW18592   2.229   2.962   9.811
 5899SOL    HW118593   2.222   3.045   9.755
 5899SOL    HW218594   2.233   2.882   9.751
 5900SOL     OW18595   2.428   2.399  10.175
 5900SOL    HW118596   2.440   2.465  10.101
 5900SOL    HW218597   2.474   2.433  10.258
 5901SOL     OW18598   3.114   3.210   9.698
 5901SOL    HW118599   3.164   3.287   9.738
 5901SOL    HW218600   3.019   3.212   9.730
 5902SOL     OW18601   3.134   3.307  10.452
 5902SOL    HW118602   3.181   3.320  10.539
 5902SOL    HW218603   3.068   3.233  10.461
 5903SOL     OW18604   3.444   2.501   9.782
 5903SOL    HW118605   3.413   2.562   9.855
 5903SOL    HW218606   3.494   2.553   9.713
 5904SOL     OW18607   2.216   3.372  10.639
 5904SOL    HW118608   2.195   3.328  10.552
 5904SOL    HW218609   2.313   3.398  10.642
 5905SOL     OW18610   2.264   2.613  10.908
 5905SOL    HW118611   2.332   2.668  10.861
 5905SOL    HW218612   2.304   2.525  10.935
 5906SOL     OW18613   3.449   2.641  10.980
 5906SOL    HW118614   3.357   2.679  10.975
 5906SOL    HW218615   3.509   2.688  10.915
 5907SOL     OW18616   2.875   1.967  11.080
 5907SOL    HW118617   2.881   2.052  11.028
 5907SOL    HW218618   2.907   1.891  11.023
 5908SOL     OW18619   2.366   1.912  11.050
 5908SOL    HW118620   2.324   1.855  10.980
 5908SOL    HW218621   2.300   1.981  11.082
 5909SOL     OW18622   2.435   2.732  10.339
 5909SOL    HW118623   2.479   2.821  10.330
 5909SOL    HW218624   2.372   2.732  10.416
 5910SOL     OW18625   3.222   2.724  10.355
 5910SOL    HW118626   3.147   2.724  10.289
 5910SOL    HW218627   3.259   2.632  10.364
 5911SOL     OW18628   3.071   2.387   9.585
 5911SOL    HW118629   3.084   2.303   9.639
 5911SOL    HW218630   3.042   2.461   9.645
 5912SOL     OW18631   1.899   3.172  10.592
 5912SOL    HW118632   1.952   3.123  10.660
 5912SOL    HW218633   1.921   3.270  10.597
 5913SOL     OW18634   2.594   2.496  10.374
 5913SOL    HW118635   2.653   2.470  10.298
 5913SOL    HW218636   2.566   2.592  10.363
 5914SOL     OW18637   3.590   2.797  11.164
 5914SOL    HW118638   3.544   2.790  11.075
 5914SOL    HW218639   3.528   2.841  11.230
 5915SOL     OW18640   3.484   2.229   9.684
 5915SOL    HW118641   3.486   2.153   9.748
 5915SOL    HW218642   3.436   2.306   9.724
 5916SOL     OW18643   2.885   2.628  10.276
 5916SOL    HW118644   2.900   2.649  10.372
 5916SOL    HW218645   2.855   2.533  10.267
 5917SOL     OW18646   2.842   3.435  11.010
 5917SOL    HW118647   2.822   3.479  10.922
 5917SOL    HW218648   2.881   3.344  10.994
 5918SOL     OW18649   3.721   3.380  10.915
 5918SOL    HW118650   3.735   3.407  10.820
 5918SOL    HW218651   3.804   3.402  10.968
 5919SOL     OW18652   2.212   2.760  11.114
 5919SOL    HW118653   2.288   2.804  11.162
 5919SOL    HW218654   2.247   2.713  11.032
 5920SOL     OW18655   3.402   2.136   9.435
 5920SOL    HW118656   3.341   2.061   9.458
 5920SOL    HW218657   3.424   2.188   9.518
 5921SOL     OW18658   3.165   2.700   9.352
 5921SOL    HW118659   3.199   2.607   9.367
 5921SOL    HW218660   3.183   2.727   9.257
 5922SOL     OW18661   2.930   3.195  10.159
 5922SOL    HW118662   2.937   3.111  10.104
 5922SOL    HW218663   2.992   3.264  10.123
 5923SOL     OW18664   2.181   2.672  10.259
 5923SOL    HW118665   2.274   2.708  10.264
 5923SOL    HW218666   2.175   2.587  10.311
 5924SOL     OW18667   3.000   2.242  10.988
 5924SOL    HW118668   2.955   2.305  11.052
 5924SOL    HW218669   3.093   2.273  10.971
 5925SOL     OW18670   3.022   2.069  10.787
 5925SOL    HW118671   3.022   2.133  10.864
 5925SOL    HW218672   3.050   2.117  10.704
 5926SOL     OW18673   1.870   3.188   9.510
 5926SOL    HW118674   1.777   3.209   9.479
 5926SOL    HW218675   1.880   3.089   9.523
 5927SOL     OW18676   1.950   3.663  10.237
 5927SOL    HW118677   1.908   3.577  10.210
 5927SOL    HW218678   2.044   3.666  10.203
 5928SOL     OW18679   2.366   3.430  10.220
 5928SOL    HW118680   2.432   3.504  10.229
 5928SOL    HW218681   2.410   3.351  10.178
 5929SOL     OW18682   2.864   2.658  10.548
 5929SOL    HW118683   2.905   2.626  10.634
 5929SOL    HW218684   2.768   2.631  10.545
 5930SOL     OW18685   1.902   2.406  10.424
 5930SOL    HW118686   1.987   2.373  10.383
 5930SOL    HW218687   1.915   2.421  10.522
 5931SOL     OW18688   3.231   2.812  10.970
 5931SOL    HW118689   3.270   2.901  10.990
 5931SOL    HW218690   3.241   2.792  10.873
 5932SOL     OW18691   2.677   2.434   9.635
 5932SOL    HW118692   2.684   2.345   9.589
 5932SOL    HW218693   2.583   2.468   9.627
 5933SOL     OW18694   3.519   2.466  10.516
 5933SOL    HW118695   3.481   2.397  10.578
 5933SOL    HW218696   3.601   2.430  10.472
 5934SOL     OW18697   2.114   3.426  11.054
 5934SOL    HW118698   2.084   3.483  11.130
 5934SOL    HW218699   2.107   3.329  11.080
 5935SOL     OW18700   2.533   2.326  10.579
 5935SOL    HW118701   2.499   2.237  10.549
 5935SOL    HW218702   2.559   2.380  10.499
 5936SOL     OW18703   2.792   3.540  10.775
 5936SOL    HW118704   2.768   3.522  10.680
 5936SOL    HW218705   2.822   3.634  10.785
 5937SOL     OW18706   2.335   2.362   9.501
 5937SOL    HW118707   2.396   2.442   9.505
 5937SOL    HW218708   2.240   2.393   9.508
 5938SOL     OW18709   2.021   2.999  10.776
 5938SOL    HW118710   2.043   2.938  10.852
 5938SOL    HW218711   2.031   2.950  10.690
 5939SOL     OW18712   3.209   2.921  10.544
 5939SOL    HW118713   3.233   2.858  10.470
 5939SOL    HW218714   3.119   2.961  10.526
 5940SOL     OW18715   3.164   2.717   9.619
 5940SOL    HW118716   3.078   2.686   9.661
 5940SOL    HW218717   3.160   2.703   9.520
 5941SOL     OW18718   3.621   3.609  10.464
 5941SOL    HW118719   3.682   3.639  10.391
 5941SOL    HW218720   3.583   3.520  10.442
 5942SOL     OW18721   3.114   3.593  10.438
 5942SOL    HW118722   3.198   3.598  10.384
 5942SOL    HW218723   3.091   3.497  10.456
 5943SOL     OW18724   1.945   3.120  10.332
 5943SOL    HW118725   1.940   3.119  10.432
 5943SOL    HW218726   1.862   3.079  10.294
 5944SOL     OW18727   2.550   3.524  11.026
 5944SOL    HW118728   2.494   3.605  11.035
 5944SOL    HW218729   2.602   3.528  10.940
 5945SOL     OW18730   3.588   1.997   9.833
 5945SOL    HW118731   3.661   1.980   9.766
 5945SOL    HW218732   3.557   1.910   9.871
 5946SOL     OW18733   3.250   3.435   9.787
 5946SOL    HW118734   3.317   3.447   9.713
 5946SOL    HW218735   3.210   3.524   9.810
 5947SOL     OW18736   1.992   3.656  11.161
 5947SOL    HW118737   1.951   3.582  11.214
 5947SOL    HW218738   2.056   3.707  11.219
 5948SOL     OW18739   3.142   2.789   9.982
 5948SOL    HW118740   3.202   2.708   9.984
 5948SOL    HW218741   3.182   2.858   9.922
 5949SOL     OW18742   2.692   3.135  10.732
 5949SOL    HW118743   2.687   3.168  10.827
 5949SOL    HW218744   2.606   3.154  10.686
 5950SOL     OW18745   2.534   3.478   9.464
 5950SOL    HW118746   2.543   3.488   9.365
 5950SOL    HW218747   2.494   3.389   9.485
 5951SOL     OW18748   3.512   3.582  10.704
 5951SOL    HW118749   3.565   3.592  10.620
 5951SOL    HW218750   3.485   3.672  10.738
 5952SOL     OW18751   3.703   2.037  10.273
 5952SOL    HW118752   3.742   1.952  10.237
 5952SOL    HW218753   3.605   2.039  10.254
 5953SOL     OW18754   3.056   3.474   9.341
 5953SOL    HW118755   3.062   3.381   9.378
 5953SOL    HW218756   2.997   3.474   9.261
 5954SOL     OW18757   2.684   2.864  10.682
 5954SOL    HW118758   2.724   2.863  10.590
 5954SOL    HW218759   2.694   2.956  10.722
 5955SOL     OW18760   2.778   2.772   9.601
 5955SOL    HW118761   2.841   2.810   9.533
 5955SOL    HW218762   2.818   2.689   9.640
 5956SOL     OW18763   3.366   3.469   9.354
 5956SOL    HW118764   3.274   3.506   9.361
 5956SOL    HW218765   3.404   3.489   9.264
 5957SOL     OW18766   2.234   3.150  10.800
 5957SOL    HW118767   2.221   3.243  10.766
 5957SOL    HW218768   2.150   3.098  10.787
 5958SOL     OW18769   3.476   3.154  10.599
 5958SOL    HW118770   3.536   3.157  10.679
 5958SOL    HW218771   3.401   3.218  10.612
 5959SOL     OW18772   2.901   2.960  10.006
 5959SOL    HW118773   2.831   2.913  10.060
 5959SOL    HW218774   2.960   2.892   9.963
 5960SOL     OW18775   2.876   2.098  10.281
 5960SOL    HW118776   2.868   2.062  10.188
 5960SOL    HW218777   2.874   2.022  10.346
 5961SOL     OW18778   2.452   3.349   9.801
 5961SOL    HW118779   2.494   3.291   9.731
 5961SOL    HW218780   2.408   3.428   9.757
 5962SOL     OW18781   3.571   2.247  10.691
 5962SOL    HW118782   3.644   2.316  10.695
 5962SOL    HW218783   3.599   2.172  10.632
 5963SOL     OW18784   2.117   3.210   9.600
 5963SOL    HW118785   2.021   3.211   9.573
 5963SOL    HW218786   2.129   3.263   9.684
 5964SOL     OW18787   1.967   2.875  11.036
 5964SOL    HW118788   1.890   2.842  11.090
 5964SOL    HW218789   2.052   2.845  11.078
 5965SOL     OW18790   2.534   2.065  10.799
 5965SOL    HW118791   2.624   2.049  10.759
 5965SOL    HW218792   2.542   2.070  10.898
 5966SOL     OW18793   1.937   2.207   9.343
 5966SOL    HW118794   1.845   2.179   9.314
 5966SOL    HW218795   1.968   2.284   9.287
 5967SOL     OW18796   3.302   2.718  10.708
 5967SOL    HW118797   3.245   2.770  10.645
 5967SOL    HW218798   3.398   2.730  10.684
 5968SOL     OW18799   3.045   3.197   9.429
 5968SOL    HW118800   2.946   3.186   9.431
 5968SOL    HW218801   3.079   3.212   9.522
 5969SOL     OW18802   2.475   2.704  10.741
 5969SOL    HW118803   2.531   2.785  10.724
 5969SOL    HW218804   2.534   2.624  10.744
 5970SOL     OW18805   3.355   3.629  10.269
 5970SOL    HW118806   3.388   3.693  10.200
 5970SOL    HW218807   3.421   3.623  10.344
 5971SOL     OW18808   2.578   2.427  11.018
 5971SOL    HW118809   2.597   2.492  11.092
 5971SOL    HW218810   2.638   2.347  11.027
 5972SOL     OW18811   3.312   3.082  10.943
 5972SOL    HW118812   3.303   3.072  11.042
 5972SOL    HW218813   3.408   3.075  10.917
 5973SOL     OW18814   2.252   3.603  10.870
 5973SOL    HW118815   2.161   3.644  10.868
 5973SOL    HW218816   2.245   3.509  10.902
 5974SOL     OW18817   3.536   2.745  10.564
 5974SOL    HW118818   3.509   2.656  10.527
 5974SOL    HW218819   3.537   2.813  10.491
 5975SOL     OW18820   3.087   2.187   9.759
 5975SOL    HW118821   3.152   2.113   9.748
 5975SOL    HW218822   3.107   2.237   9.843
 5976SOL     OW18823   2.456   2.607   9.962
 5976SOL    HW118824   2.506   2.692   9.943
 5976SOL    HW218825   2.368   2.609   9.914
 5977SOL     OW18826   3.639   2.204  10.952
 5977SOL    HW118827   3.622   2.235  10.858
 5977SOL    HW218828   3.555   2.167  10.990
 5978SOL     OW18829   3.592   2.796  10.827
 5978SOL    HW118830   3.630   2.887  10.842
 5978SOL    HW218831   3.584   2.779  10.728
 5979SOL     OW18832   2.721   3.236   9.326
 5979SOL    HW118833   2.675   3.251   9.414
 5979SOL    HW218834   2.765   3.321   9.296
 5980SOL     OW18835   2.523   3.652  10.263
 5980SOL    HW118836   2.477   3.740  10.250
 5980SOL    HW218837   2.622   3.664  10.256
 5981SOL     OW18838   2.721   2.818  10.171
 5981SOL    HW118839   2.775   2.749  10.219
 5981SOL    HW218840   2.689   2.887  10.237
 5982SOL     OW18841   2.945   2.846   9.397
 5982SOL    HW118842   2.922   2.899   9.315
 5982SOL    HW218843   3.026   2.790   9.378
 5983SOL     OW18844   3.723   3.431  10.161
 5983SOL    HW118845   3.652   3.419  10.091
 5983SOL    HW218846   3.724   3.352  10.221
 5984SOL     OW18847   2.083   3.176  11.154
 5984SOL    HW118848   2.018   3.103  11.133
 5984SOL    HW218849   2.087   3.190  11.252
 5985SOL     OW18850   1.941   3.102   9.963
 5985SOL    HW118851   1.940   3.055  10.051
 5985SOL    HW218852   2.023   3.074   9.912
 5986SOL     OW18853   2.534   3.253  10.934
 5986SOL    HW118854   2.456   3.203  10.972
 5986SOL    HW218855   2.531   3.348  10.965
 5987SOL     OW18856   3.686   2.054  10.537
 5987SOL    HW118857   3.682   1.964  10.581
 5987SOL    HW218858   3.689   2.043  10.438
 5988SOL     OW18859   3.567   3.349  10.414
 5988SOL    HW118860   3.474   3.324  10.387
 5988SOL    HW218861   3.593   3.299  10.496
 5989SOL     OW18862   2.179   2.409  10.590
 5989SOL    HW118863   2.217   2.350  10.662
 5989SOL    HW218864   2.219   2.383  10.502
 5990SOL     OW18865   2.674   3.448   9.997
 5990SOL    HW118866   2.706   3.458   9.903
 5990SOL    HW218867   2.595   3.386   9.999
 5991SOL     OW18868   3.286   2.076  10.422
 5991SOL    HW118869   3.338   2.011  10.477
 5991SOL    HW218870   3.237   2.139  10.483
 5992SOL     OW18871   2.863   1.896  10.464
 5992SOL    HW118872   2.800   1.824  10.433
 5992SOL    HW218873   2.956   1.860  10.464
 5993SOL     OW18874   2.632   3.192   9.611
 5993SOL    HW118875   2.586   3.105   9.628
 5993SOL    HW218876   2.723   3.189   9.652
 5994SOL     OW18877   2.480   3.429  10.594
 5994SOL    HW118878   2.475   3.511  10.651
 5994SOL    HW218879   2.569   3.426  10.549
 5995SOL     OW18880   3.214   1.914   9.478
 5995SOL    HW118881   3.249   1.873   9.394
 5995SOL    HW218882   3.124   1.876   9.498
 5996SOL     OW18883   3.162   2.315  10.001
 5996SOL    HW118884   3.103   2.395  10.005
 5996SOL    HW218885   3.177   2.280  10.094
 5997SOL     OW18886   3.455   2.083  10.192
 5997SOL    HW118887   3.371   2.082  10.246
 5997SOL    HW218888   3.457   2.166  10.136
 5998SOL     OW18889   1.901   2.939   9.610
 5998SOL    HW118890   2.000   2.928   9.601
 5998SOL    HW218891   1.861   2.853   9.642
 5999SOL     OW18892   2.737   3.508   9.647
 5999SOL    HW118893   2.660   3.473   9.593
 5999SOL    HW218894   2.705   3.579   9.709
 6000SOL     OW18895   2.092   2.490  11.285
 6000SOL    HW118896   1.999   2.488  11.322
 6000SOL    HW218897   2.093   2.451  11.193
 6001SOL     OW18898   1.881   2.230  11.819
 6001SOL    HW118899   1.799   2.273  11.858
 6001SOL    HW218900   1.853   2.157  11.756
 6002SOL     OW18901   2.431   3.137  12.337
 6002SOL    HW118902   2.338   3.130  12.300
 6002SOL    HW218903   2.442   3.226  12.381
 6003SOL     OW18904   3.417   3.373  11.875
 6003SOL    HW118905   3.360   3.357  11.956
 6003SOL    HW218906   3.358   3.383  11.795
 6004SOL     OW18907   2.997   2.565  11.889
 6004SOL    HW118908   3.054   2.643  11.864
 6004SOL    HW218909   2.937   2.591  11.965
 6005SOL     OW18910   3.617   2.469  11.403
 6005SOL    HW118911   3.605   2.456  11.304
 6005SOL    HW218912   3.587   2.388  11.452
 6006SOL     OW18913   2.630   3.006  12.195
 6006SOL    HW118914   2.552   3.023  12.255
 6006SOL    HW218915   2.664   3.093  12.159
 6007SOL     OW18916   2.712   2.660  12.995
 6007SOL    HW118917   2.708   2.736  13.060
 6007SOL    HW218918   2.734   2.696  12.904
 6008SOL     OW18919   2.547   2.874  11.837
 6008SOL    HW118920   2.616   2.858  11.907
 6008SOL    HW218921   2.474   2.931  11.875
 6009SOL     OW18922   2.548   3.023  12.975
 6009SOL    HW118923   2.608   3.102  12.989
 6009SOL    HW218924   2.462   3.054  12.934
 6010SOL     OW18925   2.197   3.297  12.233
 6010SOL    HW118926   2.119   3.266  12.180
 6010SOL    HW218927   2.255   3.355  12.176
 6011SOL     OW18928   3.322   3.367  12.511
 6011SOL    HW118929   3.346   3.461  12.537
 6011SOL    HW218930   3.306   3.313  12.593
 6012SOL     OW18931   3.465   2.309  11.909
 6012SOL    HW118932   3.391   2.355  11.859
 6012SOL    HW218933   3.516   2.377  11.962
 6013SOL     OW18934   2.093   3.575  11.655
 6013SOL    HW118935   2.127   3.652  11.709
 6013SOL    HW218936   2.137   3.575  11.565
 6014SOL     OW18937   2.989   3.203  12.862
 6014SOL    HW118938   3.036   3.203  12.950
 6014SOL    HW218939   2.941   3.116  12.851
 6015SOL     OW18940   2.092   3.296  11.710
 6015SOL    HW118941   2.066   3.392  11.710
 6015SOL    HW218942   2.021   3.242  11.755
 6016SOL     OW18943   2.102   2.953  12.058
 6016SOL    HW118944   2.116   2.869  12.110
 6016SOL    HW218945   2.047   3.017  12.113
 6017SOL     OW18946   2.482   3.648  12.611
 6017SOL    HW118947   2.390   3.631  12.646
 6017SOL    HW218948   2.510   3.740  12.637
 6018SOL     OW18949   2.468   2.826  11.295
 6018SOL    HW118950   2.475   2.910  11.241
 6018SOL    HW218951   2.514   2.839  11.383
 6019SOL     OW18952   3.456   1.976  12.652
 6019SOL    HW118953   3.438   2.043  12.580
 6019SOL    HW218954   3.453   2.022  12.741
 6020SOL     OW18955   1.984   2.505  11.735
 6020SOL    HW118956   1.939   2.417  11.752
 6020SOL    HW218957   1.983   2.559  11.819
 6021SOL     OW18958   3.704   3.629  11.531
 6021SOL    HW118959   3.758   3.600  11.611
 6021SOL    HW218960   3.734   3.719  11.502
 6022SOL     OW18961   1.889   3.458  11.289
 6022SOL    HW118962   1.870   3.362  11.310
 6022SOL    HW218963   1.856   3.516  11.364
 6023SOL     OW18964   3.551   2.784  11.784
 6023SOL    HW118965   3.646   2.755  11.792
 6023SOL    HW218966   3.543   2.849  11.709
 6024SOL     OW18967   3.503   2.970  11.604
 6024SOL    HW118968   3.589   2.972  11.552
 6024SOL    HW218969   3.517   3.017  11.692
 6025SOL     OW18970   1.975   2.599  12.769
 6025SOL    HW118971   2.063   2.586  12.814
 6025SOL    HW218972   1.962   2.696  12.747
 6026SOL     OW18973   2.475   3.227  11.898
 6026SOL    HW118974   2.426   3.140  11.907
 6026SOL    HW218975   2.452   3.270  11.811
 6027SOL     OW18976   3.155   3.090  12.595
 6027SOL    HW118977   3.192   3.017  12.537
 6027SOL    HW218978   3.207   3.095  12.680
 6028SOL     OW18979   2.671   1.866  11.674
 6028SOL    HW118980   2.711   1.957  11.665
 6028SOL    HW218981   2.571   1.874  11.680
 6029SOL     OW18982   2.059   2.838  12.436
 6029SOL    HW118983   2.148   2.793  12.422
 6029SOL    HW218984   1.986   2.773  12.417
 6030SOL     OW18985   3.387   2.861  11.362
 6030SOL    HW118986   3.324   2.785  11.375
 6030SOL    HW218987   3.435   2.879  11.448
 6031SOL     OW18988   3.049   3.654  12.788
 6031SOL    HW118989   3.073   3.714  12.712
 6031SOL    HW218990   3.056   3.559  12.758
 6032SOL     OW18991   3.328   3.279  12.125
 6032SOL    HW118992   3.269   3.285  12.205
 6032SOL    HW218993   3.313   3.191  12.079
 6033SOL     OW18994   3.529   3.576  11.744
 6033SOL    HW118995   3.488   3.553  11.656
 6033SOL    HW218996   3.511   3.502  11.809
 6034SOL     OW18997   2.460   2.591  11.442
 6034SOL    HW118998   2.484   2.660  11.374
 6034SOL    HW218999   2.382   2.624  11.496
 6035SOL     OW19000   3.143   2.207  12.116
 6035SOL    HW119001   3.057   2.157  12.103
 6035SOL    HW219002   3.205   2.153  12.172
 6036SOL     OW19003   3.438   3.524  11.479
 6036SOL    HW119004   3.527   3.570  11.482
 6036SOL    HW219005   3.417   3.500  11.384
 6037SOL     OW19006   2.669   2.467  12.637
 6037SOL    HW119007   2.622   2.464  12.726
 6037SOL    HW219008   2.618   2.412  12.571
 6038SOL     OW19009   3.256   2.331  12.846
 6038SOL    HW119010   3.236   2.374  12.934
 6038SOL    HW219011   3.334   2.269  12.855
 6039SOL     OW19012   2.835   2.752  12.744
 6039SOL    HW119013   2.881   2.668  12.715
 6039SOL    HW219014   2.779   2.786  12.669
 6040SOL     OW19015   2.853   2.272  12.414
 6040SOL    HW119016   2.776   2.306  12.468
 6040SOL    HW219017   2.819   2.221  12.335
 6041SOL     OW19018   2.903   2.563  11.601
 6041SOL    HW119019   2.929   2.559  11.697
 6041SOL    HW219020   2.818   2.512  11.587
 6042SOL     OW19021   1.938   2.673  11.961
 6042SOL    HW119022   2.037   2.661  11.970
 6042SOL    HW219023   1.914   2.768  11.982
 6043SOL     OW19024   1.992   3.683  12.743
 6043SOL    HW119025   1.982   3.668  12.842
 6043SOL    HW219026   1.906   3.719  12.707
 6044SOL     OW19027   2.727   2.210  11.367
 6044SOL    HW119028   2.786   2.273  11.318
 6044SOL    HW219029   2.746   2.116  11.338
 6045SOL     OW19030   3.581   2.447  13.003
 6045SOL    HW119031   3.555   2.536  12.967
 6045SOL    HW219032   3.579   2.379  12.930
 6046SOL     OW19033   3.224   3.006  11.717
 6046SOL    HW119034   3.307   2.977  11.669
 6046SOL    HW219035   3.175   3.073  11.661
 6047SOL     OW19036   2.412   2.058  12.057
 6047SOL    HW119037   2.407   2.053  12.157
 6047SOL    HW219038   2.414   2.154  12.028
 6048SOL     OW19039   2.870   3.318  11.649
 6048SOL    HW119040   2.824   3.390  11.597
 6048SOL    HW219041   2.866   3.338  11.747
 6049SOL     OW19042   2.213   3.663  12.025
 6049SOL    HW119043   2.263   3.577  12.031
 6049SOL    HW219044   2.278   3.740  12.022
 6050SOL     OW19045   3.657   2.928  12.045
 6050SOL    HW119046   3.595   2.913  11.969
 6050SOL    HW219047   3.605   2.939  12.130
 6051SOL     OW19048   3.089   3.412  12.678
 6051SOL    HW119049   3.095   3.335  12.742
 6051SOL    HW219050   3.037   3.386  12.598
 6052SOL     OW19051   2.183   2.805  11.414
 6052SOL    HW119052   2.265   2.844  11.372
 6052SOL    HW219053   2.156   2.723  11.365
 6053SOL     OW19054   3.320   2.597  11.900
 6053SOL    HW119055   3.315   2.532  11.975
 6053SOL    HW219056   3.400   2.656  11.913
 6054SOL     OW19057   2.323   3.128  12.899
 6054SOL    HW119058   2.273   3.129  12.813
 6054SOL    HW219059   2.260   3.110  12.975
 6055SOL     OW19060   2.973   3.638  11.409
 6055SOL    HW119061   2.913   3.576  11.459
 6055SOL    HW219062   3.004   3.594  11.324
 6056SOL     OW19063   3.494   3.239  11.253
 6056SOL    HW119064   3.462   3.333  11.243
 6056SOL    HW219065   3.418   3.176  11.241
 6057SOL     OW19066   2.326   3.605  11.495
 6057SOL    HW119067   2.359   3.644  11.581
 6057SOL    HW219068   2.402   3.598  11.430
 6058SOL     OW19069   3.262   1.969  11.598
 6058SOL    HW119070   3.238   1.932  11.508
 6058SOL    HW219071   3.361   1.985  11.602
 6059SOL     OW19072   2.111   3.647  12.413
 6059SOL    HW119073   2.168   3.582  12.463
 6059SOL    HW219074   2.095   3.614  12.320
 6060SOL     OW19075   2.802   3.560  12.076
 6060SOL    HW119076   2.882   3.503  12.097
 6060SOL    HW219077   2.753   3.520  11.999
 6061SOL     OW19078   2.244   2.562  11.652
 6061SOL    HW119079   2.289   2.472  11.649
 6061SOL    HW219080   2.150   2.551  11.685
 6062SOL     OW19081   3.409   2.084  12.901
 6062SOL    HW119082   3.404   2.121  12.993
 6062SOL    HW219083   3.337   2.015  12.889
 6063SOL     OW19084   2.476   1.984  11.289
 6063SOL    HW119085   2.574   1.962  11.296
 6063SOL    HW219086   2.445   1.967  11.196
 6064SOL     OW19087   2.643   2.126  12.921
 6064SOL    HW119088   2.710   2.065  12.964
 6064SOL    HW219089   2.570   2.145  12.986
 6065SOL     OW19090   2.750   3.376  12.367
 6065SOL    HW119091   2.727   3.351  12.273
 6065SOL    HW219092   2.811   3.307  12.406
 6066SOL     OW19093   3.213   2.452  12.605
 6066SOL    HW119094   3.241   2.409  12.690
 6066SOL    HW219095   3.238   2.548  12.606
 6067SOL     OW19096   2.665   3.264  12.096
 6067SOL    HW119097   2.755   3.278  12.054
 6067SOL    HW219098   2.594   3.266  12.025
 6068SOL     OW19099   2.784   2.365  12.071
 6068SOL    HW119100   2.759   2.356  11.975
 6068SOL    HW219101   2.832   2.283  12.102
 6069SOL     OW19102   2.401   1.926  11.684
 6069SOL    HW119103   2.320   1.927  11.742
 6069SOL    HW219104   2.404   2.009  11.629
 6070SOL     OW19105   3.296   3.050  11.213
 6070SOL    HW119106   3.328   2.974  11.270
 6070SOL    HW219107   3.204   3.077  11.243
 6071SOL     OW19108   2.797   2.098  11.652
 6071SOL    HW119109   2.749   2.139  11.574
 6071SOL    HW219110   2.896   2.096  11.633
 6072SOL     OW19111   2.938   2.545  12.636
 6072SOL    HW119112   2.858   2.484  12.639
 6072SOL    HW219113   3.019   2.492  12.612
 6073SOL     OW19114   3.089   3.432  11.965
 6073SOL    HW119115   3.110   3.506  11.900
 6073SOL    HW219116   3.157   3.432  12.038
 6074SOL     OW19117   2.321   3.014  11.913
 6074SOL    HW119118   2.250   2.987  11.978
 6074SOL    HW219119   2.295   2.986  11.820
 6075SOL     OW19120   3.133   3.659  11.763
 6075SOL    HW119121   3.177   3.723  11.699
 6075SOL    HW219122   3.083   3.711  11.833
 6076SOL     OW19123   2.894   2.411  11.188
 6076SOL    HW119124   2.853   2.493  11.149
 6076SOL    HW219125   2.958   2.437  11.261
 6077SOL     OW19126   1.940   2.418  12.558
 6077SOL    HW119127   2.032   2.417  12.517
 6077SOL    HW219128   1.934   2.492  12.625
 6078SOL     OW19129   2.728   2.316  11.814
 6078SOL    HW119130   2.696   2.388  11.752
 6078SOL    HW219131   2.752   2.235  11.761
 6079SOL     OW19132   2.879   1.901  11.925
 6079SOL    HW119133   2.807   1.906  11.856
 6079SOL    HW219134   2.855   1.832  11.994
 6080SOL     OW19135   3.291   3.035  12.039
 6080SOL    HW119136   3.236   2.951  12.032
 6080SOL    HW219137   3.317   3.064  11.947
 6081SOL     OW19138   3.328   2.452  12.164
 6081SOL    HW119139   3.298   2.357  12.171
 6081SOL    HW219140   3.401   2.468  12.230
 6082SOL     OW19141   3.719   2.695  11.549
 6082SOL    HW119142   3.761   2.631  11.613
 6082SOL    HW219143   3.681   2.644  11.471
 6083SOL     OW19144   2.350   3.247  11.346
 6083SOL    HW119145   2.263   3.232  11.393
 6083SOL    HW219146   2.333   3.273  11.251
 6084SOL     OW19147   3.526   3.142  11.829
 6084SOL    HW119148   3.625   3.150  11.843
 6084SOL    HW219149   3.481   3.226  11.860
 6085SOL     OW19150   3.252   2.437  11.250
 6085SOL    HW119151   3.198   2.416  11.331
 6085SOL    HW219152   3.343   2.396  11.259
 6086SOL     OW19153   3.616   3.085  12.760
 6086SOL    HW119154   3.707   3.046  12.747
 6086SOL    HW219155   3.624   3.181  12.784
 6087SOL     OW19156   2.926   3.209  12.512
 6087SOL    HW119157   2.846   3.186  12.567
 6087SOL    HW219158   3.009   3.183  12.561
 6088SOL     OW19159   3.454   3.491  12.797
 6088SOL    HW119160   3.481   3.525  12.707
 6088SOL    HW219161   3.533   3.453  12.843
 6089SOL     OW19162   2.973   3.057  12.272
 6089SOL    HW119163   2.933   3.101  12.353
 6089SOL    HW219164   2.932   3.094  12.189
 6090SOL     OW19165   3.500   2.961  12.251
 6090SOL    HW119166   3.505   3.042  12.310
 6090SOL    HW219167   3.414   2.963  12.200
 6091SOL     OW19168   2.777   1.951  12.574
 6091SOL    HW119169   2.802   1.931  12.479
 6091SOL    HW219170   2.849   2.007  12.616
 6092SOL     OW19171   2.842   2.978  12.891
 6092SOL    HW119172   2.743   2.984  12.901
 6092SOL    HW219173   2.865   2.898  12.835
 6093SOL     OW19174   2.567   2.912  11.540
 6093SOL    HW119175   2.553   2.919  11.639
 6093SOL    HW219176   2.651   2.861  11.522
 6094SOL     OW19177   2.272   2.675  12.423
 6094SOL    HW119178   2.358   2.687  12.473
 6094SOL    HW219179   2.230   2.588  12.450
 6095SOL     OW19180   3.136   2.248  12.434
 6095SOL    HW119181   3.157   2.322  12.498
 6095SOL    HW219182   3.047   2.265  12.391
 6096SOL     OW19183   1.926   3.426  12.503
 6096SOL    HW119184   1.880   3.508  12.469
 6096SOL    HW219185   2.024   3.445  12.512
 6097SOL     OW19186   2.229   2.962  11.673
 6097SOL    HW119187   2.222   3.045  11.617
 6097SOL    HW219188   2.233   2.882  11.613
 6098SOL     OW19189   2.428   2.399  12.037
 6098SOL    HW119190   2.440   2.465  11.963
 6098SOL    HW219191   2.474   2.433  12.120
 6099SOL     OW19192   3.114   3.210  11.560
 6099SOL    HW119193   3.164   3.287  11.600
 6099SOL    HW219194   3.019   3.212  11.592
 6100SOL     OW19195   3.134   3.307  12.314
 6100SOL    HW119196   3.181   3.320  12.401
 6100SOL    HW219197   3.068   3.233  12.323
 6101SOL     OW19198   3.444   2.501  11.644
 6101SOL    HW119199   3.413   2.562  11.717
 6101SOL    HW219200   3.494   2.553  11.575
 6102SOL     OW19201   2.216   3.372  12.501
 6102SOL    HW119202   2.195   3.328  12.414
 6102SOL    HW219203   2.313   3.398  12.504
 6103SOL     OW19204   2.264   2.613  12.770
 6103SOL    HW119205   2.332   2.668  12.723
 6103SOL    HW219206   2.304   2.525  12.797
 6104SOL     OW19207   3.449   2.641  12.842
 6104SOL    HW119208   3.357   2.679  12.837
 6104SOL    HW219209   3.509   2.688  12.777
 6105SOL     OW19210   2.875   1.967  12.942
 6105SOL    HW119211   2.881   2.052  12.890
 6105SOL    HW219212   2.907   1.891  12.885
 6106SOL     OW19213   2.366   1.912  12.912
 6106SOL    HW119214   2.324   1.855  12.842
 6106SOL    HW219215   2.300   1.981  12.944
 6107SOL     OW19216   2.435   2.732  12.201
 6107SOL    HW119217   2.479   2.821  12.192
 6107SOL    HW219218   2.372   2.732  12.278
 6108SOL     OW19219   3.222   2.724  12.217
 6108SOL    HW119220   3.147   2.724  12.151
 6108SOL    HW219221   3.259   2.632  12.226
 6109SOL     OW19222   3.071   2.387  11.447
 6109SOL    HW119223   3.084   2.303  11.501
 6109SOL    HW219224   3.042   2.461  11.507
 6110SOL     OW19225   1.899   3.172  12.454
 6110SOL    HW119226   1.952   3.123  12.522
 6110SOL    HW219227   1.921   3.270  12.459
 6111SOL     OW19228   2.594   2.496  12.236
 6111SOL    HW119229   2.653   2.470  12.160
 6111SOL    HW219230   2.566   2.592  12.225
 6112SOL     OW19231   3.590   2.797  13.026
 6112SOL    HW119232   3.544   2.790  12.937
 6112SOL    HW219233   3.528   2.841  13.092
 6113SOL     OW19234   3.484   2.229  11.546
 6113SOL    HW119235   3.486   2.153  11.610
 6113SOL    HW219236   3.436   2.306  11.586
 6114SOL     OW19237   2.885   2.628  12.138
 6114SOL    HW119238   2.900   2.649  12.234
 6114SOL    HW219239   2.855   2.533  12.129
 6115SOL     OW19240   2.842   3.435  12.872
 6115SOL    HW119241   2.822   3.479  12.784
 6115SOL    HW219242   2.881   3.344  12.856
 6116SOL     OW19243   3.721   3.380  12.777
 6116SOL    HW119244   3.735   3.407  12.682
 6116SOL    HW219245   3.804   3.402  12.830
 6117SOL     OW19246   2.212   2.760  12.976
 6117SOL    HW119247   2.288   2.804  13.024
 6117SOL    HW219248   2.247   2.713  12.894
 6118SOL     OW19249   3.402   2.136  11.297
 6118SOL    HW119250   3.341   2.061  11.320
 6118SOL    HW219251   3.424   2.188  11.380
 6119SOL     OW19252   3.165   2.700  11.214
 6119SOL    HW119253   3.199   2.607  11.229
 6119SOL    HW219254   3.183   2.727  11.119
 6120SOL     OW19255   2.930   3.195  12.021
 6120SOL    HW119256   2.937   3.111  11.966
 6120SOL    HW219257   2.992   3.264  11.985
 6121SOL     OW19258   2.181   2.672  12.121
 6121SOL    HW119259   2.274   2.708  12.126
 6121SOL    HW219260   2.175   2.587  12.173
 6122SOL     OW19261   3.000   2.242  12.850
 6122SOL    HW119262   2.955   2.305  12.914
 6122SOL    HW219263   3.093   2.273  12.833
 6123SOL     OW19264   3.022   2.069  12.649
 6123SOL    HW119265   3.022   2.133  12.726
 6123SOL    HW219266   3.050   2.117  12.566
 6124SOL     OW19267   1.870   3.188  11.372
 6124SOL    HW119268   1.777   3.209  11.341
 6124SOL    HW219269   1.880   3.089  11.385
 6125SOL     OW19270   1.950   3.663  12.099
 6125SOL    HW119271   1.908   3.577  12.072
 6125SOL    HW219272   2.044   3.666  12.065
 6126SOL     OW19273   2.366   3.430  12.082
 6126SOL    HW119274   2.432   3.504  12.091
 6126SOL    HW219275   2.410   3.351  12.040
 6127SOL     OW19276   2.864   2.658  12.410
 6127SOL    HW119277   2.905   2.626  12.496
 6127SOL    HW219278   2.768   2.631  12.407
 6128SOL     OW19279   1.902   2.406  12.286
 6128SOL    HW119280   1.987   2.373  12.245
 6128SOL    HW219281   1.915   2.421  12.384
 6129SOL     OW19282   3.231   2.812  12.832
 6129SOL    HW119283   3.270   2.901  12.852
 6129SOL    HW219284   3.241   2.792  12.735
 6130SOL     OW19285   2.677   2.434  11.497
 6130SOL    HW119286   2.684   2.345  11.451
 6130SOL    HW219287   2.583   2.468  11.489
 6131SOL     OW19288   3.519   2.466  12.378
 6131SOL    HW119289   3.481   2.397  12.440
 6131SOL    HW219290   3.601   2.430  12.334
 6132SOL     OW19291   2.114   3.426  12.916
 6132SOL    HW119292   2.084   3.483  12.992
 6132SOL    HW219293   2.107   3.329  12.942
 6133SOL     OW19294   2.533   2.326  12.441
 6133SOL    HW119295   2.499   2.237  12.411
 6133SOL    HW219296   2.559   2.380  12.361
 6134SOL     OW19297   2.792   3.540  12.637
 6134SOL    HW119298   2.768   3.522  12.542
 6134SOL    HW219299   2.822   3.634  12.647
 6135SOL     OW19300   2.335   2.362  11.363
 6135SOL    HW119301   2.396   2.442  11.367
 6135SOL    HW219302   2.240   2.393  11.370
 6136SOL     OW19303   2.021   2.999  12.638
 6136SOL    HW119304   2.043   2.938  12.714
 6136SOL    HW219305   2.031   2.950  12.552
 6137SOL     OW19306   3.209   2.921  12.406
 6137SOL    HW119307   3.233   2.858  12.332
 6137SOL    HW219308   3.119   2.961  12.388
 6138SOL     OW19309   3.164   2.717  11.481
 6138SOL    HW119310   3.078   2.686  11.523
 6138SOL    HW219311   3.160   2.703  11.382
 6139SOL     OW19312   3.621   3.609  12.326
 6139SOL    HW119313   3.682   3.639  12.253
 6139SOL    HW219314   3.583   3.520  12.304
 6140SOL     OW19315   3.114   3.593  12.300
 6140SOL    HW119316   3.198   3.598  12.246
 6140SOL    HW219317   3.091   3.497  12.318
 6141SOL     OW19318   1.945   3.120  12.194
 6141SOL    HW119319   1.940   3.119  12.294
 6141SOL    HW219320   1.862   3.079  12.156
 6142SOL     OW19321   2.550   3.524  12.888
 6142SOL    HW119322   2.494   3.605  12.897
 6142SOL    HW219323   2.602   3.528  12.802
 6143SOL     OW19324   3.588   1.997  11.695
 6143SOL    HW119325   3.661   1.980  11.628
 6143SOL    HW219326   3.557   1.910  11.733
 6144SOL     OW19327   3.250   3.435  11.649
 6144SOL    HW119328   3.317   3.447  11.575
 6144SOL    HW219329   3.210   3.524  11.672
 6145SOL     OW19330   1.992   3.656  13.023
 6145SOL    HW119331   1.951   3.582  13.076
 6145SOL    HW219332   2.056   3.707  13.081
 6146SOL     OW19333   3.142   2.789  11.844
 6146SOL    HW119334   3.202   2.708  11.846
 6146SOL    HW219335   3.182   2.858  11.784
 6147SOL     OW19336   2.692   3.135  12.594
 6147SOL    HW119337   2.687   3.168  12.689
 6147SOL    HW219338   2.606   3.154  12.548
 6148SOL     OW19339   2.534   3.478  11.326
 6148SOL    HW119340   2.543   3.488  11.227
 6148SOL    HW219341   2.494   3.389  11.347
 6149SOL     OW19342   3.512   3.582  12.566
 6149SOL    HW119343   3.565   3.592  12.482
 6149SOL    HW219344   3.485   3.672  12.600
 6150SOL     OW19345   3.703   2.037  12.135
 6150SOL    HW119346   3.742   1.952  12.099
 6150SOL    HW219347   3.605   2.039  12.116
 6151SOL     OW19348   3.056   3.474  11.203
 6151SOL    HW119349   3.062   3.381  11.240
 6151SOL    HW219350   2.997   3.474  11.123
 6152SOL     OW19351   2.684   2.864  12.544
 6152SOL    HW119352   2.724   2.863  12.452
 6152SOL    HW219353   2.694   2.956  12.584
 6153SOL     OW19354   2.778   2.772  11.463
 6153SOL    HW119355   2.841   2.810  11.395
 6153SOL    HW219356   2.818   2.689  11.502
 6154SOL     OW19357   3.366   3.469  11.216
 6154SOL    HW119358   3.274   3.506  11.223
 6154SOL    HW219359   3.404   3.489  11.126
 6155SOL     OW19360   2.234   3.150  12.662
 6155SOL    HW119361   2.221   3.243  12.628
 6155SOL    HW219362   2.150   3.098  12.649
 6156SOL     OW19363   3.476   3.154  12.461
 6156SOL    HW119364   3.536   3.157  12.541
 6156SOL    HW219365   3.401   3.218  12.474
 6157SOL     OW19366   2.901   2.960  11.868
 6157SOL    HW119367   2.831   2.913  11.922
 6157SOL    HW219368   2.960   2.892  11.825
 6158SOL     OW19369   2.876   2.098  12.143
 6158SOL    HW119370   2.868   2.062  12.050
 6158SOL    HW219371   2.874   2.022  12.208
 6159SOL     OW19372   2.452   3.349  11.663
 6159SOL    HW119373   2.494   3.291  11.593
 6159SOL    HW219374   2.408   3.428  11.619
 6160SOL     OW19375   3.571   2.247  12.553
 6160SOL    HW119376   3.644   2.316  12.557
 6160SOL    HW219377   3.599   2.172  12.494
 6161SOL     OW19378   2.117   3.210  11.462
 6161SOL    HW119379   2.021   3.211  11.435
 6161SOL    HW219380   2.129   3.263  11.546
 6162SOL     OW19381   1.967   2.875  12.898
 6162SOL    HW119382   1.890   2.842  12.952
 6162SOL    HW219383   2.052   2.845  12.940
 6163SOL     OW19384   2.534   2.065  12.661
 6163SOL    HW119385   2.624   2.049  12.621
 6163SOL    HW219386   2.542   2.070  12.760
 6164SOL     OW19387   1.937   2.207  11.205
 6164SOL    HW119388   1.845   2.179  11.176
 6164SOL    HW219389   1.968   2.284  11.149
 6165SOL     OW19390   3.302   2.718  12.570
 6165SOL    HW119391   3.245   2.770  12.507
 6165SOL    HW219392   3.398   2.730  12.546
 6166SOL     OW19393   3.045   3.197  11.291
 6166SOL    HW119394   2.946   3.186  11.293
 6166SOL    HW219395   3.079   3.212  11.384
 6167SOL     OW19396   2.475   2.704  12.603
 6167SOL    HW119397   2.531   2.785  12.586
 6167SOL    HW219398   2.534   2.624  12.606
 6168SOL     OW19399   3.355   3.629  12.131
 6168SOL    HW119400   3.388   3.693  12.062
 6168SOL    HW219401   3.421   3.623  12.206
 6169SOL     OW19402   2.578   2.427  12.880
 6169SOL    HW119403   2.597   2.492  12.954
 6169SOL    HW219404   2.638   2.347  12.889
 6170SOL     OW19405   3.312   3.082  12.805
 6170SOL    HW119406   3.303   3.072  12.904
 6170SOL    HW219407   3.408   3.075  12.779
 6171SOL     OW19408   2.252   3.603  12.732
 6171SOL    HW119409   2.161   3.644  12.730
 6171SOL    HW219410   2.245   3.509  12.764
 6172SOL     OW19411   3.536   2.745  12.426
 6172SOL    HW119412   3.509   2.656  12.389
 6172SOL    HW219413   3.537   2.813  12.353
 6173SOL     OW19414   3.087   2.187  11.621
 6173SOL    HW119415   3.152   2.113  11.610
 6173SOL    HW219416   3.107   2.237  11.705
 6174SOL     OW19417   2.456   2.607  11.824
 6174SOL    HW119418   2.506   2.692  11.805
 6174SOL    HW219419   2.368   2.609  11.776
 6175SOL     OW19420   3.639   2.204  12.814
 6175SOL    HW119421   3.622   2.235  12.720
 6175SOL    HW219422   3.555   2.167  12.852
 6176SOL     OW19423   3.592   2.796  12.689
 6176SOL    HW119424   3.630   2.887  12.704
 6176SOL    HW219425   3.584   2.779  12.590
 6177SOL     OW19426   2.721   3.236  11.188
 6177SOL    HW119427   2.675   3.251  11.276
 6177SOL    HW219428   2.765   3.321  11.158
 6178SOL     OW19429   2.523   3.652  12.125
 6178SOL    HW119430   2.477   3.740  12.112
 6178SOL    HW219431   2.622   3.664  12.118
 6179SOL     OW19432   2.721   2.818  12.033
 6179SOL    HW119433   2.775   2.749  12.081
 6179SOL    HW219434   2.689   2.887  12.099
 6180SOL     OW19435   2.945   2.846  11.259
 6180SOL    HW119436   2.922   2.899  11.177
 6180SOL    HW219437   3.026   2.790  11.240
 6181SOL     OW19438   3.723   3.431  12.023
 6181SOL    HW119439   3.652   3.419  11.953
 6181SOL    HW219440   3.724   3.352  12.083
 6182SOL     OW19441   2.083   3.176  13.016
 6182SOL    HW119442   2.018   3.103  12.995
 6182SOL    HW219443   2.087   3.190  13.114
 6183SOL     OW19444   1.941   3.102  11.825
 6183SOL    HW119445   1.940   3.055  11.913
 6183SOL    HW219446   2.023   3.074  11.774
 6184SOL     OW19447   2.534   3.253  12.796
 6184SOL    HW119448   2.456   3.203  12.834
 6184SOL    HW219449   2.531   3.348  12.827
 6185SOL     OW19450   3.686   2.054  12.399
 6185SOL    HW119451   3.682   1.964  12.443
 6185SOL    HW219452   3.689   2.043  12.300
 6186SOL     OW19453   3.567   3.349  12.276
 6186SOL    HW119454   3.474   3.324  12.249
 6186SOL    HW219455   3.593   3.299  12.358
 6187SOL     OW19456   2.179   2.409  12.452
 6187SOL    HW119457   2.217   2.350  12.524
 6187SOL    HW219458   2.219   2.383  12.364
 6188SOL     OW19459   2.674   3.448  11.859
 6188SOL    HW119460   2.706   3.458  11.765
 6188SOL    HW219461   2.595   3.386  11.861
 6189SOL     OW19462   3.286   2.076  12.284
 6189SOL    HW119463   3.338   2.011  12.339
 6189SOL    HW219464   3.237   2.139  12.345
 6190SOL     OW19465   2.863   1.896  12.326
 6190SOL    HW119466   2.800   1.824  12.295
 6190SOL    HW219467   2.956   1.860  12.326
 6191SOL     OW19468   2.632   3.192  11.473
 6191SOL    HW119469   2.586   3.105  11.490
 6191SOL    HW219470   2.723   3.189  11.514
 6192SOL     OW19471   2.480   3.429  12.456
 6192SOL    HW119472   2.475   3.511  12.513
 6192SOL    HW219473   2.569   3.426  12.411
 6193SOL     OW19474   3.214   1.914  11.340
 6193SOL    HW119475   3.249   1.873  11.256
 6193SOL    HW219476   3.124   1.876  11.360
 6194SOL     OW19477   3.162   2.315  11.863
 6194SOL    HW119478   3.103   2.395  11.867
 6194SOL    HW219479   3.177   2.280  11.956
 6195SOL     OW19480   3.455   2.083  12.054
 6195SOL    HW119481   3.371   2.082  12.108
 6195SOL    HW219482   3.457   2.166  11.998
 6196SOL     OW19483   1.901   2.939  11.472
 6196SOL    HW119484   2.000   2.928  11.463
 6196SOL    HW219485   1.861   2.853  11.504
 6197SOL     OW19486   2.737   3.508  11.509
 6197SOL    HW119487   2.660   3.473  11.455
 6197SOL    HW219488   2.705   3.579  11.571
 6198SOL     OW19489   2.092   2.490  13.147
 6198SOL    HW119490   1.999   2.488  13.184
 6198SOL    HW219491   2.093   2.451  13.055
 6199SOL     OW19492   1.881   2.230  13.681
 6199SOL    HW119493   1.799   2.273  13.720
 6199SOL    HW219494   1.853   2.157  13.618
 6200SOL     OW19495   3.417   3.373  13.737
 6200SOL    HW119496   3.360   3.357  13.818
 6200SOL    HW219497   3.358   3.383  13.657
 6201SOL     OW19498   2.997   2.565  13.751
 6201SOL    HW119499   3.054   2.643  13.726
 6201SOL    HW219500   2.937   2.591  13.827
 6202SOL     OW19501   3.617   2.469  13.265
 6202SOL    HW119502   3.605   2.456  13.166
 6202SOL    HW219503   3.587   2.388  13.314
 6203SOL     OW19504   2.547   2.874  13.699
 6203SOL    HW119505   2.616   2.858  13.769
 6203SOL    HW219506   2.474   2.931  13.737
 6204SOL     OW19507   3.465   2.309  13.771
 6204SOL    HW119508   3.391   2.355  13.721
 6204SOL    HW219509   3.516   2.377  13.824
 6205SOL     OW19510   2.093   3.575  13.517
 6205SOL    HW119511   2.127   3.652  13.571
 6205SOL    HW219512   2.137   3.575  13.427
 6206SOL     OW19513   2.092   3.296  13.572
 6206SOL    HW119514   2.066   3.392  13.572
 6206SOL    HW219515   2.021   3.242  13.617
 6207SOL     OW19516   2.102   2.953  13.920
 6207SOL    HW119517   2.116   2.869  13.972
 6207SOL    HW219518   2.047   3.017  13.975
 6208SOL     OW19519   2.468   2.826  13.157
 6208SOL    HW119520   2.475   2.910  13.103
 6208SOL    HW219521   2.514   2.839  13.245
 6209SOL     OW19522   1.984   2.505  13.597
 6209SOL    HW119523   1.939   2.417  13.614
 6209SOL    HW219524   1.983   2.559  13.681
 6210SOL     OW19525   3.704   3.629  13.393
 6210SOL    HW119526   3.758   3.600  13.473
 6210SOL    HW219527   3.734   3.719  13.364
 6211SOL     OW19528   1.889   3.458  13.151
 6211SOL    HW119529   1.870   3.362  13.172
 6211SOL    HW219530   1.856   3.516  13.226
 6212SOL     OW19531   3.551   2.784  13.646
 6212SOL    HW119532   3.646   2.755  13.654
 6212SOL    HW219533   3.543   2.849  13.571
 6213SOL     OW19534   3.503   2.970  13.466
 6213SOL    HW119535   3.589   2.972  13.414
 6213SOL    HW219536   3.517   3.017  13.554
 6214SOL     OW19537   2.475   3.227  13.760
 6214SOL    HW119538   2.426   3.140  13.769
 6214SOL    HW219539   2.452   3.270  13.673
 6215SOL     OW19540   2.671   1.866  13.536
 6215SOL    HW119541   2.711   1.957  13.527
 6215SOL    HW219542   2.571   1.874  13.542
 6216SOL     OW19543   3.387   2.861  13.224
 6216SOL    HW119544   3.324   2.785  13.237
 6216SOL    HW219545   3.435   2.879  13.310
 6217SOL     OW19546   3.529   3.576  13.606
 6217SOL    HW119547   3.488   3.553  13.518
 6217SOL    HW219548   3.511   3.502  13.671
 6218SOL     OW19549   2.460   2.591  13.304
 6218SOL    HW119550   2.484   2.660  13.236
 6218SOL    HW219551   2.382   2.624  13.358
 6219SOL     OW19552   3.143   2.207  13.978
 6219SOL    HW119553   3.057   2.157  13.965
 6219SOL    HW219554   3.205   2.153  14.034
 6220SOL     OW19555   3.438   3.524  13.341
 6220SOL    HW119556   3.527   3.570  13.344
 6220SOL    HW219557   3.417   3.500  13.246
 6221SOL     OW19558   2.903   2.563  13.463
 6221SOL    HW119559   2.929   2.559  13.559
 6221SOL    HW219560   2.818   2.512  13.449
 6222SOL     OW19561   1.938   2.673  13.823
 6222SOL    HW119562   2.037   2.661  13.832
 6222SOL    HW219563   1.914   2.768  13.844
 6223SOL     OW19564   2.727   2.210  13.229
 6223SOL    HW119565   2.786   2.273  13.180
 6223SOL    HW219566   2.746   2.116  13.200
 6224SOL     OW19567   3.224   3.006  13.579
 6224SOL    HW119568   3.307   2.977  13.531
 6224SOL    HW219569   3.175   3.073  13.523
 6225SOL     OW19570   2.870   3.318  13.511
 6225SOL    HW119571   2.824   3.390  13.459
 6225SOL    HW219572   2.866   3.338  13.609
 6226SOL     OW19573   2.213   3.663  13.887
 6226SOL    HW119574   2.263   3.577  13.893
 6226SOL    HW219575   2.278   3.740  13.884
 6227SOL     OW19576   3.657   2.928  13.907
 6227SOL    HW119577   3.595   2.913  13.831
 6227SOL    HW219578   3.605   2.939  13.992
 6228SOL     OW19579   2.183   2.805  13.276
 6228SOL    HW119580   2.265   2.844  13.234
 6228SOL    HW219581   2.156   2.723  13.227
 6229SOL     OW19582   3.320   2.597  13.762
 6229SOL    HW119583   3.315   2.532  13.837
 6229SOL    HW219584   3.400   2.656  13.775
 6230SOL     OW19585   2.973   3.638  13.271
 6230SOL    HW119586   2.913   3.576  13.321
 6230SOL    HW219587   3.004   3.594  13.186
 6231SOL     OW19588   3.494   3.239  13.115
 6231SOL    HW119589   3.462   3.333  13.105
 6231SOL    HW219590   3.418   3.176  13.103
 6232SOL     OW19591   2.326   3.605  13.357
 6232SOL    HW119592   2.359   3.644  13.443
 6232SOL    HW219593   2.402   3.598  13.292
 6233SOL     OW19594   3.262   1.969  13.460
 6233SOL    HW119595   3.238   1.932  13.370
 6233SOL    HW219596   3.361   1.985  13.464
 6234SOL     OW19597   2.802   3.560  13.938
 6234SOL    HW119598   2.882   3.503  13.959
 6234SOL    HW219599   2.753   3.520  13.861
 6235SOL     OW19600   2.244   2.562  13.514
 6235SOL    HW119601   2.289   2.472  13.511
 6235SOL    HW219602   2.150   2.551  13.547
 6236SOL     OW19603   2.476   1.984  13.151
 6236SOL    HW119604   2.574   1.962  13.158
 6236SOL    HW219605   2.445   1.967  13.058
 6237SOL     OW19606   2.401   1.926  13.546
 6237SOL    HW119607   2.320   1.927  13.604
 6237SOL    HW219608   2.404   2.009  13.491
 6238SOL     OW19609   3.296   3.050  13.075
 6238SOL    HW119610   3.328   2.974  13.132
 6238SOL    HW219611   3.204   3.077  13.105
 6239SOL     OW19612   2.797   2.098  13.514
 6239SOL    HW119613   2.749   2.139  13.436
 6239SOL    HW219614   2.896   2.096  13.495
 6240SOL     OW19615   2.321   3.014  13.775
 6240SOL    HW119616   2.250   2.987  13.840
 6240SOL    HW219617   2.295   2.986  13.682
 6241SOL     OW19618   3.133   3.659  13.625
 6241SOL    HW119619   3.177   3.723  13.561
 6241SOL    HW219620   3.083   3.711  13.695
 6242SOL     OW19621   2.894   2.411  13.050
 6242SOL    HW119622   2.853   2.493  13.011
 6242SOL    HW219623   2.958   2.437  13.123
 6243SOL     OW19624   2.728   2.316  13.676
 6243SOL    HW119625   2.696   2.388  13.614
 6243SOL    HW219626   2.752   2.235  13.623
 6244SOL     OW19627   2.879   1.901  13.787
 6244SOL    HW119628   2.807   1.906  13.718
 6244SOL    HW219629   2.855   1.832  13.856
 6245SOL     OW19630   3.719   2.695  13.411
 6245SOL    HW119631   3.761   2.631  13.475
 6245SOL    HW219632   3.681   2.644  13.333
 6246SOL     OW19633   2.350   3.247  13.208
 6246SOL    HW119634   2.263   3.232  13.255
 6246SOL    HW219635   2.333   3.273  13.113
 6247SOL     OW19636   3.526   3.142  13.691
 6247SOL    HW119637   3.625   3.150  13.705
 6247SOL    HW219638   3.481   3.226  13.722
 6248SOL     OW19639   3.252   2.437  13.112
 6248SOL    HW119640   3.198   2.416  13.193
 6248SOL    HW219641   3.343   2.396  13.121
 6249SOL     OW19642   2.567   2.912  13.402
 6249SOL    HW119643   2.553   2.919  13.501
 6249SOL    HW219644   2.651   2.861  13.384
 6250SOL     OW19645   2.229   2.962  13.535
 6250SOL    HW119646   2.222   3.045  13.479
 6250SOL    HW219647   2.233   2.882  13.475
 6251SOL     OW19648   2.428   2.399  13.899
 6251SOL    HW119649   2.440   2.465  13.825
 6251SOL    HW219650   2.474   2.433  13.982
 6252SOL     OW19651   3.114   3.210  13.422
 6252SOL    HW119652   3.164   3.287  13.462
 6252SOL    HW219653   3.019   3.212  13.454
 6253SOL     OW19654   3.444   2.501  13.506
 6253SOL    HW119655   3.413   2.562  13.579
 6253SOL    HW219656   3.494   2.553  13.437
 6254SOL     OW19657   3.071   2.387  13.309
 6254SOL    HW119658   3.084   2.303  13.363
 6254SOL    HW219659   3.042   2.461  13.369
 6255SOL     OW19660   3.484   2.229  13.408
 6255SOL    HW119661   3.486   2.153  13.472
 6255SOL    HW219662   3.436   2.306  13.448
 6256SOL     OW19663   3.402   2.136  13.159
 6256SOL    HW119664   3.341   2.061  13.182
 6256SOL    HW219665   3.424   2.188  13.242
 6257SOL     OW19666   3.165   2.700  13.076
 6257SOL    HW119667   3.199   2.607  13.091
 6257SOL    HW219668   3.183   2.727  12.981
 6258SOL     OW19669   1.870   3.188  13.234
 6258SOL    HW119670   1.777   3.209  13.203
 6258SOL    HW219671   1.880   3.089  13.247
 6259SOL     OW19672   2.677   2.434  13.359
 6259SOL    HW119673   2.684   2.345  13.313
 6259SOL    HW219674   2.583   2.468  13.351
 6260SOL     OW19675   2.335   2.362  13.225
 6260SOL    HW119676   2.396   2.442  13.229
 6260SOL    HW219677   2.240   2.393  13.232
 6261SOL     OW19678   3.164   2.717  13.343
 6261SOL    HW119679   3.078   2.686  13.385
 6261SOL    HW219680   3.160   2.703  13.244
 6262SOL     OW19681   3.588   1.997  13.557
 6262SOL    HW119682   3.661   1.980  13.490
 6262SOL    HW219683   3.557   1.910  13.595
 6263SOL     OW19684   3.250   3.435  13.511
 6263SOL    HW119685   3.317   3.447  13.437
 6263SOL    HW219686   3.210   3.524  13.534
 6264SOL     OW19687   3.142   2.789  13.706
 6264SOL    HW119688   3.202   2.708  13.708
 6264SOL    HW219689   3.182   2.858  13.646
 6265SOL     OW19690   2.534   3.478  13.188
 6265SOL    HW119691   2.543   3.488  13.089
 6265SOL    HW219692   2.494   3.389  13.209
 6266SOL     OW19693   3.703   2.037  13.997
 6266SOL    HW119694   3.742   1.952  13.961
 6266SOL    HW219695   3.605   2.039  13.978
 6267SOL     OW19696   3.056   3.474  13.065
 6267SOL    HW119697   3.062   3.381  13.102
 6267SOL    HW219698   2.997   3.474  12.985
 6268SOL     OW19699   2.778   2.772  13.325
 6268SOL    HW119700   2.841   2.810  13.257
 6268SOL    HW219701   2.818   2.689  13.364
 6269SOL     OW19702   3.366   3.469  13.078
 6269SOL    HW119703   3.274   3.506  13.085
 6269SOL    HW219704   3.404   3.489  12.988
 6270SOL     OW19705   2.901   2.960  13.730
 6270SOL    HW119706   2.831   2.913  13.784
 6270SOL    HW219707   2.960   2.892  13.687
 6271SOL     OW19708   2.452   3.349  13.525
 6271SOL    HW119709   2.494   3.291  13.455
 6271SOL    HW219710   2.408   3.428  13.481
 6272SOL     OW19711   2.117   3.210  13.324
 6272SOL    HW119712   2.021   3.211  13.297
 6272SOL    HW219713   2.129   3.263  13.408
 6273SOL     OW19714   3.045   3.197  13.153
 6273SOL    HW119715   2.946   3.186  13.155
 6273SOL    HW219716   3.079   3.212  13.246
 6274SOL     OW19717   3.087   2.187  13.483
 6274SOL    HW119718   3.152   2.113  13.472
 6274SOL    HW219719   3.107   2.237  13.567
 6275SOL     OW19720   2.456   2.607  13.686
 6275SOL    HW119721   2.506   2.692  13.667
 6275SOL    HW219722   2.368   2.609  13.638
 6276SOL     OW19723   2.721   3.236  13.050
 6276SOL    HW119724   2.675   3.251  13.138
 6276SOL    HW219725   2.765   3.321  13.020
 6277SOL     OW19726   2.523   3.652  13.987
 6277SOL    HW119727   2.477   3.740  13.974
 6277SOL    HW219728   2.622   3.664  13.980
 6278SOL     OW19729   2.721   2.818  13.895
 6278SOL    HW119730   2.775   2.749  13.943
 6278SOL    HW219731   2.689   2.887  13.961
 6279SOL     OW19732   2.945   2.846  13.121
 6279SOL    HW119733   2.922   2.899  13.039
 6279SOL    HW219734   3.026   2.790  13.102
 6280SOL     OW19735   1.941   3.102  13.687
 6280SOL    HW119736   1.940   3.055  13.775
 6280SOL    HW219737   2.023   3.074  13.636
 6281SOL     OW19738   3.567   3.349  14.138
 6281SOL    HW119739   3.474   3.324  14.111
 6281SOL    HW219740   3.593   3.299  14.220
 6282SOL     OW19741   2.674   3.448  13.721
 6282SOL    HW119742   2.706   3.458  13.627
 6282SOL    HW219743   2.595   3.386  13.723
 6283SOL     OW19744   2.632   3.192  13.335
 6283SOL    HW119745   2.586   3.105  13.352
 6283SOL    HW219746   2.723   3.189  13.376
 6284SOL     OW19747   3.214   1.914  13.202
 6284SOL    HW119748   3.249   1.873  13.118
 6284SOL    HW219749   3.124   1.876  13.222
 6285SOL     OW19750   3.162   2.315  13.725
 6285SOL    HW119751   3.103   2.395  13.729
 6285SOL    HW219752   3.177   2.280  13.818
 6286SOL     OW19753   1.901   2.939  13.334
 6286SOL    HW119754   2.000   2.928  13.325
 6286SOL    HW219755   1.861   2.853  13.366
 6287SOL     OW19756   2.737   3.508  13.371
 6287SOL    HW119757   2.660   3.473  13.317
 6287SOL    HW219758   2.705   3.579  13.433
 6288SOL     OW19759   2.087   3.999   0.996
 6288SOL    HW119760   2.122   3.982   1.088
 6288SOL    HW219761   1.999   3.954   0.984
 6289SOL     OW19762   1.881   4.092   0.647
 6289SOL    HW119763   1.799   4.135   0.686
 6289SOL    HW219764   1.853   4.019   0.584
 6290SOL     OW19765   3.617   4.331   0.231
 6290SOL    HW119766   3.605   4.318   0.132
 6290SOL    HW219767   3.587   4.250   0.280
 6291SOL     OW19768   2.300   4.116   1.499
 6291SOL    HW119769   2.382   4.060   1.508
 6291SOL    HW219770   2.219   4.058   1.503
 6292SOL     OW19771   3.456   3.838   1.480
 6292SOL    HW119772   3.438   3.905   1.408
 6292SOL    HW219773   3.453   3.884   1.569
 6293SOL     OW19774   2.671   3.728   0.502
 6293SOL    HW119775   2.711   3.819   0.493
 6293SOL    HW219776   2.571   3.736   0.508
 6294SOL     OW19777   3.143   4.069   0.944
 6294SOL    HW119778   3.057   4.019   0.931
 6294SOL    HW219779   3.205   4.015   1.000
 6295SOL     OW19780   2.412   3.920   0.885
 6295SOL    HW119781   2.407   3.915   0.985
 6295SOL    HW219782   2.414   4.016   0.856
 6296SOL     OW19783   2.064   4.009   1.498
 6296SOL    HW119784   1.984   4.069   1.485
 6296SOL    HW219785   2.054   3.960   1.584
 6297SOL     OW19786   3.262   3.831   0.426
 6297SOL    HW119787   3.238   3.794   0.336
 6297SOL    HW219788   3.361   3.847   0.430
 6298SOL     OW19789   3.409   3.946   1.729
 6298SOL    HW119790   3.404   3.983   1.821
 6298SOL    HW219791   3.337   3.877   1.717
 6299SOL     OW19792   2.643   3.988   1.749
 6299SOL    HW119793   2.710   3.927   1.792
 6299SOL    HW219794   2.570   4.007   1.814
 6300SOL     OW19795   2.401   3.788   0.512
 6300SOL    HW119796   2.320   3.789   0.570
 6300SOL    HW219797   2.404   3.871   0.457
 6301SOL     OW19798   2.159   3.759   0.171
 6301SOL    HW119799   2.208   3.843   0.150
 6301SOL    HW219800   2.221   3.694   0.216
 6302SOL     OW19801   2.423   3.946   1.147
 6302SOL    HW119802   2.461   3.862   1.184
 6302SOL    HW219803   2.335   3.965   1.191
 6303SOL     OW19804   2.879   3.763   0.753
 6303SOL    HW119805   2.807   3.768   0.684
 6303SOL    HW219806   2.855   3.694   0.822
 6304SOL     OW19807   2.777   3.813   1.402
 6304SOL    HW119808   2.802   3.793   1.307
 6304SOL    HW219809   2.849   3.869   1.444
 6305SOL     OW19810   3.136   4.110   1.262
 6305SOL    HW119811   3.157   4.184   1.326
 6305SOL    HW219812   3.047   4.127   1.219
 6306SOL     OW19813   2.366   3.774   1.740
 6306SOL    HW119814   2.324   3.717   1.670
 6306SOL    HW219815   2.300   3.843   1.772
 6307SOL     OW19816   2.169   3.937   1.231
 6307SOL    HW119817   2.146   3.974   1.321
 6307SOL    HW219818   2.139   3.842   1.225
 6308SOL     OW19819   3.402   3.998   0.125
 6308SOL    HW119820   3.341   3.923   0.148
 6308SOL    HW219821   3.424   4.050   0.208
 6309SOL     OW19822   3.022   3.931   1.477
 6309SOL    HW119823   3.022   3.995   1.554
 6309SOL    HW219824   3.050   3.979   1.394
 6310SOL     OW19825   2.765   3.810   0.133
 6310SOL    HW119826   2.816   3.811   0.047
 6310SOL    HW219827   2.821   3.768   0.204
 6311SOL     OW19828   3.588   3.859   0.523
 6311SOL    HW119829   3.661   3.842   0.456
 6311SOL    HW219830   3.557   3.772   0.561
 6312SOL     OW19831   3.703   3.899   0.963
 6312SOL    HW119832   3.742   3.814   0.927
 6312SOL    HW219833   3.605   3.901   0.944
 6313SOL     OW19834   2.534   3.927   1.489
 6313SOL    HW119835   2.624   3.911   1.449
 6313SOL    HW219836   2.542   3.932   1.588
 6314SOL     OW19837   1.934   3.890   0.318
 6314SOL    HW119838   1.917   3.973   0.264
 6314SOL    HW219839   2.024   3.853   0.296
 6315SOL     OW19840   3.087   4.049   0.449
 6315SOL    HW119841   3.152   3.975   0.438
 6315SOL    HW219842   3.107   4.099   0.533
 6316SOL     OW19843   3.639   4.066   1.642
 6316SOL    HW119844   3.622   4.097   1.548
 6316SOL    HW219845   3.555   4.029   1.680
 6317SOL     OW19846   3.686   3.916   1.227
 6317SOL    HW119847   3.682   3.826   1.271
 6317SOL    HW219848   3.689   3.905   1.128
 6318SOL     OW19849   3.286   3.938   1.112
 6318SOL    HW119850   3.338   3.873   1.167
 6318SOL    HW219851   3.237   4.001   1.173
 6319SOL     OW19852   2.863   3.758   1.154
 6319SOL    HW119853   2.800   3.686   1.123
 6319SOL    HW219854   2.956   3.722   1.154
 6320SOL     OW19855   3.214   3.776   0.168
 6320SOL    HW119856   3.249   3.735   0.084
 6320SOL    HW219857   3.124   3.738   0.188
 6321SOL     OW19858   3.162   4.177   0.691
 6321SOL    HW119859   3.103   4.257   0.695
 6321SOL    HW219860   3.177   4.142   0.784
 6322SOL     OW19861   3.455   3.945   0.882
 6322SOL    HW119862   3.371   3.944   0.936
 6322SOL    HW219863   3.457   4.028   0.826
 6323SOL     OW19864   2.087   3.999   2.858
 6323SOL    HW119865   2.122   3.982   2.950
 6323SOL    HW219866   1.999   3.954   2.846
 6324SOL     OW19867   1.881   4.092   2.509
 6324SOL    HW119868   1.799   4.135   2.548
 6324SOL    HW219869   1.853   4.019   2.446
 6325SOL     OW19870   3.617   4.331   2.093
 6325SOL    HW119871   3.605   4.318   1.994
 6325SOL    HW219872   3.587   4.250   2.142
 6326SOL     OW19873   2.300   4.116   3.361
 6326SOL    HW119874   2.382   4.060   3.370
 6326SOL    HW219875   2.219   4.058   3.365
 6327SOL     OW19876   3.456   3.838   3.342
 6327SOL    HW119877   3.438   3.905   3.270
 6327SOL    HW219878   3.453   3.884   3.431
 6328SOL     OW19879   2.671   3.728   2.364
 6328SOL    HW119880   2.711   3.819   2.355
 6328SOL    HW219881   2.571   3.736   2.370
 6329SOL     OW19882   3.143   4.069   2.806
 6329SOL    HW119883   3.057   4.019   2.793
 6329SOL    HW219884   3.205   4.015   2.862
 6330SOL     OW19885   2.412   3.920   2.747
 6330SOL    HW119886   2.407   3.915   2.847
 6330SOL    HW219887   2.414   4.016   2.718
 6331SOL     OW19888   2.064   4.009   3.360
 6331SOL    HW119889   1.984   4.069   3.347
 6331SOL    HW219890   2.054   3.960   3.446
 6332SOL     OW19891   3.262   3.831   2.288
 6332SOL    HW119892   3.238   3.794   2.198
 6332SOL    HW219893   3.361   3.847   2.292
 6333SOL     OW19894   3.409   3.946   3.591
 6333SOL    HW119895   3.404   3.983   3.683
 6333SOL    HW219896   3.337   3.877   3.579
 6334SOL     OW19897   2.476   3.846   1.979
 6334SOL    HW119898   2.574   3.824   1.986
 6334SOL    HW219899   2.445   3.829   1.886
 6335SOL     OW19900   2.643   3.988   3.611
 6335SOL    HW119901   2.710   3.927   3.654
 6335SOL    HW219902   2.570   4.007   3.676
 6336SOL     OW19903   2.401   3.788   2.374
 6336SOL    HW119904   2.320   3.789   2.432
 6336SOL    HW219905   2.404   3.871   2.319
 6337SOL     OW19906   2.159   3.759   2.033
 6337SOL    HW119907   2.208   3.843   2.012
 6337SOL    HW219908   2.221   3.694   2.078
 6338SOL     OW19909   2.423   3.946   3.009
 6338SOL    HW119910   2.461   3.862   3.046
 6338SOL    HW219911   2.335   3.965   3.053
 6339SOL     OW19912   2.879   3.763   2.615
 6339SOL    HW119913   2.807   3.768   2.546
 6339SOL    HW219914   2.855   3.694   2.684
 6340SOL     OW19915   2.777   3.813   3.264
 6340SOL    HW119916   2.802   3.793   3.169
 6340SOL    HW219917   2.849   3.869   3.306
 6341SOL     OW19918   3.136   4.110   3.124
 6341SOL    HW119919   3.157   4.184   3.188
 6341SOL    HW219920   3.047   4.127   3.081
 6342SOL     OW19921   2.366   3.774   3.602
 6342SOL    HW119922   2.324   3.717   3.532
 6342SOL    HW219923   2.300   3.843   3.634
 6343SOL     OW19924   2.169   3.937   3.093
 6343SOL    HW119925   2.146   3.974   3.183
 6343SOL    HW219926   2.139   3.842   3.087
 6344SOL     OW19927   3.402   3.998   1.987
 6344SOL    HW119928   3.341   3.923   2.010
 6344SOL    HW219929   3.424   4.050   2.070
 6345SOL     OW19930   3.022   3.931   3.339
 6345SOL    HW119931   3.022   3.995   3.416
 6345SOL    HW219932   3.050   3.979   3.256
 6346SOL     OW19933   2.765   3.810   1.995
 6346SOL    HW119934   2.816   3.811   1.909
 6346SOL    HW219935   2.821   3.768   2.066
 6347SOL     OW19936   3.588   3.859   2.385
 6347SOL    HW119937   3.661   3.842   2.318
 6347SOL    HW219938   3.557   3.772   2.423
 6348SOL     OW19939   3.703   3.899   2.825
 6348SOL    HW119940   3.742   3.814   2.789
 6348SOL    HW219941   3.605   3.901   2.806
 6349SOL     OW19942   2.534   3.927   3.351
 6349SOL    HW119943   2.624   3.911   3.311
 6349SOL    HW219944   2.542   3.932   3.450
 6350SOL     OW19945   1.937   4.069   1.895
 6350SOL    HW119946   1.845   4.041   1.866
 6350SOL    HW219947   1.968   4.146   1.839
 6351SOL     OW19948   1.934   3.890   2.180
 6351SOL    HW119949   1.917   3.973   2.126
 6351SOL    HW219950   2.024   3.853   2.158
 6352SOL     OW19951   3.087   4.049   2.311
 6352SOL    HW119952   3.152   3.975   2.300
 6352SOL    HW219953   3.107   4.099   2.395
 6353SOL     OW19954   3.639   4.066   3.504
 6353SOL    HW119955   3.622   4.097   3.410
 6353SOL    HW219956   3.555   4.029   3.542
 6354SOL     OW19957   3.686   3.916   3.089
 6354SOL    HW119958   3.682   3.826   3.133
 6354SOL    HW219959   3.689   3.905   2.990
 6355SOL     OW19960   3.286   3.938   2.974
 6355SOL    HW119961   3.338   3.873   3.029
 6355SOL    HW219962   3.237   4.001   3.035
 6356SOL     OW19963   2.863   3.758   3.016
 6356SOL    HW119964   2.800   3.686   2.985
 6356SOL    HW219965   2.956   3.722   3.016
 6357SOL     OW19966   3.214   3.776   2.030
 6357SOL    HW119967   3.249   3.735   1.946
 6357SOL    HW219968   3.124   3.738   2.050
 6358SOL     OW19969   3.162   4.177   2.553
 6358SOL    HW119970   3.103   4.257   2.557
 6358SOL    HW219971   3.177   4.142   2.646
 6359SOL     OW19972   3.455   3.945   2.744
 6359SOL    HW119973   3.371   3.944   2.798
 6359SOL    HW219974   3.457   4.028   2.688
 6360SOL     OW19975   2.087   3.999   4.720
 6360SOL    HW119976   2.122   3.982   4.812
 6360SOL    HW219977   1.999   3.954   4.708
 6361SOL     OW19978   1.881   4.092   4.371
 6361SOL    HW119979   1.799   4.135   4.410
 6361SOL    HW219980   1.853   4.019   4.308
 6362SOL     OW19981   3.617   4.331   3.955
 6362SOL    HW119982   3.605   4.318   3.856
 6362SOL    HW219983   3.587   4.250   4.004
 6363SOL     OW19984   2.300   4.116   5.223
 6363SOL    HW119985   2.382   4.060   5.232
 6363SOL    HW219986   2.219   4.058   5.227
 6364SOL     OW19987   3.456   3.838   5.204
 6364SOL    HW119988   3.438   3.905   5.132
 6364SOL    HW219989   3.453   3.884   5.293
 6365SOL     OW19990   2.671   3.728   4.226
 6365SOL    HW119991   2.711   3.819   4.217
 6365SOL    HW219992   2.571   3.736   4.232
 6366SOL     OW19993   3.143   4.069   4.668
 6366SOL    HW119994   3.057   4.019   4.655
 6366SOL    HW219995   3.205   4.015   4.724
 6367SOL     OW19996   2.412   3.920   4.609
 6367SOL    HW119997   2.407   3.915   4.709
 6367SOL    HW219998   2.414   4.016   4.580
 6368SOL     OW19999   2.064   4.009   5.222
 6368SOL    HW120000   1.984   4.069   5.209
 6368SOL    HW220001   2.054   3.960   5.308
 6369SOL     OW20002   3.262   3.831   4.150
 6369SOL    HW120003   3.238   3.794   4.060
 6369SOL    HW220004   3.361   3.847   4.154
 6370SOL     OW20005   3.409   3.946   5.453
 6370SOL    HW120006   3.404   3.983   5.545
 6370SOL    HW220007   3.337   3.877   5.441
 6371SOL     OW20008   2.476   3.846   3.841
 6371SOL    HW120009   2.574   3.824   3.848
 6371SOL    HW220010   2.445   3.829   3.748
 6372SOL     OW20011   2.643   3.988   5.473
 6372SOL    HW120012   2.710   3.927   5.516
 6372SOL    HW220013   2.570   4.007   5.538
 6373SOL     OW20014   2.401   3.788   4.236
 6373SOL    HW120015   2.320   3.789   4.294
 6373SOL    HW220016   2.404   3.871   4.181
 6374SOL     OW20017   2.159   3.759   3.895
 6374SOL    HW120018   2.208   3.843   3.874
 6374SOL    HW220019   2.221   3.694   3.940
 6375SOL     OW20020   2.423   3.946   4.871
 6375SOL    HW120021   2.461   3.862   4.908
 6375SOL    HW220022   2.335   3.965   4.915
 6376SOL     OW20023   2.879   3.763   4.477
 6376SOL    HW120024   2.807   3.768   4.408
 6376SOL    HW220025   2.855   3.694   4.546
 6377SOL     OW20026   2.777   3.813   5.126
 6377SOL    HW120027   2.802   3.793   5.031
 6377SOL    HW220028   2.849   3.869   5.168
 6378SOL     OW20029   3.136   4.110   4.986
 6378SOL    HW120030   3.157   4.184   5.050
 6378SOL    HW220031   3.047   4.127   4.943
 6379SOL     OW20032   2.366   3.774   5.464
 6379SOL    HW120033   2.324   3.717   5.394
 6379SOL    HW220034   2.300   3.843   5.496
 6380SOL     OW20035   2.169   3.937   4.955
 6380SOL    HW120036   2.146   3.974   5.045
 6380SOL    HW220037   2.139   3.842   4.949
 6381SOL     OW20038   3.402   3.998   3.849
 6381SOL    HW120039   3.341   3.923   3.872
 6381SOL    HW220040   3.424   4.050   3.932
 6382SOL     OW20041   3.022   3.931   5.201
 6382SOL    HW120042   3.022   3.995   5.278
 6382SOL    HW220043   3.050   3.979   5.118
 6383SOL     OW20044   2.765   3.810   3.857
 6383SOL    HW120045   2.816   3.811   3.771
 6383SOL    HW220046   2.821   3.768   3.928
 6384SOL     OW20047   3.588   3.859   4.247
 6384SOL    HW120048   3.661   3.842   4.180
 6384SOL    HW220049   3.557   3.772   4.285
 6385SOL     OW20050   3.703   3.899   4.687
 6385SOL    HW120051   3.742   3.814   4.651
 6385SOL    HW220052   3.605   3.901   4.668
 6386SOL     OW20053   2.534   3.927   5.213
 6386SOL    HW120054   2.624   3.911   5.173
 6386SOL    HW220055   2.542   3.932   5.312
 6387SOL     OW20056   1.937   4.069   3.757
 6387SOL    HW120057   1.845   4.041   3.728
 6387SOL    HW220058   1.968   4.146   3.701
 6388SOL     OW20059   1.934   3.890   4.042
 6388SOL    HW120060   1.917   3.973   3.988
 6388SOL    HW220061   2.024   3.853   4.020
 6389SOL     OW20062   3.087   4.049   4.173
 6389SOL    HW120063   3.152   3.975   4.162
 6389SOL    HW220064   3.107   4.099   4.257
 6390SOL     OW20065   3.639   4.066   5.366
 6390SOL    HW120066   3.622   4.097   5.272
 6390SOL    HW220067   3.555   4.029   5.404
 6391SOL     OW20068   3.686   3.916   4.951
 6391SOL    HW120069   3.682   3.826   4.995
 6391SOL    HW220070   3.689   3.905   4.852
 6392SOL     OW20071   3.286   3.938   4.836
 6392SOL    HW120072   3.338   3.873   4.891
 6392SOL    HW220073   3.237   4.001   4.897
 6393SOL     OW20074   2.863   3.758   4.878
 6393SOL    HW120075   2.800   3.686   4.847
 6393SOL    HW220076   2.956   3.722   4.878
 6394SOL     OW20077   3.214   3.776   3.892
 6394SOL    HW120078   3.249   3.735   3.808
 6394SOL    HW220079   3.124   3.738   3.912
 6395SOL     OW20080   3.162   4.177   4.415
 6395SOL    HW120081   3.103   4.257   4.419
 6395SOL    HW220082   3.177   4.142   4.508
 6396SOL     OW20083   3.455   3.945   4.606
 6396SOL    HW120084   3.371   3.944   4.660
 6396SOL    HW220085   3.457   4.028   4.550
 6397SOL     OW20086   2.087   3.999   6.582
 6397SOL    HW120087   2.122   3.982   6.674
 6397SOL    HW220088   1.999   3.954   6.570
 6398SOL     OW20089   1.881   4.092   6.233
 6398SOL    HW120090   1.799   4.135   6.272
 6398SOL    HW220091   1.853   4.019   6.170
 6399SOL     OW20092   3.617   4.331   5.817
 6399SOL    HW120093   3.605   4.318   5.718
 6399SOL    HW220094   3.587   4.250   5.866
 6400SOL     OW20095   2.300   4.116   7.085
 6400SOL    HW120096   2.382   4.060   7.094
 6400SOL    HW220097   2.219   4.058   7.089
 6401SOL     OW20098   3.456   3.838   7.066
 6401SOL    HW120099   3.438   3.905   6.994
 6401SOL    HW220100   3.453   3.884   7.155
 6402SOL     OW20101   2.671   3.728   6.088
 6402SOL    HW120102   2.711   3.819   6.079
 6402SOL    HW220103   2.571   3.736   6.094
 6403SOL     OW20104   3.143   4.069   6.530
 6403SOL    HW120105   3.057   4.019   6.517
 6403SOL    HW220106   3.205   4.015   6.586
 6404SOL     OW20107   2.412   3.920   6.471
 6404SOL    HW120108   2.407   3.915   6.571
 6404SOL    HW220109   2.414   4.016   6.442
 6405SOL     OW20110   2.064   4.009   7.084
 6405SOL    HW120111   1.984   4.069   7.071
 6405SOL    HW220112   2.054   3.960   7.170
 6406SOL     OW20113   3.262   3.831   6.012
 6406SOL    HW120114   3.238   3.794   5.922
 6406SOL    HW220115   3.361   3.847   6.016
 6407SOL     OW20116   3.409   3.946   7.315
 6407SOL    HW120117   3.404   3.983   7.407
 6407SOL    HW220118   3.337   3.877   7.303
 6408SOL     OW20119   2.476   3.846   5.703
 6408SOL    HW120120   2.574   3.824   5.710
 6408SOL    HW220121   2.445   3.829   5.610
 6409SOL     OW20122   2.643   3.988   7.335
 6409SOL    HW120123   2.710   3.927   7.378
 6409SOL    HW220124   2.570   4.007   7.400
 6410SOL     OW20125   2.401   3.788   6.098
 6410SOL    HW120126   2.320   3.789   6.156
 6410SOL    HW220127   2.404   3.871   6.043
 6411SOL     OW20128   2.159   3.759   5.757
 6411SOL    HW120129   2.208   3.843   5.736
 6411SOL    HW220130   2.221   3.694   5.802
 6412SOL     OW20131   2.423   3.946   6.733
 6412SOL    HW120132   2.461   3.862   6.770
 6412SOL    HW220133   2.335   3.965   6.777
 6413SOL     OW20134   2.879   3.763   6.339
 6413SOL    HW120135   2.807   3.768   6.270
 6413SOL    HW220136   2.855   3.694   6.408
 6414SOL     OW20137   2.777   3.813   6.988
 6414SOL    HW120138   2.802   3.793   6.893
 6414SOL    HW220139   2.849   3.869   7.030
 6415SOL     OW20140   3.136   4.110   6.848
 6415SOL    HW120141   3.157   4.184   6.912
 6415SOL    HW220142   3.047   4.127   6.805
 6416SOL     OW20143   2.366   3.774   7.326
 6416SOL    HW120144   2.324   3.717   7.256
 6416SOL    HW220145   2.300   3.843   7.358
 6417SOL     OW20146   2.169   3.937   6.817
 6417SOL    HW120147   2.146   3.974   6.907
 6417SOL    HW220148   2.139   3.842   6.811
 6418SOL     OW20149   3.402   3.998   5.711
 6418SOL    HW120150   3.341   3.923   5.734
 6418SOL    HW220151   3.424   4.050   5.794
 6419SOL     OW20152   3.022   3.931   7.063
 6419SOL    HW120153   3.022   3.995   7.140
 6419SOL    HW220154   3.050   3.979   6.980
 6420SOL     OW20155   2.765   3.810   5.719
 6420SOL    HW120156   2.816   3.811   5.633
 6420SOL    HW220157   2.821   3.768   5.790
 6421SOL     OW20158   3.588   3.859   6.109
 6421SOL    HW120159   3.661   3.842   6.042
 6421SOL    HW220160   3.557   3.772   6.147
 6422SOL     OW20161   3.703   3.899   6.549
 6422SOL    HW120162   3.742   3.814   6.513
 6422SOL    HW220163   3.605   3.901   6.530
 6423SOL     OW20164   2.534   3.927   7.075
 6423SOL    HW120165   2.624   3.911   7.035
 6423SOL    HW220166   2.542   3.932   7.174
 6424SOL     OW20167   1.937   4.069   5.619
 6424SOL    HW120168   1.845   4.041   5.590
 6424SOL    HW220169   1.968   4.146   5.563
 6425SOL     OW20170   1.934   3.890   5.904
 6425SOL    HW120171   1.917   3.973   5.850
 6425SOL    HW220172   2.024   3.853   5.882
 6426SOL     OW20173   3.087   4.049   6.035
 6426SOL    HW120174   3.152   3.975   6.024
 6426SOL    HW220175   3.107   4.099   6.119
 6427SOL     OW20176   3.639   4.066   7.228
 6427SOL    HW120177   3.622   4.097   7.134
 6427SOL    HW220178   3.555   4.029   7.266
 6428SOL     OW20179   3.686   3.916   6.813
 6428SOL    HW120180   3.682   3.826   6.857
 6428SOL    HW220181   3.689   3.905   6.714
 6429SOL     OW20182   3.286   3.938   6.698
 6429SOL    HW120183   3.338   3.873   6.753
 6429SOL    HW220184   3.237   4.001   6.759
 6430SOL     OW20185   2.863   3.758   6.740
 6430SOL    HW120186   2.800   3.686   6.709
 6430SOL    HW220187   2.956   3.722   6.740
 6431SOL     OW20188   3.214   3.776   5.754
 6431SOL    HW120189   3.249   3.735   5.670
 6431SOL    HW220190   3.124   3.738   5.774
 6432SOL     OW20191   3.162   4.177   6.277
 6432SOL    HW120192   3.103   4.257   6.281
 6432SOL    HW220193   3.177   4.142   6.370
 6433SOL     OW20194   3.455   3.945   6.468
 6433SOL    HW120195   3.371   3.944   6.522
 6433SOL    HW220196   3.457   4.028   6.412
 6434SOL     OW20197   2.087   3.999   8.444
 6434SOL    HW120198   2.122   3.982   8.536
 6434SOL    HW220199   1.999   3.954   8.432
 6435SOL     OW20200   1.881   4.092   8.095
 6435SOL    HW120201   1.799   4.135   8.134
 6435SOL    HW220202   1.853   4.019   8.032
 6436SOL     OW20203   3.617   4.331   7.679
 6436SOL    HW120204   3.605   4.318   7.580
 6436SOL    HW220205   3.587   4.250   7.728
 6437SOL     OW20206   2.300   4.116   8.947
 6437SOL    HW120207   2.382   4.060   8.956
 6437SOL    HW220208   2.219   4.058   8.951
 6438SOL     OW20209   3.456   3.838   8.928
 6438SOL    HW120210   3.438   3.905   8.856
 6438SOL    HW220211   3.453   3.884   9.017
 6439SOL     OW20212   2.671   3.728   7.950
 6439SOL    HW120213   2.711   3.819   7.941
 6439SOL    HW220214   2.571   3.736   7.956
 6440SOL     OW20215   3.143   4.069   8.392
 6440SOL    HW120216   3.057   4.019   8.379
 6440SOL    HW220217   3.205   4.015   8.448
 6441SOL     OW20218   2.412   3.920   8.333
 6441SOL    HW120219   2.407   3.915   8.433
 6441SOL    HW220220   2.414   4.016   8.304
 6442SOL     OW20221   2.064   4.009   8.946
 6442SOL    HW120222   1.984   4.069   8.933
 6442SOL    HW220223   2.054   3.960   9.032
 6443SOL     OW20224   3.262   3.831   7.874
 6443SOL    HW120225   3.238   3.794   7.784
 6443SOL    HW220226   3.361   3.847   7.878
 6444SOL     OW20227   3.409   3.946   9.177
 6444SOL    HW120228   3.404   3.983   9.269
 6444SOL    HW220229   3.337   3.877   9.165
 6445SOL     OW20230   2.476   3.846   7.565
 6445SOL    HW120231   2.574   3.824   7.572
 6445SOL    HW220232   2.445   3.829   7.472
 6446SOL     OW20233   2.643   3.988   9.197
 6446SOL    HW120234   2.710   3.927   9.240
 6446SOL    HW220235   2.570   4.007   9.262
 6447SOL     OW20236   2.401   3.788   7.960
 6447SOL    HW120237   2.320   3.789   8.018
 6447SOL    HW220238   2.404   3.871   7.905
 6448SOL     OW20239   2.159   3.759   7.619
 6448SOL    HW120240   2.208   3.843   7.598
 6448SOL    HW220241   2.221   3.694   7.664
 6449SOL     OW20242   2.423   3.946   8.595
 6449SOL    HW120243   2.461   3.862   8.632
 6449SOL    HW220244   2.335   3.965   8.639
 6450SOL     OW20245   2.879   3.763   8.201
 6450SOL    HW120246   2.807   3.768   8.132
 6450SOL    HW220247   2.855   3.694   8.270
 6451SOL     OW20248   2.777   3.813   8.850
 6451SOL    HW120249   2.802   3.793   8.755
 6451SOL    HW220250   2.849   3.869   8.892
 6452SOL     OW20251   3.136   4.110   8.710
 6452SOL    HW120252   3.157   4.184   8.774
 6452SOL    HW220253   3.047   4.127   8.667
 6453SOL     OW20254   2.366   3.774   9.188
 6453SOL    HW120255   2.324   3.717   9.118
 6453SOL    HW220256   2.300   3.843   9.220
 6454SOL     OW20257   2.169   3.937   8.679
 6454SOL    HW120258   2.146   3.974   8.769
 6454SOL    HW220259   2.139   3.842   8.673
 6455SOL     OW20260   3.402   3.998   7.573
 6455SOL    HW120261   3.341   3.923   7.596
 6455SOL    HW220262   3.424   4.050   7.656
 6456SOL     OW20263   3.022   3.931   8.925
 6456SOL    HW120264   3.022   3.995   9.002
 6456SOL    HW220265   3.050   3.979   8.842
 6457SOL     OW20266   2.765   3.810   7.581
 6457SOL    HW120267   2.816   3.811   7.495
 6457SOL    HW220268   2.821   3.768   7.652
 6458SOL     OW20269   3.588   3.859   7.971
 6458SOL    HW120270   3.661   3.842   7.904
 6458SOL    HW220271   3.557   3.772   8.009
 6459SOL     OW20272   3.703   3.899   8.411
 6459SOL    HW120273   3.742   3.814   8.375
 6459SOL    HW220274   3.605   3.901   8.392
 6460SOL     OW20275   2.534   3.927   8.937
 6460SOL    HW120276   2.624   3.911   8.897
 6460SOL    HW220277   2.542   3.932   9.036
 6461SOL     OW20278   1.937   4.069   7.481
 6461SOL    HW120279   1.845   4.041   7.452
 6461SOL    HW220280   1.968   4.146   7.425
 6462SOL     OW20281   1.934   3.890   7.766
 6462SOL    HW120282   1.917   3.973   7.712
 6462SOL    HW220283   2.024   3.853   7.744
 6463SOL     OW20284   3.087   4.049   7.897
 6463SOL    HW120285   3.152   3.975   7.886
 6463SOL    HW220286   3.107   4.099   7.981
 6464SOL     OW20287   3.639   4.066   9.090
 6464SOL    HW120288   3.622   4.097   8.996
 6464SOL    HW220289   3.555   4.029   9.128
 6465SOL     OW20290   3.686   3.916   8.675
 6465SOL    HW120291   3.682   3.826   8.719
 6465SOL    HW220292   3.689   3.905   8.576
 6466SOL     OW20293   3.286   3.938   8.560
 6466SOL    HW120294   3.338   3.873   8.615
 6466SOL    HW220295   3.237   4.001   8.621
 6467SOL     OW20296   2.863   3.758   8.602
 6467SOL    HW120297   2.800   3.686   8.571
 6467SOL    HW220298   2.956   3.722   8.602
 6468SOL     OW20299   3.214   3.776   7.616
 6468SOL    HW120300   3.249   3.735   7.532
 6468SOL    HW220301   3.124   3.738   7.636
 6469SOL     OW20302   3.162   4.177   8.139
 6469SOL    HW120303   3.103   4.257   8.143
 6469SOL    HW220304   3.177   4.142   8.232
 6470SOL     OW20305   3.455   3.945   8.330
 6470SOL    HW120306   3.371   3.944   8.384
 6470SOL    HW220307   3.457   4.028   8.274
 6471SOL     OW20308   2.087   3.999  10.306
 6471SOL    HW120309   2.122   3.982  10.398
 6471SOL    HW220310   1.999   3.954  10.294
 6472SOL     OW20311   1.881   4.092   9.957
 6472SOL    HW120312   1.799   4.135   9.996
 6472SOL    HW220313   1.853   4.019   9.894
 6473SOL     OW20314   3.617   4.331   9.541
 6473SOL    HW120315   3.605   4.318   9.442
 6473SOL    HW220316   3.587   4.250   9.590
 6474SOL     OW20317   2.300   4.116  10.809
 6474SOL    HW120318   2.382   4.060  10.818
 6474SOL    HW220319   2.219   4.058  10.813
 6475SOL     OW20320   3.456   3.838  10.790
 6475SOL    HW120321   3.438   3.905  10.718
 6475SOL    HW220322   3.453   3.884  10.879
 6476SOL     OW20323   2.671   3.728   9.812
 6476SOL    HW120324   2.711   3.819   9.803
 6476SOL    HW220325   2.571   3.736   9.818
 6477SOL     OW20326   3.143   4.069  10.254
 6477SOL    HW120327   3.057   4.019  10.241
 6477SOL    HW220328   3.205   4.015  10.310
 6478SOL     OW20329   2.412   3.920  10.195
 6478SOL    HW120330   2.407   3.915  10.295
 6478SOL    HW220331   2.414   4.016  10.166
 6479SOL     OW20332   2.064   4.009  10.808
 6479SOL    HW120333   1.984   4.069  10.795
 6479SOL    HW220334   2.054   3.960  10.894
 6480SOL     OW20335   3.262   3.831   9.736
 6480SOL    HW120336   3.238   3.794   9.646
 6480SOL    HW220337   3.361   3.847   9.740
 6481SOL     OW20338   3.409   3.946  11.039
 6481SOL    HW120339   3.404   3.983  11.131
 6481SOL    HW220340   3.337   3.877  11.027
 6482SOL     OW20341   2.476   3.846   9.427
 6482SOL    HW120342   2.574   3.824   9.434
 6482SOL    HW220343   2.445   3.829   9.334
 6483SOL     OW20344   2.643   3.988  11.059
 6483SOL    HW120345   2.710   3.927  11.102
 6483SOL    HW220346   2.570   4.007  11.124
 6484SOL     OW20347   2.401   3.788   9.822
 6484SOL    HW120348   2.320   3.789   9.880
 6484SOL    HW220349   2.404   3.871   9.767
 6485SOL     OW20350   2.159   3.759   9.481
 6485SOL    HW120351   2.208   3.843   9.460
 6485SOL    HW220352   2.221   3.694   9.526
 6486SOL     OW20353   2.423   3.946  10.457
 6486SOL    HW120354   2.461   3.862  10.494
 6486SOL    HW220355   2.335   3.965  10.501
 6487SOL     OW20356   2.879   3.763  10.063
 6487SOL    HW120357   2.807   3.768   9.994
 6487SOL    HW220358   2.855   3.694  10.132
 6488SOL     OW20359   2.777   3.813  10.712
 6488SOL    HW120360   2.802   3.793  10.617
 6488SOL    HW220361   2.849   3.869  10.754
 6489SOL     OW20362   3.136   4.110  10.572
 6489SOL    HW120363   3.157   4.184  10.636
 6489SOL    HW220364   3.047   4.127  10.529
 6490SOL     OW20365   2.366   3.774  11.050
 6490SOL    HW120366   2.324   3.717  10.980
 6490SOL    HW220367   2.300   3.843  11.082
 6491SOL     OW20368   2.169   3.937  10.541
 6491SOL    HW120369   2.146   3.974  10.631
 6491SOL    HW220370   2.139   3.842  10.535
 6492SOL     OW20371   3.402   3.998   9.435
 6492SOL    HW120372   3.341   3.923   9.458
 6492SOL    HW220373   3.424   4.050   9.518
 6493SOL     OW20374   3.022   3.931  10.787
 6493SOL    HW120375   3.022   3.995  10.864
 6493SOL    HW220376   3.050   3.979  10.704
 6494SOL     OW20377   2.765   3.810   9.443
 6494SOL    HW120378   2.816   3.811   9.357
 6494SOL    HW220379   2.821   3.768   9.514
 6495SOL     OW20380   3.588   3.859   9.833
 6495SOL    HW120381   3.661   3.842   9.766
 6495SOL    HW220382   3.557   3.772   9.871
 6496SOL     OW20383   3.703   3.899  10.273
 6496SOL    HW120384   3.742   3.814  10.237
 6496SOL    HW220385   3.605   3.901  10.254
 6497SOL     OW20386   2.534   3.927  10.799
 6497SOL    HW120387   2.624   3.911  10.759
 6497SOL    HW220388   2.542   3.932  10.898
 6498SOL     OW20389   1.937   4.069   9.343
 6498SOL    HW120390   1.845   4.041   9.314
 6498SOL    HW220391   1.968   4.146   9.287
 6499SOL     OW20392   1.934   3.890   9.628
 6499SOL    HW120393   1.917   3.973   9.574
 6499SOL    HW220394   2.024   3.853   9.606
 6500SOL     OW20395   3.087   4.049   9.759
 6500SOL    HW120396   3.152   3.975   9.748
 6500SOL    HW220397   3.107   4.099   9.843
 6501SOL     OW20398   3.639   4.066  10.952
 6501SOL    HW120399   3.622   4.097  10.858
 6501SOL    HW220400   3.555   4.029  10.990
 6502SOL     OW20401   3.686   3.916  10.537
 6502SOL    HW120402   3.682   3.826  10.581
 6502SOL    HW220403   3.689   3.905  10.438
 6503SOL     OW20404   3.286   3.938  10.422
 6503SOL    HW120405   3.338   3.873  10.477
 6503SOL    HW220406   3.237   4.001  10.483
 6504SOL     OW20407   2.863   3.758  10.464
 6504SOL    HW120408   2.800   3.686  10.433
 6504SOL    HW220409   2.956   3.722  10.464
 6505SOL     OW20410   3.214   3.776   9.478
 6505SOL    HW120411   3.249   3.735   9.394
 6505SOL    HW220412   3.124   3.738   9.498
 6506SOL     OW20413   3.162   4.177  10.001
 6506SOL    HW120414   3.103   4.257  10.005
 6506SOL    HW220415   3.177   4.142  10.094
 6507SOL     OW20416   3.455   3.945  10.192
 6507SOL    HW120417   3.371   3.944  10.246
 6507SOL    HW220418   3.457   4.028  10.136
 6508SOL     OW20419   2.087   3.999  12.168
 6508SOL    HW120420   2.122   3.982  12.260
 6508SOL    HW220421   1.999   3.954  12.156
 6509SOL     OW20422   1.881   4.092  11.819
 6509SOL    HW120423   1.799   4.135  11.858
 6509SOL    HW220424   1.853   4.019  11.756
 6510SOL     OW20425   3.617   4.331  11.403
 6510SOL    HW120426   3.605   4.318  11.304
 6510SOL    HW220427   3.587   4.250  11.452
 6511SOL     OW20428   2.300   4.116  12.671
 6511SOL    HW120429   2.382   4.060  12.680
 6511SOL    HW220430   2.219   4.058  12.675
 6512SOL     OW20431   3.456   3.838  12.652
 6512SOL    HW120432   3.438   3.905  12.580
 6512SOL    HW220433   3.453   3.884  12.741
 6513SOL     OW20434   2.671   3.728  11.674
 6513SOL    HW120435   2.711   3.819  11.665
 6513SOL    HW220436   2.571   3.736  11.680
 6514SOL     OW20437   3.143   4.069  12.116
 6514SOL    HW120438   3.057   4.019  12.103
 6514SOL    HW220439   3.205   4.015  12.172
 6515SOL     OW20440   2.412   3.920  12.057
 6515SOL    HW120441   2.407   3.915  12.157
 6515SOL    HW220442   2.414   4.016  12.028
 6516SOL     OW20443   2.064   4.009  12.670
 6516SOL    HW120444   1.984   4.069  12.657
 6516SOL    HW220445   2.054   3.960  12.756
 6517SOL     OW20446   3.262   3.831  11.598
 6517SOL    HW120447   3.238   3.794  11.508
 6517SOL    HW220448   3.361   3.847  11.602
 6518SOL     OW20449   3.409   3.946  12.901
 6518SOL    HW120450   3.404   3.983  12.993
 6518SOL    HW220451   3.337   3.877  12.889
 6519SOL     OW20452   2.476   3.846  11.289
 6519SOL    HW120453   2.574   3.824  11.296
 6519SOL    HW220454   2.445   3.829  11.196
 6520SOL     OW20455   2.643   3.988  12.921
 6520SOL    HW120456   2.710   3.927  12.964
 6520SOL    HW220457   2.570   4.007  12.986
 6521SOL     OW20458   2.401   3.788  11.684
 6521SOL    HW120459   2.320   3.789  11.742
 6521SOL    HW220460   2.404   3.871  11.629
 6522SOL     OW20461   2.159   3.759  11.343
 6522SOL    HW120462   2.208   3.843  11.322
 6522SOL    HW220463   2.221   3.694  11.388
 6523SOL     OW20464   2.423   3.946  12.319
 6523SOL    HW120465   2.461   3.862  12.356
 6523SOL    HW220466   2.335   3.965  12.363
 6524SOL     OW20467   2.879   3.763  11.925
 6524SOL    HW120468   2.807   3.768  11.856
 6524SOL    HW220469   2.855   3.694  11.994
 6525SOL     OW20470   2.777   3.813  12.574
 6525SOL    HW120471   2.802   3.793  12.479
 6525SOL    HW220472   2.849   3.869  12.616
 6526SOL     OW20473   3.136   4.110  12.434
 6526SOL    HW120474   3.157   4.184  12.498
 6526SOL    HW220475   3.047   4.127  12.391
 6527SOL     OW20476   2.366   3.774  12.912
 6527SOL    HW120477   2.324   3.717  12.842
 6527SOL    HW220478   2.300   3.843  12.944
 6528SOL     OW20479   2.169   3.937  12.403
 6528SOL    HW120480   2.146   3.974  12.493
 6528SOL    HW220481   2.139   3.842  12.397
 6529SOL     OW20482   3.402   3.998  11.297
 6529SOL    HW120483   3.341   3.923  11.320
 6529SOL    HW220484   3.424   4.050  11.380
 6530SOL     OW20485   3.022   3.931  12.649
 6530SOL    HW120486   3.022   3.995  12.726
 6530SOL    HW220487   3.050   3.979  12.566
 6531SOL     OW20488   2.765   3.810  11.305
 6531SOL    HW120489   2.816   3.811  11.219
 6531SOL    HW220490   2.821   3.768  11.376
 6532SOL     OW20491   3.588   3.859  11.695
 6532SOL    HW120492   3.661   3.842  11.628
 6532SOL    HW220493   3.557   3.772  11.733
 6533SOL     OW20494   3.703   3.899  12.135
 6533SOL    HW120495   3.742   3.814  12.099
 6533SOL    HW220496   3.605   3.901  12.116
 6534SOL     OW20497   2.534   3.927  12.661
 6534SOL    HW120498   2.624   3.911  12.621
 6534SOL    HW220499   2.542   3.932  12.760
 6535SOL     OW20500   1.937   4.069  11.205
 6535SOL    HW120501   1.845   4.041  11.176
 6535SOL    HW220502   1.968   4.146  11.149
 6536SOL     OW20503   1.934   3.890  11.490
 6536SOL    HW120504   1.917   3.973  11.436
 6536SOL    HW220505   2.024   3.853  11.468
 6537SOL     OW20506   3.087   4.049  11.621
 6537SOL    HW120507   3.152   3.975  11.610
 6537SOL    HW220508   3.107   4.099  11.705
 6538SOL     OW20509   3.639   4.066  12.814
 6538SOL    HW120510   3.622   4.097  12.720
 6538SOL    HW220511   3.555   4.029  12.852
 6539SOL     OW20512   3.686   3.916  12.399
 6539SOL    HW120513   3.682   3.826  12.443
 6539SOL    HW220514   3.689   3.905  12.300
 6540SOL     OW20515   3.286   3.938  12.284
 6540SOL    HW120516   3.338   3.873  12.339
 6540SOL    HW220517   3.237   4.001  12.345
 6541SOL     OW20518   2.863   3.758  12.326
 6541SOL    HW120519   2.800   3.686  12.295
 6541SOL    HW220520   2.956   3.722  12.326
 6542SOL     OW20521   3.214   3.776  11.340
 6542SOL    HW120522   3.249   3.735  11.256
 6542SOL    HW220523   3.124   3.738  11.360
 6543SOL     OW20524   3.162   4.177  11.863
 6543SOL    HW120525   3.103   4.257  11.867
 6543SOL    HW220526   3.177   4.142  11.956
 6544SOL     OW20527   3.455   3.945  12.054
 6544SOL    HW120528   3.371   3.944  12.108
 6544SOL    HW220529   3.457   4.028  11.998
 6545SOL     OW20530   1.881   4.092  13.681
 6545SOL    HW120531   1.799   4.135  13.720
 6545SOL    HW220532   1.853   4.019  13.618
 6546SOL     OW20533   3.617   4.331  13.265
 6546SOL    HW120534   3.605   4.318  13.166
 6546SOL    HW220535   3.587   4.250  13.314
 6547SOL     OW20536   3.465   4.171  13.771
 6547SOL    HW120537   3.391   4.217  13.721
 6547SOL    HW220538   3.516   4.239  13.824
 6548SOL     OW20539   2.671   3.728  13.536
 6548SOL    HW120540   2.711   3.819  13.527
 6548SOL    HW220541   2.571   3.736  13.542
 6549SOL     OW20542   3.262   3.831  13.460
 6549SOL    HW120543   3.238   3.794  13.370
 6549SOL    HW220544   3.361   3.847  13.464
 6550SOL     OW20545   2.476   3.846  13.151
 6550SOL    HW120546   2.574   3.824  13.158
 6550SOL    HW220547   2.445   3.829  13.058
 6551SOL     OW20548   2.401   3.788  13.546
 6551SOL    HW120549   2.320   3.789  13.604
 6551SOL    HW220550   2.404   3.871  13.491
 6552SOL     OW20551   2.159   3.759  13.205
 6552SOL    HW120552   2.208   3.843  13.184
 6552SOL    HW220553   2.221   3.694  13.250
 6553SOL     OW20554   2.879   3.763  13.787
 6553SOL    HW120555   2.807   3.768  13.718
 6553SOL    HW220556   2.855   3.694  13.856
 6554SOL     OW20557   3.402   3.998  13.159
 6554SOL    HW120558   3.341   3.923  13.182
 6554SOL    HW220559   3.424   4.050  13.242
 6555SOL     OW20560   2.765   3.810  13.167
 6555SOL    HW120561   2.816   3.811  13.081
 6555SOL    HW220562   2.821   3.768  13.238
 6556SOL     OW20563   3.588   3.859  13.557
 6556SOL    HW120564   3.661   3.842  13.490
 6556SOL    HW220565   3.557   3.772  13.595
 6557SOL     OW20566   3.703   3.899  13.997
 6557SOL    HW120567   3.742   3.814  13.961
 6557SOL    HW220568   3.605   3.901  13.978
 6558SOL     OW20569   1.937   4.069  13.067
 6558SOL    HW120570   1.845   4.041  13.038
 6558SOL    HW220571   1.968   4.146  13.011
 6559SOL     OW20572   1.934   3.890  13.352
 6559SOL    HW120573   1.917   3.973  13.298
 6559SOL    HW220574   2.024   3.853  13.330
 6560SOL     OW20575   3.087   4.049  13.483
 6560SOL    HW120576   3.152   3.975  13.472
 6560SOL    HW220577   3.107   4.099  13.567
 6561SOL     OW20578   3.214   3.776  13.202
 6561SOL    HW120579   3.249   3.735  13.118
 6561SOL    HW220580   3.124   3.738  13.222
 6562SOL     OW20581   3.162   4.177  13.725
 6562SOL    HW120582   3.103   4.257  13.729
 6562SOL    HW220583   3.177   4.142  13.818
 6563SOL     OW20584   3.954   0.628   0.113
 6563SOL    HW120585   3.861   0.626   0.150
 6563SOL    HW220586   3.955   0.589   0.021
 6564SOL     OW20587   3.949   0.275   0.996
 6564SOL    HW120588   3.984   0.258   1.088
 6564SOL    HW220589   3.861   0.230   0.984
 6565SOL     OW20590   3.743   0.368   0.647
 6565SOL    HW120591   3.661   0.411   0.686
 6565SOL    HW220592   3.715   0.295   0.584
 6566SOL     OW20593   4.059   1.435   1.061
 6566SOL    HW120594   3.981   1.404   1.008
 6566SOL    HW220595   4.117   1.493   1.004
 6567SOL     OW20596   3.955   1.713   0.483
 6567SOL    HW120597   3.989   1.790   0.537
 6567SOL    HW220598   3.999   1.713   0.393
 6568SOL     OW20599   3.954   1.434   0.538
 6568SOL    HW120600   3.928   1.530   0.538
 6568SOL    HW220601   3.883   1.380   0.583
 6569SOL     OW20602   3.846   0.643   0.563
 6569SOL    HW120603   3.801   0.555   0.580
 6569SOL    HW220604   3.845   0.697   0.647
 6570SOL     OW20605   3.751   1.596   0.117
 6570SOL    HW120606   3.732   1.500   0.138
 6570SOL    HW220607   3.718   1.654   0.192
 6571SOL     OW20608   3.837   0.737   1.597
 6571SOL    HW120609   3.925   0.724   1.642
 6571SOL    HW220610   3.824   0.834   1.575
 6572SOL     OW20611   3.800   0.811   0.789
 6572SOL    HW120612   3.899   0.799   0.798
 6572SOL    HW220613   3.776   0.906   0.810
 6573SOL     OW20614   3.854   1.821   1.571
 6573SOL    HW120615   3.844   1.806   1.670
 6573SOL    HW220616   3.768   1.857   1.535
 6574SOL     OW20617   3.926   0.285   1.498
 6574SOL    HW120618   3.846   0.345   1.485
 6574SOL    HW220619   3.916   0.236   1.584
 6575SOL     OW20620   3.802   0.556   1.386
 6575SOL    HW120621   3.894   0.555   1.345
 6575SOL    HW220622   3.796   0.630   1.453
 6576SOL     OW20623   3.788   1.564   1.331
 6576SOL    HW120624   3.742   1.646   1.297
 6576SOL    HW220625   3.886   1.583   1.340
 6577SOL     OW20626   4.091   1.100   0.501
 6577SOL    HW120627   4.084   1.183   0.445
 6577SOL    HW220628   4.095   1.020   0.441
 6578SOL     OW20629   4.031   0.213   1.231
 6578SOL    HW120630   4.008   0.250   1.321
 6578SOL    HW220631   4.001   0.118   1.225
 6579SOL     OW20632   3.761   1.310   1.282
 6579SOL    HW120633   3.814   1.261   1.350
 6579SOL    HW220634   3.783   1.408   1.287
 6580SOL     OW20635   3.732   1.326   0.200
 6580SOL    HW120636   3.639   1.347   0.169
 6580SOL    HW220637   3.742   1.227   0.213
 6581SOL     OW20638   3.812   1.801   0.927
 6581SOL    HW120639   3.770   1.715   0.900
 6581SOL    HW220640   3.906   1.804   0.893
 6582SOL     OW20641   4.228   1.568   0.910
 6582SOL    HW120642   4.294   1.642   0.919
 6582SOL    HW220643   4.272   1.489   0.868
 6583SOL     OW20644   3.764   0.544   1.114
 6583SOL    HW120645   3.849   0.511   1.073
 6583SOL    HW220646   3.777   0.559   1.212
 6584SOL     OW20647   3.913   0.520   1.722
 6584SOL    HW120648   3.972   0.480   1.652
 6584SOL    HW220649   3.855   0.591   1.681
 6585SOL     OW20650   3.976   1.564   1.744
 6585SOL    HW120651   3.946   1.621   1.820
 6585SOL    HW220652   3.969   1.467   1.770
 6586SOL     OW20653   3.883   1.137   1.466
 6586SOL    HW120654   3.905   1.076   1.542
 6586SOL    HW220655   3.893   1.088   1.380
 6587SOL     OW20656   3.807   1.258   1.022
 6587SOL    HW120657   3.802   1.257   1.122
 6587SOL    HW220658   3.724   1.217   0.984
 6588SOL     OW20659   3.854   1.794   1.851
 6588SOL    HW120660   3.813   1.720   1.904
 6588SOL    HW220661   3.918   1.845   1.909
 6589SOL     OW20662   3.799   0.345   0.033
 6589SOL    HW120663   3.707   0.317   0.004
 6589SOL    HW220664   3.830   0.422  -0.023
 6590SOL     OW20665   3.796   0.166   0.318
 6590SOL    HW120666   3.779   0.249   0.264
 6590SOL    HW220667   3.886   0.129   0.296
 6591SOL     OW20668   3.803   1.240   0.653
 6591SOL    HW120669   3.802   1.193   0.741
 6591SOL    HW220670   3.885   1.212   0.602
 6592SOL     OW20671   3.763   1.077   0.300
 6592SOL    HW120672   3.862   1.066   0.291
 6592SOL    HW220673   3.723   0.991   0.332
 6593SOL     OW20674   3.954   0.628   1.975
 6593SOL    HW120675   3.861   0.626   2.012
 6593SOL    HW220676   3.955   0.589   1.883
 6594SOL     OW20677   3.949   0.275   2.858
 6594SOL    HW120678   3.984   0.258   2.950
 6594SOL    HW220679   3.861   0.230   2.846
 6595SOL     OW20680   3.743   0.368   2.509
 6595SOL    HW120681   3.661   0.411   2.548
 6595SOL    HW220682   3.715   0.295   2.446
 6596SOL     OW20683   4.059   1.435   2.923
 6596SOL    HW120684   3.981   1.404   2.870
 6596SOL    HW220685   4.117   1.493   2.866
 6597SOL     OW20686   3.955   1.713   2.345
 6597SOL    HW120687   3.989   1.790   2.399
 6597SOL    HW220688   3.999   1.713   2.255
 6598SOL     OW20689   3.954   1.434   2.400
 6598SOL    HW120690   3.928   1.530   2.400
 6598SOL    HW220691   3.883   1.380   2.445
 6599SOL     OW20692   3.846   0.643   2.425
 6599SOL    HW120693   3.801   0.555   2.442
 6599SOL    HW220694   3.845   0.697   2.509
 6600SOL     OW20695   3.751   1.596   1.979
 6600SOL    HW120696   3.732   1.500   2.000
 6600SOL    HW220697   3.718   1.654   2.054
 6601SOL     OW20698   3.837   0.737   3.459
 6601SOL    HW120699   3.925   0.724   3.504
 6601SOL    HW220700   3.824   0.834   3.437
 6602SOL     OW20701   3.800   0.811   2.651
 6602SOL    HW120702   3.899   0.799   2.660
 6602SOL    HW220703   3.776   0.906   2.672
 6603SOL     OW20704   3.854   1.821   3.433
 6603SOL    HW120705   3.844   1.806   3.532
 6603SOL    HW220706   3.768   1.857   3.397
 6604SOL     OW20707   3.926   0.285   3.360
 6604SOL    HW120708   3.846   0.345   3.347
 6604SOL    HW220709   3.916   0.236   3.446
 6605SOL     OW20710   3.802   0.556   3.248
 6605SOL    HW120711   3.894   0.555   3.207
 6605SOL    HW220712   3.796   0.630   3.315
 6606SOL     OW20713   4.251   0.256   2.190
 6606SOL    HW120714   4.278   0.197   2.115
 6606SOL    HW220715   4.251   0.351   2.159
 6607SOL     OW20716   3.788   1.564   3.193
 6607SOL    HW120717   3.742   1.646   3.159
 6607SOL    HW220718   3.886   1.583   3.202
 6608SOL     OW20719   4.091   1.100   2.363
 6608SOL    HW120720   4.084   1.183   2.307
 6608SOL    HW220721   4.095   1.020   2.303
 6609SOL     OW20722   4.031   0.213   3.093
 6609SOL    HW120723   4.008   0.250   3.183
 6609SOL    HW220724   4.001   0.118   3.087
 6610SOL     OW20725   3.761   1.310   3.144
 6610SOL    HW120726   3.814   1.261   3.212
 6610SOL    HW220727   3.783   1.408   3.149
 6611SOL     OW20728   3.732   1.326   2.062
 6611SOL    HW120729   3.639   1.347   2.031
 6611SOL    HW220730   3.742   1.227   2.075
 6612SOL     OW20731   3.812   1.801   2.789
 6612SOL    HW120732   3.770   1.715   2.762
 6612SOL    HW220733   3.906   1.804   2.755
 6613SOL     OW20734   4.228   1.568   2.772
 6613SOL    HW120735   4.294   1.642   2.781
 6613SOL    HW220736   4.272   1.489   2.730
 6614SOL     OW20737   3.764   0.544   2.976
 6614SOL    HW120738   3.849   0.511   2.935
 6614SOL    HW220739   3.777   0.559   3.074
 6615SOL     OW20740   3.913   0.520   3.584
 6615SOL    HW120741   3.972   0.480   3.514
 6615SOL    HW220742   3.855   0.591   3.543
 6616SOL     OW20743   3.976   1.564   3.606
 6616SOL    HW120744   3.946   1.621   3.682
 6616SOL    HW220745   3.969   1.467   3.632
 6617SOL     OW20746   3.883   1.137   3.328
 6617SOL    HW120747   3.905   1.076   3.404
 6617SOL    HW220748   3.893   1.088   3.242
 6618SOL     OW20749   3.807   1.258   2.884
 6618SOL    HW120750   3.802   1.257   2.984
 6618SOL    HW220751   3.724   1.217   2.846
 6619SOL     OW20752   3.854   1.794   3.713
 6619SOL    HW120753   3.813   1.720   3.766
 6619SOL    HW220754   3.918   1.845   3.771
 6620SOL     OW20755   3.799   0.345   1.895
 6620SOL    HW120756   3.707   0.317   1.866
 6620SOL    HW220757   3.830   0.422   1.839
 6621SOL     OW20758   3.796   0.166   2.180
 6621SOL    HW120759   3.779   0.249   2.126
 6621SOL    HW220760   3.886   0.129   2.158
 6622SOL     OW20761   3.803   1.240   2.515
 6622SOL    HW120762   3.802   1.193   2.603
 6622SOL    HW220763   3.885   1.212   2.464
 6623SOL     OW20764   3.763   1.077   2.162
 6623SOL    HW120765   3.862   1.066   2.153
 6623SOL    HW220766   3.723   0.991   2.194
 6624SOL     OW20767   3.954   0.628   3.837
 6624SOL    HW120768   3.861   0.626   3.874
 6624SOL    HW220769   3.955   0.589   3.745
 6625SOL     OW20770   3.949   0.275   4.720
 6625SOL    HW120771   3.984   0.258   4.812
 6625SOL    HW220772   3.861   0.230   4.708
 6626SOL     OW20773   3.743   0.368   4.371
 6626SOL    HW120774   3.661   0.411   4.410
 6626SOL    HW220775   3.715   0.295   4.308
 6627SOL     OW20776   4.059   1.435   4.785
 6627SOL    HW120777   3.981   1.404   4.732
 6627SOL    HW220778   4.117   1.493   4.728
 6628SOL     OW20779   3.955   1.713   4.207
 6628SOL    HW120780   3.989   1.790   4.261
 6628SOL    HW220781   3.999   1.713   4.117
 6629SOL     OW20782   3.954   1.434   4.262
 6629SOL    HW120783   3.928   1.530   4.262
 6629SOL    HW220784   3.883   1.380   4.307
 6630SOL     OW20785   3.846   0.643   4.287
 6630SOL    HW120786   3.801   0.555   4.304
 6630SOL    HW220787   3.845   0.697   4.371
 6631SOL     OW20788   3.751   1.596   3.841
 6631SOL    HW120789   3.732   1.500   3.862
 6631SOL    HW220790   3.718   1.654   3.916
 6632SOL     OW20791   3.837   0.737   5.321
 6632SOL    HW120792   3.925   0.724   5.366
 6632SOL    HW220793   3.824   0.834   5.299
 6633SOL     OW20794   3.800   0.811   4.513
 6633SOL    HW120795   3.899   0.799   4.522
 6633SOL    HW220796   3.776   0.906   4.534
 6634SOL     OW20797   3.854   1.821   5.295
 6634SOL    HW120798   3.844   1.806   5.394
 6634SOL    HW220799   3.768   1.857   5.259
 6635SOL     OW20800   3.926   0.285   5.222
 6635SOL    HW120801   3.846   0.345   5.209
 6635SOL    HW220802   3.916   0.236   5.308
 6636SOL     OW20803   3.802   0.556   5.110
 6636SOL    HW120804   3.894   0.555   5.069
 6636SOL    HW220805   3.796   0.630   5.177
 6637SOL     OW20806   4.251   0.256   4.052
 6637SOL    HW120807   4.278   0.197   3.977
 6637SOL    HW220808   4.251   0.351   4.021
 6638SOL     OW20809   3.788   1.564   5.055
 6638SOL    HW120810   3.742   1.646   5.021
 6638SOL    HW220811   3.886   1.583   5.064
 6639SOL     OW20812   4.091   1.100   4.225
 6639SOL    HW120813   4.084   1.183   4.169
 6639SOL    HW220814   4.095   1.020   4.165
 6640SOL     OW20815   4.031   0.213   4.955
 6640SOL    HW120816   4.008   0.250   5.045
 6640SOL    HW220817   4.001   0.118   4.949
 6641SOL     OW20818   3.761   1.310   5.006
 6641SOL    HW120819   3.814   1.261   5.074
 6641SOL    HW220820   3.783   1.408   5.011
 6642SOL     OW20821   3.732   1.326   3.924
 6642SOL    HW120822   3.639   1.347   3.893
 6642SOL    HW220823   3.742   1.227   3.937
 6643SOL     OW20824   3.812   1.801   4.651
 6643SOL    HW120825   3.770   1.715   4.624
 6643SOL    HW220826   3.906   1.804   4.617
 6644SOL     OW20827   4.228   1.568   4.634
 6644SOL    HW120828   4.294   1.642   4.643
 6644SOL    HW220829   4.272   1.489   4.592
 6645SOL     OW20830   3.764   0.544   4.838
 6645SOL    HW120831   3.849   0.511   4.797
 6645SOL    HW220832   3.777   0.559   4.936
 6646SOL     OW20833   3.913   0.520   5.446
 6646SOL    HW120834   3.972   0.480   5.376
 6646SOL    HW220835   3.855   0.591   5.405
 6647SOL     OW20836   3.976   1.564   5.468
 6647SOL    HW120837   3.946   1.621   5.544
 6647SOL    HW220838   3.969   1.467   5.494
 6648SOL     OW20839   3.883   1.137   5.190
 6648SOL    HW120840   3.905   1.076   5.266
 6648SOL    HW220841   3.893   1.088   5.104
 6649SOL     OW20842   3.807   1.258   4.746
 6649SOL    HW120843   3.802   1.257   4.846
 6649SOL    HW220844   3.724   1.217   4.708
 6650SOL     OW20845   3.854   1.794   5.575
 6650SOL    HW120846   3.813   1.720   5.628
 6650SOL    HW220847   3.918   1.845   5.633
 6651SOL     OW20848   3.799   0.345   3.757
 6651SOL    HW120849   3.707   0.317   3.728
 6651SOL    HW220850   3.830   0.422   3.701
 6652SOL     OW20851   3.796   0.166   4.042
 6652SOL    HW120852   3.779   0.249   3.988
 6652SOL    HW220853   3.886   0.129   4.020
 6653SOL     OW20854   3.803   1.240   4.377
 6653SOL    HW120855   3.802   1.193   4.465
 6653SOL    HW220856   3.885   1.212   4.326
 6654SOL     OW20857   3.763   1.077   4.024
 6654SOL    HW120858   3.862   1.066   4.015
 6654SOL    HW220859   3.723   0.991   4.056
 6655SOL     OW20860   3.954   0.628   5.699
 6655SOL    HW120861   3.861   0.626   5.736
 6655SOL    HW220862   3.955   0.589   5.607
 6656SOL     OW20863   3.949   0.275   6.582
 6656SOL    HW120864   3.984   0.258   6.674
 6656SOL    HW220865   3.861   0.230   6.570
 6657SOL     OW20866   3.743   0.368   6.233
 6657SOL    HW120867   3.661   0.411   6.272
 6657SOL    HW220868   3.715   0.295   6.170
 6658SOL     OW20869   4.059   1.435   6.647
 6658SOL    HW120870   3.981   1.404   6.594
 6658SOL    HW220871   4.117   1.493   6.590
 6659SOL     OW20872   3.955   1.713   6.069
 6659SOL    HW120873   3.989   1.790   6.123
 6659SOL    HW220874   3.999   1.713   5.979
 6660SOL     OW20875   3.954   1.434   6.124
 6660SOL    HW120876   3.928   1.530   6.124
 6660SOL    HW220877   3.883   1.380   6.169
 6661SOL     OW20878   3.846   0.643   6.149
 6661SOL    HW120879   3.801   0.555   6.166
 6661SOL    HW220880   3.845   0.697   6.233
 6662SOL     OW20881   3.751   1.596   5.703
 6662SOL    HW120882   3.732   1.500   5.724
 6662SOL    HW220883   3.718   1.654   5.778
 6663SOL     OW20884   3.837   0.737   7.183
 6663SOL    HW120885   3.925   0.724   7.228
 6663SOL    HW220886   3.824   0.834   7.161
 6664SOL     OW20887   3.800   0.811   6.375
 6664SOL    HW120888   3.899   0.799   6.384
 6664SOL    HW220889   3.776   0.906   6.396
 6665SOL     OW20890   3.854   1.821   7.157
 6665SOL    HW120891   3.844   1.806   7.256
 6665SOL    HW220892   3.768   1.857   7.121
 6666SOL     OW20893   3.926   0.285   7.084
 6666SOL    HW120894   3.846   0.345   7.071
 6666SOL    HW220895   3.916   0.236   7.170
 6667SOL     OW20896   3.802   0.556   6.972
 6667SOL    HW120897   3.894   0.555   6.931
 6667SOL    HW220898   3.796   0.630   7.039
 6668SOL     OW20899   4.251   0.256   5.914
 6668SOL    HW120900   4.278   0.197   5.839
 6668SOL    HW220901   4.251   0.351   5.883
 6669SOL     OW20902   3.788   1.564   6.917
 6669SOL    HW120903   3.742   1.646   6.883
 6669SOL    HW220904   3.886   1.583   6.926
 6670SOL     OW20905   4.091   1.100   6.087
 6670SOL    HW120906   4.084   1.183   6.031
 6670SOL    HW220907   4.095   1.020   6.027
 6671SOL     OW20908   4.031   0.213   6.817
 6671SOL    HW120909   4.008   0.250   6.907
 6671SOL    HW220910   4.001   0.118   6.811
 6672SOL     OW20911   3.761   1.310   6.868
 6672SOL    HW120912   3.814   1.261   6.936
 6672SOL    HW220913   3.783   1.408   6.873
 6673SOL     OW20914   3.732   1.326   5.786
 6673SOL    HW120915   3.639   1.347   5.755
 6673SOL    HW220916   3.742   1.227   5.799
 6674SOL     OW20917   3.812   1.801   6.513
 6674SOL    HW120918   3.770   1.715   6.486
 6674SOL    HW220919   3.906   1.804   6.479
 6675SOL     OW20920   4.228   1.568   6.496
 6675SOL    HW120921   4.294   1.642   6.505
 6675SOL    HW220922   4.272   1.489   6.454
 6676SOL     OW20923   3.764   0.544   6.700
 6676SOL    HW120924   3.849   0.511   6.659
 6676SOL    HW220925   3.777   0.559   6.798
 6677SOL     OW20926   3.913   0.520   7.308
 6677SOL    HW120927   3.972   0.480   7.238
 6677SOL    HW220928   3.855   0.591   7.267
 6678SOL     OW20929   3.976   1.564   7.330
 6678SOL    HW120930   3.946   1.621   7.406
 6678SOL    HW220931   3.969   1.467   7.356
 6679SOL     OW20932   3.883   1.137   7.052
 6679SOL    HW120933   3.905   1.076   7.128
 6679SOL    HW220934   3.893   1.088   6.966
 6680SOL     OW20935   3.807   1.258   6.608
 6680SOL    HW120936   3.802   1.257   6.708
 6680SOL    HW220937   3.724   1.217   6.570
 6681SOL     OW20938   3.854   1.794   7.437
 6681SOL    HW120939   3.813   1.720   7.490
 6681SOL    HW220940   3.918   1.845   7.495
 6682SOL     OW20941   3.799   0.345   5.619
 6682SOL    HW120942   3.707   0.317   5.590
 6682SOL    HW220943   3.830   0.422   5.563
 6683SOL     OW20944   3.796   0.166   5.904
 6683SOL    HW120945   3.779   0.249   5.850
 6683SOL    HW220946   3.886   0.129   5.882
 6684SOL     OW20947   3.803   1.240   6.239
 6684SOL    HW120948   3.802   1.193   6.327
 6684SOL    HW220949   3.885   1.212   6.188
 6685SOL     OW20950   3.763   1.077   5.886
 6685SOL    HW120951   3.862   1.066   5.877
 6685SOL    HW220952   3.723   0.991   5.918
 6686SOL     OW20953   3.954   0.628   7.561
 6686SOL    HW120954   3.861   0.626   7.598
 6686SOL    HW220955   3.955   0.589   7.469
 6687SOL     OW20956   3.949   0.275   8.444
 6687SOL    HW120957   3.984   0.258   8.536
 6687SOL    HW220958   3.861   0.230   8.432
 6688SOL     OW20959   3.743   0.368   8.095
 6688SOL    HW120960   3.661   0.411   8.134
 6688SOL    HW220961   3.715   0.295   8.032
 6689SOL     OW20962   4.059   1.435   8.509
 6689SOL    HW120963   3.981   1.404   8.456
 6689SOL    HW220964   4.117   1.493   8.452
 6690SOL     OW20965   3.955   1.713   7.931
 6690SOL    HW120966   3.989   1.790   7.985
 6690SOL    HW220967   3.999   1.713   7.841
 6691SOL     OW20968   3.954   1.434   7.986
 6691SOL    HW120969   3.928   1.530   7.986
 6691SOL    HW220970   3.883   1.380   8.031
 6692SOL     OW20971   3.846   0.643   8.011
 6692SOL    HW120972   3.801   0.555   8.028
 6692SOL    HW220973   3.845   0.697   8.095
 6693SOL     OW20974   3.751   1.596   7.565
 6693SOL    HW120975   3.732   1.500   7.586
 6693SOL    HW220976   3.718   1.654   7.640
 6694SOL     OW20977   3.837   0.737   9.045
 6694SOL    HW120978   3.925   0.724   9.090
 6694SOL    HW220979   3.824   0.834   9.023
 6695SOL     OW20980   3.800   0.811   8.237
 6695SOL    HW120981   3.899   0.799   8.246
 6695SOL    HW220982   3.776   0.906   8.258
 6696SOL     OW20983   3.854   1.821   9.019
 6696SOL    HW120984   3.844   1.806   9.118
 6696SOL    HW220985   3.768   1.857   8.983
 6697SOL     OW20986   3.926   0.285   8.946
 6697SOL    HW120987   3.846   0.345   8.933
 6697SOL    HW220988   3.916   0.236   9.032
 6698SOL     OW20989   3.802   0.556   8.834
 6698SOL    HW120990   3.894   0.555   8.793
 6698SOL    HW220991   3.796   0.630   8.901
 6699SOL     OW20992   4.251   0.256   7.776
 6699SOL    HW120993   4.278   0.197   7.701
 6699SOL    HW220994   4.251   0.351   7.745
 6700SOL     OW20995   3.788   1.564   8.779
 6700SOL    HW120996   3.742   1.646   8.745
 6700SOL    HW220997   3.886   1.583   8.788
 6701SOL     OW20998   4.091   1.100   7.949
 6701SOL    HW120999   4.084   1.183   7.893
 6701SOL    HW221000   4.095   1.020   7.889
 6702SOL     OW21001   4.031   0.213   8.679
 6702SOL    HW121002   4.008   0.250   8.769
 6702SOL    HW221003   4.001   0.118   8.673
 6703SOL     OW21004   3.761   1.310   8.730
 6703SOL    HW121005   3.814   1.261   8.798
 6703SOL    HW221006   3.783   1.408   8.735
 6704SOL     OW21007   3.732   1.326   7.648
 6704SOL    HW121008   3.639   1.347   7.617
 6704SOL    HW221009   3.742   1.227   7.661
 6705SOL     OW21010   3.812   1.801   8.375
 6705SOL    HW121011   3.770   1.715   8.348
 6705SOL    HW221012   3.906   1.804   8.341
 6706SOL     OW21013   4.228   1.568   8.358
 6706SOL    HW121014   4.294   1.642   8.367
 6706SOL    HW221015   4.272   1.489   8.316
 6707SOL     OW21016   3.764   0.544   8.562
 6707SOL    HW121017   3.849   0.511   8.521
 6707SOL    HW221018   3.777   0.559   8.660
 6708SOL     OW21019   3.913   0.520   9.170
 6708SOL    HW121020   3.972   0.480   9.100
 6708SOL    HW221021   3.855   0.591   9.129
 6709SOL     OW21022   3.976   1.564   9.192
 6709SOL    HW121023   3.946   1.621   9.268
 6709SOL    HW221024   3.969   1.467   9.218
 6710SOL     OW21025   3.883   1.137   8.914
 6710SOL    HW121026   3.905   1.076   8.990
 6710SOL    HW221027   3.893   1.088   8.828
 6711SOL     OW21028   3.807   1.258   8.470
 6711SOL    HW121029   3.802   1.257   8.570
 6711SOL    HW221030   3.724   1.217   8.432
 6712SOL     OW21031   3.854   1.794   9.299
 6712SOL    HW121032   3.813   1.720   9.352
 6712SOL    HW221033   3.918   1.845   9.357
 6713SOL     OW21034   3.799   0.345   7.481
 6713SOL    HW121035   3.707   0.317   7.452
 6713SOL    HW221036   3.830   0.422   7.425
 6714SOL     OW21037   3.796   0.166   7.766
 6714SOL    HW121038   3.779   0.249   7.712
 6714SOL    HW221039   3.886   0.129   7.744
 6715SOL     OW21040   3.803   1.240   8.101
 6715SOL    HW121041   3.802   1.193   8.189
 6715SOL    HW221042   3.885   1.212   8.050
 6716SOL     OW21043   3.763   1.077   7.748
 6716SOL    HW121044   3.862   1.066   7.739
 6716SOL    HW221045   3.723   0.991   7.780
 6717SOL     OW21046   3.954   0.628   9.423
 6717SOL    HW121047   3.861   0.626   9.460
 6717SOL    HW221048   3.955   0.589   9.331
 6718SOL     OW21049   3.949   0.275  10.306
 6718SOL    HW121050   3.984   0.258  10.398
 6718SOL    HW221051   3.861   0.230  10.294
 6719SOL     OW21052   3.743   0.368   9.957
 6719SOL    HW121053   3.661   0.411   9.996
 6719SOL    HW221054   3.715   0.295   9.894
 6720SOL     OW21055   4.059   1.435  10.371
 6720SOL    HW121056   3.981   1.404  10.318
 6720SOL    HW221057   4.117   1.493  10.314
 6721SOL     OW21058   3.955   1.713   9.793
 6721SOL    HW121059   3.989   1.790   9.847
 6721SOL    HW221060   3.999   1.713   9.703
 6722SOL     OW21061   3.954   1.434   9.848
 6722SOL    HW121062   3.928   1.530   9.848
 6722SOL    HW221063   3.883   1.380   9.893
 6723SOL     OW21064   3.846   0.643   9.873
 6723SOL    HW121065   3.801   0.555   9.890
 6723SOL    HW221066   3.845   0.697   9.957
 6724SOL     OW21067   3.751   1.596   9.427
 6724SOL    HW121068   3.732   1.500   9.448
 6724SOL    HW221069   3.718   1.654   9.502
 6725SOL     OW21070   3.837   0.737  10.907
 6725SOL    HW121071   3.925   0.724  10.952
 6725SOL    HW221072   3.824   0.834  10.885
 6726SOL     OW21073   3.800   0.811  10.099
 6726SOL    HW121074   3.899   0.799  10.108
 6726SOL    HW221075   3.776   0.906  10.120
 6727SOL     OW21076   3.854   1.821  10.881
 6727SOL    HW121077   3.844   1.806  10.980
 6727SOL    HW221078   3.768   1.857  10.845
 6728SOL     OW21079   3.926   0.285  10.808
 6728SOL    HW121080   3.846   0.345  10.795
 6728SOL    HW221081   3.916   0.236  10.894
 6729SOL     OW21082   3.802   0.556  10.696
 6729SOL    HW121083   3.894   0.555  10.655
 6729SOL    HW221084   3.796   0.630  10.763
 6730SOL     OW21085   4.251   0.256   9.638
 6730SOL    HW121086   4.278   0.197   9.563
 6730SOL    HW221087   4.251   0.351   9.607
 6731SOL     OW21088   3.788   1.564  10.641
 6731SOL    HW121089   3.742   1.646  10.607
 6731SOL    HW221090   3.886   1.583  10.650
 6732SOL     OW21091   4.091   1.100   9.811
 6732SOL    HW121092   4.084   1.183   9.755
 6732SOL    HW221093   4.095   1.020   9.751
 6733SOL     OW21094   4.031   0.213  10.541
 6733SOL    HW121095   4.008   0.250  10.631
 6733SOL    HW221096   4.001   0.118  10.535
 6734SOL     OW21097   3.761   1.310  10.592
 6734SOL    HW121098   3.814   1.261  10.660
 6734SOL    HW221099   3.783   1.408  10.597
 6735SOL     OW21100   3.732   1.326   9.510
 6735SOL    HW121101   3.639   1.347   9.479
 6735SOL    HW221102   3.742   1.227   9.523
 6736SOL     OW21103   3.812   1.801  10.237
 6736SOL    HW121104   3.770   1.715  10.210
 6736SOL    HW221105   3.906   1.804  10.203
 6737SOL     OW21106   4.228   1.568  10.220
 6737SOL    HW121107   4.294   1.642  10.229
 6737SOL    HW221108   4.272   1.489  10.178
 6738SOL     OW21109   3.764   0.544  10.424
 6738SOL    HW121110   3.849   0.511  10.383
 6738SOL    HW221111   3.777   0.559  10.522
 6739SOL     OW21112   3.913   0.520  11.032
 6739SOL    HW121113   3.972   0.480  10.962
 6739SOL    HW221114   3.855   0.591  10.991
 6740SOL     OW21115   3.976   1.564  11.054
 6740SOL    HW121116   3.946   1.621  11.130
 6740SOL    HW221117   3.969   1.467  11.080
 6741SOL     OW21118   3.883   1.137  10.776
 6741SOL    HW121119   3.905   1.076  10.852
 6741SOL    HW221120   3.893   1.088  10.690
 6742SOL     OW21121   3.807   1.258  10.332
 6742SOL    HW121122   3.802   1.257  10.432
 6742SOL    HW221123   3.724   1.217  10.294
 6743SOL     OW21124   3.854   1.794  11.161
 6743SOL    HW121125   3.813   1.720  11.214
 6743SOL    HW221126   3.918   1.845  11.219
 6744SOL     OW21127   3.799   0.345   9.343
 6744SOL    HW121128   3.707   0.317   9.314
 6744SOL    HW221129   3.830   0.422   9.287
 6745SOL     OW21130   3.796   0.166   9.628
 6745SOL    HW121131   3.779   0.249   9.574
 6745SOL    HW221132   3.886   0.129   9.606
 6746SOL     OW21133   3.803   1.240   9.963
 6746SOL    HW121134   3.802   1.193  10.051
 6746SOL    HW221135   3.885   1.212   9.912
 6747SOL     OW21136   3.763   1.077   9.610
 6747SOL    HW121137   3.862   1.066   9.601
 6747SOL    HW221138   3.723   0.991   9.642
 6748SOL     OW21139   3.954   0.628  11.285
 6748SOL    HW121140   3.861   0.626  11.322
 6748SOL    HW221141   3.955   0.589  11.193
 6749SOL     OW21142   3.949   0.275  12.168
 6749SOL    HW121143   3.984   0.258  12.260
 6749SOL    HW221144   3.861   0.230  12.156
 6750SOL     OW21145   3.743   0.368  11.819
 6750SOL    HW121146   3.661   0.411  11.858
 6750SOL    HW221147   3.715   0.295  11.756
 6751SOL     OW21148   4.059   1.435  12.233
 6751SOL    HW121149   3.981   1.404  12.180
 6751SOL    HW221150   4.117   1.493  12.176
 6752SOL     OW21151   3.955   1.713  11.655
 6752SOL    HW121152   3.989   1.790  11.709
 6752SOL    HW221153   3.999   1.713  11.565
 6753SOL     OW21154   3.954   1.434  11.710
 6753SOL    HW121155   3.928   1.530  11.710
 6753SOL    HW221156   3.883   1.380  11.755
 6754SOL     OW21157   3.846   0.643  11.735
 6754SOL    HW121158   3.801   0.555  11.752
 6754SOL    HW221159   3.845   0.697  11.819
 6755SOL     OW21160   3.751   1.596  11.289
 6755SOL    HW121161   3.732   1.500  11.310
 6755SOL    HW221162   3.718   1.654  11.364
 6756SOL     OW21163   3.837   0.737  12.769
 6756SOL    HW121164   3.925   0.724  12.814
 6756SOL    HW221165   3.824   0.834  12.747
 6757SOL     OW21166   3.800   0.811  11.961
 6757SOL    HW121167   3.899   0.799  11.970
 6757SOL    HW221168   3.776   0.906  11.982
 6758SOL     OW21169   3.854   1.821  12.743
 6758SOL    HW121170   3.844   1.806  12.842
 6758SOL    HW221171   3.768   1.857  12.707
 6759SOL     OW21172   3.926   0.285  12.670
 6759SOL    HW121173   3.846   0.345  12.657
 6759SOL    HW221174   3.916   0.236  12.756
 6760SOL     OW21175   3.802   0.556  12.558
 6760SOL    HW121176   3.894   0.555  12.517
 6760SOL    HW221177   3.796   0.630  12.625
 6761SOL     OW21178   4.251   0.256  11.500
 6761SOL    HW121179   4.278   0.197  11.425
 6761SOL    HW221180   4.251   0.351  11.469
 6762SOL     OW21181   3.788   1.564  12.503
 6762SOL    HW121182   3.742   1.646  12.469
 6762SOL    HW221183   3.886   1.583  12.512
 6763SOL     OW21184   4.091   1.100  11.673
 6763SOL    HW121185   4.084   1.183  11.617
 6763SOL    HW221186   4.095   1.020  11.613
 6764SOL     OW21187   4.031   0.213  12.403
 6764SOL    HW121188   4.008   0.250  12.493
 6764SOL    HW221189   4.001   0.118  12.397
 6765SOL     OW21190   3.761   1.310  12.454
 6765SOL    HW121191   3.814   1.261  12.522
 6765SOL    HW221192   3.783   1.408  12.459
 6766SOL     OW21193   3.732   1.326  11.372
 6766SOL    HW121194   3.639   1.347  11.341
 6766SOL    HW221195   3.742   1.227  11.385
 6767SOL     OW21196   3.812   1.801  12.099
 6767SOL    HW121197   3.770   1.715  12.072
 6767SOL    HW221198   3.906   1.804  12.065
 6768SOL     OW21199   4.228   1.568  12.082
 6768SOL    HW121200   4.294   1.642  12.091
 6768SOL    HW221201   4.272   1.489  12.040
 6769SOL     OW21202   3.764   0.544  12.286
 6769SOL    HW121203   3.849   0.511  12.245
 6769SOL    HW221204   3.777   0.559  12.384
 6770SOL     OW21205   3.913   0.520  12.894
 6770SOL    HW121206   3.972   0.480  12.824
 6770SOL    HW221207   3.855   0.591  12.853
 6771SOL     OW21208   3.976   1.564  12.916
 6771SOL    HW121209   3.946   1.621  12.992
 6771SOL    HW221210   3.969   1.467  12.942
 6772SOL     OW21211   3.883   1.137  12.638
 6772SOL    HW121212   3.905   1.076  12.714
 6772SOL    HW221213   3.893   1.088  12.552
 6773SOL     OW21214   3.807   1.258  12.194
 6773SOL    HW121215   3.802   1.257  12.294
 6773SOL    HW221216   3.724   1.217  12.156
 6774SOL     OW21217   3.854   1.794  13.023
 6774SOL    HW121218   3.813   1.720  13.076
 6774SOL    HW221219   3.918   1.845  13.081
 6775SOL     OW21220   3.799   0.345  11.205
 6775SOL    HW121221   3.707   0.317  11.176
 6775SOL    HW221222   3.830   0.422  11.149
 6776SOL     OW21223   3.796   0.166  11.490
 6776SOL    HW121224   3.779   0.249  11.436
 6776SOL    HW221225   3.886   0.129  11.468
 6777SOL     OW21226   3.803   1.240  11.825
 6777SOL    HW121227   3.802   1.193  11.913
 6777SOL    HW221228   3.885   1.212  11.774
 6778SOL     OW21229   3.763   1.077  11.472
 6778SOL    HW121230   3.862   1.066  11.463
 6778SOL    HW221231   3.723   0.991  11.504
 6779SOL     OW21232   3.954   0.628  13.147
 6779SOL    HW121233   3.861   0.626  13.184
 6779SOL    HW221234   3.955   0.589  13.055
 6780SOL     OW21235   3.743   0.368  13.681
 6780SOL    HW121236   3.661   0.411  13.720
 6780SOL    HW221237   3.715   0.295  13.618
 6781SOL     OW21238   3.955   1.713  13.517
 6781SOL    HW121239   3.989   1.790  13.571
 6781SOL    HW221240   3.999   1.713  13.427
 6782SOL     OW21241   3.954   1.434  13.572
 6782SOL    HW121242   3.928   1.530  13.572
 6782SOL    HW221243   3.883   1.380  13.617
 6783SOL     OW21244   3.964   1.091  13.920
 6783SOL    HW121245   3.978   1.007  13.972
 6783SOL    HW221246   3.909   1.155  13.975
 6784SOL     OW21247   3.846   0.643  13.597
 6784SOL    HW121248   3.801   0.555  13.614
 6784SOL    HW221249   3.845   0.697  13.681
 6785SOL     OW21250   3.751   1.596  13.151
 6785SOL    HW121251   3.732   1.500  13.172
 6785SOL    HW221252   3.718   1.654  13.226
 6786SOL     OW21253   3.800   0.811  13.823
 6786SOL    HW121254   3.899   0.799  13.832
 6786SOL    HW221255   3.776   0.906  13.844
 6787SOL     OW21256   4.075   1.801  13.887
 6787SOL    HW121257   4.125   1.715  13.893
 6787SOL    HW221258   4.140   1.878  13.884
 6788SOL     OW21259   4.251   0.256  13.362
 6788SOL    HW121260   4.278   0.197  13.287
 6788SOL    HW221261   4.251   0.351  13.331
 6789SOL     OW21262   4.091   1.100  13.535
 6789SOL    HW121263   4.084   1.183  13.479
 6789SOL    HW221264   4.095   1.020  13.475
 6790SOL     OW21265   3.732   1.326  13.234
 6790SOL    HW121266   3.639   1.347  13.203
 6790SOL    HW221267   3.742   1.227  13.247
 6791SOL     OW21268   4.228   1.568  13.944
 6791SOL    HW121269   4.294   1.642  13.953
 6791SOL    HW221270   4.272   1.489  13.902
 6792SOL     OW21271   3.799   0.345  13.067
 6792SOL    HW121272   3.707   0.317  13.038
 6792SOL    HW221273   3.830   0.422  13.011
 6793SOL     OW21274   3.796   0.166  13.352
 6793SOL    HW121275   3.779   0.249  13.298
 6793SOL    HW221276   3.886   0.129  13.330
 6794SOL     OW21277   3.803   1.240  13.687
 6794SOL    HW121278   3.802   1.193  13.775
 6794SOL    HW221279   3.885   1.212  13.636
 6795SOL     OW21280   3.763   1.077  13.334
 6795SOL    HW121281   3.862   1.066  13.325
 6795SOL    HW221282   3.723   0.991  13.366
 6796SOL     OW21283   3.954   2.490   0.113
 6796SOL    HW121284   3.861   2.488   0.150
 6796SOL    HW221285   3.955   2.451   0.021
 6797SOL     OW21286   3.949   2.137   0.996
 6797SOL    HW121287   3.984   2.120   1.088
 6797SOL    HW221288   3.861   2.092   0.984
 6798SOL     OW21289   3.743   2.230   0.647
 6798SOL    HW121290   3.661   2.273   0.686
 6798SOL    HW221291   3.715   2.157   0.584
 6799SOL     OW21292   4.059   3.297   1.061
 6799SOL    HW121293   3.981   3.266   1.008
 6799SOL    HW221294   4.117   3.355   1.004
 6800SOL     OW21295   3.955   3.575   0.483
 6800SOL    HW121296   3.989   3.652   0.537
 6800SOL    HW221297   3.999   3.575   0.393
 6801SOL     OW21298   3.954   3.296   0.538
 6801SOL    HW121299   3.928   3.392   0.538
 6801SOL    HW221300   3.883   3.242   0.583
 6802SOL     OW21301   3.846   2.505   0.563
 6802SOL    HW121302   3.801   2.417   0.580
 6802SOL    HW221303   3.845   2.559   0.647
 6803SOL     OW21304   3.751   3.458   0.117
 6803SOL    HW121305   3.732   3.362   0.138
 6803SOL    HW221306   3.718   3.516   0.192
 6804SOL     OW21307   3.837   2.599   1.597
 6804SOL    HW121308   3.925   2.586   1.642
 6804SOL    HW221309   3.824   2.696   1.575
 6805SOL     OW21310   3.800   2.673   0.789
 6805SOL    HW121311   3.899   2.661   0.798
 6805SOL    HW221312   3.776   2.768   0.810
 6806SOL     OW21313   3.854   3.683   1.571
 6806SOL    HW121314   3.844   3.668   1.670
 6806SOL    HW221315   3.768   3.719   1.535
 6807SOL     OW21316   3.926   2.147   1.498
 6807SOL    HW121317   3.846   2.207   1.485
 6807SOL    HW221318   3.916   2.098   1.584
 6808SOL     OW21319   3.802   2.418   1.386
 6808SOL    HW121320   3.894   2.417   1.345
 6808SOL    HW221321   3.796   2.492   1.453
 6809SOL     OW21322   3.788   3.426   1.331
 6809SOL    HW121323   3.742   3.508   1.297
 6809SOL    HW221324   3.886   3.445   1.340
 6810SOL     OW21325   4.091   2.962   0.501
 6810SOL    HW121326   4.084   3.045   0.445
 6810SOL    HW221327   4.095   2.882   0.441
 6811SOL     OW21328   4.031   2.075   1.231
 6811SOL    HW121329   4.008   2.112   1.321
 6811SOL    HW221330   4.001   1.980   1.225
 6812SOL     OW21331   3.761   3.172   1.282
 6812SOL    HW121332   3.814   3.123   1.350
 6812SOL    HW221333   3.783   3.270   1.287
 6813SOL     OW21334   4.031   1.925   0.618
 6813SOL    HW121335   4.020   2.019   0.651
 6813SOL    HW221336   4.026   1.862   0.695
 6814SOL     OW21337   3.732   3.188   0.200
 6814SOL    HW121338   3.639   3.209   0.169
 6814SOL    HW221339   3.742   3.089   0.213
 6815SOL     OW21340   3.812   3.663   0.927
 6815SOL    HW121341   3.770   3.577   0.900
 6815SOL    HW221342   3.906   3.666   0.893
 6816SOL     OW21343   4.228   3.430   0.910
 6816SOL    HW121344   4.294   3.504   0.919
 6816SOL    HW221345   4.272   3.351   0.868
 6817SOL     OW21346   3.764   2.406   1.114
 6817SOL    HW121347   3.849   2.373   1.073
 6817SOL    HW221348   3.777   2.421   1.212
 6818SOL     OW21349   3.913   2.382   1.722
 6818SOL    HW121350   3.972   2.342   1.652
 6818SOL    HW221351   3.855   2.453   1.681
 6819SOL     OW21352   3.976   3.426   1.744
 6819SOL    HW121353   3.946   3.483   1.820
 6819SOL    HW221354   3.969   3.329   1.770
 6820SOL     OW21355   3.883   2.999   1.466
 6820SOL    HW121356   3.905   2.938   1.542
 6820SOL    HW221357   3.893   2.950   1.380
 6821SOL     OW21358   3.807   3.120   1.022
 6821SOL    HW121359   3.802   3.119   1.122
 6821SOL    HW221360   3.724   3.079   0.984
 6822SOL     OW21361   3.854   3.656   1.851
 6822SOL    HW121362   3.813   3.582   1.904
 6822SOL    HW221363   3.918   3.707   1.909
 6823SOL     OW21364   3.799   2.207   0.033
 6823SOL    HW121365   3.707   2.179   0.004
 6823SOL    HW221366   3.830   2.284  -0.023
 6824SOL     OW21367   3.796   2.028   0.318
 6824SOL    HW121368   3.779   2.111   0.264
 6824SOL    HW221369   3.886   1.991   0.296
 6825SOL     OW21370   3.803   3.102   0.653
 6825SOL    HW121371   3.802   3.055   0.741
 6825SOL    HW221372   3.885   3.074   0.602
 6826SOL     OW21373   3.763   2.939   0.300
 6826SOL    HW121374   3.862   2.928   0.291
 6826SOL    HW221375   3.723   2.853   0.332
 6827SOL     OW21376   3.954   2.490   1.975
 6827SOL    HW121377   3.861   2.488   2.012
 6827SOL    HW221378   3.955   2.451   1.883
 6828SOL     OW21379   3.949   2.137   2.858
 6828SOL    HW121380   3.984   2.120   2.950
 6828SOL    HW221381   3.861   2.092   2.846
 6829SOL     OW21382   3.743   2.230   2.509
 6829SOL    HW121383   3.661   2.273   2.548
 6829SOL    HW221384   3.715   2.157   2.446
 6830SOL     OW21385   4.059   3.297   2.923
 6830SOL    HW121386   3.981   3.266   2.870
 6830SOL    HW221387   4.117   3.355   2.866
 6831SOL     OW21388   3.955   3.575   2.345
 6831SOL    HW121389   3.989   3.652   2.399
 6831SOL    HW221390   3.999   3.575   2.255
 6832SOL     OW21391   3.954   3.296   2.400
 6832SOL    HW121392   3.928   3.392   2.400
 6832SOL    HW221393   3.883   3.242   2.445
 6833SOL     OW21394   3.846   2.505   2.425
 6833SOL    HW121395   3.801   2.417   2.442
 6833SOL    HW221396   3.845   2.559   2.509
 6834SOL     OW21397   3.751   3.458   1.979
 6834SOL    HW121398   3.732   3.362   2.000
 6834SOL    HW221399   3.718   3.516   2.054
 6835SOL     OW21400   3.837   2.599   3.459
 6835SOL    HW121401   3.925   2.586   3.504
 6835SOL    HW221402   3.824   2.696   3.437
 6836SOL     OW21403   3.800   2.673   2.651
 6836SOL    HW121404   3.899   2.661   2.660
 6836SOL    HW221405   3.776   2.768   2.672
 6837SOL     OW21406   3.854   3.683   3.433
 6837SOL    HW121407   3.844   3.668   3.532
 6837SOL    HW221408   3.768   3.719   3.397
 6838SOL     OW21409   3.926   2.147   3.360
 6838SOL    HW121410   3.846   2.207   3.347
 6838SOL    HW221411   3.916   2.098   3.446
 6839SOL     OW21412   4.021   1.897   2.033
 6839SOL    HW121413   4.070   1.981   2.012
 6839SOL    HW221414   4.083   1.832   2.078
 6840SOL     OW21415   3.802   2.418   3.248
 6840SOL    HW121416   3.894   2.417   3.207
 6840SOL    HW221417   3.796   2.492   3.315
 6841SOL     OW21418   4.251   2.118   2.190
 6841SOL    HW121419   4.278   2.059   2.115
 6841SOL    HW221420   4.251   2.213   2.159
 6842SOL     OW21421   3.788   3.426   3.193
 6842SOL    HW121422   3.742   3.508   3.159
 6842SOL    HW221423   3.886   3.445   3.202
 6843SOL     OW21424   4.091   2.962   2.363
 6843SOL    HW121425   4.084   3.045   2.307
 6843SOL    HW221426   4.095   2.882   2.303
 6844SOL     OW21427   4.031   2.075   3.093
 6844SOL    HW121428   4.008   2.112   3.183
 6844SOL    HW221429   4.001   1.980   3.087
 6845SOL     OW21430   3.761   3.172   3.144
 6845SOL    HW121431   3.814   3.123   3.212
 6845SOL    HW221432   3.783   3.270   3.149
 6846SOL     OW21433   4.031   1.925   2.480
 6846SOL    HW121434   4.020   2.019   2.513
 6846SOL    HW221435   4.026   1.862   2.557
 6847SOL     OW21436   3.732   3.188   2.062
 6847SOL    HW121437   3.639   3.209   2.031
 6847SOL    HW221438   3.742   3.089   2.075
 6848SOL     OW21439   3.812   3.663   2.789
 6848SOL    HW121440   3.770   3.577   2.762
 6848SOL    HW221441   3.906   3.666   2.755
 6849SOL     OW21442   4.228   3.430   2.772
 6849SOL    HW121443   4.294   3.504   2.781
 6849SOL    HW221444   4.272   3.351   2.730
 6850SOL     OW21445   3.764   2.406   2.976
 6850SOL    HW121446   3.849   2.373   2.935
 6850SOL    HW221447   3.777   2.421   3.074
 6851SOL     OW21448   3.913   2.382   3.584
 6851SOL    HW121449   3.972   2.342   3.514
 6851SOL    HW221450   3.855   2.453   3.543
 6852SOL     OW21451   3.976   3.426   3.606
 6852SOL    HW121452   3.946   3.483   3.682
 6852SOL    HW221453   3.969   3.329   3.632
 6853SOL     OW21454   3.883   2.999   3.328
 6853SOL    HW121455   3.905   2.938   3.404
 6853SOL    HW221456   3.893   2.950   3.242
 6854SOL     OW21457   3.807   3.120   2.884
 6854SOL    HW121458   3.802   3.119   2.984
 6854SOL    HW221459   3.724   3.079   2.846
 6855SOL     OW21460   3.854   3.656   3.713
 6855SOL    HW121461   3.813   3.582   3.766
 6855SOL    HW221462   3.918   3.707   3.771
 6856SOL     OW21463   3.799   2.207   1.895
 6856SOL    HW121464   3.707   2.179   1.866
 6856SOL    HW221465   3.830   2.284   1.839
 6857SOL     OW21466   3.796   2.028   2.180
 6857SOL    HW121467   3.779   2.111   2.126
 6857SOL    HW221468   3.886   1.991   2.158
 6858SOL     OW21469   3.803   3.102   2.515
 6858SOL    HW121470   3.802   3.055   2.603
 6858SOL    HW221471   3.885   3.074   2.464
 6859SOL     OW21472   3.763   2.939   2.162
 6859SOL    HW121473   3.862   2.928   2.153
 6859SOL    HW221474   3.723   2.853   2.194
 6860SOL     OW21475   3.954   2.490   3.837
 6860SOL    HW121476   3.861   2.488   3.874
 6860SOL    HW221477   3.955   2.451   3.745
 6861SOL     OW21478   3.949   2.137   4.720
 6861SOL    HW121479   3.984   2.120   4.812
 6861SOL    HW221480   3.861   2.092   4.708
 6862SOL     OW21481   3.743   2.230   4.371
 6862SOL    HW121482   3.661   2.273   4.410
 6862SOL    HW221483   3.715   2.157   4.308
 6863SOL     OW21484   4.059   3.297   4.785
 6863SOL    HW121485   3.981   3.266   4.732
 6863SOL    HW221486   4.117   3.355   4.728
 6864SOL     OW21487   3.955   3.575   4.207
 6864SOL    HW121488   3.989   3.652   4.261
 6864SOL    HW221489   3.999   3.575   4.117
 6865SOL     OW21490   3.954   3.296   4.262
 6865SOL    HW121491   3.928   3.392   4.262
 6865SOL    HW221492   3.883   3.242   4.307
 6866SOL     OW21493   3.846   2.505   4.287
 6866SOL    HW121494   3.801   2.417   4.304
 6866SOL    HW221495   3.845   2.559   4.371
 6867SOL     OW21496   3.751   3.458   3.841
 6867SOL    HW121497   3.732   3.362   3.862
 6867SOL    HW221498   3.718   3.516   3.916
 6868SOL     OW21499   3.837   2.599   5.321
 6868SOL    HW121500   3.925   2.586   5.366
 6868SOL    HW221501   3.824   2.696   5.299
 6869SOL     OW21502   3.800   2.673   4.513
 6869SOL    HW121503   3.899   2.661   4.522
 6869SOL    HW221504   3.776   2.768   4.534
 6870SOL     OW21505   3.854   3.683   5.295
 6870SOL    HW121506   3.844   3.668   5.394
 6870SOL    HW221507   3.768   3.719   5.259
 6871SOL     OW21508   3.926   2.147   5.222
 6871SOL    HW121509   3.846   2.207   5.209
 6871SOL    HW221510   3.916   2.098   5.308
 6872SOL     OW21511   4.021   1.897   3.895
 6872SOL    HW121512   4.070   1.981   3.874
 6872SOL    HW221513   4.083   1.832   3.940
 6873SOL     OW21514   3.802   2.418   5.110
 6873SOL    HW121515   3.894   2.417   5.069
 6873SOL    HW221516   3.796   2.492   5.177
 6874SOL     OW21517   4.251   2.118   4.052
 6874SOL    HW121518   4.278   2.059   3.977
 6874SOL    HW221519   4.251   2.213   4.021
 6875SOL     OW21520   3.788   3.426   5.055
 6875SOL    HW121521   3.742   3.508   5.021
 6875SOL    HW221522   3.886   3.445   5.064
 6876SOL     OW21523   4.091   2.962   4.225
 6876SOL    HW121524   4.084   3.045   4.169
 6876SOL    HW221525   4.095   2.882   4.165
 6877SOL     OW21526   4.031   2.075   4.955
 6877SOL    HW121527   4.008   2.112   5.045
 6877SOL    HW221528   4.001   1.980   4.949
 6878SOL     OW21529   3.761   3.172   5.006
 6878SOL    HW121530   3.814   3.123   5.074
 6878SOL    HW221531   3.783   3.270   5.011
 6879SOL     OW21532   4.031   1.925   4.342
 6879SOL    HW121533   4.020   2.019   4.375
 6879SOL    HW221534   4.026   1.862   4.419
 6880SOL     OW21535   3.732   3.188   3.924
 6880SOL    HW121536   3.639   3.209   3.893
 6880SOL    HW221537   3.742   3.089   3.937
 6881SOL     OW21538   3.812   3.663   4.651
 6881SOL    HW121539   3.770   3.577   4.624
 6881SOL    HW221540   3.906   3.666   4.617
 6882SOL     OW21541   4.228   3.430   4.634
 6882SOL    HW121542   4.294   3.504   4.643
 6882SOL    HW221543   4.272   3.351   4.592
 6883SOL     OW21544   3.764   2.406   4.838
 6883SOL    HW121545   3.849   2.373   4.797
 6883SOL    HW221546   3.777   2.421   4.936
 6884SOL     OW21547   3.913   2.382   5.446
 6884SOL    HW121548   3.972   2.342   5.376
 6884SOL    HW221549   3.855   2.453   5.405
 6885SOL     OW21550   3.976   3.426   5.468
 6885SOL    HW121551   3.946   3.483   5.544
 6885SOL    HW221552   3.969   3.329   5.494
 6886SOL     OW21553   3.883   2.999   5.190
 6886SOL    HW121554   3.905   2.938   5.266
 6886SOL    HW221555   3.893   2.950   5.104
 6887SOL     OW21556   3.807   3.120   4.746
 6887SOL    HW121557   3.802   3.119   4.846
 6887SOL    HW221558   3.724   3.079   4.708
 6888SOL     OW21559   3.854   3.656   5.575
 6888SOL    HW121560   3.813   3.582   5.628
 6888SOL    HW221561   3.918   3.707   5.633
 6889SOL     OW21562   3.799   2.207   3.757
 6889SOL    HW121563   3.707   2.179   3.728
 6889SOL    HW221564   3.830   2.284   3.701
 6890SOL     OW21565   3.796   2.028   4.042
 6890SOL    HW121566   3.779   2.111   3.988
 6890SOL    HW221567   3.886   1.991   4.020
 6891SOL     OW21568   3.803   3.102   4.377
 6891SOL    HW121569   3.802   3.055   4.465
 6891SOL    HW221570   3.885   3.074   4.326
 6892SOL     OW21571   3.763   2.939   4.024
 6892SOL    HW121572   3.862   2.928   4.015
 6892SOL    HW221573   3.723   2.853   4.056
 6893SOL     OW21574   3.954   2.490   5.699
 6893SOL    HW121575   3.861   2.488   5.736
 6893SOL    HW221576   3.955   2.451   5.607
 6894SOL     OW21577   3.949   2.137   6.582
 6894SOL    HW121578   3.984   2.120   6.674
 6894SOL    HW221579   3.861   2.092   6.570
 6895SOL     OW21580   3.743   2.230   6.233
 6895SOL    HW121581   3.661   2.273   6.272
 6895SOL    HW221582   3.715   2.157   6.170
 6896SOL     OW21583   4.059   3.297   6.647
 6896SOL    HW121584   3.981   3.266   6.594
 6896SOL    HW221585   4.117   3.355   6.590
 6897SOL     OW21586   3.955   3.575   6.069
 6897SOL    HW121587   3.989   3.652   6.123
 6897SOL    HW221588   3.999   3.575   5.979
 6898SOL     OW21589   3.954   3.296   6.124
 6898SOL    HW121590   3.928   3.392   6.124
 6898SOL    HW221591   3.883   3.242   6.169
 6899SOL     OW21592   3.846   2.505   6.149
 6899SOL    HW121593   3.801   2.417   6.166
 6899SOL    HW221594   3.845   2.559   6.233
 6900SOL     OW21595   3.751   3.458   5.703
 6900SOL    HW121596   3.732   3.362   5.724
 6900SOL    HW221597   3.718   3.516   5.778
 6901SOL     OW21598   3.837   2.599   7.183
 6901SOL    HW121599   3.925   2.586   7.228
 6901SOL    HW221600   3.824   2.696   7.161
 6902SOL     OW21601   3.800   2.673   6.375
 6902SOL    HW121602   3.899   2.661   6.384
 6902SOL    HW221603   3.776   2.768   6.396
 6903SOL     OW21604   3.854   3.683   7.157
 6903SOL    HW121605   3.844   3.668   7.256
 6903SOL    HW221606   3.768   3.719   7.121
 6904SOL     OW21607   3.926   2.147   7.084
 6904SOL    HW121608   3.846   2.207   7.071
 6904SOL    HW221609   3.916   2.098   7.170
 6905SOL     OW21610   4.021   1.897   5.757
 6905SOL    HW121611   4.070   1.981   5.736
 6905SOL    HW221612   4.083   1.832   5.802
 6906SOL     OW21613   3.802   2.418   6.972
 6906SOL    HW121614   3.894   2.417   6.931
 6906SOL    HW221615   3.796   2.492   7.039
 6907SOL     OW21616   4.251   2.118   5.914
 6907SOL    HW121617   4.278   2.059   5.839
 6907SOL    HW221618   4.251   2.213   5.883
 6908SOL     OW21619   3.788   3.426   6.917
 6908SOL    HW121620   3.742   3.508   6.883
 6908SOL    HW221621   3.886   3.445   6.926
 6909SOL     OW21622   4.091   2.962   6.087
 6909SOL    HW121623   4.084   3.045   6.031
 6909SOL    HW221624   4.095   2.882   6.027
 6910SOL     OW21625   4.031   2.075   6.817
 6910SOL    HW121626   4.008   2.112   6.907
 6910SOL    HW221627   4.001   1.980   6.811
 6911SOL     OW21628   3.761   3.172   6.868
 6911SOL    HW121629   3.814   3.123   6.936
 6911SOL    HW221630   3.783   3.270   6.873
 6912SOL     OW21631   4.031   1.925   6.204
 6912SOL    HW121632   4.020   2.019   6.237
 6912SOL    HW221633   4.026   1.862   6.281
 6913SOL     OW21634   3.732   3.188   5.786
 6913SOL    HW121635   3.639   3.209   5.755
 6913SOL    HW221636   3.742   3.089   5.799
 6914SOL     OW21637   3.812   3.663   6.513
 6914SOL    HW121638   3.770   3.577   6.486
 6914SOL    HW221639   3.906   3.666   6.479
 6915SOL     OW21640   4.228   3.430   6.496
 6915SOL    HW121641   4.294   3.504   6.505
 6915SOL    HW221642   4.272   3.351   6.454
 6916SOL     OW21643   3.764   2.406   6.700
 6916SOL    HW121644   3.849   2.373   6.659
 6916SOL    HW221645   3.777   2.421   6.798
 6917SOL     OW21646   3.913   2.382   7.308
 6917SOL    HW121647   3.972   2.342   7.238
 6917SOL    HW221648   3.855   2.453   7.267
 6918SOL     OW21649   3.976   3.426   7.330
 6918SOL    HW121650   3.946   3.483   7.406
 6918SOL    HW221651   3.969   3.329   7.356
 6919SOL     OW21652   3.883   2.999   7.052
 6919SOL    HW121653   3.905   2.938   7.128
 6919SOL    HW221654   3.893   2.950   6.966
 6920SOL     OW21655   3.807   3.120   6.608
 6920SOL    HW121656   3.802   3.119   6.708
 6920SOL    HW221657   3.724   3.079   6.570
 6921SOL     OW21658   3.854   3.656   7.437
 6921SOL    HW121659   3.813   3.582   7.490
 6921SOL    HW221660   3.918   3.707   7.495
 6922SOL     OW21661   3.799   2.207   5.619
 6922SOL    HW121662   3.707   2.179   5.590
 6922SOL    HW221663   3.830   2.284   5.563
 6923SOL     OW21664   3.796   2.028   5.904
 6923SOL    HW121665   3.779   2.111   5.850
 6923SOL    HW221666   3.886   1.991   5.882
 6924SOL     OW21667   3.803   3.102   6.239
 6924SOL    HW121668   3.802   3.055   6.327
 6924SOL    HW221669   3.885   3.074   6.188
 6925SOL     OW21670   3.763   2.939   5.886
 6925SOL    HW121671   3.862   2.928   5.877
 6925SOL    HW221672   3.723   2.853   5.918
 6926SOL     OW21673   3.954   2.490   7.561
 6926SOL    HW121674   3.861   2.488   7.598
 6926SOL    HW221675   3.955   2.451   7.469
 6927SOL     OW21676   3.949   2.137   8.444
 6927SOL    HW121677   3.984   2.120   8.536
 6927SOL    HW221678   3.861   2.092   8.432
 6928SOL     OW21679   3.743   2.230   8.095
 6928SOL    HW121680   3.661   2.273   8.134
 6928SOL    HW221681   3.715   2.157   8.032
 6929SOL     OW21682   4.059   3.297   8.509
 6929SOL    HW121683   3.981   3.266   8.456
 6929SOL    HW221684   4.117   3.355   8.452
 6930SOL     OW21685   3.955   3.575   7.931
 6930SOL    HW121686   3.989   3.652   7.985
 6930SOL    HW221687   3.999   3.575   7.841
 6931SOL     OW21688   3.954   3.296   7.986
 6931SOL    HW121689   3.928   3.392   7.986
 6931SOL    HW221690   3.883   3.242   8.031
 6932SOL     OW21691   3.846   2.505   8.011
 6932SOL    HW121692   3.801   2.417   8.028
 6932SOL    HW221693   3.845   2.559   8.095
 6933SOL     OW21694   3.751   3.458   7.565
 6933SOL    HW121695   3.732   3.362   7.586
 6933SOL    HW221696   3.718   3.516   7.640
 6934SOL     OW21697   3.837   2.599   9.045
 6934SOL    HW121698   3.925   2.586   9.090
 6934SOL    HW221699   3.824   2.696   9.023
 6935SOL     OW21700   3.800   2.673   8.237
 6935SOL    HW121701   3.899   2.661   8.246
 6935SOL    HW221702   3.776   2.768   8.258
 6936SOL     OW21703   3.854   3.683   9.019
 6936SOL    HW121704   3.844   3.668   9.118
 6936SOL    HW221705   3.768   3.719   8.983
 6937SOL     OW21706   3.926   2.147   8.946
 6937SOL    HW121707   3.846   2.207   8.933
 6937SOL    HW221708   3.916   2.098   9.032
 6938SOL     OW21709   4.021   1.897   7.619
 6938SOL    HW121710   4.070   1.981   7.598
 6938SOL    HW221711   4.083   1.832   7.664
 6939SOL     OW21712   3.802   2.418   8.834
 6939SOL    HW121713   3.894   2.417   8.793
 6939SOL    HW221714   3.796   2.492   8.901
 6940SOL     OW21715   4.251   2.118   7.776
 6940SOL    HW121716   4.278   2.059   7.701
 6940SOL    HW221717   4.251   2.213   7.745
 6941SOL     OW21718   3.788   3.426   8.779
 6941SOL    HW121719   3.742   3.508   8.745
 6941SOL    HW221720   3.886   3.445   8.788
 6942SOL     OW21721   4.091   2.962   7.949
 6942SOL    HW121722   4.084   3.045   7.893
 6942SOL    HW221723   4.095   2.882   7.889
 6943SOL     OW21724   4.031   2.075   8.679
 6943SOL    HW121725   4.008   2.112   8.769
 6943SOL    HW221726   4.001   1.980   8.673
 6944SOL     OW21727   3.761   3.172   8.730
 6944SOL    HW121728   3.814   3.123   8.798
 6944SOL    HW221729   3.783   3.270   8.735
 6945SOL     OW21730   4.031   1.925   8.066
 6945SOL    HW121731   4.020   2.019   8.099
 6945SOL    HW221732   4.026   1.862   8.143
 6946SOL     OW21733   3.732   3.188   7.648
 6946SOL    HW121734   3.639   3.209   7.617
 6946SOL    HW221735   3.742   3.089   7.661
 6947SOL     OW21736   3.812   3.663   8.375
 6947SOL    HW121737   3.770   3.577   8.348
 6947SOL    HW221738   3.906   3.666   8.341
 6948SOL     OW21739   4.228   3.430   8.358
 6948SOL    HW121740   4.294   3.504   8.367
 6948SOL    HW221741   4.272   3.351   8.316
 6949SOL     OW21742   3.764   2.406   8.562
 6949SOL    HW121743   3.849   2.373   8.521
 6949SOL    HW221744   3.777   2.421   8.660
 6950SOL     OW21745   3.913   2.382   9.170
 6950SOL    HW121746   3.972   2.342   9.100
 6950SOL    HW221747   3.855   2.453   9.129
 6951SOL     OW21748   3.976   3.426   9.192
 6951SOL    HW121749   3.946   3.483   9.268
 6951SOL    HW221750   3.969   3.329   9.218
 6952SOL     OW21751   3.883   2.999   8.914
 6952SOL    HW121752   3.905   2.938   8.990
 6952SOL    HW221753   3.893   2.950   8.828
 6953SOL     OW21754   3.807   3.120   8.470
 6953SOL    HW121755   3.802   3.119   8.570
 6953SOL    HW221756   3.724   3.079   8.432
 6954SOL     OW21757   3.854   3.656   9.299
 6954SOL    HW121758   3.813   3.582   9.352
 6954SOL    HW221759   3.918   3.707   9.357
 6955SOL     OW21760   3.799   2.207   7.481
 6955SOL    HW121761   3.707   2.179   7.452
 6955SOL    HW221762   3.830   2.284   7.425
 6956SOL     OW21763   3.796   2.028   7.766
 6956SOL    HW121764   3.779   2.111   7.712
 6956SOL    HW221765   3.886   1.991   7.744
 6957SOL     OW21766   3.803   3.102   8.101
 6957SOL    HW121767   3.802   3.055   8.189
 6957SOL    HW221768   3.885   3.074   8.050
 6958SOL     OW21769   3.763   2.939   7.748
 6958SOL    HW121770   3.862   2.928   7.739
 6958SOL    HW221771   3.723   2.853   7.780
 6959SOL     OW21772   3.954   2.490   9.423
 6959SOL    HW121773   3.861   2.488   9.460
 6959SOL    HW221774   3.955   2.451   9.331
 6960SOL     OW21775   3.949   2.137  10.306
 6960SOL    HW121776   3.984   2.120  10.398
 6960SOL    HW221777   3.861   2.092  10.294
 6961SOL     OW21778   3.743   2.230   9.957
 6961SOL    HW121779   3.661   2.273   9.996
 6961SOL    HW221780   3.715   2.157   9.894
 6962SOL     OW21781   4.059   3.297  10.371
 6962SOL    HW121782   3.981   3.266  10.318
 6962SOL    HW221783   4.117   3.355  10.314
 6963SOL     OW21784   3.955   3.575   9.793
 6963SOL    HW121785   3.989   3.652   9.847
 6963SOL    HW221786   3.999   3.575   9.703
 6964SOL     OW21787   3.954   3.296   9.848
 6964SOL    HW121788   3.928   3.392   9.848
 6964SOL    HW221789   3.883   3.242   9.893
 6965SOL     OW21790   3.846   2.505   9.873
 6965SOL    HW121791   3.801   2.417   9.890
 6965SOL    HW221792   3.845   2.559   9.957
 6966SOL     OW21793   3.751   3.458   9.427
 6966SOL    HW121794   3.732   3.362   9.448
 6966SOL    HW221795   3.718   3.516   9.502
 6967SOL     OW21796   3.837   2.599  10.907
 6967SOL    HW121797   3.925   2.586  10.952
 6967SOL    HW221798   3.824   2.696  10.885
 6968SOL     OW21799   3.800   2.673  10.099
 6968SOL    HW121800   3.899   2.661  10.108
 6968SOL    HW221801   3.776   2.768  10.120
 6969SOL     OW21802   3.854   3.683  10.881
 6969SOL    HW121803   3.844   3.668  10.980
 6969SOL    HW221804   3.768   3.719  10.845
 6970SOL     OW21805   3.926   2.147  10.808
 6970SOL    HW121806   3.846   2.207  10.795
 6970SOL    HW221807   3.916   2.098  10.894
 6971SOL     OW21808   4.021   1.897   9.481
 6971SOL    HW121809   4.070   1.981   9.460
 6971SOL    HW221810   4.083   1.832   9.526
 6972SOL     OW21811   3.802   2.418  10.696
 6972SOL    HW121812   3.894   2.417  10.655
 6972SOL    HW221813   3.796   2.492  10.763
 6973SOL     OW21814   4.251   2.118   9.638
 6973SOL    HW121815   4.278   2.059   9.563
 6973SOL    HW221816   4.251   2.213   9.607
 6974SOL     OW21817   3.788   3.426  10.641
 6974SOL    HW121818   3.742   3.508  10.607
 6974SOL    HW221819   3.886   3.445  10.650
 6975SOL     OW21820   4.091   2.962   9.811
 6975SOL    HW121821   4.084   3.045   9.755
 6975SOL    HW221822   4.095   2.882   9.751
 6976SOL     OW21823   4.031   2.075  10.541
 6976SOL    HW121824   4.008   2.112  10.631
 6976SOL    HW221825   4.001   1.980  10.535
 6977SOL     OW21826   3.761   3.172  10.592
 6977SOL    HW121827   3.814   3.123  10.660
 6977SOL    HW221828   3.783   3.270  10.597
 6978SOL     OW21829   4.031   1.925   9.928
 6978SOL    HW121830   4.020   2.019   9.961
 6978SOL    HW221831   4.026   1.862  10.005
 6979SOL     OW21832   3.732   3.188   9.510
 6979SOL    HW121833   3.639   3.209   9.479
 6979SOL    HW221834   3.742   3.089   9.523
 6980SOL     OW21835   3.812   3.663  10.237
 6980SOL    HW121836   3.770   3.577  10.210
 6980SOL    HW221837   3.906   3.666  10.203
 6981SOL     OW21838   4.228   3.430  10.220
 6981SOL    HW121839   4.294   3.504  10.229
 6981SOL    HW221840   4.272   3.351  10.178
 6982SOL     OW21841   3.764   2.406  10.424
 6982SOL    HW121842   3.849   2.373  10.383
 6982SOL    HW221843   3.777   2.421  10.522
 6983SOL     OW21844   3.913   2.382  11.032
 6983SOL    HW121845   3.972   2.342  10.962
 6983SOL    HW221846   3.855   2.453  10.991
 6984SOL     OW21847   3.976   3.426  11.054
 6984SOL    HW121848   3.946   3.483  11.130
 6984SOL    HW221849   3.969   3.329  11.080
 6985SOL     OW21850   3.883   2.999  10.776
 6985SOL    HW121851   3.905   2.938  10.852
 6985SOL    HW221852   3.893   2.950  10.690
 6986SOL     OW21853   3.807   3.120  10.332
 6986SOL    HW121854   3.802   3.119  10.432
 6986SOL    HW221855   3.724   3.079  10.294
 6987SOL     OW21856   3.854   3.656  11.161
 6987SOL    HW121857   3.813   3.582  11.214
 6987SOL    HW221858   3.918   3.707  11.219
 6988SOL     OW21859   3.799   2.207   9.343
 6988SOL    HW121860   3.707   2.179   9.314
 6988SOL    HW221861   3.830   2.284   9.287
 6989SOL     OW21862   3.796   2.028   9.628
 6989SOL    HW121863   3.779   2.111   9.574
 6989SOL    HW221864   3.886   1.991   9.606
 6990SOL     OW21865   3.803   3.102   9.963
 6990SOL    HW121866   3.802   3.055  10.051
 6990SOL    HW221867   3.885   3.074   9.912
 6991SOL     OW21868   3.763   2.939   9.610
 6991SOL    HW121869   3.862   2.928   9.601
 6991SOL    HW221870   3.723   2.853   9.642
 6992SOL     OW21871   3.954   2.490  11.285
 6992SOL    HW121872   3.861   2.488  11.322
 6992SOL    HW221873   3.955   2.451  11.193
 6993SOL     OW21874   3.949   2.137  12.168
 6993SOL    HW121875   3.984   2.120  12.260
 6993SOL    HW221876   3.861   2.092  12.156
 6994SOL     OW21877   3.743   2.230  11.819
 6994SOL    HW121878   3.661   2.273  11.858
 6994SOL    HW221879   3.715   2.157  11.756
 6995SOL     OW21880   4.059   3.297  12.233
 6995SOL    HW121881   3.981   3.266  12.180
 6995SOL    HW221882   4.117   3.355  12.176
 6996SOL     OW21883   3.955   3.575  11.655
 6996SOL    HW121884   3.989   3.652  11.709
 6996SOL    HW221885   3.999   3.575  11.565
 6997SOL     OW21886   3.954   3.296  11.710
 6997SOL    HW121887   3.928   3.392  11.710
 6997SOL    HW221888   3.883   3.242  11.755
 6998SOL     OW21889   3.846   2.505  11.735
 6998SOL    HW121890   3.801   2.417  11.752
 6998SOL    HW221891   3.845   2.559  11.819
 6999SOL     OW21892   3.751   3.458  11.289
 6999SOL    HW121893   3.732   3.362  11.310
 6999SOL    HW221894   3.718   3.516  11.364
 7000SOL     OW21895   3.837   2.599  12.769
 7000SOL    HW121896   3.925   2.586  12.814
 7000SOL    HW221897   3.824   2.696  12.747
 7001SOL     OW21898   3.800   2.673  11.961
 7001SOL    HW121899   3.899   2.661  11.970
 7001SOL    HW221900   3.776   2.768  11.982
 7002SOL     OW21901   3.854   3.683  12.743
 7002SOL    HW121902   3.844   3.668  12.842
 7002SOL    HW221903   3.768   3.719  12.707
 7003SOL     OW21904   3.926   2.147  12.670
 7003SOL    HW121905   3.846   2.207  12.657
 7003SOL    HW221906   3.916   2.098  12.756
 7004SOL     OW21907   4.021   1.897  11.343
 7004SOL    HW121908   4.070   1.981  11.322
 7004SOL    HW221909   4.083   1.832  11.388
 7005SOL     OW21910   3.802   2.418  12.558
 7005SOL    HW121911   3.894   2.417  12.517
 7005SOL    HW221912   3.796   2.492  12.625
 7006SOL     OW21913   4.251   2.118  11.500
 7006SOL    HW121914   4.278   2.059  11.425
 7006SOL    HW221915   4.251   2.213  11.469
 7007SOL     OW21916   3.788   3.426  12.503
 7007SOL    HW121917   3.742   3.508  12.469
 7007SOL    HW221918   3.886   3.445  12.512
 7008SOL     OW21919   4.091   2.962  11.673
 7008SOL    HW121920   4.084   3.045  11.617
 7008SOL    HW221921   4.095   2.882  11.613
 7009SOL     OW21922   4.031   2.075  12.403
 7009SOL    HW121923   4.008   2.112  12.493
 7009SOL    HW221924   4.001   1.980  12.397
 7010SOL     OW21925   3.761   3.172  12.454
 7010SOL    HW121926   3.814   3.123  12.522
 7010SOL    HW221927   3.783   3.270  12.459
 7011SOL     OW21928   4.031   1.925  11.790
 7011SOL    HW121929   4.020   2.019  11.823
 7011SOL    HW221930   4.026   1.862  11.867
 7012SOL     OW21931   3.732   3.188  11.372
 7012SOL    HW121932   3.639   3.209  11.341
 7012SOL    HW221933   3.742   3.089  11.385
 7013SOL     OW21934   3.812   3.663  12.099
 7013SOL    HW121935   3.770   3.577  12.072
 7013SOL    HW221936   3.906   3.666  12.065
 7014SOL     OW21937   4.228   3.430  12.082
 7014SOL    HW121938   4.294   3.504  12.091
 7014SOL    HW221939   4.272   3.351  12.040
 7015SOL     OW21940   3.764   2.406  12.286
 7015SOL    HW121941   3.849   2.373  12.245
 7015SOL    HW221942   3.777   2.421  12.384
 7016SOL     OW21943   3.913   2.382  12.894
 7016SOL    HW121944   3.972   2.342  12.824
 7016SOL    HW221945   3.855   2.453  12.853
 7017SOL     OW21946   3.976   3.426  12.916
 7017SOL    HW121947   3.946   3.483  12.992
 7017SOL    HW221948   3.969   3.329  12.942
 7018SOL     OW21949   3.883   2.999  12.638
 7018SOL    HW121950   3.905   2.938  12.714
 7018SOL    HW221951   3.893   2.950  12.552
 7019SOL     OW21952   3.807   3.120  12.194
 7019SOL    HW121953   3.802   3.119  12.294
 7019SOL    HW221954   3.724   3.079  12.156
 7020SOL     OW21955   3.854   3.656  13.023
 7020SOL    HW121956   3.813   3.582  13.076
 7020SOL    HW221957   3.918   3.707  13.081
 7021SOL     OW21958   3.799   2.207  11.205
 7021SOL    HW121959   3.707   2.179  11.176
 7021SOL    HW221960   3.830   2.284  11.149
 7022SOL     OW21961   3.796   2.028  11.490
 7022SOL    HW121962   3.779   2.111  11.436
 7022SOL    HW221963   3.886   1.991  11.468
 7023SOL     OW21964   3.803   3.102  11.825
 7023SOL    HW121965   3.802   3.055  11.913
 7023SOL    HW221966   3.885   3.074  11.774
 7024SOL     OW21967   3.763   2.939  11.472
 7024SOL    HW121968   3.862   2.928  11.463
 7024SOL    HW221969   3.723   2.853  11.504
 7025SOL     OW21970   3.954   2.490  13.147
 7025SOL    HW121971   3.861   2.488  13.184
 7025SOL    HW221972   3.955   2.451  13.055
 7026SOL     OW21973   3.743   2.230  13.681
 7026SOL    HW121974   3.661   2.273  13.720
 7026SOL    HW221975   3.715   2.157  13.618
 7027SOL     OW21976   3.955   3.575  13.517
 7027SOL    HW121977   3.989   3.652  13.571
 7027SOL    HW221978   3.999   3.575  13.427
 7028SOL     OW21979   3.954   3.296  13.572
 7028SOL    HW121980   3.928   3.392  13.572
 7028SOL    HW221981   3.883   3.242  13.617
 7029SOL     OW21982   3.964   2.953  13.920
 7029SOL    HW121983   3.978   2.869  13.972
 7029SOL    HW221984   3.909   3.017  13.975
 7030SOL     OW21985   3.846   2.505  13.597
 7030SOL    HW121986   3.801   2.417  13.614
 7030SOL    HW221987   3.845   2.559  13.681
 7031SOL     OW21988   3.751   3.458  13.151
 7031SOL    HW121989   3.732   3.362  13.172
 7031SOL    HW221990   3.718   3.516  13.226
 7032SOL     OW21991   3.800   2.673  13.823
 7032SOL    HW121992   3.899   2.661  13.832
 7032SOL    HW221993   3.776   2.768  13.844
 7033SOL     OW21994   4.075   3.663  13.887
 7033SOL    HW121995   4.125   3.577  13.893
 7033SOL    HW221996   4.140   3.740  13.884
 7034SOL     OW21997   4.021   1.897  13.205
 7034SOL    HW121998   4.070   1.981  13.184
 7034SOL    HW221999   4.083   1.832  13.250
 7035SOL     OW22000   4.251   2.118  13.362
 7035SOL    HW122001   4.278   2.059  13.287
 7035SOL    HW222002   4.251   2.213  13.331
 7036SOL     OW22003   4.091   2.962  13.535
 7036SOL    HW122004   4.084   3.045  13.479
 7036SOL    HW222005   4.095   2.882  13.475
 7037SOL     OW22006   4.031   1.925  13.652
 7037SOL    HW122007   4.020   2.019  13.685
 7037SOL    HW222008   4.026   1.862  13.729
 7038SOL     OW22009   3.732   3.188  13.234
 7038SOL    HW122010   3.639   3.209  13.203
 7038SOL    HW222011   3.742   3.089  13.247
 7039SOL     OW22012   4.228   3.430  13.944
 7039SOL    HW122013   4.294   3.504  13.953
 7039SOL    HW222014   4.272   3.351  13.902
 7040SOL     OW22015   3.799   2.207  13.067
 7040SOL    HW122016   3.707   2.179  13.038
 7040SOL    HW222017   3.830   2.284  13.011
 7041SOL     OW22018   3.796   2.028  13.352
 7041SOL    HW122019   3.779   2.111  13.298
 7041SOL    HW222020   3.886   1.991  13.330
 7042SOL     OW22021   3.803   3.102  13.687
 7042SOL    HW122022   3.802   3.055  13.775
 7042SOL    HW222023   3.885   3.074  13.636
 7043SOL     OW22024   3.763   2.939  13.334
 7043SOL    HW122025   3.862   2.928  13.325
 7043SOL    HW222026   3.723   2.853  13.366
 7044SOL     OW22027   3.949   3.999   0.996
 7044SOL    HW122028   3.984   3.982   1.088
 7044SOL    HW222029   3.861   3.954   0.984
 7045SOL     OW22030   3.743   4.092   0.647
 7045SOL    HW122031   3.661   4.135   0.686
 7045SOL    HW222032   3.715   4.019   0.584
 7046SOL     OW22033   3.926   4.009   1.498
 7046SOL    HW122034   3.846   4.069   1.485
 7046SOL    HW222035   3.916   3.960   1.584
 7047SOL     OW22036   4.021   3.759   0.171
 7047SOL    HW122037   4.070   3.843   0.150
 7047SOL    HW222038   4.083   3.694   0.216
 7048SOL     OW22039   4.031   3.937   1.231
 7048SOL    HW122040   4.008   3.974   1.321
 7048SOL    HW222041   4.001   3.842   1.225
 7049SOL     OW22042   4.031   3.787   0.618
 7049SOL    HW122043   4.020   3.881   0.651
 7049SOL    HW222044   4.026   3.724   0.695
 7050SOL     OW22045   3.796   3.890   0.318
 7050SOL    HW122046   3.779   3.973   0.264
 7050SOL    HW222047   3.886   3.853   0.296
 7051SOL     OW22048   3.949   3.999   2.858
 7051SOL    HW122049   3.984   3.982   2.950
 7051SOL    HW222050   3.861   3.954   2.846
 7052SOL     OW22051   3.743   4.092   2.509
 7052SOL    HW122052   3.661   4.135   2.548
 7052SOL    HW222053   3.715   4.019   2.446
 7053SOL     OW22054   3.926   4.009   3.360
 7053SOL    HW122055   3.846   4.069   3.347
 7053SOL    HW222056   3.916   3.960   3.446
 7054SOL     OW22057   4.021   3.759   2.033
 7054SOL    HW122058   4.070   3.843   2.012
 7054SOL    HW222059   4.083   3.694   2.078
 7055SOL     OW22060   4.031   3.937   3.093
 7055SOL    HW122061   4.008   3.974   3.183
 7055SOL    HW222062   4.001   3.842   3.087
 7056SOL     OW22063   4.031   3.787   2.480
 7056SOL    HW122064   4.020   3.881   2.513
 7056SOL    HW222065   4.026   3.724   2.557
 7057SOL     OW22066   3.799   4.069   1.895
 7057SOL    HW122067   3.707   4.041   1.866
 7057SOL    HW222068   3.830   4.146   1.839
 7058SOL     OW22069   3.796   3.890   2.180
 7058SOL    HW122070   3.779   3.973   2.126
 7058SOL    HW222071   3.886   3.853   2.158
 7059SOL     OW22072   3.949   3.999   4.720
 7059SOL    HW122073   3.984   3.982   4.812
 7059SOL    HW222074   3.861   3.954   4.708
 7060SOL     OW22075   3.743   4.092   4.371
 7060SOL    HW122076   3.661   4.135   4.410
 7060SOL    HW222077   3.715   4.019   4.308
 7061SOL     OW22078   3.926   4.009   5.222
 7061SOL    HW122079   3.846   4.069   5.209
 7061SOL    HW222080   3.916   3.960   5.308
 7062SOL     OW22081   4.021   3.759   3.895
 7062SOL    HW122082   4.070   3.843   3.874
 7062SOL    HW222083   4.083   3.694   3.940
 7063SOL     OW22084   4.031   3.937   4.955
 7063SOL    HW122085   4.008   3.974   5.045
 7063SOL    HW222086   4.001   3.842   4.949
 7064SOL     OW22087   4.031   3.787   4.342
 7064SOL    HW122088   4.020   3.881   4.375
 7064SOL    HW222089   4.026   3.724   4.419
 7065SOL     OW22090   3.799   4.069   3.757
 7065SOL    HW122091   3.707   4.041   3.728
 7065SOL    HW222092   3.830   4.146   3.701
 7066SOL     OW22093   3.796   3.890   4.042
 7066SOL    HW122094   3.779   3.973   3.988
 7066SOL    HW222095   3.886   3.853   4.020
 7067SOL     OW22096   3.949   3.999   6.582
 7067SOL    HW122097   3.984   3.982   6.674
 7067SOL    HW222098   3.861   3.954   6.570
 7068SOL     OW22099   3.743   4.092   6.233
 7068SOL    HW122100   3.661   4.135   6.272
 7068SOL    HW222101   3.715   4.019   6.170
 7069SOL     OW22102   3.926   4.009   7.084
 7069SOL    HW122103   3.846   4.069   7.071
 7069SOL    HW222104   3.916   3.960   7.170
 7070SOL     OW22105   4.021   3.759   5.757
 7070SOL    HW122106   4.070   3.843   5.736
 7070SOL    HW222107   4.083   3.694   5.802
 7071SOL     OW22108   4.031   3.937   6.817
 7071SOL    HW122109   4.008   3.974   6.907
 7071SOL    HW222110   4.001   3.842   6.811
 7072SOL     OW22111   4.031   3.787   6.204
 7072SOL    HW122112   4.020   3.881   6.237
 7072SOL    HW222113   4.026   3.724   6.281
 7073SOL     OW22114   3.799   4.069   5.619
 7073SOL    HW122115   3.707   4.041   5.590
 7073SOL    HW222116   3.830   4.146   5.563
 7074SOL     OW22117   3.796   3.890   5.904
 7074SOL    HW122118   3.779   3.973   5.850
 7074SOL    HW222119   3.886   3.853   5.882
 7075SOL     OW22120   3.949   3.999   8.444
 7075SOL    HW122121   3.984   3.982   8.536
 7075SOL    HW222122   3.861   3.954   8.432
 7076SOL     OW22123   3.743   4.092   8.095
 7076SOL    HW122124   3.661   4.135   8.134
 7076SOL    HW222125   3.715   4.019   8.032
 7077SOL     OW22126   3.926   4.009   8.946
 7077SOL    HW122127   3.846   4.069   8.933
 7077SOL    HW222128   3.916   3.960   9.032
 7078SOL     OW22129   4.021   3.759   7.619
 7078SOL    HW122130   4.070   3.843   7.598
 7078SOL    HW222131   4.083   3.694   7.664
 7079SOL     OW22132   4.031   3.937   8.679
 7079SOL    HW122133   4.008   3.974   8.769
 7079SOL    HW222134   4.001   3.842   8.673
 7080SOL     OW22135   4.031   3.787   8.066
 7080SOL    HW122136   4.020   3.881   8.099
 7080SOL    HW222137   4.026   3.724   8.143
 7081SOL     OW22138   3.799   4.069   7.481
 7081SOL    HW122139   3.707   4.041   7.452
 7081SOL    HW222140   3.830   4.146   7.425
 7082SOL     OW22141   3.796   3.890   7.766
 7082SOL    HW122142   3.779   3.973   7.712
 7082SOL    HW222143   3.886   3.853   7.744
 7083SOL     OW22144   3.949   3.999  10.306
 7083SOL    HW122145   3.984   3.982  10.398
 7083SOL    HW222146   3.861   3.954  10.294
 7084SOL     OW22147   3.743   4.092   9.957
 7084SOL    HW122148   3.661   4.135   9.996
 7084SOL    HW222149   3.715   4.019   9.894
 7085SOL     OW22150   3.926   4.009  10.808
 7085SOL    HW122151   3.846   4.069  10.795
 7085SOL    HW222152   3.916   3.960  10.894
 7086SOL     OW22153   4.021   3.759   9.481
 7086SOL    HW122154   4.070   3.843   9.460
 7086SOL    HW222155   4.083   3.694   9.526
 7087SOL     OW22156   4.031   3.937  10.541
 7087SOL    HW122157   4.008   3.974  10.631
 7087SOL    HW222158   4.001   3.842  10.535
 7088SOL     OW22159   4.031   3.787   9.928
 7088SOL    HW122160   4.020   3.881   9.961
 7088SOL    HW222161   4.026   3.724  10.005
 7089SOL     OW22162   3.799   4.069   9.343
 7089SOL    HW122163   3.707   4.041   9.314
 7089SOL    HW222164   3.830   4.146   9.287
 7090SOL     OW22165   3.796   3.890   9.628
 7090SOL    HW122166   3.779   3.973   9.574
 7090SOL    HW222167   3.886   3.853   9.606
 7091SOL     OW22168   3.949   3.999  12.168
 7091SOL    HW122169   3.984   3.982  12.260
 7091SOL    HW222170   3.861   3.954  12.156
 7092SOL     OW22171   3.743   4.092  11.819
 7092SOL    HW122172   3.661   4.135  11.858
 7092SOL    HW222173   3.715   4.019  11.756
 7093SOL     OW22174   3.926   4.009  12.670
 7093SOL    HW122175   3.846   4.069  12.657
 7093SOL    HW222176   3.916   3.960  12.756
 7094SOL     OW22177   4.021   3.759  11.343
 7094SOL    HW122178   4.070   3.843  11.322
 7094SOL    HW222179   4.083   3.694  11.388
 7095SOL     OW22180   4.031   3.937  12.403
 7095SOL    HW122181   4.008   3.974  12.493
 7095SOL    HW222182   4.001   3.842  12.397
 7096SOL     OW22183   4.031   3.787  11.790
 7096SOL    HW122184   4.020   3.881  11.823
 7096SOL    HW222185   4.026   3.724  11.867
 7097SOL     OW22186   3.799   4.069  11.205
 7097SOL    HW122187   3.707   4.041  11.176
 7097SOL    HW222188   3.830   4.146  11.149
 7098SOL     OW22189   3.796   3.890  11.490
 7098SOL    HW122190   3.779   3.973  11.436
 7098SOL    HW222191   3.886   3.853  11.468
 7099SOL     OW22192   3.743   4.092  13.681
 7099SOL    HW122193   3.661   4.135  13.720
 7099SOL    HW222194   3.715   4.019  13.618
 7100SOL     OW22195   4.021   3.759  13.205
 7100SOL    HW122196   4.070   3.843  13.184
 7100SOL    HW222197   4.083   3.694  13.250
 7101SOL     OW22198   4.031   3.787  13.652
 7101SOL    HW122199   4.020   3.881  13.685
 7101SOL    HW222200   4.026   3.724  13.729
 7102SOL     OW22201   3.799   4.069  13.067
 7102SOL    HW122202   3.707   4.041  13.038
 7102SOL    HW222203   3.830   4.146  13.011
 7103SOL     OW22204   3.796   3.890  13.352
 7103SOL    HW122205   3.779   3.973  13.298
 7103SOL    HW222206   3.886   3.853  13.330
   4.00000   4.00000  13.90000
